/*--------------------------------*- C++ -*----------------------------------*\
  =========                 |
  \\      /  F ield         | OpenFOAM: The Open Source CFD Toolbox
   \\    /   O peration     | Website:  https://openfoam.org
    \\  /    A nd           | Version:  7
     \\/     M anipulation  |
\*---------------------------------------------------------------------------*/
FoamFile
{
    version     2.0;
    format      ascii;
    class       volScalarField;
    location    "0.0021";
    object      generalizedNewtonian:nu;
}
// * * * * * * * * * * * * * * * * * * * * * * * * * * * * * * * * * * * * * //

dimensions      [0 2 -1 0 0 0 0];

internalField   nonuniform List<scalar> 
1167
(
412.9166337
411.592312
409.3882891
405.5585606
400.7824891
395.0945713
388.5931059
381.3961268
373.6157149
365.3632909
356.7304008
347.7992734
338.6578211
329.3729342
320.0007833
310.6092618
301.2310055
291.9149826
282.6900565
384.4229244
383.1466554
381.2905595
377.7779146
373.4509337
368.2961484
362.4063113
355.8901972
348.8533783
341.3899178
333.5786983
325.5008731
317.2345969
308.8313644
300.3525773
291.8438904
283.3419891
274.8920047
266.5115906
258.2370192
250.0790637
242.062794
234.195351
226.4929934
218.9593938
211.6055992
204.4327196
197.4479787
190.6493224
184.0421211
177.6217803
171.3922806
165.3476166
159.491142
153.8150767
148.3223552
143.0050121
137.8662856
132.8979859
128.1036229
123.4754761
119.0176811
114.7234631
110.5965552
106.6310701
102.8299874
99.18809801
95.71151869
92.40430249
89.20372855
355.9220534
354.6901797
353.1600387
349.9452716
346.0388481
341.3951675
336.090921
330.2281792
323.901305
317.1872239
310.161059
302.9041142
295.4701461
287.9124616
280.2888395
272.6297722
264.9778139
257.3597605
249.8014012
242.3273476
234.9494618
227.6899842
220.5515788
213.5532553
206.6923153
199.9850477
193.4263259
187.0285472
180.7851522
174.705864
168.7836775
163.0255169
157.4252907
151.9874997
146.70646
141.5851355
136.6191388
131.8105065
127.1557419
122.6564966
118.3102094
114.1186489
110.0795237
106.1944012
102.4609053
98.87998355
95.44839287
92.17182609
89.05581485
86.03017517
327.7538696
326.5679014
325.3338606
322.4034436
318.8978787
314.7371286
309.9860925
304.739685
299.0755558
293.0664166
286.7868826
280.2989164
273.6517863
266.900175
260.0827908
253.2328618
246.3888986
239.5673607
232.7985194
226.0935392
219.4721163
212.9433328
206.5185609
200.2047658
194.0084387
187.9351442
181.9883995
176.1715332
170.4865566
164.9351426
159.5184794
154.2371002
149.0922923
144.0831929
139.2111403
134.4749129
129.8765804
125.4146191
121.0913807
116.9053919
112.8594201
108.952214
105.1858936
101.5591426
98.07340738
94.72657452
91.5185719
88.45264156
85.53792753
82.69614209
300.2465314
299.1135275
298.1462366
295.4868629
292.3550952
288.6437237
284.4077815
279.7287134
274.6793319
269.3287114
263.7432853
257.9711358
252.0614188
246.0619155
240.0015924
233.9170983
227.83197
221.7673907
215.7456328
209.7748796
203.8760638
198.050036
192.3129468
186.6632455
181.1131326
175.6604615
170.3142859
165.0713244
159.9394391
154.9144148
150.00325
145.2016617
140.5164508
135.9426999
131.4872159
127.1454407
122.9245558
118.8203599
114.8395061
110.97852
107.2436915
103.6318216
100.1481285
96.78909988
93.55920274
90.45364895
87.47520043
84.62496236
81.91535597
79.2621158
273.7034244
272.6282896
271.8911522
269.4832937
266.6952202
263.3960865
259.6288638
255.4703479
250.9868091
246.2460076
241.2964504
236.184044
230.9587253
225.6526717
220.2962525
214.9220762
209.5453798
204.1907496
198.8688867
193.5941251
188.3758549
183.2205462
178.1363595
173.1249976
168.1939879
163.3425427
158.5767697
153.8947216
149.3018144
144.7957869
140.3813436
136.057016
131.8267624
127.6896788
123.6494858
119.7063942
115.8639685
112.1230458
108.487009
104.9569842
101.5361444
98.22513151
95.02638441
91.93980594
88.96706626
86.10611205
83.35773672
80.7250226
78.22056676
75.75755941
248.3640076
247.3489255
246.803703
244.6293252
242.1515491
239.2243877
235.8832719
232.1986338
228.2361881
224.0466412
219.6757774
215.1693402
210.5666011
205.8953619
201.1877826
196.4643799
191.7429319
187.0428042
182.3703083
177.7424086
173.1599493
168.6334217
164.1631068
159.7554837
155.4106321
151.1324813
146.920486
142.7776332
138.7032048
134.699869
130.7672482
126.9084936
123.1231717
119.4149143
115.7838602
112.2344884
108.7672239
105.3868571
102.0939184
98.89325502
95.78531685
92.77395655
89.85910941
87.04362554
84.32682132
81.70928291
79.18950194
76.77338897
74.47199849
72.19912866
224.4062438
223.4549677
223.0659751
221.1047276
218.9073759
216.3162782
213.3600283
210.1072984
206.6119853
202.9192651
199.071638
195.1134049
191.0728647
186.9783631
182.8577683
178.7257438
174.6025522
170.498284
166.4232587
162.3864729
158.3905979
154.4432893
150.5425729
146.6957714
142.8985122
139.1572978
135.4667164
131.8329466
128.250645
124.7258453
121.254271
117.8420912
114.4858759
111.1918898
107.9582572
104.7915078
101.6907337
98.66239472
95.70606563
92.82800203
90.02767539
87.31035232
84.67483045
82.12567145
79.66057346
77.28224344
74.98729947
72.78413
70.68223872
68.5966399
201.9585811
201.0734635
200.8103371
199.0464918
197.1020008
194.8124463
192.2038013
189.3365014
186.2578324
183.0093159
179.6335927
176.1634666
172.6259033
169.0500354
165.4542313
161.854467
158.2677982
154.7001863
151.1642731
147.6619461
144.1993578
140.7777069
137.398928
134.0639588
130.7722831
127.5244848
124.3190659
121.1568394
118.036186
114.9584495
111.922904
108.9313573
105.9839816
103.0833744
100.2310016
97.43011432
94.68295348
91.99304497
89.36296895
86.7962661
84.29503497
81.86217999
79.49898991
77.20782007
74.98861795
72.84216622
70.76688656
68.77070518
66.8634549
64.96088097
181.1101865
180.2928201
180.1289483
178.5460749
176.8272968
174.8080454
172.5081503
169.9821128
167.2732423
164.4214781
161.4630426
158.4255466
155.3359143
152.218379
149.0877724
145.9617391
142.8502137
139.761449
136.7039051
133.6784181
130.6920663
127.7416799
124.8317685
121.9585654
119.1242044
116.324867
113.5618494
110.8316961
108.1355869
105.4710456
102.8399329
100.2405594
97.67566077
95.14479376
92.65185359
90.19730619
87.78572757
85.41809381
83.09925612
80.83037933
78.61562567
76.45579841
74.3541951
72.31124688
70.32889092
68.40613252
66.54329498
64.74693817
63.02844678
61.3032674
161.9059988
161.1559305
161.067344
159.6486468
158.1317983
156.3511272
154.3233785
152.0988912
149.7174722
147.2165493
144.6246128
141.9676314
139.2727212
136.5568343
133.83542
131.1240804
128.4293421
125.761425
123.1235108
120.5194393
117.951281
115.4184915
112.9225353
110.4602434
108.0325171
105.6348855
103.2684599
100.928438
98.61633669
96.32819236
94.06618822
91.8273263
89.61466285
87.42671881
85.26752368
83.1367407
81.03900709
78.97467058
76.948691
74.96152877
73.01769443
71.11717972
69.26406803
67.45758297
65.70105315
63.99202973
62.33241678
60.72749751
59.18982155
57.63596879
144.3476266
143.6628547
143.6301386
142.3612413
141.0215534
139.4507829
137.6630463
135.7044134
133.6129805
131.4181411
129.1465836
126.8239837
124.4717886
122.105335
119.7409357
117.388785
115.0566681
112.7530353
110.4792356
108.2408629
106.0363166
103.8675212
101.7324192
99.63034706
97.55880882
95.51588546
93.49920723
91.50645825
89.53590599
87.58578691
85.65512233
83.7429932
81.84957207
79.97523864
78.12127644
76.28906799
74.48068562
72.69815408
70.94403724
69.22030187
67.52936359
65.87274356
64.25262473
62.66972898
61.1256327
59.61929134
58.15183853
56.72884765
55.36266223
53.97291864
128.4032006
127.7816307
127.7883376
126.6537269
125.4708259
124.0851207
122.5087641
120.7852838
118.9464041
117.0185806
115.0263494
112.9943345
110.9388163
108.875159
106.8180421
104.7750444
102.7554929
100.7639789
98.8038364
96.87823493
94.98611726
93.12962276
91.30505553
89.51341038
87.74984865
86.01436129
84.30212976
82.61268877
80.94191621
79.28965581
77.65253656
76.031124
74.42329327
72.83071464
71.25240204
69.69091425
68.14613794
66.62124118
65.11669998
63.63553949
62.17831392
60.74765409
59.34404358
57.96939596
56.62377352
55.30741015
54.02017408
52.76870148
51.56352899
50.32996896
114.0133737
113.4517779
113.4860112
112.4729746
111.4287377
110.2059751
108.8162623
107.2981291
105.6792486
103.9837539
102.2355155
100.4536731
98.6537847
96.85138087
95.05694294
93.27862795
91.52518884
89.79927847
88.1058609
86.44546736
84.81929247
83.22698744
81.66705072
80.13837075
78.63783233
77.1640747
75.71316126
74.28383168
72.87228268
71.47767828
70.09668781
68.72925349
67.37310132
66.0291733
64.69620024
63.37598551
62.06805184
60.77489668
59.49644366
58.23530356
56.99134768
55.7672099
54.56238782
53.37936806
52.21702005
51.07653784
49.95668669
48.86483241
47.80972521
46.72308788
101.1015077
100.5963536
100.6489222
99.74551304
98.82356176
97.74459122
96.51852836
95.17931259
93.75205352
92.25920445
90.7217155
89.1557085
87.57622171
85.99704256
84.42670468
82.87435999
81.34580788
79.84485491
78.37575516
76.93840187
75.53542151
74.16473057
72.82665187
71.51843405
70.23890247
68.98496997
67.75461495
66.5448707
65.35359905
64.17815471
63.01669701
61.86734485
60.72905111
59.60083576
58.48244498
57.37371825
56.27508004
55.18706521
54.11034185
53.04570247
51.99378921
50.95554677
49.93127712
48.92187044
47.92704031
46.94711013
45.98112602
45.0360381
44.11929166
43.1693631
89.57625349
89.12353907
89.18734646
88.3822988
87.56856999
86.61593485
85.53272128
84.34987725
83.08980893
81.77362388
80.41794955
79.0379406
77.64832277
76.25951824
74.88014419
73.51912709
72.18040371
70.8690757
69.58744777
68.33707198
67.11922246
65.93286903
64.77829998
63.65274494
62.55597862
61.48414197
60.4366481
59.40944204
58.40171981
57.40963985
56.43255017
55.46727464
54.51371731
53.56944788
52.6349659
51.70855257
50.79125697
49.8819812
48.98188934
48.09021184
47.20809901
46.33499973
45.4717755
44.61794299
43.77392685
42.93894277
42.11279894
41.30102711
40.51083164
39.6865476
79.33600732
78.93146434
79.00139971
78.28491937
77.56636013
76.72423462
75.76634554
74.72043939
73.60723214
72.44388377
71.24560444
70.0266369
68.79961188
67.57353529
66.35744162
65.15783878
63.97921634
62.8266663
61.70145086
60.60641566
59.54151363
58.50732281
57.50298848
56.52752054
55.57951162
54.65692338
53.75808126
52.88050849
52.02244842
51.18129902
50.35554635
49.54292961
48.74240683
47.95217266
47.17169971
46.39964513
45.63601013
44.87974847
44.13110419
43.389125
42.65429159
41.92557708
41.20356413
40.48700738
39.77664605
39.07077111
38.36976541
37.67780869
37.00170278
36.2920262
70.27418215
69.9137092
69.986489
69.34871381
68.71384368
67.96903228
67.12135493
66.19599061
65.21084162
64.18054257
63.11891326
62.03949948
60.95214362
59.86557569
58.78850632
57.72574577
56.68264949
55.66269665
54.66812525
53.70138524
52.76239741
51.85267925
50.97068177
50.11680279
49.28889465
48.48641423
47.70698398
46.94954295
46.21158096
45.49183303
44.78796893
44.09887557
43.4225384
42.75809596
42.10389135
41.4593523
40.82320021
40.19494511
39.57350606
38.95841209
38.34879229
37.74407093
37.14349731
36.54634789
35.95219041
35.35981296
34.76897462
34.18336358
33.608688
33.00247612
62.28301107
61.96235893
62.0353632
61.46804816
60.90718624
60.24824845
59.49783176
58.67860243
57.80524835
56.89109337
55.94900366
54.99013134
54.02335333
53.05731245
52.0986322
51.15225473
50.22363497
49.31504375
48.42968522
47.56891816
46.73392256
45.92526127
45.14269197
44.38619259
43.65449871
42.94716747
42.26238329
41.59941179
40.95610508
40.33162371
39.72382961
39.13196901
38.55402031
37.98937365
37.43615378
36.89394824
36.36098263
35.83686903
35.31980271
34.80948861
34.30406598
33.80326747
33.305211
32.80957959
32.31493004
31.82053771
31.32530776
30.83293535
30.34716528
29.83346976
55.25661562
54.97189344
55.04373568
54.5394262
54.04405855
53.46104531
52.79688947
52.07059531
51.29539832
50.4831089
49.64550703
48.79148499
47.92940089
47.06731823
46.21038705
45.36399497
44.53215362
43.71763357
42.92354178
42.15077192
41.40132713
40.67508403
39.97292588
39.29421078
38.63895261
38.00617648
37.39537109
36.80528704
36.23509194
35.68345238
35.1494644
34.63180345
34.12956199
33.64144575
33.16656454
32.70367563
32.25177785
31.80954836
31.37582804
30.94926942
30.52852752
30.1122316
29.69888021
29.28739066
28.87634292
28.46471924
28.05119247
27.63905513
27.23037983
26.79826034
49.09384558
48.84137529
48.91128743
48.46319367
48.02584612
47.51041246
46.92198547
46.27764639
45.58894329
44.86670672
44.12031244
43.35797075
42.58759673
41.81541637
41.0464516
40.286019
39.5369472
38.80262803
38.08515288
37.38621036
36.70718911
36.04857255
35.41122193
34.79476486
34.19964376
33.62500613
33.0709684
32.53635831
32.02107182
31.52385244
31.04449607
30.58171828
30.13523126
29.70371558
29.28680926
28.8830929
28.49197115
28.11178954
27.74174763
27.37992326
27.02533522
26.67579942
26.33026746
25.98676482
25.64430369
25.30105496
24.95625923
24.6117813
24.26921164
23.90785896
43.69923557
43.47557166
43.54317973
43.14522152
42.75959369
42.30361492
41.78216522
41.21030688
40.59826487
39.95527077
39.28920192
38.60756971
37.91743856
37.22382852
36.53186389
35.84555531
35.16790939
34.50219461
33.84987598
33.21319773
32.59285672
31.99015549
31.40532624
30.83897409
30.29101458
29.76164258
29.25050589
28.75755223
28.28228995
27.82459637
27.38389451
26.96001901
26.55229316
26.16049551
25.78381479
25.42180937
25.07337131
24.73773482
24.41346504
24.09939515
23.7937459
23.49499222
23.20132354
22.91117059
22.62293982
22.33500214
22.04635444
21.75817043
21.4712346
21.17071502
38.98408566
38.78605446
38.85134944
38.49824543
38.15809886
37.75476726
37.29271573
36.78515908
36.24120306
35.66812352
35.07307166
34.46298558
33.84332295
33.21882936
32.59436056
31.97285088
31.35764431
30.75103304
30.15496665
29.57112733
29.00048082
28.44424526
27.9027153
27.37673826
26.86625944
26.37183553
25.89321418
25.43075481
24.98419901
24.55379449
24.13932716
23.7409335
23.35841669
22.99178926
22.64075757
22.30502632
21.98402743
21.67706478
21.38314643
21.10106946
20.82933522
20.56639395
20.31048055
20.0599912
19.81312457
19.56841113
19.32444001
19.08225009
18.84115077
18.59252574
34.75495889
34.4415015
34.14168015
33.78508612
33.37580569
32.92565066
32.44182469
31.93078815
31.39893537
30.85213128
30.2949283
29.73194028
29.16681045
28.60250504
28.0420883
27.48723415
26.94020867
26.40199059
25.87409631
25.35708285
24.85193206
24.35891983
23.87874205
23.41144416
22.9576026
22.51715652
22.09072729
21.67820834
21.28028784
20.8968804
20.52861449
20.17547961
19.837871
19.51565593
19.20887222
18.91706704
18.63972864
18.37587254
18.1244211
17.88393283
17.65292991
17.42968236
17.2126256
16.9999436
16.79064103
16.58464391
16.38101303
16.17554116
)
;

boundaryField
{
    front_top
    {
        type            wedge;
    }
    front_middle
    {
        type            wedge;
    }
    front_bottom
    {
        type            wedge;
    }
    back_top
    {
        type            wedge;
    }
    back_middle
    {
        type            wedge;
    }
    back_bottom
    {
        type            wedge;
    }
    axis_top
    {
        type            symmetryPlane;
    }
    axis_middle
    {
        type            symmetryPlane;
    }
    axis_bottom
    {
        type            symmetryPlane;
    }
    wall_top
    {
        type            calculated;
        value           nonuniform List<scalar> 
23
(
87.61483727
84.52352787
81.27672089
77.93287391
74.5196683
71.05133603
67.53788102
63.98966643
60.4177345
56.83393847
53.25202294
49.68628654
46.15252296
42.66755777
39.24883697
35.91353204
32.67844284
29.55845365
26.5669582
23.71518714
21.01206332
18.46315112
16.0712348
)
;
    }
    wall_middle
    {
        type            calculated;
        value           nonuniform 0();
    }
    wall_bottom
    {
        type            calculated;
        value           nonuniform 0();
    }
    inlet
    {
        type            calculated;
        value           nonuniform 0();
    }
    outlet
    {
        type            calculated;
        value           nonuniform 0();
    }
    procBoundary6to5
    {
        type            processor;
        value           nonuniform List<scalar> 
51
(
34.86719258
34.69197017
34.69197017
31.18041792
30.90220355
30.63817027
30.32310089
29.9608804
29.56159626
29.13122333
28.67542797
28.19999501
27.70940774
27.20790314
26.69962903
26.1873462
25.67413901
25.16215289
24.65337053
24.14940365
23.65144337
23.16066724
22.67774451
22.20350678
21.73839248
21.28295715
20.83755053
20.40256828
19.9784607
19.56555646
19.16448448
18.77553294
18.39956032
18.03686605
17.68830789
17.35421576
17.0352275
16.7315818
16.44346285
16.1707316
15.91298964
15.66960767
15.43956212
15.22170386
15.01453539
14.81654403
14.62610406
14.44204517
14.26395135
14.089742
13.91997814
)
;
    }
    procBoundary6to7
    {
        type            processor;
        value           nonuniform List<scalar> 
51
(
441.0456936
439.6678067
437.1057477
432.9408024
427.6984014
421.448116
414.3122141
406.4135264
397.8703788
388.798919
379.3168174
369.5086783
359.4616143
349.2699487
338.9874436
328.6830178
318.408469
308.2025259
298.1162225
273.5868146
273.5868146
264.6303585
255.8365669
247.2266538
238.8063692
230.5920382
222.5838791
214.7939741
207.2196926
199.8680255
192.7348118
185.8232252
179.1284168
172.6504422
166.3848326
160.3287305
154.4778364
148.8280516
143.3757816
138.1160977
133.046015
128.1606103
123.4580112
118.9341137
114.587349
110.4144175
106.4139551
102.5836324
98.92495012
95.44309418
92.0842396
)
;
    }
}


// ************************************************************************* //
