/*--------------------------------*- C++ -*----------------------------------*\
  =========                 |
  \\      /  F ield         | OpenFOAM: The Open Source CFD Toolbox
   \\    /   O peration     | Website:  https://openfoam.org
    \\  /    A nd           | Version:  7
     \\/     M anipulation  |
\*---------------------------------------------------------------------------*/
FoamFile
{
    version     2.0;
    format      ascii;
    class       volTensorField;
    location    "0.0021";
    object      grad(U);
}
// * * * * * * * * * * * * * * * * * * * * * * * * * * * * * * * * * * * * * //

dimensions      [0 0 -1 0 0 0 0];

internalField   nonuniform List<tensor> 
1167
(
(-0.003605423819 -8.698810062e-16 -8.112721427e-05 -2.893855898e-15 -0.005929257958 0 0.0007860511083 -8.648577294e-16 0.0218120214)
(-0.004786840408 -5.788407871e-15 -0.0003421436406 -2.002903376e-16 -0.0051685076 0 0.002041563854 -2.748819771e-15 0.02178106629)
(-0.004722740324 1.100298901e-16 -0.0006133737271 3.334728859e-15 -0.004934329431 0 0.003216846202 -6.234583691e-15 0.02175562432)
(-0.004817152062 8.014561306e-15 -0.0008136689403 4.421515398e-16 -0.004897170514 0 0.004422400321 -3.618601727e-15 0.0217089766)
(-0.004800664959 2.694896718e-15 -0.0009958842887 -1.550332793e-15 -0.004878007036 0 0.005600174283 -1.418286591e-16 0.02164208532)
(-0.004760687525 8.810724656e-16 -0.001156179775 -8.237206752e-16 -0.004860198127 0 0.006738433125 -1.214387855e-15 0.02155471775)
(-0.004705446376 2.439234272e-15 -0.001291595387 -1.287314963e-15 -0.004841264712 0 0.0078331148 -1.448401933e-15 0.0214457058)
(-0.004632279491 3.160104213e-16 -0.001399191271 -1.241729361e-15 -0.004819425268 0 0.008881791529 2.159541119e-16 0.02131215097)
(-0.004541555316 2.51226219e-15 -0.001475485644 -1.062135471e-15 -0.004793789007 0 0.009883135824 5.073394779e-16 0.02114995481)
(-0.004429985078 2.722557654e-15 -0.001520417249 -1.480426144e-15 -0.004763955225 0 0.01083305973 1.810350795e-15 0.02095706126)
(-0.004293022425 1.024811693e-15 -0.001536279602 -1.377102479e-15 -0.004729094497 0 0.01172615371 1.428432409e-15 0.02073323541)
(-0.004132246361 1.754733119e-15 -0.00152157714 -1.413333499e-15 -0.004688530328 0 0.01256157451 -8.02253467e-17 0.02047534699)
(-0.003946555484 1.863907904e-16 -0.001476473217 -1.434578656e-15 -0.004642213808 0 0.01333708375 3.378574758e-16 0.02018112832)
(-0.003731761666 -1.070665805e-15 -0.001404676652 -1.241421938e-15 -0.004589675706 0 0.01404779904 7.455486058e-16 0.01985157859)
(-0.00348914834 -7.190041298e-16 -0.001306097445 -1.128777887e-15 -0.004530521974 0 0.01469339941 5.852472191e-16 0.01948433231)
(-0.003218108504 7.783947729e-16 -0.001183520054 -1.028374903e-15 -0.004464715475 0 0.01527111588 1.854688537e-16 0.01907935458)
(-0.002918443279 6.092802125e-16 -0.001040073807 -1.089606103e-15 -0.004391996919 0 0.01577869573 8.863341022e-16 0.01863737486)
(-0.002591259441 -7.603056634e-16 -0.0008773492281 -1.002566446e-15 -0.004312411063 0 0.01621579742 1.145636129e-15 0.01815759616)
(-0.00223637263 -2.711014526e-16 -0.0006993162867 -9.228432301e-16 -0.004225924395 0 0.01658046191 1.547017048e-15 0.01764261752)
(-0.004881818238 4.345553908e-15 -4.816421453e-05 -8.593562684e-15 -0.008030664863 0 0.0009836126237 -1.510900523e-15 0.0252394136)
(-0.006479180683 7.517489644e-15 -0.0002995888788 -6.712516987e-15 -0.006999045248 0 0.002554233117 -5.328932807e-15 0.0251973215)
(-0.006387075631 1.601891125e-16 -0.0005549816996 -7.369127896e-15 -0.006680157462 6.422116567e-14 0.004024433188 -1.524036358e-14 0.02515731838)
(-0.006505809299 -6.943327634e-15 -0.0007239248942 -3.55775857e-15 -0.006627190202 4.716045017e-14 0.005532372652 -1.269884028e-14 0.02508776248)
(-0.006469713612 -1.126925913e-15 -0.0008748763394 -1.196971017e-15 -0.006597342257 -3.77137945e-14 0.007003460424 -1.900851075e-15 0.0249908941)
(-0.006398758329 3.732473948e-15 -0.001001403684 -1.750556409e-15 -0.006567937318 3.172689845e-14 0.008423625812 -3.533492944e-15 0.02486667688)
(-0.006307860778 1.391232046e-16 -0.001097258167 -1.954305905e-15 -0.006536065374 0 0.009790284368 -8.54774745e-16 0.02471167306)
(-0.006194611699 -9.093245947e-16 -0.001158152276 -1.393179578e-15 -0.006500062144 0 0.01110105498 1.317470987e-15 0.02452166116)
(-0.006055374438 -5.238248009e-16 -0.001182959519 -1.307487132e-15 -0.006458939159 0 0.01235113448 2.24180426e-15 0.02429393889)
(-0.005885029338 2.871885357e-16 -0.001173526413 -1.042414121e-15 -0.006411640094 -2.05275396e-14 0.01353390725 4.832938858e-15 0.0240279199)
(-0.005683767046 3.370976809e-15 -0.001128950834 -1.118839283e-15 -0.006357148871 0 0.01464667016 4.035611209e-15 0.0237209219)
(-0.005452291478 2.050658021e-15 -0.001047832341 -1.382831777e-15 -0.006295239577 0 0.01568772038 4.12181748e-15 0.02336910753)
(-0.005185610299 -6.954615478e-16 -0.0009340077006 -1.291361263e-15 -0.0062255729 -1.695325556e-14 0.01665098149 4.091818433e-15 0.02297286365)
(-0.004883529902 -1.609648668e-16 -0.0007889880493 -1.103161072e-15 -0.00614751061 0 0.01753384994 2.556706855e-15 0.02253102828)
(-0.00454694935 1.026851675e-15 -0.0006135879697 -1.086022583e-15 -0.006061003936 0 0.018334846 1.12607243e-15 0.02204151206)
(-0.004173589835 -2.246215923e-16 -0.0004123191549 -1.08790681e-15 -0.005965829781 1.485355432e-14 0.01904978427 5.942195714e-16 0.02150626207)
(-0.00376509427 -1.297711823e-15 -0.0001869477674 -9.524952264e-16 -0.005861825041 -1.434345753e-14 0.01967813394 1.967921253e-15 0.02092403121)
(-0.003322095941 -1.096797442e-15 5.821967461e-05 -8.68847059e-16 -0.005749088616 0 0.02021735845 1.091478618e-15 0.0202964257)
(-0.002845464915 -4.072086196e-16 0.0003195197547 -7.65612534e-16 -0.005627616997 0 0.02066646703 3.888192854e-16 0.01962483719)
(-0.002336907255 1.362041152e-15 0.0005932086089 -7.594676398e-16 -0.005497614814 0 0.02102486021 -3.434115576e-17 0.01891065186)
(-0.001798104845 1.735928356e-15 0.0008746378666 -8.05461515e-16 -0.00535924881 0 0.02129185193 -7.583315397e-17 0.01815703857)
(-0.001231405564 1.104917389e-15 0.00115991191 -8.386941477e-16 -0.005212829263 0 0.02146789547 -3.267520971e-16 0.01736565531)
(-0.0006391146295 4.192716948e-16 0.001444291751 -8.236860019e-16 -0.005058662688 1.240374215e-14 0.0215532163 -1.0476589e-15 0.0165408179)
(-2.432677936e-05 -1.815974187e-16 0.001723644464 -7.98604942e-16 -0.004897150934 0 0.0215489631 1.082398546e-16 0.01568477489)
(0.0006096372556 -5.244222515e-16 0.001993591122 -7.519973891e-16 -0.004728726415 0 0.02145645584 9.872994627e-16 0.01480255958)
(0.00125899572 6.816200441e-16 0.002250006259 -7.309165786e-16 -0.004553895743 -1.188029486e-14 0.0212775196 2.175650594e-15 0.01389707177)
(0.001920279398 1.003343212e-15 0.002488827161 -7.572131009e-16 -0.004373199952 0 0.02101425126 1.36855822e-15 0.0129738768)
(0.002589655859 3.097837221e-16 0.002706188205 -7.271224531e-16 -0.004187207999 0 0.02066901669 8.846502126e-16 0.01203653702)
(0.003263012086 7.937534777e-16 0.002898769234 -7.43510624e-16 -0.003996525291 0 0.02024475834 6.21055848e-16 0.01109084693)
(0.00393609035 1.006392712e-15 0.003063329847 -7.38117431e-16 -0.00380178275 0 0.01974442877 4.696567527e-16 0.01014084691)
(0.004604711592 1.189764309e-15 0.003197353389 -7.335854165e-16 -0.00360363754 0 0.01917157152 2.850795743e-16 0.009192468528)
(0.005264282601 8.058813352e-16 0.003298556212 -7.630197872e-16 -0.003402754063 0 0.01852974866 -4.643021001e-17 0.008250094844)
(0.005910381314 1.912374073e-16 0.003365418577 -7.433544929e-16 -0.003199829226 5.638481487e-15 0.017823052 -2.313748179e-16 0.007319545634)
(0.006538839236 1.238379939e-16 0.003396662832 -7.409697139e-16 -0.002995548803 0 0.01705543687 -7.734580538e-17 0.006405439578)
(0.007145467939 1.817595265e-16 0.003391926345 -7.228029324e-16 -0.00279060926 0 0.01623139612 -5.411448466e-17 0.005513345964)
(0.007725901306 5.990073302e-17 0.003351357218 -7.107572492e-16 -0.002585692452 0 0.01535547428 -1.046770653e-16 0.00464786705)
(0.008275874719 7.860679418e-16 0.003275771372 -6.938187696e-16 -0.002381491752 0 0.01443249188 -2.00887388e-16 0.003814171427)
(0.008791502652 1.337633775e-15 0.003166541313 -7.156353499e-16 -0.002178678569 1.118794806e-14 0.01346730219 -5.589081603e-16 0.003016701695)
(0.009269091438 9.584908945e-16 0.003025738737 -7.21554623e-16 -0.001977917154 5.597514651e-15 0.0124649878 -5.778972749e-16 0.002260119382)
(0.009705191855 4.434244761e-17 0.00285604376 -7.224782978e-16 -0.001779843208 0 0.01143069052 -2.375534286e-16 0.001548524714)
(0.01009634559 -5.813189652e-16 0.002660822548 -6.991700284e-16 -0.001585076611 0 0.01036976532 -1.234698422e-16 0.0008859765384)
(0.01043953543 -2.807686901e-16 0.002444030004 -6.789126505e-16 -0.001394211293 0 0.009287625509 -3.349101698e-16 0.0002760569037)
(0.0107321292 -3.794327058e-17 0.002210105462 -6.69942518e-16 -0.001207812725 0 0.008189651876 -5.273809275e-16 -0.000277842781)
(0.01097185134 9.672094265e-17 0.001964189723 -6.58492454e-16 -0.001026412152 0 0.007081363893 -7.682179775e-16 -0.0007728253909)
(0.01115657054 3.911405305e-16 0.001711942629 -6.458872887e-16 -0.0008505064188 5.68936416e-15 0.005968267102 -1.125397795e-15 -0.001206269226)
(0.01128525713 2.753748897e-16 0.001459632217 -6.502147088e-16 -0.0006805596358 5.715191947e-15 0.004855904583 -1.171839019e-15 -0.001576142814)
(0.01135665633 -1.802221008e-16 0.001213696988 -6.408432511e-16 -0.0005169771579 0 0.003749449014 -9.03110897e-16 -0.001880696123)
(0.01136244726 1.113946873e-16 0.0009809883272 -6.281115531e-16 -0.0003601453743 0 0.002654184589 -8.270234869e-16 -0.002118868231)
(0.01128280502 3.455250843e-16 0.0007700708569 -6.268233745e-16 -0.0002105803354 0 0.001576885928 -8.395231629e-16 -0.002289773424)
(0.01124977922 1.113966543e-16 0.000334607923 -6.214661024e-16 -6.905054666e-05 0 0.0005267691656 -8.527737614e-16 -0.002393591433)
(-0.006452378437 6.080661963e-15 -4.924920183e-06 -1.012528654e-14 -0.01061747374 0 0.001227513652 9.925290545e-16 0.02946135618)
(-0.00856088278 1.287426805e-14 -0.0002402213965 -8.779537676e-15 -0.009251827879 0 0.003186805855 3.135916072e-15 0.02940664989)
(-0.008433238695 7.146548232e-15 -0.0004723192552 -1.146468143e-14 -0.008828129155 -6.522129881e-14 0.005019702116 7.969494622e-15 0.02935025724)
(-0.008579826706 -9.987313914e-15 -0.0005999846557 -8.395637859e-15 -0.008755144453 0 0.006899012646 2.828169317e-15 0.0292539928)
(-0.008518322634 -7.81158401e-15 -0.0007087066751 -2.58083728e-15 -0.008711214665 3.830112137e-14 0.00873158129 -2.16276247e-15 0.02912063158)
(-0.008410956735 -8.089540269e-16 -0.0007876935887 -2.422867398e-15 -0.008666956973 0 0.01050143024 2.072858725e-15 0.02894857888)
(-0.008278189485 -3.989505507e-15 -0.0008284815098 -1.669919868e-15 -0.008619223566 -2.803275319e-14 0.0122060398 6.087110002e-15 0.02873365)
(-0.008113513326 -3.800597073e-15 -0.0008286499513 -8.050156157e-16 -0.00856595683 0 0.01383974838 4.72660316e-15 0.02847269089)
(-0.007910745769 -2.476641491e-15 -0.0007891513469 -4.426163248e-16 -0.008505363568 -2.266195583e-14 0.01539459505 5.820461584e-15 0.0281645494)
(-0.007668800643 3.657989578e-16 -0.0007093548572 -1.628689093e-16 -0.008435971459 0 0.01686564144 4.530175579e-15 0.02780676283)
(-0.007389091775 2.027945118e-15 -0.0005865725146 -3.976921419e-16 -0.008357190156 0 0.0182509819 5.212738546e-15 0.02739472511)
(-0.007067443918 1.682893284e-15 -0.0004234168799 -4.799735251e-16 -0.008268707695 -1.820344036e-14 0.0195442557 7.871545333e-15 0.02692719372)
(-0.006700937693 2.566460277e-15 -0.0002233410996 -5.716672702e-16 -0.008169776231 -1.721727308e-14 0.02073965691 6.714614675e-15 0.02640407998)
(-0.006291311589 3.418086908e-15 1.388668471e-05 -7.202191436e-16 -0.008060070858 0 0.02183604015 4.472822313e-15 0.02582226709)
(-0.005836647921 2.287460221e-15 0.000283754176 -9.037943673e-16 -0.007939495175 0 0.02282834231 3.431375268e-15 0.02518244534)
(-0.005337354124 -6.403808788e-16 0.0005826336887 -9.428045396e-16 -0.007807741128 -3.016974527e-14 0.02371365385 2.565885695e-15 0.02448508398)
(-0.004794960284 -1.190545559e-16 0.0009077905632 -7.681727798e-16 -0.007664922954 0 0.02449057147 1.631402928e-15 0.02372970364)
(-0.004209419801 1.797580961e-15 0.001253566193 -7.996549205e-16 -0.007511051114 0 0.02515593152 5.950402247e-16 0.0229194908)
(-0.003583114679 1.582563575e-15 0.001616242719 -8.31158766e-16 -0.007346279614 2.745505085e-14 0.02570934922 -1.048068437e-15 0.02205467118)
(-0.002917748733 9.5022894e-16 0.001990089827 -8.628046093e-16 -0.007170874943 1.338654424e-14 0.02614912384 -1.615700936e-15 0.02113920441)
(-0.002215895437 7.857772533e-16 0.002370550862 -8.691305033e-16 -0.006985122942 0 0.02647566035 -3.143445605e-16 0.02017508985)
(-0.00148045175 1.639095728e-15 0.002752017462 -8.642811668e-16 -0.006789445411 0 0.02668877071 3.810879476e-16 0.01916651514)
(-0.00071448895 -1.552605157e-16 0.003129322665 -9.103234942e-16 -0.006584275381 0 0.02678948858 8.272177996e-16 0.01811705028)
(7.80748492e-05 -2.087089796e-15 0.003497079964 -7.989367254e-16 -0.006370147172 0 0.02677895968 7.282040584e-16 0.01703123313)
(0.0008931719466 -1.995831567e-15 0.003850131712 -7.279096095e-16 -0.006147637886 0 0.02665918434 5.358692917e-16 0.01591367523)
(0.001726389258 -1.422993533e-16 0.004183301939 -6.244740439e-16 -0.005917395372 1.206530983e-14 0.02643235009 8.572629559e-17 0.0147694433)
(0.002573502969 1.700188697e-15 0.004491518842 -6.757926068e-16 -0.0056801033 0 0.02610113765 9.565121498e-16 0.01360388171)
(0.003429729357 1.28010023e-15 0.004770150249 -6.807550194e-16 -0.005436476178 0 0.02566864225 6.036561749e-16 0.01242259212)
(0.004290191742 1.074302082e-15 0.005014855225 -6.978857602e-16 -0.005187274828 0 0.02513844926 6.223921037e-16 0.01123129136)
(0.005149857858 1.139525204e-15 0.005221714506 -7.155390407e-16 -0.004933275664 0 0.0245143914 7.138327112e-16 0.01003606063)
(0.006003543147 1.458988422e-15 0.005387187754 -7.22433683e-16 -0.004675289376 0 0.02380066758 8.746859707e-16 0.008842794285)
(0.00684580813 1.210478066e-15 0.005508504656 -7.524415536e-16 -0.00441413486 -5.750001126e-15 0.02300193086 1.148063078e-15 0.007657890856)
(0.007671489568 3.883984296e-16 0.00558316261 -7.493388673e-16 -0.004150661185 0 0.02212294513 7.995900141e-16 0.006487264881)
(0.008475525783 2.285833277e-16 0.005609512346 -7.246383258e-16 -0.00388570157 0 0.02116882689 4.980310534e-16 0.005337505547)
(0.00925266583 5.247485878e-16 0.005586424227 -7.118151108e-16 -0.003620103756 0 0.02014488893 2.59887175e-16 0.004214353163)
(0.009997590763 7.476148569e-16 0.00551371859 -7.218260593e-16 -0.003354702279 0 0.01905685428 8.327426639e-18 0.003124348225)
(0.01070514571 9.635262228e-16 0.005391668139 -7.157202299e-16 -0.00309034066 5.681376089e-15 0.01791052365 -3.490644858e-16 0.002072992263)
(0.01137052028 6.665763112e-16 0.005221492073 -7.267801278e-16 -0.002827838357 0 0.01671202938 9.055196979e-17 0.001066598546)
(0.01198904491 -2.463998688e-16 0.005004912694 -7.216886807e-16 -0.002568005956 0 0.01546752697 1.773913761e-16 0.0001102868544)
(0.01255620764 -5.629234095e-16 0.004744594861 -7.003782954e-16 -0.002311624601 -5.69196329e-15 0.01418348269 2.494142736e-16 -0.0007900590866)
(0.01306750036 1.622975061e-16 0.004443811992 -6.738593325e-16 -0.002059460082 5.702743442e-15 0.01286646443 -2.380641822e-16 -0.00162984932)
(0.01351908046 5.799542513e-16 0.004106636678 -6.755283392e-16 -0.001812249935 0 0.01152318819 -3.297088854e-16 -0.002403805835)
(0.01390739718 9.470771252e-16 0.003737792829 -6.775758094e-16 -0.0015706958 0 0.0101603966 -4.302233942e-16 -0.003107980269)
(0.01422913193 1.564251133e-15 0.003342771493 -6.884163697e-16 -0.001335465682 0 0.008784888596 -3.930024269e-16 -0.00373795997)
(0.01448129279 1.141325962e-15 0.002927889764 -7.024968584e-16 -0.001107189587 5.777966128e-15 0.00740360588 -3.739655215e-16 -0.004290644234)
(0.01466243882 -4.752066025e-17 0.002500083246 -7.01434836e-16 -0.0008864594895 0 0.006023327514 -3.568835834e-17 -0.0047626786)
(0.01477084909 -2.887530384e-16 0.002066799884 -6.807298119e-16 -0.0006737929756 0 0.004650610232 8.390354113e-17 -0.005151971994)
(0.01479469436 2.603816487e-16 0.001635738369 -6.729738518e-16 -0.0004696862803 5.864895525e-15 0.003291873731 -8.17907857e-17 -0.00545640005)
(0.01470700301 3.36239242e-16 0.001217110378 -6.70430646e-16 -0.0002748290796 0 0.001955695153 1.070213281e-16 -0.005674906428)
(0.01468739831 1.228852338e-16 0.0005046717722 -6.655638263e-16 -9.024427857e-05 0 0.0006529575609 1.980549023e-16 -0.005806915806)
(-0.008378873186 5.738536667e-16 4.937187182e-05 -3.990409409e-15 -0.01379174196 0 0.0015273316 1.759969017e-15 0.03465348108)
(-0.01111337758 -1.542932745e-15 -0.0001626858214 -1.861927073e-15 -0.01201556277 0 0.00396441532 5.667563819e-15 0.03458363197)
(-0.01094118375 2.270278785e-15 -0.000361628339 9.702693972e-17 -0.01146250029 0 0.006243665519 1.370291392e-14 0.03450718435)
(-0.01112215647 5.512619758e-15 -0.0004336546422 -1.733778835e-15 -0.01136446472 -4.864080896e-14 0.008580993496 1.718491888e-14 0.0343767437)
(-0.01103086393 -1.20245599e-15 -0.0004841292467 -2.374122578e-15 -0.01130316584 0 0.01086092765 5.480585089e-15 0.03419545882)
(-0.01088006938 -6.892666784e-15 -0.0004984821241 -8.628082186e-16 -0.01124095248 0 0.0130637491 6.252199638e-15 0.03396166037)
(-0.01069413385 -2.988126952e-15 -0.0004683651347 3.33625034e-16 -0.01117404665 -2.846933623e-14 0.01518430589 6.845893652e-15 0.03367214424)
(-0.010462517 -7.650284689e-16 -0.0003929816768 1.98194656e-16 -0.01109930081 0 0.0172137417 3.933046778e-15 0.03332498562)
(-0.01018161303 -1.419423283e-16 -0.0002715108717 4.27034164e-16 -0.01101418994 0 0.01914461519 2.6500125e-15 0.03291746236)
(-0.009853459172 1.014117845e-15 -0.0001005720436 2.274324734e-16 -0.01091748851 0 0.02097346648 1.703174568e-15 0.03244441914)
(-0.00947506856 -1.455596656e-15 0.0001194170636 1.53861262e-16 -0.01080877154 0 0.02269400496 2.794174332e-15 0.03190282881)
(-0.009040886607 8.469702363e-17 0.000384085468 3.610730732e-16 -0.01068717754 0 0.0242976453 3.429779541e-15 0.03129286975)
(-0.008552523095 4.367852035e-15 0.0006928220212 1.024536063e-16 -0.01055199181 -1.748541547e-14 0.02578122469 4.328766947e-15 0.03061150722)
(-0.008009648919 4.721539118e-15 0.001043087287 -2.275578234e-16 -0.01040317758 0 0.02714033638 4.121749068e-15 0.02985721307)
(-0.007409929833 3.927868998e-15 0.001429164559 -4.667136057e-16 -0.01024039215 -1.593049107e-14 0.0283688996 4.763579017e-15 0.0290318303)
(-0.006755754788 2.550836587e-15 0.001848485301 -6.881943629e-16 -0.01006352718 0 0.02946528071 3.330452781e-15 0.0281340118)
(-0.006047524297 1.824748128e-15 0.002294995113 -6.645605762e-16 -0.009872734863 0 0.03042522417 1.918934393e-15 0.02716617037)
(-0.005286941219 3.266839901e-15 0.002763480037 -7.561012715e-16 -0.009668067749 0 0.03124671764 1.75761753e-15 0.02613031991)
(-0.00447644193 3.190675225e-15 0.003248630921 -9.257906729e-16 -0.009449878628 0 0.03192837757 1.644947415e-15 0.02502853933)
(-0.0036186232 6.202564992e-17 0.003743769859 -9.824531037e-16 -0.009218461897 0 0.0324687442 1.63037125e-15 0.02386532112)
(-0.002717134361 -1.640219043e-15 0.004243338555 -8.307448197e-16 -0.008974330706 0 0.03286814233 1.243911781e-15 0.02264309879)
(-0.001775116074 -8.49119505e-16 0.004740413711 -7.632534876e-16 -0.008717997771 0 0.03312646555 1.895726412e-15 0.02136797088)
(-0.0007968700048 -1.800541639e-16 0.005229003125 -7.745818376e-16 -0.008450085333 -1.279309358e-14 0.03324520506 2.877698326e-15 0.02004337772)
(0.0002129290434 3.149761741e-16 0.00570249286 -6.884431212e-16 -0.00817127174 0 0.0332258777 1.71225934e-15 0.01867619945)
(0.001249168266 6.360707094e-16 0.006154751513 -6.786521557e-16 -0.007882322664 0 0.03307109196 9.027931575e-16 0.01727083163)
(0.002306766672 -1.619387232e-16 0.006579434375 -7.179618381e-16 -0.007584051658 0 0.0327836412 3.462445016e-17 0.01583477115)
(0.003380435784 7.605976027e-17 0.00697049256 -6.389851875e-16 -0.007277320223 0 0.03236698621 3.884406384e-16 0.01437325532)
(0.004464382404 9.567954118e-16 0.00732228167 -6.679212864e-16 -0.006963022791 0 0.03182512664 6.587407025e-16 0.01289415882)
(0.005552731373 5.785182652e-16 0.007629378274 -6.738978701e-16 -0.006642104374 0 0.03116246173 1.007220174e-15 0.01140330543)
(0.006639571705 4.998422877e-16 0.007886962828 -6.805442749e-16 -0.006315524489 0 0.03038392043 9.512335407e-16 0.009908926893)
(0.007718532411 3.024703727e-16 0.008090529516 -6.534381047e-16 -0.005984272948 0 0.02949471235 1.137148102e-15 0.008417246503)
(0.008783227229 9.905523359e-16 0.008236393493 -6.501063569e-16 -0.005649360313 -1.167910367e-14 0.02850065402 1.620963784e-15 0.00693661039)
(0.009827519941 1.5715002e-15 0.008321131821 -6.701423383e-16 -0.00531181047 0 0.02740758031 1.104170008e-15 0.005473578352)
(0.01084524875 1.289680042e-15 0.008342372097 -6.906362448e-16 -0.004972642857 0 0.02622194598 7.931847799e-16 0.004036496859)
(0.01182996457 1.265914976e-15 0.008298232386 -7.003102888e-16 -0.004632880766 0 0.02495030423 5.747004235e-16 0.002632007098)
(0.01277518814 1.440572949e-15 0.008187849006 -7.217898364e-16 -0.00429354693 0 0.02359977264 3.916579068e-16 0.001268273989)
(0.01367457582 5.722117774e-16 0.008010845047 -7.212322539e-16 -0.003955660325 0 0.02217747274 2.044956878e-16 -4.808607943e-05)
(0.01452219223 1.138093411e-16 0.007767882845 -7.099273074e-16 -0.00362022695 0 0.0206909917 2.415013932e-16 -0.001309195519)
(0.01531220833 5.63526711e-16 0.007460297658 -7.160145548e-16 -0.003288228871 0 0.01914797669 1.509363312e-16 -0.002508623147)
(0.01603875287 1.059949786e-15 0.007090441152 -7.056408835e-16 -0.002960629019 0 0.01755646851 -2.654863467e-16 -0.003639028565)
(0.01669620477 8.423469004e-16 0.006661426091 -7.069773145e-16 -0.002638367001 1.158311632e-14 0.01592460055 -4.869632815e-16 -0.004694427302)
(0.0172794742 2.151101273e-16 0.006177245259 -7.030585206e-16 -0.002322354087 0 0.01426063368 -3.116750649e-16 -0.005668190838)
(0.01778398666 1.339613336e-16 0.005642873939 -6.938154094e-16 -0.002013462008 5.82349983e-15 0.01257296483 -2.522006266e-16 -0.006555036795)
(0.01820513406 -2.667469276e-17 0.005064184937 -6.905769185e-16 -0.001712521155 0 0.01087001054 1.711775006e-16 -0.007349323527)
(0.01853894203 -5.579802786e-16 0.004448122496 -6.819202458e-16 -0.001420328117 0 0.009160322902 6.318903569e-16 -0.008046836546)
(0.01878345391 -9.598492314e-16 0.003802383701 -6.562337507e-16 -0.001137624854 -5.894590884e-15 0.007452154185 9.11523183e-16 -0.008643140245)
(0.01893641404 -4.39398446e-17 0.00313550278 -6.34925811e-16 -0.0008650701375 0 0.005753606573 8.074154967e-16 -0.009135329661)
(0.01898168508 3.512703036e-17 0.002456180048 -6.340133604e-16 -0.000603287872 0 0.00407245012 1.00087557e-15 -0.00952040243)
(0.01888415609 -4.514951879e-16 0.001776431745 -6.209025673e-16 -0.0003531843005 -5.99108814e-15 0.002419279815 1.362432823e-15 -0.009796796796)
(0.01887900068 -1.502420593e-16 0.0007168653889 -6.082260199e-16 -0.000116072617 -6.028539087e-15 0.0008070916086 1.467677011e-15 -0.009963284023)
(-0.01073556419 -8.221854642e-16 0.00011769866 -1.909376e-15 -0.01767583658 0 0.001895913653 4.198395652e-16 0.04102155241)
(-0.01423594208 -2.648031361e-15 -6.17017154e-05 7.989817061e-17 -0.01539678747 0 0.004920251632 1.101723129e-15 0.04093207489)
(-0.01401006641 -5.98666262e-15 -0.0002142969081 1.445223512e-15 -0.01468539704 0 0.007748923283 5.156382276e-16 0.04082888786)
(-0.01423423352 2.095259702e-15 -0.0002119056313 3.256235961e-15 -0.01455705975 0 0.01065138087 3.821808627e-15 0.04065396981)
(-0.01410719089 4.603949062e-15 -0.0001857653289 3.471977428e-16 -0.01447491751 0 0.01348283839 5.244296112e-15 0.04041185805)
(-0.01390164693 -2.612127825e-15 -0.0001181415065 3.894422072e-16 -0.01439107362 0 0.0162173862 2.789027345e-15 0.04010252901)
(-0.01364716427 -7.358209908e-16 -2.064009474e-07 9.317568359e-16 -0.01430044059 0 0.01884741829 2.777933119e-16 0.0397232708)
(-0.01333312677 1.632461258e-15 0.0001704165254 4.780428391e-16 -0.01419877072 0 0.021363847 5.345425452e-16 0.03927071265)
(-0.01295919236 5.135737304e-16 0.0003976560323 3.652079861e-16 -0.0140834179 0 0.02376056763 -4.895683266e-16 0.03873922467)
(-0.01252434532 6.508456669e-17 0.0006830520562 2.939673434e-16 -0.01395338851 0 0.02603037141 2.452517168e-16 0.03812393498)
(-0.01202187198 -3.931231338e-16 0.001022631005 3.125147707e-16 -0.01380767625 0 0.02816240923 1.023472276e-15 0.03742424992)
(-0.01145093983 -5.204650418e-16 0.001414528265 2.933569301e-16 -0.01364512675 0 0.03015020364 -6.617219648e-16 0.03663793937)
(-0.01081309919 1.651272112e-15 0.001857970048 3.121474326e-16 -0.01346546209 0 0.0319895197 2.868945799e-16 0.03576130776)
(-0.01010482563 2.762161146e-15 0.002346514575 9.904356145e-17 -0.01326842653 0 0.03367190584 1.841818537e-15 0.03479562224)
(-0.009327390527 3.583747249e-15 0.002875869036 -9.479637278e-17 -0.0130536324 0 0.0351929793 2.947374307e-15 0.03374076831)
(-0.008482661842 3.732139164e-15 0.003441439819 -3.950371051e-16 -0.01282127001 -1.555838445e-14 0.03654895783 4.636098965e-15 0.03259677397)
(-0.007570874998 2.295444653e-15 0.004035570543 -4.695025803e-16 -0.01257139391 0 0.03773466604 3.1656475e-15 0.03136757699)
(-0.006595507218 2.250359536e-15 0.004652973846 -5.119174952e-16 -0.01230428161 0 0.03874863562 2.982141704e-15 0.0300541718)
(-0.005559063028 1.807826918e-15 0.005285709449 -6.083700528e-16 -0.01202037422 0 0.03958775448 3.759943312e-15 0.02866170028)
(-0.004465421054 1.607786657e-15 0.005927275977 -6.741575093e-16 -0.01172014148 -1.380674579e-14 0.04025187114 4.533921905e-15 0.02719371182)
(-0.003318770688 2.661996653e-16 0.006569796909 -6.591267463e-16 -0.01140426202 0 0.04074019427 3.230502145e-15 0.02565564365)
(-0.002123612788 -1.190036471e-15 0.007205601366 -6.459498686e-16 -0.01107341681 0 0.0410534105 2.390116521e-15 0.02405327)
(-0.0008854310088 2.411180718e-16 0.007827232674 -5.58263918e-16 -0.01072844609 0 0.04119301665 1.854407277e-15 0.02239245748)
(0.0003900406438 1.423225871e-15 0.008427019812 -5.992838002e-16 -0.01037022641 0 0.04116140024 1.555466691e-15 0.02068044046)
(0.001696553141 1.064191632e-15 0.008997548517 -6.3999092e-16 -0.009999750114 0 0.04096166455 1.261583039e-15 0.01892370841)
(0.00302806814 7.562483593e-16 0.009531248702 -6.076190446e-16 -0.009618041784 0 0.04059756366 1.136815137e-15 0.01713050684)
(0.004377966079 5.128258369e-16 0.01002099524 -6.249016011e-16 -0.009226184573 0 0.04007348163 4.43386816e-16 0.01530798729)
(0.005739396569 9.51102571e-17 0.01045994968 -6.188209885e-16 -0.008825300507 0 0.03939461608 3.842829567e-16 0.01346491972)
(0.007105272909 5.139858979e-16 0.0108415494 -5.89993677e-16 -0.008416552785 0 0.03856645187 1.479434195e-18 0.01160904684)
(0.008468445702 8.645459658e-16 0.01115978189 -6.325711716e-16 -0.008001130796 0 0.03759525871 2.944818953e-16 0.009749496114)
(0.009821286267 8.311095714e-17 0.01140916894 -6.286872074e-16 -0.007580245034 0 0.03648765617 4.093986036e-16 0.007894490684)
(0.01115631957 1.309737962e-15 0.01158475396 -6.02315672e-16 -0.007155135867 0 0.03525085399 3.928840543e-16 0.006053298576)
(0.01246614574 2.128340297e-15 0.0116821734 -6.229024911e-16 -0.006727039399 0 0.03389221499 7.105432379e-16 0.004234570967)
(0.01374319378 1.368401036e-15 0.01169793021 -6.439005875e-16 -0.00629720221 0 0.03241976566 7.130359245e-16 0.002447550062)
(0.01497962906 1.405494832e-15 0.01162930038 -6.768027145e-16 -0.005866863523 0 0.03084176791 7.415305391e-16 0.0007011123192)
(0.01616763798 1.576279472e-15 0.01147434584 -6.757624611e-16 -0.005437272306 0 0.02916700565 8.156631597e-16 -0.0009956241501)
(0.01729960958 1.28759061e-15 0.01123189839 -7.095746942e-16 -0.005009660043 0 0.02740437703 9.822574063e-16 -0.002633692532)
(0.01836804358 7.854684584e-16 0.01090167373 -6.980948434e-16 -0.004585250755 5.859419014e-15 0.02556317082 5.233873506e-16 -0.004204236839)
(0.01936557002 9.623778829e-16 0.01048449453 -7.099881129e-16 -0.004165241884 0 0.02365298012 5.427664527e-16 -0.005698470575)
(0.02028477272 9.737658309e-16 0.009982095064 -7.223630615e-16 -0.003750813931 0 0.0216837039 4.549530671e-16 -0.007108000367)
(0.02111871928 2.70479265e-16 0.009397316732 -7.237311631e-16 -0.003343120169 0 0.01966542484 6.078444741e-16 -0.008424534171)
(0.0218609193 -1.664457874e-18 0.008733975333 -7.140074426e-16 -0.002943278578 0 0.01760830721 5.698453021e-16 -0.009640396322)
(0.02250532618 -2.946051855e-16 0.007997184261 -6.930692321e-16 -0.002552366284 0 0.01552265822 5.822996193e-16 -0.01074820816)
(0.0230460023 -7.29927201e-16 0.007193275677 -6.723508223e-16 -0.002171414086 0 0.01341891986 5.078141486e-16 -0.01174136643)
(0.02347808106 -8.134912277e-16 0.006329785013 -6.576219937e-16 -0.001801412717 0 0.01130744502 4.469203938e-16 -0.01261381778)
(0.02379893653 -5.147664448e-16 0.005415441323 -6.3137696e-16 -0.001443281047 0 0.009198373115 1.305265211e-16 -0.01336037272)
(0.02400576165 -5.386997647e-16 0.004459904272 -6.198436778e-16 -0.00109784378 6.016302617e-15 0.007101497137 -1.959396315e-16 -0.01397672249)
(0.02407723794 -1.284136837e-15 0.003473190449 -5.995828703e-16 -0.0007658731124 0 0.005026319506 4.093705758e-17 -0.01445934052)
(0.02396866662 -9.811896562e-16 0.002469187107 -5.733823608e-16 -0.0004485326644 0 0.002985620217 -4.42815882e-17 -0.01480568802)
(0.02397851825 -1.793992704e-16 0.0009793887274 -5.616456313e-16 -0.0001474753782 0 0.0009951901089 -2.650100443e-19 -0.01501422675)
(-0.01361269387 -6.194988949e-16 0.0002040428113 -2.057833884e-15 -0.02241916372 0 0.002348923695 -1.205406951e-16 0.04880488998)
(-0.01804827328 -1.389142831e-15 6.994466866e-05 -1.622850158e-16 -0.01952520232 0 0.006094876379 -4.633715525e-16 0.04869092504)
(-0.01775853902 -1.680320606e-15 -2.022819818e-05 5.670780721e-16 -0.01862045092 0 0.009598712705 -1.627770669e-15 0.04855404978)
(-0.01803644479 1.7941345e-17 7.750185555e-05 8.818529895e-16 -0.01845585635 0 0.01319527127 -4.636282267e-15 0.04832449804)