/*--------------------------------*- C++ -*----------------------------------*\
  =========                 |
  \\      /  F ield         | OpenFOAM: The Open Source CFD Toolbox
   \\    /   O peration     | Website:  https://openfoam.org
    \\  /    A nd           | Version:  7
     \\/     M anipulation  |
\*---------------------------------------------------------------------------*/
FoamFile
{
    version     2.0;
    format      ascii;
    class       volScalarField;
    location    "0.003";
    object      generalizedNewtonian:nu;
}
// * * * * * * * * * * * * * * * * * * * * * * * * * * * * * * * * * * * * * //

dimensions      [0 2 -1 0 0 0 0];

internalField   nonuniform List<scalar> 
1167
(
18.05639339
17.83504363
17.45098962
16.78950893
15.88380672
14.74183821
13.41975943
12.00839424
10.60238885
9.273857777
8.063557176
6.986552358
6.041858404
5.220286178
4.509202437
3.895280814
3.365847765
2.909490659
2.516057912
2.176731766
1.883933103
1.631132358
1.412766141
1.224062599
1.060958454
0.9199617675
0.7980950484
0.6927923803
0.6018478778
0.523352726
0.4556534329
0.3973096367
0.3470650859
0.3038215982
17.15685842
16.96535735
16.65148154
16.10025855
15.3495525
14.39129578
13.25098183
11.98881529
10.68330639
9.408449835
8.217110015
7.137607914
6.179103532
5.338884501
4.60808114
3.975390365
3.429149761
2.95825487
2.552565681
2.203148442
1.902189062
1.64292836
1.419552855
1.227072017
1.061207764
0.9182895742
0.7951698526
0.6891432895
0.5978762634
0.519356564
0.4518394412
0.3938133003
0.3439623531
0.3011451876
0.2643668706
0.2327648751
0.2055926543
0.1822049426
0.1620471471
0.1446431342
0.1295857167
0.1165282203
0.1051760388
0.09527888983
0.08662462386
0.07903358673
0.07235358059
0.06645520306
0.06122705299
0.0565691653
16.44942494
16.27701957
16.00787027
15.5278429
14.88066861
14.05379517
13.05576896
11.92374079
10.71740185
9.504051062
8.341273436
7.267228053
6.300560017
5.445489191
4.69753688
4.047924413
3.486266906
3.001924844
2.584890454
2.226156799
1.917712937
1.652587217
1.424721888
1.228911712
1.060666958
0.9161411252
0.7920200242
0.6854628547
0.5940138776
0.5155638467
0.4482840894
0.3905992352
0.3411417388
0.2987339512
0.2623537805
0.2311224099
0.2042828691
0.1811859151
0.1612765642
0.1440803556
0.1291938
0.1162745212
0.1050324202
0.09522141305
0.08663341614
0.07909235233
0.07244912662
0.06657697816
0.06136679714
0.05672078865
15.88945021
15.72971462
15.49005415
15.05729145
14.48014439
13.74600365
12.85567314
11.83106239
10.71532182
9.565234788
8.437292559
7.375342209
6.405837969
5.539761591
4.777383449
4.112845837
3.537219889
3.040561547
2.613134742
2.245884574
1.930651555
1.660253493
1.428410358
1.229702972
1.059438601
0.9135954195
0.7887018238
0.6817831481
0.5902730211
0.5119683161
0.4449684277
0.3876388137
0.3385700619
0.2965528472
0.2605444317
0.2296536329
0.2031161563
0.1802808859
0.160593535
0.1435821522
0.1288470965
0.1160501994
0.1049053788
0.0951705679
0.08664129297
0.07914464307
0.07253425767
0.06668569332
0.06149184375
0.0568568015
15.44492352
15.29376217
15.07415103
14.67340342
14.14416383
13.47525845
12.66495887
11.7257189
10.68813709
9.598233818
8.507869044
7.462813214
6.495078494
5.621660135
4.847631884
4.170175847
3.582077568
3.074288949
2.637438682
2.262482596
1.941156057
1.66607408
1.430755816
1.229563808
1.057619547
0.910724089
0.7852622319
0.6781293345
0.5866587053
0.508560924
0.4418717891
0.3849053163
0.3362171252
0.2945714794
0.2589102088
0.2283327946
0.2020704641
0.1794717964
0.1599837883
0.1431377521
0.1285378771
0.1158500239
0.1047918357
0.09512492819
0.08664808141
0.07919120957
0.07261037674
0.0667831842
0.06160428712
0.0569794285
15.09204475
14.9469594
14.7410483
14.36223304
13.86624313
13.24338404
12.49163846
11.6185603
10.64574889
9.609862417
8.556717754
7.531286309
6.568910347
5.691483516
4.908439459
4.220027398
3.620961045
3.103268484
2.657974847
2.276127953
1.949394286
1.670204092
1.431890018
1.228605309
1.055293902
0.9075884632
0.7817388338
0.6745195704
0.5831725002
0.5053307607
0.4389746595
0.3823741387
0.3340560441
0.2927634227
0.2574267081
0.2271382262
0.2011273958
0.1787435386
0.1594355812
0.1427383547
0.1282598639
0.1156698172
0.1046893204
0.09508336575
0.08665367861
0.07923270749
0.07267867947
0.06687101215
0.06170592066
0.05709060162
14.81354405
14.67276004
14.47606148
14.11226768
13.63935483
13.04895854
12.33952303
11.51662295
10.59595498
9.606503164
8.588008266
7.583092326
6.628577131
5.749861046
4.960116278
4.262604878
3.654074148
3.127682087
2.674923662
2.287010424
1.955539123
1.672799822
1.431943578
1.226932316
1.052540113
0.9042427987
0.7781637372
0.6709679011
0.5798136337
0.5022666535
0.4362588444
0.3800233314
0.3320636476
0.2911060796
0.2560729436
0.2260517802
0.200271733
0.1780837972
0.15893932
0.142376796
0.1280079777
0.1155062316
0.1045958813
0.09504502428
0.0866580628
0.07926973065
0.0727401958
0.06695049903
0.06179824544
0.05719191954
14.59650069
14.45867771
14.26790956
13.91429084
13.4570969
12.88936632
12.21010492
11.42430611
10.54429608
9.593430978
8.605822794
7.6209412
6.675614101
5.797566905
5.003081646
4.298202836
3.681681323
3.147763504
2.688497578
2.295311536
1.959756394
1.674007011
1.431036471
1.22464173
1.049427923
0.9007350611
0.7745631932
0.6674846873
0.5765792175
0.4993575558
0.4337072787
0.3778334879
0.3302196127
0.2895799705
0.2548312683
0.2250581702
0.199490746
0.1774823407
0.1584870775
0.1420471978
0.1277781478
0.1153565533
0.1045099434
0.09500923041
0.08666124808
0.07930280014
0.07279580656
0.06702276807
0.0618825366
0.05728474522
14.43093679
14.29499301
14.10767882
13.76066507
13.3138057
12.76149874
12.1033206
11.34429796
10.49503399
9.575019538
8.613741508
7.647271698
6.71149822
5.835463915
5.03786967
4.327221091
3.704071561
3.163756889
2.69893119
2.301236456
1.962221203
1.673967143
1.429283453
1.221817373
1.046018171
0.897101999
0.7709573799
0.6640746269
0.5734643982
0.4965906902
0.4313038296
0.375786602
0.328505978
0.2881682694
0.2536866147
0.2241445109
0.1987740065
0.1769306872
0.1580722988
0.1417447031
0.1275669008
0.1152185594
0.1044302448
0.09497546416
0.08666327801
0.07933237528
0.0728462659
0.06708877113
0.0619598679
0.05737021976
14.30936895
14.17437691
13.98861961
13.64531522
13.20465209
12.66212441
12.01823983
11.27796331
10.45115372
9.55485701
8.614999151
7.664525726
6.737884352
5.864612825
5.065186838
4.350154817
3.721605614
3.175944338
2.706454718
2.304983495
1.963108298
1.672820027
1.426793613
1.218539505
1.042365776
0.8933773524
0.7673630823
0.6607417065
0.5704640396
0.4939549998
0.4290340494
0.3738666223
0.3269071532
0.2868569156
0.2526262887
0.2232999194
0.1981123367
0.1764217136
0.1576895506
0.1414653068
0.1273714171
0.1150904287
0.1043557557
0.09494331215
0.08666420725
0.0793588555
0.07289221749
0.06714931564
0.06203114802
0.05744930817
14.22573825
14.09104422
13.90538225
13.5634056
13.12563851
12.58848243
11.95349755
11.22566748
10.41447987
9.535572048
8.612329363
7.675021423
6.756458407
5.886180318
5.085884569
4.367567734
3.734683502
3.184655271
2.711326145
2.306756494
1.962576571
1.670692437
1.423668829
1.214879633
1.038520804
0.8895899853
0.7637949924
0.6574884047
0.5675732015
0.4914403725
0.4268852324
0.3720599787
0.3254097973
0.2856332223
0.2516394532
0.2225152691
0.1974982592
0.1759494914
0.1573342977
0.141205679
0.1271893776
0.1149706673
0.1042856404
0.09491245009
0.08666409923
0.07938258932
0.07293421142
0.06720508654
0.06209714486
0.05752282421
14.17503666
14.0402818
13.85341106
13.51082694
13.07335481
12.53803641
11.90740455
11.18703966
10.38599389
9.519041485
8.607879381
7.680704837
6.768817191
5.901440765
5.100815235
4.380039268
3.743729848
3.190219259
2.713806148
2.306767682
1.960791142
1.667710289
1.419996141
1.21090072
1.034522384
0.8857629717
0.7602624695
0.6543150248
0.5647862653
0.4890370742
0.4248462365
0.370354676
0.3240023098
0.2844866008
0.2507168652
0.2217827902
0.1969254548
0.1755090404
0.1570027645
0.1409631457
0.1270188673
0.1148580374
0.1042192116
0.09488261918
0.08666301854
0.07940387836
0.07297271656
0.06725666445
0.06215850789
0.05759145556
14.15359941
14.018356
13.82915211
13.48441574
13.0449977
12.50859
11.87852065
11.16124109
10.36581913
9.506299965
8.603219338
7.683295101
6.776540634
5.911545443
5.110776182
4.388135216
3.74919115
3.192961363
2.714140049
2.305219237
1.957906654
1.663991853
1.415860859
1.206661156
1.030407103
0.8819167526
0.7567731633
0.6512212251
0.5620965775
0.4867360291
0.4229064975
0.3687400391
0.3226745696
0.2834079361
0.2498506761
0.221096128
0.196388638
0.1750961935
0.1566917755
0.1407353205
0.126858283
0.1147515235
0.1041559105
0.09485361414
0.08666102791
0.07942298226
0.07300813146
0.06730454051
0.06221578481
0.0576557807
14.15861254
14.02242662
13.82982193
13.48167226
13.03834981
12.49851239
11.86583892
11.14775269
10.35383137
9.497826606
8.599394415
7.684072684
6.780760356
5.917393296
5.116463228
4.392411688
3.75149792
3.193209075
2.712579318
2.302290203
1.954058852
1.659642132
1.411337517
1.202214271
1.026207351
0.8780693037
0.7533341355
0.6482066905
0.5594990997
0.4845293742
0.4210565381
0.3672068235
0.3214183826
0.2823895427
0.2490341978
0.2204495704
0.1958833124
0.1747074544
0.1563986808
0.1405202531
0.1267062892
0.1146502775
0.1040952731
0.09482526831
0.0866581852
0.07944012331
0.07304079415
0.06734912957
0.06226943713
0.05771628612
14.18796155
14.05038255
13.85340812
13.5005953
13.05168294
12.50616082
11.86831327
11.14624351
10.35023764
9.494154049
8.597172359
7.683917226
6.782345021
5.919766688
5.118543961
4.393437614
3.751065405
3.191271149
2.709375614
2.298169942
1.949386141
1.654754718
1.406492348
1.197602744
1.021949435
0.8742360538
0.749950496
0.6452711436
0.5569890079
0.4824101409
0.4192885521
0.3657471133
0.3202259033
0.2814247961
0.248261789
0.2198383645
0.1954056835
0.174339864
0.1561212457
0.1403163226
0.126561772
0.1145535941
0.1040369165
0.09479744766
0.08665454373
0.07945549177
0.07307099102
0.06739078171
0.06231985345
0.05777338101
14.24004944
14.10063999
13.8985504
13.53980398
13.08360969
12.53028384
11.88509043
11.156344
10.35510133
9.495700531
8.597199726
7.683610852
6.782119021
5.919426597
5.117697468
4.391732354
3.74828893
3.187449716
2.704750146
2.293027296
1.944021424
1.64942443
1.401389942
1.192866822
1.017657558
0.8704270347
0.7466257213
0.6424125758
0.5545615099
0.4803725841
0.4175956807
0.3643540274
0.3190906846
0.2805080006
0.2475286007
0.2192585055
0.1949525351
0.1739909374
0.1558577146
0.1401221825
0.1264237948
0.1144608819
0.1039805223
0.09477004301
0.08665015121
0.07946924959
0.07309896397
0.06742979167
0.0623673604
0.05782740898
14.31325073
14.17181536
13.96378451
13.59790605
13.13298793
12.5699898
11.91519648
11.17746854
10.36831529
9.502717416
8.599961538
7.683757381
6.780725228
5.917052941
5.114546032
4.387776056
3.743531171
3.182044481
2.698923917
2.287020477
1.938077939
1.643731688
1.396088765
1.188043844
1.013354124
0.866653852
0.7433635959
0.6396292017
0.5522123747
0.4784107358
0.415971759
0.3630215619
0.3180072102
0.2796343381
0.2468307526
0.2187066605
0.1945211883
0.1736585782
0.155606404
0.1399366867
0.1262915848
0.1143716543
0.1039258278
0.09474296518
0.08664504905
0.07948153338
0.07312491622
0.06746640644
0.06241223117
0.05787865692
14.40672979
14.2629956
14.04813911
13.67399622
13.19891493
12.6244673
11.9578298
11.20887524
10.38953922
9.515252022
8.605784148
7.684864791
6.77881899
5.913314829
5.109613147
4.38198563
3.737135256
3.175321525
2.692099971
2.280303367
1.931661381
1.637749263
1.390636017
1.18316397
1.009059415
0.8629260579
0.7401674408
0.6369202679
0.549938169
0.4765194107
0.4144114874
0.3617451947
0.3169708922
0.2787996997
0.2461646554
0.2181799686
0.1941093802
0.1733410317
0.1553659823
0.1397588779
0.1261644876
0.1142854995
0.103872612
0.09471613948
0.08663927215
0.07949245764
0.07314901764
0.06750083218
0.06245469341
0.0579273634
14.52000187
14.37365643
14.15106751
13.76763032
13.28086052
12.69324129
12.01261756
11.25000364
10.41813412
9.533016103
8.614783751
7.687388528
6.776958006
5.908682302
5.103300416
4.374705195
3.729411872
3.167512248
2.684448897
2.273014207
1.924870996
1.631546707
1.385075896
1.178254717
1.004786571
0.8592503231
0.7370407318
0.6342846666
0.5477357474
0.4746945816
0.4129104451
0.360520045
0.3159777186
0.2780006194
0.2455272614
0.2176759914
0.1937151797
0.1730368261
0.155135334
0.1395879512
0.1260419548
0.1142020736
0.1038206908
0.09468950399
0.0866328499
0.07950211784
0.07317140959
0.06753324011
0.06249493587
0.05797372601
14.65276338
14.50341965
14.27216017
13.87837854
13.37843536
12.7759364
12.07930512
11.30068986
10.45393477
9.55578924
8.62687855
7.691377579
6.775293288
5.9033899
5.095887129
4.366230511
3.720616973
3.158823253
2.676130269
2.265260547
1.917786497
1.625186411
1.37944952
1.173342069
1.000549979
0.8556332636
0.7339830899
0.6317206543
0.5456031796
0.4729327813
0.4114647936
0.3593422971
0.3150242276
0.2772340973
0.2449160504
0.217192666
0.1933369667
0.1727448253
0.1549135324
0.1394232278
0.1259235241
0.1141210878
0.1037699099
0.09466300672
0.08662580634
0.07951059282
0.07319220877
0.06756377141
0.06253311402
0.05801790728
14.8052231
14.65239746
14.41151897
14.00613702
13.49144911
12.8721641
12.15771531
11.36093921
10.49698995
9.583627029
8.642098851
7.696897694
6.773964619
5.897654563
5.087638784
4.356865845
3.710988792
3.149436198
2.667298423
2.257155587
1.910484656
1.618716352
1.373789134
1.168449154
0.9963626859
0.8520815139
0.7309966936
0.6292273605
0.5435369699
0.4712306363
0.4100711893
0.3582087326
0.3141075475
0.2764978948
0.2443289615
0.2167282998
0.1929733791
0.1724638405
0.1546997818
0.1392641513
0.1258088162
0.1140423029
0.1037201403
0.09463660334
0.08661816013
0.07951794659
0.07321151034
0.06759254129
0.06256935447
0.05806003916
14.97755699
14.82084398
14.56938102
14.1510035
13.61989756
12.98186406
12.24765268
11.43066308
10.54725907
9.616507854
8.66049508
7.704088924
6.773167265
5.891711777
5.078855663
4.346849871
3.700726446
3.139515351
2.658078614
2.248795135
1.903037757
1.612184406
1.368125301
1.163592884
0.9922344216
0.8486012013
0.7280834217
0.6268042449
0.541534943
0.4695854283
0.408727387
0.357116762
0.3132252459
0.2757897437
0.2437642136
0.2162814641
0.1926232864
0.1721929963
0.1544934258
0.1391102503
0.1256975105
0.1139655178
0.1036712738
0.094610256
0.08660992546
0.07952423052
0.07322939105
0.06761964257
0.0626037591
0.05810022761
15.16982383
15.00897322
14.74579102
14.31295685
13.76376486
13.10495789
12.34868331
11.50955042
10.60467953
9.654478965
8.682109716
7.712982692
6.773007467
5.88580521
5.069789433
4.336388589
3.689996387
3.129215238
2.648582012
2.240257438
1.895510024
1.605634584
1.362487497
1.158789988
0.9881744833
0.8451959484
0.7252442345
0.6244510711
0.5395956619
0.4679950762
0.4074304709
0.3560641009
0.3123752994
0.275107759
0.2432202918
0.215850949
0.1922858079
0.171931561
0.1542939128
0.1389611312
0.1255893407
0.113890566
0.1036232204
0.09458393262
0.08660111261
0.07952948496
0.07324591161
0.06764514881
0.06263640854
0.05813855633
3.118667394
2.638912208
2.231619212
1.887946162
1.599099073
1.356901591
1.154056403
0.9841918105
0.8418688787
0.7224799555
0.622167701
0.5377177848
0.4664577622
0.4061784422
0.3550487986
0.3115559682
0.27445046
0.2426959675
0.2154357618
0.1919601731
0.1716789307
0.1541007914
0.1388164707
0.1254840869
0.1138173096
0.1035759059
0.09455760615
0.0865917286
0.07953374056
0.07326111859
0.06766911656
0.06266736472
0.05817508933
)
;

boundaryField
{
    front_top
    {
        type            wedge;
    }
    front_middle
    {
        type            wedge;
    }
    front_bottom
    {
        type            wedge;
    }
    back_top
    {
        type            wedge;
    }
    back_middle
    {
        type            wedge;
    }
    back_bottom
    {
        type            wedge;
    }
    axis_top
    {
        type            symmetryPlane;
    }
    axis_middle
    {
        type            symmetryPlane;
    }
    axis_bottom
    {
        type            symmetryPlane;
    }
    wall_top
    {
        type            calculated;
        value           nonuniform 0();
    }
    wall_middle
    {
        type            calculated;
        value           nonuniform 0();
    }
    wall_bottom
    {
        type            calculated;
        value           nonuniform List<scalar> 
23
(
0.05446117804
0.05461692189
0.05475679556
0.05488305569
0.05499767742
0.05510228648
0.05519827212
0.05528679439
0.05536883434
0.05544521859
0.05551664566
0.05558370251
0.05564688233
0.05570659978
0.05576320301
0.05581698247
0.0558681794
0.05591699355
0.05596358911
0.05600809914
0.05605063037
0.05609126706
0.05613007344
)
;
    }
    inlet
    {
        type            calculated;
        value           nonuniform 0();
    }
    outlet
    {
        type            calculated;
        value           nonuniform 0();
    }
    procBoundary1to0
    {
        type            processor;
        value           nonuniform List<scalar> 
51
(
15.38253192
15.21713948
14.9410489
14.49232951
13.92316149
13.2414417
12.46064452
11.59701798
10.66878434
9.69730116
8.706862353
7.723648693
6.773710328
5.88016886
5.060610609
4.325635532
3.678951222
3.678951222
3.107965649
2.629143357
2.222947688
1.880394284
1.592608276
1.351384518
1.149403099
0.9802943046
0.8386240648
0.7197918443
0.6199526281
0.5358997532
0.4649720611
0.4049695987
0.35406927
0.310766217
0.2738166867
0.2421902486
0.2150350828
0.1916456388
0.1714346015
0.1539136969
0.1386760074
0.1253815706
0.1137456359
0.1035292682
0.09453125237
0.08658177621
0.07953701887
0.07327504603
0.06769158762
0.06269667352
0.0582098739
)
;
    }
    procBoundary1to2
    {
        type            processor;
        value           nonuniform List<scalar> 
51
(
19.2111335
18.94064172
18.44187231
17.60435645
16.46641766
15.07470709
13.53336851
11.96449662
10.46697275
9.098314327
7.880771558
6.814704975
5.889467067
5.090167422
4.401192288
3.80772266
3.29640897
2.855610735
2.475286339
2.14679909
1.862819173
1.61706977
1.40423072
1.219764508
1.059812749
0.9210723608
0.8007321086
0.6963701824
0.6059113263
0.5275547167
0.4597443574
0.4011180712
0.3504867753
0.3068029473
0.2666176252
0.2666176252
0.2346119436
0.2070723187
0.1833601587
0.1629229913
0.1452839768
0.1300325856
0.1168178017
0.1053402211
0.09534494938
0.08661529824
0.07896756439
0.07224600626
0.06631818485
0.06107005259
0.05639912588
)
;
    }
}


// ************************************************************************* //
