/*--------------------------------*- C++ -*----------------------------------*\
  =========                 |
  \\      /  F ield         | OpenFOAM: The Open Source CFD Toolbox
   \\    /   O peration     | Website:  https://openfoam.org
    \\  /    A nd           | Version:  7
     \\/     M anipulation  |
\*---------------------------------------------------------------------------*/
FoamFile
{
    version     2.0;
    format      ascii;
    class       surfaceScalarField;
    location    "0.003";
    object      phi;
}
// * * * * * * * * * * * * * * * * * * * * * * * * * * * * * * * * * * * * * //

dimensions      [1 0 -1 0 0 0 0];

internalField   nonuniform List<scalar> 
2260
(
-7.427730978e-15
5.766835952e-11
-2.910644808e-14
1.687345334e-10
-6.407522539e-14
2.73573405e-10
-1.115367487e-13
3.724215982e-10
-1.712201683e-13
4.655096802e-10
-2.435640172e-13
5.530610052e-10
-3.302365951e-13
6.352911318e-10
-4.34064639e-13
7.124068308e-10
-5.590211246e-13
7.846060039e-10
-7.101657041e-13
8.520773832e-10
-8.933998948e-13
9.150003574e-10
-1.115280614e-12
9.735448226e-10
-1.382860324e-12
1.027870906e-09
-1.70351234e-12
1.078128671e-09
-2.084687651e-12
1.124457493e-09
-2.533782202e-12
1.166985775e-09
-3.057875089e-12
1.205830164e-09
-3.663286704e-12
1.241094876e-09
-4.355147261e-12
1.272870404e-09
-5.137270416e-12
1.301233228e-09
-6.011174066e-12
1.326244179e-09
-6.975966851e-12
1.347946924e-09
-8.027462238e-12
1.366367004e-09
-9.157749833e-12
1.381509445e-09
-1.035446925e-11
1.393357672e-09
-1.160050829e-11
1.401870304e-09
-1.287334635e-11
1.406980551e-09
-1.41452909e-11
1.408593025e-09
-1.538319826e-11
1.406582531e-09
-1.654954165e-11
1.400792837e-09
-1.760291425e-11
1.39103549e-09
-1.850002871e-11
1.377090469e-09
-1.919721645e-11
1.358706974e-09
1.335606311e-09
-8.545675759e-15
5.76769052e-11
-3.348531596e-14
1.68759473e-10
-7.370696568e-14
2.736136266e-10
-1.282062537e-13
3.724760975e-10
-1.96299667e-13
4.655777736e-10
-2.779018878e-13
5.531426074e-10
-3.738548901e-13
6.353870848e-10
-4.861450682e-13
7.12519121e-10
-6.178837873e-13
7.847377426e-10
-7.732391785e-13
8.522327386e-10
-9.572995291e-13
9.151844177e-10
-1.175840961e-12
9.73763364e-10
-1.43514052e-12
1.028130205e-09
-1.74174837e-12
1.078435279e-09
-2.102378905e-12
1.124818124e-09
-2.523655602e-12
1.167407051e-09
-3.011933033e-12
1.206318442e-09
-3.572669264e-12
1.241655612e-09
-4.210419681e-12
1.273508154e-09
-4.928355176e-12
1.301951163e-09
-5.7274863e-12
1.327043311e-09
-6.606648195e-12
1.348826085e-09
-7.561402875e-12
1.367321759e-09
-8.584054623e-12
1.382532097e-09
-9.662576119e-12
1.394436194e-09
-1.078081913e-11
1.402988547e-09
-1.19176143e-11
1.408117346e-09
-1.30473379e-11
1.409722749e-09
-1.41396239e-11
1.407674817e-09
-1.516051311e-11
1.401813726e-09
-1.607297896e-11
1.391947956e-09
-1.683882402e-11
1.377856314e-09
-1.742004597e-11
1.359288196e-09
-1.778135843e-11
1.335967624e-09
-1.78920324e-11
1.30759578e-09
-1.772854169e-11
1.273856486e-09
-1.72763276e-11
1.234422175e-09
-1.653181976e-11
1.188959733e-09
-1.550378347e-11
1.137138169e-09
-1.421396009e-11
1.078635198e-09
-1.269742959e-11
1.013143974e-09
-1.10022276e-11
9.403800014e-10
-9.188508954e-12
8.600871068e-10
-7.327089595e-12
7.720420499e-10
-5.497771901e-12
6.760589839e-10
-3.787362876e-12
5.719922776e-10
-2.287578873e-12
4.597385366e-10
-1.092926843e-12
3.392369246e-10
-2.987616574e-13
2.10466771e-10
7.343729161e-11
-9.491114942e-15
5.768639631e-11
-3.719745544e-14
1.687871793e-10
-8.189835206e-14
2.736583275e-10
-1.42458884e-13
3.72536658e-10
-2.178929925e-13
4.656532077e-10
-3.077640519e-13
5.532324784e-10
-4.122428043e-13
6.354915636e-10
-5.325994725e-13
7.126394776e-10
-6.71119604e-13
7.848762627e-10
-8.311639196e-13
8.523927829e-10
-1.017019484e-12
9.153702733e-10
-1.233702275e-12
9.739800468e-10
-1.486765439e-12
1.028383269e-09
-1.782068823e-12
1.078730582e-09
-2.125619467e-12
1.125161675e-09
-2.523399367e-12
1.167804831e-09
-2.980938065e-12
1.20677598e-09
-3.503073866e-12
1.242177748e-09
-4.093816576e-12
1.274098897e-09
-4.755637948e-12
1.302612984e-09
-5.489214128e-12
1.327776887e-09
-6.292984028e-12
1.349629855e-09
-7.162452147e-12
1.368191227e-09
-8.090016683e-12
1.383459662e-09
-9.064156457e-12
1.395410334e-09
-1.006954703e-11
1.403993938e-09
-1.108646772e-11
1.409134267e-09
-1.209117264e-11
1.410727453e-09
-1.305601789e-11
1.408639662e-09
-1.395023518e-11
1.402707943e-09
-1.474087907e-11
1.3927386e-09
-1.539417752e-11
1.378509613e-09
-1.587715185e-11
1.359771171e-09
-1.615951318e-11
1.336249985e-09
-1.621545309e-11
1.30765172e-09
-1.602578691e-11
1.27366682e-09
-1.557938299e-11
1.233975771e-09
-1.487483924e-11
1.188255189e-09
-1.392148888e-11
1.136184818e-09
-1.273988956e-11
1.077453598e-09
-1.13620477e-11
1.011766132e-09
-9.831067609e-12
9.388490213e-10
-8.200344981e-12
8.584563842e-10
-6.532386021e-12
7.703740909e-10
-4.897381584e-12
6.744239795e-10
-3.371562717e-12
5.704664587e-10
-2.035463717e-12
4.584024376e-10
-9.721686302e-13
3.381736296e-10
-2.657045527e-13
2.09760307e-10
7.317158705e-11
-1.027679961e-14
5.769667311e-11
-4.028599223e-14
1.688171885e-10
-8.874396883e-14
2.737067855e-10
-1.543928165e-13
3.726023069e-10
-2.360830881e-13
4.65734898e-10
-3.330961031e-13
5.533294914e-10
-4.451834373e-13
6.356036509e-10
-5.729353961e-13
7.127672296e-10
-7.17952102e-13
7.850212794e-10
-8.828238274e-13
8.525576546e-10
-1.071077518e-12
9.15558527e-10
-1.287009358e-12
9.741959786e-10
-1.535491549e-12
1.028631751e-09
-1.821726114e-12
1.079016817e-09
-2.1511175e-12
1.125491066e-09
-2.528964377e-12
1.168182678e-09
-2.960099999e-12
1.207207116e-09
-3.448827008e-12
1.242666475e-09
-3.99858939e-12
1.274648659e-09
-4.611276032e-12
1.303225671e-09
-5.287276309e-12
1.328452887e-09
-6.024606331e-12
1.350367185e-09
-6.818836222e-12
1.368985457e-09
-7.662382746e-12
1.384303208e-09
-8.544345046e-12
1.396292296e-09
-9.450116097e-12
1.404899709e-09
-1.036145695e-11
1.410045608e-09
-1.125635156e-11
1.411622348e-09
-1.210973063e-11
1.409493041e-09
-1.289373231e-11
1.403491945e-09
-1.357909141e-11
1.393423959e-09
-1.413593655e-11
1.379066458e-09
-1.453566747e-11
1.360170902e-09
-1.475220423e-11
1.336466522e-09
-1.476386543e-11
1.307663381e-09
-1.455496175e-11
1.273457917e-09
-1.411705538e-11
1.233537864e-09
-1.34503459e-11
1.18758848e-09
-1.256434247e-11
1.135298815e-09
-1.147835534e-11
1.076367611e-09
-1.022157045e-11
1.010509347e-09
-8.832759667e-12
9.374602105e-10
-7.359494823e-12
8.569831193e-10
-5.857215828e-12
7.688718119e-10
-4.388005633e-12
6.729547693e-10
-3.019221314e-12
5.690976744e-10
-1.822046225e-12
4.572052625e-10
-8.70031444e-13
3.372216148e-10
-2.3776331e-13
2.091280388e-10
7.293382374e-11
-1.09149524e-14
5.770758806e-11
-4.280261552e-14
1.688490762e-10
-9.433155303e-14
2.737583144e-10
-1.641520356e-13
3.726721274e-10
-2.510527738e-13
4.658217987e-10
-3.540676899e-13
5.534325064e-10
-4.726935428e-13
6.357222768e-10
-6.06993711e-13
7.129015298e-10
-7.579553736e-13
7.851722411e-10
-9.275009295e-13
8.527272002e-10
-1.118444319e-12
9.157494704e-10
-1.334390163e-12
9.744119245e-10
-1.579554224e-12
1.028876915e-09
-1.858545732e-12
1.079295808e-09
-2.176164145e-12
1.125808684e-09
-2.537022592e-12
1.168543537e-09
-2.945436906e-12
1.20761553e-09
-3.405220699e-12
1.243126259e-09
-3.91916048e-12
1.275162599e-09
-4.48876026e-12
1.303795271e-09
-5.114068578e-12
1.329078195e-09
-5.792802409e-12
1.351045919e-09
-6.520569453e-12
1.369713224e-09
-7.289869139e-12
1.385072508e-09
-8.090385927e-12
1.397092813e-09
-8.908264857e-12
1.405717588e-09
-9.726625562e-12
1.410863968e-09
-1.052515552e-11
1.412420878e-09
-1.128107574e-11
1.410248961e-09
-1.196926468e-11
1.404180134e-09
-1.256364811e-11
1.394018342e-09
-1.303786883e-11
1.379540679e-09
-1.336703108e-11
1.360500064e-09
-1.352867622e-11
1.336628167e-09
-1.350456586e-11
1.307639271e-09
-1.328179781e-11
1.273235148e-09
-1.285406777e-11
1.233110134e-09
-1.222272523e-11
1.186957137e-09
-1.139723294e-11
1.134473323e-09
-1.039564711e-11
1.075366025e-09
-9.244598408e-12
1.009358298e-09
-7.979040759e-12
9.361946529e-10
-6.641549364e-12
8.556456279e-10
-5.281538787e-12
7.675118013e-10
-3.954229731e-12
6.716274602e-10
-2.719501161e-12
5.678629458e-10
-1.640678397e-12
4.561264398e-10
-7.833123123e-13
3.363642487e-10
-2.140656153e-13
2.085587921e-10
7.271975813e-11
-1.142164078e-14
5.77190097e-11
-4.4800202e-14
1.688824548e-10
-9.87567319e-14
2.73812271e-10
-1.719083868e-13
3.72745279e-10
-2.630154112e-13
4.659129057e-10
-3.709282717e-13
5.535404192e-10
-4.94951991e-13
6.358463005e-10
-6.348325406e-13
7.130414103e-10
-7.910195115e-13
7.85328428e-10
-9.648343344e-13
8.52901015e-10
-1.158464714e-12
9.159431008e-10
-1.374867296e-12
9.746283271e-10
-1.617649186e-12
1.029119697e-09
-1.890818928e-12
1.079568978e-09
-2.198540871e-12
1.126116406e-09
-2.544900137e-12
1.168889896e-09
-2.933715719e-12
1.208004346e-09
-3.36830116e-12
1.243560844e-09
-3.85087893e-12
1.275645177e-09
-4.382674454e-12
1.304327066e-09
-4.963269253e-12
1.32965879e-09
-5.590290078e-12
1.35167294e-09
-6.259265615e-12
1.3703822e-09
-6.962939737e-12
1.385776182e-09
-7.69146299e-12
1.397821336e-09
-8.431827778e-12
1.406457953e-09
-9.168343972e-12
1.411600485e-09
-9.88236725e-12
1.413134901e-09
-1.055315646e-11
1.41091975e-09
-1.115810158e-11
1.404785079e-09
-1.167393731e-11
1.394534178e-09
-1.207739395e-11
1.379944135e-09
-1.234674589e-11
1.360769416e-09
-1.246262903e-11
1.33674405e-09
-1.240965087e-11
1.307586293e-09
-1.217718849e-11
1.273002686e-09
-1.176060764e-11
1.232693553e-09
-1.116205807e-11
1.186358588e-09
-1.03908294e-11
1.133702094e-09
-9.463753442e-12
1.074438949e-09
-8.405163458e-12
1.008299708e-09
-7.246668308e-12
9.350361577e-10
-6.026533891e-12
8.544254935e-10
-4.789026126e-12
7.662742935e-10
-3.583537502e-12
6.704219716e-10
-2.463620691e-12
5.66743029e-10
-1.485969737e-12
4.551487888e-10
-7.093932472e-13
3.355876722e-10
-1.938793331e-13
2.080432782e-10
7.252587879e-11
-1.180697721e-14
5.773081668e-11
-4.631560958e-14
1.689169634e-10
-1.021220357e-13
2.738680774e-10
-1.778416618e-13
3.728209986e-10
-2.721924627e-13
4.660072565e-10
-3.839633159e-13
5.536521901e-10
-5.122857922e-13
6.35974623e-10
-6.566847189e-13
7.131858092e-10
-8.17239155e-13
7.854889825e-10
-9.947548282e-13
8.530785307e-10
-1.190846359e-12
9.161391923e-10
-1.407886345e-12
9.74845367e-10
-1.648874773e-12
1.029360685e-09
-1.917227096e-12
1.079837331e-09
-2.216560642e-12
1.12641574e-09
-2.550465467e-12
1.169223801e-09
-2.922329069e-12
1.208376209e-09
-3.334861648e-12
1.243973377e-09
-3.789921127e-12
1.276100236e-09
-4.288428551e-12
1.304825574e-09
-4.829540754e-12
1.330199902e-09
-5.410879805e-12
1.352254279e-09
-6.027827197e-12
1.370999147e-09
-6.67349708e-12
1.386421852e-09
-7.338392786e-12
1.398486232e-09
-8.010433352e-12
1.407129993e-09
-8.67493597e-12
1.412264987e-09
-9.314904861e-12
1.41377487e-09
-9.911359008e-12
1.411516205e-09
-1.04440381e-11
1.405317758e-09
-1.089206959e-11
1.394982209e-09
-1.123495186e-11
1.380287018e-09
-1.145363018e-11
1.360988094e-09
-1.153138689e-11
1.336821807e-09
-1.145517119e-11
1.307510077e-09
-1.121625707e-11
1.272763772e-09
-1.081130652e-11
1.232288603e-09
-1.024302373e-11
1.185790305e-09
-9.520423802e-12
1.132979494e-09
-8.659177796e-12
1.073577703e-09
-7.681585158e-12
1.007322116e-09
-6.616303458e-12
9.33970876e-10
-5.497881081e-12
8.533070711e-10
-4.36617256e-12
7.65142585e-10
-3.265604663e-12
6.693214037e-10
-2.244357878e-12
5.657217822e-10
-1.353506104e-12
4.54257937e-10
-6.46148853e-13
3.348803149e-10
-1.76622044e-13
2.075737514e-10
7.234925675e-11
-1.207915796e-14
5.774289584e-11
-4.739087814e-14
1.689522751e-10
-1.045244865e-13
2.73925211e-10
-1.821200479e-13
3.728985942e-10
-2.788384386e-13
4.661039749e-10
-3.934965926e-13
5.537668482e-10
-5.250665898e-13
6.36106193e-10
-6.729317545e-13
7.133336744e-10
-8.36902968e-13
7.856529537e-10
-1.017397218e-12
8.532590249e-10
-1.215521129e-12
9.163373162e-10
-1.433110793e-12
9.750629567e-10
-1.672583609e-12
1.029600158e-09
-1.936827883e-12
1.080101575e-09
-2.22895549e-12
1.126707867e-09
-2.552102069e-12
1.169546947e-09
-2.909158903e-12
1.208733266e-09
-3.302342084e-12
1.24436656e-09
-3.733219136e-12
1.276531113e-09
-4.202282673e-12
1.305294637e-09
-4.708486712e-12
1.330706106e-09
-5.249373268e-12
1.352795166e-09
-5.820259309e-12
1.371570033e-09
-6.414604696e-12
1.387016197e-09
-7.023277572e-12
1.399094905e-09
-7.6350668e-12
1.407741783e-09
-8.236245104e-12
1.412866165e-09
-8.811315839e-12
1.414349941e-09
-9.342911256e-12
1.4120478e-09
-9.812857241e-12
1.405787704e-09
-1.020239521e-11
1.395371747e-09
-1.0493454e-11
1.380578076e-09
-1.066923233e-11
1.361163873e-09
-1.07152776e-11
1.336867852e-09
-1.062047798e-11
1.307415277e-09
-1.037765647e-11
1.27252095e-09
-9.984531204e-12
1.231895478e-09
-9.44412611e-12
1.1852499e-09
-8.76514171e-12
1.13230051e-09
-7.962165652e-12
1.072774727e-09
-7.055690747e-12
1.006415641e-09
-6.071786207e-12
9.329869715e-10
-5.041785295e-12
8.522770702e-10
-4.001752187e-12
7.641025519e-10
-2.9918671e-12
6.683115186e-10
-2.055729871e-12
5.64785645e-10
-1.23963055e-12
4.534418377e-10
-5.918127239e-13
3.342324971e-10
-1.618045789e-13
2.071437433e-10
7.218745217e-11
-1.225143227e-14
5.775514727e-11
-4.807448419e-14
1.689880982e-10
-1.060712366e-13
2.739832077e-10
-1.848973696e-13
3.729774203e-10
-2.831973813e-13
4.662022749e-10
-3.99819705e-13
5.538834706e-10
-5.336679615e-13
6.362400412e-10
-6.839933218e-13
7.134839998e-10
-8.504238311e-13
7.858193842e-10
-1.03306686e-12
8.53441668e-10
-1.232629342e-12
9.165368787e-10
-1.450466358e-12
9.752807937e-10
-1.688496061e-12
1.029838188e-09
-1.949101125e-12
1.08036218e-09
-2.234911193e-12
1.126993678e-09
-2.548643132e-12
1.169860679e-09
-2.892625871e-12
1.209077249e-09
-3.268737281e-12
1.244742671e-09
-3.67825682e-12
1.276940633e-09
-4.121232934e-12
1.305737613e-09
-4.596530435e-12
1.331181404e-09
-5.101507704e-12
1.353300143e-09
-5.631583317e-12
1.372100109e-09
-6.180444706e-12
1.387565059e-09
-6.739431413e-12
1.399653891e-09
-7.298048549e-12
1.4083004e-09
-7.843562755e-12
1.41341168e-09
-8.361751473e-12
1.41486813e-09
-8.836789465e-12
1.412522838e-09
-9.252274369e-12
1.406203189e-09
-9.591387269e-12
1.39571086e-09
-9.838104971e-12
1.380824794e-09
-9.977599899e-12
1.361303367e-09
-9.997363885e-12
1.336887616e-09
-9.887835223e-12
1.307305749e-09
-9.643130447e-12
1.272276246e-09
-9.261802675e-12
1.23151415e-09
-8.747065066e-12
1.184735162e-09
-8.10727417e-12
1.131660719e-09
-7.356018911e-12
1.072023472e-09
-6.512164515e-12
1.005571786e-09
-5.599535387e-12
9.320743424e-10
-4.646672588e-12
8.513242074e-10
-3.686373958e-12
7.631422533e-10
-2.755173708e-12
6.673803184e-10
-1.892749114e-12
5.639232204e-10
-1.141299693e-12
4.526903883e-10
-5.449187479e-13
3.336361162e-10
-1.490232967e-13
2.067478478e-10
7.203842887e-11
-1.233398858e-14
5.776748126e-11
-4.840724241e-14
1.690241714e-10
-1.068526716e-13
2.740416532e-10
-1.863164596e-13
3.730568841e-10
-2.854965528e-13
4.66301455e-10
-4.032296878e-13
5.540012037e-10
-5.384529568e-13
6.363752645e-10
-6.902819327e-13
7.136358287e-10
-8.582321434e-13
7.859873344e-10
-1.042182305e-12
8.536256181e-10
-1.242514687e-12
9.167372111e-10
-1.460182758e-12
9.754984618e-10
-1.69665725e-12
1.030074662e-09
-1.953854703e-12
1.080619377e-09
-2.234004772e-12
1.127273828e-09
-2.539286006e-12
1.17016596e-09
-2.871623779e-12
1.209409587e-09
-3.232583327e-12
1.245103631e-09
-3.623071919e-12
1.277331121e-09
-4.042844574e-12
1.306157386e-09
-4.490681116e-12
1.33162924e-09
-4.963732309e-12
1.353773194e-09
-5.457627045e-12
1.372594003e-09
-5.96614866e-12
1.38807358e-09
-6.481217673e-12
1.40016896e-09
-6.992907573e-12
1.40881209e-09
-7.489495432e-12
1.413908268e-09
-7.957841492e-12
1.415336476e-09
-8.383567129e-12
1.412948564e-09
-8.751803694e-12
1.406571425e-09
-9.047457791e-12
1.396006514e-09
-9.256262504e-12
1.381033599e-09
-9.365114964e-12
1.36141222e-09
-9.363146087e-12
1.336885647e-09
-9.242087341e-12
1.30718469e-09
-8.997117907e-12
1.272031276e-09
-8.627413367e-12
1.231144445e-09
-8.136331993e-12
1.184244081e-09
-7.531855201e-12
1.131056242e-09
-6.82665771e-12
1.071318275e-09
-6.038150129e-12
1.004783279e-09
-5.188191047e-12
9.312243833e-10
-4.302893048e-12
8.504389094e-10
-3.412229695e-12
7.622515899e-10
-2.549593317e-12
6.66517682e-10
-1.751288194e-12
5.631249153e-10
-1.056000185e-12
4.519951003e-10
-5.04258126e-13
3.330843741e-10
-1.379456436e-13
2.063815353e-10
7.190048323e-11
-1.233719886e-14
5.777981846e-11
-4.843328801e-14
1.690602675e-10
-1.06937235e-13
2.741001571e-10
-1.865158872e-13
3.731364628e-10
-2.859451071e-13
4.664008842e-10
-4.04028446e-13
5.54119287e-10
-5.397591126e-13
6.365109951e-10
-6.922266743e-13
7.137882963e-10
-8.60795721e-13
7.861559035e-10
-1.045209438e-12
8.538100318e-10
-1.245598793e-12
9.169376004e-10
-1.462583502e-12
9.757154465e-10
-1.69724757e-12
1.030309326e-09
-1.951132412e-12
1.080873262e-09
-2.225987777e-12
1.127548683e-09
-2.523530962e-12
1.170463504e-09
-2.845357413e-12
1.209731413e-09
-3.192746585e-12
1.24545102e-09
-3.566168299e-12
1.277704543e-09
-3.965213432e-12
1.306556431e-09
-4.388513355e-12
1.33205254e-09
-4.833119002e-12
1.3542178e-09
-5.294831572e-12
1.373055716e-09
-5.767541472e-12
1.38854629e-09
-6.243737854e-12
1.400645157e-09
-6.713996139e-12
1.409282348e-09
-7.167562892e-12
1.414361834e-09
-7.592231664e-12
1.415761145e-09
-7.974985835e-12
1.413331318e-09
-8.302240854e-12
1.40689868e-09
-8.560487065e-12
1.396264761e-09
-8.736926948e-12
1.381210039e-09
-8.819967765e-12
1.361495261e-09
-8.800094339e-12
1.336865774e-09
-8.67017748e-12
1.307054773e-09
-8.426244943e-12
1.271787344e-09
-8.067955509e-12
1.230786156e-09
-7.598738194e-12
1.183774864e-09
-7.02619829e-12
1.130483702e-09
-6.362197795e-12
1.070654274e-09
-5.622823463e-12
1.004043904e-09
-4.828212864e-12
9.304297727e-10
-4.002360483e-12
8.49613057e-10
-3.172789971e-12
7.614220194e-10
-2.370175847e-12
6.657150679e-10
-1.627909158e-12
5.623826486e-10
-9.816429667e-13
4.513488341e-10
-4.688288966e-13
3.3257156e-10
-1.28297247e-13
2.060410037e-10
7.177218598e-11
-1.22706856e-14
5.779208915e-11
-4.817955499e-14
1.690961764e-10
-1.063916357e-13
2.741583692e-10
-1.856242035e-13
3.732156953e-10
-2.847150267e-13
4.664999751e-10
-4.024700702e-13
5.542370421e-10
-5.379210239e-13
6.366464461e-10
-6.901898614e-13
7.139405651e-10
-8.585571323e-13
7.863242707e-10
-1.042625138e-12
8.539940998e-10
-1.242347483e-12
9.171373228e-10
-1.458085809e-12
9.759311848e-10
-1.69061045e-12
1.030541851e-09
-1.941070202e-12
1.081123722e-09
-2.210765606e-12
1.127818378e-09
-2.501089502e-12
1.170753827e-09
-2.813313371e-12
1.210043637e-09
-3.148352484e-12
1.245786059e-09
-3.506360867e-12
1.278062552e-09
-3.886823628e-12
1.306936894e-09
-4.288098168e-12
1.332453815e-09
-4.707285475e-12
1.354636987e-09
-5.140249273e-12
1.37348868e-09
-5.581126763e-12
1.388987168e-09
-6.022827711e-12
1.401086858e-09
-6.456490032e-12
1.40971601e-09
-6.872170387e-12
1.414777515e-09
-7.258569939e-12
1.416147544e-09
-7.60384631e-12
1.413676594e-09
-7.895575212e-12
1.407190409e-09
-8.121651189e-12
1.396490837e-09
-8.270509655e-12
1.381358897e-09
-8.331878181e-12
1.361556629e-09
-8.297386588e-12
1.336831282e-09
-8.160860857e-12
1.306918247e-09
-7.91905571e-12
1.271545539e-09
-7.57196037e-12
1.230439061e-09
-7.123037122e-12
1.18332594e-09
-6.579522756e-12
1.129940188e-09
-5.952545515e-12
1.070027297e-09
-5.257003751e-12
1.003348363e-09
-4.511520624e-12
9.296842895e-10
-3.738236787e-12
8.488397732e-10
-2.962541288e-12
7.606463239e-10
-2.212746558e-12
6.649652731e-10
-1.519714998e-12
5.61689617e-10
-9.164681929e-13
4.507455873e-10
-4.377864808e-13
3.320928783e-10
-1.198462918e-13
2.057230635e-10
7.165233969e-11
-1.213897005e-14
5.780422812e-11
-4.766410836e-14
1.691317015e-10
-1.0527715e-13
2.742159822e-10
-1.837628843e-13
3.732941811e-10
-2.819707689e-13
4.66598183e-10
-3.988069783e-13
5.543538783e-10
-5.332786705e-13
6.367809178e-10
-6.845541422e-13
7.140918406e-10
-8.519247296e-13
7.864916413e-10
-1.034879784e-12
8.541770549e-10
-1.233234128e-12
9.173356771e-10
-1.447130714e-12
9.761450814e-10
-1.677070339e-12
1.030771791e-09
-1.923830208e-12
1.081370482e-09
-2.188407941e-12
1.128082956e-09
-2.471848939e-12
1.171037268e-09
-2.775153267e-12
1.210346941e-09
-3.098806132e-12
1.246109712e-09
-3.442775099e-12
1.278406521e-09
-3.806410022e-12
1.307300529e-09
-4.187821102e-12
1.332835226e-09
-4.584228352e-12
1.355033394e-09
-4.991459887e-12
1.373895911e-09
-5.40399279e-12
1.3893997e-09
-5.815036398e-12
1.401497901e-09
-6.216329303e-12
1.410117303e-09
-6.598612559e-12
1.415159798e-09
-6.951460439e-12
1.416500392e-09
-7.264022436e-12
1.413989156e-09
-7.524966621e-12
1.407451353e-09
-7.723361263e-12
1.396689231e-09
-7.848754348e-12
1.38148429e-09
-7.892032217e-12
1.361599907e-09
-7.845729406e-12
1.336784979e-09
-7.704504785e-12
1.306777023e-09
-7.465722932e-12
1.271306757e-09
-7.129606356e-12
1.230102944e-09
-6.699617585e-12
1.182895952e-09
-6.182638754e-12
1.129423209e-09
-5.58910929e-12
1.069433767e-09
-4.932890519e-12
1.002692144e-09
-4.231260292e-12
9.289826593e-10
-3.504730441e-12
8.481132433e-10
-2.776820349e-12
7.599184138e-10
-2.07377847e-12
6.642622313e-10
-1.424260338e-12
5.610400989e-10
-8.589912408e-13
4.501803182e-10
-4.104186241e-13
3.316443057e-10
-1.123973237e-13
2.054250422e-10
7.153994237e-11
-1.19477781e-14
5.781617589e-11
-4.691979653e-14
1.691666735e-10
-1.036603261e-13
2.742727228e-10
-1.810274329e-13
3.733715482e-10
-2.778802354e-13
4.666950358e-10
-3.932429155e-13
5.54469241e-10
-5.261071307e-13
6.36913782e-10
-6.757005811e-13
7.142414341e-10
-8.413148406e-13
7.866572556e-10
-1.022411656e-12
8.543581517e-10
-1.218693227e-12
9.175319587e-10
-1.430117807e-12
9.76356506e-10
-1.656951433e-12
1.030998624e-09
-1.899714467e-12
1.081613245e-09
-2.159098248e-12
1.12834234e-09
-2.435888835e-12
1.171314059e-09
-2.730703747e-12
1.210641756e-09
-3.043747554e-12
1.246422756e-09
-3.374839754e-12
1.278737613e-09
-3.723057808e-12
1.307648747e-09
-4.086456986e-12
1.333198625e-09
-4.462305449e-12
1.355409243e-09
-4.846422791e-12
1.374280029e-09
-5.233633915e-12
1.389786912e-09
-5.617370257e-12
1.401881638e-09
-5.990010872e-12
1.410489944e-09
-6.342817711e-12
1.415512605e-09
-6.666242081e-12
1.416823816e-09
-6.950252643e-12
1.414273167e-09
-7.184521224e-12
1.407685622e-09
-7.35912073e-12
1.396863831e-09
-7.464600942e-12
1.381589771e-09
-7.492839692e-12
1.361628146e-09
-7.437131542e-12
1.336729271e-09
-7.292844093e-12
1.306632735e-09
-7.057818486e-12
1.271071731e-09
-6.732486037e-12
1.229777612e-09
-6.320264182e-12
1.18248373e-09
-5.827697313e-12
1.128930642e-09
-5.264589425e-12
1.068870659e-09
-4.643877115e-12
1.002071432e-09
-3.981642677e-12
9.283204249e-10
-3.296960211e-12
8.474285609e-10
-2.611703849e-12
7.592331575e-10
-1.950309117e-12
6.636008365e-10
-1.339494501e-12
5.604292843e-10
-8.079692398e-13
4.496487929e-10
-3.861302211e-13
3.312224667e-10
-1.057874713e-13
2.051446994e-10
7.143415489e-11
-1.17045295e-14
5.782788042e-11
-4.597132717e-14
1.692009403e-10
-1.016072972e-13
2.743283587e-10
-1.77501857e-13
3.734474427e-10
-2.725832492e-13
4.667901171e-10
-3.85941534e-13
5.545825992e-10
-5.166600507e-13
6.370445005e-10
-6.639366653e-13
7.143887107e-10
-8.271204848e-13
7.868204394e-10
-1.005654172e-12
8.545366854e-10
-1.199169143e-12
9.177254737e-10
-1.407496398e-12
9.765648333e-10
-1.630719339e-12
1.031221847e-09
-1.869127515e-12
1.081851653e-09
-2.123174015e-12
1.128596386e-09
-2.393373484e-12
1.171584259e-09
-2.679976022e-12
1.210928359e-09
-2.983001704e-12
1.246725782e-09
-3.302123506e-12
1.279056735e-09
-3.636130948e-12
1.307982754e-09
-3.983104733e-12
1.333545599e-09
-4.340249091e-12
1.355766387e-09
-4.703516039e-12
1.374643296e-09
-5.067971368e-12
1.390151367e-09
-5.427325572e-12
1.402240992e-09
-5.774506558e-12
1.410837125e-09
-6.101258905e-12
1.415839357e-09
-6.398845328e-12
1.417121403e-09
-6.657920239e-12
1.414532242e-09
-6.869104563e-12
1.407896806e-09
-7.023290847e-12
1.397018017e-09
-7.111935292e-12
1.381678415e-09
-7.127734183e-12
1.361643945e-09
-7.064691358e-12
1.336666228e-09
-6.918746412e-12
1.30648679e-09
-6.688122193e-12
1.270841107e-09
-6.373415132e-12
1.229462904e-09
-5.977969589e-12
1.182088284e-09
-5.508034327e-12
1.128460707e-09
-4.9727976e-12
1.068335423e-09
-4.384373273e-12
1.001483007e-09
-3.757777153e-12
9.276938288e-10
-3.110808834e-12
8.467815925e-10
-2.46388754e-12
7.585862362e-10
-1.839847337e-12
6.629767963e-10
-1.263695908e-12
5.598531329e-10
-7.62360742e-13
4.491474578e-10
-3.64423797e-13
3.308245297e-10
-9.988108061e-14
2.048801567e-10
7.133427381e-11
-1.14143058e-14
5.783929473e-11
-4.484398163e-14
1.6923437e-10
-9.915257058e-14
2.743826673e-10
-1.732621385e-13
3.735215523e-10
-2.662095292e-13
4.668830645e-10
-3.771002176e-13
5.546934899e-10
-5.051464129e-13
6.371725467e-10
-6.495472454e-13
7.145331115e-10
-8.096756066e-13
7.869805678e-10
-9.849990729e-13
8.547120089e-10
-1.175107379e-12
9.17915582e-10
-1.379739378e-12
9.767694653e-10
-1.598834342e-12
1.031440942e-09
-1.832505377e-12
1.082085324e-09
-2.081005822e-12
1.128844887e-09
-2.344511938e-12
1.171847765e-09
-2.623075893e-12
1.211206923e-09
-2.916547512e-12
1.247019253e-09
-3.224350339e-12
1.279364537e-09
-3.54513677e-12
1.308303541e-09
-3.877013284e-12
1.333877475e-09
-4.217053682e-12
1.356106428e-09
-4.561426469e-12
1.374987668e-09
-4.905335828e-12
1.390495276e-09
-5.242840462e-12
1.402578496e-09
-5.567292641e-12
1.411161577e-09
-5.870970307e-12
1.416143035e-09
-6.14579064e-12
1.417396223e-09
-6.383073803e-12
1.414769525e-09
-6.574275504e-12
1.408088008e-09
-6.710976241e-12
1.397154718e-09
-6.785442923e-12
1.381752882e-09
-6.791072327e-12
1.361649574e-09
-6.722479075e-12
1.336597635e-09
-6.576111297e-12
1.306340423e-09
-6.350462291e-12
1.270615458e-09
-6.046265583e-12
1.229158708e-09
-5.666776574e-12
1.181708795e-09
-5.217966472e-12
1.128011896e-09
-4.708453442e-12
1.06782591e-09
-4.149609327e-12
1.000924163e-09
-3.555493733e-12
9.270997132e-10
-2.942769039e-12
8.461688679e-10
-2.330559387e-12
7.579740265e-10
-1.740274723e-12
6.623865117e-10
-1.195401321e-12
5.593082595e-10
-7.212806904e-13
4.486733371e-10
-3.448763902e-13
3.304481254e-10
-9.456264301e-14
2.04629843e-10
7.123971117e-11
-1.108534332e-14
5.785038007e-11
-4.355972785e-14
1.692668444e-10
-9.632862728e-14
2.744354362e-10
-1.683825879e-13
3.735936063e-10
-2.588580203e-13
4.6697354e-10
-3.668763293e-13
5.548015082e-10
-4.917450118e-13
6.372974154e-10
-6.327613147e-13
7.146741278e-10
-7.892852604e-13
7.871370917e-10
-9.608003091e-13
8.548835239e-10
-1.146901409e-12
9.181016831e-10
-1.347261814e-12
9.769698257e-10
-1.561733585e-12
1.031655414e-09
-1.790279334e-12
1.08231387e-09
-2.03290861e-12
1.129087516e-09
-2.289581008e-12
1.172104437e-09
-2.560171656e-12
1.211477513e-09
-2.844401128e-12
1.247303483e-09
-3.141394038e-12
1.27966153e-09
-3.449760265e-12
1.308611907e-09
-3.767583389e-12
1.334195299e-09
-4.091873606e-12
1.356430718e-09
-4.419013065e-12
1.375314808e-09
-4.744283061e-12
1.390820546e-09
-5.062150784e-12
1.402896364e-09
-5.366261347e-12
1.411465687e-09
-5.649436928e-12
1.41642621e-09
-5.904153998e-12
1.41765094e-09
-6.122369105e-12
1.41498774e-09
-6.296229025e-12
1.408261868e-09
-6.417969149e-12
1.397276458e-09
-6.48058871e-12
1.381815501e-09
-6.478013587e-12
1.361646999e-09
-6.405417013e-12
1.336525038e-09
-6.25969305e-12
1.306194699e-09
-6.03952939e-12
1.270395294e-09
-5.745770696e-12
1.228864949e-09
-5.38157391e-12
1.181344598e-09
-4.952620726e-12
1.127582943e-09
-4.467034853e-12
1.067340324e-09
-3.935505063e-12
1.000392633e-09
-3.371228957e-12
9.265354371e-10
-2.789846553e-12
8.455874854e-10
-2.209320586e-12
7.573935006e-10
-1.649785247e-12
6.618269763e-10
-1.133363697e-12
5.587918379e-10
-6.839748041e-13
4.482239482e-10
-3.271273819e-13
3.30091278e-10
-8.973356429e-14
2.043924491e-10
7.114997761e-11
-1.071928955e-14
5.786109936e-11
-4.212330555e-14
1.692982484e-10
-9.317089062e-14
2.744864838e-10
-1.629326205e-13
3.73663368e-10
-2.506047881e-13
4.670612121e-10
-3.553958535e-13
5.549062993e-10
-4.766570661e-13
6.374186766e-10
-6.137841515e-13
7.148112549e-10
-7.661925846e-13
7.872895001e-10
-9.333783561e-13
8.550507097e-10
-1.114924137e-12
9.182832288e-10
-1.310492228e-12
9.771653937e-10
-1.519845974e-12
1.031864768e-09
-1.742805997e-12
1.08253683e-09
-1.979197952e-12
1.129323908e-09
-2.228843263e-12
1.172354082e-09
-2.491479018e-12
1.211740149e-09
-2.76659828e-12
1.247578602e-09
-3.053167018e-12
1.279948099e-09
-3.349790338e-12
1.30890853e-09
-3.654395212e-12
1.334499903e-09
-3.96407518e-12
1.356740398e-09
-4.275342327e-12
1.375626075e-09
-4.583608699e-12
1.391128813e-09
-4.883710348e-12
1.403196466e-09
-5.169531673e-12
1.411751509e-09
-5.434465107e-12
1.416691144e-09
-5.671389751e-12
1.417887865e-09
-5.872888435e-12
1.415189239e-09
-6.031701703e-12
1.408420681e-09
-6.140669856e-12
1.397385426e-09
-6.19343081e-12
1.381868262e-09
-6.184357348e-12
1.361637926e-09
-6.109111537e-12
1.336449793e-09
-5.964942749e-12
1.30605053e-09
-5.750726089e-12
1.270181078e-09
-5.467371867e-12
1.228581595e-09
-5.117936262e-12
1.180995163e-09
-4.707813849e-12
1.127172821e-09
-4.244674339e-12
1.066877184e-09
-3.738581405e-12
9.998865405e-10
-3.201950482e-12
9.259988061e-10
-2.649497005e-12
8.45035032e-10
-2.098135125e-12
7.568421387e-10
-1.566847694e-12
6.612956889e-10
-1.076526949e-12
5.583015172e-10
-6.49805137e-13
4.477972264e-10
-3.10872285e-13
3.297523452e-10
-8.531081657e-14
2.041668877e-10
7.106466679e-11
-1.031625529e-14
5.787141562e-11
-4.054605677e-14
1.693284782e-10
-8.970871847e-14
2.745356465e-10
-1.569662628e-13
3.737306255e-10
-2.415439717e-13
4.671457898e-10
-3.427874146e-13
5.550075428e-10
-4.600544616e-13
6.375359437e-10
-5.928434064e-13
7.149440438e-10
-7.406435342e-13
7.874373003e-10
-9.029992192e-13
8.552130654e-10
-1.079477634e-12
9.184597073e-10
-1.269737381e-12
9.773556535e-10
-1.473459522e-12
1.03206849e-09
-1.690362996e-12
1.082753733e-09
-1.920172985e-12
1.129553718e-09
-2.162564225e-12
1.172596474e-09
-2.417178024e-12
1.211994763e-09
-2.68323974e-12
1.247844664e-09
-2.959661485e-12
1.280224521e-09
-3.245029045e-12