/*--------------------------------*- C++ -*----------------------------------*\
  =========                 |
  \\      /  F ield         | OpenFOAM: The Open Source CFD Toolbox
   \\    /   O peration     | Website:  https://openfoam.org
    \\  /    A nd           | Version:  7
     \\/     M anipulation  |
\*---------------------------------------------------------------------------*/
FoamFile
{
    version     2.0;
    format      ascii;
    class       volScalarField;
    location    "0.003";
    object      rho;
}
// * * * * * * * * * * * * * * * * * * * * * * * * * * * * * * * * * * * * * //

dimensions      [1 -3 0 0 0 0 0];

internalField   nonuniform List<scalar> 
1167
(
936.6789872
936.6057275
936.4486683
936.2165461
935.9144692
935.5468198
935.1177969
934.6312427
934.0910014
933.5008182
932.8641968
932.1845705
931.4652514
930.7095203
929.9203614
929.1008294
928.2538354
927.3824077
926.4890701
925.5765694
924.6476813
923.7047942
922.7506887
921.7877233
920.8186779
919.8458076
918.8718752
917.8992356
916.9304433
915.9678266
915.0137817
914.0704732
913.1399867
912.2242724
936.5584837
936.4852155
936.3281412
936.0960042
935.7940538
935.4264161
934.9975664
934.511211
933.9712049
933.3812504
932.7449524
932.0657477
931.3469257
930.5916924
929.8031045
928.9842199
928.1380623
927.2674648
926.3750588
925.4637447
924.5360916
923.5947434
922.642312
921.6813876
920.7145762
919.7443844
918.7733783
917.8041146
916.838963
915.880409
914.9306504
913.9919676
913.0662391
912.1555063
911.2612733
910.3849707
909.5278589
908.6908208
907.8746867
907.079969
906.3069261
905.555719
904.8263961
904.1187682
903.4325206
902.7672403
902.1224471
901.4975867
900.8920637
900.305222
936.4380054
936.3647303
936.2076443
935.9756007
935.6736798
935.3061809
934.8773892
934.391241
933.8514797
933.261826
932.625882
931.9470824
931.2287308
930.4740223
929.6860423
928.867874
928.022603
927.1528987
926.2615603
925.3514997
924.4252105
923.4855459
922.5349473
921.5762283
920.6118201
919.6444728
918.6765493
917.7107969
916.7493969
915.7949826
914.8495573
913.9155003
912.9944992
912.0886817
911.1993556
910.3280211
909.4757727
908.643515
907.8320779
907.0418646
906.2731656
905.5261329
904.8008413
904.097053
903.4144918
902.7527541
902.111375
901.4898087
900.887472
900.3037148
936.3175571
936.2442768
936.0871828
935.8552672
935.553353
935.1860157
934.7572726
934.2713406
933.7318341
933.1424928
932.5069158
931.8285377
931.1106786
930.3565242
929.5691908
928.7518842
927.9074593
927.0387246
926.1486139
925.2398441
924.3151016
923.3771934
922.4285991
921.472209
920.5103866
919.5459905
918.5813353
917.6191454
916.661656
915.711358
914.7703577
913.8408432
912.924579
912.0235581
911.1390471
910.2725694
909.4250622
908.5974693
907.7905815
907.0047433
906.2402636
905.4973144
904.775917
904.0758663
903.3968969
902.7386136
902.1005657
901.4822148
900.8829888
900.3022433
936.1971433
936.1238599
935.9668746
935.7349795
935.4330786
935.0659102
934.6373538
934.1515175
933.6122765
933.0232599
932.3880645
931.710126
930.9927828
930.2392132
929.4526539
928.6361688
927.7926506
926.9249844
926.0361643
925.1287879
924.2057538
923.2696778
922.3232947
921.3692962
920.4102554
919.4488594
918.4876132
917.5290347
916.5755227
915.629369
914.6927982
913.7678044
912.8562504
911.959934
911.080167
910.2184226
909.375545
908.5525264
907.7500422
906.9684656
906.2080969
905.4691299
904.7515312
904.0551307
903.3796721
902.7247678
902.0899803
901.4747776
900.878598
900.3008021
936.0767687
936.0035564
935.8466313
935.6147433
935.3129758
934.94587
934.5175116
934.0318514
933.4928158
932.9041373
932.2693393
931.5918604
930.8750583
930.1221725
929.3363938
928.5207471
927.6781979
926.8117596
925.9242254
925.0183409
924.0971219
923.1629932
922.2189404
921.2674523
920.3113034
919.353008
918.3952549
917.4403539
916.4908615
915.5488711
914.6167223
913.6962192
912.789322
911.8976397
911.0225669
910.1654197
909.3270694
908.5085188
907.7103339
906.9329184
906.1765656
905.4414914
904.7276092
904.0347833
903.3627657
902.7111756
902.0795874
901.4674752
900.8742867
900.2993869
935.9565617
935.8833585
935.7264379
935.4945634
935.1929604
934.8259011
934.3977509
933.9123322
933.3735399
932.7851427
932.1507525
931.4737692
930.7575989
930.005407
929.2203955
928.4056387
927.564151
926.6989808
925.8128157
924.9086222
923.9892075
923.0571719
922.1155149
921.1666546
920.2134811
919.258385
918.3041777
917.3530244
916.4075586
915.4697505
914.5419946
913.6259458
912.7236494
911.8365307
910.9660686
910.113428
909.2795105
908.4653319
907.6713531
906.8980093
906.1455882
905.4143285
904.704091
904.0147736
903.346136
902.6978037
902.0693619
901.46029
900.8700444
900.2979944
935.8364106
935.7632105
935.6062991
935.3744873
935.073013
934.7060641
934.2780787
933.7929143
933.2544324
932.6664029
932.0324283
931.3559657
930.6403789
929.8888785
929.1046777
928.2908627
927.4505799
926.5866658
925.7019495
924.7995325
923.8820148
922.9522345
922.0129961
921.0669347
920.1167438
919.1649931
918.214307
917.2670015
916.325514
915.3919486
914.4684981
913.556902
912.6591097
911.7764859
910.9105551
910.0623371
909.2327665
908.4228718
907.6330149
906.8636628
906.1151248
905.3875839
904.6809276
903.9950606
903.3297496
902.6846253
902.0592835
901.4532077
900.8658628
900.2966218
935.7163115
935.6431168
935.4862196
935.254571
934.9531386
934.5863875
934.1585017
933.6736054
933.1354498
932.5478055
931.9142791
931.2383494
930.5233759
929.7726043
928.9892588
928.1765058
927.3374203
926.4748311
925.5917119
924.69108
923.7755446
922.8481044
921.9113681
920.9681849
920.0210477
919.0726987
918.1255758
917.1821418
916.2446397
915.3153048
914.3961317
913.488969
912.5955991
911.7174083
910.8559286
910.0120549
909.1867969
908.3810608
907.5952498
906.8298175
906.0850997
905.3612115
904.6580799
903.9756114
903.3135793
902.6716189
902.0493357
901.4462169
900.8617351
900.2952669
935.5962686
935.5230818
935.3662559
935.1347244
934.8333423
934.4667998
934.0390906
933.5544132
933.0166006
932.4293605
931.7963048
931.1209346
930.4066064
929.6566021
928.8741723
928.062569
927.2246896
926.363492
925.4820838
924.5832717
923.6698593
922.7447746
921.8106227
920.8703774
919.9263531
918.9814514
918.0379234
917.0983756
916.1648583
915.239736
914.3248084
913.422033
912.5330291
911.659258
910.8021072
909.9625046
909.1414848
908.3398352
907.5580008
906.7964232
906.0554648
905.3351736
904.6355159
903.9563995
903.2976035
902.6587674
902.0395055
901.4393084
900.8576559
900.293928
935.4762863
935.4031199
935.2464446
935.0149515
934.7136753
934.3473067
933.9198492
933.4353561
932.8978935
932.3110785
931.6785176
931.0037355
930.2900867
929.5408904
928.7595245
927.9490168
927.1124034
926.2527146
925.373034
924.4761141
923.5649355
922.642242
921.7108313
920.7734819
919.832693
918.8912048
917.9513465
917.015641
916.086127
915.1651696
914.254453
913.356018
912.4713247
911.6019105
910.7490223
909.9136224
909.0967721
908.2991425
907.5212213
906.7634389
906.0261845
905.3094399
904.6132099
903.9374034
903.2818047
902.6460568
902.0297824
901.4324749
900.853621
900.2926035
935.3564325
935.2833521
935.1267044
934.895257
934.5941817
934.2279139
933.8007224
933.3165498
932.7793509
932.1929693
931.5609293
930.8867657
930.1738448
929.4256008
928.6452273
927.8358664
927.0005769
926.142517
925.2645722
924.3696193
923.4607341
922.5404958
921.6118817
920.6774765
919.73998
918.8019176
917.8657738
916.9338831
916.0084113
915.0915427
914.1850405
913.2908591
912.4104224
911.5453049
910.6966165
909.8653555
909.0526105
908.2589397
907.4848738
906.7308585
905.9972294
905.2839856
904.5911412
903.9186058
903.2661688
902.6334759
902.0201579
901.4257105
900.8496268
900.2912924
935.2367208
935.1636547
935.0070395
934.7756455
934.4747813
934.1086271
933.6817171
933.1978836
932.661084
932.0751097
931.443599
930.7701037
930.0579896
929.310635
928.5312968
927.7231348
926.8892847
926.0328518
925.156706
924.263881
923.3572519
922.439542
921.5137588
920.58234
919.6481677
918.7135529
917.7811324
916.8530533
915.9316074
915.0188003
914.1165023
913.2265007
912.3502681
911.4893896
910.6448417
909.8176953
909.0089603
908.2191913
907.4489267
906.698633
905.9685767
905.258791
904.5692931
903.8999931
903.2506846
902.6210161
902.0106254
901.4190105
900.8456706
900.2899938
935.1170808
935.0440314
934.8874539
934.6562306
934.3554792
933.9895684
933.5628398
933.0793645
932.5429855
931.9575
931.3265704
930.6537453
929.9424259
929.1960035
928.4177477
927.6108366
926.7785291
925.9237287
925.0494413
924.1588019
923.254484
922.3394349
921.4164509
920.4881099
919.5572283
918.62609
917.6973832
916.7731086
915.8556694
914.9468951
914.0487631
913.162897
912.2908684
911.4341197
910.5936568
909.7705788
908.9657881
908.1798679
907.4133543
906.6667348
905.9402079
905.2338405
904.5476526
903.8815544
903.2353434
902.6086703
902.0011797
901.4123713
900.8417503
900.288707
934.9975164
934.9244861
934.767952
934.5369298
934.2362803
933.8706361
933.4440985
932.9609995
932.4250638
931.8400932
931.2097739
930.5376525
929.8271665
929.0817194
928.3045932
927.4990795
926.6682713
925.8151589
924.942859
924.054382
923.1524278
922.2400866
921.3199433
920.3947486
919.4671388
918.5395584
917.6144913
916.6940559
915.7805556
914.875785
913.9817807
913.1000059
912.2321336
911.3794595
910.5430282
909.7239648
908.9230666
908.1409453
907.3781355
906.6351462
905.9121081
905.2091216
904.5262093
903.8632812
903.2201383
902.596433
901.9918167
901.4057901
900.8378641
900.2874314
934.8780311
934.8050228
934.6486554
934.4177256
934.1171899
933.7518267
933.3256263
932.8427958
932.3073269
931.7228982
931.09322
930.421837
929.7122237
928.9677951
928.1918973
927.387794
926.5585215
925.7071502
924.8369187
923.9506234
923.0511256
922.1414873
921.2242203
920.3021974
919.3778757
918.4538585
917.5324275
916.6158446
915.7062318
914.8054784
913.9155174
913.0377911
912.1740274
911.325378
910.4929275
909.677828
908.880773
908.1024038
907.3432847
906.6038527
905.8842652
905.1846242
904.504955
903.8451667
903.2050639
902.5843002
901.9825331
901.3992645
900.8340108
900.2861666
934.7586291
934.6857223
934.5294645
934.2986226
933.9983201
933.6331463
933.2073016
932.724834
932.1897822
931.605924
930.9769187
930.3063101
929.5976095
928.8542783
928.0796835
927.2769743
926.4492881
925.5997724
924.7315939
923.8475275
922.9505851
922.0436259
921.1293134
920.2104394
919.2894178
918.3689656
917.4511641
916.5384171
915.6326677
914.7359187
913.8499419
912.9762224
912.1165211
911.2718489
910.4433632
909.6321471
908.8388889
908.0642273
907.3087591
906.5728428
905.8566696
905.1603405
904.4838831
903.8272058
903.1901161
902.5722685
901.9733266
901.3927931
900.8301894
900.2849123
934.6394418
934.566566
934.41037
934.1796258
933.879587
933.5146006
933.089131
932.6071032
932.0725074
931.4891793
930.8608798
930.1910825
929.4833916
928.7412251
927.9678953
927.1666288
926.3405778
925.493013
924.6268868
923.7450924
922.8507424
921.9464941
921.0352025
920.1194581
919.2018158
918.2848574
917.3706795
916.4617469
915.5598356
914.6670583
913.7850283
912.9153325
912.0595907
911.2188502
910.3942986
909.5869045
908.7973989
908.0264026
907.2745453
906.5421074
905.8293136
905.1362641
904.4629886
903.8093944
903.1752915
902.5603355
901.9641953
901.3863743
900.8263991
900.2836681
934.5203491
934.4475041
934.2913765
934.0607811
933.7609779
933.3962496
932.9711207
932.4895553
931.9554951
931.372798
930.7452024
930.0762783
929.3695855
928.6285628
927.8565424
927.0567653
926.2324689
925.3868284
924.5227981
923.6434031
922.7515929
921.850085
920.9418367
920.0292374
919.1149957
918.201513
917.2910228
916.3858104
915.4877115
914.5988734
913.7207534
912.8550441
912.0032157
911.1663629
910.345701
909.5420855
908.7562904
907.9889243
907.2406342
906.5116389
905.8021913
905.1123904
904.4422677
903.7917294
903.1605879
902.5484993
901.9551378
901.3800074
900.8226395
900.2824341
934.4013519
934.3285408
934.1724884
933.9421357
933.6424982
933.2781204
932.8532768
932.3721971
931.8386995
931.256665
930.629829
929.9617961
929.2561366
928.5163
927.7456331
926.9473931
926.1249289
925.2812216
924.4193289
923.5423796
922.6531347
921.7544561
920.8492017
919.9397612
919.0289243
918.1189131
917.212098
916.3105864
915.4163385
914.5313429
913.6570972
912.7953348
911.9473787
911.1143715
910.2975563
909.4976779
908.7155529
907.9518108
907.2070188
906.4814317
905.7752979
905.0887155
904.4217174
903.7742086
903.1460034
902.5367585
901.9461531
901.3736916
900.8189099
900.2812099
934.2824544
934.2096806
934.0537592
933.823611
933.5241532
933.1601435
932.7356672
932.2550351
931.7221276
931.1407861
930.5147436
929.8476393
929.1430533
928.4044455
927.6351769
926.8386219
926.017925
925.1761941
924.3165386
923.4420109
922.555362
921.6595662
920.7572865
919.851069
918.9435851
918.0370402
917.1338864
916.2360558
915.3456375
914.4644484
913.5940467
912.7361886
911.8920655
911.0628976
910.249852
909.4536711
908.6751776
907.9150222
907.1736931
906.451481
905.7486299
905.0652366
904.4013355
903.7568301
903.1315368
902.5251122
901.9372405
901.3674264
900.8152103
900.2799955
934.1636613
934.0909376
933.9352209
933.7052119
933.4059918
933.0423251
932.6183035
932.1380764
931.6057862
931.025169
930.3999543
929.7338159
929.0303436
928.2930064
927.5252487
926.7303503
925.9114617
925.0717476
924.2144083
923.342293
922.4582676
921.5653738
920.6660821
919.7631239
918.8589638
917.9559253
917.0563713
916.1622015
915.2755864
914.3981737
913.5316357
912.6775912
911.8372631
911.0119088
910.2025783
909.4100566
908.6351574
907.8785527
907.1406525
906.4217833
905.7221844
905.0419515
904.3811205
903.7395929
903.1171871
902.5135596
901.9283996
901.3612115
900.8115404
900.2787909
934.0450347
933.9724219
933.8168022
933.5869438
933.2880621
932.9246704
932.5011246
932.0214483
931.4896824
930.9098209
930.2854686
929.6203336
928.9180143
928.1820511
927.415823
926.6225828
925.8055431
924.967933
924.1128922
923.2432192
922.3619333
921.4718728
920.57558
919.6758851
918.7750471
917.8755351
916.9795375
916.0890308
915.2061703
914.3325043
913.4697964
912.6195301
911.7829597
910.9613807
910.1557274
909.3668281
908.5955031
907.8423972
907.107893
906.3923354
905.6959592
905.0188587
904.361071
903.7224961
903.1029538
902.5021005
901.91963
901.3550468
900.8079
900.2775961
924.8647519
924.011988
923.1447862
922.2662656
921.3790555
920.4858302
919.5893404
918.6918223
917.7958273
916.9033712
916.0165555
915.1373756
914.2674271
913.4085166
912.561994
911.7291457
910.911305
910.1092927
909.32398
908.5562134
907.8065518
907.0754117
906.3631352
905.6699526
904.9959569
904.3411864
903.7055392
903.0888364
902.4907346
901.9109316
901.348932
900.8042892
900.2764109
)
;

boundaryField
{
    front_top
    {
        type            wedge;
    }
    front_middle
    {
        type            wedge;
    }
    front_bottom
    {
        type            wedge;
    }
    back_top
    {
        type            wedge;
    }
    back_middle
    {
        type            wedge;
    }
    back_bottom
    {
        type            wedge;
    }
    axis_top
    {
        type            symmetryPlane;
    }
    axis_middle
    {
        type            symmetryPlane;
    }
    axis_bottom
    {
        type            symmetryPlane;
    }
    wall_top
    {
        type            calculated;
        value           nonuniform 0();
    }
    wall_middle
    {
        type            calculated;
        value           nonuniform 0();
    }
    wall_bottom
    {
        type            calculated;
        value           uniform 900.0184441;
    }
    inlet
    {
        type            calculated;
        value           nonuniform 0();
    }
    outlet
    {
        type            calculated;
        value           nonuniform 0();
    }
    procBoundary1to0
    {
        type            processor;
        value           nonuniform List<scalar> 
51
(
933.9265883
933.8540231
933.698508
933.4688115
933.1702833
932.8071853
932.3841368
931.9050371
931.373947
930.7947893
930.1713094
929.5072315
928.8061585
928.0715747
927.3068645
926.5153232
925.7001717
925.7001717
924.7621519
923.9116955
923.0470408
922.1712559
921.286913
920.3967956
919.5034799
918.6093071
917.7167888
916.8278593
915.9447139
915.0691898
914.2029528
913.3477857
912.5049734
911.6758581
910.8616746
910.063268
909.2815071
908.5172642
907.7710139
907.0432066
906.334181
905.6441636
904.9732455
904.3214662
903.6887217
903.0748349
902.4794617
901.9023043
901.3428673
900.8007079
900.2752354
)
;
    }
    procBoundary1to2
    {
        type            processor;
        value           nonuniform List<scalar> 
51
(
936.7995903
936.7262614
936.5692205
936.3371174
936.0349193
935.6672641
935.2380743
934.7513286
934.2109775
933.6205305
932.983579
932.3035728
931.5838041
930.8274947
930.0378008
929.2176677
928.3700049
927.4977142
926.6035388
925.6899946
924.759977
923.8157819
922.8601018
921.895356
920.9241863
919.948871
918.9721613
917.996313
917.0240225
916.0574499
915.0991882
914.1512791
913.2160192
912.2952644
911.3250392
911.3250392
910.4436499
909.5815411
908.7395785
907.9185976
907.1192275
906.3416971
905.5861788
904.8526954
904.1411083
903.4510628
902.7821357
902.1338303
901.5055825
900.8967838
900.3067712
)
;
    }
}


// ************************************************************************* //
