/*--------------------------------*- C++ -*----------------------------------*\
  =========                 |
  \\      /  F ield         | OpenFOAM: The Open Source CFD Toolbox
   \\    /   O peration     | Website:  https://openfoam.org
    \\  /    A nd           | Version:  7
     \\/     M anipulation  |
\*---------------------------------------------------------------------------*/
FoamFile
{
    version     2.0;
    format      ascii;
    class       volScalarField;
    location    "0.003";
    object      T;
}
// * * * * * * * * * * * * * * * * * * * * * * * * * * * * * * * * * * * * * //

dimensions      [0 0 0 1 0 0 0];

internalField   nonuniform List<scalar> 
1167
(
455.2237971
455.3350306
455.5735594
455.9262345
456.3854573
456.9447647
457.597996
458.3395503
459.1638339
460.0654077
461.0392003
462.0802421
463.1837396
464.3449339
465.5595049
466.8230061
468.1311908
469.4796075
470.8645598
472.2819809
473.7277307
475.1982426
476.6893097
478.1973527
479.7181015
481.2480757
482.7829654
484.3190684
485.8523349
487.3790399
488.8953197
490.3976477
491.8825961
493.3469276
455.4067723
455.5180475
455.7566607
456.109449
456.5685976
457.1280311
457.7811667
458.5226086
459.3467448
460.2482004
461.2217474
462.2624092
463.3654247
464.5261485
465.7401474
467.0029682
468.3101882
469.6576553
471.0415051
472.4574299
473.9016077
475.3700718
476.8588748
478.364072
479.8816614
481.4077641
482.9383749
484.4694691
485.9972842
487.5178428
489.0275913
490.5228167
492.0004182
493.4570111
494.8900475
496.2970811
497.6759239
499.0249844
500.3427489
501.6282125
502.8807797
504.1000152
505.2856686
506.437881
507.5570045
508.643559
509.6981827
510.7216437
511.7147864
512.678564
455.5897564
455.7010706
455.9397631
456.2925002
456.751722
457.3110882
457.9643034
458.7056198
459.5295938
460.4308206
461.4040747
462.4443811
463.5469552
464.7071661
465.9205354
467.1825686
468.4887449
469.8351634
471.2176979
472.6320198
474.0744223
475.5406092
477.0268958
478.5289846
480.0431434
481.5651071
483.0911853
484.6170488
486.1392288
487.6535095
489.1566432
490.6447566
492.115051
493.5640025
494.9893767
496.3886158
497.7597991
499.1013017
500.411612
501.6899033
502.9355309
504.1480759
505.3272475
506.4732679
507.5864286
508.6672361
509.7163054
510.7343922
511.7223225
512.6810408
455.772742
455.8840927
456.1228587
456.4754921
456.9348219
457.4940857
458.1473948
458.8885719
459.7123682
460.613348
461.586289
462.6262142
463.7283124
464.8879649
466.100644
467.361664
468.6668578
470.0121077
471.3930764
472.805735
474.2460742
475.7098667
477.1933647
478.6921465
480.2025824
481.7202326
483.2414784
484.7620226
486.2783074
487.7863394
489.282704
490.7638294
492.2267934
493.6682854
495.0861373
496.4777541
497.8414684
499.1755937
500.4786835
501.7500075
502.9888936
504.1948927
505.3678028
506.5077951
507.6151456
508.6903488
509.7339984
510.7468393
511.7296807
512.6834591
455.9557221
456.0671064
456.3057685
456.6584613
457.1178889
457.6770394
458.3302316
459.0714529
459.8950548
460.7957687
461.7683738
462.8078896
463.9094751
465.0685214
466.280313
467.5403803
468.8444965
470.188423
471.5677259
472.9785593
474.4165803
475.8778562
477.3582375
478.8536091
480.3600089
481.8732623
483.3894469
484.9045874
486.4148638
487.9165946
489.4061752
490.88034
492.3360086
493.7701817
495.1806186
496.5648051
497.9212244
499.2481138
500.5442139
501.8087505
503.0410675
504.2406824
505.4074841
506.5415888
507.6432597
508.7129806
509.7513253
510.7590297
511.7368872
512.6858276
456.1386899
456.2499945
456.4886265
456.8413991
457.3007418
457.8599405
458.5129985
459.2541411
460.0776401
460.9780672
461.9503116
462.989387
464.0904206
465.2487073
466.4596
467.7186873
469.0216281
470.3639823
471.7416246
473.1504766
474.5860099
476.0445859
477.5216598
479.01343
480.515615
482.0243074
483.5352918
485.0449174
486.5491114
488.0445038
489.527305
490.9945501
492.4430018
493.869962
495.2730577
496.6500272
497.9993114
499.3191316
500.6084066
501.8663153
503.0922145
504.2855877
505.4464125
506.5747512
507.6708551
508.7351986
509.7683374
510.7709992
511.7439634
512.6881533
456.3214498
456.4327692
456.6714556
457.0242984
457.4835086
458.0427799
458.6956879
459.4366517
460.2599896
461.1602162
462.1320837
463.1706627
464.271004
465.4285146
466.6385279
467.8965546
469.1981751
470.5388927
471.9147427
473.321301
474.7543599
476.2100047
477.6836641
479.1716441
480.6694776
482.1734478
483.6791425
485.1831354
486.6812293
488.1702463
489.6463078
491.1066844
492.5480027
493.9678569
495.36374
496.7336329
498.0759296
499.3888315
500.6714288
501.9228511
503.1424663
504.3297232
505.4846861
506.6073648
507.6979998
508.7570572
509.7850759
510.7827769
511.7509263
512.6904417
456.5041716
456.6155149
456.8542486
457.2070866
457.6662185
458.2254652
458.8782892
459.6190543
460.4421283
461.3420216
462.3134994
463.3515426
464.4512651
465.608002
466.8170677
468.0739522
469.3740289
470.713126
472.0870578
473.4911863
474.9216231
476.374079
477.8442841
479.3282006
480.8216657
482.3206778
483.8211155
485.3193114
486.811375
488.2939144
489.763369
491.2168737
492.6512068
494.06406
495.4528526
496.8157995
498.1512431
499.4573651
500.7334173
501.9784799
503.1918879
504.3731814
505.522384
506.6394962
507.7247485
508.7786
509.8015742
510.7943862
511.7577897
512.6926974
456.6868612
456.7982249
457.0369983
457.3896783
457.8488643
458.4079527
459.0607919
459.801337
460.6241223
461.5236553
462.4946927
463.5321806
464.6312375
465.7871425
466.9951908
468.2507456
469.5492882
470.8866563
472.2584367
473.6601189
475.0877973
476.5369281
478.0035436
479.4832672
480.9722472
482.466207
483.9613157
485.4536709
486.9396872
488.4157621
489.8786484
491.3253063
492.7527797
494.1587256
495.540552
496.8966747
498.2253162
499.5248571
500.7944843
502.0333011
503.2406014
504.4160375
505.5595703
506.6711989
507.7511452
508.7998621
509.8178589
510.8058456
511.7645647
512.6949241
456.8695122
456.9808926
457.2196186
457.5722108
458.0314377
458.5903514
459.2430879
459.983488
460.8059585
461.7051014
462.6756636
463.7125547
464.8108959
465.9659087
467.1728449
468.4269329
469.7239259
471.0594592
472.4289086
473.8280874
475.2527842
476.6985618
478.1614549
479.6368871
481.1212838
482.610114
484.099838
485.5863234
487.0662876
488.5359209
489.9922841
491.4321635
492.8528621
494.2519173
495.6269691
496.9763812
498.2983371
499.5914103
500.8547216
502.0873959
503.2886852
504.4583523
505.5962965
506.7025163
507.7772255
508.8208718
509.8339514
510.8171703
511.7712601
512.6971246
457.052118
457.1634957
457.4020537
457.7546777
458.2138609
458.7726523
459.4251716
460.1654789
460.9876236
461.8863441
462.8563933
463.8926429
464.990215
466.1442716
467.3498655
468.6025685
469.8979171
471.2314316
472.5985213
473.9950809
475.4166198
476.8589844
478.3179046
479.7891068
481.2687224
482.7524709
484.2366865
485.7173661
487.1912432
488.6545052
490.1043951
491.5375656
492.9515733
494.3438341
495.7122136
497.0550214
498.3703995
499.6571092
500.9142047
502.1408304
503.3361967
504.5001751
505.6326045
506.7334832
507.8030177
508.8416518
509.849869
510.8283722
511.7778829
512.6993012
457.2345749
457.3458502
457.5844272
457.9370719
458.3960663
458.9548468
459.6071266
460.3471328
461.1690832
462.0673678
463.0368633
464.072424
465.1691515
466.3220281
467.5263883
468.7776253
470.0712378
471.4025446
472.767259
474.1610798
475.5793642
477.0182118
478.4730681
479.9399597
481.4146996
482.8933419
484.371973
485.8468852
487.3146079
488.7716144
490.2150205
491.6416159
493.0490145
494.4345733
495.7963774
497.1326803
498.4415804
499.7220228
500.9729938
502.1936145
503.3831834
504.5415464
505.6685282
506.7641277
507.8285449
508.8622201
509.8656254
510.839461
511.784439
512.7014559
457.4168622
457.5281442
457.7667328
458.1193863
458.5781762
459.136926
459.7889424
460.5286186
461.3501666
462.2480546
463.2169828
464.2517769
465.3475371
466.4993291
467.7023881
468.9520767
470.2437721
471.5728714
472.9351096
474.3259375
475.7410216
477.1762338
478.6269683
480.0894784
481.5592877
483.0327844
484.5058121
485.9749566
487.436546
488.8873352
490.324269
491.7444022
493.1452716
494.5242169
495.8795373
497.209371
498.511944
499.7862084
501.0311398
502.2458272
503.4296825
504.5824977
505.7040944
506.7944721
507.8538252
508.8825912
509.8812316
510.8504444
511.7909327
512.70359
457.5990867
457.7103719
457.9489641
458.3014475
458.7601827
459.3187035
459.9706088
460.7099255
461.5310381
462.4284039
463.3966843
464.4307079
465.5255181
466.6761585
467.8778416
469.1258996
470.4155156
471.7423962
473.1020628
474.4898047
475.9015991
477.3329647
478.7796223
480.2376029
481.7025295
483.1708302
484.6382647
486.1016477
487.5571293
489.0017422
490.43226
491.8459977
493.2403339
494.6128365
495.961759
497.2851947
498.5815435
499.8497132
501.0886845
502.2975133
503.4757236
504.6230546
505.7393244
506.824534
507.8788729
508.9027764
509.896696
510.8613282
511.7973676
512.7057049
457.781243
457.8925273
458.1311144
458.4833813
458.942078
459.5003344
460.1521137
460.8910427
461.7116845
462.6084875
463.5760745
464.6092751
465.7030744
466.8524952
468.052728
469.2989267
470.5865278
471.9111013
473.2679924
474.6526809
476.0611
477.4885411
478.9310529
480.3843917
481.8444606
483.307432
484.7693852
486.2269471
487.6764237
489.1149019
490.5390602
491.9464688
493.3343441
494.7004892
496.0430963
497.3602174
498.6504231
499.9125763
501.1456613
502.3487014
503.5213311
504.6632372
505.7742349
506.8543274
507.9036993
508.9227846
509.9120255
510.8721173
511.8037465
512.7078012
457.9633251
458.0746044
458.3129983
458.6652142
459.1238543
459.6818236
460.3332533
461.0719589
461.8920934
462.7882914
463.755137
464.78746
465.880187
467.0283201
468.2269481
469.4712652
470.7567926
472.0789737
473.4329603
474.814562
476.2194573
477.6429779
479.0812836
480.5299362
481.9851172
483.4427463
484.8992192
486.350934
487.7944825
489.2268002
490.6447294
492.0458729
493.4273601
494.7872242
496.1235942
497.4344798
498.718619
499.9748291
501.2020474
502.3994147
503.5665244
504.7030618
505.8088396
506.883863
507.928313
508.9426226
509.9272251
510.8828151
511.8100714
512.7098799
458.1453269
458.2564799
458.4947675
458.846939
459.30534
459.863162
460.5142133
461.2525506
462.0722531
462.9678017
463.933856
464.9652452
466.0568369
467.2035589
468.4004649
469.6429234
470.9262965
472.2459042
473.5970071
474.9754452
476.3766582
477.7962916
479.2302644
480.6742623
482.1245319
483.5768111
485.0278097
486.4736993
487.9113536
489.3375266
490.7493166
492.1442582
493.5194274
494.8730833
496.203239
497.5080157
498.786161
500.0364976
501.2579114
502.4496718
503.6113191
504.7425412
505.8431487
506.9131495
507.952721
508.9622958
509.9422989
510.8934245
511.8163441
512.7119414
458.3270477
458.4381817
458.6764359
459.0285481
459.4866631
460.0443404
460.6949833
461.4328341
462.2520446
463.1470048
464.1122163
465.1426138
466.2329192
467.3781246
468.5733654
469.8138877
471.0950281
472.4119118
473.7601291
475.1353328
476.532802
477.9484942
479.3780259
480.817395
482.2626242
483.7096614
485.1551903
486.5952842
488.0270801
489.4471565
490.8528631
492.2415719
493.6105842
494.9581018
496.2820896
497.5808534
498.8530736
500.0976028
501.3132753
502.4994877
503.6557275
504.7816856
505.8771706
506.9421933
507.9769284
508.9818082
509.9572498
510.9039475
511.8225657
512.713986
458.5086706
458.619786
458.8579965
459.2099712
459.6678428
460.2252674
460.8755539
461.6128831
462.4314787
463.3256949
464.2900652
465.3193743
466.4084098
467.5521289
468.745634
469.9841458
471.2628656
472.5770637
473.9223242
475.2940913
476.6878951
478.0995964
479.5246475
480.9593592
482.3995097
483.8413291
485.2812826
486.7157258
488.1417
489.5557274
490.9554052
492.3379369
493.7008629
495.0423095
496.3601979
497.6530162
498.919377
500.1581536
501.3681533
502.5488741
503.6997592
504.8205026
505.9109114
506.9709995
508.0009391
509.0011629
509.9720802
510.9143858
511.8287372
512.7160142
458.6901941
458.8012861
459.0394425
459.3911361
459.848871
460.405901
461.0559154
461.7926867
462.6106254
463.5040481
464.4674909
465.4956827
466.5833924
467.7255582
468.9172573
470.1536825
471.4298588
472.7413545
474.0835902
475.451845
476.84194
478.2495068
479.6701508
481.1001794
482.5352406
483.9718442
485.4062381
486.8350569
488.2551439
489.6632722
491.0569745
492.4333889
493.7902911
495.1257313
496.4375864
497.7245236
498.9850879
500.2181198
501.4225571
502.5978403
503.7434218
504.8589984
505.9443759
506.9995719
508.0247561
509.020362
509.9867917
510.9247404
511.8348593
512.7180261
458.8716116
458.9826751
459.220692
459.5721628
460.0297392
460.5863473
461.2359638
461.972235
462.7894738
463.6820554
464.6445174
465.6715331
466.7578535
467.8983985
469.0882204
470.3223273
471.596058
472.9047812
474.2438338
475.6086105
476.9949447
478.3982895
479.8145524
481.2397927
482.6698417
484.1012338
485.5300855
486.9533075
488.3675371
489.7698196
491.1575913
492.5279531
493.8788912
495.2083321
496.5142752
497.7953926
499.0502203
500.2775659
501.4764958
502.6463939
503.786721
504.8971775
505.9775676
507.027913
508.0483814
509.0394071
510.0013853
510.9350122
511.8409323
512.7200218
459.0529162
459.1639312
459.4016962
459.7530434
460.2103724
460.7665968
461.4156809
462.1515166
462.9680132
463.8597048
464.8211321
465.8469127
466.9317806
468.0706384
469.2584067
470.4902369
471.7614557
473.0673408
474.4030839
475.7643931
477.1469202
478.5460089
479.9578658
481.3782566
482.8033354
484.2294483
485.6528509
487.0705039
488.4789142
489.8753952
491.2572012
492.6216519
493.9666837
495.2901636
496.5902798
497.8656365
499.1147856
500.3365011
501.529977
502.6945407
503.8296616
504.9350433
506.0104892
507.0560249
508.0718165
509.0582992
510.015862
510.9452017
511.8469566
512.7220015
459.2340124
459.3448864
459.5825635
459.9337698
460.3906971
460.9466411
461.5951604
462.3303364
463.1462325
464.0369849
464.997323
466.0218098
467.1051626
468.2421716
469.4278551
470.6574036
471.9260449
473.2289532
474.561411
475.9192029
477.2977375
478.6926739
480.1001038
481.5156346
482.9357417
484.3565396
485.7745577
487.1866341
488.5892986
489.9800219
491.3559121
492.7145051
494.053687
495.3712648
496.6656122
497.9352655
499.1787662
500.3949336
501.5830069
502.7422855
503.8722469
504.9725984
506.0431425
507.0839089
508.0950622
509.0770391
510.0302221
510.9553091
511.8529323
512.7239653
473.3896153
474.7188184
476.0730443
477.4475423
478.8382959
480.2411868
481.6519453
483.0670801
484.4825741
485.8952273
487.301679
488.6987115
490.0837197
491.453743
492.8065302
494.1399167
495.4516487
496.7402832
498.0042881
499.2421641
500.4528696
501.6355904
502.7896318
503.9144796
505.0098447
506.0755288
507.1115659
508.1181193
509.0956272
510.0444659
510.9653346
511.8588597
512.7259131
)
;

boundaryField
{
    front_top
    {
        type            wedge;
    }
    front_middle
    {
        type            wedge;
    }
    front_bottom
    {
        type            wedge;
    }
    back_top
    {
        type            wedge;
    }
    back_middle
    {
        type            wedge;
    }
    back_bottom
    {
        type            wedge;
    }
    axis_top
    {
        type            symmetryPlane;
    }
    axis_middle
    {
        type            symmetryPlane;
    }
    axis_bottom
    {
        type            symmetryPlane;
    }
    wall_top
    {
        type            convectiveRadiativeHeatFlux;
        mode            convectiveRadiative;
        kappaMethod     fluidThermo;
        kappa           none;
        alphaAni        Anialpha;
        h               nonuniform 0();
        Ta              constant 513.15;
        emissivityNozzle 0.95;
        emissivityFilament 0.95;
        dNozzle         2;
        dFilament       1.65;
        refValue        nonuniform 0();
        refGradient     nonuniform 0();
        valueFraction   nonuniform 0();
        value           nonuniform 0();
    }
    wall_middle
    {
        type            fixedValue;
        value           nonuniform 0();
    }
    wall_bottom
    {
        type            fixedValue;
        value           uniform 513.15;
    }
    inlet
    {
        type            fixedValue;
        value           nonuniform 0();
    }
    outlet
    {
        type            zeroGradient;
    }
    procBoundary1to0
    {
        type            processor;
        value           nonuniform List<scalar> 
51
(
459.4148796
459.525709
459.7632866
460.1143342
460.5708366
461.1264715
461.774392
462.5088681
463.3239305
464.2138222
465.1730548
466.1961632
467.2778555
468.4130051
469.5966197
470.8238211
472.0898212
472.0898212
473.5494082
474.8753055
476.2258434
477.5963477
478.9828882
480.381173
481.7872038
483.1973223
484.6075719
486.0148799
487.415736
488.8071721
490.1864714
491.5507106
492.8977424
494.2253128
495.5313267
496.8143024
498.072713
499.3050179
500.510313
501.6877306
502.8365821
503.9563615
505.0467833
506.1076489
507.1389963
508.1409879
509.1140635
510.0585935
510.9752783
511.8647386
512.727845
)
;
    }
    procBoundary1to2
    {
        type            processor;
        value           nonuniform List<scalar> 
51
(
455.0407177
455.1520277
455.3904675
455.7430227
456.2023114
456.7614836
457.4148008
458.1564563
458.9806957
459.882441
460.856489
461.8978465
463.0017523
464.16354
465.3786268
466.6427361
467.9516255
469.3010409
470.6869483
472.1056413
473.5527959
475.0249921
476.5181634
478.0286391
479.5523691
481.0858409
482.6247671
484.1656065
485.7040897
487.2367624
488.7594527
490.2688335
491.7611437
493.2332981
494.7877676
494.7877676
496.2027783
497.5894886
498.946333
500.2717883
501.5646586
502.8243942
504.0505385
505.2428809
506.4014777
507.5267438
508.6192139
509.6795513
510.7085384
511.7070396
512.6760179
)
;
    }
}


// ************************************************************************* //
