/*--------------------------------*- C++ -*----------------------------------*\
  =========                 |
  \\      /  F ield         | OpenFOAM: The Open Source CFD Toolbox
   \\    /   O peration     | Website:  https://openfoam.org
    \\  /    A nd           | Version:  7
     \\/     M anipulation  |
\*---------------------------------------------------------------------------*/
FoamFile
{
    version     2.0;
    format      ascii;
    class       volScalarField;
    location    "0.003";
    object      thermo:mu;
}
// * * * * * * * * * * * * * * * * * * * * * * * * * * * * * * * * * * * * * //

dimensions      [1 -1 -1 0 0 0 0];

internalField   nonuniform List<scalar> 
1167
(
62962.71049
62423.94964
61286.80032
59649.80109
57594.70811
55203.22586
52556.65548
49731.40593
46798.60042
43821.51554
40853.86059
37940.35033
35116.60137
32410.02126
29839.68687
27418.64014
25154.10759
23049.17144
21102.18863
19309.46131
17665.32166
16162.0533
14791.73459
13545.31941
12414.15556
11389.01606
10461.48529
9623.08489
8865.987943
8182.700099
7566.339233
7010.444177
6509.096741
6056.879115
62079.34272
61549.255
60430.40037
58819.70608
56798.44678
54445.18708
51841.57055
49061.77798
46175.76258
43245.5134
40324.3356
37456.16636
34675.91952
32010.31192
29478.42644
27093.13778
24861.88004
22787.21018
20867.84179
19100.45596
17479.08693
15996.59268
14644.90148
13415.42239
12299.39831
11288.01232
10372.75185
9545.444542
8798.214991
8123.802171
7515.292896
6966.409744
6471.219656
6024.457581
5621.144345
5256.820785
4927.464275
4629.384914
4359.320089
4114.304326
3891.667606
3689.048799
3504.353359
3335.691579
3181.382362
3039.932914
2910.020699
2790.469636
2680.23709
2578.392738
61210.47117
60688.90925
59588.03765
58003.89268
56015.18135
53700.22526
51138.05593
48402.92853
45562.89329
42678.96759
39803.53263
36979.7886
34242.14463
31616.8644
29122.84894
26772.86301
24574.39241
22529.57086
20637.57414
18895.15458
17296.31583
15834.38128
14501.12941
13288.40491
12187.35078
11189.5476
10286.38793
9469.99637
8732.454763
8066.731664
7465.892205
6923.834772
6434.625552
5993.149603
5594.431396
5234.13624
4908.257635
4613.193253
4345.746924
4102.977617
3882.278882
3681.33176
3498.086174
3330.672332
3177.445803
3036.938292
2907.849101
2789.019324
2679.421522
2578.137271
60355.85975
59842.67955
58759.48619
57201.62209
55244.70596
52967.47984
50445.93942
47754.70019
44959.85048
42121.45391
39290.9841
36510.92451
33815.19312
31229.60938
28772.89629
26457.9649
24291.55694
22276.2011
20411.37891
18693.49684
17117.03656
15675.33502
14360.35492
13164.15746
12077.92573
11093.48373
10202.29326
9396.582352
8668.599402
8011.325597
7418.01728
6882.566287
6399.196804
5962.825225
5568.558406
5212.160733
4889.644284
4597.498045
4332.5768
4091.979111
3873.15511
3673.833596
3491.986619
3325.784037
3173.609665
3034.01858
2905.73093
2787.604202
2678.62551
2577.887865
59515.27469
59010.33513
57945.27887
56412.47894
54486.81617
52246.65931
49765.78124
47116.93779
44366.49442
41572.84765
38786.58255
36049.48305
33394.98741
30848.48034
28428.76688
26148.11763
24013.32982
22027.10706
20189.06184
18495.42353
16941.15418
15519.3721
14222.54612
13042.57804
11971.04182
10999.69165
10120.31001
9325.059247
8606.452242
7957.441627
7371.487286
6842.475468
6364.798951
5933.375703
5543.435969
5190.808779
4871.55046
4582.240375
4319.756654
4081.264752
3864.260138
3666.518171
3486.031217
3321.008163
3169.859613
3031.163
2903.658443
2786.219134
2677.846183
2577.643626
58688.48497
58192.13668
57144.54231
55636.25429
53742.00924
51537.57386
49096.66631
46489.86024
43782.68772
41033.02819
38290.22444
35595.37662
32981.45338
30473.62712
28090.23562
25843.27507
23739.6708
21782.37699
19970.56987
18300.87681
16768.52363
15366.41704
14087.51543
12923.56356
11866.51261
10908.05324
10040.2817
9255.30023
8545.881817
7904.956
7326.184224
6803.452045
6331.319467
5904.70974
5518.99062
5170.009118
4853.91479
4567.359003
4307.243402
4070.798789
3855.564661
3659.361471
3480.200989
3316.32975
3166.18408
3028.362859
2901.625399
2784.859984
2677.081229
2577.403833
57876.09475
57387.75221
56356.92365
54872.73637
53009.51002
50840.03934
48438.41484
45873.20648
43208.67224
40501.91068
37801.80941
35148.5752
32574.78914
30104.94201
27757.15092
25543.39052
23470.60636
21541.77256
19755.86041
18109.98814
16599.07754
15216.44954
13955.17494
12807.0313
11764.23486
10818.47355
9962.096171
9187.208004
8486.776409
7853.768813
7282.006092
6765.401318
6298.672028
5876.749714
5495.137869
5149.703089
4836.686911
4552.811467
4295.001676
4060.552045
3847.044858
3652.344268
3474.480584
3311.736712
3162.573731
3025.611149
2899.626767
2783.523419
2676.328785
2577.167906
57077.07301
56596.54855
55582.20695
54121.98211
52288.96937
50154.18273
47790.86061
45266.54318
42644.17676
39979.88419
37321.68903
34709.35878
32174.77076
29742.18512
27429.46009
25248.41621
23206.20547
21305.24747
19544.88186
17922.50843
16432.75452
15069.43359
13825.4383
12692.96331
11664.11426
10730.91137
9885.652234
9120.71443
8429.037482
7803.818348
7238.864631
6728.262932
6266.783232
5849.430341
5471.820781
5129.841722
4819.825457
4538.562815
4283.00245
4050.500672
3838.688452
3645.450961
3468.857574
3307.219286
3159.021037
3022.902222
2897.658498
2782.206757
2675.587351
2576.935377
56291.14261
55818.30712
54820.17995
53384.08672
51580.1912
49479.93567
47153.83872
44669.72163
42088.81488
39466.28012
36849.34799
34277.20766
31781.19488
29385.29587
27107.10967
24958.4741
22946.22476
21072.7528
19337.71633
17738.37997
16269.48939
14925.19896
13698.23016
12581.18489
11566.06042
10645.20067
9810.858116
9055.678395
8372.577975
7754.980213
7196.683376
6691.958867
6235.590613
5822.698917
5448.991577
5110.38411
4803.31198
4524.58422
4271.221898
4040.625176
3830.473642
3638.668879
3463.321898
3302.769585
3155.519931
3020.231532
2895.717334
2780.907842
2674.855724
2576.705872
55518.08538
55052.81245
54070.9549
52658.2495
50882.98481
48816.67471
46527.51901
44082.59317
41542.45294
38960.98279
36384.63724
33852.03839
31393.99187
29034.21384
26790.08722
24673.46325
22690.61443
20844.23753
19134.24728
17557.54405
16109.31182
14783.6773
13573.48639
12471.61652
11469.99015
10561.25743
9737.630595
8992.019102
8317.320796
7707.182289
7155.395975
6656.415573
6205.040861
5796.529364
5426.610077
5091.296064
4787.10098
4510.851829
4259.640414
4030.909592
3822.386276
3631.987728
3457.865407
3298.38124
3152.065519
3017.595422
2893.800658
2779.624944
2674.132938
2576.479089
54757.6869
54299.9157
53334.50504
51944.26928
50197.4229
48164.22377
45911.70884
43505.06372
41004.95918
38463.87722
35927.45812
33433.76752
31013.09184
28688.88091
26478.57373
24393.19595
22439.32109
20619.75332
18934.34027
17379.94266
15952.12027
14644.8071
13451.24247
12364.17884
11375.8957
10479.00413
9665.936382
8929.664088
8263.214984
7660.361292
7114.944741
6621.581401
6175.088421
5770.858512
5404.64239
5072.548934
4771.168554
4497.345894
4248.241848
4021.340831
3814.415845
3625.399135
3452.481497
3294.049103
3148.653859
3014.990948
2891.906367
2778.356672
2673.418216
2576.254787
54010.13093
53560.11941
52610.08777
51241.94967
49523.5264
47522.40907
45305.9237
42937.49796
40476.26425
37974.84864
35477.71157
33022.30977
30638.4619
28349.56893
26172.21978
24117.61901
22192.29069
20399.2518
18737.93882
17205.52788
15797.79407
14508.51849
13331.30956
12258.80425
11283.65012
10398.37023
9595.687477
8868.548342
8210.216538
7614.461566
7075.302072
6587.411754
6145.694261
5745.652734
5383.05991
5054.118714
4755.494836
4484.050167
4237.013102
4011.915991
3806.55358
3618.896196
3447.164767
3289.768994
3145.281762
3012.415741
2890.032772
2777.101913
2672.71094
2576.032774
53275.24687
52832.40923
51897.5015
50551.0975
48860.61967
46891.05996
44710.00786
42379.17495
39956.68381
37494.05286
35035.47532
32617.80359
30270.32254
28015.86882
25870.96472
23846.67859
21949.59771
20182.55606
18544.98378
17034.38396
15646.2689
14374.76566
13213.62212
12155.42779
11193.17083
10319.29141
9526.797353
8808.613554
8158.235983
7569.434048
7036.416409
6553.867986
6116.824828
5720.883327
5361.838387
5035.998739
4740.06317
4470.95102
4225.943067
4002.619923
3798.792593
3612.473426
3441.910908
3285.537572
3141.946684
3009.86791
2888.178528
2775.859783
2672.010615
2575.812896
52552.36295
52116.58047
51196.54809
49872.13823
48208.52295
46270.60912
44123.80606
41829.95073
39445.56947
37021.32632
34600.76124
32220.09367
29908.24246
27687.69843
25574.74497
23580.31524
21711.15663
19969.60669
18355.41447
16866.28625
15497.47959
14243.56684
13098.12068
12054.04955
11104.39619
10241.71968
9459.209503
8749.807199
8107.225326
7525.235593
6998.23375
6520.917273
6088.476095
5696.525047
5340.956888
5018.161828
4724.859474
4458.037033
4215.022551
3993.443744
3791.127249
3606.126401
3436.716472
3281.352181
3138.64661
3007.345964
2886.342577
2774.629585
2671.316857
2575.595033
51841.27528
51412.43253
50507.03274
49204.37167
47567.05923
45660.31605
43547.1714
41289.68332
38942.79425
36556.32249
34173.16308
31828.91647
29552.14159
27364.98495
25283.4931
23318.68684
21476.79687
19760.34813
18169.30118
16701.17171
15351.36595
14114.75544
12984.74364
11954.58941
11017.27085
10165.65227
9392.872403
8692.11439
8057.140575
7481.827344
6960.719995
6488.529707
6060.598722
5672.557141
5320.397881
5000.589517
4709.87193
4445.298689
4204.243977
3984.381496
3783.552898
3599.851512
3431.578678
3277.210692
3135.379935
3004.848722
2884.524085
2773.410773
2670.629362
2575.379092
51141.78433
50719.7686
49829.42598
48547.48815
46936.05417
45059.96994
42980.55339
40758.23312
38448.23159
36098.92723
33752.57983
31444.18254
29201.93847
27047.65356
24997.27017
23061.53327
21246.45603
19554.71941
17986.50181
16538.98239
15207.93308
13988.27022
12873.43044
11856.94765
10931.74093
10090.97432
9327.740449
8635.479357
8007.943972
7439.201992
6923.844256
6456.678931
6033.169413
5648.961463
5300.146355
4983.269532
4695.090607
4432.728043
4193.610525
3975.428276
3776.065731
3593.645824
3426.495281
3273.111406
3132.145389
3002.375255
2882.722398
2772.202921
2669.947895
2575.165001
50453.6946
50038.83017
49162.93206
47901.30747
46315.89057
44469.41104
42423.17679
40235.78537
37961.75341
35649.02649
33338.91004
31065.80129
28857.5518
26735.72657
24716.03087
22808.75002
21020.06906
19352.77651
17806.90249
16379.6604
15067.13611
13864.05052
12764.17617
11761.07136
10847.75616
10017.6392
9263.770671
8579.842706
7959.601235
7397.313462
6887.580124
6425.34216
6006.169017
5625.722158
5280.202245
4966.191394
4680.507111
4420.318445
4183.108152
3966.580031
3768.66263
3587.506955
3421.464474
3269.052966
3128.941966
2999.924833
2880.937006
2771.0057
2669.272274
2574.952703
49777.53252
49369.28182
48507.28931
47265.65275
45705.92039
43888.48195
41874.89523
39722.11228
37483.5173
35206.50746
32932.05223
30693.68166
28519.06524
26429.24453
24439.5323
22560.26682
20797.56911
19154.41878
17630.44112
16223.1444
14928.83291
13742.04086
12656.91719
11666.90977
10765.335
9945.603431
9200.925925
8525.168934
7912.080773
7356.122048
6851.904474
6394.529005
5979.580907
5602.825476
5260.547509
4949.346111
4666.114304
4408.064295
4172.731721
3957.833414
3761.34104
3581.432971
3416.484808
3265.034293
3125.768875
2997.496887
2879.167517
2769.818855
2668.602363
2574.742156
49112.38768
48710.62615
47862.31728
46640.56588
45105.88395
43317.28518
41335.56204
39216.83252
37013.32799
34771.72275
32532.21243
30328.09205
28186.40205
26127.9003
24167.70197
22316.01323
20579.03374
18959.49187
17457.05525
16069.50525
14792.96697
13622.18867
12551.55697
11574.41367
10684.37957
9874.826183
9139.224711
8471.425492
7865.35403
7315.603221
6816.796492
6364.193676
5953.390476
5580.259431
5241.166037
4932.725943
4651.906089
4395.962489
4162.477585
3949.185646
3754.098866
3575.422307
3411.55512
3261.054535
3122.625497
2995.090978
2877.413629
2768.642195
2667.938055
2574.53333
48458.05711
48062.68151
47227.83877
46026.08267
44515.61873
42755.75683
40805.03343
38719.81385
36550.84381
34344.08965
32139.05068
29968.57837
27859.28573
25831.61313
23900.46554
22075.9236
20364.31514
18767.93129
17286.68378
15918.56428
14659.48699
13504.52225
12448.04304
11483.53557
10604.83208
9805.269067
9078.573652
8418.582347
7819.436415
7275.734752
6782.237387
6334.318646
5927.584787
5558.013491
5222.049372
4916.324185
4637.877222
4384.017737
4152.342674
3940.634414
3746.934383
3569.47369
3406.674483
3257.11302
3119.511353
2992.70677
2875.675116
2767.475578
2667.279276
2574.3262
47814.36053
47425.26971
46603.93389
45421.59295
43934.96569
42203.38025
40283.43896
38230.92265
36095.94175
33923.48881
31752.38044
29615.03034
27537.629
25540.30345
23637.75178
21840.1492
20153.27034
18579.67151
17119.3621
15770.25082
14528.33827
13388.94796
12346.32814
11394.28482
10526.65232
9736.896073
9018.940982
8366.611792
7774.264881
7236.496403
6748.212624
6304.890049
5902.152738
5536.093312
5203.189713
4900.134817
4624.023091
4372.215955
4142.324354
3932.177765
3739.846159
3563.58608
3401.842149
3253.209218
3116.426072
2990.34401
2873.95181
2766.318899
2666.625972
2574.120751
47181.12113
46798.2662
45990.56037
44826.93281
43363.97622
41660.00833
39770.65069
37750.03162
35648.50033
33509.80917
31372.09985
29267.35358
27221.34414
25253.88912
23379.644
21608.38284
19945.83335
18394.64834
16954.99698
15624.50689
14399.46494
13275.37513
12246.36837
11306.59432
10449.80265
9669.712369
8960.297145
8315.488168
7729.814194
7197.869623
6714.733018
6275.895168
5877.083849
5514.481449
5184.580583
4884.152697
4610.339718
4360.554124
4132.420369
3923.814041
3732.832993
3557.758621
3397.057515
3249.342712
3113.369369
2988.002507
2872.243589
2765.172087
2665.978103
2573.916972
46558.4669
46182.04123
45387.14825
44241.94084
42802.68764
41125.49263
39266.22986
37277.49681
35208.40054
33102.94037
30998.10683
28925.45338
26910.34285
24972.44359
23125.98737
21380.5529
19741.93901
18212.88509
16793.45597
15481.27162
14272.92961
13163.75812
12148.1215
11220.39517
10374.24774
9603.670093
8902.614559
8265.203102
7686.06407
7159.837336
6681.755047
6247.322283
5852.368534
5493.164237
5166.216414
4868.373551
4596.829268
4349.029507
4122.628719
3915.541799
3725.893859
3551.990594
3392.320089
3245.513168
3110.341023
2985.68212
2870.550364
2764.03509
2665.335647
2573.714856
18034.31787
16634.6789
15340.49089
14148.56452
13054.05051
12051.60935
11135.64849
10299.95357
9538.715446
8845.867309
8215.751507
7642.995673
7122.38375
6649.265648
6219.160723
5827.998226
5472.134988
5148.092084
4852.793474
4583.489793
4337.639772
4112.947686
3907.359801
3719.027886
3546.2814
3387.629466
3241.72032
3107.340867
2983.382744
2868.872076
2762.907875
2664.698589
2573.514401
)
;

boundaryField
{
    front_top
    {
        type            wedge;
    }
    front_middle
    {
        type            wedge;
    }
    front_bottom
    {
        type            wedge;
    }
    back_top
    {
        type            wedge;
    }
    back_middle
    {
        type            wedge;
    }
    back_bottom
    {
        type            wedge;
    }
    axis_top
    {
        type            symmetryPlane;
    }
    axis_middle
    {
        type            symmetryPlane;
    }
    axis_bottom
    {
        type            symmetryPlane;
    }
    wall_top
    {
        type            calculated;
        value           nonuniform 0();
    }
    wall_middle
    {
        type            calculated;
        value           nonuniform 0();
    }
    wall_bottom
    {
        type            calculated;
        value           uniform 2530.329233;
    }
    inlet
    {
        type            calculated;
        value           nonuniform 0();
    }
    outlet
    {
        type            calculated;
        value           nonuniform 0();
    }
    procBoundary1to0
    {
        type            processor;
        value           nonuniform List<scalar> 
51
(
45946.25897
45575.81399
44793.5334
43666.45817
42250.52834
40599.68855
38770.04264
36812.69453
34775.98458
32702.91254
30630.34977
28589.33064
26604.77107
24695.8519
22876.60971
21156.58731
19541.52036
19541.52036
17858.79201
16478.61091
15202.18263
14026.31661
12946.20589
11956.75968
11052.31861
10226.91378
9474.819606
8790.030736
8167.078668
7600.59133
7085.506875
6617.252734
6191.400668
5803.985605
5451.387537
5130.202761
4837.40866
4570.311708
4326.383072
4103.375879
3899.267037
3712.234361
3540.630552
3382.985324
3237.963965
3104.368773
2981.104305
2867.208683
2761.790423
2664.066919
2573.315604
)
;
    }
    procBoundary1to2
    {
        type            processor;
        value           nonuniform List<scalar> 
51
(
63861.40863
63313.22822
62157.46526
60493.70074
58404.16578
55973.78734
53283.49103
50411.97316
47432.17132
44407.16496
41392.11619
38432.58299
35564.68606
32816.07093
30206.7006
27749.37381
25451.38226
23315.51154
21340.5855
19522.28989
17855.09294
16330.96545
14941.73394
13678.31378
12531.75558
11492.74943
10552.75498
9703.094782
8935.9576
8243.611365
7619.212628
7056.115398
6548.424245
6090.568746
5648.814
5648.814
5280.317363
4947.353691
4646.144854
4373.361268
4126.013381
3901.365864
3697.014061
3510.817246
3340.864758
3185.437143
3043.015841
2912.255348
2791.961516
2681.075782
2578.655379
)
;
    }
}


// ************************************************************************* //
