/*--------------------------------*- C++ -*----------------------------------*\
  =========                 |
  \\      /  F ield         | OpenFOAM: The Open Source CFD Toolbox
   \\    /   O peration     | Website:  https://openfoam.org
    \\  /    A nd           | Version:  7
     \\/     M anipulation  |
\*---------------------------------------------------------------------------*/
FoamFile
{
    version     2.0;
    format      ascii;
    class       volScalarField;
    location    "0.003";
    object      thermo:alpha;
}
// * * * * * * * * * * * * * * * * * * * * * * * * * * * * * * * * * * * * * //

dimensions      [1 -1 -1 0 0 0 0];

internalField   nonuniform List<scalar> 
1167
(
0.0001192378526
0.0001192264431
0.0001192019826
0.0001191658318
0.0001191187863
0.0001190615284
0.000118990523
0.0001189078182
0.0001188159877
0.0001187156681
0.0001186074548
0.00011848326
0.0001183504035
0.0001182003448
0.0001180436487
0.0001178809217
0.0001177036339
0.000117518106
0.0001173212932
0.000117113908
0.0001168974565
0.0001166695876
0.0001164340311
0.0001161961955
0.00011593924
0.0001156799858
0.0001154164671
0.0001151425674
0.0001148663919
0.0001145807193
0.0001142948854
0.0001140008638
0.00011370854
0.0001134190606
0.0001192190853
0.0001192076745
0.0001191832117
0.0001191470586
0.0001191000327
0.0001190427767
0.0001189700861
0.0001188874152
0.0001187956247
0.0001186953439
0.0001185865164
0.0001184613656
0.0001183269086
0.0001181769488
0.0001180203661
0.0001178577676
0.0001176789857
0.0001174936346
0.0001172953817
0.0001170882662
0.0001168704884
0.0001166429915
0.0001164062756
0.0001161674251
0.0001159125794
0.0001156525435
0.0001153898167
0.0001151154511
0.0001148403135
0.0001145545288
0.0001142699791
0.0001139762003
0.0001136853713
0.0001133964529
0.0001131024627
0.0001128039244
0.000112509607
0.0001122221826
0.0001119311077
0.0001116465647
0.0001113631591
0.0001110831594
0.0001108113166
0.0001105449576
0.0001102790619
0.0001100168345
0.0001097574901
0.0001095061629
0.0001092626134
0.0001090218191
0.000119200322
0.0001191889101
0.0001191644455
0.0001191283069
0.0001190812857
0.0001190225446
0.0001189496583
0.0001188670226
0.0001187752737
0.000118675044
0.0001185645764
0.0001184395003
0.0001183034397
0.0001181535841
0.0001179971221
0.0001178343634
0.0001176544043
0.0001174692433
0.0001172695867
0.0001170627561
0.0001168436916
0.0001166166015
0.0001163787794
0.000116138973
0.0001158862634
0.0001156255103
0.0001153636175
0.0001150888488
0.0001148147807
0.0001145289348
0.0001142456226
0.0001139521771
0.0001136628333
0.0001133744835
0.0001130821064
0.0001127843689
0.0001124917215
0.0001122059386
0.0001119158519
0.0001116329217
0.0001113505754
0.0001110721317
0.0001108017915
0.0001105365437
0.0001102720764
0.000110011008
0.0001097530367
0.0001095030345
0.0001092607666
0.0001090211906
0.0001191815633
0.0001191701506
0.0001191456848
0.0001191095661
0.0001190625459
0.0001190021188
0.0001189292408
0.0001188466419
0.0001187549363
0.0001186547597
0.0001185426556
0.0001184176571
0.0001182799992
0.0001181302536
0.00011797392
0.000117809669
0.0001176298901
0.0001174449355
0.0001172439173
0.00011703738
0.0001168170815
0.0001165904159
0.0001163519434
0.0001161108294
0.0001158598021
0.0001155988637
0.0001153370149
0.0001150627216
0.0001147885921
0.0001145038807
0.0001142207411
0.0001139287227
0.000113640867
0.0001133530733
0.0001130622793
0.0001127653277
0.0001124743084
0.0001121898948
0.0001119009944
0.0001116196306
0.0001113383118
0.00011106139
0.0001107925014
0.0001105283347
0.000110265259
0.0001100053205
0.0001097486891
0.0001094999801
0.0001092589634
0.000109020577
0.00011916281
0.0001191513969
0.0001191269479
0.0001190908325
0.0001190438143
0.0001189817032
0.000118908857
0.0001188262743
0.0001187346138
0.0001186344924
0.0001185207559
0.0001183958385
0.0001182565897
0.0001181069602
0.0001179507803
0.0001177850331
0.0001176054472
0.000117420364
0.0001172183607
0.0001170121401
0.0001167906552
0.0001165644324
0.0001163264954
0.0001160829851
0.0001158327094
0.0001155725828
0.0001153102974
0.0001150370336
0.0001147627863
0.0001144793167
0.0001141963748
0.0001139057766
0.0001136194007
0.0001133321561
0.0001130426427
0.0001127467346
0.0001124573051
0.0001121738033
0.0001118864796
0.0001116066417
0.0001113263222
0.0001110508848
0.000110783412
0.0001105203004
0.000110258585
0.0001099997515
0.0001097444315
0.0001094969887
0.0001092571973
0.000109019976
0.0001191440629
0.0001191326608
0.0001191082212
0.0001190721069
0.0001190236996
0.0001189612987
0.0001188884861
0.0001188059334
0.0001187143078
0.0001186142439
0.0001184988796
0.0001183740468
0.0001182332142
0.0001180837205
0.0001179276956
0.0001177604597
0.0001175810801
0.0001173946312
0.0001171929202
0.0001169870343
0.000116764402
0.0001165386498
0.000116301277
0.00011605543
0.0001158059358
0.0001155466481
0.0001152839686
0.0001150117531
0.0001147374217
0.0001144551993
0.0001141724747
0.0001138832873
0.0001135983743
0.000113311676
0.0001130228639
0.0001127285343
0.0001124406594
0.0001121580467
0.0001118722623
0.0001115939142
0.0001113145694
0.000111040583
0.0001107744955
0.0001105124165
0.0001102520344
0.0001099942846
0.0001097402513
0.0001094940516
0.0001092554632
0.0001090193859
0.0001191253418
0.0001191139411
0.0001190895022
0.00011905339
0.0001190032993
0.0001189409064
0.0001188681292
0.0001187856174
0.0001186940332
0.0001185939219
0.0001184770287
0.0001183520948
0.0001182098914
0.0001180605355
0.0001179046629
0.000117735953
0.0001175567994
0.0001173689998
0.0001171676
0.0001169605184
0.0001167383222
0.0001165125219
0.0001162762831
0.0001160283574
0.0001157794678
0.0001155210458
0.0001152580051
0.000114986858
0.0001147124639
0.0001144314946
0.000114148998
0.00011386121
0.0001135777425
0.0001132915857
0.0001130034633
0.0001127106813
0.0001124243285
0.000112142584
0.0001118583055
0.0001115814153
0.0001113030231
0.0001110304585
0.0001107657295
0.0001105046635
0.000110245591
0.0001099889062
0.0001097361385
0.0001094911616
0.0001092537569
0.0001090188052
0.0001191066294
0.0001190952292
0.0001190707918
0.0001190341553
0.0001189829106
0.0001189205364
0.0001188477872
0.0001187653187
0.0001186737873
0.0001185720428
0.0001184552262
0.0001183287036
0.000118186616
0.0001180373975
0.0001178816859
0.0001177115171
0.0001175326199
0.0001173434739
0.0001171424033
0.0001169341546
0.0001167124168
0.0001164856473
0.0001162515082
0.000116002819
0.0001157532935
0.0001154957766
0.0001152323855
0.0001149623352
0.0001146878832
0.000114408185
0.0001141259082
0.000113839519
0.0001135574666
0.0001132718452
0.0001129844009
0.0001126931376
0.0001124082774
0.0001121273814
0.0001118445788
0.0001115691178
0.0001112916684
0.0001110204899
0.0001107570957
0.0001104970254
0.0001102392419
0.0001099836057
0.0001097320848
0.000109488313
0.000109252075
0.0001090182328
0.0001190879251
0.0001190765258
0.0001190520905
0.0001190137719
0.0001189625343
0.0001189001937
0.0001188274614
0.0001187450385
0.0001186535625
0.0001185501899
0.0001184334559
0.0001183053496
0.0001181633838
0.00011801431
0.0001178587682
0.0001176871704
0.0001175085282
0.0001173180571
0.0001171173495
0.0001169079447
0.0001166866859
0.0001164589794
0.0001162269487
0.000115977529
0.0001157274008
0.0001154708043
0.0001152070907
0.0001149381441
0.0001146636531
0.0001143852224
0.0001141031734
0.0001138181771
0.0001135375139
0.0001132524227
0.0001129656431
0.0001126758715
0.0001123924922
0.0001121124113
0.0001118310573
0.0001115569997
0.0001112804771
0.00011101066
0.0001107485796
0.0001104894896
0.0001102329765
0.0001099783744
0.0001097280837
0.0001094855012
0.0001092504148
0.0001090176678
0.0001190692296
0.0001190578315
0.0001190327562
0.0001189934003
0.0001189421712
0.0001188798661
0.0001188071639
0.0001187247782
0.0001186333605
0.0001185283652
0.0001184117179
0.0001182820356
0.000118140198
0.0001179912765
0.0001178357043
0.0001176629131
0.0001174845277
0.0001172927529
0.0001170924341
0.0001168818905
0.0001166611448
0.0001164325165
0.0001162023912
0.0001159524803
0.0001157017791
0.0001154461154
0.0001151821034
0.0001149142647
0.0001146397504
0.0001143625818
0.0001140807663
0.0001137971483
0.0001135178568
0.0001132333051
0.0001129471618
0.0001126588568
0.0001123769329
0.0001120976508
0.0001118177205
0.0001115450431
0.0001112694311
0.0001110009548
0.0001107401693
0.0001104820457
0.0001102267865
0.0001099732053
0.0001097241299
0.0001094827225
0.0001092487741
0.0001090171095
0.0001190505435
0.0001190390223
0.0001190123906
0.0001189730412
0.0001189218302
0.0001188595546
0.0001187868952
0.0001187045408
0.0001186131826
0.0001185065704
0.0001183900143
0.0001182587645
0.0001181170617
0.0001179683006
0.0001178112957
0.0001176387377
0.0001174606218
0.0001172675764
0.0001170676503
0.0001168559936
0.0001166357878
0.0001164062577
0.0001161753915
0.0001159276652
0.0001156764373
0.0001154216972
0.0001151574228
0.0001148906794
0.0001146161623
0.0001143402415
0.0001140586633
0.0001137764089
0.0001134984716
0.0001132144514
0.0001129289334
0.0001126420715
0.0001123615793
0.000112083081
0.0001118045519
0.0001115332333
0.0001112585174
0.000110991363
0.0001107318551
0.0001104746854
0.000110220665
0.0001099680929
0.0001097202191
0.000109479974
0.0001092471512
0.0001090165572
0.0001190310864
0.0001190186641
0.0001189920371
0.0001189526955
0.0001189015186
0.0001188392602
0.0001187666459
0.000118684346
0.0001185928547
0.0001184848076
0.0001183683474
0.0001182355388
0.0001180939806
0.0001179454086
0.0001177869617
0.0001176146479
0.0001174368138
0.0001172425316
0.000117043
0.0001168302568
0.0001166106052
0.0001163802003
0.0001161486195
0.0001159030781
0.0001156513518
0.0001153975386
0.0001151330284
0.0001148673725
0.0001145928786
0.0001143181827
0.0001140368565
0.0001137559384
0.0001134793384
0.0001131958416
0.0001129109381
0.0001126254975
0.0001123464149
0.0001120686867
0.0001117915379
0.0001115211727
0.0001112477249
0.0001109818754
0.0001107236294
0.000110467402
0.0001102146067
0.0001099630327
0.000109716348
0.0001094772533
0.0001092455447
0.0001090160105
0.0001190107377
0.0001189983179
0.0001189716964
0.0001189323639
0.0001188812228
0.0001188189837
0.0001187464173
0.0001186641751
0.0001185710627
0.0001184630907
0.0001183461042
0.0001182123743
0.0001180709763
0.0001179225809
0.0001177627057
0.0001175906472
0.0001174122504
0.0001172176079
0.0001170184851
0.0001168047029
0.0001165855966
0.0001163545879
0.0001161220712
0.0001158787135
0.00011562651
0.0001153736296
0.0001151088995
0.0001148443302
0.0001145698679
0.000114296389
0.0001140153244
0.0001137357194
0.0001134604402
0.0001131774587
0.0001128931595
0.0001126091318
0.0001123314262
0.0001120544551
0.0001117786673
0.0001115091612
0.0001112370451
0.0001109724845
0.0001107154859
0.0001104601903
0.0001102086071
0.0001099580212
0.0001097125139
0.0001094745585
0.0001092439535
0.0001090154689
0.0001189904012
0.0001189779843
0.0001189513691
0.0001189120657
0.0001188609438
0.0001187987461
0.0001187262105
0.0001186440291
0.0001185493018
0.0001184414198
0.0001183228669
0.0001181892701
0.0001180480299
0.0001178998196
0.000117738531
0.0001175667388
0.0001173870789
0.0001171928073
0.0001169941069
0.0001167793083
0.0001165607605
0.0001163303959
0.0001160957434
0.0001158537746
0.0001156019044
0.0001153497733
0.000115085025
0.0001148215402
0.0001145471168
0.000114274846
0.0001139940433
0.0001137157375
0.0001134409549
0.0001131592881
0.0001128755835
0.0001125929528
0.0001123166016
0.0001120403756
0.0001117659309
0.0001114972717
0.0001112264711
0.0001109631846
0.0001107074197
0.0001104530459
0.000110202663
0.0001099530555
0.0001097087147
0.0001094718881
0.0001092423767
0.0001090149323
0.0001189700776
0.0001189576639
0.0001189310561
0.0001188917869
0.0001188406823
0.0001187785299
0.0001187060268
0.0001186239094
0.0001185275735
0.0001184197864
0.0001182996756
0.0001181662186
0.0001180251439
0.0001178771272
0.0001177144403
0.0001175429456
0.0001173620205
0.0001171681325
0.0001169687925
0.000116754073
0.0001165360964
0.0001163063872
0.0001160696321
0.0001158285137
0.0001155775287
0.0001153251055
0.0001150613948
0.0001147982991
0.0001145246125
0.0001142535413
0.0001139729999
0.0001136959795
0.0001134216451
0.0001131413178
0.0001128581985
0.0001125769464
0.0001123019318
0.0001120264397
0.0001117533211
0.0001114854975
0.0001112159974
0.0001109539711
0.0001106994271
0.0001104459657
0.0001101967715
0.0001099481336
0.0001097049488
0.000109469241
0.0001092408136
0.0001090144004
0.0001189497674
0.0001189373575
0.000118910778
0.0001188715245
0.0001188204392
0.0001187583346
0.0001186858888
0.0001186038171
0.0001185058792
0.0001183981919
0.0001182765326
0.0001181432222
0.0001180023207
0.0001178545063
0.0001176904472
0.0001175192528
0.0001173370775
0.0001171435853
0.0001169431897
0.0001167289975
0.0001165109735
0.0001162825596
0.0001160437331
0.000115803472
0.0001155533766
0.0001153006749
0.0001150380007
0.0001147748669
0.0001145023449
0.0001142317747
0.0001139521825
0.000113676434
0.000113402542
0.0001131235379
0.0001128409949
0.0001125611038
0.0001122874089
0.0001120126401
0.000111740843
0.0001114738334
0.0001112056194
0.0001109448401
0.0001106915049
0.0001104389471
0.0001101909308
0.0001099432536
0.0001097012148
0.0001094666164
0.0001092392638
0.000109013873
0.0001189294714
0.0001189170787
0.0001188905179
0.0001188512793
0.0001188002337
0.0001187381613
0.0001186657759
0.0001185828093
0.0001184842203
0.0001183766382
0.0001182534397
0.0001181202831
0.0001179795628
0.0001178314688
0.0001176665568
0.0001174956591
0.0001173122519
0.0001171191814
0.0001169177358
0.0001167040822
0.0001164852249
0.0001162589102
0.0001160187943
0.0001157786448
0.0001155294424
0.0001152764743
0.0001150148348
0.0001147516694
0.000114480305
0.0001142099217
0.0001139315812
0.0001136570914
0.0001133836361
0.0001131059395
0.0001128239753
0.0001125454178
0.0001122730267
0.0001119989713
0.0001117284813
0.000111462275
0.0001111953336
0.0001109357887
0.0001106836507
0.0001104319879
0.000110185139
0.0001099384143
0.0001096975118
0.0001094640135
0.0001092377267
0.0001090133499
0.0001189092119
0.0001188968244
0.0001188702742
0.0001188310521
0.0001187800514
0.0001187180108
0.0001186456893
0.0001185611162
0.0001184626112
0.0001183551267
0.0001182303989
0.0001180974034
0.0001179568836
0.0001178073997
0.000117642757
0.0001174721665
0.0001172875451
0.000117094918
0.000116892431
0.0001166793265
0.000116459655
0.0001162354373
0.0001159946923
0.0001157540279
0.0001155057397
0.0001152524974
0.0001149918909
0.0001147286989
0.0001144584843
0.0001141882883
0.0001139111877
0.0001136379621
0.0001133649195
0.0001130885155
0.0001128071274
0.0001125298822
0.0001122587797
0.0001119854285
0.0001117162313
0.0001114508189
0.0001111851371
0.0001109268147
0.0001106758627
0.0001104250866
0.0001101793951
0.0001099336147
0.0001096938391
0.0001094614318
0.0001092362022
0.0001090128311
0.0001188889685
0.0001188765862
0.0001188500476
0.0001188108509
0.0001187598901
0.0001186978934
0.0001186256298
0.0001185394567
0.0001184410504
0.0001183320458
0.0001182074299
0.0001180746077
0.0001179342862
0.0001177834138
0.0001176190498
0.0001174487764
0.0001172629751
0.0001170707853
0.0001168672758
0.0001166547511
0.0001164342627
0.0001162121389
0.0001159707812
0.0001157296167
0.0001154822487
0.0001152287382
0.000114969183
0.0001147059481
0.0001144368758
0.0001141668672
0.000113890995
0.0001136190218
0.0001133463855
0.0001130712597
0.0001127904398
0.0001125144922
0.0001122446637
0.0001119720096
0.0001117040897
0.0001114394623
0.0001111750277
0.0001109179162
0.0001106681393
0.0001104182421
0.000110173698
0.000109928854
0.000109690196
0.0001094588709
0.00010923469
0.0001090123165
0.0001188687413
0.0001188563648
0.0001188298389
0.0001187906835
0.0001187397509
0.0001186778138
0.0001186055986
0.0001185178322
0.0001184195296
0.0001183089864
0.0001181845213
0.000118051876
0.0001179117597
0.0001177595129
0.0001175954371
0.0001174254568
0.0001172385344
0.0001170467839
0.0001168422702
0.0001166303366
0.0001164090473
0.0001161871947
0.0001159470572
0.000115705407
0.0001154589602
0.0001152051913
0.0001149466838
0.0001146834108
0.0001144154923
0.0001141456516
0.0001138709966
0.0001136002633
0.0001133280284
0.0001130541668
0.0001127739078
0.0001124992434
0.0001122306752
0.0001119587214
0.0001116920539
0.0001114282031
0.0001111650037
0.0001109090917
0.0001106604795
0.0001104114534
0.000110168047
0.0001099241317
0.0001096865823
0.0001094563306
0.00010923319
0.000109011806
0.000118848531
0.0001188361609
0.0001188096573
0.0001187705365
0.0001187196345
0.00011865776
0.0001185848055
0.0001184962439
0.0001183980499
0.0001182859774
0.0001181616698
0.000118029209
0.0001178893058
0.000117735699
0.0001175719209
0.0001174007362
0.0001172142154
0.0001170229142
0.0001168174287
0.0001166060804
0.0001163840076
0.0001161615211
0.0001159235176
0.0001156814094
0.0001154358698
0.0001151818517
0.0001149243878
0.0001146610813
0.0001143943101
0.0001141246359
0.0001138511885
0.0001135816818
0.0001133098435
0.0001130367127
0.0001127575269
0.0001124841322
0.000112216811
0.0001119455495
0.0001116801219
0.0001114170395
0.0001111550636
0.0001109003404
0.0001106528825
0.0001104047199
0.0001101624417
0.0001099194474
0.0001096829975
0.0001094538107
0.0001092317019
0.0001090112996
0.0001188283385
0.0001188159769
0.0001187895081
0.000118750411
0.0001186995494
0.0001186377332
0.00011856318
0.000118474693
0.0001183766128
0.0001182630203
0.0001181388771
0.0001180066081
0.000117866926
0.0001177119735
0.000117548517
0.0001173761292
0.0001171900194
0.0001169991765
0.0001167927468
0.0001165819814
0.0001163591416
0.0001161360362
0.00011590016
0.0001156576139
0.0001154129737
0.0001151587281
0.0001149022905
0.0001146389544
0.0001143733226
0.0001141038149
0.0001138315813
0.0001135632727
0.0001132918265
0.000113019204
0.000112741294
0.0001124691558
0.0001122030688
0.0001119324919
0.0001116682919
0.0001114059701
0.0001111452065
0.0001108916613
0.0001106453477
0.0001103980411
0.0001101568817
0.0001099148008
0.0001096794416
0.000109451311
0.0001092302258
0.0001090107973
0.0001188081743
0.0001187958315
0.0001187693792
0.0001187303077
0.0001186795037
0.0001186177342
0.0001185415885
0.000118453203
0.0001183552194
0.0001182401167
0.0001181161448
0.0001179840749
0.0001178446218
0.000117688351
0.0001175252202
0.0001173516368
0.0001171659471
0.0001169748521
0.0001167682132
0.0001165580381
0.0001163358329
0.0001161107384
0.0001158769822
0.0001156340095
0.0001153902682
0.0001151358111
0.0001148803873
0.0001146170323
0.0001143525254
0.0001140831841
0.0001138121537
0.0001135450321
0.0001132739736
0.0001130018536
0.0001127252062
0.0001124543118
0.0001121891908
0.0001119195466
0.0001116565627
0.0001113949939
0.0001111354315
0.0001108830538
0.0001106378746
0.0001103914167
0.0001101513668
0.0001099101918
0.0001096759143
0.0001094488314
0.0001092287617
0.000109010299
0.0001169499162
0.0001167438276
0.0001165342497
0.0001163127137
0.0001160856256
0.0001158531578
0.000115610593
0.0001153677499
0.0001151130886
0.0001148586744
0.0001145953186
0.0001143319144
0.0001140627393
0.000113792902
0.0001135269565
0.0001132562815
0.0001129846584
0.0001127092613
0.0001124395985
0.0001121751234
0.0001119067124
0.000111644933
0.0001113841101
0.000111125738
0.0001108745176
0.000110630463
0.0001103848465
0.0001101458969
0.0001099056202
0.0001096724157
0.000109446372
0.0001092273093
0.0001090098048
)
;

boundaryField
{
    front_top
    {
        type            wedge;
    }
    front_middle
    {
        type            wedge;
    }
    front_bottom
    {
        type            wedge;
    }
    back_top
    {
        type            wedge;
    }
    back_middle
    {
        type            wedge;
    }
    back_bottom
    {
        type            wedge;
    }
    axis_top
    {
        type            symmetryPlane;
    }
    axis_middle
    {
        type            symmetryPlane;
    }
    axis_bottom
    {
        type            symmetryPlane;
    }
    wall_top
    {
        type            calculated;
        value           nonuniform 0();
    }
    wall_middle
    {
        type            calculated;
        value           nonuniform 0();
    }
    wall_bottom
    {
        type            calculated;
        value           uniform 0.0001089022317;
    }
    inlet
    {
        type            calculated;
        value           nonuniform 0();
    }
    outlet
    {
        type            calculated;
        value           nonuniform 0();
    }
    procBoundary1to0
    {
        type            processor;
        value           nonuniform List<scalar> 
51
(
0.0001187880407
0.000118775706
0.0001187492715
0.0001187102275
0.0001186594836
0.000118597764
0.0001185200322
0.000118431753
0.000118332274
0.0001182172759
0.0001180934772
0.0001179616173
0.0001178212241
0.0001176648304
0.0001175020228
0.0001173272598
0.0001171419993
0.0001171419993
0.0001169251208
0.0001167195897
0.0001165099273
0.0001162897535
0.0001160606954
0.0001158290676
0.0001155873616
0.0001153449889
0.000115090557
0.0001148371481
0.0001145737947
0.0001143114858
0.0001140424839
0.0001137738226
0.0001135090427
0.0001132387626
0.0001129676162
0.0001126934572
0.0001124250141
0.000112161178
0.0001118939884
0.0001116334021
0.0001113733179
0.0001111161256
0.0001108660523
0.0001106231126
0.0001103783304
0.0001101404718
0.0001099010861
0.0001096689457
0.0001094439326
0.0001092258689
0.0001090093146
)
;
    }
    procBoundary1to2
    {
        type            processor;
        value           nonuniform List<scalar> 
51
(
0.0001192566354
0.0001192452151
0.0001192207575
0.0001191846097
0.0001191375452
0.0001190802865
0.0001190109678
0.0001189282305
0.0001188363813
0.0001187360168
0.0001186277475
0.0001185051874
0.0001183725624
0.0001182237699
0.0001180669676
0.0001179041213
0.0001177283665
0.0001175426549
0.0001173473086
0.0001171396863
0.0001169245951
0.0001166964102
0.000116462052
0.0001162230791
0.0001159662609
0.0001157078718
0.0001154436017
0.0001151702415
0.0001148930687
0.0001146075706
0.0001143204734
0.0001140262499
0.0001137324265
0.0001134424001
0.0001131234265
0.0001131234265
0.0001128240738
0.0001125280406
0.0001122389252
0.0001119468296
0.0001116606209
0.0001113761194
0.0001110945128
0.0001108211193
0.0001105536135
0.0001102862463
0.0001100228257
0.0001097620685
0.0001095093789
0.0001092645119
0.0001090224652
)
;
    }
}


// ************************************************************************* //
