/*--------------------------------*- C++ -*----------------------------------*\
  =========                 |
  \\      /  F ield         | OpenFOAM: The Open Source CFD Toolbox
   \\    /   O peration     | Website:  https://openfoam.org
    \\  /    A nd           | Version:  7
     \\/     M anipulation  |
\*---------------------------------------------------------------------------*/
FoamFile
{
    version     2.0;
    format      ascii;
    class       volScalarField;
    location    "0.0015";
    object      p;
}
// * * * * * * * * * * * * * * * * * * * * * * * * * * * * * * * * * * * * * //

dimensions      [1 -1 -2 0 0 0 0];

internalField   nonuniform List<scalar> 
1166
(
1117281.324
1146847.515
1145232.126
1147291.437
1152838.659
1159821.54
1167908.226
1177152.384
1187557.58
1199109.992
1211810.743
1225674.132
1240722.082
1256982.058
1274486.607
1293269.172
1313350.251
1334754.655
1357551.308
1381795.553
1407536.964
1434806.924
1463664.288
1494219.746
1526535.43
1560695.46
1596837.88
1635045.667
1675492.292
1718294.224
1763590.855
1811592.599
1862465.201
1916330.43
1973275.506
2033401.217
2096667.211
2162957.691
2231965.411
2303324.576
2376428.568
2450539.529
2524795.653
2598272.022
2670082.81
2739286.867
2804716.551
2865947.84
2926923.775
2990560.092
1263445.147
1299268.278
1297362.686
1299998.07
1306889.837
1315476.871
1325290.02
1336346.35
1348591.147
1361988.243
1376508.943
1392143.247
1408897.561
1426775.893
1445784.2
1466009.101
1487505.815
1510285.089
1534457.006
1560081.324
1587222.567
1615959.707
1646354.79
1678425.963
1712234.193
1747768.681
1784964.207
1823711.381
1863867.634
1905226.375
1947477.023
1990238.217
2033104.743
2075651.346
2117422.371
2157976.733
2196945.445
2234011.406
2268924.567
2301478.15
2331545.778
2359021.657
2383774.724
2405656.568
2424437.652
2439841.523
2451534.776
2458747.834
2459845.931
2454791.411
1291144.363
1328393.875
1325924.062
1327278.353
1332558.89
1339318.052
1347144.534
1356144.05
1366372.282
1377831.73
1390508.337
1404393.446
1419542.81
1435952.8
1453633.283
1472611.558
1492885.367
1514478.809
1537354.962
1561419.019
1586645.35
1612968.864
1640264.526
1668334.189
1697010.186
1726094.106
1755327.852
1784518.725
1813386.543
1841703.496
1869279.293
1895921.87
1921446.297
1945759.6
1968719.103
1990248.763
2010235.737
2028565.546
2045177.903
2059921.519
2072679.054
2083276.287
2091575.257
2097422.962
2100642.999
2101105.637
2098730.737
2093283.346
2084071.367
2071931.413
1487404.95
1520759.673
1518393.133
1519909.291
1525163.669
1531891.8
1539716.76
1548695.771
1558887.384
1570275.946
1582792.433
1596455.37
1611217.388
1627093.734
1644022.341
1661955.627
1680823.351
1700566.712
1721052.36
1742190.338
1763856.893
1785895.128
1808149.01
1830487.53
1852690.893
1874601.174
1896098.731
1917035.373
1937223.86
1956560.562
1974909.95
1992175.984
2008196.337
2022897.989
2036211.499
2047997.071
2058213.577
2066763.478
2073590.713
2078629.502
2081833.807
2083173.093
2082624.645
2080165.739
2075812.098
2069625.208
2061674.55
2051825.379
2039578.821
2025874.235
1544853.409
1574923.475
1573407.062
1575026.916
1579873.696
1586047.018
1593194.971
1601378.659
1610589.681
1620738.082
1631841.823
1643844.848
1656652.459
1670243.102
1684530.889
1699385.32
1714762.724
1730540.182
1746593.979
1762860.201
1779167.652
1795371.599
1811360.103
1827037.64
1842283.484
1856950.212
1870956.765
1884185.671
1896536.136
1907944.765
1918331.859
1927594.17
1935726.309
1942611.202
1948258.948
1952608.453
1955625.395
1957300.948
1957620.275
1956581.202
1954177.457
1950430.04
1945383.334
1939071.998
1931520.089
1922770.804
1913018.974
1902404.238
1890729.982
1878477.163
1681532.875
1705599.309
1704542.241
1706392.27
1710991.154
1716768.889
1723434.113
1730970.931
1739373.466
1748484.971
1758340.659
1768808.67
1779792.662
1791201.674
1803011.889
1815064.88
1827262.38
1839541.558
1851791.881
1863894.97
1875730.374
1887221.254
1898287.603
1908825.597
1918764.808
1928047.057
1936540.236
1944225.133
1951038.26
1956923.015
1961847.418
1965750.187
1968658.881
1970482.533
1971240.033
1970949.216
1969558.393
1967084.159
1963580.804
1959045.633
1953472.029
1946945.217
1939590.232
1931498.493
1922094.83
1909320.353
1896458.839
1915633.982
2007561.767
2107840.438
1710403.485
1730178.587
1729753.262
1731468.331
1735327.98
1740117.581
1745639.498
1751784.952
1758538.822
1765847.003
1773564.875
1781670.602
1790067.888
1798640.524
1807318.603
1816046.321
1824711.128
1833230.475
1841531.118
1849527.94
1857124.805
1864304.283
1870996.291
1877085.722
1882555.181
1887362.401
1891456.479
1894779.654
1897337.29
1899064.809
1899973.444
1900049.115
1899248.79
1897625.86
1895148.222
1891815.435
1887683.367
1882757.284
1877054.534
1870658.054
1863701.965
1856250.05
1847206.424
1834707.097
1827793.987
1868980.941
1957633.046
2043861.44
2116626.895
2180416.694
1782364.168
1797132.317
1796772.973
1798224.131
1801380.211
1805308.07
1809743.137
1814692.991
1820022.818
1825753.985
1831735.069
1837879.456
1844159.99
1850480.295
1856758.621
1862917.14
1868885.506
1874609.001
1880029.233
1885084.662
1889709.366
1893867.408
1897494.812
1900545.809
1903016.07
1904813.434
1905989.259
1906446.965
1906240.694
1905301.94
1903658.726
1901311.405
1898220.323
1894468.15
1890023.103
1884909.595
1879199.59
1872909.18
1866243.99
1859199.028
1850498.359
1838164.33
1833640.648
1885449.932
1975601.31
2063651.549
2137571.335
2175409.136
2145795.814
2101840.522
1787663.362
1799679.016
1799508.911
1800571.918
1802901.087
1805818.888
1809037.73
1812634.437
1816475.442
1820497.563
1824671.363
1828905.959
1833135.633
1837303.736
1841353.943
1845231.45
1848876.569
1852211.405
1855195.504
1857808.168
1860019.641
1861743.634
1862973.108
1863680.786
1863838.011
1863433.451
1862440.941
1860860.39
1858679.328
1855898.099
1852531.154
1848558.439
1844044.602
1838962.79
1833362.237
1827321.972
1820983.57
1814401.241
1806070.185
1793936.587
1790789.116
1848797.543
1941697.802
2031874.455
2103442.796
2123354.915
2094684.337
2058139.365
2022633.623
1988629.907
1817042.193
1826454.145
1826075.435
1826767.659
1828499.951
1830612.934
1832980.633
1835525.901
1838257.118
1841087.89
1843957.908
1846822.981
1849628.48
1852310.84
1854821.652
1857129.553
1859202.017
1860988.782
1862430.206
1863482.913
1864184.754
1864461.103
1864286.788
1863690.78
1862590.11
1861059.642
1859014.358
1856530.161
1853538.36
1850119.401
1846221.944
1841907.374
1837178.57
1832111.754
1826888.467
1821506.168
1814358.27
1803348.052
1802061.974
1865167.502
1960932.845
2053438.617
2125133.823
2137375.782
2110350.591
2078595.952
2049455.947
2022773.023
1998917.847
1979763.479
1805870.724
1814223.488
1813758.733
1814074.028
1815132.407
1816429.39
1817882.039
1819424.906
1821004.26
1822629.361
1824234.738
1825772.948
1827206.745
1828500.671
1829621.691
1830535.571
1831205.468
1831608.51
1831737.839
1831561.854
1831050.601
1830220.515
1829046.016
1827520.515
1825652.225
1823430.608
1820871.723
1817986.397
1814776.009
1811276.487
1807472.632
1803464.708
1799421.202
1795322.869
1789532.662
1779826.159
1780359.606
1846941.443
1944127.299
2037837.506
2110133.009
2120089.42
2095579.858
2067723.692
2042439.461
2019437.094
1999512.858
1986171.035
1983294.974
1988849.55
1808384.685
1815815.479
1815127.527
1815094.471
1815664.997
1816429.713
1817205.366
1818043.047
1818886.497
1819688.196
1820414.797
1821061.245
1821602.826
1822010.288
1822253.532
1822294.225
1822124.106
1821735.539
1821125.737
1820268.931
1819151.408
1817795.066
1816164.242
1814273.277
1812159.283
1809774.277
1807192.931
1804342.588
1801323.439
1798105.377
1794976.956
1791812.595
1787018.469
1778305.126
1779965.876
1848074.957
1945689.542
2039959.584
2112595.698
2121016.976
2097778.67
2071903.26
2048433.451
2027069.117
2008638.621
1996411.444
1993898.075
2000178.841
2010814.246
2022257.463
1788452.185
1795894.836
1795027.068
1794675.229
1794878.895
1795153.739
1795425.272
1795630.639
1795828.992
1795975.746
1796036.059
1795991.229
1795823.744
1795517.006
1795056.486
1794431.23
1793642.517
1792698.204
1791542.694
1790172.612
1788634.933
1786894.587
1784933.637
1782820.603
1780484.397
1777985.518
1775304.354
1772493.229
1769761.205
1767028.531
1762680.228
1754468.604
1756333.369
1823684.948
1921070.574
2015723.5
2088578.024
2095327.163
2072235.168
2046974.889
2023828.422
2002500.403
1983868.391
1971321.21
1968640.599
1974884.913
1984947.982
1995292.322
2005076.227
2013979.005
1776709.068
1784114.818
1783022.168
1782487.237
1782461.233
1782448.678
1782412.607
1782317.026
1782133.508
1781884.066
1781565.542
1781142.507
1780597.623
1779921.139
1779109.5
1778171.117
1777086.495
1775831.858
1774376.278
1772783.03
1771033.952
1769086.788
1766989.242
1764728.375
1762275.54
1759720.615
1757225.926
1754743.188
1750682.307
1742841.726
1744398.641
1809192.565
1906031.964
2001228.672
2074695.141
2080766.797
2057669.424
2032584.453
2009452.958
1987810.314
1968563.143
1955077.502
1951523.267
1957411.664
1967548.904
1977993.663
1987482.632
1995592.128
2002284.23
2007813.403
1752379.473
1760230.91
1759031.791
1758336.694
1758098.553
1757882.95
1757569.977
1757219.14
1756753.018
1756194.046
1755544.05
1754791.159
1753925.697
1752940.324
1751825.752
1750574.41
1749181.214
1747635.37
1745926.455
1744078.863
1742081.16
1739921.556
1737595.8
1735162.9
1732807.281
1730446.078
1726616.032
1719112.225
1720065.212
1780924.928
1876696.964
1972306.729
2046778.687
2053971.324
2031271.096
2006323.384
1983304.905
1961620.239
1941899.547
1927359.292
1922710.165
1928180.121
1938593.654
1949526.968
1959542.38
1968202.828
1975217.091
1980621.315
1984961.032
1988755.292
1732087.667
1740284.131
1738934.505
1738101.607
1737742.68
1737404.234
1736947.01
1736411.587
1735774.949
1735035.671
1734194.654
1733243.441
1732174.41
1730981.972
1729661.024
1728204.877
1726608.254
1724873.943
1723005.342
1720969.573
1718781.49
1716520.059
1714300.22
1712082.748
1708535.536
1701430.589
1701763.606
1758208.707
1852549.562
1948270.954
2023877.204
2034014.725
2012251.217
1987523.358
1964567.329
1943038.079
1923209.285
1907669.963
1901491.791
1906210.481
1916889.283
1928467.229
1939154.7
1948511.186
1956264.923
1962360.167
1967079.813
1970939.468
1974523.103
1978036.43
1704124.393
1712797.648
1711332.257
1710379.018
1709922.295
1709447.795
1708849.465
1708139.378
1707323.834
1706402.789
1705370.212
1704221.381
1702950.958
1701552.473
1700022.076
1698356.698
1696552.718
1694617.175
1692575.05
1690421.038
1688299.189
1686219.91
1682907.626
1676169.662
1676006.908
1728445.784
1821015.202
1916313.301
1992881.798
2007013.383
1986539.215
1962097.567
1939189.936
1917754.359
1897848.473
1881494.81
1873545.239
1876959.967
1887687.811
1899968.845
1911430.144
1921566.823
1930119.036
1936989.103
1942396.104
1946774.254
1950565.162
1954088.675
1957563.838
1960969.721
1677758.419
1686751.914
1685156.248
1684105.203
1683586.85
1683014.903
1682321.048
1681485.513
1680552.332
1679514.662
1678357.459
1677076.393
1675669.409
1674134.035
1672465.728
1670658.337
1668716.71
1666702.025
1664775.437
1662882.496
1659771.247
1653359.659
1653059.914
1703013.729
1793744.787
1888051.457
1965153.494
1983338.592
1964458.974
1940479.04
1917778.266
1896347.513
1876369.837
1859277.242
1849520.905
1851133.016
1861411.601
1874287.643
1886566.269
1897553.259
1906980.508
1914693.782
1920836.336
1925820.131
1930100.92
1933991.522
1937607.857
1941005.277
1944316.053
1947536.237
1646503.497
1655866.132
1654180.654
1653031.262
1652433.516
1651771.041
1650968.739
1649993.562
1648945.695
1647782.072
1646468.472
1645019.562
1643451.189
1641764.67
1639971.475
1638128.786
1636352.833
1634559.058
1631526.185
1625323.88
1625378.047
1675411.127
1764348.112
1856931.521
1933803.534
1955151.063
1937527.679
1914290.177
1891997.29
1870549
1850447.407
1832689.165
1821074.787
1820496.071
1829919.739
1843177.786
1856195.386
1868001.755
1878326.665
1886957.518
1893929.055
1899583.886
1904392.247
1908722.325
1912742.853
1916483.705
1919935.75
1923136.414
1926234.35
1929236.488
1616238.528
1625780.44
1624047.867
1622830.576
1622136.059
1621422.791
1620500.789
1619463.82
1618316.381
1616998.322
1615553.026
1613997.789
1612349.921
1610665.154
1609041.47
1607358.48
1604329.523
1598115.167
1599232.899
1653160.214
1740577.082
1830566.709
1906089.699
1928721.83
1911959.977
1889287.31
1867537.923
1846429.51
1826140.092
1807768.152
1794338.177
1791182.999
1799177.984
1812570.668
1826287.533
1838866.02
1850037.404
1859577
1867413.994
1873797.807
1879180.29
1883974.25
1888406.423
1892536.149
1896365.486
1899892.246
1903125.134
1906111.139
1909009.626
1911845.064
1583056.008
1592679.639
1590889.132
1589635.497
1588860.718
1588026.161
1587007.532
1585859.832
1584548.897
1583124.358
1581627.776
1580065.621
1578503.169
1576808.841
1573536.919
1566957.155
1570165.51
1633205.346
1719471.992
1805717.003
1878316.004
1899191.092
1882756.43
1860710.003
1839382.514
1818510.535
1798259.014
1779359.413
1764379.155
1758609.908
1764665.697
1777810.641
1792129.317
1805449.822
1817440.062
1827875.916
1836607.634
1843772.166
1849762.679
1855016.277
1859835.323
1864333.221
1868515.788
1872381.051
1875941.673
1879209.796
1882201.541
1884982.63
1887723.022
1890438.279
1551116.272
1560673.776
1558802.234
1557452.554
1556621.356
1555698.68
1554616.999
1553388.041
1552036.159
1550560.359
1548974.03
1546928.338
1542979.77
1537900.675
1552410.135
1623441.143
1706628.737
1787829.657
1855693.614
1870578.243
1853698.344
1832460.673
1811680.159
1791082.018
1770954.166
1751877.658
1735595.257
1727112.627
1730687.878
1743169.93
1757984.461
1771982.832
1784679.961
1795919.057
1805511.996
1813477.113
1820125.162
1825882.342
1831093.543
1835930.212
1840431.286
1844600.358
1848446.848
1851988.061
1855242.976
1858239.417
1861009.48
1863621.705
1866232.8
1868842.757
1516472.295
1526109.122
1524327.408
1523038.977
1522230.201
1521264.973
1520009.016
1518493.95
1516704.717
1513826.416
1508449.395
1509284.594
1552592.48
1624072.151
1699905.01
1774761.043
1835917.743
1839389.52
1821140.949
1801056.872
1781114.988
1760974.876
1741123.148
1722106.45
1705107.039
1694437.398
1695328.982
1706511.973
1721464.768
1736035.985
1749390.009
1761384.744
1771807.732
1780570.442
1787879.883
1794144.019
1799753.505
1804936.661
1809759.491
1814230.721
1818358.088
1822158.584
1825649.889
1828858.85
1831824.171
1834584.852
1837169.738
1839627.171
1842093.59
1844564.654
1769246.365
1774728.264
1779823.187
1784555.035
1788932.4
1792965.517
1796672.398
1800074.244
1803205.518
1806109.093
1808825.707
1811380.714
1813784.734
1816075.527
1818382.899
1820704.115
)
;

boundaryField
{
    front_top
    {
        type            wedge;
    }
    front_middle
    {
        type            wedge;
    }
    front_bottom
    {
        type            wedge;
    }
    back_top
    {
        type            wedge;
    }
    back_middle
    {
        type            wedge;
    }
    back_bottom
    {
        type            wedge;
    }
    axis_top
    {
        type            symmetryPlane;
    }
    axis_middle
    {
        type            symmetryPlane;
    }
    axis_bottom
    {
        type            symmetryPlane;
    }
    wall_top
    {
        type            fixedFluxPressure;
        gradient        uniform 0;
        value           nonuniform List<scalar> 
24
(
2990560.092
2454791.411
2071931.413
2025874.235
1878477.163
2107840.438
2180416.694
2101840.522
1988629.907
1979763.479
1988849.55
2022257.463
2013979.005
2007813.403
1988755.292
1978036.43
1960969.721
1947536.237
1929236.488
1911845.064
1890438.279
1868842.757
1844564.654
1820704.115
)
;
    }
    wall_middle
    {
        type            fixedFluxPressure;
        gradient        nonuniform 0();
        value           nonuniform 0();
    }
    wall_bottom
    {
        type            fixedFluxPressure;
        gradient        nonuniform 0();
        value           nonuniform 0();
    }
    inlet
    {
        type            zeroGradient;
    }
    outlet
    {
        type            fixedValue;
        value           nonuniform 0();
    }
    procBoundary11to10
    {
        type            processor;
        value           nonuniform List<scalar> 
51
(
1490604.266
1498788.352
1496063.903
1493579.545
1491241.186
1488745.174
1485449.557
1480338.641
1479876.709
1512268.857
1572310.11
1638000.068
1704500.996
1769830.704
1814782.12
1807278.159
1788541.279
1769818.412
1750839.143
1731351.657
1711983.391
1693245.579
1675920.787
1663567.471
1661866.839
1671405.246
1686188.572
1701180.545
1715062.618
1727699.219
1738890.648
1748453.698
1756462.596
1763257.511
1763257.511
1749486.257
1754471.565
1759084.619
1763336.849
1767246.991
1770833.002
1774123.101
1777157.563
1779980.632
1782628.644
1785123.614
1787477.069
1789696.25
1791816.237
1793958.593
1796118.025
)
;
    }
}


// ************************************************************************* //
