/*--------------------------------*- C++ -*----------------------------------*\
  =========                 |
  \\      /  F ield         | OpenFOAM: The Open Source CFD Toolbox
   \\    /   O peration     | Website:  https://openfoam.org
    \\  /    A nd           | Version:  7
     \\/     M anipulation  |
\*---------------------------------------------------------------------------*/
FoamFile
{
    version     2.0;
    format      ascii;
    class       volScalarField;
    location    "0.0027";
    object      generalizedNewtonian:nu;
}
// * * * * * * * * * * * * * * * * * * * * * * * * * * * * * * * * * * * * * //

dimensions      [0 2 -1 0 0 0 0];

internalField   nonuniform List<scalar> 
1167
(
412.9166336
411.5923119
409.388289
405.5585605
400.7824891
395.0945713
388.5931059
381.3961268
373.6157148
365.3632909
356.7304007
347.7992734
338.657821
329.3729342
320.0007833
310.6092618
301.2310055
291.9149826
282.6900565
384.4229243
383.1466553
381.2905594
377.7779146
373.4509336
368.2961483
362.4063113
355.8901971
348.8533783
341.3899177
333.5786983
325.500873
317.2345968
308.8313643
300.3525773
291.8438904
283.3419891
274.8920046
266.5115906
258.2370192
250.0790636
242.062794
234.195351
226.4929933
218.9593938
211.6055992
204.4327196
197.4479787
190.6493224
184.042121
177.6217802
171.3922805
165.3476166
159.491142
153.8150767
148.3223551
143.005012
137.8662856
132.8979859
128.1036229
123.4754761
119.0176811
114.723463
110.5965552
106.6310701
102.8299874
99.18809801
95.71151869
92.40430248
89.20372856
355.9220533
354.6901796
353.1600386
349.9452715
346.038848
341.3951674
336.0909209
330.2281791
323.9013049
317.1872239
310.161059
302.9041141
295.470146
287.9124615
280.2888395
272.6297721
264.9778138
257.3597604
249.8014012
242.3273476
234.9494618
227.6899842
220.5515787
213.5532553
206.6923153
199.9850477
193.4263258
187.0285471
180.7851522
174.705864
168.7836775
163.0255168
157.4252907
151.9874997
146.70646
141.5851355
136.6191388
131.8105065
127.1557419
122.6564966
118.3102094
114.1186489
110.0795237
106.1944012
102.4609053
98.87998354
95.44839286
92.17182608
89.05581485
86.03017517
327.7538695
326.5679013
325.3338605
322.4034435
318.8978786
314.7371285
309.9860924
304.739685
299.0755557
293.0664165
286.7868825
280.2989163
273.6517862
266.9001749
260.0827907
253.2328618
246.3888985
239.5673606
232.7985194
226.0935392
219.4721163
212.9433328
206.5185609
200.2047658
194.0084387
187.9351442
181.9883995
176.1715332
170.4865566
164.9351425
159.5184794
154.2371002
149.0922922
144.0831929
139.2111403
134.4749129
129.8765803
125.4146191
121.0913807
116.9053919
112.85942
108.952214
105.1858936
101.5591426
98.07340737
94.72657451
91.51857189
88.45264154
85.53792752
82.69614209
300.2465313
299.1135273
298.1462364
295.4868628
292.3550951
288.6437236
284.4077814
279.7287133
274.6793318
269.3287113
263.7432852
257.9711357
252.0614187
246.0619154
240.0015923
233.9170983
227.8319699
221.7673906
215.7456327
209.7748796
203.8760638
198.050036
192.3129468
186.6632454
181.1131325
175.6604614
170.3142859
165.0713244
159.9394391
154.9144148
150.0032499
145.2016617
140.5164508
135.9426998
131.4872159
127.1454406
122.9245558
118.8203599
114.8395061
110.97852
107.2436915
103.6318216
100.1481285
96.78909986
93.55920272
90.45364894
87.47520042
84.62496235
81.91535596
79.2621158
273.7034242
272.6282894
271.8911521
269.4832936
266.6952201
263.3960864
259.6288637
255.4703478
250.986809
246.2460075
241.2964503
236.1840439
230.9587252
225.6526716
220.2962524
214.9220761
209.5453797
204.1907495
198.8688866
193.5941251
188.3758548
183.2205461
178.1363595
173.1249975
168.1939878
163.3425427
158.5767697
153.8947216
149.3018144
144.7957869
140.3813435
136.057016
131.8267624
127.6896788
123.6494857
119.7063942
115.8639684
112.1230458
108.487009
104.9569841
101.5361444
98.22513149
95.0263844
91.93980593
88.96706625
86.10611203
83.3577367
80.72502259
78.22056675
75.75755941
248.3640075
247.3489253
246.8037029
244.6293251
242.1515489
239.2243876
235.8832718
232.1986337
228.236188
224.0466411
219.6757773
215.1693401
210.566601
205.8953618
201.1877826
196.4643798
191.7429318
187.0428041
182.3703083
177.7424085
173.1599493
168.6334216
164.1631068
159.7554836
155.4106321
151.1324813
146.920486
142.7776332
138.7032048
134.699869
130.7672481
126.9084935
123.1231717
119.4149143
115.7838602
112.2344883
108.7672239
105.3868571
102.0939183
98.893255
95.78531683
92.77395653
89.8591094
87.04362553
84.32682131
81.7092829
79.18950193
76.77338896
74.47199849
72.19912866
224.4062437
223.4549675
223.065975
221.1047274
218.9073758
216.3162781
213.3600282
210.1072983
206.6119852
202.919265
199.0716379
195.1134048
191.0728646
186.978363
182.8577682
178.7257437
174.6025521
170.4982839
166.4232586
162.3864728
158.3905978
154.4432892
150.5425729
146.6957713
142.8985121
139.1572978
135.4667163
131.8329465
128.250645
124.7258453
121.254271
117.8420912
114.4858759
111.1918898
107.9582571
104.7915078
101.6907337
98.6623947
95.70606561
92.82800201
90.02767537
87.3103523
84.67483043
82.12567144
79.66057345
77.28224343
74.98729946
72.78412999
70.68223872
68.59663989
201.958581
201.0734634
200.8103369
199.0464917
197.1020007
194.8124462
192.2038012
189.3365013
186.2578323
183.0093158
179.6335927
176.1634665
172.6259033
169.0500353
165.4542312
161.8544669
158.2677981
154.7001863
151.164273
147.6619461
144.1993577
140.7777069
137.398928
134.0639587
130.7722831
127.5244848
124.3190658
121.1568394
118.036186
114.9584495
111.922904
108.9313573
105.9839815
103.0833743
100.2310015
97.4301143
94.68295346
91.99304495
89.36296894
86.79626609
84.29503496
81.86217997
79.4989899
77.20782005
74.98861794
72.84216621
70.76688655
68.77070517
66.86345489
64.96088097
181.1101864
180.29282
180.1289482
178.5460748
176.8272967
174.8080453
172.5081502
169.9821127
167.2732422
164.421478
161.4630425
158.4255465
155.3359142
152.218379
149.0877724
145.9617391
142.8502136
139.7614489
136.7039051
133.6784181
130.6920662
127.7416799
124.8317684
121.9585653
119.1242043
116.3248669
113.5618494
110.8316961
108.1355869
105.4710456
102.8399329
100.2405594
97.67566075
95.14479374
92.65185357
90.19730617
87.78572755
85.41809379
83.0992561
80.83037931
78.61562565
76.4557984
74.35419509
72.31124687
70.32889091
68.40613251
66.54329497
64.74693816
63.02844677
61.30326739
161.9059987
161.1559304
161.0673439
159.6486467
158.1317983
156.3511271
154.3233784
152.0988911
149.7174721
147.2165492
144.6246127
141.9676313
139.2727211
136.5568343
133.83542
131.1240803
128.4293421
125.7614249
123.1235107
120.5194392
117.9512809
115.4184915
112.9225353
110.4602433
108.032517
105.6348854
103.2684599
100.9284379
98.61633666
96.32819233
94.0661882
91.82732628
89.61466282
87.42671879
85.26752366
83.13674068
81.03900707
78.97467056
76.94869098
74.96152875
73.01769441
71.11717971
69.26406802
67.45758296
65.70105314
63.99202972
62.33241677
60.7274975
59.18982154
57.63596878
144.3476265
143.6628547
143.6301385
142.3612412
141.0215533
139.4507828
137.6630462
135.7044133
133.6129804
131.418141
129.1465835
126.8239836
124.4717885
122.105335
119.7409356
117.3887849
115.0566681
112.7530353
110.4792355
108.2408628
106.0363165
103.8675211
101.7324191
99.63034702
97.55880878
95.51588542
93.4992072
91.50645822
89.53590596
87.58578689
85.65512231
83.74299317
81.84957204
79.97523861
78.12127642
76.28906797
74.4806856
72.69815406
70.94403722
69.22030185
67.52936357
65.87274355
64.25262472
62.66972897
61.12563268
59.61929133
58.15183852
56.72884764
55.36266222
53.97291863
128.4032005
127.7816306
127.7883375
126.6537268
125.4708258
124.0851206
122.508764
120.7852837
118.946404
117.0185805
115.0263493
112.9943344
110.9388162
108.8751589
106.818042
104.7750443
102.7554929
100.7639789
98.80383636
96.87823489
94.98611723
93.12962272
91.3050555
89.51341034
87.74984862
86.01436126
84.30212974
82.61268875
80.94191619
79.28965579
77.65253654
76.03112398
74.42329325
72.83071462
71.25240202
69.69091423
68.14613793
66.62124116
65.11669997
63.63553947
62.17831391
60.74765408
59.34404357
57.96939595
56.62377351
55.30741014
54.02017407
52.76870147
51.56352898
50.32996895
114.0133737
113.4517778
113.4860111
112.4729745
111.4287377
110.2059751
108.8162622
107.298129
105.6792485
103.9837538
102.2355154
100.4536731
98.65378465
96.85138082
95.05694289
93.27862791
91.52518879
89.79927843
88.10586087
86.44546732
84.81929244
83.2269874
81.66705069
80.13837072
78.6378323
77.16407468
75.71316124
74.28383165
72.87228266
71.47767826
70.09668779
68.72925347
67.3731013
66.02917328
64.69620022
63.37598549
62.06805182
60.77489667
59.49644365
58.23530355
56.99134767
55.76720988
54.5623878
53.37936805
52.21702004
51.07653783
49.95668668
48.8648324
47.8097252
46.72308787
101.1015076
100.5963535
100.6489221
99.74551298
98.8235617
97.74459115
96.5185283
95.17931253
93.75205347
92.2592044
90.72171545
89.15570845
87.57622166
85.99704251
84.42670464
82.87435995
81.34580784
79.84485487
78.37575512
76.93840184
75.53542148
74.16473054
72.82665185
71.51843403
70.23890244
68.98496995
67.75461493
66.54487068
65.35359903
64.17815469
63.01669699
61.86734483
60.72905109
59.60083574
58.48244497
57.37371823
56.27508002
55.1870652
54.11034184
53.04570246
51.9937892
50.95554675
49.93127711
48.92187043
47.9270403
46.94711012
45.98112601
45.03603809
44.11929165
43.16936309
89.57625343
89.12353901
89.1873464
88.38229874
87.56856994
86.61593479
85.53272123
84.3498772
83.08980888
81.77362383
80.4179495
79.03794056
77.64832273
76.2595182
74.88014416
73.51912706
72.18040368
70.86907567
69.58744775
68.33707195
67.11922243
65.93286901
64.77829995
63.65274491
62.55597859
61.48414195
60.43664808
59.40944202
58.40171979
57.40963983
56.43255015
55.46727462
54.51371729
53.56944787
52.63496589
51.70855255
50.79125695
49.88198118
48.98188933
48.09021183
47.208099
46.33499972
45.47177549
44.61794298
43.77392684
42.93894276
42.11279893
41.3010271
40.51083163
39.68654759
79.33600726
78.93146429
79.00139965
78.28491932
77.56636008
76.72423457
75.7663455
74.72043935
73.6072321
72.44388373
71.2456044
70.02663687
68.79961184
67.57353526
66.35744159
65.15783875
63.97921631
62.82666628
61.70145083
60.60641564
59.54151361
58.50732278
57.50298846
56.52752052
55.5795116
54.65692336
53.75808124
52.88050847
52.02244841
51.181299
50.35554633
49.54292959
48.74240681
47.95217265
47.1716997
46.39964511
45.63601012
44.87974846
44.13110418
43.38912499
42.65429158
41.92557706
41.20356412
40.48700737
39.77664604
39.0707711
38.3697654
37.67780869
37.00170277
36.29202619
70.2741821
69.91370916
69.98648896
69.34871377
68.71384364
67.96903224
67.12135489
66.19599057
65.21084159
64.18054254
63.11891323
62.03949945
60.95214359
59.86557566
58.7885063
57.72574574
56.68264946
55.66269662
54.66812523
53.70138522
52.76239739
51.85267923
50.97068176
50.11680277
49.28889463
48.48641422
47.70698397
46.94954293
46.21158094
45.49183301
44.78796891
44.09887556
43.42253838
42.75809595
42.10389134
41.45935229
40.8232002
40.1949451
39.57350605
38.95841208
38.34879228
37.74407092
37.1434973
36.54634788
35.9521904
35.35981295
34.76897462
34.18336357
33.60868799
33.00247611
62.28301103
61.96235889
62.03536316
61.46804813
60.90718621
60.24824842
59.49783172
58.67860239
57.80524832
56.89109334
55.94900363
54.99013131
54.02335331
53.05731242
52.09863217
51.15225471
50.22363495
49.31504373
48.4296852
47.56891815
46.73392255
45.92526126
45.14269195
44.38619257
43.6544987
42.94716746
42.26238328
41.59941178
40.95610507
40.3316237
39.7238296
39.131969
38.5540203
37.98937364
37.43615377
36.89394823
36.36098263
35.83686902
35.3198027
34.8094886
34.30406597
33.80326746
33.30521099
32.80957959
32.31493003
31.8205377
31.32530776
30.83293534
30.34716528
29.83346975
55.25661559
54.97189341
55.04373565
54.53942616
54.04405852
53.46104528
52.79688944
52.07059528
51.2953983
50.48310888
49.64550701
48.79148496
47.92940087
47.06731821
46.21038704
45.36399495
44.5321536
43.71763355
42.92354176
42.15077191
41.40132711
40.67508402
39.97292587
39.29421077
38.6389526
38.00617647
37.39537108
36.80528703
36.23509193
35.68345237
35.14946439
34.63180344
34.12956198
33.64144574
33.16656453
32.70367562
32.25177784
31.80954835
31.37582803
30.94926941
30.52852751
30.11223159
29.6988802
29.28739065
28.87634291
28.46471923
28.05119247
27.63905512
27.23037983
26.79826033
49.09384555
48.84137527
48.9112874
48.46319364
48.0258461
47.51041244
46.92198544
46.27764636
45.58894327
44.8667067
44.12031242
43.35797073
42.58759671
41.81541636
41.04645158
40.28601899
39.53694718
38.80262802
38.08515287
37.38621035
36.7071891
36.04857253
35.41122192
34.79476485
34.19964375
33.62500612
33.07096839
32.53635831
32.02107181
31.52385243
31.04449606
30.58171827
30.13523125
29.70371558
29.28680926
28.88309289
28.49197114
28.11178953
27.74174762
27.37992326
27.02533522
26.67579942
26.33026746
25.98676481
25.64430369
25.30105496
24.95625922
24.6117813
24.26921164
23.90785896
43.69923555
43.47557164
43.54317971
43.1452215
42.75959367
42.30361489
41.7821652
41.21030687
40.59826485
39.95527075
39.2892019
38.6075697
37.91743854
37.22382851
36.53186388
35.8455553
35.16790937
34.5021946
33.84987597
33.21319772
32.59285671
31.99015548
31.40532623
30.83897408
30.29101457
29.76164258
29.25050588
28.75755223
28.28228994
27.82459637
27.38389451
26.96001901
26.55229315
26.16049551
25.78381479
25.42180936
25.0733713
24.73773481
24.41346503
24.09939514
23.7937459
23.49499222
23.20132354
22.91117059
22.62293981
22.33500214
22.04635444
21.75817042
21.47123459
21.17071502
38.98408564
38.78605444
38.85134942
38.49824541
38.15809884
37.75476724
37.29271571
36.78515907
36.24120304
35.6681235
35.07307165
34.46298557
33.84332294
33.21882935
32.59436055
31.97285087
31.3576443
30.75103303
30.15496664
29.57112732
29.00048081
28.44424525
27.90271529
27.37673825
26.86625943
26.37183553
25.89321417
25.43075481
24.98419901
24.55379449
24.13932716
23.74093349
23.35841668
22.99178926
22.64075757
22.30502632
21.98402743
21.67706478
21.38314643
21.10106945
20.82933522
20.56639395
20.31048055
20.0599912
19.81312457
19.56841113
19.32444
19.08225009
18.84115077
18.59252574
34.75495888
34.44150148
34.14168014
33.78508611
33.37580568
32.92565064
32.44182468
31.93078814
31.39893536
30.85213127
30.29492829
29.73194027
29.16681044
28.60250504
28.04208829
27.48723415
26.94020866
26.40199058
25.8740963
25.35708285
24.85193205
24.35891982
23.87874205
23.41144416
22.9576026
22.51715652
22.09072729
21.67820833
21.28028783
20.89688039
20.52861449
20.17547961
19.837871
19.51565593
19.20887222
18.91706704
18.63972863
18.37587254
18.1244211
17.88393283
17.65292991
17.42968235
17.2126256
16.9999436
16.79064103
16.58464391
16.38101303
16.17554116
)
;

boundaryField
{
    front_top
    {
        type            wedge;
    }
    front_middle
    {
        type            wedge;
    }
    front_bottom
    {
        type            wedge;
    }
    back_top
    {
        type            wedge;
    }
    back_middle
    {
        type            wedge;
    }
    back_bottom
    {
        type            wedge;
    }
    axis_top
    {
        type            symmetryPlane;
    }
    axis_middle
    {
        type            symmetryPlane;
    }
    axis_bottom
    {
        type            symmetryPlane;
    }
    wall_top
    {
        type            calculated;
        value           nonuniform List<scalar> 
23
(
87.61483728
84.52352787
81.2767209
77.93287391
74.5196683
71.05133602
67.53788101
63.98966642
60.41773449
56.83393846
53.25202293
49.68628653
46.15252295
42.66755776
39.24883697
35.91353204
32.67844283
29.55845364
26.56695819
23.71518713
21.01206331
18.46315112
16.07123479
)
;
    }
    wall_middle
    {
        type            calculated;
        value           nonuniform 0();
    }
    wall_bottom
    {
        type            calculated;
        value           nonuniform 0();
    }
    inlet
    {
        type            calculated;
        value           nonuniform 0();
    }
    outlet
    {
        type            calculated;
        value           nonuniform 0();
    }
    procBoundary6to5
    {
        type            processor;
        value           nonuniform List<scalar> 
51
(
34.86719256
34.69197015
34.69197015
31.18041791
30.90220354
30.63817026
30.32310088
29.96088039
29.56159625
29.13122332
28.67542796
28.199995
27.70940774
27.20790313
26.69962903
26.18734619
25.674139
25.16215288
24.65337053
24.14940364
23.65144337
23.16066723
22.67774451
22.20350677
21.73839247
21.28295715
20.83755052
20.40256828
19.9784607
19.56555646
19.16448448
18.77553294
18.39956032
18.03686605
17.68830789
17.35421576
17.0352275
16.7315818
16.44346285
16.1707316
15.91298964
15.66960766
15.43956212
15.22170386
15.01453539
14.81654403
14.62610406
14.44204517
14.26395134
14.089742
13.91997814
)
;
    }
    procBoundary6to7
    {
        type            processor;
        value           nonuniform List<scalar> 
51
(
441.0456935
439.6678067
437.1057476
432.9408024
427.6984014
421.4481159
414.3122141
406.4135264
397.8703788
388.7989189
379.3168174
369.5086783
359.4616143
349.2699487
338.9874436
328.6830178
318.408469
308.2025259
298.1162225
273.5868146
273.5868146
264.6303585
255.8365669
247.2266538
238.8063691
230.5920382
222.5838791
214.7939741
207.2196926
199.8680255
192.7348118
185.8232252
179.1284168
172.6504422
166.3848326
160.3287305
154.4778364
148.8280516
143.3757816
138.1160977
133.046015
128.1606103
123.4580112
118.9341136
114.587349
110.4144175
106.4139551
102.5836324
98.92495012
95.44309418
92.08423961
)
;
    }
}


// ************************************************************************* //
