/*--------------------------------*- C++ -*----------------------------------*\
  =========                 |
  \\      /  F ield         | OpenFOAM: The Open Source CFD Toolbox
   \\    /   O peration     | Website:  https://openfoam.org
    \\  /    A nd           | Version:  7
     \\/     M anipulation  |
\*---------------------------------------------------------------------------*/
FoamFile
{
    version     2.0;
    format      ascii;
    class       volVectorField;
    location    "0.0027";
    object      grad(generalizedNewtonian:nu);
}
// * * * * * * * * * * * * * * * * * * * * * * * * * * * * * * * * * * * * * //

dimensions      [0 1 -1 0 0 0 0];

internalField   nonuniform List<vector> 
1167
(
(-39990.58751 0 929064.5476)
(-76917.42492 0 927397.9865)
(-129607.5566 0 915816.4244)
(-183362.7853 0 905116.3321)
(-226102.8079 0 890099.0831)
(-267600.3465 0 872128.7533)
(-305877.2524 0 851687.2711)
(-340380.0901 0 829005.8214)
(-370970.4205 0 804293.6841)
(-397876.2599 0 777914.8094)
(-421533.2895 0 750503.8861)
(-441798.6814 0 722117.3708)
(-458858.2881 0 692903.5753)
(-473302.4104 0 663563.6692)
(-484921.3273 0 633971.9486)
(-494196.8646 0 604512.8015)
(-501453.1036 0 575431.2343)
(-506698.4346 0 546623.983)
(-510309.216 0 518637.3359)
(-38539.53873 0 949682.7509)
(-67489.68334 0 948142.7918)
(-115909.3168 0 936916.9481)
(-166937.4751 -1.236282905e-08 926672.5225)
(-204881.8703 9.886444946e-09 912185.5402)
(-242465.7314 -8.317016068e-09 894788.5975)
(-277012.1164 0 874843.0876)
(-307999.1803 0 852614.6732)
(-335509.6096 0 828399.1875)
(-359927.6499 5.381171342e-09 802771.3841)
(-381331.3317 0 776003.7671)
(-399543.1309 0 748111.5924)
(-415115.0729 2.222097113e-09 719665.8663)
(-428270.0511 0 690890.714)
(-439027.2904 0 661760.4745)
(-447882.3131 -1.946885071e-09 632897.4401)
(-454718.5711 1.880025665e-09 604136.109)
(-459960.5803 0 575847.7963)
(-463726.1911 0 548081.2354)
(-466155.0818 0 520938.2342)
(-467466.1857 0 494637.413)
(-467725.3406 0 469074.3145)
(-467120.5664 -1.625783291e-09 444556.7999)
(-465725.971 0 420864.9202)
(-463649.7116 0 398314.8533)
(-460950.2046 7.785870042e-10 376639.5386)
(-457710.704 0 356125.1093)
(-454020.5649 0 336521.7646)
(-449912.3976 0 318054.7023)
(-445467.3088 0 300493.2471)
(-440710.4061 0 284006.3111)
(-435693.4777 0 268398.4834)
(-430420.4309 -7.390470455e-10 253771.4183)
(-424963.2686 0 239976.5218)
(-419322.1862 0 227059.9838)
(-413516.1006 0 214901.705)
(-407518.8364 0 203505.5355)
(-401351.7431 -3.666066822e-10 192778.6832)
(-394988.7852 -3.668387202e-10 182696.2613)
(-388423.3908 0 173182.0886)
(-381612.6008 0 164195.7842)
(-374526.2932 0 155677.7586)
(-367162.5135 0 147596.8861)
(-359489.2858 0 139901.8715)
(-351521.5299 -3.728581696e-10 132576.5414)
(-343233.1561 -3.745508194e-10 125583.2)
(-334456.6161 0 118936.445)
(-324740.9688 0 112567.0754)
(-317446.1279 0 106468.9936)
(-315894.073 0 100914.5999)
(-37198.93294 0 958919.672)
(-58667.81673 0 957391.3898)
(-103056.8903 1.709737216e-08 946868.7739)
(-151537.9151 0 937017.9856)
(-184734.798 -1.004040916e-08 923120.4214)
(-218387.4939 0 906302.8773)
(-249340.6688 3.674309026e-09 887036.1315)
(-277012.1085 0 865554.7861)
(-301747.2269 2.970347874e-09 842332.0759)
(-323770.0175 0 817727.618)
(-342781.3773 0 791813.2069)
(-359136.3482 2.385961335e-09 764916.134)
(-373332.443 4.513404834e-09 737522.619)
(-385124.0838 0 709578.771)
(-394975.015 0 681470.6336)
(-403132.7419 1.977204426e-09 653406.1489)
(-409613.0328 0 625355.7301)
(-414760.6578 0 597803.5177)
(-418556.3949 -1.799294213e-09 570536.469)
(-421323.4026 -1.754601127e-09 543979.6964)
(-423054.362 0 517981.3222)
(-423981.272 0 492813.2473)
(-424132.2284 0 468402.1404)
(-423653.9828 0 444907.2047)
(-422571.6331 0 422278.7095)
(-420957.3832 -7.907121449e-10 400611.515)
(-418885.8594 7.819254163e-10 379862.9415)
(-416406.0812 -7.743168816e-10 360100.7647)
(-413567.3653 0 341254.4778)
(-410390.8468 0 323388.2755)
(-406941.439 0 306402.9119)
(-403194.3018 7.536641476e-10 290357.9478)
(-399211.8624 0 275128.9983)
(-394985.4952 0 260788.2649)
(-390554.2577 0 247180.8038)
(-385874.1677 0 234377.4925)
(-380966.0002 -3.723346634e-10 222208.1422)
(-375796.6235 0 210753.6405)
(-370367.9054 0 199835.4545)
(-364640.6105 3.730285062e-10 189538.0736)
(-358595.8014 -3.737349942e-10 179683.9988)
(-352217.9277 0 170364.4725)
(-345500.7065 0 161428.9844)
(-338442.9619 0 152963.0774)
(-331058.2755 -3.786647882e-10 144842.6083)
(-323382.9059 0 137153.8968)
(-315178.9011 0 129809.8546)
(-306012.7179 -1.921808966e-10 122859.3953)
(-299592.8748 0 116216.0885)
(-299088.3459 0 110143.4437)
(-35812.7232 0 956735.414)
(-50559.94621 0 955035.3293)
(-91058.10514 0 945366.2513)
(-136851.6075 6.375448112e-09 935823.1894)
(-165629.5046 0 922513.7769)
(-195638.8777 0 906495.8406)
(-223220.7254 7.463065678e-09 888141.338)
(-247947.3357 0 867805.5758)
(-270099.4353 0 845857.3346)
(-289557.2191 0 822431.4666)
(-306410.108 0 797678.3278)
(-321103.3768 0 772168.1293)
(-333659.6717 2.291848377e-09 745979.362)
(-344227.8574 0 719208.0827)
(-353226.9021 2.088041326e-09 692348.2159)
(-360554.6008 0 665293.8659)
(-366578.2102 0 638373.3142)
(-371416.0075 0 611681.0178)
(-375167.5662 0 585279.0724)
(-378048.4425 0 559448.4202)
(-380081.0223 0 534034.0531)
(-381452.6489 0 509402.9162)
(-382194.0954 8.384081805e-10 485323.7524)
(-382417.1695 0 462149.4424)
(-382138.1074 0 439624.3964)
(-381425.7858 0 418065.0418)
(-380329.5537 0 397228.0929)
(-378881.2636 0 377382.6735)
(-377119.6133 0 358281.3034)
(-375059.1584 0 340163.2294)
(-372727.1889 0 322788.1119)
(-370108.6515 7.654017384e-10 306348.3402)
(-367244.6019 0 290622.6022)
(-364121.8379 0 275772.5792)
(-360747.6885 0 261583.815)
(-357082.0686 0 248185.4677)
(-353130.6112 0 235378.895)
(-348867.5754 0 223271.1843)
(-344284.7497 0 211688.1096)
(-339348.7004 0 200717.6154)
(-334042.5946 -7.591111112e-10 190207.8285)
(-328376.035 0 180243.9772)
(-322343.7811 -3.816488848e-10 170697.1797)
(-315959.3242 0 161654.6439)
(-309251.5735 0 152998.8711)
(-302277.5606 3.863079081e-10 144828.3816)
(-294779.0123 0 137040.0212)
(-286292.7929 0 129712.59)
(-280812.7856 1.963159762e-10 122727.7297)
(-281346.8199 1.975431688e-10 116327.158)
(-34213.35831 0 943231.3337)
(-43060.02627 0 941296.2575)
(-79898.71482 0 932628.5629)
(-123045.0327 0 923510.7999)
(-147835.9881 0 910992.2301)
(-174463.3191 0 895959.1446)
(-199054.1684 0 878794.5596)
(-221081.3559 0 859813.5173)
(-240631.7884 0 839214.8534)
(-257679.6956 0 817084.6784)
(-272574.2017 0 793879.9803)
(-285573.9738 0 769879.4144)
(-296564.6213 0 745071.1914)
(-305944.0486 0 719849.2781)
(-313874.9287 0 694357.7117)
(-320425.5527 0 668608.3164)
(-325916.4872 0 643006.3903)
(-330314.3541 0 617410.2758)
(-333925.6544 0 592162.0186)
(-336722.0782 9.048388921e-10 567205.068)
(-338890.1266 0 542721.0252)
(-340509.9353 0 518753.6086)
(-341644.4021 0 495360.5945)
(-342366.3824 0 472632.2451)
(-342690.4307 0 450551.873)
(-342678.7696 0 429229.1239)
(-342366.0546 0 408619.9306)
(-341761.8172 0 388815.3035)
(-340898.1725 0 369756.9363)
(-339778.2077 0 351512.4358)
(-338407.0865 0 334021.5254)
(-336767.0652 0 317318.1089)
(-334883.8542 0 301356.6971)
(-332732.8091 0 286136.9237)
(-330303.994 0 271618.3586)
(-327557.4141 0 257774.9094)
(-324480.5024 0 244581.6672)
(-321066.6979 -3.840028845e-10 231996.3849)
(-317286.2371 0 220002.0856)
(-313126.54 0 208552.5149)
(-308573.0182 0 197641.4809)
(-303644.3479 0 187235.1684)
(-298350.9511 0 177328.7998)
(-292702.0553 0 167900.342)
(-286754.2089 0 158946.6728)
(-280566.1253 0 150466.0148)
(-273861.6934 -3.942844083e-10 142443.9087)
(-266149.1113 0 134882.5869)
(-261617.3254 0 127722.2012)
(-263079.8392 0 121111.0269)
(-32465.88216 0 919461.3207)
(-36383.84908 0 917370.8396)
(-69855.01548 0 909894.8452)
(-110306.7114 0 901300.6852)
(-131497.4686 0 889713.1507)
(-155126.5367 0 875818.4148)
(-176962.3347 0 859963.3066)
(-196388.2537 0 842343.2647)
(-213419.3063 0 823083.2796)
(-228328.9544 0 802511.0825)
(-241478.0357 0 780990.5982)
(-252707.5908 0 758563.007)
(-262254.4082 0 735405.0769)
(-270492.1008 0 711869.4102)
(-277322.5574 0 687899.3472)
(-283071.3814 1.035514108e-09 663781.9366)
(-287865.5554 0 639617.7658)
(-291787.4424 0 615440.2316)
(-295056.4863 0 591531.2623)
(-297676.4967 0 567735.6965)
(-299834.6646 1.796885502e-09 544409.1891)
(-301536.9428 0 521381.0813)
(-302905.4971 0 498932.6448)
(-303932.784 0 476921.3452)
(-304686.7311 0 455562.4044)
(-305187.9539 0 434747.6667)
(-305470.3931 0 414647.7834)
(-305536.0994 0 395151.1529)
(-305394.5789 0 376410.3639)
(-305051.1572 0 358303.0022)
(-304477.219 0 340960.1912)
(-303681.3344 -3.947137927e-10 324249.9122)
(-302639.6149 3.930861937e-10 308300.6048)
(-301343.845 0 292960.6653)
(-299746.0163 0 278348.3549)
(-297834.1157 0 264303.5552)
(-295573.4845 3.900029677e-10 250945.9625)
(-292952.3183 0 238116.3474)
(-289945.9614 0 225923.1759)
(-286543.2885 3.907297353e-10 214219.0662)
(-282750.2921 0 203107.4818)
(-278579.1017 0 192463.517)
(-274049.2821 0 182380.7729)
(-269178.2436 0 172746.5393)
(-264045.4951 0 163652.0513)
(-258679.3828 0 155002.0614)
(-252833.0355 0 146872.3071)
(-245916.8353 0 139177.4954)
(-242336.3471 -2.024783055e-10 131942.0874)
(-244612.9194 0 125199.9746)
(-30652.47152 0 887216.5352)
(-30617.9696 0 884986.408)
(-60921.32754 0 878724.3451)
(-98684.6678 0 870687.6395)
(-116751.3927 0 860058.0897)
(-137604.5937 0 847317.5819)
(-156863.6176 0 832724.8295)
(-173766.5831 0 816425.426)
(-188608.6259 0 798643.676)
(-201701.5562 0 779784.5193)
(-213039.8158 -2.703854218e-09 759956.1624)
(-222672.7387 0 739187.6857)
(-230940.3903 0 717868.6413)
(-237921.3102 0 696067.3212)
(-243735.384 0 673829.5965)
(-248680.6562 0 651477.6251)
(-252730.3781 0 628920.955)
(-256153.6104 0 606421.0866)
(-258961.5785 0 583983.7255)
(-261291.156 0 561706.4219)
(-263282.8693 0 539708.6803)
(-264946.8364 0 517970.1148)
(-266373.3317 0 496672.3799)
(-267563.3215 0 475714.8572)
(-268576.2886 0 455311.3452)
(-269427.8963 0 435330.9093)
(-270135.0091 0 415980.6657)
(-270700.6106 0 397114.5793)
(-271123.9305 4.083664625e-10 378926.1245)
(-271390.5219 0 361266.2004)
(-271471.9034 0 344296.3097)
(-271365.5473 0 327879.1924)
(-271040.3931 0 312147.6506)
(-270469.6173 0 296972.9019)
(-269604.7669 0 282455.4724)
(-268425.9188 0 268481.9208)
(-266900.6147 0 255132.5022)
(-265013.5424 0 242306.3236)
(-262739.9182 0 230071.6674)
(-260070.5089 3.968146482e-10 218336.5185)
(-257023.9124 0 207167.27)
(-253610.0852 0 196480.9181)
(-249852.5491 0 186342.8211)
(-245768.8829 0 176669.2858)
(-241445.6764 0 167531.7113)
(-236915.6528 0 158844.4789)
(-231916.8916 0 150682.6902)
(-225829.3648 0 142950.8772)
(-223160.4377 0 135704.7256)
(-226275.9352 0 128911.3158)
(-28725.71819 0 848149.7834)
(-25672.671 0 845773.4965)
(-53106.32276 0 840620.633)
(-88141.14522 0 833117.6834)
(-103427.2216 0 823372.2992)
(-121776.6278 0 811720.7341)
(-138618.4788 0 798335.2958)
(-153334.5135 0 783399.6525)
(-166302.9949 0 767249.9779)
(-177662.0117 2.951992148e-09 750053.9167)
(-187319.2525 0 731868.4553)
(-195527.1227 2.577629631e-09 712931.5737)
(-202573.5903 -1.218993563e-09 693466.8732)
(-208395.5653 0 673449.9982)
(-213279.8099 0 653133.8107)
(-217352.632 0 632600.3098)
(-220698.4309 0 611863.5068)
(-223536.3609 0 591167.7264)
(-225866.9041 0 570397.4799)
(-227879.8635 0 549828.2668)
(-229587.0486 9.266443475e-10 529362.8211)
(-231117.0379 0 509171.5266)
(-232456.7538 0 489223.2916)
(-233682.4154 -8.776178562e-10 469620.4365)
(-234798.4359 0 450372.6828)
(-235846.5223 0 431542.3894)
(-236818.5806 0 413145.7353)
(-237723.197 0 395223.6689)
(-238547.4629 0 377791.49)
(-239264.6229 0 360874.5467)
(-239851.5687 0 344478.1529)
(-240284.2677 0 328627.9134)
(-240539.4262 -4.054249412e-10 313311.8237)
(-240562.0262 0 298549.6781)
(-240319.9266 0 284316.46)
(-239772.6269 4.025559089e-10 270635.3695)
(-238898.1531 -4.022449345e-10 257472.579)
(-237669.9696 0 244851.8518)
(-236070.2822 -4.024792941e-10 232735.1571)
(-234093.7611 -4.029945149e-10 221146.9648)
(-231755.8942 -4.037577564e-10 210056.6232)
(-229076.6002 0 199482.0013)
(-226063.475 0 189397.8435)
(-222759.0538 0 179813.7483)
(-219227.8081 2.045417845e-10 170717.6316)
(-215519.0389 0 162106.4727)
(-211349.1837 4.129941182e-10 153981.0308)
(-206087.7572 2.07619112e-10 146304.8719)
(-204297.9173 2.08833982e-10 139100.0647)
(-208186.0317 -2.101394261e-10 132331.0817)
(-26727.9255 0 803616.4276)
(-21439.77207 0 801129.9967)
(-46205.8403 0 796954.1624)
(-78534.93087 0 789931.527)
(-91447.19345 0 781050.1005)
(-107521.5398 0 770437.5359)
(-122249.516 0 758257.0553)
(-135106.4057 0 744771.4316)
(-146382.2311 0 730176.8551)
(-156068.486 0 714570.2552)
(-164279.2515 -1.394364071e-09 698069.1263)
(-171296.4083 0 680982.4412)
(-177126.8071 -2.475955732e-09 663335.5341)
(-181924.3733 0 645205.5736)
(-185956.9471 0 626833.7439)
(-189208.5423 0 608164.6472)
(-191908.9598 0 589390.5949)
(-194131.7213 1.015133334e-09 570544.7865)
(-195973.9019 0 551662.6746)
(-197585.9728 0 532894.9045)
(-198980.4393 0 514160.0199)
(-200264.7182 0 495658.7042)
(-201441.3548 0 477270.7769)
(-202579.3326 0 459201.8778)
(-203685.8753 -4.393049439e-10 441331.3839)
(-204792.5149 0 423850.7002)
(-205889.189 0 406635.4422)
(-206982.5192 0 389864.3259)
(-208051.29 4.211850768e-10 373416.3716)
(-209066.9404 0 357449.4477)
(-210007.651 0 341849.7532)
(-210840.2232 0 326763.0621)
(-211527.8233 0 312075.0533)
(-212017.3165 0 297910.1777)
(-212271.8026 0 284161.4195)
(-212250.9739 0 270941.293)
(-211928.2369 0 258148.0977)
(-211275.8679 0 245883.5903)
(-210275.1663 0 234049.9133)
(-208929.8988 -2.046353256e-10 222741.5343)
(-207248.3274 0 211871.4443)
(-205250.4593 0 201522.4732)
(-202943.7965 0 191611.144)
(-200376.2112 0 182214.1043)
(-197605.8399 -2.077272674e-10 173252.6886)
(-194697.7718 -2.086702788e-10 164795.6019)
(-191305.0002 -2.097129929e-10 156774.0375)
(-186863.255 0 149222.0756)
(-185879.1926 0 142104.6175)
(-190453.3488 0 135413.7842)
(-24682.0422 0 754968.0766)
(-17839.14739 0 752421.734)
(-40169.10149 0 749134.204)
(-69869.70388 0 742628.7452)
(-80727.09042 0 734568.837)
(-94809.55789 0 724978.2577)
(-107735.7964 0 714030.5569)
(-118945.6888 -1.824106387e-09 701915.851)
(-128641.0494 -3.309689307e-09 688775.0882)
(-136884.763 0 674685.5987)
(-143880.5443 0 659914.3846)
(-149766.0305 0 644589.8032)
(-154556.0063 0 628708.9923)
(-158493.729 1.196773451e-09 612501.9596)
(-161685.8967 0 596023.146)
(-164223.7278 0 579280.1424)
(-166314.3277 0 562470.9334)
(-167969.3816 0 545515.2754)
(-169374.8387 0 528591.6979)
(-170545.1581 0 511662.8043)
(-171593.6578 0 494806.4202)
(-172576.6493 0 478054.3981)
(-173518.9958 0 461416.4195)
(-174481.6644 4.525830169e-10 444969.1458)
(-175475.2984 0 428686.4149)
(-176521.1761 0 412662.9905)
(-177616.9486 0 396850.1054)
(-178763.3508 0 381353.2176)
(-179935.6409 0 366113.5462)
(-181106.9408 0 351230.8281)
(-182254.6779 0 336650.5398)
(-183341.4211 0 322462.977)
(-184323.3997 0 308614.0851)
(-185147.3139 -4.168096322e-10 295180.44)
(-185775.1205 0 282114.0376)
(-186165.3051 0 269482.2402)
(-186289.9368 4.148712898e-10 257240.1942)
(-186119.1725 2.074252163e-10 245447.5462)
(-185634.5358 0 234059.7417)
(-184843.8459 0 223134.6165)
(-183750.768 0 212626.9414)
(-182373.5251 0 202591.4486)
(-180718.1087 0 192975.6223)
(-178829.0713 0 183838.408)
(-176763.608 0 175116.1404)
(-174586.5975 0 166869.7038)
(-171936.8986 0 159033.4829)
(-168262.6216 0 151657.2996)
(-168021.9979 2.15389222e-10 144689.984)
(-173183.1101 0 138115.5896)
(-22649.83797 0 703724.6491)
(-14839.84336 0 701185.8845)
(-34957.31012 0 698677.2511)
(-62074.40403 0 692667.034)
(-71211.64763 5.68084408e-09 685411.4806)
(-83598.04728 2.389517757e-09 676827.7406)
(-94925.17692 0 667025.1453)
(-104649.2256 -1.852514885e-09 656165.1664)
(-112943.0067 1.680617081e-09 644347.366)
(-119982.2438 0 631774.5006)
(-125951.137 1.438133014e-09 618628.2617)
(-130810.2785 0 604945.5052)
(-134723.9509 -1.276837862e-09 590831.9778)
(-137920.9052 0 576457.2008)
(-140390.1714 0 561792.7781)
(-142329.3755 0 546981.8725)
(-143840.8302 0 532064.9524)
(-144998.2802 0 517038.7897)
(-145952.6987 0 502039.0473)
(-146725.4488 0 486974.7986)
(-147433.2979 4.853079718e-10 472012.0393)
(-148087.3746 0 457053.2447)
(-148767.9605 0 442224.2349)
(-149488.2706 0 427465.3078)
(-150297.4981 0 412865.4396)
(-151187.1579 4.47383402e-10 398387.7816)
(-152180.0086 0 384103.0223)
(-153260.8026 0 369988.7703)
(-154413.7982 0 356101.3246)
(-155612.848 0 342426.4948)
(-156833.8247 0 329019.165)
(-158039.7025 -4.264217168e-10 315864.0855)
(-159181.0628 4.246633705e-10 303010.8093)
(-160211.8764 0 290443.1508)
(-161089.0167 -2.111536432e-10 278211.5471)
(-161774.6489 0 266298.0734)
(-162237.2024 2.106662323e-10 254751.0613)
(-162445.9787 -2.106556413e-10 243550.0886)
(-162388.3884 0 232739.3263)
(-162063.3117 0 222303.0908)
(-161481.8909 2.114585368e-10 212275.1897)
(-160643.8147 0 202641.5297)
(-159575.5103 0 193423.8516)
(-158293.6419 0 184616.1879)
(-156870.4787 0 176225.9122)
(-155359.5068 0 168253.556)
(-153395.6619 0 160683.9505)
(-150443.7069 -2.17471159e-10 153535.754)
(-150847.1801 0 146790.8084)
(-156428.4202 0 140368.599)
(-20678.0787 0 651295.5007)
(-12355.16511 0 648796.8726)
(-30431.87522 0 646946.1487)
(-55125.98574 -3.607213864e-09 641423.7719)
(-62849.83201 0 634932.4668)
(-73720.74013 0 627255.1882)
(-83629.30908 0 618481.145)
(-92014.20745 0 608742.5399)
(-99152.57378 1.706789959e-09 598197.2558)
(-105220.4482 0 587057.9063)
(-110234.3714 0 575401.4431)
(-114257.72 0 563254.1305)
(-117486.7684 -1.296722535e-09 550826.6185)
(-119995.9559 -1.234339975e-09 538149.5417)
(-121879.777 0 525238.2425)
(-123321.6545 1.136120348e-09 512248.332)
(-124339.4885 1.097104007e-09 499125.3133)
(-125089.7812 0 485978.9562)
(-125628.2144 0 472805.7281)
(-126034.4262 0 459619.2899)
(-126399.6561 0 446479.835)
(-126740.5159 0 433335.5116)
(-127130.0367 0 420286.3885)
(-127586.9697 0 407251.6197)
(-128153.0592 0 394342.6757)
(-128831.5035 4.543506709e-10 381472.88)
(-129641.4118 0 368757.3975)
(-130569.0408 0 356111.9793)
(-131602.9105 0 343646.1621)
(-132722.6301 4.379710822e-10 331285.9901)
(-133903.8702 -4.352819556e-10 319139.363)
(-135108.2965 0 307137.0694)
(-136290.4397 0 295379.7798)
(-137407.2801 2.149466095e-10 283806.3338)
(-138417.6189 0 272514.1987)
(-139284.6031 0 261447.1459)
(-139975.3889 0 250697.5035)
(-140460.1115 -2.139362603e-10 240210.5041)
(-140730.3597 4.281433359e-10 230073.2991)
(-140779.8549 0 220236.0792)
(-140616.3182 0 210775.7487)
(-140237.5382 0 201641.0482)
(-139668.6604 -2.159360604e-10 192901.9537)
(-138925.7132 0 184506.1988)
(-138082.6077 0 176517.269)
(-137152.6729 0 168883.0113)
(-135820.3612 0 161643.0917)
(-133526.5667 -2.208579186e-10 154771.0825)
(-134478.0718 0 148306.3716)
(-140264.5507 0 142078.7428)
(-18769.56802 0 598868.3916)
(-10313.17338 0 596436.1418)
(-26566.31246 0 595115.6964)
(-48944.13155 0 590064.3522)
(-55465.77123 0 584231.9203)
(-65017.56425 0 577362.0916)
(-73657.12558 0 569504.8443)
(-80932.31017 0 560809.4633)
(-87131.57076 0 551481.4562)
(-92346.74336 0 541624.6239)
(-96555.15956 -1.483275554e-09 531294.3928)
(-99902.27158 0 520620.5242)
(-102557.3148 0 509718.6562)
(-104517.8463 0 498584.9366)
(-105947.9134 0 487334.9277)
(-106949.3588 0 476008.3805)
(-107581.87 0 464586.5046)
(-107984.9834 0 453183.5065)
(-108184.4091 0 441728.041)
(-108296.1343 -5.119560143e-10 430320.1323)
(-108340.2683 0 418904.3117)
(-108397.3369 0 407525.8909)
(-108495.9945 0 396173.3029)
(-108681.1113 0 384855.9729)
(-108982.4793 0 373585.5087)
(-109412.7995 0 362351.3827)
(-109988.6477 0 351184.0327)
(-110700.7013 0 340063.0147)
(-111541.5991 0 329028.8131)
(-112497.4606 0 318063.4575)
(-113545.0085 0 307213.0289)
(-114649.087 2.199034796e-10 296460.8385)
(-115768.5283 0 285854.8783)
(-116865.8609 0 275384.3509)
(-117902.1714 0 265099.3698)
(-118844.1181 0 254991.918)
(-119658.553 0 245112.072)
(-120318.3954 0 235450.7732)
(-120817.2888 0 226059.9322)
(-121146.1741 -2.176838762e-10 216927.0544)
(-121309.3615 0 208102.2107)
(-121303.6542 0 199563.5939)
(-121149.0946 0 191364.1305)
(-120858.9134 0 183469.0614)
(-120501.1191 0 175931.8004)
(-120082.3083 0 168708.1837)
(-119294.6654 0 161844.9616)
(-117609.7106 0 155306.7847)
(-119005.1721 0 149164.6181)
(-124881.6078 0 143179.6414)
(-16958.52939 0 547380.572)
(-8620.260501 8.215958827e-09 545046.0842)
(-23213.12663 0 544127.6272)
(-43423.53162 -3.720444047e-09 539492.1034)
(-48952.16361 2.975206168e-09 534260.5855)
(-57342.3648 0 528111.1564)
(-64905.75887 0 521088.6281)
(-71267.9786 0 513385.2541)
(-76666.56737 0 505133.4828)
(-81122.05533 0 496413.4892)
(-84697.29549 0 487297.549)
(-87537.89977 0 477955.8172)
(-89684.41593 0 468413.1734)
(-91227.23408 0 458701.5407)
(-92317.87035 0 448943.8439)
(-92972.5233 0 439108.4653)
(-93318.28521 0 429266.528)
(-93434.58329 0 419433.2936)
(-93372.48862 -5.331726182e-10 409590.6685)
(-93225.53924 0 399804.0598)
(-93016.53241 0 389999.7074)
(-92821.76698 0 380262.1952)
(-92664.71806 0 370510.9749)
(-92599.21638 0 360821.1133)
(-92636.53331 -4.745949963e-10 351119.0856)
(-92812.02832 0 341466.6887)
(-93127.49501 -2.317026412e-10 331807.6632)
(-93590.22258 -2.294480559e-10 322192.3224)
(-94191.11308 2.27509766e-10 312580.6648)
(-94925.4054 -2.258594814e-10 303022.7894)
(-95769.91244 2.244727123e-10 293487.7764)
(-96696.66084 2.233281717e-10 284024.8857)
(-97670.49333 0 274612.2871)
(-98660.10088 -2.216937681e-10 265303.3246)
(-99630.34375 -2.211733372e-10 256083.1096)
(-100552.7845 0 247006.3726)
(-101393.9935 0 238062.1303)
(-102136.6255 0 229303.3987)
(-102766.9653 0 220726.1247)
(-103284.1366 2.21074001e-10 212375.3072)
(-103677.2677 0 204248.9576)
(-103959.2375 0 196381.1576)
(-104126.5015 0 188775.272)
(-104205.1431 2.235067469e-10 181452.1648)
(-104245.2944 0 174418.5138)
(-104253.3149 1.127165441e-10 167672.8079)
(-103930.7438 0 161231.3219)
(-102786.3208 -1.138953164e-10 155087.9367)
(-104517.1332 0 149304.5826)
(-110362.5241 2.305558114e-10 143617.1657)
(-15254.15601 0 497568.0027)
(-7214.551054 0 495350.7083)
(-20305.78055 0 494749.3991)
(-38509.22526 0 490514.4201)
(-43205.70563 0 485821.1641)
(-50593.87815 0 480321.3925)
(-57259.16622 0 474081.2487)
(-62849.00075 0 467254.9281)
(-67544.56234 0 459949.7381)
(-71382.21953 0 452227.2572)
(-74461.30362 0 444235.2479)
(-76874.17758 0 436054.5626)
(-78637.61675 0 427702.1212)
(-79880.20169 0 419282.2382)
(-80685.35514 0 410832.5664)
(-81102.28509 0 402337.625)
(-81250.59511 0 393895.3478)
(-81155.42474 0 385455.8305)
(-80915.59497 0 377073.4393)
(-80564.61366 0 368727.0183)
(-80159.18996 0 360415.3865)
(-79760.06699 0 352151.9843)
(-79392.25761 0 343900.6459)
(-79101.15928 0 335694.9056)
(-78904.77027 0 327476.052)
(-78834.23038 0 319294.8254)
(-78894.80238 0 311083.0671)
(-79097.22421 0 302897.6073)
(-79440.055 2.310528521e-10 294677.402)
(-79920.56278 0 286483.5784)
(-80520.62227 0 278261.6191)
(-81218.3136 0 270074.9621)
(-81986.95812 2.258709033e-10 261879.2837)
(-82800.72878 0 253743.2035)
(-83631.53711 0 245630.7336)
(-84453.77546 0 237613.5572)
(-85239.82356 0 229660.6256)
(-85977.62666 0 221845.1247)
(-86653.76031 0 214141.8254)
(-87265.75808 0 206619.5453)
(-87803.161 0 199252.2719)
(-88276.8339 0 192104.8536)
(-88684.76444 0 185149.5461)
(-89050.59308 0 178446.8129)
(-89396.58193 0 171964.9945)
(-89753.83263 0 165744.4273)
(-89805.75666 0 159763.7916)
(-89138.10196 0 154060.6048)
(-91097.51435 -1.163458765e-10 148666.189)
(-96780.26002 0 143323.7712)
(-13670.63276 0 450064.5183)
(-6052.08269 0 447983.8255)
(-17790.69627 0 447625.3708)
(-34134.62885 0 443759.8803)
(-38141.42239 0 439554.3302)
(-44686.42597 0 434657.1701)
(-50579.88878 0 429112.1741)
(-55497.68336 0 423047.4898)
(-59589.07563 0 416553.8482)
(-62938.07351 0 409741.1697)
(-65635.74513 0 402727.7345)
(-67686.24127 0 395552.4063)
(-69170.69088 0 388265.2761)
(-70207.12951 0 380964.9488)
(-70805.58206 0 373641.0098)
(-71067.57256 0 366348.5069)
(-71071.4197 0 359114.1509)
(-70850.10109 0 351911.5578)
(-70488.48849 0 344802.4771)
(-70008.17923 -2.68124719e-10 337725.8893)
(-69479.24298 0 330737.0983)
(-68926.43443 0 323780.9551)
(-68404.52427 0 316881.9965)
(-67928.29863 0 310003.4996)
(-67539.28013 -2.447461964e-10 303150.6193)
(-67250.37707 0 296301.2443)
(-67078.78092 2.389757186e-10 289448.5983)
(-67034.76757 0 282582.1197)
(-67123.0159 2.346512302e-10 275694.2809)
(-67342.39633 0 268783.7982)
(-67681.09965 0 261844.2397)
(-68122.8564 0 254883.1076)
(-68650.01067 0 247900.5982)
(-69242.14972 0 240913.4536)
(-69879.35904 0 233927.618)
(-70539.87561 0 226967.2411)
(-71203.69028 0 220041.3465)
(-71863.41207 0 213182.3739)
(-72507.93759 0 206399.3217)
(-73134.30341 0 199728.065)
(-73734.40555 0 193172.1317)
(-74316.93937 0 186772.1458)
(-74879.57934 0 180522.4344)
(-75439.01828 0 174467.0784)
(-76009.97455 0 168584.9236)
(-76620.25316 0 162917.9857)
(-76971.80005 0 157438.6422)
(-76698.42191 0 152204.1934)
(-78793.4333 0 147227.9771)
(-84207.22398 0 142259.5715)
(-12215.99793 0 405335.5476)
(-5088.161092 4.302911467e-09 403398.2663)
(-15597.64014 5.306756633e-09 403210.2935)
(-30248.40282 0 399697.5835)
(-33701.57885 0 395941.7161)
(-39510.372 0 391577.5855)
(-44725.91561 -1.140447995e-09 386631.541)
(-49049.2931 0 381224.6829)
(-52657.60748 1.84389895e-09 375451.8179)
(-55630.31074 0 369448.7085)
(-57994.93335 0 363274.3375)
(-59776.65321 7.405650426e-10 356962.472)
(-61071.42313 -7.004450983e-10 350615.8207)
(-61937.52909 0 344269.7505)
(-62415.9643 0 337922.4182)
(-62603.06904 0 331660.1866)
(-62518.03612 0 325453.1986)
(-62236.95093 0 319335.8023)
(-61807.70258 0 313309.0716)
(-61262.85288 0 307354.4163)
(-60659.73721 -2.662292528e-10 301500.0604)
(-60021.19989 0 295692.587)
(-59392.42043 0 289970.5236)
(-58792.10314 0 284267.3719)
(-58255.69587 0 278623.4483)
(-57795.6877 -2.4542467e-10 272969.1393)
(-57432.28613 0 267342.0038)
(-57173.57793 -2.40335837e-10 261679.1647)
(-57031.4618 0 256016.4366)
(-57003.68785 -2.365769773e-10 250299.6707)
(-57086.53383 -2.351244032e-10 244564.1186)
(-57268.69664 0 238766.3992)
(-57540.86528 2.329609617e-10 232946.8257)
(-57888.09171 0 227072.3859)
(-58298.66711 2.31668466e-10 221188.402)
(-58754.62267 0 215270.7221)
(-59248.42002 1.155668501e-10 209368.2873)
(-59770.99259 0 203468.2435)
(-60321.60562 -1.156341827e-10 197617.8231)
(-60890.26367 0 191810.6451)
(-61482.806 -1.160014908e-10 186089.2851)
(-62094.02357 0 180454.1097)
(-62736.48821 0 174939.1617)
(-63402.30454 0 169549.2792)
(-64116.40101 1.175316217e-10 164302.7067)
(-64894.67663 0 159208.1975)
(-65462.59391 0 154266.9773)
(-65501.30671 0 149517.639)
(-67634.90487 0 144991.7291)
(-72663.42269 0 140411.9511)
(-10885.21392 0 363678.0526)
(-4274.714908 4.369923512e-09 361888.8001)
(-13695.43937 0 361823.7517)
(-26815.38784 0 358642.4165)
(-29794.18343 0 355279.2731)
(-34955.82626 0 351372.539)
(-39575.10941 0 346947.8994)
(-43402.02949 0 342113.7406)
(-46618.88596 0 336998.7481)
(-49277.67281 0 331684.5718)
(-51367.72064 0 326221.1532)
(-52953.52712 0 320674.7156)
(-54121.16845 0 315125.052)
(-54872.95182 0 309579.8792)
(-55288.44145 0 304090.9298)
(-55432.59759 3.116253718e-10 298691.3104)
(-55327.37915 0 293360.5501)
(-55043.39111 0 288158.7764)
(-54598.51336 0 283044.5559)
(-54051.86986 0 278049.7285)
(-53422.58282 2.703754145e-10 273147.8994)
(-52753.32244 0 268339.7051)
(-52073.05753 2.602286749e-10 263611.7495)
(-51403.48861 0 258943.6755)
(-50772.87444 0 254332.1656)
(-50193.99855 0 249743.4076)
(-49685.52255 0 245180.2018)
(-49258.51848 0 240605.5509)
(-48923.62061 0 236027.6188)
(-48682.13929 0 231408.9479)
(-48533.33011 0 226762.6893)
(-48473.15188 0 222056.8173)
(-48496.72571 1.182945073e-10 217312.0752)
(-48597.22625 0 212503.0695)
(-48767.27842 0 207658.4083)
(-48997.69118 0 202758.3411)
(-49287.8817 2.347332959e-10 197840.6244)
(-49634.3356 0 192891.2869)
(-50038.7304 0 187953.9431)
(-50496.29054 -1.175853598e-10 183014.6203)
(-51013.88462 0 178123.2175)
(-51589.91599 0 173263.5523)
(-52233.79445 0 168488.181)
(-52934.7707 0 163777.3138)
(-53718.54011 0 159177.4902)
(-54579.4186 0 154667.7079)
(-55289.0847 0 150279.5338)
(-55554.87028 0 146023.2255)
(-57636.67718 1.21866765e-10 141964.1526)
(-62141.77265 0 137784.3697)
(-9682.743573 0 325253.883)
(-3597.800482 4.43798042e-09 323613.0922)
(-12034.15576 0 323633.6404)
(-23763.19094 0 320742.8223)
(-26343.03459 0 317721.3705)
(-30936.59169 0 314217.0345)
(-35035.27257 0 310242.1516)
(-38452.54381 0 305930.7134)
(-41347.27378 0 301383.5501)
(-43726.01534 0 296661.8935)
(-45608.62149 0 291809.9664)
(-47061.56015 0 286928.5836)
(-48118.68379 0 282049.8327)
(-48814.55151 0 277188.239)
(-49222.78096 0 272420.8541)
(-49355.48322 -3.164786053e-10 267735.1145)
(-49271.20875 0 263160.3979)
(-49016.13658 0 258711.7729)
(-48608.34918 0 254370.5882)
(-48095.94099 0 250170.4616)
(-47497.01669 0 246066.3441)
(-46849.50764 0 242093.7464)
(-46168.46431 0 238199.9948)
(-45485.17945 0 234407.6522)
(-44812.31462 2.563600117e-10 230669.8142)
(-44170.39512 0 226995.9427)
(-43570.04382 2.503157103e-10 223345.4734)
(-43027.12949 0 219722.631)
(-42547.64572 0 216090.9)
(-42137.36374 0 212451.9169)
(-41796.33471 0 208774.6015)
(-41526.73247 0 205063.6917)
(-41326.37009 0 201295.0119)
(-41196.01892 0 197478.0975)
(-41131.01975 0 193596.1332)
(-41133.40219 0 189663.8129)
(-41204.64729 -1.191945086e-10 185674.9125)
(-41351.89566 2.383770325e-10 181647.6529)
(-41574.04667 0 177583.499)
(-41879.72038 1.194166266e-10 173501.6495)
(-42270.51071 0 169412.125)
(-42754.15661 0 165332.3886)
(-43335.89724 0 161278.4553)
(-44003.30099 0 157258.3037)
(-44778.13261 0 153293.1649)
(-45650.70205 0 149378.9617)
(-46414.91897 0 145539.1283)
(-46835.47122 0 141782.3066)
(-48782.66745 0 138187.2265)
(-52701.56609 0 134416.653)
(-8597.765401 0 290099.8069)
(-3020.824788 0 288599.992)
(-10573.07579 0 288668.1695)
(-21049.76724 0 286045.6875)
(-23290.53186 0 283328.846)
(-27376.75445 0 280172.2491)
(-31037.03715 0 276609.2224)
(-34112.28046 0 272762.3766)