/*--------------------------------*- C++ -*----------------------------------*\
  =========                 |
  \\      /  F ield         | OpenFOAM: The Open Source CFD Toolbox
   \\    /   O peration     | Website:  https://openfoam.org
    \\  /    A nd           | Version:  7
     \\/     M anipulation  |
\*---------------------------------------------------------------------------*/
FoamFile
{
    version     2.0;
    format      ascii;
    class       volTensorField;
    location    "0.0027";
    object      grad(U);
}
// * * * * * * * * * * * * * * * * * * * * * * * * * * * * * * * * * * * * * //

dimensions      [0 0 -1 0 0 0 0];

internalField   nonuniform List<tensor> 
1167
(
(-0.003605423825 3.290716526e-16 -8.112718475e-05 -4.120997324e-15 -0.00592925797 0 0.0007860511093 -7.630717232e-16 0.02181202141)
(-0.004786840416 -2.724848333e-15 -0.0003421436075 -1.689949724e-15 -0.00516850761 0 0.002041563857 -2.336292053e-15 0.02178106629)
(-0.004722740332 -1.661424203e-15 -0.0006133737048 8.799978934e-16 -0.00493432944 0 0.003216846206 -5.226752494e-15 0.02175562433)
(-0.00481715207 4.44428948e-15 -0.0008136689254 4.081398829e-16 -0.004897170523 0 0.004422400326 -2.746659154e-15 0.0217089766)
(-0.004800664967 2.12203926e-15 -0.0009958842788 -1.278344584e-15 -0.004878007045 0 0.00560017429 1.459891855e-15 0.02164208533)
(-0.004760687533 1.489805858e-15 -0.001156179769 -6.254175497e-16 -0.004860198135 0 0.006738433133 -1.221943674e-15 0.02155471776)
(-0.004705446383 3.108799278e-15 -0.001291595382 -1.260772386e-15 -0.00484126472 0 0.007833114809 -2.47062262e-15 0.0214457058)
(-0.004632279497 5.873269008e-16 -0.001399191267 -1.277207343e-15 -0.004819425276 0 0.00888179154 -2.085968219e-17 0.02131215097)
(-0.004541555322 2.594717664e-15 -0.001475485639 -1.126507318e-15 -0.004793789015 0 0.009883135835 5.762391073e-16 0.02114995482)
(-0.004429985083 2.640286055e-15 -0.001520417244 -1.510034667e-15 -0.004763955233 0 0.01083305974 1.734973435e-15 0.02095706126)
(-0.00429302243 9.433689914e-16 -0.001536279597 -1.404644529e-15 -0.004729094504 0 0.01172615373 1.413196804e-15 0.02073323541)
(-0.004132246365 1.718527894e-15 -0.001521577134 -1.413333499e-15 -0.004688530336 0 0.01256157452 -6.063968383e-17 0.02047534699)
(-0.003946555488 1.732409106e-16 -0.001476473211 -1.459031701e-15 -0.004642213815 0 0.01333708376 2.585513665e-16 0.02018112832)
(-0.003731761669 -1.027794923e-15 -0.001404676644 -1.256939712e-15 -0.004589675713 0 0.01404779905 6.942353078e-16 0.01985157859)
(-0.003489148343 -5.29520753e-16 -0.001306097437 -1.143630227e-15 -0.004530521981 0 0.01469339942 5.30244244e-16 0.01948433231)
(-0.003218108507 1.367079706e-15 -0.001183520046 -1.04979938e-15 -0.004464715482 0 0.0152711159 1.039740133e-16 0.01907935458)
(-0.002918443282 4.373725447e-16 -0.001040073799 -1.158568515e-15 -0.004391996926 0 0.01577869575 9.128802393e-16 0.01863737485)
(-0.002591259444 -1.598754071e-15 -0.0008773492195 -1.002566446e-15 -0.00431241107 0 0.01621579744 1.176564021e-15 0.01815759616)
(-0.002236372633 -6.291277121e-16 -0.0006993162778 -9.098454381e-16 -0.004225924401 0 0.01658046193 1.597812296e-15 0.01764261752)
(-0.004881818247 4.378959029e-15 -4.81641831e-05 -8.984179169e-15 -0.008030664877 0 0.0009836126247 -9.082578161e-16 0.02523941361)
(-0.006479180694 6.968442622e-15 -0.0002995888436 -6.865074191e-15 -0.00699904526 0 0.00255423312 -3.133181102e-15 0.02519732151)
(-0.006387075642 -7.828014123e-16 -0.0005549816759 -7.102584972e-15 -0.006680157473 6.422116567e-14 0.004024433193 -8.959525426e-15 0.0251573184)
(-0.00650580931 -8.764574038e-15 -0.0007239248782 -3.097207299e-15 -0.006627190213 4.716045017e-14 0.005532372659 -1.026421009e-14 0.02508776249)
(-0.006469713622 -1.968815909e-16 -0.0008748763286 -2.946390195e-16 -0.006597342267 -3.77137945e-14 0.007003460432 -1.986874003e-15 0.02499089411)
(-0.006398758339 7.120848707e-15 -0.001001403676 -1.68858981e-15 -0.006567937328 3.172689845e-14 0.008423625822 -4.139866615e-15 0.02486667689)
(-0.006307860787 5.384212801e-16 -0.001097258161 -2.304733171e-15 -0.006536065385 0 0.009790284379 -9.325693503e-16 0.02471167307)
(-0.006194611707 -1.991647226e-15 -0.001158152271 -1.46524059e-15 -0.006500062154 0 0.01110105499 1.421123805e-15 0.02452166117)
(-0.006055374445 -6.427201558e-16 -0.001182959514 -1.340174311e-15 -0.006458939169 0 0.0123511345 2.515912335e-15 0.0242939389)
(-0.005885029345 2.276952869e-16 -0.001173526408 -1.102553397e-15 -0.006411640103 -2.05275396e-14 0.01353390727 4.996589454e-15 0.02402791991)
(-0.005683767052 3.251990873e-15 -0.001128950828 -1.118839283e-15 -0.00635714888 0 0.01464667018 4.140235704e-15 0.02372092191)
(-0.005452291484 2.114811597e-15 -0.001047832333 -1.417840176e-15 -0.006295239586 0 0.01568772039 4.202235743e-15 0.02336910754)
(-0.005185610304 -7.035778258e-16 -0.0009340076926 -1.291361263e-15 -0.006225572909 -3.390651112e-14 0.0166509815 4.163620302e-15 0.02297286365)
(-0.004883529906 -2.375920846e-16 -0.0007889880406 -1.118920516e-15 -0.006147510618 0 0.01753384996 2.650175508e-15 0.02253102829)
(-0.004546949354 1.077803174e-15 -0.0006135879603 -1.086022583e-15 -0.006061003944 0 0.01833484602 1.289787443e-15 0.02204151207)
(-0.004173589839 -3.361462058e-16 -0.0004123191449 -1.116917659e-15 -0.005965829789 2.970710863e-14 0.01904978429 9.31813739e-16 0.02150626207)
(-0.003765094273 -1.56824115e-15 -0.0001869477571 -9.524952264e-16 -0.005861825049 -1.434345753e-14 0.01967813396 2.973496344e-15 0.02092403121)
(-0.003322095944 -1.330541377e-15 5.821968506e-05 -8.68847059e-16 -0.005749088623 0 0.02021735847 1.379603417e-15 0.02029642569)
(-0.002845464917 -6.403522802e-16 0.0003195197652 -7.392121018e-16 -0.005627617005 0 0.02066646705 4.084581763e-16 0.01962483719)
(-0.002336907257 1.356736343e-15 0.0005932086195 -7.33722974e-16 -0.005497614821 0 0.02102486023 -1.3328848e-16 0.01891065186)
(-0.001798104846 1.959342654e-15 0.0008746378774 -7.928761789e-16 -0.005359248817 0 0.02129185195 -2.267641328e-16 0.01815703857)
(-0.001231405564 1.326780128e-15 0.001159911921 -8.140266728e-16 -0.00521282927 0 0.02146789548 -5.33421809e-16 0.0173656553)
(-0.0006391146281 6.096970345e-16 0.001444291763 -8.115729724e-16 -0.005058662694 1.240374215e-14 0.02155321632 -1.333993236e-15 0.01654081789)
(-2.432677713e-05 5.625667101e-17 0.001723644476 -7.98604942e-16 -0.00489715094 0 0.02154896312 -2.161369063e-16 0.01568477488)
(0.0006096372585 -5.545659457e-17 0.001993591135 -7.754973075e-16 -0.004728726421 0 0.02145645586 4.942574897e-16 0.01480255957)
(0.001258995723 3.636908199e-17 0.002250006272 -7.657221299e-16 -0.004553895749 -1.188029486e-14 0.02127751962 1.178630316e-15 0.01389707176)
(0.001920279402 -1.048361e-16 0.002488827175 -7.342672494e-16 -0.004373199957 0 0.02101425128 7.165124378e-16 0.01297387679)
(0.002589655864 5.898993925e-16 0.002706188219 -7.043998764e-16 -0.004187208004 0 0.02066901671 4.025909504e-16 0.01203653701)
(0.003263012091 1.373278996e-15 0.002898769249 -7.322453116e-16 -0.003996525296 0 0.02024475836 3.301253682e-16 0.01109084692)
(0.003936090356 1.17404838e-15 0.003063329861 -7.38117431e-16 -0.003801782755 0 0.01974442879 2.843826145e-16 0.0101408469)
(0.004604711599 1.190100797e-15 0.003197353403 -7.335854165e-16 -0.003603637544 0 0.01917157154 1.911687504e-16 0.009192468515)
(0.005264282608 7.288299003e-16 0.003298556227 -7.630197872e-16 -0.003402754067 0 0.01852974867 -1.216553205e-17 0.008250094831)
(0.005910381322 2.808228084e-16 0.003365418591 -7.378481633e-16 -0.003199829229 5.638481487e-15 0.01782305201 -2.506850241e-16 0.00731954562)
(0.006538839245 3.668400407e-16 0.003396662846 -7.409697139e-16 -0.002995548806 0 0.01705543688 -1.207523929e-16 0.006405439563)
(0.007145467949 3.987266058e-16 0.00339192636 -7.33754492e-16 -0.002790609263 0 0.01623139613 -1.142309624e-16 0.005513345948)
(0.007725901317 3.758598807e-16 0.003351357232 -7.271593396e-16 -0.002585692455 0 0.01535547429 -1.731477574e-16 0.004647867034)
(0.008275874731 8.74923992e-16 0.003275771387 -7.102081894e-16 -0.002381491755 0 0.01443249189 -2.712083495e-16 0.00381417141)
(0.008791502665 1.230345021e-15 0.003166541327 -7.210982151e-16 -0.002178678571 5.593974032e-15 0.0134673022 -6.417313576e-16 0.003016701677)
(0.009269091452 1.029179418e-15 0.003025738751 -7.379535917e-16 -0.001977917156 5.597514651e-15 0.01246498781 -6.697960725e-16 0.002260119363)
(0.009705191869 2.127005015e-16 0.002856043774 -7.443715795e-16 -0.00177984321 0 0.01143069053 -3.342834877e-16 0.001548524694)
(0.0100963456 -6.963746335e-16 0.002660822562 -7.156210879e-16 -0.001585076613 0 0.01036976533 -2.174808161e-16 0.0008859765176)
(0.01043953544 -5.971032037e-16 0.002444030015 -6.954044558e-16 -0.001394211294 0 0.009287625516 -4.153061729e-16 0.0002760568818)
(0.01073212922 -1.760930684e-16 0.002210105469 -6.754564482e-16 -0.001207812726 0 0.008189651881 -5.877066196e-16 -0.000277842804)
(0.01097185135 7.57512738e-17 0.001964189722 -6.64026004e-16 -0.001026412153 0 0.007081363898 -7.987557971e-16 -0.0007728254151)
(0.01115657055 3.123768979e-16 0.001711942616 -6.58388333e-16 -0.0008505064194 5.68936416e-15 0.005968267106 -1.119878553e-15 -0.001206269251)
(0.01128525715 1.160437803e-16 0.001459632192 -6.571912614e-16 -0.0006805596362 1.143038389e-14 0.004855904586 -1.186241271e-15 -0.00157614284)
(0.01135665635 -2.946779587e-16 0.001213696959 -6.436478168e-16 -0.0005169771581 0 0.003749449016 -9.31148373e-16 -0.001880696149)
(0.01136244727 2.449843238e-17 0.0009809883013 -6.316363093e-16 -0.0003601453743 0 0.002654184589 -8.658334192e-16 -0.002118868255)
(0.01128280503 2.711717955e-16 0.0007700708302 -6.285960651e-16 -0.0002105803352 0 0.001576885926 -8.935472132e-16 -0.002289773445)
(0.01124977921 7.552390135e-17 0.0003346079085 -6.228931199e-16 -6.905054656e-05 0 0.0005267691646 -9.12232978e-16 -0.00239359145)
(-0.006452378447 4.39502047e-15 -4.924887221e-06 -8.500706982e-15 -0.01061747376 0 0.001227513654 1.495858916e-15 0.0294613562)
(-0.008560882793 8.254974421e-15 -0.0002402213594 -6.713764105e-15 -0.009251827893 0 0.003186805858 4.367179456e-15 0.02940664991)
(-0.008433238707 6.408204586e-15 -0.00047231923 -7.850122147e-15 -0.008828129169 -6.522129881e-14 0.005019702122 9.362571066e-15 0.02935025726)
(-0.008579826719 -5.706775516e-15 -0.0005999846387 -6.735219229e-15 -0.008755144466 0 0.006899012654 2.521288257e-15 0.02925399282)
(-0.008518322646 -4.678498105e-15 -0.0007087066634 -2.319013208e-15 -0.008711214678 3.830112137e-14 0.0087315813 -4.959950042e-15 0.0291206316)
(-0.008410956746 -2.589169122e-16 -0.0007876935804 -2.517264829e-15 -0.008666956986 0 0.01050143025 2.000619356e-15 0.0289485789)
(-0.008278189496 -4.239148689e-15 -0.0008284815032 -1.642544132e-15 -0.008619223579 -2.803275319e-14 0.01220603981 8.258254696e-15 0.02873365001)
(-0.008113513337 -4.02464927e-15 -0.0008286499453 -7.806212031e-16 -0.008565956843 0 0.0138397484 5.325110125e-15 0.02847269091)
(-0.007910745778 -2.462312652e-15 -0.0007891513407 -3.762238761e-16 -0.008505363581 -2.266195583e-14 0.01539459506 6.082067767e-15 0.02816454942)
(-0.007668800652 5.185283232e-16 -0.0007093548504 -1.83227523e-16 -0.008435971471 0 0.01686564146 4.780311566e-15 0.02780676284)
(-0.007389091783 2.062935517e-15 -0.000586572507 -3.976921419e-16 -0.008357190168 0 0.01825098192 5.378659788e-15 0.02739472513)
(-0.007067443926 1.695184273e-15 -0.0004234168714 -4.799735251e-16 -0.008268707706 -1.820344036e-14 0.01954425573 8.017678824e-15 0.02692719373)
(-0.0067009377 2.532520817e-15 -0.0002233410901 -5.716672702e-16 -0.008169776242 -1.721727308e-14 0.02073965693 6.923965954e-15 0.02640407999)
(-0.006291311595 3.318009583e-15 1.388669502e-05 -7.202191436e-16 -0.008060070868 0 0.02183604017 4.68152534e-15 0.0258222671)
(-0.005836647926 2.094332816e-15 0.0002837541872 -9.037943673e-16 -0.007939495185 0 0.02282834233 3.78025928e-15 0.02518244534)
(-0.005337354128 -1.404165343e-15 0.0005826337006 -9.133418977e-16 -0.007807741138 -1.508487263e-14 0.02371365387 3.204001812e-15 0.02448508399)
(-0.004794960287 -1.547292466e-16 0.0009077905757 -6.685948269e-16 -0.007664922964 0 0.02449057149 1.851635785e-15 0.02372970365)
(-0.004209419804 2.554662659e-15 0.001253566206 -7.720806129e-16 -0.007511051123 0 0.02515593154 5.865346134e-16 0.0229194908)
(-0.003583114681 1.862304637e-15 0.001616242732 -8.31158766e-16 -0.007346279623 1.372752543e-14 0.02570934924 -1.246283619e-15 0.02205467118)
(-0.002917748734 1.113792101e-15 0.00199008984 -8.497318122e-16 -0.007170874952 1.338654424e-14 0.02614912387 -1.982650561e-15 0.02113920441)
(-0.002215895437 9.785706494e-16 0.002370550875 -8.691305033e-16 -0.00698512295 0 0.02647566037 -5.876535942e-16 0.02017508985)
(-0.001480451749 1.914688101e-15 0.002752017475 -9.018586088e-16 -0.006789445419 0 0.02668877073 2.002505847e-16 0.01916651514)
(-0.0007144889484 5.237819936e-17 0.003129322679 -9.472285007e-16 -0.006584275389 0 0.0267894886 7.075346673e-16 0.01811705028)
(7.807485175e-05 -1.828721527e-15 0.003497079978 -8.231469292e-16 -0.00637014718 0 0.0267789597 6.49600145e-16 0.01703123313)
(0.00089317195 -1.193713959e-15 0.003850131727 -7.517754983e-16 -0.006147637893 0 0.02665918436 5.471262714e-16 0.01591367522)
(0.001726389262 8.97497336e-17 0.004183301954 -6.951692186e-16 -0.005917395379 0 0.02643235011 3.613598474e-16 0.01476944329)
(0.002573502974 1.170268619e-15 0.004491518858 -7.223989935e-16 -0.005680103307 -1.193123499e-14 0.02610113768 1.216207581e-16 0.0136038817)
(0.003429729362 8.661102245e-16 0.004770150265 -7.269079021e-16 -0.005436476184 0 0.02566864227 -4.347890553e-16 0.01242259211)
(0.004290191748 6.87841586e-16 0.005014855241 -7.322080107e-16 -0.005187274834 0 0.02513844928 6.542931159e-17 0.01123129135)
(0.005149857865 8.37967735e-16 0.005221714522 -7.382545658e-16 -0.004933275669 0 0.02451439142 3.674691294e-16 0.01003606061)
(0.006003543155 1.081997005e-15 0.00538718777 -7.450097356e-16 -0.004675289381 0 0.02380066759 6.183850038e-16 0.008842794272)
(0.006845808139 1.136800035e-15 0.005508504673 -7.524415536e-16 -0.004414134864 -5.750001126e-15 0.02300193088 9.18013925e-16 0.007657890841)
(0.007671489578 6.340021946e-16 0.005583162626 -7.493388673e-16 -0.00415066119 0 0.02212294515 5.699314926e-16 0.006487264866)
(0.008475525794 3.888507675e-16 0.005609512362 -7.469348897e-16 -0.003885701574 0 0.0211688269 3.432264201e-16 0.00533750553)
(0.009252665842 6.383917992e-16 0.005586424244 -7.229372219e-16 -0.00362010376 0 0.02014488895 1.633770375e-16 0.004214353145)
(0.009997590776 8.223459773e-16 0.005513718607 -7.384835837e-16 -0.003354702283 0 0.01905685429 -9.049065153e-18 0.003124348206)
(0.01070514572 1.018271538e-15 0.005391668155 -7.323648865e-16 -0.003090340663 5.681376089e-15 0.01791052367 -1.946542508e-16 0.002072992243)
(0.01137052029 7.076223978e-16 0.005221492089 -7.434239476e-16 -0.00282783836 0 0.0167120294 1.334808537e-16 0.001066598525)
(0.01198904492 -2.330200035e-16 0.00500491271 -7.383430348e-16 -0.002568005958 0 0.01546752698 2.05262345e-16 0.0001102868325)
(0.01255620766 -5.94933972e-16 0.004744594877 -7.170539691e-16 -0.002311624604 -5.69196329e-15 0.0141834827 3.118331911e-16 -0.0007900591096)
(0.01306750037 5.479349153e-17 0.004443812008 -6.849975033e-16 -0.002059460084 1.140548688e-14 0.01286646444 -1.051997478e-16 -0.001629849344)
(0.01351908047 4.172002483e-16 0.004106636693 -6.866940968e-16 -0.001812249936 0 0.0115231882 -2.453458367e-16 -0.002403805861)
(0.01390739719 7.790503116e-16 0.00373779284 -6.831756095e-16 -0.001570695802 0 0.01016039661 -3.40259339e-16 -0.003107980295)
(0.01422913194 1.386639819e-15 0.003342771495 -6.884163697e-16 -0.001335465683 0 0.008784888604 -3.268221383e-16 -0.003737959998)
(0.01448129281 1.086944832e-15 0.002927889752 -6.996755858e-16 -0.001107189588 5.777966128e-15 0.007403605887 -3.08804404e-16 -0.004290644263)
(0.01466243884 7.666408206e-18 0.002500083221 -7.056859562e-16 -0.00088645949 0 0.00602332752 -2.316997782e-17 -0.00476267863)
(0.01477084911 -2.702088697e-16 0.002066799851 -6.835780538e-16 -0.000673792976 0 0.004650610237 2.227357031e-17 -0.005151972023)
(0.01479469437 2.809003037e-16 0.001635738335 -6.787012888e-16 -0.0004696862803 5.864895525e-15 0.003291873734 -9.917546804e-17 -0.005456400077)
(0.01470700302 3.448314413e-16 0.001217110338 -6.754714779e-16 -0.0002748290794 0 0.001955695154 1.036462005e-16 -0.005674906452)
(0.0146873983 1.147546416e-16 0.0005046717501 -6.700927037e-16 -9.024427847e-05 0 0.0006529575613 1.932461879e-16 -0.005806915825)
(-0.008378873198 -7.095326826e-16 4.937190588e-05 -1.956835383e-15 -0.01379174198 0 0.001527331601 1.531110859e-15 0.03465348111)
(-0.01111337759 -3.110271527e-15 -0.000162685783 -5.244864995e-17 -0.01201556279 0 0.003964415325 4.631556124e-15 0.034583632)
(-0.01094118377 3.504119084e-15 -0.0003616283125 1.714142602e-15 -0.0114625003 0 0.006243665526 9.779243207e-15 0.03450718438)
(-0.01112215649 9.06119318e-15 -0.0004336546239 -1.496274885e-15 -0.01136446474 -4.864080896e-14 0.008580993506 1.260054258e-14 0.03437674373)
(-0.01103086394 -1.055371677e-15 -0.0004841292339 -3.000890939e-15 -0.01130316586 0 0.01086092766 4.411268828e-15 0.03419545884)
(-0.0108800694 -9.874610379e-15 -0.0004984821147 -8.308523587e-16 -0.0112409525 0 0.01306374912 6.280567143e-15 0.0339616604)
(-0.01069413386 -3.189420572e-15 -0.0004683651271 8.062604988e-16 -0.01117404666 -2.846933623e-14 0.01518430591 7.016514741e-15 0.03367214427)
(-0.01046251702 6.223099293e-16 -0.0003929816696 2.72517652e-16 -0.01109930082 0 0.01721374172 3.978650228e-15 0.03332498564)
(-0.01018161304 1.931925736e-16 -0.0002715108642 4.944606109e-16 -0.01101418996 0 0.01914461522 2.595392933e-15 0.03291746238)
(-0.009853459183 1.094034192e-15 -0.0001005720354 2.06756794e-16 -0.01091748853 0 0.02097346651 1.803361372e-15 0.03244441916)
(-0.00947506857 -1.429414698e-15 0.0001194170728 1.923265775e-16 -0.01080877156 0 0.02269400498 3.000310276e-15 0.03190282883)
(-0.009040886616 8.166457399e-17 0.0003840854782 4.152340342e-16 -0.01068717755 0 0.02429764532 3.543513529e-15 0.03129286977)
(-0.008552523102 4.271001361e-15 0.0006928220324 1.366048084e-16 -0.01055199183 -1.748541547e-14 0.02578122471 4.390373007e-15 0.03061150724)
(-0.008009648926 4.430488598e-15 0.001043087299 -1.950495629e-16 -0.01040317759 0 0.02714033641 4.101875393e-15 0.02985721308)
(-0.007409929838 3.31761665e-15 0.001429164572 -4.355993653e-16 -0.01024039216 -1.593049107e-14 0.02836889963 4.53567118e-15 0.02903183031)
(-0.006755754793 2.658337736e-15 0.001848485315 -5.685083867e-16 -0.01006352719 0 0.02946528074 2.544530359e-15 0.02813401181)
(-0.006047524301 2.56715868e-15 0.002294995128 -6.356666381e-16 -0.009872734875 0 0.0304252242 1.153398559e-15 0.02716617038)
(-0.005286941221 3.717361181e-15 0.002763480052 -7.561012715e-16 -0.009668067761 0 0.03124671767 1.458614821e-15 0.02613031992)
(-0.004476441931 3.549919021e-15 0.003248630937 -9.257906729e-16 -0.009449878639 0 0.0319283776 1.461093692e-15 0.02502853934)
(-0.003618623201 1.740192879e-16 0.003743769875 -1.00900589e-15 -0.009218461907 0 0.03246874423 1.469131829e-15 0.02386532112)
(-0.002717134361 -1.732704306e-15 0.004243338571 -8.82666371e-16 -0.008974330716 0 0.03286814235 1.130742301e-15 0.0226430988)
(-0.001775116072 -8.906363207e-16 0.004740413728 -8.141370535e-16 -0.008717997781 0 0.03312646558 1.899245791e-15 0.02136797089)
(-0.0007968700025 -1.684881423e-16 0.005229003142 -7.495953267e-16 -0.008450085342 -2.558618715e-14 0.03324520509 3.029474593e-15 0.02004337772)
(0.0002129290467 3.165368885e-16 0.005702492878 -7.130303755e-16 -0.008171271749 0 0.03322587773 1.827341572e-15 0.01867619945)
(0.00124916827 4.566558329e-16 0.006154751531 -7.271273097e-16 -0.007882322673 0 0.03307109199 1.070876809e-15 0.01727083163)
(0.002306766677 8.310782214e-16 0.006579434393 -6.940297768e-16 -0.007584051666 0 0.03278364122 4.567931921e-16 0.01583477114)
(0.00338043579 1.435867756e-15 0.006970492578 -7.336496597e-16 -0.007277320231 0 0.03236698624 4.863024282e-16 0.01437325531)
(0.004464382411 6.647171684e-16 0.007322281689 -7.499467075e-16 -0.006963022798 0 0.03182512667 5.078828892e-16 0.01289415881)
(0.005552731381 -2.094584234e-16 0.007629378293 -7.087546565e-16 -0.00664210438 0 0.03116246175 4.979331861e-16 0.01140330542)
(0.006639571714 6.159322191e-17 0.007886962847 -6.920789236e-16 -0.006315524495 0 0.03038392045 6.10001513e-16 0.009908926882)
(0.007718532421 6.166284746e-17 0.008090529535 -6.878295839e-16 -0.005984272954 0 0.02949471237 8.114980507e-16 0.008417246491)
(0.00878322724 8.59011833e-16 0.008236393512 -6.729171062e-16 -0.005649360319 -5.839551837e-15 0.02850065404 1.141527176e-15 0.006936610377)
(0.009827519952 1.501220442e-15 0.00832113184 -6.928590277e-16 -0.005311810476 0 0.02740758033 8.215871397e-16 0.005473578337)
(0.01084524877 1.244215515e-15 0.008342372116 -7.132800562e-16 -0.004972642862 0 0.026221946 6.131819992e-16 0.004036496843)
(0.01182996458 1.177912905e-15 0.008298232405 -7.229009433e-16 -0.004632880771 0 0.02495030424 4.597589046e-16 0.00263200708)
(0.01277518816 1.186510328e-15 0.008187849025 -7.105118702e-16 -0.004293546934 0 0.02359977265 3.294790912e-16 0.00126827397)
(0.01367457583 5.328354193e-16 0.008010845066 -7.437707618e-16 -0.003955660329 0 0.02217747276 1.983797884e-16 -4.808609933e-05)
(0.01452219224 3.000508117e-16 0.007767882864 -7.324646823e-16 -0.003620226953 0 0.02069099171 3.138094319e-16 -0.00130919554)
(0.01531220835 5.85296531e-16 0.007460297678 -7.160145548e-16 -0.003288228874 0 0.01914797671 1.793544215e-16 -0.002508623169)
(0.01603875289 9.700467276e-16 0.007090441171 -7.169311376e-16 -0.002960629021 0 0.01755646852 -2.943180973e-16 -0.003639028588)
(0.01669620479 6.777040351e-16 0.00666142611 -7.12633133e-16 -0.002638367003 1.158311632e-14 0.01592460056 -4.193085064e-16 -0.004694427326)
(0.01727947422 6.827047283e-18 0.006177245277 -7.087283473e-16 -0.002322354089 0 0.01426063369 -2.39644907e-16 -0.005668190863)
(0.01778398668 4.292471903e-17 0.005642873953 -6.995024209e-16 -0.00201346201 5.82349983e-15 0.01257296484 -1.967368252e-16 -0.006555036821)
(0.01820513408 1.373306372e-17 0.005064184942 -6.905769185e-16 -0.001712521157 0 0.01087001055 2.079616476e-16 -0.007349323554)
(0.01853894205 -4.919629045e-16 0.004448122487 -6.819202458e-16 -0.001420328118 0 0.009160322911 6.487988406e-16 -0.008046836574)
(0.01878345393 -7.721073303e-16 0.003802383677 -6.619901871e-16 -0.001137624855 -1.178918177e-14 0.007452154192 9.635062131e-16 -0.008643140274)
(0.01893641406 -7.845613911e-17 0.003135502745 -6.421573123e-16 -0.0008650701381 0 0.005753606579 8.861609609e-16 -0.009135329689)
(0.01898168511 -2.125486393e-16 0.002456180006 -6.412841558e-16 -0.0006032878723 0 0.004072450124 1.102124675e-15 -0.009520402456)
(0.0188841561 -5.599590194e-16 0.001776431693 -6.230965693e-16 -0.0003531843004 -1.198217628e-14 0.002419279818 1.494167351e-15 -0.009796796819)
(0.01887900067 -1.815662594e-16 0.0007168653592 -6.096978312e-16 -0.000116072617 -6.028539087e-15 0.0008070916096 1.600685919e-15 -0.009963284041)
(-0.0107355642 -1.093507428e-15 0.0001176986949 -1.402806857e-15 -0.0176758366 0 0.001895913655 3.076142102e-18 0.04102155245)
(-0.0142359421 -2.303990671e-15 -6.170167575e-05 4.793890236e-16 -0.01539678749 0 0.004920251637 -7.36643005e-17 0.04093207492)
(-0.01401006643 -2.804707445e-15 -0.0002142968804 1.412377523e-15 -0.01468539706 0 0.007748923292 -1.396961428e-15 0.04082888789)
(-0.01423423354 2.385362437e-15 -0.0002119056118 1.784899712e-15 -0.01455705977 0 0.01065138089 2.940344038e-15 0.04065396984)
(-0.01410719091 2.214478138e-15 -0.0001857653148 -3.857752698e-17 -0.01447491753 0 0.0134828384 6.08000055e-15 0.04041185808)
(-0.01390164695 -3.600850851e-15 -0.0001181414958 2.920816554e-16 -0.01439107364 0 0.01621738622 2.56228416e-15 0.04010252904)
(-0.01364716428 -9.871791619e-16 -2.063918164e-07 1.016462003e-15 -0.01430044061 0 0.01884741831 -1.017144029e-15 0.03972327083)
(-0.01333312679 1.726467832e-15 0.0001704165341 4.780428391e-16 -0.01419877074 0 0.02136384702 1.747645526e-16 0.03927071268)
(-0.01295919237 4.445176793e-16 0.0003976560415 3.652079861e-16 -0.01408341792 0 0.02376056766 -5.618942083e-16 0.03873922469)
(-0.01252434533 -1.350904617e-16 0.0006830520663 3.359626782e-16 -0.01395338853 0 0.02603037144 4.49477069e-16 0.03812393501)
(-0.01202187199 -3.666097347e-16 0.001022631016 3.515791171e-16 -0.01380767627 0 0.02816240926 1.8643149e-15 0.03742424994)
(-0.01145093984 -3.064992633e-16 0.001414528277 3.300265464e-16 -0.01364512677 0 0.03015020368 -5.073735512e-16 0.0366379394)
(-0.0108130992 1.80985222e-15 0.001857970062 3.468304807e-16 -0.0134654621 0 0.03198951974 2.870866242e-16 0.03576130778)
(-0.01010482563 3.088921073e-15 0.002346514589 9.904356145e-17 -0.01326842655 0 0.03367190587 1.739674865e-15 0.03479562226)
(-0.009327390534 4.542696494e-15 0.002875869051 -9.479637278e-17 -0.01305363242 0 0.03519297934 2.564262413e-15 0.03374076833)
(-0.008482661848 3.774723167e-15 0.003441439835 -4.558120443e-16 -0.01282127002 -1.555838445e-14 0.03654895787 3.544682847e-15 0.03259677398)
(-0.007570875002 1.499175842e-15 0.00403557056 -4.695025803e-16 -0.01257139393 0 0.03773466607 2.773953303e-15 0.031367577)
(-0.006595507221 2.098883949e-15 0.004652973864 -5.972370777e-16 -0.01230428163 0 0.03874863566 2.829095858e-15 0.03005417181)
(-0.00555906303 1.87093775e-15 0.005285709467 -6.083700528e-16 -0.01202037424 0 0.03958775452 3.704346924e-15 0.02866170029)
(-0.004465421054 1.653766306e-15 0.005927275996 -7.550564104e-16 -0.01172014149 -1.380674579e-14 0.04025187118 4.519994852e-15 0.02719371183)
(-0.003318770687 1.770373245e-16 0.006569796929 -7.382219559e-16 -0.01140426203 0 0.04074019431 3.095387643e-15 0.02565564366)
(-0.002123612786 -1.371053828e-15 0.007205601386 -6.459498686e-16 -0.01107341682 0 0.04105341053 2.290445664e-15 0.02405327)
(-0.0008854310056 2.592081224e-16 0.007827232694 -5.58263918e-16 -0.0107284461 0 0.04119301669 1.773426703e-15 0.02239245748)
(0.0003900406482 1.645567574e-15 0.008427019833 -6.242539586e-16 -0.01037022643 0 0.04116140028 1.461729587e-15 0.02068044047)
(0.001696553146 1.29161629e-15 0.008997548538 -6.153758846e-16 -0.009999750124 0 0.04096166458 1.174690773e-15 0.01892370841)
(0.003028068146 1.149349399e-15 0.009531248724 -6.562285682e-16 -0.009618041793 0 0.04059756369 9.683665622e-16 0.01713050684)
(0.004377966086 1.079166384e-15 0.01002099526 -6.97005632e-16 -0.009226184583 0 0.04007348166 9.041810806e-16 0.01530798728)
(0.005739396577 8.419535565e-16 0.0104599497 -6.66422603e-16 -0.008825300516 0 0.03939461612 9.959520955e-16 0.01346491972)
(0.007105272919 4.718105686e-16 0.01084154942 -6.843926654e-16 -0.008416552794 0 0.0385664519 4.511004836e-16 0.01160904683)
(0.008468445712 2.0360427e-16 0.01115978191 -6.794282954e-16 -0.008001130803 0 0.03759525874 4.747963299e-16 0.009749496105)
(0.009821286279 -7.731251827e-18 0.01140916896 -6.752566302e-16 -0.007580245042 0 0.03648765619 4.437374769e-16 0.007894490673)
(0.01115631959 1.134613052e-15 0.01158475398 -6.486476467e-16 -0.007155135874 0 0.03525085401 3.263437779e-16 0.006053298563)
(0.01246614575 1.746979241e-15 0.01168217342 -6.690434163e-16 -0.006727039405 0 0.03389221502 5.594330838e-16 0.004234570953)
(0.0137431938 1.170034201e-15 0.01169793024 -6.898934866e-16 -0.006297202216 0 0.03241976568 6.141387183e-16 0.002447550046)
(0.01497962908 1.261006594e-15 0.0116293004 -6.88273947e-16 -0.005866863529 0 0.03084176794 6.431351372e-16 0.0007011123026)
(0.016167638 1.405459751e-15 0.01147434586 -6.986696632e-16 -0.005437272311 0 0.02916700567 6.731680504e-16 -0.0009956241678)
(0.0172996096 1.037370753e-15 0.01123189841 -7.210194473e-16 -0.005009660048 0 0.02740437705 7.127518962e-16 -0.00263369255)
(0.0183680436 7.538628581e-16 0.01090167375 -7.20983199e-16 -0.004585250759 5.859419014e-15 0.02556317084 3.890268465e-16 -0.004204236859)
(0.01936557004 1.212698793e-15 0.01048449456 -7.214395341e-16 -0.004165241888 0 0.02365298014 4.455429266e-16 -0.005698470595)
(0.02028477274 8.419506963e-16 0.009982095085 -7.338291419e-16 -0.003750813934 0 0.02168370391 3.218746441e-16 -0.007108000388)
(0.02111871931 -7.925906292e-17 0.009397316754 -7.237311631e-16 -0.003343120172 0 0.01966542486 5.308033506e-16 -0.008424534193)
(0.02186091932 -1.342475246e-16 0.008733975353 -7.140074426e-16 -0.002943278581 0 0.01760830722 5.160079541e-16 -0.009640396345)
(0.0225053262 -3.72626236e-16 0.007997184276 -6.98844809e-16 -0.002552366287 0 0.01552265824 5.276961844e-16 -0.01074820818)
(0.02304600232 -8.052202593e-16 0.007193275683 -6.723508223e-16 -0.002171414088 0 0.01341891987 5.007587023e-16 -0.01174136645)
(0.02347808109 -9.077936487e-16 0.006329785005 -6.547121619e-16 -0.001801412718 0 0.01130744503 4.864128989e-16 -0.0126138178)
(0.02379893656 -6.219570021e-16 0.005415441299 -6.3137696e-16 -0.001443281048 0 0.009198373124 2.435161612e-16 -0.01336037275)
(0.02400576168 -6.545188228e-16 0.004459904233 -6.139683823e-16 -0.001097843781 6.016302617e-15 0.007101497144 6.1766865e-17 -0.01397672251)
(0.02407723797 -1.414557187e-15 0.0034731904 -5.995828703e-16 -0.0007658731128 0 0.005026319511 1.999975735e-16 -0.01445934054)
(0.02396866664 -1.062758659e-15 0.002469187044 -5.674405747e-16 -0.0004485326645 0 0.002985620221 9.900737345e-17 -0.01480568804)
(0.02397851825 -1.914994141e-16 0.0009793886915 -5.567877516e-16 -0.0001474753781 0 0.0009951901102 9.451295963e-17 -0.01501422677)
(-0.01361269388 -5.837124959e-16 0.0002040428468 -2.057833884e-15 -0.02241916375 0 0.002348923698 -2.834204685e-16 0.04880489003)
(-0.01804827331 -1.160771046e-15 6.994470927e-05 -1.622850158e-16 -0.01952520235 0 0.006094876386 -8.500515407e-16 0.04869092509)
(-0.01775853904 -1.042683532e-15 -2.022816932e-05 4.670054711e-16 -0.01862045095 0 0.009598712717 -1.736727996e-15 0.04855404983)
(-0.01803644481 1.416648601e-16 7.750187641e-05 5.389101602e-16 -0.01845585637 0 0.01319527129 -2.714084016e-15 0.04832449808)