/*--------------------------------*- C++ -*----------------------------------*\
  =========                 |
  \\      /  F ield         | OpenFOAM: The Open Source CFD Toolbox
   \\    /   O peration     | Website:  https://openfoam.org
    \\  /    A nd           | Version:  7
     \\/     M anipulation  |
\*---------------------------------------------------------------------------*/
FoamFile
{
    version     2.0;
    format      ascii;
    class       volScalarField;
    location    "0.0009";
    object      p;
}
// * * * * * * * * * * * * * * * * * * * * * * * * * * * * * * * * * * * * * //

dimensions      [1 -1 -2 0 0 0 0];

internalField   nonuniform List<scalar> 
1166
(
1469257.049
1468603.889
1468790.119
1468171.765
1468303.73
1468399.2
1468471.884
1468553.592
1468652.452
1468774.227
1468912.1
1469059.599
1469225.952
1469402.668
1469596.772
1469801.296
1470018.894
1470244.576
1470480.543
1470722.561
1470973.812
1471227.483
1471485.55
1471744.517
1472004.965
1472266.376
1472525.297
1472782.553
1473035.521
1473284.613
1473529.354
1473767.604
1473999.994
1474226.476
1474445.524
1474657.083
1474861.145
1475057.696
1475246.467
1475428.057
1475602.348
1475769.02
1475928.597
1476081.138
1476226.693
1476366.049
1476498.661
1476625.386
1476745.782
1476860.969
1476977.442
1477093.282
1468372.814
1467783.582
1467904.966
1467992.632
1468065.4
1468151.644
1468254.537
1468368.635
1468503.559
1468652.936
1468811.561
1468987.184
1469173.373
1469374.411
1469583.263
1469803.066
1470029.697
1470265.957
1470505.672
1470750.4
1470997.257
1471246.737
1471497.196
1471746.391
1471994.674
1472239.771
1472481.671
1472719.922
1472952.587
1473179.788
1473401.707
1473616.903
1473824.773
1474025.955
1474219.944
1474406.292
1474585.858
1474758.372
1474923.483
1475081.672
1475232.488
1475377.442
1475516.037
1475647.779
1475773.786
1475893.388
1476007.593
1476117.388
1476227.53
1476337.978
1467969.672
1467412.721
1467535.648
1467626.393
1467697.368
1467775.949
1467877.21
1467993.926
1468121.198
1468266.576
1468425.849
1468595.046
1468778.904
1468971.267
1469174.984
1469386.45
1469607.899
1469833.749
1470065.164
1470299.974
1470538.744
1470777.792
1471017.026
1471256.165
1471493.266
1471727.978
1471959.378
1472186.209
1472407.946
1472625.116
1472836.39
1473040.554
1473238.518
1473429.607
1473613.726
1473791.137
1473961.276
1474125.344
1474282.484
1474432.047
1474575.744
1474712.926
1474844.392
1474969.891
1475088.971
1475202.814
1475310.653
1475415.001
1475520.099
1475624.224
1467599.3
1467068.141
1467186.363
1467274.807
1467346.092
1467429.07
1467526.549
1467638.522
1467766.792
1467907.79
1468061.994
1468229.476
1468405.561
1468593.412
1468789.926
1468996.671
1469208.69
1469426.779
1469649.204
1469876.24
1470104.692
1470334.084
1470563.924
1470792.774
1471019.815
1471244.466
1471465.407
1471681.5
1471893.612
1472100.37
1472301.267
1472496.047
1472684.014
1472866.026
1473041.478
1473209.686
1473371.968
1473527.251
1473676.303
1473819.11
1473955.27
1474086.001
1474210.544
1474329.421
1474443.042
1474550.725
1474653.668
1474752.231
1474852.022
1474951.495
1467259.434
1466756.581
1466870.657
1466954.613
1467019.412
1467100.015
1467197.73
1467309.547
1467432.757
1467571.977
1467723.521
1467883.637
1468055.85
1468237.621
1468429.779
1468628.011
1468832.8
1469042.838
1469258.052
1469475.813
1469695.377
1469915.598
1470135.953
1470355.089
1470572.647
1470787.072
1470997.841
1471204.926
1471407.231
1471604.466
1471795.963
1471980.935
1472160.232
1472332.751
1472499.807
1472660.654
1472814.492
1472962.447
1473103.916
1473239.519
1473369.578
1473493.168
1473611.774
1473724.715
1473832.419
1473935.422
1474032.848
1474126.962
1474221.181
1474315.818
1466932.929
1466455.681
1466566.004
1466648.609
1466716.419
1466795.719
1466888.802
1466998.748
1467121.785
1467255.376
1467401.805
1467559.285
1467726.625
1467904.356
1468088.887
1468280.438
1468478.119
1468681.464
1468888.324
1469097.573
1469308.465
1469520.282
1469731.314
1469941.629
1470149.52
1470354.627
1470556.471
1470754.138
1470947.312
1471134.492
1471317.214
1471494.195
1471664.343
1471829.293
1471987.962
1472140.924
1472287.852
1472427.775
1472562.9
1472692.249
1472815.451
1472933.543
1473045.61
1473153.282
1473255.826
1473353.645
1473446.962
1473535.945
1473626.069
1473715.371
1466637.296
1466182.379
1466288.349
1466367.503
1466431.64
1466509.753
1466603.604
1466710.787
1466828.696
1466959.434
1467101.625
1467254.989
1467418.444
1467589.256
1467767.552
1467952.854
1468144.248
1468340.097
1468538.869
1468740.091
1468942.581
1469145.938
1469348.994
1469550.153
1469749.19
1469944.73
1470138.431
1470327.917
1470511.346
1470690.642
1470864.157
1471032.737
1471195.821
1471352.27
1471504.106
1471649.887
1471789.02
1471923.099
1472051.038
1472174.381
1472292.126
1472403.987
1472511.293
1472613.116
1472711.13
1472804.251
1472892.902
1472978.234
1473063.561
1473149.45
1466354.196
1465921.597
1466024.328
1466101.931
1466167.018
1466243.439
1466333.433
1466437.162
1466553.085
1466680.553
1466820.003
1466969.381
1467126.632
1467291.802
1467464.814
1467644.267
1467829.061
1468017.279
1468208.834
1468402.138
1468597.236
1468792.593
1468986.983
1469180.048
1469369.814
1469558.2
1469742.68
1469923.128
1470099.286
1470269.637
1470435.883
1470596.575
1470751.566
1470901.721
1471045.485
1471184.433
1471317.725
1471445.02
1471567.645
1471684.189
1471796.461
1471903.506
1472005.28
1472103.054
1472195.79
1472284.829
1472368.936
1472450.206
1472532.041
1472613.272
1466095.225
1465682.269
1465781.209
1465855.902
1465918.199
1465992.168
1466080.488
1466181.67
1466295.312
1466420.434
1466555.842
1466699.335
1466851.356
1467012.091
1467179.55
1467353.18
1467530.694
1467712.43
1467896.381
1468082.839
1468269.465
1468457.656
1468644.805
1468828.562
1469011.532
1469191.138
1469367.944
1469540.339
1469708.05
1469871.63
1470029.237
1470183.066
1470331.653
1470474.302
1470612.067
1470743.414
1470870.925
1470993.21
1471109.441
1471221.247
1471327.307
1471429.557
1471527.003
1471619.978
1471709.181
1471793.366
1471874.022
1471951.004
1472029.258
1472106.964
1465850.23
1465455.78
1465551.057
1465623.092
1465684.267
1465756.62
1465843.654
1465943.063
1466053.938
1466175.486
1466305.331
1466444.295
1466592.819
1466748.275
1466910.68
1467077.38
1467249.138
1467423.555
1467601.446
1467779.93
1467960.401
1468139.617
1468318.783
1468496.671
1468671.42
1468843.939
1469011.655
1469177.083
1469338.104
1469493.472
1469645.026
1469790.75
1469933.079
1470070.087
1470200.582
1470326.978
1470447.635
1470564.463
1470676.108
1470782.157
1470884.163
1470980.855
1471074.235
1471163.07
1471247.964
1471329.065
1471405.53
1471479.66
1471553.711
1471628.499
1465620.1
1465242.988
1465335.052
1465405.046
1465466.138
1465537.383
1465621.98
1465718.574
1465826.314
1465942.79
1466068.75
1466205.176
1466348.67
1466499.816
1466655.614
1466817.279
1466982.006
1467151.107
1467321.221
1467494.175
1467666.482
1467839.152
1468009.866
1468181.031
1468349.809
1468513.504
1468675.101
1468831.859
1468986.061
1469135.814
1469279.734
1469420.15
1469554.765
1469685.558
1469811.287
1469931.432
1470047.601
1470157.972
1470264.717
1470366.517
1470463.481
1470556.799
1470645.184
1470730.415
1470811.13
1470888.576
1470962.171
1471032.727
1471104.259
1471174.81
1465408.262
1465046.822
1465136.053
1465203.811
1465262.329
1465331.738
1465415.114
1465507.892
1465611.267
1465726.055
1465848.56
1465979.532
1466119.298
1466264.051
1466415.445
1466570.285
1466730.385
1466891.885
1467057.041
1467222.17
1467388.551
1467553.043
1467718.599
1467881.464
1468042.547
1468201.015
1468354.551
1468505.628
1468651.539
1468795.002
1468934.043
1469067.475
1469197.013
1469320.576
1469441.172
1469556.936
1469667.278
1469773.703
1469874.556
1469972.132
1470065.064
1470154.08
1470239.573
1470320.204
1470397.93
1470471.373
1470542.034
1470609.526
1470677.831
1470745.955
1465207.301
1464860.793
1464947.399
1465013.561
1465072.218
1465138.794
1465217.452
1465307.63
1465410.169
1465520.268
1465639.037
1465767.434
1465901.126
1466042.195
1466187.039
1466337.985
1466490.641
1466647.782
1466805.421
1466965.25
1467123.384
1467283.191
1467440.755
1467597.587
1467750.755
1467902.517
1468051.278
1468194.573
1468335.454
1468471.139
1468604.569
1468733.257
1468856.123
1468975.627
1469089.703
1469200.668
1469306.697
1469407.94
1469505.479
1469597.779
1469687.209
1469772.161
1469853.767
1469931.657
1470005.654
1470076.808
1470143.688
1470208.784
1470273.679
1470339.331
1465025.716
1464691.259
1464774.389
1464837.005
1464891.22
1464955.91
1465034.918
1465122.986
1465220.342
1465327.508
1465443.749
1465566.067
1465696.649
1465831.235
1465972.536
1466116.148
1466264.168
1466414.794
1466567.436
1466719.503
1466873.491
1467025.717
1467178.036
1467326.598
1467474.661
1467618.71
1467761.028
1467900.078
1468033.762
1468165.1
1468291.149
1468414.328
1468532.816
1468646.707
1468757.157
1468861.999
1468963.811
1469060.792
1469153.882
1469243.501
1469328.234
1469410.177
1469487.57
1469562.462
1469633.605
1469701.538
1469766.366
1469828.389
1469891.38
1469953.333
1464847.484
1464525.824
1464606.874
1464668.307
1464723.821
1464787.861
1464862.253
1464947.57
1465044.675
1465147.223
1465257.647
1465377.601
1465501.676
1465632.745
1465767.346
1465905.763
1466049.088
1466193.225
1466339.701
1466486.381
1466634.307
1466781.934
1466926.284
1467070.473
1467210.733
1467349.934
1467484.675
1467617.955
1467747.573
1467872.51
1467994.417
1468110.665
1468224.747
1468334.244
1468439.531
1468541.245
1468637.463
1468730.902
1468819.688
1468905.508
1468987.625
1469065.615
1469140.765
1469211.688
1469280.333
1469345.116
1469407.519
1469467.121
1469527.37
1469587.563
1464689.567
1464379.419
1464458.001
1464516.597
1464567.44
1464627.862
1464700.19
1464785.419
1464876.189
1464975.049
1465084.262
1465197.789
1465318.721
1465443.924
1465572.84
1465708.38
1465844.533
1465984.186
1466123.203
1466265.728
1466406.568
1466547.82
1466687.271
1466824.754
1466961.074
1467092.744
1467223.281
1467349.158
1467473.88
1467594.308
1467710.178
1467823.24
1467931.119
1468036.589
1468137.214
1468234.375
1468327.863
1468416.489
1468502.512
1468583.94
1468663.03
1468738.053
1468809.933
1468878.868
1468944.229
1469007.316
1469066.503
1469124.189
1469181.642
1469240.069
1464538.941
1464236.564
1464313.129
1464369.982
1464420.123
1464482.832
1464552.375
1464630.646
1464718.188
1464816.221
1464919.038
1465029.906
1465145.247
1465264.813
1465391.776
1465519.829
1465652.206
1465784.149
1465920.173
1466054.958
1466191.193
1466324.517
1466459.088
1466590.666
1466720.765
1466848.852
1466972.583
1467095.007
1467212.613
1467328.293
1467439.464
1467547.626
1467652.727
1467752.381
1467849.584
1467941.887
1468031.629
1468117.493
1468199.651
1468279.057
1468353.815
1468426.362
1468494.989
1468561.401
1468624.514
1468684.913
1468742.469
1468797.61
1468853.67
1468909.044
1464399.197
1464105.936
1464183.922
1464241.14
1464288.274
1464343.902
1464410.609
1464489.089
1464573.487
1464664.965
1464765.91
1464870.739
1464980.537
1465098.62
1465218.205
1465342.929
1465467.372
1465596.613
1465725.164
1465856.137
1465984.335
1466114.187
1466240.849
1466367.925
1466491.275
1466614.109
1466733.924
1466850.531
1466964.893
1467073.821
1467181.373
1467284.459
1467385.014
1467481.825
1467574.203
1467663.961
1467748.859
1467831.848
1467910.765
1467986.742
1468059.484
1468128.7
1468195.654
1468258.648
1468319.897
1468377.544
1468433.233
1468486.344
1468540.378
1468594.091
1464279.865
1463991.201
1464063.333
1464115.729
1464160.695
1464215.433
1464282.784
1464354.936
1464435.377
1464526.715
1464620.399
1464720.073
1464828.983
1464939.707
1465056.403
1465172.632
1465293.642
1465416.181
1465540.583
1465664.136
1465788.877
1465911.539
1466034.89
1466154.375
1466274.106
1466389.737
1466505.327
1466616.98
1466725.842
1466832.086
1466933.976
1467033.983
1467128.998
1467222.272
1467311.336
1467397.096
1467480.072
1467558.767
1467635.36
1467707.587
1467777.929
1467844.747
1467908.934
1467970.44
1468029.012
1468085.392
1468138.464
1468190.361
1468241.952
1468294.554
1464160.429
1463878.642
1463949.86
1464003.11
1464050
1464100.91
1464160.777
1464230.076
1464310.978
1464393.96
1464483.358
1464582.735
1464683.852
1464790.942
1464899.505
1465011.541
1465127.853
1465244.423
1465363.289
1465481.059
1465600.326
1465718.226
1465835.295
1465951.474
1466064.683
1466177.58
1466286.136
1466393.792
1466496.95
1466599.066
1466697.768
1466792.974
1466885.822
1466973.629
1467059.772
1467141.65
1467221.458
1467297.908
1467371.026
1467441.673
1467508.432
1467573.396
1467634.598
1467694.301
1467750.756
1467805.087
1467856.701
1467906.584
1467956.994
1468007.199
1464066.308
1463787.407
1463855.745
1463903.541
1463943.588
1463991.834
1464051.54
1464119.836
1464191.746
1464270.669
1464360.236
1464451.432
1464548.673
1464648.893
1464751.498
1464861.174
1464970.294
1465083.149
1465194.122
1465308.364
1465420.049
1465533.694
1465644.306
1465755.682
1465864.492
1465971.897
1466077.44
1466178.863
1466279.42
1466375.552
1466470.788
1466561.855
1466650.506
1466736.113
1466817.967
1466897.929
1466973.511
1467047.59
1467117.755
1467185.716
1467250.749
1467312.944
1467372.993
1467429.888
1467485.119
1467536.946
1467587.371
1467635.221
1467684.376
1467732.699
1463970.57
1463695.525
1463762.811
1463809.15
1463849.147
1463899.748
1463953.739
1464014.472
1464083.896
1464162.308
1464243.057
1464330.298
1464421.807
1464515.665
1464617.049
1464718.396
1464824.368
1464928.54
1465036.761
1465142.762
1465251.393
1465356.983
1465464.329
1465568.19
1465673.221
1465774.615
1465875.399
1465973.153
1466068.832
1466162.699
1466252.34
1466340.655
1466424.406
1466507.04
1466586.006
1466662.515
1466736.458
1466806.826
1466875.355
1466939.929
1467003.169
1467062.968
1467121.05
1467176.304
1467229.392
1467280.247
1467328.684
1467375.668
1467422.798
1467470.524
1463889.92
1463619.208
1463688.468
1463735.885
1463771.073
1463812.398
1463862.615
1463923.057
1463989.46
1464059.356
1464136.481
1464218.438
1464302.888
1464395.418
1464487.879
1464584.982
1464682.442
1464782.345
1464883.414
1464985.199
1465086.983
1465189.032
1465289.718
1465390.84
1465489.029
1465587.321
1465681.238
1465775.664
1465866.445
1465956.176
1466042.861
1466126.717
1466208.65
1466286.482
1466363.227
1466436.002
1466507.414
1466575.419
1466641.086
1466704.361
1466764.701
1466823.375
1466878.725
1466932.745
1466983.556
1467033.28
1467080.046
1467125.778
1467171.53
1467217.88
1466286.425
1466352.683
1466415.261
1466476.702
1466535.035
1466591.591
1466645.676
1466697.568
1466747.613
1466795.29
1466841.296
1466885.236
1466930.288
1466974.655
)
;

boundaryField
{
    front_top
    {
        type            wedge;
    }
    front_middle
    {
        type            wedge;
    }
    front_bottom
    {
        type            wedge;
    }
    back_top
    {
        type            wedge;
    }
    back_middle
    {
        type            wedge;
    }
    back_bottom
    {
        type            wedge;
    }
    axis_top
    {
        type            symmetryPlane;
    }
    axis_middle
    {
        type            symmetryPlane;
    }
    axis_bottom
    {
        type            symmetryPlane;
    }
    wall_top
    {
        type            fixedFluxPressure;
        gradient        uniform 0;
        value           nonuniform List<scalar> 
24
(
1477093.282
1476337.978
1475624.224
1474951.495
1474315.818
1473715.371
1473149.45
1472613.272
1472106.964
1471628.499
1471174.81
1470745.955
1470339.331
1469953.333
1469587.563
1469240.069
1468909.044
1468594.091
1468294.554
1468007.199
1467732.699
1467470.524
1467217.88
1466974.655
)
;
    }
    wall_middle
    {
        type            fixedFluxPressure;
        gradient        nonuniform 0();
        value           nonuniform 0();
    }
    wall_bottom
    {
        type            fixedFluxPressure;
        gradient        nonuniform 0();
        value           nonuniform 0();
    }
    inlet
    {
        type            zeroGradient;
    }
    outlet
    {
        type            fixedValue;
        value           nonuniform 0();
    }
    procBoundary8to7
    {
        type            processor;
        value           nonuniform List<scalar> 
51
(
1463833.951
1463560.9
1463624.574
1463665.477
1463697.422
1463736.873
1463788.859
1463842.696
1463901.523
1463968.566
1464040.166
1464114.458
1464197.112
1464280.362
1464367.574
1464457.916
1464548.7
1464643.985
1464737.713
1464835
1464930.037
1465027.383
1465122.566
1465218.486
1465312.567
1465404.953
1465496.376
1465585.017
1465673.262
1465757.159
1465840.765
1465920.561
1465998.936
1466074.558
1466147.636
1466218.89
1466218.89
1466073.458
1466136.733
1466198.105
1466256.562
1466313.783
1466367.643
1466420.522
1466470.39
1466519.237
1466565.456
1466610.169
1466653.013
1466696.75
1466740.312
)
;
    }
    procBoundary8to9
    {
        type            processor;
        value           nonuniform List<scalar> 
51
(
1469740.459
1469048.486
1468739.792
1468739.792
1468833.55
1468898.46
1468983.652
1469088.798
1469208.228
1469341.845
1469496.976
1469664.235
1469850.4
1470049.115
1470259.026
1470482.911
1470716.304
1470959.615
1471211.083
1471468.418
1471734.706
1472002.299
1472273.614
1472544.685
1472816.307
1473088.176
1473356.215
1473621.194
1473883.014
1474139.449
1474390.522
1474634.236
1474871.722
1475102.681
1475325.43
1475540.348
1475747.459
1475946.667
1476138.002
1476321.386
1476497.414
1476665.671
1476826.527
1476980.323
1477127.085
1477267.527
1477401.203
1477527.971
1477649.934
1477772.467
1477895.225
)
;
    }
}


// ************************************************************************* //
