/*--------------------------------*- C++ -*----------------------------------*\
  =========                 |
  \\      /  F ield         | OpenFOAM: The Open Source CFD Toolbox
   \\    /   O peration     | Website:  https://openfoam.org
    \\  /    A nd           | Version:  7
     \\/     M anipulation  |
\*---------------------------------------------------------------------------*/
FoamFile
{
    version     2.0;
    format      ascii;
    class       volScalarField;
    location    "0.0009";
    object      thermo:mu;
}
// * * * * * * * * * * * * * * * * * * * * * * * * * * * * * * * * * * * * * //

dimensions      [1 -1 -1 0 0 0 0];

internalField   nonuniform List<scalar> 
1166
(
7986459.235
7927164.739
7251426.973
7198633.231
7086955.243
6925670.931
6722282.685
6483946.468
6217964.144
5931448.734
5631249.404
5322909.292
5011891.25
4702719.571
4398918.179
4103814.753
3819355.766
3547616.276
3289466.315
3045898.484
2817060.5
2603072.171
2403746.737
2218584.233
2047213.339
1888823.404
1742797.501
1608398.457
1484804.799
1371356.682
1267246.924
1171757.821
1084289.276
1004111.022
930643.7455
863355.4411
801676.5383
745151.4646
693330.3724
645780.7521
602158.7605
562093.3231
525270.4193
491428.2183
460276.1909
431592.8316
405158.2253
380767.9326
358263.868
337463.1333
318232.0465
300430.1606
6605972.009
6558864.498
6459187.152
6315093.554
6133057.538
5919694.056
5681630.601
5424838.796
5155136.272
4878249.774
4598408.441
4319823.453
4045869.341
3779116.077
3521875.122
3275522.774
3041356.317
2819907.005
2611606.988
2416534.636
2234473.473
2065223.946
1908181.617
1762920.638
1628774.298
1505070.072
1391246.47
1286531.526
1190318.188
1101996.424
1020906.293
946518.6847
878275.3451
815650.5332
758221.0812
705505.2344
657106.9175
612676.6203
571839.0152
534301.4744
499775.323
467984.5662
438715.8501
411726.2448
386828.9443
363846.2313
342602.1928
322967.9265
304786.9053
287947.411
6036916.949
5994655.856
5905337.058
5776184.555
5612923.173
5421326.192
5207132.531
4976165.412
4733429.417
4483549.897
4231050.431
3979232.137
3731239.151
3489539.579
3255998.035
3032169.253
2818968.598
2617119.308
2426973.769
2248592.432
2081959.269
1926679.795
1782526.905
1648914.053
1525348.976
1411304.19
1306122.44
1209290.588
1120192.158
1038246.626
962972.1235
893793.5798
830248.9218
771896.8238
718277.5344
669025.8926
623760.6741
582130.0465
543856.1503
508622.1031
476178.6103
446290.2632
418721.4708
393294.2476
369809.9242
348108.1316
328042.3017
309462.0271
292259.3073
276302.6005
5533788.986
5495797.43
5415368.672
5299004.081
5151832.234
4979284.879
4786236.061
4577625.708
4358231.989
4132356.941
3903528.855
3675264.702
3450101.437
3230366.684
3017816.864
2813746.992
2619143.277
2434638.214
2260557.65
2097079.736
1944028.397
1801359.352
1668598.009
1545431.557
1431374.211
1325894.912
1228568.729
1138790.124
1056083.654
979948.9605
909867.0557
845425.9829
786153.8246
731632.4585
681516.6876
635402.8177
592976.5881
553932.6135
517968.8445
484851.8824
454319.4449
426154.6206
400168.6854
376160.1692
353979.4782
333460.9495
314467.8109
296876.574
280560.31
265429.3341
5086946.72
5052681.119
4980123.862
4875107.457
4742218.674
4586065.396
4411286.803
4222507.516
4023643.599
3818540.185
3610814.491
3403109.774
3198139.576
2997798.137
2803750.1
2617209.417
2439091.448
2269970.447
2110227.852
1959922.255
1819141.736
1687587.87
1565114.105
1451284.497
1345726.87
1248033.305
1157692.544
1074315.39
997385.6833
926455.6392
861138.368
800962.3261
745562.4982
694563.2616
647592.1794
604359.0076
564527.4813
527823.2127
494004.2705
462805.9767
434027.7848
407456.7979
382906.4917
360221.5845
339229.4301
319804.159
301804.8665
285116.6437
269634.9968
255254.2432
4689213.347
4658157.792
4592384.757
4497155.773
4376707.202
4235183.884
4076609.622
3904965.521
3724189.184
3537608.048
3348185.532
3158876.643
2971642.265
2788500.761
2610851.424
2439891.401
2276420.494
2121030.522
1974006.787
1835579.054
1705629.947
1584174.686
1470845.958
1365432.927
1267551.015
1176800.557
1092851.159
1015208.987
943507.7391
877339.7926
816286.4782
760023.9404
708146.0589
660328.5947
616267.2242
575635.2785
538181.6554
503635.8016
471755.8658
442340.1028
415162.7985
390055.2225
366839.9416
345357.3177
325476.6942
307050.1237
289972.0832
274122.2107
259405.7633
245731.0235
4333789.636
4305605.076
4245899.542
4159423.433
4049890.282
3921026.827
3776653.626
3620384.639
3455478.293
3285123.794
3112200.172
2938920.392
2767546.587
2599614.102
2436596.539
2279490.272
2129102.132
1985931.693
1850358.642
1722468.543
1602372.653
1489851.632
1384836.649
1286973.256
1195998.617
1111588.128
1033334.805
960939.6678
893976.3937
832105.022
774984.1925
722240.5662
673587.4308
628688.9944
587254.6734
549033.5933
513745.1153
481175.0151
451093.9667
423292.7742
397605.9366
373839.8457
351851.9839
331491.3899
312622.4306
295132.6327
278896.9007
263828.4262
249821.5281
236798.0037
4015423.815
3989726.41
3935279.534
3856395.465
3756577.367
3639094.089
3507279.672
3364383.758
3213676.169
3057809.691
2899264.37
2740471.062
2583062.518
2428773.092
2278760.489
2134048.269
1995332.952
1863150.871
1737784.678
1619449.819
1508090.718
1403744.279
1306135.091
1215128.605
1130411.076
1051690.952
978673.7891
910985.6659
848351.7365
790404.511
736828.3276
687340.7879
641608.4002
599379.3181
560372.3386
524332.0108
491054.2462
460290.7317
431857.0484
405562.6613
381228.2
358714.1147
337854.122
318527.9066
300604.3739
283970.2092
268528.2497
254173.1361
240831.7496
228410.2314
3729310.984
3705853.487
3656142.652
3584096.293
3492760.229
3385188.123
3264543.421
3133746.012
2995495.12
2852428.687
2706905.245
2560792.281
2416003.655
2273817.087
2135471.291
2001837.265
1873612.853
1751268.165
1635130.242
1525321.53
1421945.108
1324858.49
1234036.653
1149190.759
1070152.212
996621.622
928308.5943
864965.3379
806238.9961
751874.4235
701561.5783
655011.0129
611985.0916
572188.5283
535401.3742
501390.9813
469931.8903
440848.431
413928.6807
389016.4023
365948.9072
344573.3041
324769.1105
306393.6353
289345.8618
273511.5706
258797.8551
245117.4844
232383.4775
220530.1382
3471553.927
3450049.134
3404468.761
3338390.012
3254724.275
3156134.826
3045382.147
2925149.599
2798132.585
2666541.045
2532441.027
2397896.875
2264259.155
2132976.522
2005066.655
1881391.532
1762594.941
1649121.822
1541268.431
1439211.4
1342968.278
1252553.159
1167783.248
1088593.095
1014682.582
945864.5418
881878.5666
822439.8665
767325.5486
716217.0767
668882.1863
625053.6755
584471.8956
546932.399
512180.8331
480027.0351
450267.4136
422707.8746
397199.854
373561.0789
351659.0436
331351.8957
312510.4297
295028.2032
278784.6031
263696.4297
249661.3867
236603.3408
224443.4397
213111.3083
3238692.631
3218960.914
3177130.97
3116470.479
3039506.401
2948769.614
2846868.262
2736245.059
2619143.274
2497756.853
2374097.625
2249707.725
2126179.475
2004644.179
1886128.015
1771430.238
1661118.609
1555655.736
1455298.721
1360224.432
1270492.71
1186056.119
1106878.007
1032742.983
963545.0539
899014.2007
838957.7545
783131.5627
731270.5765
683176.8997
638562.3478
597219.1501
558913.6689
523418.3804
490560.4718
460113.0194
431911.3442
405781.2559
381557.0649
359109.5334
338281.853
318961.8681
301023.4051
284359.2761
268875.2638
254470.2629
241072.9579
228592.0291
216966.8999
206123.9801
3027845.239
3009664.779
2971117.399
2915202.566
2844323.783
2760741.719
2666740.907
2564561.696
2456451.136
2344298.703
2229815.762
2114714.157
2000200.628
1887462.732
1777432.363
1670803.308
1568193.49
1469946.642
1376395.728
1287652.832
1203810.671
1124857.512
1050697.569
981243.829
916284.1819
855702.1203
799234.2073
746693.6443
697858.5119
652484.8088
610394.6725
571330.2874
535107.6435
501525.8893
470384.4112
441527.8575
414762.1164
389946.9049
366929.0503
345568.1932
325749.2694
307337.6659
290238.9987
274340.8632
259556.246
245798.6668
232985.2672
221050.4476
209917.2916
199535.8614
2836395.638
2819631.081
2784079.776
2732496.158
2666999.611
2589710.601
2502791.678
2408356.666
2308251.85
2204292.692
2098242.159
1991382.223
1885041.685
1780257.598
1677850.986
1578580.186
1482880.734
1391235.632
1303815.415
1220852.926
1142366.883
1068389.625
998841.7317
933610.1507
872589.9838
815565.6015
762411.8025
712883.8435
666805.6371
623972.3317
584164.9883
547220.0507
512914.438
481087.1765
451555.0102
424146.0814
398723.8613
375121.0046
353218.1484
332877.9227
313982.6919
296427.8126
280099.4609
264920.0307
250786.9042
237629.5209
225368.0712
213936.3267
203271.8234
193314.0406
2662236.712
2646718.384
2613805.11
2566037.597
2505410.366
2433902.827
2353396.157
2265779.16
2172907.934
2076462.517
1977859.191
1878523.603
1779565.972
1681933.53
1586506.075
1493814.841
1404483.682
1318747.287
1236976.49
1159225.951
1085658.025
1016205.643
950864.6056
889527.3822
832068.9793
778361.4168
728201.5434
681465.0692
637920.6649
597408.6256
559737.9161
524717.4395
492201.0498
461988.3142
433938.2656
407888.424
383693.1729
361229.2246
340352.483
320961.736
302931.5793
286165.4103
270568.1448
256046.7864
242528.4961
229926.1685
218182.6331
207222.0351
196993.3701
187436.8201
2503348.893
2488977.511
2458491.988
2414236.036
2358004.346
2291590.605
2216783.815
2135447.355
2049122.24
1959335.149
1867587.994
1775027.948
1682724.98
1591657.266
1502458.753
1415867.517
1332215.676
1251960.273
1175248.529
1102332.084
1033188.397
967916.0045
906408.3927
848640.0006
794469.5667
743774.074
696414.9873
652203.0125
611015.8535
572639.0898
536929.7825
503714.7247
472826.2736
444125.1984
417439.4005
392648.3122
369604.109
348184.7009
328276.4956
309756.0409
292537.4748
276506.8552
261586.9427
247688.6957
234736.7285
222662.4559
211394.8459
200880.8956
191055.765
181878.4108
2358239.236
2344878.884
2316534.251
2275376.953
2223066.385
2161341.321
2091797.461
2016026.405
1935562.921
1851943.816
1766331.867
1679907.641
1593720.535
1508513
1425105.53
1343951.424
1265569.386
1190231.505
1118226.526
1049648.431
984625.0857
923119.1454
865174.0197
810652.5567
759513.2852
711599.5681
666794.1417
624950.9163
585900.5228
549516.9208
515613.3686
484063.4682
454700.4707
427381.7818
401979.1976
378344.0901
356373.6436
335931.1535
316915.7158
299220.8686
282745.4514
267409.3947
253116.5517
239802.1218
227382.2468
215797.9894
204982.7844
194881.6537
185442.2782
176613.8017
2225258.579
2212814.346
2186450.161
2148159.038
2099474.791
2041928.695
1977048.436
1906375.797
1831338.737
1753192.184
1673179.086
1592389.068
1511667.1
1431910.288
1353678.793
1277556.521
1203934.212
1133142.148
1065394.443
1000838.882
939544.3155
881558.4838
826828.4547
775338.2172
726953.6319
681621.0839
639171.6389
599499.4422
562453.245
527886.3941
495676.4957
465654.8033
437708.4164
411683.1416
387459.8274
364917.6913
343930.569
324405.8304
306220.7588
289292.0319
273520.3462
258824.7204
245127.804
232350.7629
220434.5794
209305.1956
198916.0533
189202.789
180123.6482
171626.1107
2103328.692
2091731.742
2067121.52
2031370.351
1985902.496
1932150.833
1871604.391
1805568.707
1735358.335
1662260.026
1587369.249
1511624.933
1435992.867
1361122.292
1287664.772
1216120.786
1146866.117
1080231.888
1016390.285
955517.2581
897668.5331
842890.2467
791159.3945
742422.5543
696622.3062
653631.646
613381.8657
575707.5272
540512.1119
507647.614
476987.1961
448404.9315
421755.3878
396941.0925
373817.0654
352285.0604
332229.7118
313546.8526
296146.6025
279925.4086
264814.7808
250720.1403
237577.0102
225310.9885
213859.9935
203165.2846
193168.9911
183825.063
175079.8469
166896.7408
1991173.561
1980329.739
1957315.037
1923899.557
1881425.349
1831182.679
1774487.413
1712623.843
1646902.629
1578387.949
1508101.571
1437067.926
1366004.087
1295630.46
1226545.438
1159173.615
1093957.74
1031098.702
970878.9975
913366.0862
858707.3227
806875.748
757905.8787
711727.357
668288.4999
627500.5573
589251.4757
553451.2039
519954.3703
488674.7366
459459.6418
432202.7247
406781.4676
383074.6827
360985.739
340389.5915
321202.6682
303313.5997
286638.5841
271091.3765
256588.608
243062.9637
230433.7081
218649.0533
207635.6275
197346.7136
187724.0309
178723.3597
170297.3082
162405.6723
1887890.55
1877748.778
1856221.308
1824935.37
1785123.641
1738015.031
1684864.684
1626899.027
1565200.372
1500830.167
1434859.499
1368048.713
1301186.805
1234955.206
1169829.979
1106357.075
1044783.235
985457.3806
928513.3338
874148.1037
822380.3769
773303.7887
726855.5094
683056.9681
641800.7262
603042.0203
566668.4008
532585.0437
500691.8958
470860.0095
443000.5048
416973.995
392691.2673
370031.4395
348895.1592
329185.9923
310798.3449
293656.8714
277659.7933
262740.6211
248814.784
235816.0868
223678.1231
212336.838
201740.0107
191827.8709
182559.5371
173879.671
165755.323
158138.3589
1792608.888
1783092.293
1762889.61
1733523.478
1696156.648
1651981.251
1602090.259
1547598.41
1489585.689
1429107.426
1366988.479
1304068.283
1241093.397
1178606.681
1117204.648
1057232.108
999067.4296
942942.5059
889068.4377
837559.6412
788508.976
741934.816
697860.3366
656226.2058
617017.1118
580121.5267
545494.6822
513012.8373
482597.4142
454134.2337
427517.0878
402652.1472
379418.817
357740.6812
337497.9974
318611.1241
300983.4623
284530.4706
269177.215
254839.3165
241458.0356
228953.5761
217274.9915
206355.2645
196146.1884
186594.4657
177654.3104
169282.4716
161437.2151
154083.6541
1704493.381
1695561.343
1676600.631
1649033.792
1613935.087
1572374.233
1525418.79
1474152.662
1419574.549
1362569.577
1304015.573
1244703.277
1185239.358
1126267.642
1068221.696
1011512.447
956466.2381
903311.5262
852258.4105
803402.0569
756848.0264
712611.9206
670711.7176
631116.2623
593777.0285
558640.0039
525611.0802
494634.2476
465585.4902
438396.2623
412948.1068
389155.5759
366920.1611
346143.0826
326744.7656
308621.2587
291705.7806
275903.2596
261148.375
247365.1113
234486.7489
222453.5789
211200.6642
200681.1356
190834.3603
181623.3046
172992.9772
164910.4375
157330.761
150224.0274
1622998.337
1614590.405
1596737.085
1570775.623
1537712.902
1498552.806
1454362.66
1406054.186
1354558.948
1300781.626
1245533.433
1189480.16
1133308.29
1077528.109
1022585.651
968896.1092
916708.3558
866326.6663
817851.6565
771477.3046
727214.1076
685160.1962
645270.2659
607565.9589
571974.1648
538458.3221
506940.6448
477343.3483
449587.554
423569.3781
399221.1358
376428.4854
355121.9509
335199.1324
316581.3442
299184.9938
282926.2678
267740.0087
253542.7895
240281.1141
227878.7244
216285.3214
205439.0728
195291.2367
185792.5061
176896.3712
168562.8264
160749.3293
153423.6334
146547.3322
274618.4672
260003.8794
246339.8449
233560.2454
221610.9108
210427.045
199966.0776
190168.1344
180996.8705
172400.3233
164345.0949
156788.6825
149700.5466
143045.1134
)
;

boundaryField
{
    front_top
    {
        type            wedge;
    }
    front_middle
    {
        type            wedge;
    }
    front_bottom
    {
        type            wedge;
    }
    back_top
    {
        type            wedge;
    }
    back_middle
    {
        type            wedge;
    }
    back_bottom
    {
        type            wedge;
    }
    axis_top
    {
        type            symmetryPlane;
    }
    axis_middle
    {
        type            symmetryPlane;
    }
    axis_bottom
    {
        type            symmetryPlane;
    }
    wall_top
    {
        type            calculated;
        value           nonuniform List<scalar> 
24
(
291987.8512
279951.6197
268729.0266
258236.6377
248421.3479
239226.2413
230596.7355
222498.7865
214881.1445
207709.632
200955.2406
194580.8364
188561.9832
182875.034
177492.2995
172394.7062
167565.2061
162981.7753
158628.489
154495.1267
150562.7466
146818.7633
143253.8272
139856.5273
)
;
    }
    wall_middle
    {
        type            calculated;
        value           nonuniform 0();
    }
    wall_bottom
    {
        type            calculated;
        value           nonuniform 0();
    }
    inlet
    {
        type            calculated;
        value           nonuniform 0();
    }
    outlet
    {
        type            calculated;
        value           nonuniform 0();
    }
    procBoundary8to7
    {
        type            processor;
        value           nonuniform List<scalar> 
51
(
1547387.954
1539459.799
1522623.525
1498139.175
1466997.344
1430098.163
1388377.713
1342751.371
1294137.968
1243343.109
1191085.296
1138087.559
1084922.169
1032072.085
980033.596
929092.8875
879602.4268
831734.9476
785697.1628
741576.9076
699478.4309
659412.5358
621418.4449
585446.2937
551496.129
519480.748
489372.6939
461069.1556
434509.7438
409603.2535
386266.996
364422.7432
343974.0557
324856.4322
306969.945
290252.3534
290252.3534
266745.9902
252667.9288
239503.9491
227183.2354
215656.1634
204865.03
194761.4621
185299.2405
176431.9309
168121.9534
160326.6402
153015.6659
146150.307
139705.5497
)
;
    }
    procBoundary8to9
    {
        type            processor;
        value           nonuniform List<scalar> 
51
(
8827018.522
8760039.788
7801767.607
7801767.607
7620658.401
7392143.12
7124583.137
6826522.911
6505959.548
6170044.089
5825728.917
5478917.075
5134351.297
4796695.493
4468741.349
4153536.236
3852495.327
3567314.777
3298378.739
3046326.115
2810926.149
2591971.525
2389021.484
2201309.038
2028247.224
1868881.842
1722394.685
1587987.455
1464706.453
1351775.626
1248384.754
1153729.542
1067146.32
987918.3964
915402.0807
849070.5462
788336.5791
732708.4653
681767.492
635056.3437
592213.0248
552895.8953
516771.5392
483579.2957
453040.2581
424917.6419
399013.1314
375112.9545
353057.7787
332678.1404
313829.7073
)
;
    }
}


// ************************************************************************* //
