/*--------------------------------*- C++ -*----------------------------------*\
  =========                 |
  \\      /  F ield         | OpenFOAM: The Open Source CFD Toolbox
   \\    /   O peration     | Website:  https://openfoam.org
    \\  /    A nd           | Version:  7
     \\/     M anipulation  |
\*---------------------------------------------------------------------------*/
FoamFile
{
    version     2.0;
    format      ascii;
    class       volTensorField;
    location    "0.0024";
    object      grad(U);
}
// * * * * * * * * * * * * * * * * * * * * * * * * * * * * * * * * * * * * * //

dimensions      [0 0 -1 0 0 0 0];

internalField   nonuniform List<tensor> 
14000
(
(-0.002980502598 3.994752833e-17 -0.0001757250275 -2.65957848e-15 -0.004826901449 0 0.0005944225602 -2.934514751e-16 0.008367964102)
(-0.004006389747 -3.211866692e-16 -0.0004605657059 -9.338874535e-16 -0.004247662423 0 0.001558191336 -5.022346263e-16 0.008434539374)
(-0.004042522416 -6.481652469e-16 -0.0007589084433 -3.393573181e-16 -0.004096013839 0 0.002471930378 -6.393837747e-16 0.008586926674)
(-0.004278114987 -7.704916398e-16 -0.001037103057 -5.286169408e-17 -0.004111342787 0 0.003415791364 -5.118851258e-16 0.00880872603)
(-0.004486149607 -8.86978729e-17 -0.001321024723 1.449360987e-16 -0.004165832907 0 0.004364273492 -4.295987116e-16 0.009095533566)
(-0.004711530858 4.235038267e-16 -0.001605486369 2.032135697e-17 -0.004237160132 0 0.005309918223 -4.428959664e-16 0.009442397916)
(-0.004968818541 2.431761947e-16 -0.001889217742 -2.651983635e-17 -0.00432196212 0 0.00625382738 -3.283404282e-16 0.009844331403)
(-0.005253587532 1.432673275e-16 -0.0021734055 -5.514068962e-17 -0.004418381793 0 0.007197126136 -2.287768824e-16 0.0102966623)
(-0.005560168252 9.064076113e-17 -0.002459452126 -7.146299615e-17 -0.004524657866 0 0.008139997155 -1.369241202e-16 0.01079506317)
(-0.00588395607 6.381435987e-17 -0.002748627603 -5.259227727e-17 -0.00463926119 0 0.009082014501 -1.410406443e-16 0.01133553459)
(-0.006220433885 4.599547e-17 -0.003042165756 -4.89216944e-17 -0.004760831745 0 0.01002221131 -1.394343087e-16 0.01191439614)
(-0.006564870781 3.420657199e-17 -0.003341272138 -4.592268727e-17 -0.004888096793 0 0.01095910971 -1.330596233e-16 0.01252827025)
(-0.006912345328 3.252310599e-17 -0.003647112947 -4.343483604e-17 -0.005019830882 0 0.01189073329 -1.211420987e-16 0.01317405995)
(-0.007257727547 3.68837031e-17 -0.00396079841 -6.201791786e-17 -0.005154835983 0 0.01281466148 -1.371772971e-16 0.01384893832)
(-0.00759564966 3.765938998e-17 -0.004283335991 -5.935846383e-17 -0.005291926705 0 0.01372810357 -1.483132034e-16 0.01455032473)
(-0.007920716211 3.285245089e-17 -0.004615676777 -4.756915965e-17 -0.005429921703 0 0.01462780796 -1.273900785e-16 0.01527586128)
(-0.00822767171 3.341093687e-17 -0.004958837842 -3.674844184e-17 -0.005567660249 0 0.01551007289 -1.306336335e-16 0.01602340479)
(-0.008510534448 4.765066942e-17 -0.005313938758 -7.123253356e-17 -0.005704009449 0 0.01637097082 -1.593829002e-16 0.01679102611)
(-0.008762039421 5.543002474e-17 -0.005682211399 -6.926216636e-17 -0.005837793981 0 0.01720622521 -1.853382331e-16 0.01757701555)
(-0.008974604049 5.085418673e-17 -0.006064897596 -5.065631052e-17 -0.00596777091 0 0.01801114929 -2.060586829e-16 0.01837987662)
(-0.009141156329 4.826937757e-17 -0.006463176935 -4.952689643e-17 -0.006092671505 0 0.01878080624 -2.224512172e-16 0.01919830888)
(-0.00925476601 4.447625188e-17 -0.006878350831 -4.853678358e-17 -0.006211239957 0 0.01951004882 -2.366702414e-16 0.02003120981)
(-0.009307040071 2.093398926e-16 -0.007311918095 -4.766823438e-17 -0.006322225944 0 0.02019354072 -2.668197715e-16 0.02087768963)
(-0.009288341087 3.677247474e-16 -0.007765230553 -4.690654919e-17 -0.006424303168 0 0.02082575589 -3.076775967e-16 0.02173707391)
(-0.009189579504 3.600264926e-16 -0.008239336129 -7.706574866e-17 -0.006516095903 0 0.02140097637 -3.46880666e-16 0.02260886687)
(-0.009000947664 3.583567425e-16 -0.008734945161 -7.609433151e-17 -0.006596230101 0 0.02191336368 -3.682112531e-16 0.02349274282)
(-0.008711663207 1.979247595e-16 -0.009252022986 -9.029848684e-17 -0.006663268996 0 0.02235698949 -3.889478375e-16 0.02438852181)
(-0.008310621495 4.511743044e-17 -0.009789483818 -8.941983633e-17 -0.006715746987 0 0.0227259162 -3.966613861e-16 0.02529610939)
(-0.007785678653 2.163504977e-16 -0.01034484967 -8.866445155e-17 -0.006752154272 0 0.02301416321 -4.035692929e-16 0.02621544919)
(-0.00712483203 3.781162706e-16 -0.01091393673 -8.802130741e-17 -0.006770928166 0 0.02321569148 -4.227112289e-16 0.02714642531)
(-0.006314756629 2.251521542e-16 -0.01149062549 -8.748085975e-17 -0.006770502181 0 0.02332456301 -4.420800747e-16 0.02808876826)
(-0.005339276624 9.958573128e-17 -0.01206634945 -7.252901055e-17 -0.006749224227 0 0.02333490628 -4.504469226e-16 0.02904193154)
(-0.004181931836 1.387040524e-16 -0.01262986639 -1.155679005e-16 -0.006705338431 0 0.02324089231 -4.601780417e-16 0.03000491994)
(-0.002826737899 1.611944403e-16 -0.01316757051 -1.151971434e-16 -0.006637039829 0 0.02303681895 -4.709188292e-16 0.03097611412)
(-0.001255529131 1.750556102e-16 -0.01366385537 -1.149267157e-16 -0.006542485361 0 0.02271720303 -4.830041224e-16 0.03195310936)
(0.0005527054623 1.893684355e-16 -0.01410131983 -1.14750072e-16 -0.006419728643 0 0.02227676319 -4.963992248e-16 0.03293254978)
(0.002620181968 2.08775617e-16 -0.01446127522 -1.146614276e-16 -0.006266713983 0 0.0217104318 -5.10078275e-16 0.03390998032)
(0.004969789597 2.325724066e-16 -0.01472438516 -1.146556632e-16 -0.006081290108 0 0.02101341087 -5.244094688e-16 0.03487976071)
(0.007626312991 2.518503184e-16 -0.01487108744 -1.147282327e-16 -0.005861224427 0 0.0201812635 -5.395850689e-16 0.0358350343)
(0.01061720742 1.365964762e-16 -0.01488154302 -1.00515711e-16 -0.005604171332 0 0.01920993045 -5.556339654e-16 0.03676778825)
(0.01397046968 2.982687059e-17 -0.01473529036 -1.007060803e-16 -0.005307663721 0 0.01809573432 -5.643514776e-16 0.03766896146)
(0.01771445576 6.123807871e-17 -0.01441053774 -1.153777233e-16 -0.004969159663 0 0.01683546383 -5.642986078e-16 0.03852864287)
(0.02187863129 8.98045937e-17 -0.01388261953 -1.157274236e-16 -0.004586036982 0 0.01542643516 -5.562828055e-16 0.03933629236)
(0.0264942381 1.152460482e-16 -0.01312191783 -1.161392086e-16 -0.004155609755 0 0.01386656752 -5.500721709e-16 0.04008096868)
(0.03159274076 1.442830969e-16 -0.01209120898 -1.093226307e-16 -0.003675104119 0 0.01215437691 -5.453681411e-16 0.0407515334)
(0.03718846817 1.788346748e-16 -0.01074336373 -1.098189184e-16 -0.003141719458 0 0.01028910039 -5.422204753e-16 0.04133679473)
(0.04328151574 5.269769188e-17 -0.009021167713 -1.103676776e-16 -0.002553073209 0 0.008271531321 -5.408730812e-16 0.04182560808)
(0.05006817569 -7.650681221e-17 -0.00684917474 -1.035695618e-16 -0.001907116826 0 0.0061042664 -5.324864431e-16 0.04220697008)
(0.05806484524 -4.737896648e-17 -0.004088138229 -1.041755926e-16 -0.001197145994 0 0.003782066707 -5.262874663e-16 0.04246973247)
(0.06465515906 -1.616534017e-17 -0.001266782371 -1.029548983e-16 -0.0004093046442 0 0.001283704629 -5.2343602e-16 0.04260044643)
(-0.007645899736 2.246128767e-15 -0.0005571410904 -5.848031787e-15 -0.01240715553 0 0.0003451434513 7.320669991e-17 0.02173841789)
(-0.01018567265 2.82825886e-15 -0.001325025994 -3.96308859e-15 -0.01090481587 0 0.0009009501705 2.115976171e-16 0.02177222989)
(-0.01004370723 4.42796868e-16 -0.002140175989 -3.42553597e-15 -0.01045263835 0 0.001413396175 -1.229437812e-16 0.02183778033)
(-0.01028497315 -8.126737809e-16 -0.002921694088 -2.116720561e-15 -0.01037874721 0 0.001921602247 -3.78698602e-16 0.02193462447)
(-0.01035231547 -3.912935881e-16 -0.00367525995 -1.520997203e-15 -0.01036573362 5.024197213e-14 0.00240426669 -6.131936697e-16 0.02205900266)
(-0.01036858875 -1.28843368e-15 -0.004392409116 -1.238270038e-15 -0.01036167885 0 0.002851525994 -5.379270528e-16 0.02220704349)
(-0.01037693654 -1.964309255e-15 -0.005071135419 -7.361644596e-16 -0.01036086071 0 0.003259244937 -5.016073868e-16 0.02237522014)
(-0.01037399191 -1.715138777e-15 -0.005711228664 -4.159957621e-16 -0.01036102159 0 0.003624244602 -4.911933795e-16 0.02256006812)
(-0.01035290617 -7.893766751e-16 -0.006313132033 -1.741822401e-16 -0.01036009067 0 0.00394359055 -4.913948317e-16 0.02275813509)
(-0.01030825626 -4.381398095e-17 -0.006877739802 -1.602339875e-16 -0.01035638133 0 0.004214739675 -4.94005855e-16 0.02296605642)
(-0.01023468124 -1.167855293e-16 -0.007406175898 -1.490507461e-16 -0.01034842174 0 0.004435630324 -5.039623865e-16 0.02318060046)
(-0.01012671412 -1.98119856e-16 -0.007899609321 -1.399136086e-16 -0.01033487713 0 0.004604681862 -5.171822699e-16 0.02339869006)
(-0.009978988209 1.324630527e-17 -0.008359276077 -8.822254694e-17 -0.01031448583 0 0.004720632596 -4.907475267e-16 0.02361743521)
(-0.009786829796 2.123036607e-16 -0.008786445289 -1.259675221e-16 -0.01028607214 0 0.004782547697 -4.717421881e-16 0.02383414294)
(-0.009544948794 -1.380697956e-16 -0.009182322561 -1.205657794e-16 -0.01024858184 0 0.004789908882 -4.552586635e-16 0.02404634649)
(-0.009246660099 -1.95240269e-16 -0.009548124917 -7.729597351e-17 -0.01020093223 0 0.004742541599 -4.443998045e-16 0.02425181839)
(-0.008886707971 2.851538397e-16 -0.009885161586 -5.59811219e-17 -0.0101419921 0 0.004640613139 -4.340233377e-16 0.02444856451)
(-0.008460820589 4.951250756e-16 -0.01019493221 -1.265982929e-16 -0.01007077715 0 0.004484596095 -4.246057933e-16 0.02463481598)
(-0.007963549632 4.15931365e-16 -0.01047907241 -1.230964502e-16 -0.009986348608 0 0.004275365094 -4.179312586e-16 0.02480903526)
(-0.00739007371 3.31111569e-16 -0.01073923277 -1.028904248e-16 -0.009887768488 0 0.004014386144 -4.146385244e-16 0.02496988785)
(-0.006736417293 2.731690505e-16 -0.01097723283 -1.173624883e-16 -0.009774192226 0 0.003703580062 -4.152432295e-16 0.02511623802)
(-0.00599852436 4.34391714e-16 -0.01119521784 -1.478780303e-16 -0.009644836111 0 0.003345170057 -4.189282371e-16 0.02524712783)
(-0.005173435094 5.70085256e-16 -0.0113956153 -1.290949363e-16 -0.009498976082 8.262075925e-15 0.002941770763 -4.05168987e-16 0.02536173346)
(-0.004258812876 5.26457674e-16 -0.01158092871 -1.429111612e-16 -0.009336005575 0 0.002496601285 -3.645877241e-16 0.02545932203)
(-0.003251986634 3.262405688e-16 -0.01175375993 -2.034914465e-16 -0.009155391431 0 0.002013428088 -3.485238534e-16 0.02553923297)
(-0.002151599304 1.318277811e-16 -0.01191694117 -1.854705489e-16 -0.008956661479 0 0.001496421797 -3.187038048e-16 0.02560081616)
(-0.0009580785775 1.362735133e-16 -0.01207330241 -1.986936483e-16 -0.008739471866 -7.825472916e-15 0.0009503240823 -2.753922327e-16 0.0256433928)
(0.0003277082021 1.302472497e-16 -0.01222562608 -1.664894485e-16 -0.008503610904 0 0.0003803483207 -2.636502492e-16 0.02566624106)
(0.001704849062 1.071925717e-16 -0.01237640136 -1.500754627e-16 -0.008248972261 7.68386369e-15 -0.0002077739835 -2.541077035e-16 0.02566857616)
(0.003171184891 1.060367434e-16 -0.01252740383 -1.638855485e-16 -0.007975540571 0 -0.0008077169624 -2.209481417e-16 0.02564954954)
(0.004722038803 1.268445663e-16 -0.01267936187 -1.77686506e-16 -0.007683431742 -7.581290923e-15 -0.001412723648 -1.905788224e-16 0.02560827535)
(0.006350890049 1.356065405e-16 -0.01283118562 -1.620488088e-16 -0.007372933549 0 -0.002015465914 -1.855072455e-16 0.02554388665)
(0.008050392834 1.325687775e-16 -0.01297914062 -1.613806019e-16 -0.00704449623 0 -0.002607947214 -1.800640078e-16 0.02545563794)
(0.009811525749 1.471244056e-16 -0.01311621866 -1.462389743e-16 -0.006698717719 0 -0.00318165934 -1.875821291e-16 0.0253430136)
(0.01162216458 1.754452485e-16 -0.01323143167 -1.896643778e-16 -0.006336371889 0 -0.003727599698 -1.829290722e-16 0.02520584351)
(0.01346741242 1.898280847e-16 -0.01330930773 -1.748057183e-16 -0.005958447663 0 -0.004236147396 -1.790072148e-16 0.02504442021)
(0.01533017508 1.911313457e-16 -0.01333003041 -1.746706809e-16 -0.005566149133 0 -0.004697070392 -1.645051446e-16 0.02485960404)
(0.01719043916 1.968357735e-16 -0.01327007406 -1.892170578e-16 -0.005160901037 0 -0.005099500875 -1.39636955e-16 0.02465290173)
(0.0190244591 2.111549299e-16 -0.01310366381 -1.747724491e-16 -0.004744370701 0 -0.005432057342 -1.048882106e-16 0.02442652)
(0.02080511507 2.347381192e-16 -0.01280480748 -1.822876858e-16 -0.004318493849 -7.466503611e-15 -0.00568277832 -7.202858544e-17 0.02418338863)
(0.02250289957 1.008333501e-16 -0.0123498544 -1.75327608e-16 -0.003885472631 0 -0.005839096976 -5.650435651e-17 0.02392718185)
(0.02408507439 -1.875837303e-16 -0.01172024218 -1.611150359e-16 -0.003447760731 0 -0.005887976437 -5.181555525e-17 0.02366233219)
(0.02551481146 -3.133719317e-16 -0.01090497689 -1.616033622e-16 -0.003008086309 0 -0.005815962811 -4.706047572e-17 0.02339407468)
(0.026751399 -2.892545938e-16 -0.00990296886 -1.621783845e-16 -0.002569459322 0 -0.005609335547 -4.196805703e-17 0.02312853227)
(0.02775076152 -2.708118077e-16 -0.008724831281 -1.517344116e-16 -0.002135178887 0 -0.005254106211 -3.640767787e-17 0.02287284397)
(0.02846807312 -2.509733655e-16 -0.007393897735 -1.487055946e-16 -0.001708819672 0 -0.004736260898 -3.008332175e-17 0.02263536156)
(0.02885151638 -2.197180021e-16 -0.005945904061 -1.41976235e-16 -0.001294164747 -7.651771824e-15 -0.004042902298 -2.263320974e-17 0.02242585276)
(0.02881759754 -1.77820153e-16 -0.004430482537 -1.371129205e-16 -0.0008953634166 0 -0.003162092783 -2.809316097e-17 0.02225560527)
(0.02829058082 -1.129287938e-16 -0.002915473596 -1.313028541e-16 -0.0005174820357 0 -0.002071277203 -3.185582368e-17 0.02213801195)
(0.02747385899 -3.487791658e-17 -0.001080983431 -1.292720532e-16 -0.0001655840148 0 -0.0007315559917 -3.413501775e-17 0.02209126571)
(-0.009060416442 -1.422009885e-15 -0.00054672393 -6.039769613e-16 -0.01475409565 0 2.417607712e-05 1.455249979e-16 0.02718495006)
(-0.01199683001 1.854748314e-15 -0.001258334168 1.066402175e-15 -0.01293951368 0 6.155927038e-05 4.133427838e-16 0.02716917034)
(-0.01170138801 3.66619381e-15 -0.002015174246 -1.124273472e-15 -0.01234916751 -8.688724793e-14 8.919509084e-05 7.234915534e-16 0.0271280337)
(-0.01182429262 2.908994068e-15 -0.002754136081 -1.620052881e-15 -0.01219913225 0 0.0001052693325 4.752766678e-16 0.02706870119)
(-0.01169584034 9.40659607e-16 -0.003462226065 -1.893484384e-15 -0.01210889451 0 0.0001044590476 3.408887713e-16 0.02699253021)
(-0.01146544965 -4.53898534e-16 -0.004130435301 -1.488106016e-15 -0.01201634882 -4.292452283e-14 8.335376044e-05 2.437043548e-16 0.02690082894)
(-0.01118960277 -1.502595085e-16 -0.004756583047 -1.239970384e-15 -0.01191531361 0 3.932677588e-05 -1.047382388e-16 0.02679498172)
(-0.01086899586 3.687764123e-17 -0.005339153721 -1.039936788e-15 -0.01180422572 0 -2.955630948e-05 -4.004848646e-16 0.02667626864)
(-0.01049967452 1.017779015e-16 -0.005877290942 -8.844744366e-16 -0.01168168631 3.019006077e-14 -0.0001247282837 -6.709466058e-16 0.02654583286)
(-0.01008105381 1.710459847e-16 -0.006371071553 -8.950117551e-16 -0.01154681558 0 -0.0002471316548 -7.423869904e-16 0.02640469447)
(-0.00961383618 2.437867824e-16 -0.006821185773 -8.073173609e-16 -0.01139920949 0 -0.0003970079486 -7.383980776e-16 0.02625376638)
(-0.009097577366 -9.662479734e-17 -0.007228878174 -7.341449418e-16 -0.01123875201 0 -0.0005740618571 -7.591368427e-16 0.02609390129)
(-0.008530781262 -3.697386443e-16 -0.007595860255 -6.719736823e-16 -0.01106531591 1.146835085e-14 -0.0007775185993 -8.014747426e-16 0.02592591783)
(-0.007913025344 -2.813444974e-16 -0.007924311113 -5.970033621e-16 -0.01087879038 0 -0.00100619902 -7.515199304e-16 0.02575059272)
(-0.00724419608 -2.159500241e-16 -0.008216885779 -5.918098853e-16 -0.01067918605 -1.044850556e-14 -0.001258586355 -7.207514509e-16 0.0255686937)
(-0.006523927521 -1.701850077e-16 -0.008476477059 -5.102483834e-16 -0.01046653234 1.004796817e-14 -0.001532659195 -7.286914363e-16 0.02538098726)
(-0.005752083939 -1.521630723e-16 -0.008706155445 -4.54823603e-16 -0.0102409018 9.702903532e-15 -0.001825915617 -6.639560633e-16 0.02518822183)
(-0.004928893895 -1.019160285e-16 -0.008909327409 -4.408110378e-16 -0.01000239317 0 -0.002135614696 -5.285074243e-16 0.02499112778)
(-0.004056681245 -3.72529089e-17 -0.009089540814 -4.286177383e-16 -0.009751160863 0 -0.00245865717 -4.092419029e-16 0.02479038304)
(-0.003138668203 2.898042521e-17 -0.009250284064 -4.17971203e-16 -0.009487543277 0 -0.00279157092 -3.309013982e-16 0.02458659667)
(-0.002176427263 9.704161257e-17 -0.00939496446 -4.086522739e-16 -0.009211953016 0 -0.003130698228 -2.636519538e-16 0.02438030618)
(-0.001171695782 -5.947924746e-17 -0.009526662939 -3.671091745e-16 -0.008924786781 8.543631697e-15 -0.003472127532 -2.035488691e-16 0.02417192542)
(-0.0001286715723 -3.742713803e-16 -0.009647923431 -3.60539881e-16 -0.008626503639 0 -0.003811713261 -1.141153035e-16 0.02396170245)
(0.0009471331858 -2.435325031e-16 -0.009760610559 -3.54778856e-16 -0.008317704851 0 -0.004145250921 -5.336813403e-17 0.02374969524)
(0.002050864238 -1.54622823e-16 -0.009865476062 -3.497332285e-16 -0.007999094036 -8.139246046e-15 -0.004468373383 5.657959342e-18 0.02353577287)
(0.003177077789 -4.780866474e-16 -0.00996183 -2.825384939e-16 -0.007671415849 0 -0.004776532923 2.795088161e-17 0.02331959503)
(0.004319540682 -4.326800959e-16 -0.01004757895 -2.793988063e-16 -0.00733551162 0 -0.005065254494 4.774172212e-17 0.02310060552)
(0.005471817284 -2.037573704e-16 -0.01011908361 -2.766801129e-16 -0.006992276465 0 -0.005330168679 5.050791726e-17 0.02287806307)
(0.006625909523 -3.030541585e-16 -0.01017094462 -2.286190204e-16 -0.006642673397 0 -0.005566900765 5.229980223e-17 0.02265104718)
(0.007773511797 -4.024414937e-16 -0.01019622674 -2.269606897e-16 -0.006287768352 0 -0.005771125802 5.286976235e-17 0.02241851963)
(0.008906563143 -2.125118724e-16 -0.01018696179 -1.95491538e-16 -0.005928671764 0 -0.00593869907 5.387839258e-17 0.02217939179)
(0.01001550359 -3.34141775e-17 -0.0101346939 -1.944947664e-16 -0.0055665465 0 -0.006065752669 6.993316037e-17 0.02193260484)
(0.01109030902 1.68331704e-16 -0.01003109601 -2.085922127e-16 -0.00520264092 0 -0.006148675978 8.506452139e-17 0.02167723902)
(0.01212115884 1.961606351e-16 -0.009868702877 -2.079230214e-16 -0.004838243739 0 -0.006184147746 1.128104524e-16 0.02141265789)
(0.01309740958 6.013529004e-17 -0.009641666743 -2.000265278e-16 -0.00447468682 0 -0.00616932538 1.408430881e-16 0.02113864113)
(0.01400797757 -6.496938109e-17 -0.00934612687 -1.997190848e-16 -0.004113350855 0 -0.006101870518 1.689084585e-16 0.02085554642)
(0.01484086183 -3.426122281e-16 -0.008980494885 -1.995648018e-16 -0.003755651036 0 -0.005980036298 1.839735737e-16 0.02056444926)
(0.01558418091 -6.16982811e-16 -0.008545654234 -1.773820168e-16 -0.003403060174 0 -0.005802769089 1.982374569e-16 0.02026725822)
(0.01622673759 -7.268266872e-16 -0.008044831274 -1.55307502e-16 -0.003057056638 0 -0.005569781089 1.998684688e-16 0.01996678554)
(0.01675666059 -5.715059518e-16 -0.007483282578 -1.555063139e-16 -0.002719129317 0 -0.005281686167 2.025381319e-16 0.01966672919)
(0.01716217302 -2.703184995e-16 -0.006867991644 -1.48381744e-16 -0.002390781195 -7.597145294e-15 -0.00494005533 2.171987675e-16 0.01937159143)
(0.01743261662 -8.71287135e-17 -0.006207504164 -1.375930601e-16 -0.002073507643 -7.615961811e-15 -0.004547465207 2.15829778e-16 0.01908649045)
(0.01755964093 -7.00358969e-17 -0.005511735504 -1.305500882e-16 -0.001768770056 0 -0.004107601351 1.894750605e-16 0.01881690926)
(0.01753716844 -6.034933846e-17 -0.004791577758 -1.27271341e-16 -0.001477946616 0 -0.003625308619 1.652757991e-16 0.01856837578)
(0.01736160946 -5.468507364e-17 -0.004058547255 -1.277881417e-16 -0.001202319215 0 -0.003106661067 1.425925292e-16 0.01834610245)
(0.01703413201 -5.525225499e-17 -0.00332437548 -1.245927197e-16 -0.0009430308182 0 -0.002559010156 1.20999633e-16 0.01815460858)
(0.01655831525 1.807714413e-17 -0.002600011486 -1.233181012e-16 -0.0007010199483 0 -0.001990877585 1.002602964e-16 0.01799735373)
(0.01592835401 7.948674372e-17 -0.001894958205 -1.211269149e-16 -0.0004770580155 0 -0.001412161684 8.87205578e-17 0.01787644222)
(0.01513957644 5.669826094e-17 -0.001219377539 -1.203966773e-16 -0.0002719941175 7.858881118e-15 -0.0008350102399 8.237464129e-17 0.01779225121)
(0.01441813491 2.353220336e-17 -0.0004440353882 -1.199426238e-16 -8.649639606e-05 0 -0.0002717973811 7.955780981e-17 0.01774300908)
(-0.008065529456 -6.605049428e-16 -0.0003891826683 -1.686803433e-15 -0.01311982946 0 -0.0001602103639 -2.553502409e-16 0.02647032112)
(-0.010676786 -1.484294017e-15 -0.0008715196043 3.493580364e-17 -0.01151393069 1.430970517e-13 -0.0004200274035 -7.239943627e-16 0.02644214987)
(-0.01037712139 5.867119262e-16 -0.001387008557 7.324642292e-16 -0.0109885084 0 -0.0006662309554 -2.961122171e-16 0.02637866731)
(-0.01040960821 1.99842184e-15 -0.001900982562 -1.898403418e-16 -0.01083774957 0 -0.0009210564613 -3.320218424e-17 0.02628631854)
(-0.01019530587 1.356019009e-15 -0.002394093555 -5.060454691e-16 -0.01072821022 0 -0.001178232162 1.644360348e-16 0.02616759111)
(-0.009872508901 2.282345594e-15 -0.00286067367 -5.959982227e-16 -0.01060825822 0 -0.001435710899 1.172100196e-16 0.02602523561)
(-0.009493020841 3.090693333e-15 -0.003299885651 -9.814985872e-16 -0.01047381572 0 -0.001693886811 8.209802389e-17 0.02586198888)
(-0.009060575523 2.82446434e-15 -0.003710769903 -1.237655114e-15 -0.01032457549 0 -0.001953083703 5.857101738e-17 0.02568050261)
(-0.008574512001 1.933515849e-15 -0.00409264799 -1.377314983e-15 -0.01016025193 0 -0.002213183144 3.829106017e-17 0.02548333855)
(-0.0080378961 4.935585199e-16 -0.004445357772 -1.377197461e-15 -0.009980884034 0 -0.00247362527 1.979663878e-17 0.02527293319)
(-0.007454820823 3.885771174e-17 -0.004769367687 -1.229835317e-15 -0.009787034967 0 -0.002733687035 -4.148883204e-18 0.02505155045)
(-0.006828155044 3.534356493e-16 -0.005065723231 -1.178494627e-15 -0.009579401346 -1.23140663e-14 -0.002992577835 2.131561202e-17 0.02482131034)
(-0.006160335309 -8.550477602e-17 -0.00533564777 -1.114649946e-15 -0.009358706505 0 -0.003249115411 -4.473532744e-17 0.02458414213)
(-0.005453826525 -5.104667563e-16 -0.005580610419 -9.960657038e-16 -0.00912566808 0 -0.003501881105 -3.699493907e-17 0.02434178556)
(-0.004711991738 -3.361749141e-16 -0.005802374394 -9.119022836e-16 -0.008881013038 0 -0.003749375574 -1.495316761e-18 0.02409575346)
(-0.003938702251 -7.397861325e-16 -0.006002642983 -8.370839009e-16 -0.008625552808 0 -0.003989812319 2.20801838e-17 0.02384734202)
(-0.003137423126 -1.630018456e-15 -0.00618306989 -7.313525143e-16 -0.008360128931 0 -0.004221284457 3.657890331e-17 0.02359761378)
(-0.00231210332 -1.961333374e-15 -0.006345161826 -6.155545819e-16 -0.008085579357 0 -0.004441801722 4.369903477e-17 0.0233473936)
(-0.001467378316 -1.518707338e-15 -0.006490042825 -4.897044747e-16 -0.007802795498 0 -0.004649239988 7.766090006e-17 0.02309725303)
(-0.0006073924729 -1.125332833e-15 -0.006618598914 -4.067938374e-16 -0.007512704915 0 -0.004841642468 1.096721256e-16 0.02284753082)
(0.0002635015332 -1.024166614e-15 -0.006731230269 -3.63139409e-16 -0.007216214877 0 -0.005017079247 1.655459516e-16 0.02259833058)
(0.001140064256 -1.130676132e-15 -0.006827549722 -3.050397751e-16 -0.006914266379 -8.676686935e-15 -0.005173468579 2.432480599e-16 0.02234953687)
(0.002017492434 -1.024853086e-15 -0.006906534181 -2.662943932e-16 -0.006607834559 0 -0.00530878228 2.789389264e-16 0.0221008541)
(0.002890645034 -7.744745697e-16 -0.006966710241 -2.129069361e-16 -0.006297873353 8.385257789e-15 -0.00542123377 2.998260188e-16 0.0218518534)
(0.00375303838 -5.651219002e-16 -0.007006164918 -1.937344579e-16 -0.005985376163 -8.266003537e-15 -0.005509243252 3.582899073e-16 0.02160201377)
(0.004599092702 -3.473713547e-16 -0.00702255791 -1.75351391e-16 -0.005671387785 -8.1618102e-15 -0.005571304604 3.646593779e-16 0.02135081199)
(0.005424365229 -1.256493032e-16 -0.007013438366 -1.5763892e-16 -0.005356911691 0 -0.005606131885 3.416960758e-16 0.02109779722)
(0.00622297298 7.247297167e-17 -0.006976336626 -1.561050126e-16 -0.005042921965 0 -0.005612642063 3.380577211e-16 0.0208426478)
(0.006988204323 7.328163739e-17 -0.006908922162 -1.547862968e-16 -0.004730433291 0 -0.00558995705 3.372421903e-16 0.02058525298)
(0.007714176236 7.912771192e-17 -0.006809382055 -1.459803492e-16 -0.004420465818 0 -0.005537533272 3.266727948e-16 0.02032579491)
(0.008395283385 -9.094597516e-17 -0.006676463924 -1.450840351e-16 -0.004114020043 0 -0.005455099588 3.185033521e-16 0.02006478787)
(0.009025207526 -2.567274623e-16 -0.006509415201 -1.443442812e-16 -0.003812081029 0 -0.00534262377 3.252927824e-16 0.01980310238)
(0.009597254536 -4.158128292e-16 -0.006308216478 -1.059203738e-16 -0.003515643687 7.747318773e-15 -0.005200466264 3.199751981e-16 0.01954195324)
(0.01010629195 -5.762080084e-16 -0.006073579705 -1.282049746e-16 -0.003225697166 -7.722464355e-15 -0.005029284242 3.404231811e-16 0.01928287916)
(0.01054746224 -5.682573584e-16 -0.005806863453 -9.780894939e-17 -0.002943165689 0 -0.004830057222 3.392222968e-16 0.01902766772)
(0.01091548447 -3.925051779e-16 -0.005510064486 -9.014641471e-17 -0.002668957212 -7.692494055e-15 -0.004604156126 3.407802686e-16 0.01877827241)
(0.01120643283 -2.195548125e-16 -0.005185748319 -7.506398052e-17 -0.00240393856 -7.686551605e-15 -0.004353268467 3.243844266e-16 0.01853673367)
(0.01141711914 -3.52870933e-17 -0.004837097689 -7.506020677e-17 -0.00214891056 -7.686165173e-15 -0.004079495298 2.907985054e-16 0.01830507665)
(0.01154509557 1.351792175e-16 -0.004467763093 -6.759694347e-17 -0.001904615007 0 -0.003785262298 2.414915045e-16 0.01808522714)
(0.01158905614 -3.195062502e-17 -0.004081815712 -7.520386167e-17 -0.00167171504 0 -0.003473323384 1.96661206e-16 0.01787893995)
(0.01154888784 -9.803479722e-17 -0.003683690355 -6.404434833e-17 -0.001450790598 7.715460316e-15 -0.003146762394 1.614898046e-16 0.01768774198)
(0.01142583142 2.37301681e-16 -0.003278055914 -6.42029726e-17 -0.001242322953 0 -0.002808951651 1.478837387e-16 0.01751288625)
(0.01122197984 4.662460758e-16 -0.002869689352 -7.386779683e-17 -0.0010466892 0 -0.002463515592 1.362890605e-16 0.01735531787)
(0.01094031332 4.474790682e-16 -0.002463301029 -7.98329922e-17 -0.0008641668901 0 -0.002114205754 1.345165452e-16 0.01721565176)
(0.01058547784 4.381209265e-16 -0.002063411959 -8.397417159e-17 -0.0006949291451 0 -0.001764820717 1.242118393e-16 0.01709416709)
(0.01016380515 4.394526929e-16 -0.001674140961 -8.914830554e-17 -0.000539028258 0 -0.001419075335 1.225627437e-16 0.01699077869)
(0.009679918056 3.160393311e-16 -0.001299062475 -9.441064442e-17 -0.0003963945451 0 -0.001080520698 1.204658278e-16 0.0169049581)
(0.009129163942 1.265084249e-16 -0.0009414201553 -9.637656102e-17 -0.0002669138226 0 -0.0007526254466 1.221140965e-16 0.01683590569)
(0.008499360274 4.625767326e-17 -0.0006050478601 -9.572265684e-17 -0.0001506103878 0 -0.0004390119755 1.221790864e-16 0.01678393678)
(0.007973183784 1.464347448e-17 -0.0002207862835 -9.472793371e-17 -4.764366296e-05 0 -0.0001421879906 1.213204835e-16 0.01675207546)
(-0.006321990226 3.500946052e-15 -0.0002493339816 -7.656917466e-15 -0.01031354024 0 -0.0001989353139 -6.925453388e-17 0.02413567915)
(-0.008340850889 8.724447151e-16 -0.0005425017722 -5.659040923e-15 -0.009034939336 0 -0.0005213187063 -1.959245604e-16 0.02411309439)
(-0.008069365516 -1.185288567e-15 -0.0008575693869 -2.734821122e-15 -0.008600970338 0 -0.0008243461354 -3.458548031e-16 0.02406450601)
(-0.008056995956 -4.228413816e-16 -0.001179287003 -1.767304387e-15 -0.008464288838 0 -0.001132629883 -1.876700954e-16 0.02399340609)
(-0.007840934143 -2.747799985e-17 -0.001489184484 -1.36190503e-15 -0.008358796458 0 -0.001436247844 -8.800706675e-17 0.02390171593)
(-0.007530384219 2.057428696e-16 -0.001784365842 -1.145708703e-15 -0.008243074224 0 -0.00173117399 -1.869642632e-17 0.02379156703)
(-0.007166622157 3.468320745e-16 -0.002064774107 -1.015591315e-15 -0.008113580694 0 -0.002016626582 1.918943004e-16 0.02366498706)
(-0.006754431446 4.228063344e-16 -0.002329945171 -9.217485776e-16 -0.007970097661 0 -0.002292040116 3.746281692e-16 0.02352393753)
(-0.006296902004 4.399053391e-16 -0.002579500872 -8.818299548e-16 -0.007812692692 0 -0.002556648363 5.472904796e-16 0.02337029181)
(-0.005798629243 5.241915364e-16 -0.002813166044 -8.391872425e-16 -0.007642037816 0 -0.002809431269 7.564993202e-16 0.02320582273)
(-0.005262837247 2.124083087e-16 -0.003030995201 -8.066382763e-16 -0.007458957949 0 -0.003049518601 7.95506411e-16 0.02303219987)
(-0.004693826264 2.815607932e-16 -0.003233265393 -7.327641111e-16 -0.007264264635 0 -0.00327610138 8.56676323e-16 0.02285091951)
(-0.004096469503 1.169550192e-16 -0.003420179675 -7.392712326e-16 -0.007058980576 -1.182833972e-14 -0.00348820708 9.346981405e-16 0.02266330873)
(-0.0034744145 -6.726959655e-16 -0.003591885531 -6.377339865e-16 -0.006844127036 0 -0.003684789714 9.500649918e-16 0.02247053651)
(-0.002832440279 -7.43929297e-16 -0.003748554528 -5.682910287e-16 -0.006620678033 -1.077648173e-14 -0.003864886181 9.81391979e-16 0.02227357749)
(-0.002175647845 -5.24229006e-16 -0.003890274925 -5.26264962e-16 -0.006389728157 -1.036337156e-14 -0.004027594936 9.881548622e-16 0.02207322037)
(-0.001507845277 -3.740625304e-16 -0.004016854168 -4.495545601e-16 -0.006152337719 -1.000747543e-14 -0.004171963976 9.210939909e-16 0.02187010263)
(-0.0008335730088 -5.262417334e-16 -0.004127950081 -4.167606613e-16 -0.005909509436 0 -0.004297133105 7.53125607e-16 0.02166469773)
(-0.0001571755944 -6.966014946e-16 -0.004223092061 -3.591834593e-16 -0.005662288926 9.430868264e-15 -0.004402381887 6.051865223e-16 0.0214573506)
(0.0005175361946 -8.58884709e-16 -0.004301592113 -3.233184167e-16 -0.00541164806 0 -0.004487059742 5.204171616e-16 0.02124830935)
(0.00118522279 -1.264130621e-15 -0.004362486586 -2.546440302e-16 -0.005158545925 0 -0.004550528048 4.43288103e-16 0.02103773098)