/*--------------------------------*- C++ -*----------------------------------*\
  =========                 |
  \\      /  F ield         | OpenFOAM: The Open Source CFD Toolbox
   \\    /   O peration     | Website:  https://openfoam.org
    \\  /    A nd           | Version:  7
     \\/     M anipulation  |
\*---------------------------------------------------------------------------*/
FoamFile
{
    version     2.0;
    format      ascii;
    class       volScalarField;
    location    "0.0024";
    object      p;
}
// * * * * * * * * * * * * * * * * * * * * * * * * * * * * * * * * * * * * * //

dimensions      [1 -1 -2 0 0 0 0];

internalField   nonuniform List<scalar> 
14000
(
1117295.566
1146861.756
1145246.367
1147305.679
1152852.901
1159835.781
1167922.468
1177166.626
1187571.822
1199124.234
1211824.985
1225688.373
1240736.323
1256996.3
1274500.848
1293283.413
1313364.493
1334768.896
1357565.55
1381809.795
1407551.206
1434821.165
1463678.53
1494233.988
1526549.672
1560709.702
1596852.121
1635059.909
1675506.533
1718308.466
1763605.097
1811606.841
1862479.442
1916344.672
1973289.748
2033415.458
2096681.453
2162971.933
2231979.653
2303338.818
2376442.81
2450553.771
2524809.895
2598286.263
2670097.051
2739301.109
2804730.793
2865962.082
2926938.017
2990574.334
1263459.389
1299282.519
1297376.928
1300012.312
1306904.079
1315491.112
1325304.262
1336360.592
1348605.389
1362002.484
1376523.185
1392157.488
1408911.803
1426790.135
1445798.441
1466023.343
1487520.056
1510299.33
1534471.247
1560095.565
1587236.808
1615973.949
1646369.032
1678440.205
1712248.434
1747782.923
1784978.449
1823725.623
1863881.876
1905240.616
1947491.265
1990252.459
2033118.985
2075665.587
2117436.613
2157990.975
2196959.687
2234025.648
2268938.809
2301492.392
2331560.02
2359035.898
2383788.965
2405670.809
2424451.894
2439855.764
2451549.018
2458762.076
2459860.173
2454805.653
1291158.604
1328408.116
1325938.304
1327292.594
1332573.131
1339332.293
1347158.775
1356158.291
1366386.524
1377845.972
1390522.579
1404407.688
1419557.051
1435967.041
1453647.524
1472625.799
1492899.608
1514493.05
1537369.203
1561433.261
1586659.591
1612983.106
1640278.767
1668348.431
1697024.427
1726108.347
1755342.094
1784532.967
1813400.784
1841717.737
1869293.534
1895936.111
1921460.538
1945773.842
1968733.344
1990263.004
2010249.979
2028579.788
2045192.144
2059935.761
2072693.295
2083290.529
2091589.499
2097437.204
2100657.241
2101119.878
2098744.978
2093297.587
2084085.609
2071945.655
1487419.191
1520773.914
1518407.375
1519923.533
1525177.911
1531906.041
1539731.001
1548710.012
1558901.625
1570290.187
1582806.674
1596469.611
1611231.63
1627107.975
1644036.583
1661969.868
1680837.592
1700580.953
1721066.602
1742204.579
1763871.135
1785909.369
1808163.251
1830501.771
1852705.135
1874615.415
1896112.972
1917049.614
1937238.101
1956574.803
1974924.191
1992190.225
2008210.579
2022912.231
2036225.74
2048011.313
2058227.818
2066777.719
2073604.954
2078643.744
2081848.048
2083187.334
2082638.887
2080179.98
2075826.339
2069639.45
2061688.791
2051839.62
2039593.062
2025888.476
1544867.65
1574937.716
1573421.303
1575041.157
1579887.937
1586061.259
1593209.212
1601392.9
1610603.922
1620752.323
1631856.064
1643859.089
1656666.7
1670257.343
1684545.13
1699399.561
1714776.965
1730554.423
1746608.22
1762874.442
1779181.893
1795385.84
1811374.344
1827051.881
1842297.725
1856964.453
1870971.006
1884199.912
1896550.377
1907959.006
1918346.1
1927608.411
1935740.55
1942625.443
1948273.189
1952622.694
1955639.636
1957315.189
1957634.516
1956595.443
1954191.698
1950444.281
1945397.575
1939086.239
1931534.33
1922785.045
1913033.214
1902418.479
1890744.223
1878491.404
1681547.116
1705613.55
1704556.482
1706406.51
1711005.395
1716783.13
1723448.354
1730985.172
1739387.707
1748499.212
1758354.9
1768822.911
1779806.903
1791215.915
1803026.13
1815079.121
1827276.621
1839555.799
1851806.122
1863909.211
1875744.615
1887235.495
1898301.844
1908839.838
1918779.049
1928061.298
1936554.477
1944239.374
1951052.501
1956937.256
1961861.659
1965764.428
1968673.122
1970496.774
1971254.274
1970963.457
1969572.634
1967098.4
1963595.045
1959059.874
1953486.27
1946959.458
1939604.473
1931512.734
1922109.071
1909334.594
1896473.08
1915648.223
2007576.008
2107854.679
1710417.726
1730192.828
1729767.503
1731482.572
1735342.221
1740131.822
1745653.739
1751799.193
1758553.063
1765861.245
1773579.116
1781684.843
1790082.129
1798654.765
1807332.844
1816060.562
1824725.369
1833244.716
1841545.359
1849542.181
1857139.046
1864318.524
1871010.532
1877099.963
1882569.422
1887376.642
1891470.72
1894793.895
1897351.531
1899079.05
1899987.685
1900063.356
1899263.031
1897640.102
1895162.463
1891829.676
1887697.608
1882771.525
1877068.776
1870672.295
1863716.206
1856264.291
1847220.665
1834721.338
1827808.228
1868995.182
1957647.287
2043875.681
2116641.136
2180430.935
1782378.41
1797146.559
1796787.215
1798238.373
1801394.453
1805322.311
1809757.379
1814707.233
1820037.06
1825768.227
1831749.311
1837893.698
1844174.232
1850494.536
1856772.863
1862931.382
1868899.748
1874623.242
1880043.475
1885098.904
1889723.608
1893881.65
1897509.054
1900560.051
1903030.312
1904827.675
1906003.501
1906461.207
1906254.936
1905316.181
1903672.968
1901325.647
1898234.565
1894482.392
1890037.345
1884923.837
1879213.832
1872923.422
1866258.232
1859213.27
1850512.6
1838178.572
1833654.89
1885464.174
1975615.552
2063665.791
2137585.577
2175423.378
2145810.056
2101854.764
1787677.605
1799693.259
1799523.154
1800586.161
1802915.33
1805833.131
1809051.973
1812648.68
1816489.685
1820511.806
1824685.606
1828920.202
1833149.876
1837317.979
1841368.186
1845245.693
1848890.812
1852225.648
1855209.747
1857822.411
1860033.884
1861757.877
1862987.351
1863695.029
1863852.254
1863447.694
1862455.184
1860874.633
1858693.571
1855912.342
1852545.397
1848572.682
1844058.845
1838977.032
1833376.48
1827336.215
1820997.812
1814415.484
1806084.427
1793950.83
1790803.359
1848811.786
1941712.045
2031888.698
2103457.039
2123369.158
2094698.58
2058153.607
2022647.866
1988644.15
1817056.437
1826468.39
1826089.68
1826781.904
1828514.196
1830627.178
1832994.877
1835540.145
1838271.362
1841102.135
1843972.152
1846837.226
1849642.725
1852325.085
1854835.897
1857143.798
1859216.262
1861003.026
1862444.45
1863497.158
1864198.998
1864475.347
1864301.032
1863705.025
1862604.354
1861073.886
1859028.603
1856544.405
1853552.605
1850133.646
1846236.188
1841921.618
1837192.815
1832125.999
1826902.711
1821520.413
1814372.514
1803362.296
1802076.219
1865181.747
1960947.09
2053452.862
2125148.067
2137390.027
2110364.836
2078610.197
2049470.192
2022787.267
1998932.092
1979777.723
1805884.971
1814237.734
1813772.98
1814088.275
1815146.653
1816443.637
1817896.285
1819439.152
1821018.506
1822643.608
1824248.984
1825787.195
1827220.992
1828514.918
1829635.937
1830549.818
1831219.714
1831622.757
1831752.086
1831576.101
1831064.848
1830234.762
1829060.263
1827534.761
1825666.472
1823444.855
1820885.97
1818000.644
1814790.255
1811290.734
1807486.878
1803478.954
1799435.449
1795337.116
1789546.908
1779840.406
1780373.852
1846955.69
1944141.546
2037851.752
2110147.255
2120103.667
2095594.105
2067737.938
2042453.708
2019451.341
1999527.105
1986185.281
1983309.221
1988863.796
1808398.934
1815829.728
1815141.776
1815108.719
1815679.246
1816443.961
1817219.614
1818057.296
1818900.745
1819702.445
1820429.046
1821075.494
1821617.075
1822024.537
1822267.781
1822308.474
1822138.355
1821749.788
1821139.985
1820283.179
1819165.657
1817809.314
1816178.49
1814287.526
1812173.532
1809788.526
1807207.179
1804356.836
1801337.688
1798119.626
1794991.205
1791826.844
1787032.717
1778319.375
1779980.125
1848089.206
1945703.791
2039973.833
2112609.947
2121031.225
2097792.919
2071917.509
2048447.7
2027083.366
2008652.87
1996425.693
1993912.324
2000193.09
2010828.495
2022271.712
1788466.436
1795909.087
1795041.319
1794689.48
1794893.147
1795167.99
1795439.523
1795644.89
1795843.243
1795989.997
1796050.31
1796005.48
1795837.995
1795531.257
1795070.738
1794445.481
1793656.769
1792712.455
1791556.945
1790186.863
1788649.184
1786908.838
1784947.888
1782834.854
1780498.648
1777999.769
1775318.605
1772507.48
1769775.456
1767042.782
1762694.48
1754482.856
1756347.621
1823699.2
1921084.825
2015737.751
2088592.276
2095341.414
2072249.419
2046989.14
2023842.673
2002514.655
1983882.642
1971335.462
1968654.85
1974899.165
1984962.233
1995306.574
2005090.479
2013993.256
1776723.322
1784129.072
1783036.422
1782501.491
1782475.487
1782462.932
1782426.861
1782331.28
1782147.761
1781898.319
1781579.796
1781156.76
1780611.876
1779935.393
1779123.754
1778185.371
1777100.749
1775846.112
1774390.532
1772797.283
1771048.206
1769101.042
1767003.496
1764742.629
1762289.794
1759734.869
1757240.18
1754757.441
1750696.561
1742855.98
1744412.894
1809206.818
1906046.218
2001242.926
2074709.395
2080781.05
2057683.678
2032598.707
2009467.212
1987824.568
1968577.397
1955091.756
1951537.521
1957425.918
1967563.158
1978007.917
1987496.886
1995606.382
2002298.484
2007827.657
1752393.729
1760245.166
1759046.047
1758350.95
1758112.809
1757897.206
1757584.233
1757233.396
1756767.273
1756208.302
1755558.306
1754805.415
1753939.953
1752954.58
1751840.008
1750588.666
1749195.47
1747649.626
1745940.711
1744093.119
1742095.416
1739935.812
1737610.056
1735177.156
1732821.537
1730460.334
1726630.288
1719126.481
1720079.468
1780939.184
1876711.22
1972320.985
2046792.943
2053985.58
2031285.352
2006337.64
1983319.161
1961634.495
1941913.803
1927373.548
1922724.421
1928194.377
1938607.91
1949541.224
1959556.637
1968217.084
1975231.347
1980635.571
1984975.288
1988769.548
1732101.925
1740298.389
1738948.762
1738115.865
1737756.937
1737418.491
1736961.268
1736425.845
1735789.207
1735049.929
1734208.912
1733257.698
1732188.668
1730996.229
1729675.282
1728219.135
1726622.511
1724888.2
1723019.6
1720983.831
1718795.748
1716534.317
1714314.478
1712097.006
1708549.793
1701444.847
1701777.864
1758222.965
1852563.82
1948285.212
2023891.461
2034028.983
2012265.475
1987537.616
1964581.587
1943052.337
1923223.543
1907684.221
1901506.049
1906224.739
1916903.541
1928481.487
1939168.958
1948525.444
1956279.181
1962374.425
1967094.071
1970953.726
1974537.361
1978050.688
1704138.653
1712811.907
1711346.516
1710393.278
1709936.555
1709462.054
1708863.724
1708153.638
1707338.093
1706417.048
1705384.471
1704235.64
1702965.217
1701566.733
1700036.335
1698370.957
1696566.977
1694631.435
1692589.309
1690435.297
1688313.448
1686234.169
1682921.885
1676183.921
1676021.167
1728460.043
1821029.461
1916327.56
1992896.058
2007027.642
1986553.474
1962111.826
1939204.196
1917768.618
1897862.733
1881509.07
1873559.498
1876974.226
1887702.071
1899983.105
1911444.404
1921581.083
1930133.295
1937003.362
1942410.364
1946788.514
1950579.421
1954102.935
1957578.097
1960983.981
1677772.679
1686766.174
1685170.508
1684119.463
1683601.11
1683029.164
1682335.308
1681499.773
1680566.592
1679528.922
1678371.719
1677090.653
1675683.67
1674148.295
1672479.989
1670672.597
1668730.97
1666716.285
1664789.698
1662896.756
1659785.507
1653373.919
1653074.174
1703027.99
1793759.047
1888065.717
1965167.754
1983352.852
1964473.235
1940493.3
1917792.526
1896361.774
1876384.097
1859291.502
1849535.166
1851147.276
1861425.861
1874301.904
1886580.529
1897567.52
1906994.769
1914708.042
1920850.596
1925834.391
1930115.18
1934005.782
1937622.117
1941019.538
1944330.314
1947550.497
1646517.758
1655880.393
1654194.914
1653045.523
1652447.776
1651785.301
1650983
1650007.823
1648959.955
1647796.333
1646482.732
1645033.822
1643465.449
1641778.931
1639985.736
1638143.047
1636367.094
1634573.319
1631540.446
1625338.141
1625392.308
1675425.387
1764362.372
1856945.782
1933817.795
1955165.324
1937541.94
1914304.437
1892011.55
1870563.26
1850461.667
1832703.425
1821089.047
1820510.331
1829933.999
1843192.047
1856209.647
1868016.015
1878340.925
1886971.778
1893943.316
1899598.146
1904406.508
1908736.585
1912757.114
1916497.966
1919950.011
1923150.675
1926248.611
1929250.749
1616252.788
1625794.701
1624062.128
1622844.836
1622150.319
1621437.052
1620515.049
1619478.08
1618330.641
1617012.583
1615567.287
1614012.05
1612364.181
1610679.415
1609055.73
1607372.74
1604343.784
1598129.427
1599247.16
1653174.475
1740591.342
1830580.97
1906103.96
1928736.09
1911974.237
1889301.571
1867552.184
1846443.771
1826154.352
1807782.413
1794352.437
1791197.26
1799192.244
1812584.928
1826301.793
1838880.28
1850051.664
1859591.261
1867428.255
1873812.067
1879194.55
1883988.511
1888420.684
1892550.409
1896379.747
1899906.507
1903139.395
1906125.399
1909023.887
1911859.324
1583070.268
1592693.899
1590903.393
1589649.757
1588874.978
1588040.421
1587021.792
1585874.092
1584563.157
1583138.618
1581642.037
1580079.881
1578517.429
1576823.101
1573551.179
1566971.415
1570179.77
1633219.606
1719486.253
1805731.263
1878330.264
1899205.352
1882770.691
1860724.263
1839396.774
1818524.795
1798273.274
1779373.673
1764393.415
1758624.169
1764679.957
1777824.901
1792143.577
1805464.082
1817454.322
1827890.176
1836621.895
1843786.426
1849776.939
1855030.538
1859849.583
1864347.481
1868530.048
1872395.312
1875955.933
1879224.057
1882215.801
1884996.89
1887737.282
1890452.539
1551130.531
1560688.035
1558816.494
1557466.814
1556635.616
1555712.94
1554631.259
1553402.3
1552050.419
1550574.618
1548988.289
1546942.597
1542994.03
1537914.934
1552424.395
1623455.402
1706642.996
1787843.917
1855707.874
1870592.502
1853712.603
1832474.932
1811694.418
1791096.277
1770968.426
1751891.918
1735609.517
1727126.886
1730702.138
1743184.189
1757998.72
1771997.091
1784694.221
1795933.316
1805526.256
1813491.372
1820139.421
1825896.601
1831107.802
1835944.472
1840445.545
1844614.618
1848461.107
1852002.321
1855257.235
1858253.676
1861023.74
1863635.964
1866247.059
1868857.017
1516486.553
1526123.38
1524341.667
1523053.236
1522244.459
1521279.232
1520023.274
1518508.208
1516718.975
1513840.674
1508463.653
1509298.852
1552606.739
1624086.409
1699919.268
1774775.301
1835932.001
1839403.778
1821155.207
1801071.131
1781129.246
1760989.134
1741137.406
1722120.708
1705121.297
1694451.656
1695343.24
1706526.231
1721479.026
1736050.243
1749404.267
1761399.002
1771821.99
1780584.7
1787894.141
1794158.277
1799767.763
1804950.919
1809773.749
1814244.979
1818372.346
1822172.842
1825664.147
1828873.108
1831838.429
1834599.11
1837183.996
1839641.429
1842107.848
1844578.912
1490618.523
1498802.609
1496078.16
1493593.801
1491255.443
1488759.431
1485463.814
1480352.898
1479890.965
1512283.114
1572324.367
1638014.324
1704515.252
1769844.96
1814796.377
1807292.416
1788555.535
1769832.668
1750853.4
1731365.914
1711997.647
1693259.836
1675935.043
1663581.728
1661881.095
1671419.503
1686202.829
1701194.802
1715076.875
1727713.475
1738904.905
1748467.955
1756476.853
1763271.768
1769260.621
1774742.521
1779837.443
1784569.291
1788946.657
1792979.774
1796686.654
1800088.501
1803219.774
1806123.35
1808839.964
1811394.97
1813798.991
1816089.784
1818397.155
1820718.371
1426780.292
1437616.063
1435896.743
1433750.09
1434974.118
1456124.055
1498473.937
1547675.314
1600046.005
1655154.495
1713259.186
1765339.526
1778819.64
1766894.657
1750850.017
1734215.278
1716659.769
1698424.568
1680153.604
1662271.866
1645279.539
1632060.917
1628443.922
1636433.638
1650892.016
1666222.568
1680557.576
1693719.595
1705547.042
1715829.73
1724539.766
1731915.202
1738333.106
1744133.366
1749500.512
1754485.82
1759098.874
1763351.104
1767261.245
1770847.256
1774137.356
1777171.818
1779994.887
1782642.898
1785137.869
1787491.323
1789710.505
1791830.491
1793972.848
1796132.28
1499931.977
1516343.516
1531216.001
1553338.702
1582138.053
1616030.494
1654891.551
1698581.312
1740504.835
1754969.947
1746000.751
1732775.989
1718932.509
1703620.802
1686959.476
1669605.089
1652148.155
1634878.78
1618084.491
1604328.489
1599147.131
1605433.594
1619081.3
1634330.211
1648809.708
1662231.527
1674458.075
1685264.71
1694529.112
1702375.969
1709134.199
1715176.289
1720751.248
1725938.56
1730748.595
1735188.715
1739276.035
1743029.428
1746470.009
1749632.014
1752558.202
1755289.385
1757854.771
1760272.454
1762556.334
1764716.978
1766760.349
1768718.115
1770700.611
1772706.878
1673130.702
1676450.552
1690434.903
1711057.904
1734046.662
1743503.558
1737370.824
1727706.635
1717345.347
1705825.397
1692600.692
1677965.256
1662004.138
1645187.241
1628273.773
1611466.953
1594921.081
1580857.822
1574501.916
1579078.051
1591398.375
1605973.884
1620047.945
1633253.567
1645487.108
1656504.28
1666106.42
1674304.891
1681343.078
1687561.803
1693245.861
1698532.694
1703454.53
1708016.465
1712228.468
1716106.606
1719665.762
1722931.892
1725943.333
1728743.063
1731366.2
1733834.191
1736161.574
1738361.966
1740448.029
1742428.555
1744307.049
1746113.096
1747952.528
1749819.732
1727652.208
1713549.264
1712709.307
1709771.522
1704571.919
1698010.362
1689919.009
1680108.633
1668541.388
1655133.984
1640497.23
1624899.204
1608419.527
1592173.234
1576332.292
1562635.65
1555872.444
1559074.189
1569719.774
1582872.625
1595913.521
1608366.481
1620114.996
1630907.608
1640491.973
1648774.638
1655890.298
1662128.213
1667788.656
1673059.577
1677994.583
1682594.792
1686861.712
1690805.985
1694440.25
1697780.04
1700854.678
1703703.327
1706364.398
1708865.526
1711223.005
1713449.255
1715557.095
1717556.833
1719458.708
1721269.187
1722993.577
1724657.933
1726361.254
1728095.685
1708913.976
1690049.339
1688506.369
1683900.412
1676178.945
1666244.144
1654638.914
1641378.397
1626969.594
1611588.281
1596036.326
1579684.382
1563925.279
1551061.891
1544545.628
1546605.526
1555070.098
1566051.22
1577301.927
1588350.088
1599048.125
1609115.113
1618243.65
1626242.784
1633150.141
1639185.592
1644633.943
1649714.262
1654505.179
1659009.652
1663219.705
1667136.294
1670766.22
1674115.713
1677202.88
1680059.206
1682722.556
1685224.553
1687584.244
1689813.638
1691923.587
1693925.164
1695828.337
1697641.571
1699373.721
1701031.211
1702614.776
1704145.792
1705717.465
1707324.281
1664562.57
1643487.491
1641022.06
1635325.974
1626924.156
1616339.315
1604354.354
1591715.802
1577789.397
1563765.62
1550025.196
1539258.469
1534760.301
1536853.432
1543498.119
1552283.633
1561634.252
1571133.191
1580607.115
1589749.104
1598201.269
1605742.044
1612334.622
1618113.666
1623307.758
1628133.546
1632708.891
1637053.282
1641151.66
1644993.562
1648577.709
1651905.832
1654983.094
1657829.647
1660477.6
1662960.689
1665303.229
1667517.157
1669611.91
1671598.574
1673486.053
1675283.045
1676996.103
1678635.426
1680208.39
1681718.088
1683164.933
1684572.067
1686022.64
1687510.006
1617245.03
1596619.192
1594326.01
1588687.676
1580458.645
1570789.207
1559713.895
1548512.931
1538275.185
1531291.25
1528816.632
1531076.693
1536043.527
1542463.109
1549782.143
1557560.565
1565585.652
1573541.279
1581070.894
1587947.155
1594062.062
1599451.057
1604278.381
1608752.81
1613021.997
1617118.272
1621026.914
1624723.869
1628198.938
1631448.505
1634469.033
1637269.043
1639871.393
1642307.425
1644604.612
1646779.371
1648840.596
1650795.768
1652653.875
1654422.53
1656108.348
1657716.083
1659254
1660729.209
1662146.882
1663510.636
1664824.842
1666112.823
1667449.175
1668822.124
1567601.743
1548578.829
1546819.79
1542415.331
1535989.97
1529677.693
1524689.471
1521857.317
1521844.411
1523840.258
1527629.391
1532460.744
1538210.004
1544624.681
1551439.011
1558367.135
1565070.179
1571336.111
1577014.267
1582057.251
1586566.054
1590751.289
1594758.734
1598631.745
1602357.406
1605910.801
1609275.449
1612442.13
1615404.302
1618158.111
1620714.222
1623096.722
1625337.722
1627459.959
1629473.669
1631384.888
1633200.738
1634929.484
1636577.578
1638149.056
1639650.934
1641089.765
1642470.378
1643794.976
1645070.634
1646303.771
1647497.489
1648670.952
1649895.735
1651159.05
1522294.43
1508435.152
1509214.227
1509328.519
1509034.719
1509307.004
1510698.647
1513155.817
1516478.606
1520802.351
1525838.435
1531534.729
1537606.984
1543853.179
1549962.278
1555771.808
1561123.275
1565908.775
1570228.762
1574233.86
1578046.416
1581735.231
1585303.218
1588718.799
1591972.035
1595056.944
1597957.867
1600664.426
1603179.592
1605520.398
1607713.549
1609784.343
1611748.78
1613614.408
1615385.747
1617068.286
1618669.233
1620195.327
1621650.806
1623042.55
1624375.865
1625656.759
1626889.087
1628078.501
1629229.483
1630345.818
1631430.896
1632502.167
1633621.674
1634778.427
1498635.786
1490942.899
1492978.077
1495014.068
1497198.815
1500113.826
1503711.704
1507943.245
1512830.868
1518172.118
1523818.858
1529611.452
1535328.513
1540806.091
1545928.26
1550559.696
1554786.284
1558705.801
1562409.494
1565967.206
1569432.745
1572778.957
1575974.831
1579006.673
1581866.473
1584545.667
1587033.431
1589340.503
1591491.261
1593513.925
1595430.952
1597253.764
1598985.244
1600629.784
1602194.457
1603684.733
1605104.83
1606457.831
1607750.292
1608988.129
1610175.013
1611315.6
1612417.218
1613488.425
1614532.749
1615548.92
1616539.318
1617519.692
1618545.119
1619602.391
1490317.845
1486316.972
1488550.125
1491223.547
1494330.203
1498016.785
1502239.389
1506921.439
1511934.334
1517075.809
1522265.933
1527285.149
1532074.455
1536496.987
1540596.027
1544422.666
1548023.559
1551511.733
1554911.148
1558195.325
1561338.274
1564315.685
1567133.379
1569794.871
1572281.897
1574591.305
1576736.545
1578741.871
1580631.031
1582417.895
1584112.932
1585722.087
1587251.364
1588706.135
1590092.098
1591414.43
1592677.667
1593886.262
1595043.116
1596148.358
1597210.791
1598237.688
1599234.94
1600207.405
1601160.553
1602093.604
1603003.773
1603905.473
1604849.291
1605822.257
1489943.657
1487721.425
1489772.709
1492336.552
1495351.249
1498847.994
1502759.686
1506983.527
1511324.055
1515682.524
1519934.392
1523993.333
1527836.458
1531491.318
1534954.718
1538346.672
1541658.76
1544855.636
1547920.131
1550869.213
1553678.992
1556332.662
1558818.452
1561122.483
1563258.806
1565248.597
1567120.781
1568893.458
1570575.09
1572170.694
1573683.834
1575119.085
1576482.813
1577781.295
1579018.069
1580198.95
1581328.69
1582412.741
1583453.342
1584453.861
1585418.849
1586356.434
1587271.503
1588167.786
1589047.672
1589912.095
1590755.929
1591592.957
1592468.292
1593368.291
1491794.326
1490323.098
1492096.633
1494329.259
1496929.403
1499904.746
1503194.907
1506659.201
1510158.093
1513661.488
1517050.472
1520382.592
1523609.856
1526807.339
1529955.436
1533002.04
1535976.327
1538855.686
1541605.805
1544199.976
1546649.324
1548957.228
1551109.264
1553109.423
1554973.772
1556724.313
1558382.974
1559958.136
1561454.452
1562879.041
1564235.53
1565526.637
1566754.089
1567920.787
1569035.451
1570102.421
1571124.135
1572104.166
1573050.204
1573969.575
1574861.14
1575730.937
1576583.625
1577421.143
1578244.528
1579052.959
1579844.365
1580628.757
1581445.68
1582282.631
1493853.563
1492600.088
1494058.232
1495870.415
1497940.629
1500312.516
1502926.044
1505640.492
1508440.433
1511278.806
1514136.746
1517004.874
1519887.364
1522707.493
1525511.123
1528245.197
1530858.685
1533372.575
1535786.012
1538065.222
1540184.743
1542157.233
1544002.364
1545746.922
1547400.32
1548969.072
1550453.127
1551862.062
1553203.027
1554480.261
1555698.385
1556862.476
1557975.333
1559038.111
1560053.327
1561025.479
1561959.88
1562862.667
1563739.592
1564595.378
1565432.487
1566252.31
1567057.77
1567849.982
1568629.232
1569394.357
1570143.04
1570882.072
1571649.292
1572434.347
1495144.626
1493893.974
1495048.379
1496447.522
1498063.42
1499954
1502024.382
1504233.828
1506596.249
1509008.598
1511523.801
1514035.799
1516569.787
1519072.715
1521505.735
1523896.78
1526200.804
1528379.739
1530441.85
1532397.295
1534230.824
1535942.377
1537558.251
1539097.023
1540568.236
1541974.919
1543313.031
1544583.218
1545793.876
1546950.072
1548054.049
1549110.782
1550125.986
1551102.726
1552035.632
1552932.814
1553801.818
1554647.603
1555473.759
1556283.812
1557079.687
1557861.505
1558630.424
1559387.502
1560132.297
1560860.944
1561571.539
1562271.831
1562997.153
1563736.057
1495449.489
1494131.513
1495078.566
1496225.904
1497576.648
1499133.131
1500858.171
1502781.351
1504808.086
1506930.95
1509105.506
1511313.006
1513498.593
1515690.655
1517815.556
1519866.167
1521854.529
1523736.296
1525499.17
1527163.614
1528755.489
1530273.802
1531714.995
1533090.916
1534405.915
1535664.342
1536874.633
1538031.452
1539132.839
1540186.164
1541197.155
1542168.764
1543103.234
1544003.13
1544871.954
1545713.555
1546534.109
1547337.634
1548126.911
1548902.952
1549666.096
1550417.348
1551157.504
1551886.079
1552600.11
1553294.665
1553972.028
1554638.731
1555326.842
1556025.31
1495120.368
1493768.573
1494626.467
1495649.105
1496803.349
1498115.341
1499630.756
1501303.23
1503054.177
1504913.286
1506791.061
1508716.614
1510618.935
1512499.708
1514344.878
1516102.247
1517783.774
1519399.192
1520926.334
1522380.838
1523780.353
1525135.497
1526433.779
1527671.116
1528857.584
1529997.095
1531092.951
1532149.013
1533159.399
1534129.143
1535063.279
1535963.033
1536830.509
1537671.372
1538490.831
1539290.35
1540074.673
1540846.597
1541607.028
1542355.76
1543091.46
1543817.854
1544533.134
1545233.933
1545916.832
1546582.193
1547229.713
1547865.117
1548519.07
1549182.868
1494545.33
1493170.303
1493951.859
1494849.42
1495831.156
1496982.636
1498316.353
1499755.03
1501293.574
1502899.981
1504540.136
1506195.146
1507846.516
1509452.9
1511026.033
1512532.548
1513972.722
1515367.763
1516718.683
1518015.209
1519265.659
1520474.935
1521646.764
1522769.174
1523848.065
1524887.507
1525888.761
1526855.76
1527790.376
1528690.166
1529557.619
1530396.869
1531213.014
1532009.826
1532789.714
1533556.724
1534312.998
1535059.21
1535794.902
1536518.255
1537231.997
1537935.617
1538625.109
1539297.731
1539951.251
1540589.369
1541208.671
1541814.71
1542435.114
1543066.625
1493814.425
1492400.79
1493110.128
1493892.489
1494744.309
1495772.976
1496936.61
1498178.091
1499522.878
1500904.287
1502329.989
1503745.107
1505161.433
1506531.003
1507866.336
1509174.183
1510435.683
1511665.722
1512873.761
1514037.826
1515162.121
1516252.265
1517312.468
1518337.497
1519324.618
1520277.86
1521200.573
1522095.159
1522963.141
1523800.174
1524612.122
1525404.454
1526180.543
1526942.281
1527691.148
1528432.014
1529164.562
1529888.018
1530600.915
1531301.313
1531993.728
1532672.545
1533335.177
1533979.733
1534606.471
1535217.615
1535809.209
1536384.816
1536975.015
1537576.16
1492968.41
1491518.357
1492160.125
1492849.327
1493611.278
1494506.119
1495506.293
1496592.021
1497751.791
1498935.294
1500151.639
1501356.674
1502559.516
1503739.787
1504900.281
1506053.348
1507176.683
1508276.02
1509355.227
1510405.389
1511424.471
1512415.765
1513380.751
1514319.805
1515227.239
1516108.02
1516964.687
1517796.929
1518603.288
1519388.261
1520156.693
1520911.597
1521654.964
1522387.592
1523111.543
1523829.714
1524540.246
1525241.866
1525932.603
1526611.752
1527279.367
1527932.299
1528568.265
1529183.785
1529785.295
1530370.016
1530932.795
1531478.894
1532041.696
1532612.386
1492038.492
1490553.488
1491132.131
1491753.41
1492421.352
1493188.588
1494037.143
1494974.347
1495961.392
1496970.815
1498004.792
1499037.501
1500073.936
1501113.809
1502143.634
1503169.174
1504176.787
1505164.195
1506134.064
1507088.813
1508018.207
1508924.63
1509808.691
1510671.115
1511510.602
1512329.441
1513127.052
1513902.706
1514658.86
1515402.531
1516135.605
1516859.976
1517576.223
1518282.553
1518985.125
1519681.99
1520371.686
1521052.305
1521718.46
1522374.063
1523016.617
1523643.143
1524249.687
1524840.163
1525416.299
1525973.055
1526506.377
1527027.234
1527561.678
1528100.552
1491028.155
1489517.572
1490049.232
1490605.05
1491175.917
1491825.686
1492545.443
1493338.359
1494170.416
1495037.03
1495926.168
1496831.102
1497744.75
1498670.055
1499589.809
1500505.418
1501412.154
1502305.856
1503187.357
1504055.904
1504905.623
1505737.454
1506552.015
1507348.895
1508129.281
1508891.355
1509636.132
1510366.135
1511081.536
1511790.889
1512494.802
1513193.238
1513884.415
1514568.075
1515249.621
1515926.076
1516594.672
1517249.793
1517891.903
1518523.207
1519139.797
1519737.259
1520316.787
1520883.378
1521432.22
1521959.565
1522466.887
1522962.926
1523468.427
1523975.637
1489932.7
1488416.83
1488907.24
1489392.169
1489872.699
1490418.758
1491029.541
1491704.438
1492418.535
1493173.393
1493952.211
1494756.264
1495570.744
1496395.912
1497219.633
1498042.366
1498863.722
1499677.162
1500481.44
1501273.748
1502053.594
1502821.41
1503576.542
1504315.564
1505040.795
1505753.199
1506454.741
1507144.728
1507828.194
1508510.009
1509189.133
1509863.525
1510529.809
1511193.939
1511855.8
1512511.467
1513154.749
1513783.005
1514402.52
1515008.692
1515596.959
1516166.522
1516722.484
1517262.269
1517782.367
1518282.674
1518766.371
1519236.149
1519711.805
1520192.146
1488765.151
1487256.684
1487702.233
1488125.978
1488533.016
1488996.453
1489524.993
1490110.746
1490737.7
1491403.471
1492095.069
1492810.122
1493537.855
1494275.604
1495019.487
1495766.24
1496511.663
1497253.918
1497989.846
1498715.619
1499435.507
1500148.196
1500849.392
1501534.045
1502212.167
1502884.561
1503549.586
1504204.638
1504862.733
1505521.052
1506176.865
1506826.692
1507471.692
1508117.638
1508759.385
1509390.301
1510005.402
1510611.277
1511206.127
1511784.677
1512344.121
1512889.375
1513419.928
1513931.955
1514424.506
1514901.214
1515359.736
1515801.257
1516251.282
1516707.134
1487546.826
1486054.467
1486463.759
1486840.308
1487192.092
1487594.516
1488060.72
1488577.195
1489133.618
1489724.746
1490341.965
1490979.365
1491633.814
1492299.955
1492975.798
1493655.922
1494334.158
1495013.753
1495690.25
1496358.915
1497026.89
1497687.809
1498335.407
1498977.3
1499618.27
1500256.14
1500888.149
1501518.476
1502153.822
1502789.964
1503422.582
1504048.415
1504676.52
1505303.1
1505920.511
1506522.053
1507113.923
1507696.872
1508264.938
1508814.085
1509348.622
1509869.846
1510373.518
1510857.547
1511326.214
1511778.803
1512209.888
1512627.207
1513054.213
1513481.885
1486314.574
1484849.518
1485230.349
1485570.959
1485881.628
1486238.735
1486651.327
1487109.521
1487605.97
1488132.135
1488686.377
1489260.982
1489854.426
1490458.013
1491073.089