/*--------------------------------*- C++ -*----------------------------------*\
  =========                 |
  \\      /  F ield         | OpenFOAM: The Open Source CFD Toolbox
   \\    /   O peration     | Website:  https://openfoam.org
    \\  /    A nd           | Version:  7
     \\/     M anipulation  |
\*---------------------------------------------------------------------------*/
FoamFile
{
    version     2.0;
    format      ascii;
    class       volScalarField;
    location    "0.0024";
    object      thermo:alpha;
}
// * * * * * * * * * * * * * * * * * * * * * * * * * * * * * * * * * * * * * //

dimensions      [1 -1 -1 0 0 0 0];

internalField   nonuniform List<scalar> 
14000
(
0.0001263972484
0.0001263971804
0.0001263970312
0.0001263968016
0.0001263964855
0.000126396073
0.0001263955504
0.0001263949
0.0001263940999
0.0001263931228
0.0001263919357
0.000126390499
0.0001263887648
0.0001263866764
0.0001263841658
0.0001263811527
0.0001263775419
0.0001263732209
0.0001263680576
0.0001263618964
0.0001263545553
0.0001263458214
0.0001263354467
0.0001263231425
0.0001263085743
0.000126291355
0.0001262710381
0.0001262471097
0.0001262189805
0.0001261878004
0.0001261534501
0.0001261133053
0.0001260664829
0.0001260113062
0.0001259448631
0.0001258678428
0.0001257824712
0.0001256860029
0.0001255755218
0.0001254489868
0.0001253045985
0.0001251403979
0.000124964456
0.000124765852
0.000124547464
0.0001243002484
0.0001240425404
0.0001237539448
0.0001234519949
0.0001231196223
0.0001263673523
0.00012636659
0.0001263649258
0.0001263623877
0.0001263589372
0.0001263545048
0.0001263489937
0.0001263422811
0.0001263342175
0.0001263246259
0.0001263133007
0.0001263000055
0.0001262844714
0.0001262663948
0.0001262454348
0.0001262212116
0.0001261943129
0.0001261658207
0.0001261331863
0.0001260959136
0.0001260534625
0.000126004238
0.0001259469255
0.0001258821953
0.0001258111228
0.0001257343278
0.0001256484349
0.0001255531187
0.0001254472764
0.0001253303138
0.0001252016081
0.0001250644949
0.0001249187942
0.0001247599622
0.0001245904586
0.0001244108568
0.0001242159406
0.0001240224467
0.0001238090916
0.0001235922732
0.0001233721702
0.0001231400989
0.0001229108705
0.0001226693096
0.0001224354327
0.0001221947842
0.0001219666071
0.0001217428456
0.0001215284165
0.0001213200663
0.0001262783398
0.0001262759359
0.0001262707098
0.0001262627948
0.0001262521377
0.0001262386102
0.0001262220242
0.0001262021657
0.0001261813028
0.0001261569518
0.0001261287747
0.0001260963956
0.0001260594017
0.0001260169344
0.0001259669759
0.0001259106609
0.0001258474212
0.0001257805147
0.0001257065106
0.0001256245551
0.0001255341468
0.0001254347105
0.000125325675
0.000125206795
0.0001250805903
0.0001249483158
0.0001248054193
0.0001246516319
0.000124495835
0.0001243202553
0.0001241446837
0.0001239663345
0.0001237741021
0.000123578529
0.0001233832398
0.0001231767637
0.000122972246
0.0001227610401
0.0001225525853
0.0001223472247
0.0001221415468
0.0001219409645
0.0001217460691
0.0001215574602
0.000121375369
0.0001212008298
0.0001210248324
0.0001208685013
0.0001207126245
0.0001205761973
0.0001261091373
0.0001261047173
0.0001260951401
0.0001260807202
0.0001260614603
0.0001260372548
0.0001260070426
0.0001259706135
0.0001259282274
0.0001258795206
0.000125825
0.0001257662835
0.0001257004083
0.0001256271746
0.0001255461875
0.0001254568952
0.0001253590976
0.0001252522881
0.0001251360116
0.0001250174574
0.0001248895759
0.0001247520319
0.0001246066282
0.0001244575305
0.0001242917294
0.0001241275312
0.0001239593174
0.0001237795802
0.0001235975308
0.0001234171381
0.0001232236171
0.0001230311532
0.0001228417404
0.0001226453247
0.0001224545948
0.0001222585875
0.000122077378
0.0001218897542
0.0001217086339
0.0001215367527
0.0001213681487
0.0001212067152
0.0001210431757
0.0001208954768
0.0001207533552
0.0001206226999
0.0001205003004
0.0001203864658
0.0001202889113
0.0001201934143
0.0001258411078
0.0001258338788
0.0001258185663
0.0001257956189
0.0001257651651
0.0001257271941
0.0001256816038
0.0001256284722
0.0001255675234
0.0001254983495
0.0001254211131
0.0001253351851
0.0001252406211
0.0001251368522
0.0001250304556
0.0001249152286
0.000124790873
0.0001246574159
0.0001245221882
0.0001243727171
0.0001242176137
0.0001240640266
0.0001238982026
0.0001237296302
0.0001235567629
0.0001233839288
0.0001232015246
0.0001230191976
0.0001228393997
0.0001226532163
0.0001224715553
0.0001222857039
0.0001221117732
0.0001219340672
0.0001217631342
0.0001215952479
0.0001214360976
0.0001212755845
0.0001211219603
0.0001209740731
0.000120841301
0.0001207040876
0.0001205823287
0.0001204706004
0.0001203663604
0.000120273449
0.0001201846667
0.0001201109459
0.0001200475306
0.0001199928982
0.0001254884249
0.0001254786484
0.0001254576027
0.0001254261773
0.0001253846772
0.0001253332483
0.0001252721956
0.0001252014679
0.0001251216513
0.0001250368193
0.0001249426502
0.0001248393423
0.0001247267808
0.0001246068016
0.0001244836401
0.0001243433547
0.0001242011773
0.0001240592179
0.0001239045646
0.0001237465616
0.0001235836612
0.0001234234416
0.0001232491539
0.0001230773463
0.0001229088013
0.0001227284254
0.000122552799
0.0001223822624
0.0001222041789
0.0001220400873
0.0001218706829
0.0001217056004
0.0001215487889
0.0001213952511
0.0001212443524
0.0001210943236
0.000120953192
0.0001208276081
0.0001206962671
0.0001205784037
0.0001204705051
0.0001203694202
0.0001202795597
0.0001201919336
0.0001201204929
0.00012005639
0.0001200033348
0.0001199619541
0.0001199351619
0.0001199072521
0.0001250594385
0.0001250479971
0.0001250233616
0.0001249866753
0.0001249385918
0.0001248794236
0.0001248092657
0.0001247287152
0.0001246375363
0.0001245425323
0.00012443515
0.0001243138772
0.0001241909117
0.0001240656006
0.0001239281442
0.0001237839675
0.0001236362295
0.0001234872185
0.0001233278882
0.0001231671852
0.0001230042159
0.0001228414838
0.0001226723331
0.0001225049864
0.000122339722
0.0001221715778
0.0001220137689
0.0001218525769
0.0001216934265
0.0001215431782
0.0001213949913
0.0001212488813
0.0001211035793
0.0001209671779
0.0001208439272
0.0001207137109
0.0001206012595
0.0001204946987
0.0001203923154
0.0001203050819
0.0001202181536
0.000120145063
0.0001200763394
0.0001200247417
0.0001199773237
0.0001199435291
0.0001199191694
0.0001198857567
0.0001201087008
0.0001215471731
0.000124595066
0.0001245826693
0.0001245560072
0.0001245163826
0.0001244633771
0.0001243956371
0.0001243156574
0.0001242298474
0.0001241351106
0.0001240353259
0.0001239199289
0.0001237979403
0.0001236710132
0.0001235381988
0.00012340214
0.0001232536609
0.0001231057034
0.0001229566661
0.0001227997802
0.0001226426445
0.0001224857634
0.0001223272678
0.0001221681751
0.0001220175669
0.0001218627853
0.00012171025
0.0001215641837
0.0001214217632
0.0001212776793
0.0001211409759
0.0001210056869
0.0001208817469
0.0001207594679
0.0001206469489
0.0001205371432
0.0001204356844
0.000120345672
0.0001202611612
0.0001201814582
0.0001201142553
0.0001200548583
0.0001200049507
0.0001199651465
0.000119937879
0.000119911038
0.000119864555
0.0001203717897
0.0001219012094
0.0001240048785
0.0001261745662
0.0001241120428
0.000124099283
0.0001240718634
0.0001240311733
0.0001239753936
0.0001239058022
0.0001238265041
0.0001237392416
0.0001236416158
0.0001235366617
0.0001234268341
0.0001233003877
0.0001231742751
0.0001230407611
0.0001229093953
0.0001227623968
0.0001226193479
0.000122474667
0.0001223259716
0.0001221760294
0.0001220351121
0.0001218868527
0.0001217420432
0.0001215996414
0.0001214636646
0.0001213254312
0.0001211951882
0.0001210591284
0.0001209329095
0.0001208199499
0.0001206994874
0.0001205919674
0.0001204929219
0.0001203959257
0.000120313731
0.000120231729
0.0001201598282
0.000120094671
0.0001200415861
0.000119993155
0.000119958197
0.0001199348087
0.0001199084665
0.0001198546359
0.0001204923179
0.0001220240446
0.0001240963672
0.0001262007396
0.000128037995
0.0001292836278
0.0001236351497
0.0001236215479
0.0001235923371
0.0001235507971
0.0001234984204
0.0001234340192
0.0001233533376
0.0001232636113
0.000123168076
0.0001230631386
0.0001229550381
0.0001228367978
0.0001227109428
0.0001225831421
0.000122454724
0.0001223179947
0.0001221807248
0.0001220511983
0.0001219113912
0.0001217759876
0.0001216382451
0.000121509977
0.0001213789442
0.0001212495089
0.0001211200551
0.0001209963991
0.0001208815168
0.0001207679629
0.0001206613415
0.0001205561084
0.0001204605844
0.0001203713097
0.0001202914186
0.0001202116807
0.0001201455441
0.0001200820895
0.000120033388
0.0001199861606
0.000119954291
0.0001199329722
0.0001199072385
0.000119861429
0.0001205305154
0.000122042587
0.000124075034
0.0001261385988
0.0001279539285
0.0001292268842
0.0001298161575
0.0001296790428
0.0001231766969
0.0001231635347
0.0001231353877
0.0001230937193
0.0001230393013
0.0001229770696
0.0001229052795
0.0001228172123
0.0001227226143
0.0001226228328
0.0001225153627
0.0001224089568
0.0001222857079
0.0001221668742
0.0001220510099
0.0001219234757
0.000121799649
0.0001216714844
0.0001215503141
0.0001214280284
0.0001213027465
0.0001211849234
0.0001210604971
0.0001209428726
0.0001208382872
0.0001207227594
0.0001206257835
0.0001205280248
0.0001204353345
0.0001203524028
0.0001202746699
0.0001201974651
0.0001201352585
0.0001200742317
0.0001200277525
0.0001199826911
0.0001199517338
0.0001199309669
0.000119906469
0.0001198750643
0.0001205546471
0.0001220571853
0.0001240710282
0.0001261161194
0.0001279209829
0.0001292065974
0.0001298125918
0.0001296946915
0.0001290307333
0.0001280042673
0.0001227428547
0.000122730454
0.0001227038451
0.0001226644594
0.0001226131929
0.0001225506873
0.0001224813199
0.0001224047235
0.0001223123719
0.0001222173832
0.0001221220259
0.0001220196118
0.0001219101789
0.0001218006992
0.0001216860038
0.0001215747594
0.0001214630569
0.0001213477419
0.0001212348532
0.0001211174824
0.0001210057374
0.00012089929
0.000120798426
0.0001206914991
0.0001205938721
0.0001205036426
0.0001204137079
0.0001203365591
0.0001202608302
0.0001201879001
0.0001201270741
0.0001200690461
0.0001200234348
0.0001199803227
0.0001199498367
0.0001199294919
0.0001199059006
0.0001198854769
0.0001205751863
0.0001220753511
0.0001240830131
0.0001261202416
0.0001279209256
0.0001292061519
0.0001298126492
0.0001296932306
0.0001290244135
0.0001279890701
0.0001266896599
0.0001252473505
0.0001223436089
0.0001223310629
0.0001223041492
0.0001222662016
0.0001222187328
0.0001221619763
0.0001221005132
0.0001220268056
0.0001219429995
0.000121858124
0.000121766475
0.000121668471
0.0001215730344
0.000121474482
0.0001213713878
0.000121266072
0.0001211632056
0.00012105517
0.0001209504191
0.0001208557284
0.0001207539939
0.0001206617107
0.0001205666123
0.0001204805241
0.0001203952152
0.0001203220412
0.000120248414
0.0001201795106
0.0001201200899
0.0001200647654
0.000120020016
0.000119978547
0.0001199485184
0.0001199285774
0.0001199056098
0.0001198890481
0.0001205763036
0.0001220660944
0.0001240605587
0.0001260911989
0.0001278915567
0.0001291915475
0.0001298104698
0.0001297014573
0.0001290377798
0.0001280034637
0.0001267012921
0.0001252525781
0.0001237587914
0.0001223656829
0.0001219790632
0.0001219675155
0.0001219441407
0.0001219109228
0.0001218676283
0.0001218149833
0.0001217534619
0.0001216837652
0.0001216106565
0.0001215343679
0.0001214520373
0.0001213641009
0.0001212721477
0.0001211831827
0.0001210838383
0.0001209891995
0.000120897861
0.0001208094819
0.0001207102841
0.0001206261097
0.0001205394324
0.0001204569364
0.000120378313
0.0001203076739
0.0001202364324
0.0001201716075
0.0001201137694
0.0001200610757
0.0001200172886
0.0001199772985
0.0001199477888
0.0001199283104
0.0001199056813
0.0001198825765
0.0001205455519
0.0001220069444
0.0001239693963
0.0001259906309
0.0001277950213
0.0001291431261
0.0001298028325
0.0001297333758
0.0001290985722
0.0001280870692
0.0001268027168
0.0001253630402
0.0001238720778
0.0001224597036
0.0001212643768
0.0001204060963
0.0001216477942
0.0001216383847
0.0001216182071
0.0001215883734
0.0001215495324
0.0001215023251
0.0001214472048
0.0001213847241
0.0001213154008
0.0001212442742
0.0001211680869
0.0001210838576
0.0001210017418
0.0001209190485
0.0001208401251
0.0001207520757
0.0001206713415
0.0001205863991
0.0001205097035
0.0001204313356
0.0001203600832
0.0001202923955
0.0001202238533
0.0001201634854
0.0001201074829
0.0001200575749
0.0001200149142
0.0001199763867
0.0001199474935
0.0001199285698
0.0001199060686
0.0001198669179
0.0001204846304
0.0001218994879
0.0001238108738
0.0001258196673
0.0001276326242
0.0001290301164
0.0001297900137
0.000129787313
0.0001292023118
0.0001282314821
0.0001269803776
0.000125559523
0.0001240771876
0.0001226511444
0.0001214004241
0.0001204890012
0.0001199589657
0.0001195879447
0.0001213582515
0.0001213489105
0.0001213288818
0.0001212992732
0.0001212630691
0.0001212213923
0.0001211694542
0.0001211075614
0.0001210464762
0.0001209797698
0.000120912377
0.0001208451618
0.0001207702365
0.0001206936648
0.0001206216079
0.0001205473679
0.0001204757358
0.0001204023194
0.0001203393372
0.0001202750383
0.0001202095953
0.0001201543565
0.0001201004714
0.0001200537378
0.0001200124054
0.0001199755045
0.0001199473437
0.0001199290833
0.0001199066382
0.0001198535333
0.0001204028608
0.000121757107
0.0001236021688
0.0001255952453
0.0001274196558
0.0001288545004
0.0001297321519
0.0001298579655
0.0001293384291
0.0001284213066
0.0001272143214
0.0001258186859
0.0001243481307
0.0001229125366
0.0001216322274
0.0001206289302
0.000120031121
0.000119659866
0.000119294711
0.0001189450208
0.0001210891644
0.0001210809375
0.0001210632989
0.0001210372277
0.000121003355
0.0001209621452
0.0001209178523
0.0001208701389
0.0001208172721
0.0001207536798
0.0001206919022
0.0001206311288
0.000120564759
0.0001205016564
0.0001204358662
0.0001203735649
0.000120314768
0.000120254348
0.000120193933
0.0001201433445
0.0001200918984
0.0001200489656
0.0001200091893
0.0001199742873
0.0001199469903
0.0001199295159
0.0001199072248
0.0001198578917
0.0001203117741
0.0001215960918
0.0001233744299
0.0001253364694
0.0001271724988
0.0001286495981
0.0001296012027
0.0001298679156
0.0001294842481
0.0001286447729
0.0001274905413
0.0001261255209
0.0001246697429
0.0001232235841
0.00012191001
0.0001208472934
0.0001201592476
0.0001197467036
0.0001193788317
0.0001190257507
0.0001186907504
0.0001183971569
0.0001208582508
0.0001208511356
0.0001208358815
0.0001208133376
0.0001207816081
0.0001207409603
0.0001207000661
0.0001206596761
0.0001206077874
0.0001205560614
0.000120503505
0.000120447501
0.0001203908503
0.0001203390451
0.0001202850682
0.0001202291348
0.0001201770236
0.0001201294961
0.0001200808757
0.0001200426362
0.000120004659
0.0001199723452
0.0001199460603
0.0001199295116
0.0001199076538
0.0001198617932
0.0001202235948
0.0001214334468
0.0001231414775
0.0001250619917
0.0001269074072
0.0001284274254
0.0001294579686
0.0001298452132
0.0001295800484
0.000128842801
0.0001277758424
0.0001264655064
0.0001250308139
0.0001235741667
0.0001222242853
0.0001210952596
0.0001203108016
0.0001198461943
0.0001194782894
0.0001191212802
0.0001187791266
0.0001184697642
0.0001182163766
0.000118012801
0.0001206519564
0.0001206449498
0.0001206299294
0.0001206077325
0.0001205800294
0.0001205499332
0.0001205148331
0.0001204751119
0.0001204311078
0.000120386482
0.0001203433335
0.0001202973781
0.0001202488609
0.0001201983389
0.0001201558575
0.0001201118644
0.0001200691607
0.0001200340834
0.0001199981776
0.0001199692684
0.0001199441617
0.0001199286964
0.0001199077418
0.0001198644038
0.0001201509348
0.0001212866839
0.0001229201834
0.00012478772
0.0001266407898
0.0001282001754
0.0001293094657
0.0001298214196
0.0001296813498
0.0001290397735
0.0001280528518
0.0001268095751
0.0001254159987
0.000123967034
0.0001225768549
0.0001213673568
0.0001204778047
0.000119956275
0.0001195887715
0.0001192285561
0.000118882897
0.0001185632783
0.000118293069
0.0001180734806
0.0001179217058
0.0001178456944
0.0001204714879
0.0001204655516
0.0001204528738
0.0001204341455
0.000120409765
0.0001203840326
0.0001203552097
0.0001203226361
0.0001202865241
0.0001202471535
0.0001202048147
0.0001201676308
0.0001201294632
0.000120089478
0.0001200550914
0.0001200225992
0.000119989078
0.0001199646284
0.0001199423991
0.00011992668
0.0001199072978
0.000119864856
0.0001201171738
0.0001211738308
0.0001227312086
0.0001245390465
0.0001263564782
0.0001279685243
0.0001291629018
0.0001297975621
0.0001297842109
0.0001292418492
0.0001283394994
0.0001271682466
0.0001258188487
0.0001243935996
0.0001229933517
0.0001217319466
0.0001207252991
0.0001200939307
0.0001197086989
0.0001193454554
0.0001189964153
0.000118665969
0.0001183776078
0.000118143346
0.0001179664879
0.0001178658176
0.0001178483345
0.0001178987733
0.0001203220917
0.0001203172268
0.0001203067986
0.0001202914339
0.0001202714634
0.000120247169
0.0001202189153
0.0001201894375
0.0001201610006
0.0001201300469
0.0001200967438
0.0001200652208
0.0001200370293
0.0001200074814
0.000119979469
0.0001199579951
0.0001199398009
0.0001199230558
0.0001199061236
0.000119862253
0.0001201165118
0.0001211137136
0.0001225960333
0.0001243372802
0.0001261088626
0.0001277111887
0.0001289696704
0.000129741791
0.0001298818841
0.0001294421041
0.0001286269953
0.000127531618
0.0001262305108
0.0001248327941
0.0001234250691
0.0001221233732
0.0001210374379
0.0001202866381
0.0001198364327
0.0001194735332
0.0001191205622
0.0001187813345
0.0001184736485
0.0001182205648
0.0001180152849
0.0001178878291
0.0001178366035
0.000117872547
0.0001179444421
0.000118023969
0.0001201908419
0.0001201870176
0.0001201788204
0.0001201667094
0.0001201509821
0.000120131884
0.0001201096312
0.0001200844658
0.0001200616931
0.0001200388115
0.000120014188
0.0001199879674
0.0001199684266
0.000119948883
0.0001199360479
0.0001199173927
0.0001199040088
0.0001198556434
0.0001201594167
0.0001211261856
0.0001225373831
0.0001242050178
0.0001259185541
0.0001274956634
0.0001287690022
0.0001296021485
0.0001298584188
0.0001295575772
0.000128852665
0.0001278520497
0.000126624915
0.0001252708043
0.0001238684487
0.0001225258619
0.0001213583624
0.000120486046
0.0001199693912
0.0001196084262
0.0001192528913
0.000118910606
0.0001185912606
0.0001183179253
0.000118095083
0.0001179359654
0.0001178521738
0.0001178555983
0.0001179151216
0.0001179924045
0.0001180713978
0.0001181629727
0.0001200875732
0.0001200838137
0.0001200761236
0.0001200671942
0.0001200555727
0.0001200414494
0.0001200250088
0.0001200063969
0.0001199857628
0.0001199704518
0.0001199541648
0.0001199403024
0.0001199284842
0.0001199110067
0.0001198946793
0.0001198966485
0.0001202859451
0.0001212329351
0.0001225804803
0.0001241678064
0.0001258093738
0.0001273419811
0.0001286095092
0.0001294836499
0.0001298376148
0.0001296524626
0.000129047397
0.0001281381454
0.0001269934073
0.0001256949097
0.0001243270443
0.0001229819293
0.0001217627459
0.0001207775158
0.0001201405617
0.0001197476444
0.0001193907514
0.000119045309
0.0001187143979
0.0001184203216
0.0001181805358
0.0001179912629
0.0001178772564
0.0001178421571
0.0001178849073
0.0001179583649
0.0001180378268
0.0001181218038
0.0001182183161
0.0001183157011
0.0001200099089
0.0001200071325
0.0001200011815
0.0001199923897
0.000119982342
0.0001199730062
0.0001199621172
0.0001199497951
0.0001199399586
0.000119931253
0.0001199151999
0.0001199053015
0.0001198724007
0.0001199923247
0.000120501182
0.000121457351
0.0001227523886
0.000124252898
0.0001258065243
0.0001272710781
0.0001285064881
0.000129394991
0.0001298206973
0.0001297338861
0.00012922091
0.0001284002661
0.0001273383499
0.0001260987686
0.0001247699265
0.0001234276094
0.0001221751662
0.0001211123902
0.0001203506883
0.0001198889944
0.0001195353204
0.0001191881856
0.000118853155
0.0001185433627
0.000118281255
0.0001180666126
0.0001179186278
0.000117844681
0.0001178594741
0.0001179236455
0.0001180019277
0.0001180808353
0.0001181747487
0.0001182706666
0.0001183726165
0.000118482017
0.0001199528889
0.0001199510465
0.0001199470976
0.0001199425925
0.0001199387109
0.000119933987
0.0001199237814
0.0001199122285
0.0001199053288
0.0001198807601
0.0001199062901
0.0001201366978
0.0001208228983
0.0001218243305
0.00012308203
0.0001244895162
0.000125937098
0.0001273054902
0.000128476411
0.0001293455359
0.0001298089858
0.0001297968608
0.0001293645276
0.0001286274153
0.0001276473576
0.0001264665954
0.0001251834804
0.0001238574813
0.0001225833383
0.0001214497573
0.0001205607941
0.0001200296961
0.0001196803568
0.000119332534
0.0001189960501
0.0001186749801
0.0001183914741
0.000118159201
0.0001179789172
0.000117872191
0.0001178446475
0.0001178901314
0.0001179639648
0.0001180431942
0.0001181283433
0.0001182248383
0.0001183229809
0.0001184287815
0.0001185418729
0.000118663012
0.0001199153593
0.0001199135382
0.0001199112168
0.0001199082715
0.0001199044385
0.0001198901733
0.0001198643574
0.0001199444096
0.0001201187377
0.0001206704813
0.0001214309526
0.0001224159221
0.0001236028614
0.0001249084396
0.000126229899
0.000127469361
0.0001285370322
0.0001293454243
0.0001298039146
0.0001298359507
0.000129468291
0.0001287791978
0.0001278668401
0.000126767892
0.0001255497373
0.0001242710227
0.0001230093251
0.0001218515746
0.0001208923348
0.0001202349977
0.0001198238565
0.0001194796934
0.0001191424478
0.0001188159044
0.0001185152846
0.0001182621335
0.0001180536396
0.0001179118512
0.0001178422138
0.0001178605333
0.0001179255631
0.0001180036996
0.0001180823231
0.0001181763983
0.0001182722506
0.000118374425
0.0001184842033
0.0001186012171
0.000118730724
0.0001188699823
0.0001198887272
0.0001199123048
0.0001199628185
0.0001200373896
0.0001201573867
0.0001205040739
0.0001209071446
0.0001215655322
0.0001223419
0.000123307984
0.0001243884911
0.0001255346303
0.0001267078202
0.0001277891955
0.0001287078412
0.0001294057893
0.0001298070578
0.0001298451981
0.0001294978058
0.000128868466
0.0001280303234
0.0001270114049
0.00012586077
0.0001246349502
0.0001233944695
0.0001222226974
0.0001212039242
0.0001204361236
0.0001199624891
0.0001196245249
0.0001192882908
0.0001189617855
0.000118650909
0.0001183766715
0.0001181506037
0.0001179754437
0.0001178714257
0.00011784469
0.0001178895366
0.0001179626577
0.0001180414059
0.0001181256864
0.0001182219108
0.0001183196277
0.0001184251395
0.000118538106
0.0001186590439
0.0001187948107
0.0001189374869
0.0001190942796
0.0001213126552
0.000121412505
0.0001216261429
0.0001219408004
0.0001224022469
0.0001230022729
0.0001237065277
0.000124536228
0.0001254405076
0.0001264044594
0.0001273387064
0.0001282336172
0.0001290104718
0.0001295390137
0.0001298201698
0.000129817946
0.0001294940762
0.0001289020013
0.0001281259559
0.0001271817741
0.0001261008716
0.0001249339989
0.0001237249678
0.0001225584755
0.0001215111175
0.0001206677667
0.0001201214575
0.0001197631091
0.0001194312398
0.0001191061895
0.0001187901215
0.0001184995156
0.0001182546652
0.0001180515058
0.000117912774
0.0001178435368
0.0001178594072
0.0001179222314
0.0001179991853
0.000118077249
0.0001181695598
0.0001182650634
0.0001183663157
0.0001184753044
0.0001185916913
0.0001187200506
0.0001188591092
0.0001190076094
0.0001191718966
0.0001193564684
0.0001242175125
0.0001243416675
0.0001246070699
0.0001249973748
0.0001254940845
0.0001260913334
0.0001267655349
0.0001274497508
0.000128161376
0.0001287929244
0.0001293265666
0.0001297581116
0.0001298451048
0.0001297471434
0.0001294357973
0.0001288680932
0.000128138861
0.0001272621927
0.000126252851
0.000125150594
0.0001239993181
0.0001228715898
0.0001218278211
0.0001209435755
0.0001203046713
0.0001198923644
0.0001195689053
0.0001192471005
0.0001189330672
0.000118634055
0.0001183695296
0.0001181496973
0.0001179777406
0.0001178736204
0.0001178429702
0.0001178845979
0.0001179560381
0.0001180339742
0.0001181156212
0.0001182112312
0.0001183074135
0.0001184115
0.0001185231861
0.0001186423847
0.0001187777134
0.0001189198358
0.0001190751185
0.0001192497902
0.0001194445911
0.0001196477506
0.0001271862552
0.0001272881143
0.0001275058643
0.0001278261187
0.0001281918642
0.0001285812738
0.0001290321417
0.0001293702649
0.000129708437
0.0001298246938
0.0001298774521
0.0001296257827
0.0001292692078
0.0001287548182
0.0001280538275
0.0001272354663
0.0001262991874
0.0001252675168
0.0001241858667
0.0001231074448
0.0001220833361
0.0001211768326
0.0001204650661
0.0001200085618
0.0001196952851
0.0001193789611
0.0001190692066
0.0001187663556
0.0001184878844
0.0001182524074
0.0001180551014
0.0001179182466
0.0001178472861
0.0001178567951
0.000117915157
0.0001179900155
0.0001180671614
0.0001181560653
0.0001182508453
0.0001183501048
0.0001184572019
0.0001185718369
0.0001186970919
0.0001188347762
0.0001189806424
0.0001191411586
0.0001193232257
0.0001195276207
0.0001197299944
0.0001199350769
0.0001292470084
0.0001292924994
0.0001293898219
0.0001295331481
0.0001297188933
0.0001298049942
0.0001298442068
0.0001298582282
0.0001296616695
0.0001294304145
0.0001290050049
0.0001285013026
0.0001278559809
0.0001270844539
0.0001262220919
0.000125270431
0.0001242655092
0.0001232506251
0.0001222645862
0.0001213577004
0.0001206252424
0.0001201443863
0.0001198072674
0.0001195019745
0.0001191982727
0.0001188999863
0.0001186158388
0.0001183632723
0.0001181510971
0.0001179824821
0.0001178773324
0.0001178402289
0.000117876914
0.000117945838
0.0001180225447
0.0001181000952
0.0001181946487
0.0001182885719
0.0001183906937
0.0001185005848
0.0001186179516
0.0001187493568
0.0001188896337
0.0001190414393
0.000119211111
0.0001194013592
0.0001196057291
0.000119807873
0.0001200149521
0.0001202117945
0.0001298688859
0.0001298754247
0.0001298543837
0.000129771445
0.0001296636661
0.0001295327157
0.0001293061442
0.0001289872728
0.0001286117897
0.0001280927901
0.000127507853
0.000126793172
0.0001260046692
0.0001251427698
0.0001242217663
0.0001232859664
0.0001223586353
0.0001214975645
0.0001207870048
0.0001202660994
0.0001199010691
0.0001196087331
0.0001193133612
0.0001190217164
0.0001187347659
0.0001184718509
0.0001182486022
0.0001180590482
0.0001179249433
0.0001178520179
0.0001178534389
0.0001179059419
0.0001179779261
0.0001180537092
0.0001181378654
0.0001182314471
0.0001183277213
0.0001184318888
0.0001185436977
0.0001186640789
0.0001187992339
0.0001189414881
0.0001190988337
0.000119277071
0.0001194757139
0.0001196791811
0.0001198835422
0.0001200878149
0.0001202820649
0.0001204585919
0.0001291491176
0.0001291020337
0.0001290011098
0.000128852001
0.0001286448317
0.0001283279569
0.0001279577222
0.0001275142453
0.0001269573959
0.00012634125
0.0001256311388
0.0001248648878
0.0001240389566
0.0001231989631
0.0001223530733
0.0001215585634
0.0001208826966
0.0001203511727
0.0001199730659
0.0001196957642
0.0001194125848
0.0001191313153
0.0001188527015
0.0001185876557
0.0001183510466
0.0001181493191
0.0001179862611
0.0001178810763
0.000117837232
0.0001178681433
0.0001179339603
0.0001180088233
0.0001180836457
0.0001181740633
0.0001182666342
0.0001183653662
0.0001184719084
0.0001185860182
0.0001187118085
0.000118849099
0.0001189955962
0.0001191576708
0.0001193406689
0.0001195456893
0.0001197482313
0.0001199546075
0.0001201553135
0.0001203433583
0.0001205177368
0.000120683462
0.000127784579
0.00012772244
0.0001275760794
0.0001273416188
0.0001270359885
0.00012666324
0.0001262125881
0.0001256797362
0.0001250852872
0.0001244215555
0.0001237047653
0.0001229750044
0.0001222353342
0.0001215148091
0.0001209028653
0.0001203940075
0.0001200196807
0.0001197597321
0.0001194925009
0.000119223108
0.0001189543943
0.000118690305
0.000118443847
0.0001182366525
0.0001180580484
0.0001179295624
0.0001178562884
0.0001178500848
0.000117896205
0.0001179646789
0.0001180385722
0.0001181169527
0.0001182087637
0.0001183011429
0.0001184014106
0.0001185100305
0.0001186262444
0.0001187570818
0.000118896305
0.0001190475895
0.0001192171485
0.0001194074281
0.0001196114014
0.0001198137829
0.0001200212554
0.000120218551
0.0001204007306
0.0001205720208
0.0001207272886
0.0001208572803
0.0001260404016
0.0001259615547
0.0001257923818
0.0001255420236
0.0001252154203
0.0001248118185
0.0001243367066
0.0001237955088
0.0001232240784
0.00012259825
0.0001219919284
0.0001213646525
0.0001208376096
0.000120388759
0.0001200371871
0.0001197968178
0.0001195477066
0.0001192929664
0.0001190367208
0.0001187819295
0.0001185413161
0.0001183262761
0.0001181390594
0.0001179857587
0.0001178833952
0.0001178347354
0.0001178625958
0.0001179234482
0.0001179945199
0.0001180672902
0.0001181514426
0.000118242065
0.000118336533
0.0001184387867
0.0001185486445
0.0001186673176
0.0001188005002
0.0001189409771
0.0001190966888
0.0001192732048
0.0001194702314
0.00011967309
0.0001198770019
0.0001200817351
0.000120277
0.0001204543256
0.0001206226818
0.0001207679419
0.0001208905083
0.0001209931702
0.0001242105432
0.0001241303239
0.0001239581732
0.0001237066561
0.0001233930726
0.0001230101184
0.0001225613077
0.000122106608
0.000121607311
0.0001211366808
0.0001206759292
0.0001203290069
0.0001200215284
0.0001198030665
0.0001195744068
0.0001193373372
0.000119098078
0.0001188571326
0.0001186223468
0.0001184030908
0.0001182104863
0.0001180468937
0.0001179288442
0.0001178586668
0.0001178474754
0.0001178875635
0.0001179520395
0.0001180234388
0.0001180953358
0.0001181846981
0.0001182740845
0.0001183704657
0.0001184745243
0.0001185860924
0.0001187091772
0.0001188438577
0.0001189874478
0.0001191460665
0.0001193259867
0.0001195292421
0.0001197309397
0.0001199361796
0.0001201376302
0.0001203274996
0.0001205032326
0.0001206698435
0.0001208057484
0.0001209213827
0.0001210150453
0.0001210900845
0.0001224885356
0.0001224220862
0.000122279493
0.0001220684175
0.0001217929709
0.0001214566055
0.0001211395868
0.0001207921741
0.0001204638437
0.0001202073387
0.0001199680779
0.0001197740403
0.0001195683518
0.0001193522682
0.0001191324798
0.0001189080139
0.0001186831716
0.0001184683775
0.0001182821999
0.0001181148752
0.0001179775718
0.000117882796
0.0001178343645
0.0001178599622
0.0001179145711
0.0001179814168
0.000118051508
0.0001181287993
0.0001182167796
0.0001183061967
0.0001184032944
0.0001185087257
0.0001186218235
0.0001187490005
0.0001188849878
0.000119032334
0.0001191969621
0.0001193822167
0.0001195845874
0.0001197851083
0.0001199914752
0.0001201897574
0.000120374512
0.000120547475
0.0001207080516