/*--------------------------------*- C++ -*----------------------------------*\
  =========                 |
  \\      /  F ield         | OpenFOAM: The Open Source CFD Toolbox
   \\    /   O peration     | Website:  https://openfoam.org
    \\  /    A nd           | Version:  7
     \\/     M anipulation  |
\*---------------------------------------------------------------------------*/
FoamFile
{
    version     2.0;
    format      ascii;
    class       volVectorField;
    location    "0.0024";
    object      U;
}
// * * * * * * * * * * * * * * * * * * * * * * * * * * * * * * * * * * * * * //

dimensions      [0 1 -1 0 0 0 0];

internalField   nonuniform List<vector> 
14000
(
(-6.07285728e-08 3.321562681e-20 -0.002000023234)
(-1.593329716e-07 3.464443917e-20 -0.002000029053)
(-2.538642441e-07 2.07461218e-20 -0.002000043687)
(-3.535454691e-07 3.819828811e-21 -0.002000064794)
(-4.564175864e-07 -1.553717753e-20 -0.002000092261)
(-5.622497073e-07 -2.835831544e-21 -0.002000125866)
(-6.716293483e-07 4.23407763e-21 -0.002000165327)
(-7.850704082e-07 8.276531713e-21 -0.002000210398)
(-9.029116717e-07 1.064876451e-20 -0.002000260876)
(-1.025365741e-06 1.224542227e-20 -0.002000316596)
(-1.152536065e-06 1.338781113e-20 -0.002000377422)
(-1.284419551e-06 1.418499863e-20 -0.002000443246)
(-1.420909862e-06 1.480132097e-20 -0.002000513985)
(-1.561801311e-06 1.549541186e-20 -0.00200058958)
(-1.706791631e-06 1.62597501e-20 -0.002000669989)
(-1.855484822e-06 1.69614724e-20 -0.002000755185)
(-2.007401868e-06 1.751749276e-20 -0.002000845157)
(-2.161989568e-06 1.82091601e-20 -0.002000939908)
(-2.318599111e-06 1.925632085e-20 -0.002001039457)
(-2.47647557e-06 2.020649996e-20 -0.002001143839)
(-2.634773801e-06 2.105527099e-20 -0.002001253102)
(-2.792577437e-06 2.188080006e-20 -0.002001367306)
(-2.94890025e-06 2.257141627e-20 -0.002001486529)
(-3.102650816e-06 2.874304236e-20 -0.00200161086)
(-3.252643012e-06 3.460733966e-20 -0.002001740398)
(-3.397621912e-06 4.030616212e-20 -0.002001875247)
(-3.536233256e-06 4.590287563e-20 -0.002002015504)
(-3.667040521e-06 4.652369783e-20 -0.002002161248)
(-3.788517546e-06 4.727254102e-20 -0.002002312521)
(-3.89904364e-06 5.288219592e-20 -0.002002469309)
(-3.996932082e-06 5.83326288e-20 -0.002002631517)
(-4.080383767e-06 5.942023113e-20 -0.002002798949)
(-4.147473229e-06 6.112768119e-20 -0.002002971274)
(-4.196179449e-06 6.324883629e-20 -0.002003147999)
(-4.224393119e-06 6.549967759e-20 -0.002003328458)
(-4.22987461e-06 6.790887912e-20 -0.002003511797)
(-4.210246664e-06 7.044814333e-20 -0.002003696967)
(-4.16300037e-06 7.326093077e-20 -0.002003882733)
(-4.085502771e-06 7.630038908e-20 -0.002004067679)
(-3.974973123e-06 7.948291468e-20 -0.002004250228)
(-3.828473731e-06 7.965915014e-20 -0.002004428647)
(-3.642940846e-06 8.018850236e-20 -0.002004601057)
(-3.415180257e-06 8.108547131e-20 -0.002004765422)
(-3.141879169e-06 8.224431591e-20 -0.002004919522)
(-2.819588058e-06 8.367511809e-20 -0.002005060904)
(-2.444767409e-06 8.542679821e-20 -0.002005186806)
(-2.014141157e-06 8.754690656e-20 -0.002005294064)
(-1.524655394e-06 8.659078183e-20 -0.002005379056)
(-9.694577786e-07 8.594505589e-20 -0.002005437458)
(-3.356165018e-07 8.56156434e-20 -0.002005463288)
(-1.560978313e-07 7.387573329e-20 -0.002003016379)
(-4.090477407e-07 1.482991775e-19 -0.002003034829)
(-6.478374432e-07 2.117968673e-19 -0.002003075767)
(-8.92496501e-07 1.821561743e-19 -0.002003135542)
(-1.135692004e-06 1.71330085e-19 -0.002003212665)
(-1.374942347e-06 1.636528078e-19 -0.002003305557)
(-1.610069208e-06 1.15084421e-19 -0.002003412684)
(-1.840975232e-06 7.494216464e-20 -0.002003532591)
(-2.067393174e-06 3.924540545e-20 -0.002003663907)
(-2.288958992e-06 3.916852719e-20 -0.002003805342)
(-2.505219656e-06 3.746023322e-20 -0.002003955692)
(-2.715641448e-06 3.435997533e-20 -0.002004113837)
(-2.919611235e-06 2.942484207e-20 -0.002004278734)
(-3.116452397e-06 3.45652022e-20 -0.002004449416)
(-3.305448979e-06 3.785716238e-20 -0.002004624985)
(-3.485809917e-06 2.956712039e-20 -0.002004804611)
(-3.656662402e-06 3.019770065e-20 -0.002004987527)
(-3.817124664e-06 3.99583012e-20 -0.00200517303)
(-3.966282311e-06 4.835382786e-20 -0.002005360481)
(-4.103176458e-06 5.494417779e-20 -0.0020055493)
(-4.226846233e-06 6.006193263e-20 -0.002005738968)
(-4.336324453e-06 6.44140088e-20 -0.002005929026)
(-4.430644079e-06 7.468404329e-20 -0.002006119074)
(-4.508872722e-06 8.344667974e-20 -0.00200630878)
(-4.570101546e-06 9.191124776e-20 -0.002006497864)
(-4.613445685e-06 9.404645507e-20 -0.002006686108)
(-4.638085462e-06 9.606745941e-20 -0.00200687335)
(-4.643278822e-06 9.825737487e-20 -0.002007059479)
(-4.628356357e-06 1.000293316e-19 -0.002007244431)
(-4.592720521e-06 1.014580788e-19 -0.002007428179)
(-4.53587548e-06 1.031258312e-19 -0.002007610718)
(-4.4574602e-06 1.050939475e-19 -0.002007792044)
(-4.357253527e-06 1.069470376e-19 -0.002007972121)
(-4.235174468e-06 1.087594797e-19 -0.002008150845)
(-4.091308475e-06 1.109325508e-19 -0.002008328)
(-3.92594265e-06 1.134254147e-19 -0.002008503206)
(-3.739577214e-06 1.158933406e-19 -0.002008675879)
(-3.532939976e-06 1.183287972e-19 -0.002008845188)
(-3.307012023e-06 1.208477486e-19 -0.002009010034)
(-3.063057134e-06 1.23543009e-19 -0.002009169063)
(-2.802632322e-06 1.265357787e-19 -0.002009320687)
(-2.527588012e-06 1.259952522e-19 -0.002009463159)
(-2.240094664e-06 1.222005266e-19 -0.002009594654)
(-1.942658525e-06 1.188039014e-19 -0.002009713385)
(-1.638137232e-06 1.156865298e-19 -0.00200981772)
(-1.329738921e-06 1.128184745e-19 -0.002009906317)
(-1.02097757e-06 1.102415021e-19 -0.002009978241)
(-7.158033763e-07 1.081369256e-19 -0.002010033064)
(-4.190608223e-07 1.06521272e-19 -0.002010070993)
(-1.357735091e-07 1.058099836e-19 -0.002010093035)
(-1.856253295e-07 7.658094314e-21 -0.002007843484)
(-4.853707666e-07 -3.928673415e-20 -0.002007861589)
(-7.653812216e-07 6.764376547e-20 -0.002007900069)
(-1.049036326e-06 1.419892593e-19 -0.002007956403)
(-1.326676449e-06 2.066266882e-19 -0.002008029114)
(-1.594508679e-06 1.920970811e-19 -0.002008116572)
(-1.851629906e-06 1.853243497e-19 -0.002008217216)
(-2.09740777e-06 1.849644762e-19 -0.002008329542)
(-2.331122314e-06 1.868253438e-19 -0.002008452095)
(-2.552067804e-06 1.893305068e-19 -0.002008583488)
(-2.759601839e-06 1.939899537e-19 -0.002008722415)
(-2.953147908e-06 1.99455226e-19 -0.00200886765)
(-3.132140677e-06 1.905329234e-19 -0.002009018064)
(-3.296032916e-06 1.844978712e-19 -0.002009172618)
(-3.444330657e-06 1.794059367e-19 -0.002009330377)
(-3.576569418e-06 1.760867289e-19 -0.002009490505)
(-3.692323972e-06 1.729329432e-19 -0.002009652265)
(-3.791205094e-06 1.703954516e-19 -0.002009815017)
(-3.872872695e-06 1.691676056e-19 -0.00200997822)
(-3.937093012e-06 1.690271347e-19 -0.002010141422)
(-3.98370607e-06 1.701571787e-19 -0.002010304258)
(-4.012589816e-06 1.723555709e-19 -0.002010466436)
(-4.02369339e-06 1.682718842e-19 -0.002010627731)
(-4.017079061e-06 1.599700911e-19 -0.002010787966)
(-3.992911968e-06 1.601297685e-19 -0.002010946996)
(-3.951434408e-06 1.551084319e-19 -0.002011104688)
(-3.892996089e-06 1.45161171e-19 -0.002011260892)
(-3.818035608e-06 1.416062986e-19 -0.002011415426)
(-3.727089711e-06 1.389585619e-19 -0.002011568051)
(-3.620815729e-06 1.326451883e-19 -0.002011718447)
(-3.499961708e-06 1.271763643e-19 -0.002011866207)
(-3.365371369e-06 1.264639263e-19 -0.002012010825)
(-3.2180052e-06 1.262269346e-19 -0.002012151707)
(-3.058914737e-06 1.310320752e-19 -0.002012288185)
(-2.889243945e-06 1.316176427e-19 -0.002012419537)
(-2.710232676e-06 1.32625546e-19 -0.002012545021)
(-2.523207105e-06 1.299773142e-19 -0.002012663904)
(-2.329594627e-06 1.238906589e-19 -0.002012775494)
(-2.130888097e-06 1.144948778e-19 -0.002012879171)
(-1.928646594e-06 1.05918283e-19 -0.002012974407)
(-1.724495651e-06 1.005858163e-19 -0.002013060788)
(-1.520109274e-06 9.942183208e-20 -0.00201313802)
(-1.317187061e-06 9.854618184e-20 -0.002013205943)
(-1.117412356e-06 9.78140633e-20 -0.002013264534)
(-9.224350634e-07 9.718655152e-20 -0.002013313906)
(-7.338309614e-07 9.660559781e-20 -0.002013354305)
(-5.530405962e-07 9.598928008e-20 -0.002013386094)
(-3.81386744e-07 9.69681965e-20 -0.002013409737)
(-2.202628703e-07 9.765324491e-20 -0.00201342577)
(-7.092423279e-08 9.813308881e-20 -0.002013434824)
(-1.650641778e-07 2.161401597e-20 -0.002012663517)
(-4.318960901e-07 -1.350964372e-22 -0.002012676406)
(-6.810497931e-07 -4.519034498e-20 -0.00201270282)
(-9.319673536e-07 1.417267027e-20 -0.002012741648)
(-1.175405718e-06 5.182901007e-20 -0.00201279188)
(-1.407662182e-06 7.82690838e-20 -0.002012852396)
(-1.627622323e-06 1.530444338e-19 -0.002012922149)
(-1.834499389e-06 2.176582729e-19 -0.002013000136)
(-2.027514638e-06 2.77780339e-19 -0.002013085385)
(-2.205966885e-06 3.029010505e-19 -0.002013176964)
(-2.369315147e-06 2.998857183e-19 -0.00201327399)
(-2.517129038e-06 3.042199181e-19 -0.002013375642)
(-2.649068999e-06 3.14133275e-19 -0.002013481162)
(-2.764875627e-06 3.015103522e-19 -0.002013589855)
(-2.864370498e-06 2.938386999e-19 -0.002013701096)
(-2.947479391e-06 2.884213734e-19 -0.002013814322)
(-3.014217406e-06 2.661975116e-19 -0.002013929032)
(-3.064675537e-06 2.280713848e-19 -0.002014044781)
(-3.099039597e-06 1.943196139e-19 -0.002014161167)
(-3.117584517e-06 1.732197602e-19 -0.002014277831)
(-3.120649764e-06 1.54594205e-19 -0.002014394443)
(-3.108658564e-06 1.377489441e-19 -0.002014510692)
(-3.082117779e-06 1.163046276e-19 -0.00201462627)
(-3.041590875e-06 1.034136127e-19 -0.002014740866)
(-2.987723361e-06 9.096532739e-20 -0.002014854157)
(-2.921249125e-06 8.513960111e-20 -0.002014965806)
(-2.842942298e-06 8.000816721e-20 -0.002015075456)
(-2.753617613e-06 8.113550916e-20 -0.002015182732)
(-2.654164701e-06 8.220905199e-20 -0.002015287245)
(-2.545528281e-06 8.331836523e-20 -0.002015388598)
(-2.428691145e-06 8.452132735e-20 -0.002015486396)
(-2.304672808e-06 8.079485512e-20 -0.002015580253)
(-2.174541707e-06 7.728742121e-20 -0.002015669803)
(-2.039403786e-06 6.937509188e-20 -0.002015754707)
(-1.900361743e-06 6.165219268e-20 -0.002015834665)
(-1.758540738e-06 5.423913133e-20 -0.002015909418)
(-1.615068811e-06 5.132345738e-20 -0.002015978757)
(-1.471055532e-06 4.860523649e-20 -0.002016042525)
(-1.327591186e-06 5.036712084e-20 -0.002016100623)
(-1.185727909e-06 5.194941416e-20 -0.002016153009)
(-1.046470535e-06 4.965185012e-20 -0.002016199701)
(-9.107594313e-07 4.958380923e-20 -0.002016240774)
(-7.794599794e-07 5.511453658e-20 -0.002016276362)
(-6.533597018e-07 6.028054546e-20 -0.00201630665)
(-5.3315875e-07 6.518921505e-20 -0.00201633187)
(-4.194514295e-07 6.996011926e-20 -0.002016352294)
(-3.127190261e-07 7.471652132e-20 -0.002016368226)
(-2.133857737e-07 7.672292117e-20 -0.002016379991)
(-1.219654183e-07 7.737724789e-20 -0.002016387937)
(-3.906625474e-08 7.767616571e-20 -0.002016392439)
(-1.297574823e-07 9.641416783e-20 -0.002017095916)
(-3.389072835e-07 2.123568967e-19 -0.002017104173)
(-5.330740859e-07 1.685889264e-19 -0.002017120456)
(-7.278670552e-07 1.515419928e-19 -0.0020171445)
(-9.158076645e-07 1.472358473e-19 -0.002017175697)
(-1.093814235e-06 1.497092684e-19 -0.002017213381)
(-1.260843747e-06 1.563616842e-19 -0.002017256946)
(-1.416149196e-06 1.651557237e-19 -0.002017305815)
(-1.55905079e-06 1.749424139e-19 -0.00201735943)
(-1.689036993e-06 1.842076527e-19 -0.002017417255)
(-1.805717677e-06 1.970524588e-19 -0.002017478775)
(-1.90879271e-06 1.936706357e-19 -0.002017543507)
(-1.998110166e-06 2.079405469e-19 -0.002017610995)
(-2.073619144e-06 1.991201372e-19 -0.00201768081)
(-2.13535041e-06 1.816792373e-19 -0.002017752544)
(-2.18346493e-06 1.701534729e-19 -0.002017825816)
(-2.218205436e-06 1.616798519e-19 -0.002017900262)
(-2.239880187e-06 1.561275456e-19 -0.00201797553)
(-2.248893694e-06 1.426242339e-19 -0.00201805128)
(-2.245698506e-06 1.310628904e-19 -0.002018127178)
(-2.230811499e-06 1.125155414e-19 -0.002018202895)
(-2.204840823e-06 8.747955061e-20 -0.002018278101)
(-2.168447439e-06 7.075359641e-20 -0.002018352464)
(-2.122320792e-06 5.513888108e-20 -0.002018425658)
(-2.06718118e-06 3.483330854e-20 -0.002018497356)
(-2.003800681e-06 2.759045128e-20 -0.002018567238)
(-1.932981409e-06 2.567979661e-20 -0.002018634996)
(-1.855543269e-06 2.345804918e-20 -0.002018700333)
(-1.77233289e-06 2.115042718e-20 -0.002018762969)
(-1.684200495e-06 1.861579059e-20 -0.002018822647)
(-1.591991747e-06 1.608189616e-20 -0.002018879137)
(-1.496564239e-06 1.296913541e-20 -0.002018932238)
(-1.398755129e-06 1.452585128e-20 -0.00201898178)
(-1.299388914e-06 1.204568471e-20 -0.002019027634)
(-1.199269282e-06 1.292024713e-20 -0.002019069704)
(-1.099158963e-06 1.325879386e-20 -0.002019107933)
(-9.997959512e-07 1.629167839e-20 -0.002019142303)
(-9.018742344e-07 2.190251213e-20 -0.002019172833)
(-8.060393944e-07 2.977491183e-20 -0.002019199579)
(-7.128878237e-07 3.689889624e-20 -0.002019222629)
(-6.229662224e-07 4.380858972e-20 -0.002019242103)
(-5.36768004e-07 4.737925672e-20 -0.00201925815)
(-4.547232079e-07 5.062223628e-20 -0.002019270941)
(-3.772006045e-07 5.059521622e-20 -0.002019280669)
(-3.045183863e-07 5.362573184e-20 -0.002019287546)
(-2.369491645e-07 5.369866761e-20 -0.002019291788)
(-1.746874433e-07 5.389183982e-20 -0.002019293577)
(-1.178394775e-07 5.431497941e-20 -0.002019293094)
(-6.652918584e-08 5.497702161e-20 -0.002019290983)
(-2.11323643e-08 5.575180949e-20 -0.002019288919)
(-9.660022964e-08 4.640665146e-20 -0.002020972138)
(-2.524761673e-07 7.001798978e-20 -0.002020977243)
(-3.973239369e-07 7.61726273e-20 -0.002020986913)
(-5.421234517e-07 8.035544193e-20 -0.002021001238)
(-6.810464231e-07 8.33409005e-20 -0.002021019873)
(-8.117742784e-07 8.57481293e-20 -0.00202104243)
(-9.334605994e-07 8.757650139e-20 -0.002021068564)
(-1.045512322e-06 8.894320118e-20 -0.002021097946)
(-1.147413838e-06 8.934154463e-20 -0.00202113025)
(-1.238815146e-06 4.278918527e-20 -0.002021165157)
(-1.3194747e-06 2.669886566e-20 -0.002021202359)
(-1.389240323e-06 1.002948554e-20 -0.002021241549)
(-1.448107382e-06 -6.629075048e-21 -0.00202128243)
(-1.496176803e-06 -2.444067603e-20 -0.002021324709)
(-1.533602201e-06 -4.295811778e-20 -0.002021368096)
(-1.560620777e-06 -5.077789899e-20 -0.002021412302)
(-1.577576164e-06 -4.989430104e-20 -0.002021457044)
(-1.584856385e-06 -3.017156838e-20 -0.00202150204)
(-1.582896585e-06 -1.310234182e-20 -0.002021547009)
(-1.572196547e-06 -5.112850613e-21 -0.002021591675)
(-1.553316503e-06 2.596745567e-21 -0.002021635762)
(-1.526852964e-06 1.841390106e-21 -0.002021679001)
(-1.49341885e-06 1.310899917e-21 -0.002021721132)
(-1.453654527e-06 2.136246531e-21 -0.002021761908)
(-1.408220947e-06 3.038968982e-21 -0.002021801092)
(-1.357777867e-06 3.928593102e-21 -0.002021838464)
(-1.303010165e-06 5.104889109e-21 -0.002021873823)
(-1.24460847e-06 7.268395998e-21 -0.002021906987)
(-1.18324384e-06 9.538691643e-21 -0.002021937798)
(-1.119584063e-06 1.192817652e-20 -0.002021966123)
(-1.054279724e-06 1.444740673e-20 -0.002021991853)
(-9.879686669e-07 2.153364541e-20 -0.002022014907)
(-9.21253656e-07 2.855719015e-20 -0.002022035231)
(-8.547157083e-07 3.986431667e-20 -0.002022052796)
(-7.889174279e-07 5.14421148e-20 -0.002022067599)
(-7.243678909e-07 5.918331199e-20 -0.002022079664)
(-6.615500102e-07 6.40057313e-20 -0.002022089033)
(-6.009215987e-07 6.558763557e-20 -0.002022095776)
(-5.428859203e-07 6.414196236e-20 -0.002022099977)
(-4.87802626e-07 5.988889535e-20 -0.00202210174)
(-4.360086924e-07 5.968022646e-20 -0.002022101185)
(-3.877977916e-07 5.680107256e-20 -0.002022098443)
(-3.433931293e-07 5.164584491e-20 -0.002022093662)
(-3.029439449e-07 4.716189986e-20 -0.002022086981)
(-2.666661601e-07 4.279057557e-20 -0.002022078498)
(-2.353820826e-07 4.104384687e-20 -0.002022068365)
(-2.101123564e-07 3.919285613e-20 -0.002022057426)
(-1.850610573e-07 3.860850662e-20 -0.002022047114)
(-1.387579743e-07 3.816487031e-20 -0.002022038563)
(-5.224054068e-08 3.789363233e-20 -0.002022032839)
(-7.042479497e-08 4.732368651e-20 -0.002024520416)
(-1.837449663e-07 7.399838135e-20 -0.002024523569)
(-2.885340867e-07 8.378765742e-20 -0.002024529305)
(-3.930359678e-07 9.030584903e-20 -0.002024537805)
(-4.929354577e-07 9.541888042e-20 -0.00202454886)
(-5.86526195e-07 9.856834561e-20 -0.002024562239)
(-6.731332061e-07 9.813656655e-20 -0.002024577731)
(-7.523104146e-07 9.031242191e-20 -0.002024595128)
(-8.237247645e-07 6.760628822e-20 -0.002024614225)
(-8.871178021e-07 1.843384e-20 -0.00202463481)
(-9.423705657e-07 -3.092023622e-20 -0.002024656678)
(-9.894624538e-07 -6.510023601e-20 -0.002024679617)
(-1.028438429e-06 -1.01046846e-19 -0.002024703414)
(-1.059449938e-06 -1.16475102e-19 -0.002024727857)
(-1.082727055e-06 -1.232136849e-19 -0.002024752737)
(-1.0985413e-06 -1.327599248e-19 -0.00202477784)
(-1.107223154e-06 -1.325340283e-19 -0.002024802954)
(-1.109165521e-06 -1.348693479e-19 -0.002024827873)
(-1.104798569e-06 -1.300849756e-19 -0.002024852392)
(-1.094587392e-06 -1.274521992e-19 -0.002024876312)
(-1.079039683e-06 -1.185807141e-19 -0.002024899442)
(-1.058672367e-06 -1.039216908e-19 -0.002024921603)
(-1.034000139e-06 -9.141399083e-20 -0.002024942625)
(-1.00557552e-06 -7.341719993e-20 -0.002024962354)
(-9.739618118e-07 -5.710094406e-20 -0.002024980647)
(-9.397058891e-07 -4.826266958e-20 -0.002024997379)
(-9.033526195e-07 -4.021795674e-20 -0.002025012439)
(-8.654501594e-07 -3.315197871e-20 -0.002025025738)
(-8.265275331e-07 -3.326163709e-20 -0.002025037202)
(-7.87100365e-07 -3.34528797e-20 -0.002025046776)
(-7.47669241e-07 -3.348893588e-20 -0.002025054426)
(-7.087026281e-07 -3.334456651e-20 -0.002025060133)
(-6.706594313e-07 -4.246881962e-20 -0.002025063898)
(-6.339657621e-07 -5.115758946e-20 -0.002025065735)
(-5.990152016e-07 -5.49726486e-20 -0.002025065675)
(-5.661890078e-07 -5.857508464e-20 -0.002025063765)
(-5.358295914e-07 -5.797457497e-20 -0.002025060063)
(-5.08243916e-07 -5.733803047e-20 -0.002025054638)
(-4.83718872e-07 -5.68672636e-20 -0.002025047571)
(-4.625030655e-07 -5.619014762e-20 -0.002025038952)
(-4.44781123e-07 -5.559318569e-20 -0.002025028882)
(-4.306639331e-07 -5.486704144e-20 -0.002025017452)
(-4.204828827e-07 -5.41121905e-20 -0.002025004696)
(-4.153994824e-07 -5.337025498e-20 -0.002024990706)
(-4.155457147e-07 -5.549550773e-20 -0.002024976493)
(-4.091693036e-07 -5.744741942e-20 -0.002024963657)
(-3.756344552e-07 -6.058148579e-20 -0.0020249536)
(-3.063821173e-07 -6.357473232e-20 -0.002024947508)
(-2.046718605e-07 -6.655494965e-20 -0.002024945824)
(-7.229043215e-08 -6.960869844e-20 -0.002024946534)
(-5.149985716e-08 -1.131753174e-20 -0.002027764183)
(-1.344898393e-07 1.810605221e-19 -0.002027766095)
(-2.11419175e-07 1.475822878e-19 -0.002027769439)
(-2.880350703e-07 1.282474455e-19 -0.002027774371)
(-3.610755955e-07 1.159262865e-19 -0.002027780765)
(-4.292780219e-07 1.079904302e-19 -0.00202778847)
(-4.921697995e-07 1.031168248e-19 -0.002027797347)
(-5.494317604e-07 1.018461509e-19 -0.002027807249)
(-6.008434245e-07 7.592595525e-20 -0.002027818035)
(-6.462582632e-07 9.643799524e-20 -0.002027829558)
(-6.856107913e-07 7.639018176e-20 -0.002027841669)
(-7.189590318e-07 4.225790103e-20 -0.00202785422)
(-7.464074295e-07 1.276575641e-20 -0.00202786706)
(-7.681127829e-07 -1.478774013e-20 -0.002027880041)
(-7.843029166e-07 -3.96804828e-20 -0.002027893015)
(-7.952592139e-07 -6.239729224e-20 -0.00202790584)
(-8.013074464e-07 -7.043692731e-20 -0.002027918376)
(-8.028039155e-07 -8.794487654e-20 -0.002027930488)
(-8.001279041e-07 -9.449873806e-20 -0.002027942048)
(-7.936819169e-07 -1.012522234e-19 -0.002027952936)
(-7.838925863e-07 -8.996676339e-20 -0.002027963039)
(-7.711970511e-07 -7.197433752e-20 -0.002027972259)
(-7.560415281e-07 -5.528315485e-20 -0.002027980505)
(-7.388851161e-07 -5.46735505e-20 -0.002027987698)
(-7.201736269e-07 -5.42954561e-20 -0.002027993771)
(-7.003616735e-07 -6.122511575e-20 -0.002027998669)
(-6.798877154e-07 -6.823961235e-20 -0.002028002352)
(-6.591805488e-07 -8.129556987e-20 -0.00202800479)
(-6.38656824e-07 -9.430440953e-20 -0.002028005968)
(-6.187133544e-07 -1.019454431e-19 -0.002028005879)
(-5.997381386e-07 -1.102902246e-19 -0.00202800453)
(-5.820865912e-07 -1.193376396e-19 -0.00202800194)
(-5.6610955e-07 -1.290269223e-19 -0.002027998134)
(-5.521253201e-07 -1.395893651e-19 -0.002027993149)
(-5.404219839e-07 -1.511587995e-19 -0.002027987027)
(-5.312791157e-07 -1.594431534e-19 -0.00202797982)
(-5.249365211e-07 -1.689310817e-19 -0.002027971584)
(-5.216059709e-07 -1.714318315e-19 -0.002027962383)
(-5.214344265e-07 -1.752156245e-19 -0.002027952289)
(-5.244914719e-07 -1.72722588e-19 -0.002027941358)
(-5.311537228e-07 -1.71610628e-19 -0.002027929574)
(-5.427932427e-07 -1.683461558e-19 -0.002027916981)
(-5.59136372e-07 -1.628035875e-19 -0.002027904756)
(-5.649777439e-07 -1.582364765e-19 -0.002027894722)
(-5.39402353e-07 -1.543959029e-19 -0.002027888532)
(-4.76369059e-07 -1.536214547e-19 -0.002027887517)
(-3.790770435e-07 -1.532741818e-19 -0.002027891604)
(-2.574522264e-07 -1.535667411e-19 -0.002027898684)
(-1.38347272e-07 -1.532445298e-19 -0.002027905881)
(-4.224012333e-08 -1.537911387e-19 -0.002027910893)
(-3.919446288e-08 1.419859582e-19 -0.00203086639)
(-1.022054394e-07 3.301409694e-19 -0.002030867346)
(-1.604188431e-07 3.164177269e-19 -0.002030868898)
(-2.184225318e-07 1.953462701e-19 -0.002030871162)
(-2.737708277e-07 1.12721946e-19 -0.002030874068)
(-3.255052251e-07 5.036379064e-20 -0.002030877522)
(-3.732908966e-07 1.206109993e-21 -0.002030881427)
(-4.169082975e-07 -3.557941608e-20 -0.00203088569)
(-4.5619044e-07 -5.462828451e-20 -0.002030890208)
(-4.910841964e-07 -4.619980118e-20 -0.002030894882)
(-5.215827521e-07 -3.671513877e-20 -0.002030899611)
(-5.477399042e-07 -2.824620739e-20 -0.002030904292)
(-5.696789737e-07 -2.14752013e-20 -0.002030908827)
(-5.875694149e-07 -1.571757556e-20 -0.002030913119)
(-6.016195919e-07 -1.150274219e-20 -0.002030917072)
(-6.120721698e-07 -8.729467888e-21 -0.002030920598)
(-6.192013499e-07 -1.90519687e-20 -0.002030923613)
(-6.233198674e-07 -2.988407414e-20 -0.00203092604)
(-6.247670768e-07 -4.127357007e-20 -0.002030927812)
(-6.238840025e-07 -4.13415347e-20 -0.002030928866)
(-6.210085779e-07 -4.347530935e-20 -0.002030929147)
(-6.165026808e-07 -3.738022887e-20 -0.002030928613)
(-6.107390122e-07 -3.262808612e-20 -0.002030927228)
(-6.040782505e-07 -3.613716567e-20 -0.002030924966)
(-5.968796942e-07 -4.052680513e-20 -0.002030921812)
(-5.894942904e-07 -4.47377819e-20 -0.00203091776)
(-5.822650523e-07 -4.958520871e-20 -0.002030912814)
(-5.755235253e-07 -5.451263119e-20 -0.002030906984)
(-5.695863003e-07 -5.279122029e-20 -0.002030900291)
(-5.647567816e-07 -5.184419888e-20 -0.002030892763)
(-5.61316646e-07 -5.098565226e-20 -0.002030884435)
(-5.59536401e-07 -5.036430424e-20 -0.002030875346)
(-5.59658929e-07 -4.49773712e-20 -0.002030865543)
(-5.619057653e-07 -3.97410915e-20 -0.002030855075)
(-5.664848535e-07 -3.901065137e-20 -0.002030843997)
(-5.735617442e-07 -3.805964094e-20 -0.002030832368)
(-5.83237997e-07 -4.103900151e-20 -0.002030820255)
(-5.955344224e-07 -4.375301862e-20 -0.002030807706)
(-6.108415957e-07 -4.605200829e-20 -0.002030794678)
(-6.306801082e-07 -4.830095839e-20 -0.002030781193)
(-6.545232106e-07 -5.021287656e-20 -0.002030768568)
(-6.650697817e-07 -5.197579076e-20 -0.002030758778)
(-6.408700147e-07 -5.355926319e-20 -0.002030753587)
(-5.77026321e-07 -5.166728211e-20 -0.002030754429)
(-4.777048344e-07 -4.95024424e-20 -0.002030760957)
(-3.58992685e-07 -4.680563949e-20 -0.002030770858)
(-2.471416372e-07 -4.406527963e-20 -0.00203078103)
(-1.549168022e-07 -4.128067805e-20 -0.002030789084)
(-8.128171859e-08 -4.002770813e-20 -0.002030794113)
(-2.46446052e-08 -3.868843842e-20 -0.002030796636)
(-3.163982193e-08 1.940908305e-19 -0.002033843396)
(-8.262217797e-08 2.231482477e-19 -0.002033843545)
(-1.29986782e-07 2.467603306e-19 -0.002033843541)
(-1.77337307e-07 1.440486484e-19 -0.002033843493)
(-2.226812004e-07 7.295653107e-20 -0.002033843377)
(-2.653161816e-07 1.650931401e-20 -0.002033843145)
(-3.050072331e-07 -3.218919948e-20 -0.002033842739)
(-3.416296277e-07 -7.668633057e-20 -0.002033842107)
(-3.750983503e-07 -9.375959479e-20 -0.002033841186)
(-4.05375463e-07 -1.123155583e-19 -0.002033839915)
(-4.324959782e-07 -9.299924526e-20 -0.002033838232)
(-4.565387886e-07 -6.082168147e-20 -0.002033836078)
(-4.776214291e-07 -3.36679414e-20 -0.002033833392)
(-4.959055524e-07 4.792642308e-21 -0.002033830121)
(-5.115897864e-07 3.97254309e-20 -0.002033826212)
(-5.248927832e-07 7.216488368e-20 -0.002033821619)
(-5.360453228e-07 7.725657289e-20 -0.002033816302)
(-5.45296889e-07 8.286789508e-20 -0.002033810223)
(-5.529239461e-07 7.907071019e-20 -0.002033803357)
(-5.592259687e-07 7.635536341e-20 -0.002033795684)
(-5.644827849e-07 5.665621693e-20 -0.002033787192)
(-5.689715714e-07 3.842566878e-20 -0.002033777875)
(-5.729913998e-07 2.146947066e-20 -0.002033767738)
(-5.768180907e-07 1.304070127e-20 -0.002033756791)
(-5.8073319e-07 5.032087343e-21 -0.002033745054)
(-5.850022869e-07 4.291743961e-21 -0.002033732554)
(-5.89880845e-07 3.577689088e-21 -0.002033719324)
(-5.956121368e-07 9.61390931e-21 -0.002033705404)
(-6.024249271e-07 1.570459841e-20 -0.002033690839)
(-6.105316403e-07 1.62077568e-20 -0.00203367568)
(-6.201253723e-07 1.719484224e-20 -0.002033659983)
(-6.313876216e-07 1.868336381e-20 -0.002033643806)
(-6.444726124e-07 2.068785976e-20 -0.002033627212)
(-6.595089361e-07 2.318619785e-20 -0.002033610268)
(-6.765451282e-07 2.612473657e-20 -0.002033593053)
(-6.955509548e-07 2.949207092e-20 -0.00203357562)
(-7.169332869e-07 3.328246288e-20 -0.002033557921)
(-7.42318236e-07 3.333172278e-20 -0.002033539964)
(-7.709802224e-07 3.398344487e-20 -0.002033523223)
(-7.838585355e-07 3.136247351e-20 -0.002033509825)
(-7.587737488e-07 2.946023372e-20 -0.002033501595)
(-6.915380447e-07 2.816834056e-20 -0.002033499966)
(-5.868660835e-07 2.36812654e-20 -0.00203350435)
(-4.644094213e-07 1.984024858e-20 -0.002033512252)
(-3.508055395e-07 1.672454106e-20 -0.002033520452)
(-2.557131111e-07 1.439795989e-20 -0.002033526587)
(-1.773528361e-07 1.111169876e-20 -0.002033530067)
(-1.131638185e-07 9.800668091e-21 -0.002033531386)
(-6.095138263e-08 8.988371484e-21 -0.002033531196)
(-1.861852473e-08 8.550539332e-21 -0.00203353055)
(-2.745598932e-08 -3.065170312e-20 -0.002036768464)
(-7.165125891e-08 -1.488993439e-19 -0.002036767922)
(-1.127396725e-07 -8.08469316e-20 -0.002036766589)
(-1.540261221e-07 -5.107022646e-20 -0.002036764584)
(-1.93888348e-07 -3.563045321e-20 -0.002036761923)
(-2.318013217e-07 -2.604778524e-20 -0.002036758593)
(-2.675985112e-07 -1.897571781e-20 -0.002036754582)
(-3.011984455e-07 -1.269474105e-20 -0.002036749867)
(-3.325871197e-07 -6.169314776e-21 -0.002036744429)
(-3.617724229e-07 1.170990285e-21 -0.002036738242)
(-3.887924411e-07 9.640738662e-21 -0.002036731282)
(-4.137371685e-07 1.897974955e-20 -0.002036723524)
(-4.367285718e-07 2.888407663e-20 -0.002036714945)
(-4.579135349e-07 3.920557956e-20 -0.002036705526)
(-4.774600931e-07 4.963631803e-20 -0.002036695252)
(-4.955548554e-07 6.008266834e-20 -0.002036684113)
(-5.124030606e-07 7.086053969e-20 -0.002036672103)
(-5.282224146e-07 8.138645491e-20 -0.00203665922)
(-5.432294102e-07 9.141213152e-20 -0.002036645468)
(-5.576434195e-07 8.975958222e-20 -0.002036630859)
(-5.716960389e-07 8.83791622e-20 -0.002036615411)
(-5.856096504e-07 7.863822534e-20 -0.002036599147)
(-5.995979859e-07 6.999318911e-20 -0.002036582096)
(-6.138756023e-07 6.220362294e-20 -0.002036564293)
(-6.28643997e-07 5.508693831e-20 -0.002036545778)
(-6.440952979e-07 4.848469785e-20 -0.002036526597)
(-6.604098865e-07 4.214573342e-20 -0.002036506799)
(-6.777495349e-07 3.563212284e-20 -0.00203648644)
(-6.962648764e-07 2.908524596e-20 -0.002036465575)
(-7.160862122e-07 2.230790216e-20 -0.002036444265)
(-7.373329689e-07 1.521344506e-20 -0.002036422573)
(-7.600951572e-07 7.777980092e-21 -0.002036400567)
(-7.843746751e-07 5.308197963e-21 -0.002036378328)
(-8.101010177e-07 7.325948742e-21 -0.002036355909)
(-8.376833622e-07 8.538334453e-21 -0.002036333247)
(-8.688711924e-07 9.047379856e-21 -0.002036310336)
(-9.027737131e-07 8.828748429e-21 -0.002036288822)
(-9.186325876e-07 7.910886307e-21 -0.002036271051)
(-8.93397745e-07 6.335815826e-21 -0.002036258982)
(-8.234625234e-07 4.05317536e-21 -0.002036254085)
(-7.139757761e-07 1.050039385e-21 -0.002036255475)
(-5.867236516e-07 -2.649738373e-21 -0.002036260356)
(-4.689849344e-07 -6.949049931e-21 -0.002036265267)
(-3.691114444e-07 -1.183976168e-20 -0.002036267736)
(-2.851570625e-07 -1.736843794e-20 -0.002036267321)
(-2.146520418e-07 -1.892760923e-20 -0.002036264541)
(-1.554262918e-07 -1.80211099e-20 -0.002036260048)
(-1.046329486e-07 -1.784073611e-20 -0.002036254917)
(-5.952936994e-08 -1.676737613e-20 -0.002036250344)
(-1.828992142e-08 -1.621454001e-20 -0.002036247391)
(-2.558987178e-08 -8.512326627e-20 -0.002039631884)
(-6.688423297e-08 -3.009031875e-19 -0.002039630799)
(-1.055258924e-07 -3.296821277e-19 -0.002039628401)
(-1.446014633e-07 -2.476136876e-19 -0.002039624826)
(-1.826861124e-07 -2.088325358e-19 -0.002039620121)
(-2.193381475e-07 -1.470920709e-19 -0.002039614319)
(-2.544757866e-07 -1.044809907e-19 -0.002039607443)
(-2.880798047e-07 -7.367731494e-20 -0.002039599513)
(-3.201393409e-07 -5.05973843e-20 -0.002039590539)
(-3.506983779e-07 -3.274158926e-20 -0.002039580537)
(-3.798367295e-07 -1.844573671e-20 -0.002039569517)
(-4.076476731e-07 -6.853757681e-21 -0.002039557491)
(-4.342346165e-07 2.624295093e-21 -0.002039544472)
(-4.59721064e-07 1.00712973e-20 -0.002039530475)
(-4.84249608e-07 1.562857985e-20 -0.002039515516)
(-5.079844454e-07 1.978832601e-20 -0.002039499614)
(-5.310996475e-07 3.554344431e-20 -0.002039482792)
(-5.537662606e-07 4.969033754e-20 -0.002039465076)
(-5.761506713e-07 6.263929871e-20 -0.002039446497)
(-5.984224174e-07 7.469438282e-20 -0.002039427091)
(-6.207581491e-07 8.6162926e-20 -0.002039406892)
(-6.43320305e-07 8.78758089e-20 -0.002039385942)
(-6.662688752e-07 9.005642845e-20 -0.002039364285)
(-6.897642903e-07 9.27671317e-20 -0.002039341967)
(-7.139376796e-07 9.596941441e-20 -0.002039319038)