/*--------------------------------*- C++ -*----------------------------------*\
  =========                 |
  \\      /  F ield         | OpenFOAM: The Open Source CFD Toolbox
   \\    /   O peration     | Website:  https://openfoam.org
    \\  /    A nd           | Version:  7
     \\/     M anipulation  |
\*---------------------------------------------------------------------------*/
FoamFile
{
    version     2.0;
    format      ascii;
    class       surfaceScalarField;
    location    "0.0021";
    object      phi;
}
// * * * * * * * * * * * * * * * * * * * * * * * * * * * * * * * * * * * * * //

dimensions      [1 0 -1 0 0 0 0];

internalField   nonuniform List<scalar> 
2260
(
-7.427869043e-15
5.766837177e-11
-2.910698877e-14
1.687345692e-10
-6.407641542e-14
2.735734628e-10
-1.115388169e-13
3.724216767e-10
-1.712233276e-13
4.655097779e-10
-2.435684694e-13
5.530611206e-10
-3.302425384e-13
6.352912636e-10
-4.340722774e-13
7.124069774e-10
-5.590306757e-13
7.846061637e-10
-7.101774037e-13
8.520775547e-10
-8.934139977e-13
9.150005389e-10
-1.115297392e-12
9.735450124e-10
-1.382880059e-12
1.027871102e-09
-1.703535319e-12
1.078128872e-09
-2.084714159e-12
1.124457697e-09
-2.533812512e-12
1.16698598e-09
-3.057909453e-12
1.205830368e-09
-3.66332534e-12
1.241095077e-09
-4.355190346e-12
1.272870599e-09
-5.137318077e-12
1.301233416e-09
-6.011226362e-12
1.326244359e-09
-6.976023768e-12
1.347947091e-09
-8.027523677e-12
1.366367159e-09
-9.157815603e-12
1.381509584e-09
-1.035453906e-11
1.393357793e-09
-1.160058174e-11
1.401870405e-09
-1.287342294e-11
1.406980629e-09
-1.414537002e-11
1.408593079e-09
-1.53832792e-11
1.406582559e-09
-1.654962362e-11
1.400792838e-09
-1.760299638e-11
1.391035462e-09
-1.850011009e-11
1.377090411e-09
-1.919729614e-11
1.358706885e-09
1.33560619e-09
-8.545819298e-15
5.767691759e-11
-3.348587828e-14
1.687595092e-10
-7.370820398e-14
2.736136852e-10
-1.282084069e-13
3.724761769e-10
-1.963029569e-13
4.655778725e-10
-2.77906522e-13
5.531427242e-10
-3.738610674e-13
6.353872181e-10
-4.861529864e-13
7.125192693e-10
-6.178936508e-13
7.847379043e-10
-7.732512047e-13
8.522329123e-10
-9.573139506e-13
9.151846017e-10
-1.175858026e-12
9.737635565e-10
-1.435160486e-12
1.028130405e-09
-1.741771499e-12
1.078435483e-09
-2.102405461e-12
1.124818331e-09
-2.523685836e-12
1.16740726e-09
-3.011967177e-12
1.206318649e-09
-3.57270752e-12
1.241655817e-09
-4.210462212e-12
1.273508354e-09
-4.928402092e-12
1.301951356e-09
-5.727537653e-12
1.327043494e-09
-6.606703962e-12
1.348826258e-09
-7.561462956e-12
1.367321918e-09
-8.584118824e-12
1.38253224e-09
-9.662644154e-12
1.394436318e-09
-1.078089061e-11
1.402988651e-09
-1.191768874e-11
1.408117428e-09
-1.304741469e-11
1.409722805e-09
-1.413970238e-11
1.407674847e-09
-1.51605925e-11
1.401813728e-09
-1.607305844e-11
1.391947928e-09
-1.683890272e-11
1.377856255e-09
-1.742012299e-11
1.359288105e-09
-1.778143289e-11
1.3359675e-09
-1.789210345e-11
1.307595624e-09
-1.772860854e-11
1.273856298e-09
-1.727638957e-11
1.234421956e-09
-1.653187625e-11
1.188959487e-09
-1.550383403e-11
1.137137897e-09
-1.421400442e-11
1.078634906e-09
-1.269746752e-11
1.013143667e-09
-1.100225917e-11
9.403796851e-10
-9.188534323e-12
8.600867887e-10
-7.327109105e-12
7.720417383e-10
-5.497786049e-12
6.760586883e-10
-3.787372314e-12
5.719920082e-10
-2.2875844e-12
4.597383046e-10
-1.092929399e-12
3.39236742e-10
-2.987623275e-13
2.104666505e-10
7.343724644e-11
-9.491262975e-15
5.768640886e-11
-3.719803551e-14
1.68787216e-10
-8.189962993e-14
2.736583868e-10
-1.42461107e-13
3.725367384e-10
-2.178963902e-13
4.656533077e-10
-3.077688378e-13
5.532325967e-10
-4.122491799e-13
6.354916985e-10
-5.326076329e-13
7.126396277e-10
-6.71129745e-13
7.848764265e-10
-8.311762443e-13
8.523929588e-10
-1.017034206e-12
9.153704596e-10
-1.23371962e-12
9.739802419e-10
-1.486785644e-12
1.028383471e-09
-1.782092128e-12
1.07873079e-09
-2.125646113e-12
1.125161885e-09
-2.523429585e-12
1.167805043e-09
-2.980972066e-12
1.206776192e-09
-3.503111835e-12
1.242177957e-09
-4.09385866e-12
1.274099101e-09
-4.755684245e-12
1.302613182e-09
-5.489264678e-12
1.327777075e-09
-6.293038802e-12
1.349630032e-09
-7.162511038e-12
1.36819139e-09
-8.090079496e-12
1.383459808e-09
-9.06422291e-12
1.395410462e-09
-1.006961674e-11
1.403994045e-09
-1.10865402e-11
1.409134351e-09
-1.209124733e-11
1.410727513e-09
-1.305609412e-11
1.408639694e-09
-1.395031223e-11
1.402707946e-09
-1.474095613e-11
1.392738572e-09
-1.539425376e-11
1.378509553e-09
-1.587722643e-11
1.359771078e-09
-1.615958525e-11
1.336249858e-09
-1.621552185e-11
1.30765156e-09
-1.602585161e-11
1.273666628e-09
-1.557944297e-11
1.233975547e-09
-1.487489395e-11
1.188254938e-09
-1.392153787e-11
1.136184541e-09
-1.273993255e-11
1.0774533e-09
-1.136208454e-11
1.011765819e-09
-9.831098292e-12
9.388486988e-10
-8.200369673e-12
8.5845606e-10
-6.532405038e-12
7.703737737e-10
-4.897395396e-12
6.744236786e-10
-3.371571945e-12
5.704661847e-10
-2.035469131e-12
4.584022018e-10
-9.721711386e-13
3.381734441e-10
-2.657052129e-13
2.097601846e-10
7.317154122e-11
-1.027695132e-14
5.769668581e-11
-4.02865868e-14
1.688172256e-10
-8.874527903e-14
2.737068455e-10
-1.543950965e-13
3.726023882e-10
-2.360865739e-13
4.657349992e-10
-3.331010139e-13
5.533296111e-10
-4.451899779e-13
6.356037874e-10
-5.729437614e-13
7.127673815e-10
-7.179624826e-13
7.850214452e-10
-8.828364158e-13
8.525578327e-10
-1.071092513e-12
9.155587157e-10
-1.287026967e-12
9.741961764e-10
-1.535511988e-12
1.028631956e-09
-1.821749604e-12
1.079017027e-09
-2.151144259e-12
1.12549128e-09
-2.528994615e-12
1.168182894e-09
-2.96013391e-12
1.207207331e-09
-3.44886476e-12
1.242666688e-09
-3.998631112e-12
1.274648867e-09
-4.611321809e-12
1.303225872e-09
-5.28732617e-12
1.328453079e-09
-6.024660238e-12
1.350367366e-09
-6.818894063e-12
1.368985624e-09
-7.662444324e-12
1.384303358e-09
-8.544410078e-12
1.396292427e-09
-9.450184205e-12
1.404899819e-09
-1.036152767e-11
1.410045694e-09
-1.125642433e-11
1.411622409e-09
-1.210980482e-11
1.409493074e-09
-1.289380721e-11
1.403491948e-09
-1.357916626e-11
1.393423931e-09
-1.413601054e-11
1.379066397e-09
-1.453573981e-11
1.360170807e-09
-1.475227411e-11
1.336466393e-09
-1.476393208e-11
1.307663218e-09
-1.455502447e-11
1.27345772e-09
-1.411711353e-11
1.233537636e-09
-1.345039895e-11
1.187588223e-09
-1.256439002e-11
1.135298532e-09
-1.147839708e-11
1.076367307e-09
-1.022160625e-11
1.010509028e-09
-8.832789517e-12
9.374598821e-10
-7.35951887e-12
8.569827894e-10
-5.85723437e-12
7.688714892e-10
-4.388019116e-12
6.729544634e-10
-3.019230334e-12
5.69097396e-10
-1.822051523e-12
4.57205023e-10
-8.700339027e-13
3.372214264e-10
-2.37763959e-13
2.091279146e-10
7.293377726e-11
-1.091510708e-14
5.770760091e-11
-4.280322183e-14
1.688491137e-10
-9.433288937e-14
2.737583751e-10
-1.641543617e-13
3.726722097e-10
-2.51056331e-13
4.658219012e-10
-3.540727021e-13
5.534326275e-10
-4.727002186e-13
6.35722415e-10
-6.070022461e-13
7.129016835e-10
-7.579659558e-13
7.851724089e-10
-9.27513744e-13
8.527273805e-10
-1.118459553e-12
9.157496615e-10
-1.334408009e-12
9.744121248e-10
-1.579574879e-12
1.028877123e-09
-1.858569399e-12
1.079296022e-09
-2.176191022e-12
1.125808902e-09
-2.53705287e-12
1.168543756e-09
-2.94547076e-12
1.207615749e-09
-3.40525828e-12
1.243126475e-09
-3.919201901e-12
1.275162811e-09
-4.488805594e-12
1.303795476e-09
-5.11411784e-12
1.329078391e-09
-5.792855552e-12
1.351046104e-09
-6.520626357e-12
1.369713394e-09
-7.289929606e-12
1.385072662e-09
-8.090449675e-12
1.397092948e-09
-8.908331514e-12
1.405717701e-09
-9.726694671e-12
1.410864058e-09
-1.052522653e-11
1.412420941e-09
-1.128114805e-11
1.410248996e-09
-1.196933761e-11
1.404180138e-09
-1.256372092e-11
1.394018314e-09
-1.303794075e-11
1.379540617e-09
-1.336710135e-11
1.360499967e-09
-1.352874407e-11
1.336628035e-09
-1.350463056e-11
1.307639105e-09
-1.328185869e-11
1.273234948e-09
-1.285412422e-11
1.233109902e-09
-1.222277676e-11
1.186956875e-09
-1.139727913e-11
1.134473035e-09
-1.039568769e-11
1.075365716e-09
-9.244633231e-12
1.009357973e-09
-7.979069819e-12
9.361943187e-10
-6.641572795e-12
8.556452924e-10
-5.28155687e-12
7.675114732e-10
-3.954242894e-12
6.716271494e-10
-2.719509975e-12
5.67862663e-10
-1.640683579e-12
4.561261966e-10
-7.833147201e-13
3.363640576e-10
-2.140662519e-13
2.085586661e-10
7.2719711e-11
-1.142179783e-14
5.771902271e-11
-4.480081765e-14
1.688824928e-10
-9.875808904e-14
2.738123324e-10
-1.719107496e-13
3.727453624e-10
-2.630190254e-13
4.659130095e-10
-3.709333651e-13
5.535405418e-10
-4.949587751e-13
6.358464404e-10
-6.348412129e-13
7.13041566e-10
-7.910302588e-13
7.853285979e-10
-9.648473371e-13
8.529011976e-10
-1.15848015e-12
9.159432944e-10
-1.374885346e-12
9.7462853e-10
-1.617670033e-12
1.029119907e-09
-1.890842755e-12
1.079569195e-09
-2.198567858e-12
1.126116627e-09
-2.544930459e-12
1.168890118e-09
-2.933749533e-12
1.208004568e-09
-3.368338598e-12
1.243561064e-09
-3.850920092e-12
1.275645392e-09
-4.382719398e-12
1.304327275e-09
-4.963317982e-12
1.32965899e-09
-5.590342536e-12
1.351673128e-09
-6.259321675e-12
1.370382374e-09
-6.962999199e-12
1.385776339e-09
-7.691525569e-12
1.397821474e-09
-8.43189311e-12
1.406458069e-09
-9.168411608e-12
1.411600576e-09
-9.882436665e-12
1.413134966e-09
-1.055322706e-11
1.410919786e-09
-1.115817269e-11
1.404785083e-09
-1.167400824e-11
1.394534149e-09
-1.207746398e-11
1.379944073e-09
-1.234681426e-11
1.360769318e-09
-1.246269502e-11
1.336743916e-09
-1.240971378e-11
1.307586123e-09
-1.217724767e-11
1.273002482e-09
-1.176066252e-11
1.232693317e-09
-1.116210817e-11
1.186358321e-09
-1.039087433e-11
1.133701801e-09
-9.46379293e-12
1.074438635e-09
-8.405197362e-12
1.008299378e-09
-7.246696619e-12
9.350358179e-10
-6.026556735e-12
8.544251525e-10
-4.78904377e-12
7.662739603e-10
-3.583550356e-12
6.70421656e-10
-2.463629306e-12
5.66742742e-10
-1.485974807e-12
4.551485421e-10
-7.093956051e-13
3.355874784e-10
-1.938799573e-13
2.080431505e-10
7.252583104e-11
-1.180713608e-14
5.773082985e-11
-4.631623244e-14
1.689170019e-10
-1.021234089e-13
2.738681396e-10
-1.77844053e-13
3.72821083e-10
-2.721961209e-13
4.660073615e-10
-3.839684723e-13
5.536523142e-10
-5.122926611e-13
6.359747646e-10
-6.566934991e-13
7.131859668e-10
-8.172500332e-13
7.854891545e-10
-9.947679816e-13
8.530787155e-10
-1.19086196e-12
9.161393883e-10
-1.407904563e-12
9.748455726e-10
-1.648895778e-12
1.029360899e-09
-1.917251056e-12
1.07983755e-09
-2.216587723e-12
1.126415963e-09
-2.550495824e-12
1.169224026e-09
-2.922362845e-12
1.208376435e-09
-3.334898957e-12
1.2439736e-09
-3.789962055e-12
1.276100456e-09
-4.288473141e-12
1.304825786e-09
-4.829588998e-12
1.330200106e-09
-5.410931639e-12
1.352254471e-09
-6.027882485e-12
1.370999324e-09
-6.673555619e-12
1.386422012e-09
-7.338454291e-12
1.398486373e-09
-8.010497464e-12
1.407130112e-09
-8.675002246e-12
1.412265081e-09
-9.314972791e-12
1.413774937e-09
-9.911428009e-12
1.411516241e-09
-1.044410755e-11
1.405317763e-09
-1.089213879e-11
1.394982181e-09
-1.123502012e-11
1.380286954e-09
-1.145369679e-11
1.360987994e-09
-1.153145115e-11
1.336821671e-09
-1.145523243e-11
1.307509905e-09
-1.121631468e-11
1.272763564e-09
-1.081135994e-11
1.232288362e-09
-1.02430725e-11
1.185790034e-09
-9.520467547e-12
1.132979196e-09
-8.659216257e-12
1.073577383e-09
-7.681618197e-12
1.00732178e-09
-6.616331061e-12
9.339705308e-10
-5.497903367e-12
8.533067248e-10
-4.366189784e-12
7.651422467e-10
-3.265617219e-12
6.693210834e-10
-2.244366299e-12
5.657214911e-10
-1.353511064e-12
4.542576869e-10
-6.461511614e-13
3.348801185e-10
-1.766226557e-13
2.07573622e-10
7.234920838e-11
-1.207931818e-14
5.774290917e-11
-4.73915063e-14
1.68952314e-10
-1.045258715e-13
2.739252739e-10
-1.8212246e-13
3.728986796e-10
-2.788421295e-13
4.661040812e-10
-3.93501796e-13
5.537669738e-10
-5.25073522e-13
6.361063363e-10
-6.72940616e-13
7.133338339e-10
-8.369139454e-13
7.856531278e-10
-1.017410486e-12
8.53259212e-10
-1.215536856e-12
9.163375147e-10
-1.433129141e-12
9.750631649e-10
-1.672604736e-12
1.029600374e-09
-1.936851946e-12
1.080101797e-09
-2.228982639e-12
1.126708094e-09
-2.552132446e-12
1.169547176e-09
-2.909192631e-12
1.208733495e-09
-3.302379265e-12
1.244366787e-09
-3.733259842e-12
1.276531336e-09
-4.202326932e-12
1.305294853e-09
-4.708534505e-12
1.330706313e-09
-5.24942452e-12
1.352795361e-09
-5.82031388e-12
1.371570214e-09
-6.414662376e-12
1.387016361e-09
-7.023338078e-12
1.399095048e-09
-7.635129775e-12
1.407741904e-09
-8.236310115e-12
1.412866261e-09
-8.811382386e-12
1.414350009e-09
-9.342978776e-12
1.412047838e-09
-9.812925121e-12
1.405787709e-09
-1.020246279e-11
1.395371718e-09
-1.049352062e-11
1.380578012e-09
-1.06692973e-11
1.361163771e-09
-1.071534025e-11
1.336867714e-09
-1.062053767e-11
1.307415102e-09
-1.03777126e-11
1.272520739e-09
-9.984583256e-12
1.231895233e-09
-9.444173631e-12
1.185249624e-09
-8.765184343e-12
1.132300207e-09
-7.962203146e-12
1.072774402e-09
-7.055722966e-12
1.006415299e-09
-6.071813137e-12
9.32986621e-10
-5.041807048e-12
8.522767187e-10
-4.001769007e-12
7.641022086e-10
-2.991879368e-12
6.683111938e-10
-2.055738104e-12
5.647853498e-10
-1.239635401e-12
4.534415842e-10
-5.918149834e-13
3.342322981e-10
-1.61805178e-13
2.071436122e-10
7.21874032e-11
-1.225159337e-14
5.775516076e-11
-4.807511588e-14
1.689881376e-10
-1.060726296e-13
2.739832714e-10
-1.848997958e-13
3.729775068e-10
-2.832010944e-13
4.662023825e-10
-3.998249404e-13
5.538835977e-10
-5.336749374e-13
6.362401863e-10
-6.840022399e-13
7.134841612e-10
-8.504348782e-13
7.858195604e-10
-1.03308021e-12
8.534418574e-10
-1.232645159e-12
9.165370797e-10
-1.450484798e-12
9.752810046e-10
-1.688517275e-12
1.029838407e-09
-1.949125256e-12
1.080362405e-09
-2.234938381e-12
1.126993907e-09
-2.548673503e-12
1.169860911e-09
-2.892659536e-12
1.209077481e-09
-3.268774327e-12
1.244742902e-09
-3.678297303e-12
1.276940859e-09
-4.121276871e-12
1.305737833e-09
-4.596577797e-12
1.331181614e-09
-5.101558405e-12
1.353300341e-09
-5.631637212e-12
1.372100293e-09
-6.180501579e-12
1.387565225e-09
-6.739490981e-12
1.399654038e-09
-7.298110459e-12
1.408300523e-09
-7.843626581e-12
1.413411777e-09
-8.361816727e-12
1.414868199e-09
-8.8368556e-12
1.412522877e-09
-9.25234079e-12
1.406203194e-09
-9.591453346e-12
1.395710831e-09
-9.838170053e-12
1.380824728e-09
-9.97766333e-12
1.361303264e-09
-9.997425023e-12
1.336887475e-09
-9.887893452e-12
1.307305571e-09
-9.643185197e-12
1.272276031e-09
-9.261853438e-12
1.231513901e-09
-8.74711141e-12
1.184734882e-09
-8.107315753e-12
1.131660411e-09
-7.356055489e-12
1.072023142e-09
-6.512195955e-12
1.00557144e-09
-5.599561674e-12
9.320739867e-10
-4.646693828e-12
8.513238509e-10
-3.686390389e-12
7.631419052e-10
-2.755185697e-12
6.673799891e-10
-1.892757164e-12
5.639229213e-10
-1.141304438e-12
4.526901315e-10
-5.44920959e-13
3.336359146e-10
-1.490238832e-13
2.067477151e-10
7.203837931e-11
-1.233415017e-14
5.776749491e-11
-4.840787601e-14
1.690242113e-10
-1.068540689e-13
2.740417176e-10
-1.863188938e-13
3.730569716e-10
-2.855002784e-13
4.663015639e-10
-4.032349417e-13
5.540013323e-10
-5.384599584e-13
6.363754113e-10
-6.902908846e-13
7.136359921e-10
-8.582432327e-13
7.859875128e-10
-1.042195704e-12
8.536258099e-10
-1.242530558e-12
9.167374145e-10
-1.460201253e-12
9.754986753e-10
-1.696678512e-12
1.030074884e-09
-1.953878866e-12
1.080619606e-09
-2.234031965e-12
1.12727406e-09
-2.539316343e-12
1.170166196e-09
-2.871657355e-12
1.209409822e-09
-3.232620219e-12
1.245103865e-09
-3.623112168e-12
1.277331351e-09
-4.042888187e-12
1.306157609e-09
-4.490728052e-12
1.331629454e-09
-4.963782473e-12
1.353773396e-09
-5.457680286e-12
1.37259419e-09
-5.966204759e-12
1.388073749e-09
-6.481276348e-12
1.400169109e-09
-6.99296847e-12
1.408812215e-09
-7.489558136e-12
1.413908367e-09
-7.957905523e-12
1.415336546e-09
-8.383631957e-12
1.412948603e-09
-8.751868741e-12
1.406571431e-09
-9.047522447e-12
1.396006485e-09
-9.256326141e-12
1.381033532e-09
-9.365176951e-12
1.361412115e-09
-9.363205804e-12
1.336885504e-09
-9.242144196e-12
1.307184509e-09
-8.997171353e-12
1.272031058e-09
-8.627462915e-12
1.231144193e-09
-8.136377226e-12
1.184243796e-09
-7.531895789e-12
1.131055929e-09
-6.826693418e-12
1.07131794e-09
-6.038180827e-12
1.004782927e-09
-5.188216719e-12
9.312240226e-10
-4.302913799e-12
8.504385479e-10
-3.412245753e-12
7.622512372e-10
-2.549605038e-12
6.665173484e-10
-1.751296067e-12
5.631246123e-10
-1.056004828e-12
4.519948402e-10
-5.042602904e-13
3.3308417e-10
-1.379462181e-13
2.06381401e-10
7.190043309e-11
-1.233736052e-14
5.777983227e-11
-4.843392198e-14
1.690603079e-10
-1.069386333e-13
2.741002224e-10
-1.865183233e-13
3.731365513e-10
-2.859488363e-13
4.664009944e-10
-4.040337057e-13
5.541194172e-10
-5.397661229e-13
6.365111437e-10
-6.922356384e-13
7.137884616e-10
-8.608068263e-13
7.86156084e-10
-1.045222857e-12
8.538102259e-10
-1.245614685e-12
9.169378063e-10
-1.462602015e-12
9.757156626e-10
-1.697268841e-12
1.030309551e-09
-1.95115657e-12
1.080873493e-09
-2.226014938e-12
1.127548919e-09
-2.523561229e-12
1.170463742e-09
-2.845390872e-12
1.209731652e-09
-3.192783299e-12
1.245451257e-09
-3.566208297e-12
1.277704776e-09
-3.965256711e-12
1.306556657e-09
-4.388559862e-12
1.332052757e-09
-4.833168634e-12
1.354218005e-09
-5.294884172e-12
1.373055906e-09
-5.767596818e-12
1.388546462e-09
-6.243795664e-12
1.400645308e-09
-6.714056062e-12
1.409282476e-09
-7.16762452e-12
1.414361936e-09
-7.592294527e-12
1.415761216e-09
-7.975049416e-12
1.413331358e-09
-8.302304591e-12
1.406898686e-09
-8.560550371e-12
1.39626473e-09
-8.736989214e-12
1.381209971e-09
-8.820028381e-12
1.361495154e-09
-8.800152709e-12
1.336865628e-09
-8.670233033e-12
1.307054589e-09
-8.426297152e-12
1.271787122e-09
-8.068003903e-12
1.230785899e-09
-7.59878237e-12
1.183774575e-09
-7.02623793e-12
1.130483385e-09
-6.362232672e-12
1.070653934e-09
-5.622853452e-12
1.004043548e-09
-4.828237949e-12
9.304294071e-10
-4.002380763e-12
8.496126908e-10
-3.172805669e-12
7.614216621e-10
-2.370187309e-12
6.6571473e-10
-1.627916859e-12
5.623823419e-10
-9.816475099e-13
4.513485709e-10
-4.688310153e-13
3.325713536e-10
-1.282978096e-13
2.060408678e-10
7.177213527e-11
-1.227084698e-14
5.779210312e-11
-4.818018787e-14
1.690962172e-10
-1.063930317e-13
2.741584352e-10
-1.856266359e-13
3.732157849e-10
-2.847187508e-13
4.665000865e-10
-4.024753235e-13
5.542371738e-10
-5.379280268e-13
6.366465964e-10
-6.901988173e-13
7.139407324e-10
-8.585682285e-13
7.863244534e-10
-1.042638546e-12
8.539942962e-10
-1.242363362e-12
9.171375311e-10
-1.458104303e-12
9.759314035e-10
-1.690631692e-12
1.030542078e-09
-1.941094314e-12
1.081123956e-09
-2.210792695e-12
1.127818617e-09
-2.501119662e-12
1.170754069e-09
-2.813346678e-12
1.210043879e-09
-3.148388988e-12
1.245786299e-09
-3.506400589e-12
1.278062788e-09
-3.886866552e-12
1.306937123e-09
-4.288144232e-12
1.332454035e-09
-4.707334571e-12
1.354637195e-09
-5.140301235e-12
1.373488873e-09
-5.581181368e-12
1.388987342e-09
-6.022884674e-12
1.401087011e-09
-6.456549008e-12
1.40971614e-09
-6.872230972e-12
1.414777617e-09
-7.258631673e-12
1.416147617e-09
-7.60390869e-12
1.413676635e-09
-7.895637692e-12
1.407190415e-09
-8.121713198e-12
1.396490806e-09
-8.270570607e-12
1.381358828e-09
-8.331937485e-12
1.361556521e-09
-8.297443669e-12
1.336831135e-09
-8.160915164e-12
1.306918061e-09
-7.919106735e-12
1.271545314e-09
-7.572007659e-12
1.2304388e-09
-7.123080287e-12
1.183325647e-09
-6.579561487e-12
1.129939866e-09
-5.952579595e-12
1.070026952e-09
-5.257033056e-12
1.003348002e-09
-4.511545141e-12
9.296839192e-10
-3.738256612e-12
8.488394022e-10
-2.962556636e-12
7.606459621e-10
-2.212757768e-12
6.649649312e-10
-1.519722531e-12
5.616893066e-10
-9.164726384e-13
4.50745321e-10
-4.377885547e-13
3.320926695e-10
-1.198468429e-13
2.057229261e-10
7.165228842e-11
-1.213913078e-14
5.780424225e-11
-4.766473873e-14
1.691317428e-10
-1.052785406e-13
2.74216049e-10
-1.837653076e-13
3.732942716e-10
-2.819744797e-13
4.665982957e-10
-3.988122138e-13
5.543540115e-10
-5.332856507e-13
6.367810699e-10
-6.845630705e-13
7.140920099e-10
-8.519357931e-13
7.864918261e-10
-1.034893155e-12
8.541772536e-10
-1.233249961e-12
9.17335888e-10
-1.447149153e-12
9.761453027e-10
-1.677091513e-12
1.030772021e-09
-1.923854233e-12
1.081370719e-09
-2.188434918e-12
1.128083198e-09
-2.471878953e-12
1.171037513e-09
-2.775186384e-12
1.210347186e-09
-3.098842392e-12
1.246109955e-09
-3.442814513e-12
1.27840676e-09
-3.806452563e-12
1.307300761e-09
-4.187866703e-12
1.332835449e-09
-4.584276896e-12
1.355033605e-09
-4.991511202e-12
1.373896107e-09
-5.404046652e-12
1.389399878e-09
-5.815092521e-12
1.401498057e-09
-6.216387347e-12
1.410117435e-09
-6.598672123e-12
1.415159902e-09
-6.951521076e-12
1.416500466e-09
-7.264083651e-12
1.413989198e-09
-7.525027885e-12
1.40745136e-09
-7.723422021e-12
1.3966892e-09
-7.848814032e-12
1.38148422e-09
-7.892090258e-12
1.361599797e-09
-7.845785247e-12
1.33678483e-09
-7.704557894e-12
1.306776833e-09
-7.465772819e-12
1.271306529e-09
-7.129652581e-12
1.23010268e-09
-6.699659773e-12
1.182895655e-09
-6.182676608e-12
1.129422883e-09
-5.589142597e-12
1.069433418e-09
-4.932919161e-12
1.002691778e-09
-4.231284256e-12
9.289822843e-10
-3.504749821e-12
8.481128678e-10
-2.776835356e-12
7.599180476e-10
-2.073789433e-12
6.642618852e-10
-1.424267706e-12
5.610397849e-10
-8.5899559e-13
4.501800489e-10
-4.104206537e-13
3.316440945e-10
-1.123978633e-13
2.054249033e-10
7.153989056e-11
-1.194793783e-14
5.781619018e-11
-4.692042303e-14
1.691667153e-10
-1.036617083e-13
2.742727903e-10
-1.810298419e-13
3.733716398e-10
-2.778839247e-13
4.666951498e-10
-3.932481218e-13
5.544693757e-10
-5.261140734e-13
6.369139358e-10
-6.75709463e-13
7.142416052e-10
-8.413258484e-13
7.866574425e-10
-1.02242496e-12
8.543583527e-10
-1.218708983e-12
9.17532172e-10
-1.430136155e-12
9.763567299e-10
-1.6569725e-12
1.030998857e-09
-1.899738363e-12
1.081613484e-09
-2.159125069e-12
1.128342584e-09
-2.43591866e-12
1.171314307e-09
-2.730736632e-12
1.210642004e-09
-3.04378353e-12
1.246423002e-09
-3.374878824e-12
1.278737855e-09
-3.723099937e-12
1.307648983e-09
-4.086502096e-12
1.333198851e-09
-4.462353417e-12
1.355409456e-09
-4.846473444e-12
1.374280227e-09
-5.233687025e-12
1.389787091e-09
-5.617425537e-12
1.401881796e-09
-5.990067986e-12
1.410490077e-09
-6.342876264e-12
1.415512711e-09
-6.666301635e-12
1.416823892e-09
-6.950312716e-12
1.414273209e-09
-7.1845813e-12
1.407685628e-09
-7.359180269e-12
1.396863799e-09
-7.464659394e-12
1.3815897e-09
-7.492896506e-12
1.361628035e-09
-7.437186179e-12
1.336729119e-09
-7.29289604e-12
1.306632543e-09
-7.057867267e-12
1.2710715e-09
-6.732531228e-12
1.229777344e-09
-6.320305422e-12
1.182483429e-09
-5.827734313e-12
1.128930312e-09
-5.26462198e-12
1.068870306e-09
-4.643905111e-12
1.002071061e-09
-3.981666102e-12
9.283200452e-10
-3.296979158e-12
8.474281808e-10
-2.611718522e-12
7.59232787e-10
-1.950319837e-12
6.636004865e-10
-1.339501708e-12
5.604289668e-10
-8.079734944e-13
4.496485206e-10
-3.861322071e-13
3.312222532e-10
-1.057879997e-13
2.051445591e-10
7.143410255e-11
-1.17046879e-14
5.782789487e-11
-4.597194846e-14
1.692009825e-10
-1.016086681e-13
2.74328427e-10
-1.775042466e-13
3.734475354e-10
-2.725869094e-13
4.667902324e-10
-3.859467e-13
5.545827355e-10
-5.166669412e-13
6.37044656e-10
-6.639454823e-13
7.143888838e-10
-8.271314142e-13
7.868206284e-10
-1.005667384e-12
8.545368886e-10
-1.199184791e-12
9.177256894e-10
-1.407514622e-12
9.765650597e-10
-1.63074026e-12
1.031222083e-09
-1.869151242e-12
1.081851895e-09
-2.123200638e-12
1.128596634e-09
-2.393403076e-12
1.171584509e-09
-2.680008631e-12
1.21092861e-09
-2.983037354e-12
1.246726031e-09
-3.302162192e-12
1.27905698e-09
-3.636172625e-12
1.307982993e-09
-3.983149319e-12
1.333545828e-09
-4.340296457e-12
1.355766604e-09
-4.703566006e-12
1.374643496e-09
-5.068023706e-12
1.390151549e-09
-5.427379998e-12
1.402241152e-09
-5.774562734e-12
1.41083726e-09
-6.101316446e-12
1.415839464e-09
-6.398903805e-12
1.417121479e-09
-6.657979179e-12
1.414532284e-09
-6.869163465e-12
1.407896812e-09
-7.023349187e-12
1.397017985e-09
-7.111992535e-12
1.381678343e-09
-7.127789794e-12
1.361643832e-09
-7.064744816e-12
1.336666074e-09
-6.91879722e-12
1.306486596e-09
-6.688169893e-12
1.270840873e-09
-6.373459312e-12
1.229462633e-09
-5.9780099e-12
1.182087979e-09
-5.508070491e-12
1.128460373e-09
-4.972829418e-12
1.068335065e-09
-4.384400637e-12
1.001482632e-09
-3.75780005e-12
9.276934447e-10
-3.110827354e-12
8.467812081e-10
-2.463901884e-12
7.585858615e-10
-1.839857818e-12
6.629764425e-10
-1.263702955e-12
5.598528119e-10
-7.623649033e-13
4.491471826e-10
-3.6442574e-13
3.308243141e-10
-9.988159782e-14
2.048800149e-10
7.133422095e-11
-1.141446253e-14
5.783930934e-11
-4.484459639e-14
1.692344127e-10
-9.915392719e-14
2.743827363e-10
-1.732645036e-13
3.735216459e-10
-2.662131526e-13
4.668831811e-10
-3.771053326e-13
5.546936277e-10
-5.051532368e-13
6.37172704e-10
-6.495559793e-13
7.145332865e-10
-8.096864354e-13
7.869807589e-10
-9.850121656e-13
8.547122144e-10
-1.175122889e-12
9.179158001e-10
-1.379757441e-12
9.767696943e-10
-1.598855081e-12
1.03144118e-09
-1.832528895e-12
1.082085569e-09
-2.081032204e-12
1.128845137e-09
-2.344541251e-12
1.171848018e-09
-2.62310818e-12
1.211207177e-09
-2.916582791e-12
1.247019506e-09
-3.224388594e-12
1.279364786e-09
-3.545177954e-12
1.308303782e-09
-3.877057307e-12
1.333877707e-09
-4.217100408e-12
1.356106647e-09
-4.561475719e-12
1.374987872e-09
-4.905387369e-12
1.390495461e-09
-5.242894011e-12
1.402578659e-09
-5.567347867e-12
1.411161714e-09
-5.871026829e-12
1.416143143e-09
-6.145848035e-12
1.4173963e-09
-6.383131611e-12
1.414769568e-09
-6.574333238e-12
1.408088014e-09
-6.71103339e-12
1.397154685e-09
-6.785498968e-12
1.381752808e-09
-6.79112675e-12
1.36164946e-09
-6.72253137e-12
1.336597479e-09
-6.576160985e-12
1.306340225e-09
-6.350508926e-12
1.270615221e-09
-6.046308769e-12
1.229158433e-09
-5.666815972e-12
1.181708487e-09
-5.218001813e-12
1.128011558e-09
-4.708484535e-12
1.067825548e-09
-4.149636066e-12
1.000923784e-09
-3.555516107e-12
9.270993247e-10
-2.942787137e-12
8.461684792e-10
-2.330573405e-12
7.579736478e-10
-1.740284967e-12
6.62386154e-10
-1.195408209e-12
5.593079351e-10
-7.212847587e-13
4.486730591e-10
-3.448782902e-13
3.304479076e-10
-9.456314913e-14
2.046296998e-10
7.12396578e-11
-1.108549804e-14
5.785039483e-11
-4.356033479e-14
1.692668875e-10
-9.632996677e-14
2.74435506e-10
-1.683849235e-13
3.735937009e-10
-2.588615992e-13
4.669736578e-10
-3.668813827e-13
5.548016475e-10
-4.91751755e-13
6.372975743e-10
-6.327699475e-13
7.146743047e-10
-7.892959667e-13
7.871372849e-10
-9.608132566e-13
8.548837317e-10
-1.14691675e-12
9.181019036e-10
-1.347279683e-12
9.769700572e-10
-1.561754102e-12
1.031655655e-09
-1.7903026e-12
1.082314118e-09
-2.032934706e-12
1.129087769e-09
-2.289609996e-12
1.172104693e-09
-2.560203573e-12
1.21147777e-09
-2.844435986e-12
1.247303738e-09
-3.141431816e-12
1.279661782e-09
-3.449800908e-12
1.308612151e-09
-3.767626802e-12
1.334195533e-09
-4.091919651e-12
1.356430939e-09
-4.41906156e-12
1.375315014e-09
-4.74433377e-12
1.390820733e-09
-5.06220343e-12
1.402896528e-09
-5.366315597e-12
1.411465826e-09
-5.649492412e-12
1.41642632e-09
-5.9042103e-12
1.417651018e-09
-6.122425775e-12
1.414987783e-09
-6.296285586e-12
1.408261874e-09
-6.418025105e-12
1.397276424e-09
-6.48064356e-12
1.381815427e-09
-6.478066826e-12
1.361646883e-09
-6.405468152e-12
1.33652488e-09
-6.259741625e-12
1.306194499e-09
-6.039574969e-12
1.270395054e-09
-5.745812894e-12
1.228864671e-09
-5.381612401e-12
1.181344286e-09
-4.95265525e-12
1.127582601e-09
-4.467065224e-12
1.067339958e-09
-3.93553118e-12
1.00039225e-09
-3.37125081e-12
9.265350443e-10
-2.78986423e-12
8.455870926e-10
-2.209334278e-12
7.573931178e-10
-1.649795253e-12
6.61826615e-10
-1.133370426e-12
5.587915103e-10
-6.839787786e-13
4.482236675e-10
-3.271292381e-13
3.300910581e-10
-8.973405871e-14
2.043923046e-10
7.114992374e-11
-1.071944193e-14
5.786111428e-11
-4.212390335e-14
1.69298292e-10
-9.317221012e-14
2.744865543e-10
-1.629349217e-13
3.736634636e-10
-2.50608315e-13
4.670613311e-10
-3.554008347e-13
5.5490644e-10
-4.766637146e-13
6.374188372e-10
-6.137926653e-13
7.148114337e-10
-7.662031461e-13
7.872896954e-10
-9.333911322e-13
8.550509196e-10
-1.114939279e-12
9.182834517e-10
-1.310509869e-12
9.771656278e-10
-1.519866231e-12
1.031865011e-09
-1.742828968e-12
1.08253708e-09
-1.979223716e-12
1.129324164e-09
-2.228871877e-12
1.172354341e-09
-2.491510516e-12
1.211740409e-09
-2.766632667e-12
1.24757886e-09
-3.053204268e-12
1.279948353e-09
-3.349830391e-12
1.308908778e-09
-3.654437969e-12
1.334500141e-09
-3.964120499e-12
1.356740622e-09
-4.275390022e-12
1.375626283e-09
-4.583658538e-12
1.391129001e-09
-4.883762053e-12
1.403196632e-09
-5.169584917e-12
1.411751649e-09
-5.434519525e-12
1.416691255e-09
-5.671444935e-12
1.417887943e-09
-5.872943947e-12
1.415189282e-09
-6.031757077e-12
1.408420687e-09
-6.140724611e-12
1.397385392e-09
-6.193484457e-12
1.381868187e-09
-6.1844094e-12
1.361637808e-09
-6.109161517e-12
1.336449632e-09
-5.964990207e-12
1.306050328e-09
-5.750770609e-12
1.270180835e-09
-5.467413077e-12
1.228581314e-09
-5.117973846e-12
1.180994847e-09
-4.707847555e-12
1.127172475e-09
-4.244703987e-12
1.066876814e-09
-3.738606899e-12
9.998861529e-10
-3.201971812e-12
9.259984092e-10
-2.649514259e-12
8.45034635e-10
-2.09814849e-12
7.568417521e-10
-1.566857461e-12
6.61295324e-10
-1.076533517e-12
5.583011864e-10
-6.498090161e-13
4.47796943e-10
-3.108740963e-13
3.297521231e-10
-8.531129872e-14
2.041667418e-10
7.106461244e-11
-1.0316405e-14
5.787143068e-11
-4.054664415e-14
1.693285222e-10
-8.971001515e-14
2.745357176e-10
-1.569685245e-13
3.737307221e-10
-2.41547439e-13
4.671459101e-10
-3.42792313e-13
5.550076848e-10
-4.600610015e-13
6.375361059e-10
-5.928517836e-13
7.149442245e-10
-7.406539295e-13
7.874374975e-10
-9.03011798e-13
8.552132775e-10
-1.079492545e-12
9.184599325e-10
-1.269754758e-12
9.7735589e-10
-1.473479479e-12
1.032068736e-09
-1.690385629e-12
1.082753987e-09
-1.92019837e-12
1.129553977e-09
-2.162592417e-12
1.172596736e-09
-2.417209051e-12
1.211995026e-09
-2.683273603e-12
1.247844925e-09
-2.959698153e-12
1.280224778e-09
-3.245068455e-12