/*--------------------------------*- C++ -*----------------------------------*\
  =========                 |
  \\      /  F ield         | OpenFOAM: The Open Source CFD Toolbox
   \\    /   O peration     | Website:  https://openfoam.org
    \\  /    A nd           | Version:  7
     \\/     M anipulation  |
\*---------------------------------------------------------------------------*/
FoamFile
{
    version     2.0;
    format      ascii;
    class       volScalarField;
    location    "0.0021";
    object      rho;
}
// * * * * * * * * * * * * * * * * * * * * * * * * * * * * * * * * * * * * * //

dimensions      [1 -3 0 0 0 0 0];

internalField   nonuniform List<scalar> 
1167
(
936.6789872
936.6057275
936.4486683
936.216546
935.9144691
935.5468196
935.1177966
934.6312423
934.0910009
933.5008176
932.864196
932.1845697
931.4652504
930.7095192
929.9203601
929.100828
928.2538339
927.382406
926.4890683
925.5765675
924.6476793
923.7047921
922.7506865
921.7877211
920.8186755
919.8458052
918.8718728
917.8992332
916.9304409
915.9678242
915.0137793
914.0704709
913.1399845
912.2242702
936.5584837
936.4852155
936.3281411
936.0960041
935.7940537
935.4264159
934.9975661
934.5112106
933.9712044
933.3812498
932.7449517
932.0657468
931.3469247
930.5916912
929.8031032
928.9842185
928.1380608
927.2674631
926.375057
925.4637428
924.5360896
923.5947413
922.6423098
921.6813853
920.7145738
919.744382
918.7733759
917.8041121
916.8389606
915.8804065
914.930648
913.9919653
913.0662368
912.1555041
911.2612712
910.3849687
909.527857
908.690819
907.8746851
907.0799675
906.3069248
905.5557178
904.8263951
904.1187673
903.4325199
902.7672397
902.1224466
901.4975863
900.8920635
900.3052219
936.4380054
936.3647303
936.2076442
935.9756006
935.6736797
935.3061807
934.8773889
934.3912406
933.8514792
933.2618254
932.6258813
931.9470815
931.2287298
930.4740212
929.686041
928.8678725
928.0226014
927.152897
926.2615585
925.3514978
924.4252085
923.4855437
922.5349451
921.576226
920.6118178
919.6444704
918.6765468
917.7107944
916.7493944
915.7949801
914.8495549
913.9154979
912.9944969
912.0886795
911.1993535
910.3280191
909.4757708
908.6435132
907.8320763
907.0418631
906.2731642
905.5261317
904.8008402
904.0970521
903.414491
902.7527534
902.1113745
901.4898084
900.8874718
900.3037148
936.3175571
936.2442768
936.0871828
935.8552671
935.5533528
935.1860155
934.7572723
934.2713401
933.7318335
933.1424922
932.5069151
931.8285368
931.1106776
930.3565231
929.5691895
928.7518828
927.9074577
927.0387229
926.148612
925.2398422
924.3150996
923.3771913
922.4285968
921.4722067
920.5103842
919.5459881
918.5813328
917.6191429
916.6616535
915.7113555
914.7703552
913.8408409
912.9245767
912.0235559
911.139045
910.2725674
909.4250603
908.5974676
907.7905799
907.0047418
906.2402623
905.4973132
904.775916
904.0758654
903.3968962
902.738613
902.1005652
901.4822144
900.8829886
900.3022432
936.1971433
936.1238598
935.9668745
935.7349794
935.4330784
935.06591
934.6373535
934.1515171
933.612276
933.0232593
932.3880637
931.7101251
930.9927818
930.239212
929.4526526
928.6361673
927.792649
926.9249827
926.0361625
925.1287859
924.2057517
923.2696756
922.3232924
921.3692938
920.410253
919.4488569
918.4876107
917.5290322
916.5755203
915.6293665
914.6927958
913.7678021
912.8562481
911.9599318
911.0801649
910.2184206
909.3755431
908.5525246
907.7500405
906.9684641
906.2080956
905.4691287
904.7515301
904.0551298
903.3796713
902.7247672
902.0899798
901.4747772
900.8785978
900.300802
936.0767687
936.0035564
935.8466312
935.6147432
935.3129757
934.9458698
934.5175113
934.031851
933.4928153
932.9041366
932.2693386
931.5918595
930.8750572
930.1221713
929.3363925
928.5207457
927.6781963
926.8117578
925.9242235
925.018339
924.0971198
923.1629911
922.2189381
921.26745
920.311301
919.3530056
918.3952525
917.4403514
916.490859
915.5488686
914.6167199
913.6962168
912.7893197
911.8976375
911.0225648
910.1654177
909.3270675
908.508517
907.7103322
906.9329169
906.1765642
905.4414902
904.7276082
904.0347824
903.3627649
902.711175
902.079587
901.4674749
900.8742865
900.2993868
935.9565617
935.8833585
935.7264379
935.4945633
935.1929602
934.8259009
934.3977506
933.9123318
933.3735394
932.7851421
932.1507517
931.4737683
930.7575979
930.0054058
929.2203942
928.4056372
927.5641494
926.698979
925.8128139
924.9086202
923.9892054
923.0571697
922.1155127
921.1666523
920.2134787
919.2583825
918.3041752
917.3530219
916.4075561
915.4697481
914.5419922
913.6259434
912.723647
911.8365285
910.9660665
910.113426
909.2795086
908.4653302
907.6713514
906.8980078
906.1455869
905.4143273
904.7040899
904.0147727
903.3461353
902.697803
902.0693615
901.4602897
900.8700442
900.2979943
935.8364106
935.7632105
935.6062991
935.3744872
935.0730129
934.7060639
934.2780783
933.7929139
933.2544318
932.6664023
932.0324275
931.3559647
930.6403778
929.8888773
929.1046764
928.2908612
927.4505783
926.5866641
925.7019476
924.7995305
923.8820127
922.9522323
922.0129938
921.0669323
920.1167414
919.1649907
918.2143045
917.266999
916.3255115
915.3919461
914.4684956
913.5568996
912.6591074
911.7764836
910.910553
910.0623351
909.2327646
908.42287
907.6330132
906.8636613
906.1151234
905.3875827
904.6809266
903.9950597
903.3297488
902.6846247
902.059283
901.4532074
900.8658626
900.2966218
935.7163115
935.6431168
935.4862196
935.2545709
934.9531385
934.5863872
934.1585013
933.673605
933.1354492
932.5478048
931.9142783
931.2383485
930.5233749
929.7726031
928.9892575
928.1765043
927.3374187
926.4748294
925.59171
924.691078
923.7755425
922.8481022
921.9113659
920.9681826
920.0210453
919.0726963
918.1255733
917.1821393
916.2446372
915.3153024
914.3961293
913.4889666
912.5955968
911.7174061
910.8559265
910.0120528
909.186795
908.381059
907.5952481
906.829816
906.0850984
905.3612103
904.6580788
903.9756105
903.3135786
902.6716183
902.0493352
901.4462165
900.8617349
900.2952669
935.5962687
935.5230818
935.3662559
935.1347243
934.8333422
934.4667995
934.0390903
933.5544128
933.0166
932.4293599
931.796304
931.1209337
930.4066054
929.6566009
928.8741709
928.0625675
927.2246879
926.3634902
925.4820819
924.5832697
923.6698572
922.7447724
921.8106204
920.870375
919.9263507
918.9814489
918.0379209
917.0983731
916.1648557
915.2397335
914.324806
913.4220306
912.5330268
911.6592558
910.8021051
909.9625025
909.1414829
908.3398335
907.5579992
906.7964217
906.0554634
905.3351724
904.6355148
903.9563986
903.2976028
902.6587668
902.039505
901.4393081
900.8576557
900.2939279
935.4762863
935.4031199
935.2464446
935.0149514
934.7136752
934.3473065
933.9198489
933.4353557
932.8978929
932.3110778
931.6785168
931.0037346
930.2900857
929.5408892
928.7595231
927.9490153
927.1124017
926.2527128
925.3730321
924.4761121
923.5649334
922.6422398
921.710829
920.7734795
919.8326905
918.8912023
917.951344
917.0156385
916.0861245
915.1651671
914.2544506
913.3560156
912.4713224
911.6019083
910.7490202
909.9136204
909.0967702
908.2991407
907.5212197
906.7634374
906.0261831
905.3094387
904.6132089
903.9374025
903.2818039
902.6460562
902.0297819
901.4324745
900.8536208
900.2926035
935.3564325
935.2833521
935.1267044
934.8952569
934.5941816
934.2279137
933.8007221
933.3165494
932.7793503
932.1929686
931.5609285
930.8867647
930.1738437
929.4255995
928.645226
927.8358649
927.0005753
926.1425152
925.2645703
924.3696173
923.460732
922.5404936
921.6118794
920.6774741
919.7399775
918.8019151
917.8657713
916.9338806
916.0084088
915.0915402
914.1850381
913.2908567
912.4104201
911.5453026
910.6966144
909.8653535
909.0526086
908.2589379
907.4848722
906.730857
905.997228
905.2839844
904.5911401
903.9186049
903.266168
902.6334753
902.0201574
901.4257101
900.8496266
900.2912924
935.2367208
935.1636547
935.0070395
934.7756454
934.4747812
934.1086269
933.6817168
933.1978832
932.6610835
932.075109
931.4435982
930.7701028
930.0579885
929.3106338
928.5312954
927.7231333
926.889283
926.03285
925.1567041
924.263879
923.3572498
922.4395398
921.5137565
920.5823376
919.6481652
918.7135504
917.7811299
916.8530507
915.9316049
915.0187978
914.1164999
913.2264983
912.3502658
911.4893874
910.6448396
909.8176933
909.0089584
908.2191896
907.4489251
906.6986315
905.9685754
905.2587898
904.569292
903.8999922
903.2506838
902.6210155
902.010625
901.4190102
900.8456704
900.2899938
935.1170809
935.0440314
934.8874539
934.6562305
934.355479
933.9895682
933.5628395
933.0793641
932.542985
931.9574994
931.3265696
930.6537443
929.9424248
929.1960023
928.4177463
927.6108351
926.7785274
925.9237269
925.0494394
924.1587999
923.2544819
922.3394326
921.4164486
920.4881075
919.5572259
918.6260876
917.6973807
916.7731061
915.8556669
914.9468926
914.0487607
913.1628946
912.2908661
911.4341175
910.5936547
909.7705768
908.9657862
908.1798662
907.4133526
906.6667333
905.9402066
905.2338393
904.5476516
903.8815535
903.2353427
902.6086696
902.0011793
901.412371
900.8417501
900.288707
934.9975164
934.9244861
934.767952
934.5369297
934.2362802
933.8706358
933.4440982
932.9609991
932.4250632
931.8400925
931.2097731
930.5376515
929.8271654
929.0817181
928.3045918
927.499078
926.6682696
925.8151571
924.942857
924.05438
923.1524256
922.2400844
921.319941
920.3947462
919.4671364
918.5395559
917.6144888
916.6940534
915.7805531
914.8757825
913.9817783
913.1000035
912.2321313
911.3794573
910.543026
909.7239628
908.9230647
908.1409436
907.3781339
906.6351447
905.9121068
905.2091204
904.5262083
903.8632803
903.2201376
902.5964324
901.9918162
901.4057897
900.8378639
900.2874313
934.8780312
934.8050228
934.6486554
934.4177255
934.1171897
933.7518265
933.3256259
932.8427954
932.3073263
931.7228976
931.0932192
930.4218361
929.7122226
928.9677938
928.1918959
927.3877924
926.5585199
925.7071484
924.8369168
923.9506214
923.0511235
922.1414851
921.224218
920.302195
919.3778733
918.453856
917.532425
916.6158421
915.7062293
914.8054759
913.9155149
913.0377888
912.1740251
911.3253758
910.4929254
909.677826
908.8807711
908.102402
907.343283
906.6038512
905.8842639
905.184623
904.5049539
903.8451658
903.2050632
902.5842996
901.9825326
901.3992642
900.8340106
900.2861665
934.7586291
934.6857223
934.5294645
934.2986226
933.9983199
933.633146
933.2073013
932.7248335
932.1897817
931.6059233
930.9769179
930.3063092
929.5976084
928.854277
928.0796821
927.2769727
926.4492864
925.5997706
924.731592
923.8475255
922.9505829
922.0436236
921.1293111
920.210437
919.2894154
918.3689631
917.4511616
916.5384146
915.6326652
914.7359163
913.8499395
912.9762201
912.1165188
911.2718467
910.4433611
909.6321451
908.838887
908.0642255
907.3087575
906.5728414
905.8566682
905.1603393
904.483882
903.8272049
903.1901153
902.5722679
901.9733261
901.3927927
900.8301892
900.2849122
934.6394418
934.5665661
934.41037
934.1796257
933.8795869
933.5146004
933.0891307
932.6071028
932.0725068
931.4891786
930.860879
930.1910816
929.4833905
928.7412238
927.9678939
927.1666272
926.3405761
925.4930112
924.6268848
923.7450903
922.8507403
921.9464919
921.0352002
920.1194557
919.2018133
918.2848549
917.370677
916.4617444
915.5598331
914.6670559
913.7850258
912.9153301
912.0595885
911.218848
910.3942965
909.5869025
908.797397
908.0264009
907.2745437
906.5421059
905.8293122
905.136263
904.4629876
903.8093935
903.1752908
902.5603349
901.9641948
901.386374
900.826399
900.2836681
934.5203491
934.4475041
934.2913764
934.0607811
933.7609778
933.3962494
932.9711204
932.4895549
931.9554946
931.3727973
930.7452016
930.0762774
929.3695844
928.6285615
927.856541
927.0567637
926.2324673
925.3868266
924.5227962
923.6434011
922.7515908
921.8500827
920.9418344
920.029235
919.1149933
918.2015105
917.2910203
916.3858079
915.487709
914.5988709
913.720751
912.8550418
912.0032135
911.1663607
910.3456989
909.5420835
908.7562885
907.9889225
907.2406326
906.5116375
905.8021899
905.1123892
904.4422667
903.7917286
903.1605872
902.5484987
901.9551373
901.3800071
900.8226393
900.282434
934.4013519
934.3285409
934.1724884
933.9421357
933.642498
933.2781201
932.8532765
932.3721967
931.838699
931.2566643
930.6298282
929.9617951
929.2561355
928.5162988
927.7456317
926.9473916
926.1249273
925.2812198
924.4193269
923.5423776
922.6531325
921.7544539
920.8491993
919.9397588
919.0289218
918.1189106
917.2120955
916.3105839
915.416336
914.5313404
913.6570947
912.7953325
911.9473764
911.1143693
910.2975543
909.4976759
908.715551
907.9518091
907.2070172
906.4814303
905.7752966
905.0887143
904.4217164
903.7742077
903.1460027
902.5367579
901.9461526
901.3736913
900.8189097
900.2812098
934.2824545
934.2096806
934.0537592
933.8236109
933.524153
933.1601433
932.7356668
932.2550346
931.7221271
931.1407855
930.5147428
929.8476383
929.1430522
928.4044443
927.6351755
926.8386204
926.0179234
925.1761923
924.3165367
923.4420088
922.5553599
921.659564
920.7572841
919.8510666
918.9435827
918.0370377
917.1338839
916.2360533
915.345635
914.464446
913.5940442
912.7361863
911.8920632
911.0628954
910.2498499
909.4536692
908.6751757
907.9150205
907.1736915
906.4514796
905.7486286
905.0652354
904.4013345
903.7568293
903.1315361
902.5251116
901.9372401
901.3674261
900.8152101
900.2799955
934.1636613
934.0909377
933.9352209
933.7052119
933.4059917
933.0423248
932.6183032
932.138076
931.6057857
931.0251683
930.3999535
929.733815
929.0303425
928.2930052
927.5252473
926.7303488
925.9114601
925.0717458
924.2144063
923.342291
922.4582654
921.5653716
920.6660798
919.7631215
918.8589613
917.9559228
917.0563688
916.162199
915.275584
914.3981713
913.5316333
912.6775889
911.8372608
911.0119066
910.2025762
909.4100547
908.6351556
907.878551
907.1406509
906.4217818
905.7221831
905.0419504
904.3811195
903.7395921
903.1171864
902.5135591
901.9283991
901.3612112
900.8115402
900.2787909
934.0450348
933.972422
933.8168022
933.5869437
933.288062
932.9246702
932.5011242
932.0214478
931.4896818
930.9098202
930.2854678
929.6203326
928.9180132
928.1820498
927.4158216
926.6225813
925.8055415
924.9679312
924.1128903
923.2432172
922.3619312
921.4718706
920.5755776
919.6758827
918.7750446
917.8755326
916.979535
916.0890283
915.2061679
914.3325018
913.469794
912.6195277
911.7829575
910.9613785
910.1557253
909.3668261
908.5955013
907.8423955
907.1078915
906.392334
905.6959579
905.0188575
904.36107
903.7224953
903.102953
902.5020999
901.9196295
901.3550465
900.8078998
900.277596
924.8647501
924.0119861
923.1447841
922.2662635
921.3790533
920.4858279
919.5893381
918.6918199
917.7958248
916.9033687
916.016553
915.1373731
914.2674247
913.4085143
912.5619917
911.7291434
910.9113029
910.1092907
909.3239781
908.5562116
907.8065501
907.0754102
906.3631337
905.6699513
904.9959558
904.3411854
903.7055383
903.0888357
902.490734
901.9109311
901.3489317
900.804289
900.2764108
)
;

boundaryField
{
    front_top
    {
        type            wedge;
    }
    front_middle
    {
        type            wedge;
    }
    front_bottom
    {
        type            wedge;
    }
    back_top
    {
        type            wedge;
    }
    back_middle
    {
        type            wedge;
    }
    back_bottom
    {
        type            wedge;
    }
    axis_top
    {
        type            symmetryPlane;
    }
    axis_middle
    {
        type            symmetryPlane;
    }
    axis_bottom
    {
        type            symmetryPlane;
    }
    wall_top
    {
        type            calculated;
        value           nonuniform 0();
    }
    wall_middle
    {
        type            calculated;
        value           nonuniform 0();
    }
    wall_bottom
    {
        type            calculated;
        value           uniform 900.0184441;
    }
    inlet
    {
        type            calculated;
        value           nonuniform 0();
    }
    outlet
    {
        type            calculated;
        value           nonuniform 0();
    }
    procBoundary1to0
    {
        type            processor;
        value           nonuniform List<scalar> 
51
(
933.9265884
933.8540231
933.698508
933.4688115
933.1702832
932.807185
932.3841365
931.9050367
931.3739464
930.7947886
930.1713086
929.5072305
928.8061574
928.0715735
927.3068631
926.5153217
925.7001701
925.7001701
924.7621501
923.9116936
923.0470388
922.1712537
921.2869108
920.3967933
919.5034775
918.6093047
917.7167863
916.8278569
915.9447114
915.0691873
914.2029504
913.3477833
912.5049711
911.6758559
910.8616724
910.0632659
909.2815051
908.5172624
907.7710122
907.043205
906.3341796
905.6441623
904.9732443
904.3214652
903.6887209
903.0748342
902.4794611
901.9023039
901.342867
900.8007078
900.2752354
)
;
    }
    procBoundary1to2
    {
        type            processor;
        value           nonuniform List<scalar> 
51
(
936.7995903
936.7262614
936.5692204
936.3371173
936.0349191
935.6672639
935.238074
934.7513282
934.210977
933.6205299
932.9835782
932.3035719
931.5838031
930.8274935
930.0377995
929.2176663
928.3700034
927.4977125
926.6035371
925.6899927
924.759975
923.8157798
922.8600996
921.8953538
920.924184
919.9488687
918.9721589
917.9963106
917.0240201
916.0574475
915.0991858
914.1512768
913.2160169
912.2952622
911.3250371
911.3250371
910.443648
909.5815392
908.7395768
907.918596
907.119226
906.3416958
905.5861776
904.8526944
904.1411074
903.451062
902.7821351
902.1338298
901.5055821
900.8967836
900.3067712
)
;
    }
}


// ************************************************************************* //
