/*--------------------------------*- C++ -*----------------------------------*\
  =========                 |
  \\      /  F ield         | OpenFOAM: The Open Source CFD Toolbox
   \\    /   O peration     | Website:  https://openfoam.org
    \\  /    A nd           | Version:  7
     \\/     M anipulation  |
\*---------------------------------------------------------------------------*/
FoamFile
{
    version     2.0;
    format      ascii;
    class       volScalarField;
    location    "0.0021";
    object      T;
}
// * * * * * * * * * * * * * * * * * * * * * * * * * * * * * * * * * * * * * //

dimensions      [0 0 0 1 0 0 0];

internalField   nonuniform List<scalar> 
1167
(
455.2237971
455.3350306
455.5735595
455.9262347
456.3854575
456.944765
457.5979964
458.3395509
459.1638346
460.0654086
461.0392014
462.0802434
463.1837411
464.3449355
465.5595067
466.8230082
468.131193
469.4796099
470.8645624
472.2819838
473.7277337
475.1982458
476.689313
478.1973561
479.718105
481.2480793
482.782969
484.3190721
485.8523385
487.3790436
488.8953233
490.3976513
491.8825996
493.3469309
455.4067723
455.5180475
455.7566608
456.1094492
456.5685978
457.1280315
457.7811672
458.5226092
459.3467455
460.2482013
461.2217485
462.2624104
463.3654262
464.5261502
465.7401492
467.0029703
468.3101904
469.6576578
471.0415078
472.4574327
473.9016107
475.370075
476.8588781
478.3640754
479.8816649
481.4077677
482.9383786
484.4694728
485.997288
487.5178464
489.027595
490.5228203
492.0004217
493.4570144
494.8900507
496.2970841
497.6759268
499.0249871
500.3427514
501.6282148
502.8807818
504.100017
505.2856703
506.4378824
507.5570056
508.64356
509.6981834
510.7216442
511.7147867
512.6785641
455.5897564
455.7010706
455.9397631
456.2925004
456.7517223
457.3110885
457.9643039
458.7056204
459.5295946
460.4308215
461.4040758
462.4443824
463.5469567
464.7071678
465.9205373
467.1825707
468.4887472
469.8351659
471.2177006
472.6320227
474.0744253
475.5406124
477.0268991
478.528988
480.043147
481.5651107
483.091189
484.6170526
486.1392325
487.6535132
489.1566469
490.6447602
492.1150545
493.5640059
494.98938
496.3886189
497.759802
499.1013044
500.4116145
501.6899056
502.935533
504.1480778
505.3272491
506.4732693
507.5864298
508.6672371
509.7163061
510.7343927
511.7223228
512.6810409
455.772742
455.8840927
456.1228587
456.4754922
456.9348221
457.4940861
458.1473953
458.8885725
459.712369
460.613349
461.5862901
462.6262155
463.7283139
464.8879666
466.1006459
467.3616661
468.6668601
470.0121102
471.3930791
472.8057378
474.2460773
475.7098699
477.1933681
478.69215
480.202586
481.7202362
483.2414821
484.7620263
486.2783112
487.7863431
489.2827076
490.763833
492.2267969
493.6682888
495.0861405
496.4777572
497.8414713
499.1755964
500.478686
501.7500098
502.9888957
504.1948946
505.3678044
506.5077965
507.6151467
508.6903498
509.7339991
510.7468398
511.729681
512.6834592
455.9557221
456.0671064
456.3057685
456.6584614
457.1178892
457.6770397
458.3302321
459.0714535
459.8950556
460.7957696
461.7683749
462.8078909
463.9094766
465.0685231
466.2803149
467.5403824
468.8444988
470.1884255
471.5677286
472.9785622
474.4165834
475.8778595
477.3582408
478.8536126
480.3600125
481.8732659
483.3894506
484.9045912
486.4148676
487.9165984
489.4061789
490.8803436
492.3360122
493.7701851
495.1806219
496.5648082
497.9212273
499.2481165
500.5442164
501.8087528
503.0410696
504.2406842
505.4074857
506.5415902
507.6432608
508.7129815
509.751326
510.7590302
511.7368875
512.6858277
456.1386899
456.2499945
456.4886266
456.8413993
457.300742
457.8599409
458.5129989
459.2541417
460.0776409
460.9780681
461.9503128
462.9893884
464.0904221
465.248709
466.4596019
467.7186894
469.0216305
470.3639849
471.7416273
473.1504795
474.586013
476.0445891
477.5216632
479.0134336
480.5156186
482.0243111
483.5352955
485.0449211
486.5491152
488.0445076
489.5273087
490.9945537
492.4430053
493.8699654
495.2730609
496.6500303
497.9993144
499.3191343
500.6084091
501.8663176
503.0922166
504.2855896
505.4464142
506.5747526
507.6708563
508.7351995
509.7683381
510.7709997
511.7439637
512.6881534
456.3214498
456.4327692
456.6714557
457.0242985
457.4835088
458.0427802
458.6956884
459.4366523
460.2599904
461.1602172
462.1320849
463.170664
464.2710056
465.4285163
466.6385298
467.8965568
469.1981775
470.5388953
471.9147454
473.321304
474.754363
476.2100079
477.6836675
479.1716477
480.6694812
482.1734515
483.6791463
485.1831392
486.6812331
488.1702501
489.6463115
491.1066881
492.5480062
493.9678603
495.3637433
496.733636
498.0759325
499.3888342
500.6714313
501.9228534
503.1424684
504.329725
505.4846878
506.6073663
507.698001
508.7570581
509.7850767
510.7827775
511.7509266
512.6904418
456.5041716
456.6155149
456.8542486
457.2070867
457.6662188
458.2254655
458.8782897
459.619055
460.4421291
461.3420225
462.3135006
463.351544
464.4512666
465.6080038
466.8170697
468.0739544
469.3740313
470.7131286
472.0870605
473.4911892
474.9216262
476.3740822
477.8442875
479.3282041
480.8216693
482.3206815
483.8211192
485.3193152
486.8113788
488.2939182
489.7633727
491.2168774
492.6512103
494.0640634
495.4528559
496.8158026
498.151246
499.4573678
500.7334198
501.9784822
503.19189
504.3731832
505.5223857
506.6394976
507.7247497
508.7786009
509.8015749
510.7943867
511.7577901
512.6926975
456.6868612
456.7982249
457.0369984
457.3896784
457.8488645
458.4079531
459.0607924
459.8013376
460.6241231
461.5236562
462.4946939
463.532182
464.631239
465.7871443
466.9951927
468.2507478
469.5492906
470.8866589
472.2584395
473.6601218
475.0878004
476.5369314
478.003547
479.4832708
480.9722509
482.4662108
483.9613195
485.4536747
486.939691
488.4157659
489.8786521
491.32531
492.7527832
494.158729
495.5405552
496.8966778
498.2253191
499.5248599
500.7944868
502.0333034
503.2406035
504.4160393
505.5595719
506.6712003
507.7511464
508.7998631
509.8178596
510.8058461
511.764565
512.6949242
456.8695122
456.9808926
457.2196187
457.5722109
458.0314379
458.5903517
459.2430884
459.9834886
460.8059593
461.7051024
462.6756648
463.7125561
464.8108975
465.9659104
467.1728468
468.4269351
469.7239283
471.0594618
472.4289114
473.8280904
475.2527873
476.6985651
478.1614583
479.6368907
481.1212874
482.6101178
484.0998418
485.5863272
487.0662914
488.5359247
489.9922879
491.4321671
492.8528656
494.2519208
495.6269723
496.9763843
498.2983401
499.591413
500.8547242
502.0873982
503.2886873
504.4583542
505.5962982
506.7025177
507.7772267
508.8208728
509.8339521
510.8171708
511.7712604
512.6971247
457.052118
457.1634957
457.4020538
457.7546778
458.2138611
458.7726526
459.425172
460.1654795
460.9876244
461.8863451
462.8563945
463.8926443
464.9902166
466.1442734
467.3498675
468.6025707
469.8979195
471.2314342
472.5985241
473.9950839
475.4166229
476.8589877
478.317908
479.7891104
481.2687261
482.7524746
484.2366902
485.7173699
487.191247
488.6545089
490.1043988
491.5375693
492.9515768
494.3438376
495.7122169
497.0550245
498.3704024
499.657112
500.9142072
502.1408327
503.3361988
504.500177
505.6326061
506.7334846
507.8030189
508.8416527
509.8498697
510.8283727
511.7778832
512.6993013
457.2345748
457.3458502
457.5844273
457.937072
458.3960665
458.9548471
459.6071271
460.3471334
461.169084
462.0673687
463.0368645
464.0724254
465.169153
466.3220299
467.5263903
468.7776275
470.0712402
471.4025472
472.7672619
474.1610828
475.5793674
477.0182151
478.4730716
479.9399633
481.4147033
482.8933456
484.3719768
485.846889
487.3146117
488.7716182
490.2150242
491.6416195
493.049018
494.4345767
495.7963807
497.1326834
498.4415833
499.7220256
500.9729963
502.1936168
503.3831855
504.5415482
505.6685298
506.7641291
507.8285461
508.862221
509.8656261
510.8394615
511.7844393
512.701456
457.4168621
457.5281442
457.7667329
458.1193864
458.5781764
459.1369263
459.7889429
460.5286192
461.3501674
462.2480556
463.216984
464.2517783
465.3475386
466.4993309
467.7023901
468.9520789
470.2437745
471.572874
472.9351124
474.3259406
475.7410248
477.1762371
478.6269717
480.089482
481.5592914
483.0327881
484.5058159
485.9749604
487.4365498
488.887339
490.3242727
491.7444058
493.1452751
494.5242203
495.8795406
497.2093741
498.5119469
499.7862111
501.0311424
502.2458295
503.4296845
504.5824996
505.704096
506.7944735
507.8538264
508.8825921
509.8812323
510.8504449
511.790933
512.7035901
457.5990867
457.7103719
457.9489641
458.3014476
458.7601829
459.3187038
459.9706093
460.7099262
461.5310389
462.4284048
463.3966855
464.4307093
465.5255197
466.6761603
467.8778436
469.1259018
470.415518
471.7423989
473.1020656
474.4898078
475.9016023
477.3329681
478.7796258
480.2376065
481.7025331
483.1708339
484.6382685
486.1016515
487.5571331
489.001746
490.4322637
491.8460014
493.2403374
494.6128399
495.9617623
497.2851978
498.5815464
499.849716
501.088687
502.2975156
503.4757257
504.6230564
505.739326
506.8245354
507.8788741
508.9027774
509.8966968
510.8613287
511.7973679
512.705705
457.781243
457.8925273
458.1311145
458.4833815
458.9420783
459.5003347
460.1521142
460.8910433
461.7116853
462.6084885
463.5760757
464.6092764
465.703076
466.8524971
468.05273
469.2989289
470.5865303
471.9111039
473.2679952
474.6526839
476.0611032
477.4885444
478.9310564
480.3843953
481.8444643
483.3074357
484.769389
486.2269509
487.6764275
489.1149056
490.5390639
491.9464724
493.3343476
494.7004926
496.0430995
497.3602205
498.650426
499.912579
501.1456638
502.3487037
503.5213332
504.663239
505.7742366
506.8543287
507.9037004
508.9227856
509.9120262
510.8721178
511.8037468
512.7078013
457.963325
458.0746044
458.3129983
458.6652143
459.1238545
459.6818239
460.3332538
461.0719595
461.8920942
462.7882924
463.7551382
464.7874614
465.8801886
467.0283219
468.2269502
469.4712675
470.7567951
472.0789763
473.4329631
474.814565
476.2194605
477.6429812
479.0812871
480.5299398
481.9851209
483.44275
484.899223
486.3509378
487.7944863
489.226804
490.6447331
492.0458765
493.4273636
494.7872276
496.1235974
497.4344829
498.7186219
499.9748318
501.2020499
502.399417
503.5665265
504.7030636
505.8088412
506.8838644
507.9283142
508.9426236
509.9272258
510.8828156
511.8100717
512.70988
458.1453268
458.2564799
458.4947675
458.8469391
459.3053402
459.8631623
460.5142137
461.2525513
462.0722539
462.9678027
463.9338572
464.9652466
466.0568385
467.2035607
468.400467
469.6429256
470.926299
472.2459069
473.59701
474.9754482
476.3766615
477.7962949
479.2302679
480.6742659
482.1245356
483.5768149
485.0278135
486.4737031
487.9113574
489.3375304
490.7493203
492.1442618
493.5194309
494.8730867
496.2032423
497.5080188
498.7861639
500.0365003
501.2579139
502.4496741
503.6113212
504.7425431
505.8431503
506.9131508
507.9527222
508.9622968
509.9422996
510.893425
511.8163444
512.7119415
458.3270476
458.4381817
458.6764359
459.0285482
459.4866633
460.0443407
460.6949837
461.4328347
462.2520454
463.1470058
464.1122175
465.1426152
466.2329209
467.3781264
468.5733674
469.81389
471.0950306
472.4119145
473.760132
475.1353358
476.5328052
477.9484976
479.3780294
480.8173986
482.2626279
483.7096651
485.1551941
486.595288
488.0270839
489.4471603
490.8528668
492.2415755
493.6105877
494.9581052
496.2820928
497.5808565
498.8530765
500.0976055
501.3132778
502.49949
503.6557296
504.7816874
505.8771722
506.9421947
507.9769296
508.9818092
509.9572505
510.903948
511.822566
512.7139861
458.5086705
458.619786
458.8579966
459.2099713
459.667843
460.2252677
460.8755543
461.6128837
462.4314795
463.3256959
464.2900664
465.3193757
466.4084115
467.5521308
468.7456361
469.9841481
471.2628681
472.5770664
473.922327
475.2940944
476.6878983
478.0995998
479.524651
480.9593628
482.3995134
483.8413329
485.2812864
486.7157296
488.1417038
489.5557312
490.9554089
492.3379405
493.7008664
495.0423129
496.3602011
497.6530193
498.9193799
500.1581562
501.3681558
502.5488763
503.6997612
504.8205045
505.910913
506.9710009
508.0009403
509.0011638
509.9720809
510.9143863
511.8287375
512.7160143
458.6901941
458.801286
459.0394425
459.3911362
459.8488712
460.4059013
461.0559159
461.7926873
462.6106262
463.5040491
464.4674921
465.4956841
466.583394
467.72556
468.9172594
470.1536848
471.4298613
472.7413572
474.0835931
475.4518481
476.8419432
478.2495102
479.6701543
481.100183
482.5352443
483.971848
485.4062418
486.8350607
488.2551477
489.6632759
491.0569782
492.4333925
493.7902946
495.1257347
496.4375896
497.7245267
498.9850908
500.2181225
501.4225595
502.5978426
503.7434238
504.8590002
505.9443775
506.9995732
508.0247573
509.0203629
509.9867924
510.924741
511.8348596
512.7180262
458.8716116
458.982675
459.220692
459.5721629
460.0297394
460.5863476
461.2359643
461.9722356
462.7894746
463.6820564
464.6445186
465.6715345
466.7578551
467.8984004
469.0882225
470.3223296
471.5960605
472.9047839
474.2438367
475.6086136
476.9949479
478.3982929
479.8145559
481.2397963
482.6698454
484.1012376
485.5300893
486.9533112
488.3675409
489.7698233
491.157595
492.5279567
493.8788946
495.2083354
496.5142784
497.7953956
499.0502232
500.2775686
501.4764982
502.6463962
503.7867231
504.8971793
505.9775692
507.0279144
508.0483826
509.039408
510.001386
510.9350127
511.8409326
512.7200219
459.0529161
459.1639312
459.4016962
459.7530434
460.2103726
460.7665971
461.4156814
462.1515172
462.968014
463.8597058
464.8211333
465.8469141
466.9317823
468.0706402
469.2584088
470.4902392
471.7614582
473.0673434
474.4030868
475.7643961
477.1469234
478.5460123
479.9578693
481.3782602
482.8033391
484.2294521
485.6528546
487.0705076
488.478918
489.875399
491.2572049
492.6216554
493.9666871
495.290167
496.590283
497.8656395
499.1147884
500.3365038
501.5299794
502.694543
503.8296636
504.9350451
506.0104908
507.0560263
508.0718176
509.0583001
510.0158627
510.9452022
511.8469569
512.7220016
459.2340123
459.3448864
459.5825635
459.9337699
460.3906973
460.9466414
461.5951608
462.330337
463.1462334
464.0369859
464.9973242
466.0218112
467.1051642
468.2421735
469.4278571
470.6574059
471.9260474
473.2289559
474.5614139
475.9192059
477.2977407
478.6926773
480.1001073
481.5156382
482.9357454
484.3565434
485.7745614
487.1866379
488.5893024
489.9800256
491.3559158
492.7145086
494.0536905
495.3712682
496.6656154
497.9352685
499.178769
500.3949363
501.5830093
502.7422877
503.8722489
504.9726002
506.0431441
507.0839103
508.0950634
509.0770401
510.0302228
510.9553096
511.8529326
512.7239654
473.389618
474.7188213
476.0730473
477.4475455
478.8382993
480.2411903
481.6519489
483.0670838
484.4825778
485.895231
487.3016828
488.6987153
490.0837234
491.4537466
492.8065337
494.1399201
495.451652
496.7402863
498.0042911
499.242167
500.4528723
501.6355928
502.789634
503.9144816
505.0098465
506.0755304
507.1115672
508.1181204
509.0956281
510.0444666
510.9653351
511.85886
512.7259132
)
;

boundaryField
{
    front_top
    {
        type            wedge;
    }
    front_middle
    {
        type            wedge;
    }
    front_bottom
    {
        type            wedge;
    }
    back_top
    {
        type            wedge;
    }
    back_middle
    {
        type            wedge;
    }
    back_bottom
    {
        type            wedge;
    }
    axis_top
    {
        type            symmetryPlane;
    }
    axis_middle
    {
        type            symmetryPlane;
    }
    axis_bottom
    {
        type            symmetryPlane;
    }
    wall_top
    {
        type            convectiveRadiativeHeatFlux;
        mode            convectiveRadiative;
        kappaMethod     fluidThermo;
        kappa           none;
        alphaAni        Anialpha;
        h               nonuniform 0();
        Ta              constant 513.15;
        emissivityNozzle 0.95;
        emissivityFilament 0.95;
        dNozzle         2;
        dFilament       1.65;
        refValue        nonuniform 0();
        refGradient     nonuniform 0();
        valueFraction   nonuniform 0();
        value           nonuniform 0();
    }
    wall_middle
    {
        type            fixedValue;
        value           nonuniform 0();
    }
    wall_bottom
    {
        type            fixedValue;
        value           uniform 513.15;
    }
    inlet
    {
        type            fixedValue;
        value           nonuniform 0();
    }
    outlet
    {
        type            zeroGradient;
    }
    procBoundary1to0
    {
        type            processor;
        value           nonuniform List<scalar> 
51
(
459.4148795
459.525709
459.7632866
460.1143343
460.5708368
461.1264718
461.7743924
462.5088688
463.3239313
464.2138232
465.173056
466.1961646
467.2778571
468.413007
469.5966218
470.8238234
472.0898237
472.0898237
473.5494108
474.8753084
476.2258464
477.596351
478.9828915
480.3811765
481.7872074
483.1973259
484.6075756
486.0148836
487.4157397
488.8071759
490.186475
491.5507143
492.8977459
494.2253162
495.53133
496.8143056
498.072716
499.3050207
500.5103156
501.687733
502.8365843
503.9563635
505.0467851
506.1076504
507.1389976
508.140989
509.1140644
510.0585942
510.9752788
511.8647389
512.7278451
)
;
    }
    procBoundary1to2
    {
        type            processor;
        value           nonuniform List<scalar> 
51
(
455.0407178
455.1520277
455.3904675
455.7430228
456.2023117
456.7614839
457.4148013
458.1564569
458.9806964
459.8824419
460.8564901
461.8978478
463.0017538
464.1635416
465.3786287
466.6427381
467.9516277
469.3010433
470.686951
472.1056441
473.5527988
475.0249952
476.5181667
478.0286425
479.5523725
481.0858444
482.6247707
484.1656101
485.7040934
487.236766
488.7594563
490.268837
491.7611471
493.2333014
494.7877708
494.7877708
496.2027813
497.5894914
498.9463357
500.2717908
501.5646609
502.8243962
504.0505403
505.2428825
506.4014791
507.526745
508.6192148
509.679552
510.7085389
511.7070399
512.676018
)
;
    }
}


// ************************************************************************* //
