/*--------------------------------*- C++ -*----------------------------------*\
  =========                 |
  \\      /  F ield         | OpenFOAM: The Open Source CFD Toolbox
   \\    /   O peration     | Website:  https://openfoam.org
    \\  /    A nd           | Version:  7
     \\/     M anipulation  |
\*---------------------------------------------------------------------------*/
FoamFile
{
    version     2.0;
    format      ascii;
    class       volScalarField;
    location    "0.0021";
    object      thermo:alpha;
}
// * * * * * * * * * * * * * * * * * * * * * * * * * * * * * * * * * * * * * //

dimensions      [1 -1 -1 0 0 0 0];

internalField   nonuniform List<scalar> 
1167
(
0.0001192378526
0.0001192264431
0.0001192019826
0.0001191658318
0.0001191187863
0.0001190615284
0.0001189905229
0.0001189078181
0.0001188159876
0.000118715668
0.0001186074547
0.0001184832599
0.0001183504033
0.0001182003446
0.0001180436485
0.0001178809215
0.0001177036336
0.0001175181057
0.0001173212928
0.0001171139076
0.000116897456
0.0001166695871
0.0001164340305
0.0001161961949
0.0001159392394
0.0001156799851
0.0001154164665
0.0001151425668
0.0001148663913
0.0001145807186
0.0001142948847
0.0001140008631
0.0001137085393
0.0001134190599
0.0001192190853
0.0001192076745
0.0001191832117
0.0001191470586
0.0001191000327
0.0001190427767
0.0001189700861
0.0001188874151
0.0001187956246
0.0001186953438
0.0001185865162
0.0001184613655
0.0001183269084
0.0001181769486
0.0001180203659
0.0001178577674
0.0001176789854
0.0001174936342
0.0001172953813
0.0001170882658
0.000116870488
0.000116642991
0.0001164062751
0.0001161674245
0.0001159125788
0.0001156525429
0.000115389816
0.0001151154504
0.0001148403128
0.0001145545281
0.0001142699784
0.0001139761996
0.0001136853706
0.0001133964522
0.000113102462
0.0001128039237
0.0001125096064
0.0001122221821
0.0001119311071
0.0001116465642
0.0001113631586
0.000111083159
0.0001108113163
0.0001105449572
0.0001102790616
0.0001100168343
0.0001097574899
0.0001095061627
0.0001092626133
0.0001090218191
0.000119200322
0.0001191889101
0.0001191644455
0.0001191283069
0.0001190812856
0.0001190225445
0.0001189496583
0.0001188670225
0.0001187752736
0.0001186750439
0.0001185645762
0.0001184395001
0.0001183034395
0.0001181535839
0.0001179971219
0.0001178343631
0.000117654404
0.000117469243
0.0001172695863
0.0001170627557
0.0001168436912
0.000116616601
0.0001163787788
0.0001161389724
0.0001158862628
0.0001156255096
0.0001153636168
0.0001150888482
0.00011481478
0.0001145289341
0.0001142456219
0.0001139521764
0.0001136628326
0.0001133744828
0.0001130821058
0.0001127843682
0.0001124917209
0.0001122059381
0.0001119158513
0.0001116329212
0.0001113505749
0.0001110721312
0.0001108017911
0.0001105365434
0.0001102720761
0.0001100110077
0.0001097530366
0.0001095030343
0.0001092607665
0.0001090211906
0.0001191815633
0.0001191701506
0.0001191456848
0.0001191095661
0.0001190625459
0.0001190021188
0.0001189292408
0.0001188466418
0.0001187549362
0.0001186547596
0.0001185426554
0.000118417657
0.000118279999
0.0001181302534
0.0001179739198
0.0001178096687
0.0001176298897
0.0001174449352
0.0001172439169
0.0001170373796
0.000116817081
0.0001165904154
0.0001163519429
0.0001161108288
0.0001158598015
0.0001155988631
0.0001153370143
0.0001150627209
0.0001147885914
0.00011450388
0.0001142207404
0.000113928722
0.0001136408663
0.0001133530726
0.0001130622786
0.000112765327
0.0001124743078
0.0001121898942
0.0001119009938
0.0001116196301
0.0001113383113
0.0001110613896
0.000110792501
0.0001105283343
0.0001102652587
0.0001100053203
0.0001097486889
0.0001094999799
0.0001092589633
0.000109020577
0.0001191628101
0.0001191513969
0.0001191269479
0.0001190908325
0.0001190438143
0.0001189817032
0.0001189088569
0.0001188262742
0.0001187346137
0.0001186344923
0.0001185207558
0.0001183958384
0.0001182565895
0.00011810696
0.0001179507801
0.0001177850328
0.0001176054468
0.0001174203636
0.0001172183603
0.0001170121397
0.0001167906547
0.0001165644319
0.0001163264949
0.0001160829845
0.0001158327088
0.0001155725821
0.0001153102967
0.0001150370329
0.0001147627856
0.000114479316
0.0001141963741
0.0001139057759
0.0001136194
0.0001133321554
0.000113042642
0.000112746734
0.0001124573044
0.0001121738027
0.000111886479
0.0001116066412
0.0001113263217
0.0001110508843
0.0001107834116
0.0001105203
0.0001102585847
0.0001099997513
0.0001097444313
0.0001094969886
0.0001092571973
0.000109019976
0.0001191440629
0.0001191326608
0.0001191082212
0.0001190721068
0.0001190236996
0.0001189612987
0.0001188884861
0.0001188059333
0.0001187143077
0.0001186142438
0.0001184988794
0.0001183740466
0.000118233214
0.0001180837203
0.0001179276954
0.0001177604594
0.0001175810797
0.0001173946308
0.0001171929198
0.0001169870339
0.0001167644015
0.0001165386493
0.0001163012765
0.0001160554294
0.0001158059352
0.0001155466475
0.000115283968
0.0001150117525
0.000114737421
0.0001144551986
0.0001141724739
0.0001138832865
0.0001135983737
0.0001133116753
0.0001130228632
0.0001127285337
0.0001124406587
0.0001121580461
0.0001118722617
0.0001115939137
0.0001113145689
0.0001110405826
0.0001107744951
0.0001105124162
0.0001102520341
0.0001099942843
0.0001097402512
0.0001094940515
0.0001092554632
0.0001090193859
0.0001191253418
0.0001191139411
0.0001190895022
0.00011905339
0.0001190032993
0.0001189409063
0.0001188681291
0.0001187856174
0.0001186940331
0.0001185939218
0.0001184770285
0.0001183520946
0.0001182098912
0.0001180605352
0.0001179046626
0.0001177359527
0.000117556799
0.0001173689995
0.0001171675996
0.000116960518
0.0001167383217
0.0001165125214
0.0001162762825
0.0001160283568
0.0001157794672
0.0001155210452
0.0001152580044
0.0001149868573
0.0001147124632
0.0001144314939
0.0001141489973
0.0001138612093
0.0001135777418
0.000113291585
0.0001130034626
0.0001127106807
0.0001124243279
0.0001121425834
0.0001118583049
0.0001115814148
0.0001113030226
0.000111030458
0.0001107657291
0.0001105046631
0.0001102455907
0.000109988906
0.0001097361383
0.0001094911615
0.0001092537569
0.0001090188052
0.0001191066294
0.0001190952292
0.0001190707918
0.0001190341553
0.0001189829106
0.0001189205364
0.0001188477872
0.0001187653186
0.0001186737872
0.0001185720427
0.000118455226
0.0001183287034
0.0001181866158
0.0001180373972
0.0001178816856
0.0001177115168
0.0001175326196
0.0001173434735
0.0001171424029
0.0001169341541
0.0001167124163
0.0001164856468
0.0001162515077
0.0001160028184
0.0001157532928
0.0001154957759
0.0001152323848
0.0001149623345
0.0001146878825
0.0001144081843
0.0001141259074
0.0001138395183
0.0001135574659
0.0001132718445
0.0001129844002
0.0001126931369
0.0001124082768
0.0001121273808
0.0001118445782
0.0001115691173
0.0001112916679
0.0001110204895
0.0001107570954
0.0001104970251
0.0001102392416
0.0001099836054
0.0001097320846
0.0001094883129
0.000109252075
0.0001090182328
0.0001190879251
0.0001190765258
0.0001190520905
0.0001190137719
0.0001189625342
0.0001189001937
0.0001188274614
0.0001187450385
0.0001186535624
0.0001185501898
0.0001184334558
0.0001183053494
0.0001181633836
0.0001180143097
0.0001178587679
0.0001176871701
0.0001175085278
0.0001173180567
0.0001171173491
0.0001169079442
0.0001166866855
0.0001164589788
0.0001162269481
0.0001159775284
0.0001157274002
0.0001154708037
0.00011520709
0.0001149381434
0.0001146636524
0.0001143852217
0.0001141031727
0.0001138181764
0.0001135375132
0.000113252422
0.0001129656424
0.0001126758709
0.0001123924916
0.0001121124107
0.0001118310567
0.0001115569992
0.0001112804766
0.0001110106596
0.0001107485793
0.0001104894893
0.0001102329762
0.0001099783741
0.0001097280835
0.0001094855011
0.0001092504148
0.0001090176678
0.0001190692296
0.0001190578315
0.0001190327562
0.0001189934003
0.0001189421712
0.0001188798661
0.0001188071638
0.0001187247781
0.0001186333604
0.0001185283651
0.0001184117177
0.0001182820355
0.0001181401978
0.0001179912762
0.000117835704
0.0001176629128
0.0001174845273
0.0001172927525
0.0001170924337
0.0001168818901
0.0001166611444
0.0001164325159
0.0001162023906
0.0001159524798
0.0001157017785
0.0001154461147
0.0001151821028
0.000114914264
0.0001146397497
0.0001143625811
0.0001140807656
0.0001137971476
0.0001135178561
0.0001132333044
0.0001129471611
0.0001126588561
0.0001123769322
0.0001120976502
0.00011181772
0.0001115450426
0.0001112694307
0.0001110009544
0.0001107401689
0.0001104820453
0.0001102267862
0.0001099732051
0.0001097241297
0.0001094827224
0.0001092487741
0.0001090171095
0.0001190505435
0.0001190390223
0.0001190123906
0.0001189730412
0.0001189218301
0.0001188595546
0.0001187868951
0.0001187045407
0.0001186131825
0.0001185065703
0.0001183900142
0.0001182587643
0.0001181170615
0.0001179683004
0.0001178112954
0.0001176387374
0.0001174606215
0.000117267576
0.0001170676498
0.0001168559931
0.0001166357873
0.0001164062572
0.0001161753909
0.0001159276647
0.0001156764367
0.0001154216966
0.0001151574221
0.0001148906787
0.0001146161616
0.0001143402408
0.0001140586626
0.0001137764081
0.0001134984709
0.0001132144507
0.0001129289327
0.0001126420709
0.0001123615786
0.0001120830804
0.0001118045513
0.0001115332328
0.0001112585169
0.0001109913626
0.0001107318547
0.000110474685
0.0001102206647
0.0001099680927
0.0001097202189
0.0001094799739
0.0001092471512
0.0001090165572
0.0001190310864
0.0001190186641
0.0001189920371
0.0001189526955
0.0001189015186
0.0001188392601
0.0001187666459
0.000118684346
0.0001185928546
0.0001184848074
0.0001183683473
0.0001182355387
0.0001180939804
0.0001179454084
0.0001177869614
0.0001176146476
0.0001174368135
0.0001172425312
0.0001170429996
0.0001168302564
0.0001166106048
0.0001163801998
0.0001161486189
0.0001159030775
0.0001156513512
0.0001153975379
0.0001151330277
0.0001148673718
0.0001145928778
0.000114318182
0.0001140368558
0.0001137559377
0.0001134793377
0.0001131958409
0.0001129109374
0.0001126254968
0.0001123464143
0.0001120686861
0.0001117915374
0.0001115211721
0.0001112477244
0.0001109818749
0.000110723629
0.0001104674017
0.0001102146064
0.0001099630325
0.0001097163478
0.0001094772532
0.0001092455446
0.0001090160104
0.0001190107377
0.0001189983179
0.0001189716964
0.0001189323639
0.0001188812228
0.0001188189837
0.0001187464173
0.000118664175
0.0001185710626
0.0001184630906
0.000118346104
0.0001182123741
0.0001180709761
0.0001179225807
0.0001177627055
0.0001175906469
0.0001174122501
0.0001172176075
0.0001170184847
0.0001168047024
0.0001165855961
0.0001163545874
0.0001161220706
0.0001158787129
0.0001156265093
0.000115373629
0.0001151088988
0.0001148443295
0.0001145698672
0.0001142963882
0.0001140153237
0.0001137357187
0.0001134604395
0.000113177458
0.0001128931589
0.0001126091311
0.0001123314256
0.0001120544545
0.0001117786668
0.0001115091606
0.0001112370446
0.0001109724841
0.0001107154855
0.0001104601899
0.0001102086068
0.000109958021
0.0001097125137
0.0001094745583
0.0001092439534
0.0001090154689
0.0001189904013
0.0001189779843
0.0001189513691
0.0001189120657
0.0001188609438
0.000118798746
0.0001187262105
0.0001186440291
0.0001185493017
0.0001184414197
0.0001183228667
0.0001181892699
0.0001180480297
0.0001178998194
0.0001177385307
0.0001175667385
0.0001173870785
0.0001171928069
0.0001169941065
0.0001167793078
0.00011656076
0.0001163303954
0.0001160957428
0.000115853774
0.0001156019037
0.0001153497726
0.0001150850243
0.0001148215395
0.000114547116
0.0001142748453
0.0001139940425
0.0001137157368
0.0001134409542
0.0001131592874
0.0001128755829
0.0001125929521
0.000112316601
0.000112040375
0.0001117659303
0.0001114972711
0.0001112264706
0.0001109631842
0.0001107074194
0.0001104530456
0.0001102026627
0.0001099530553
0.0001097087145
0.000109471888
0.0001092423766
0.0001090149323
0.0001189700776
0.0001189576639
0.0001189310561
0.0001188917868
0.0001188406823
0.0001187785299
0.0001187060268
0.0001186239093
0.0001185275734
0.0001184197862
0.0001182996755
0.0001181662184
0.0001180251437
0.000117877127
0.00011771444
0.0001175429453
0.0001173620201
0.0001171681321
0.000116968792
0.0001167540725
0.0001165360959
0.0001163063867
0.0001160696315
0.0001158285131
0.000115577528
0.0001153251048
0.0001150613941
0.0001147982984
0.0001145246118
0.0001142535406
0.0001139729992
0.0001136959788
0.0001134216444
0.0001131413171
0.0001128581979
0.0001125769457
0.0001123019312
0.0001120264391
0.0001117533205
0.000111485497
0.0001112159969
0.0001109539706
0.0001106994267
0.0001104459654
0.0001101967713
0.0001099481333
0.0001097049486
0.0001094692409
0.0001092408135
0.0001090144004
0.0001189497675
0.0001189373575
0.000118910778
0.0001188715245
0.0001188204392
0.0001187583346
0.0001186858888
0.000118603817
0.0001185058791
0.0001183981918
0.0001182765324
0.000118143222
0.0001180023205
0.0001178545061
0.0001176904469
0.0001175192525
0.0001173370771
0.0001171435849
0.0001169431893
0.000116728997
0.0001165109729
0.0001162825591
0.0001160437325
0.0001158034714
0.000115553376
0.0001153006742
0.0001150380001
0.0001147748661
0.0001145023442
0.000114231774
0.0001139521817
0.0001136764333
0.0001134025412
0.0001131235372
0.0001128409942
0.0001125611031
0.0001122874083
0.0001120126395
0.0001117408424
0.0001114738329
0.0001112056189
0.0001109448397
0.0001106915045
0.0001104389467
0.0001101909305
0.0001099432534
0.0001097012146
0.0001094666163
0.0001092392637
0.0001090138729
0.0001189294714
0.0001189170787
0.0001188905179
0.0001188512793
0.0001188002337
0.0001187381612
0.0001186657759
0.0001185828093
0.0001184842202
0.0001183766381
0.0001182534395
0.0001181202829
0.0001179795626
0.0001178314686
0.0001176665565
0.0001174956588
0.0001173122515
0.000117119181
0.0001169177353
0.0001167040817
0.0001164852243
0.0001162589097
0.0001160187937
0.0001157786442
0.0001155294418
0.0001152764736
0.0001150148341
0.0001147516687
0.0001144803042
0.0001142099209
0.0001139315804
0.0001136570907
0.0001133836353
0.0001131059388
0.0001128239746
0.0001125454171
0.000112273026
0.0001119989707
0.0001117284808
0.0001114622745
0.0001111953331
0.0001109357883
0.0001106836504
0.0001104319875
0.0001101851388
0.0001099384141
0.0001096975116
0.0001094640133
0.0001092377267
0.0001090133499
0.0001189092119
0.0001188968244
0.0001188702742
0.0001188310521
0.0001187800514
0.0001187180108
0.0001186456892
0.0001185611161
0.0001184626111
0.0001183551266
0.0001182303988
0.0001180974032
0.0001179568834
0.0001178073994
0.0001176427567
0.0001174721661
0.0001172875448
0.0001170949177
0.0001168924306
0.000116679326
0.0001164596545
0.0001162354367
0.0001159946917
0.0001157540273
0.0001155057391
0.0001152524967
0.0001149918902
0.0001147286981
0.0001144584836
0.0001141882876
0.000113911187
0.0001136379614
0.0001133649188
0.0001130885148
0.0001128071267
0.0001125298816
0.0001122587791
0.0001119854279
0.0001117162308
0.0001114508184
0.0001111851366
0.0001109268143
0.0001106758623
0.0001104250863
0.0001101793948
0.0001099336144
0.0001096938389
0.0001094614316
0.0001092362022
0.0001090128311
0.0001188889685
0.0001188765862
0.0001188500476
0.0001188108508
0.0001187598901
0.0001186978934
0.0001186256297
0.0001185394566
0.0001184410503
0.0001183320457
0.0001182074298
0.0001180746076
0.000117934286
0.0001177834135
0.0001176190495
0.0001174487761
0.0001172629747
0.0001170707849
0.0001168672753
0.0001166547507
0.0001164342621
0.0001162121384
0.0001159707806
0.0001157296161
0.0001154822481
0.0001152287376
0.0001149691823
0.0001147059474
0.000114436875
0.0001141668664
0.0001138909942
0.0001136190211
0.0001133463848
0.000113071259
0.0001127904391
0.0001125144915
0.0001122446631
0.000111972009
0.0001117040891
0.0001114394618
0.0001111750273
0.0001109179157
0.0001106681389
0.0001104182418
0.0001101736977
0.0001099288537
0.0001096901959
0.0001094588708
0.00010923469
0.0001090123165
0.0001188687413
0.0001188563648
0.0001188298389
0.0001187906834
0.0001187397509
0.0001186778137
0.0001186055986
0.0001185178321
0.0001184195295
0.0001183089862
0.0001181845211
0.0001180518759
0.0001179117595
0.0001177595127
0.0001175954368
0.0001174254565
0.000117238534
0.0001170467835
0.0001168422698
0.0001166303362
0.0001164090468
0.0001161871941
0.0001159470566
0.0001157054063
0.0001154589596
0.0001152051907
0.0001149466831
0.0001146834101
0.0001144154915
0.0001141456509
0.0001138709959
0.0001136002626
0.0001133280276
0.0001130541661
0.0001127739071
0.0001124992427
0.0001122306746
0.0001119587208
0.0001116920534
0.0001114282026
0.0001111650032
0.0001109090913
0.0001106604792
0.0001104114531
0.0001101680467
0.0001099241314
0.0001096865821
0.0001094563305
0.0001092331899
0.000109011806
0.000118848531
0.0001188361609
0.0001188096573
0.0001187705365
0.0001187196345
0.00011865776
0.0001185848054
0.0001184962438
0.0001183980498
0.0001182859772
0.0001181616696
0.0001180292088
0.0001178893055
0.0001177356987
0.0001175719206
0.0001174007359
0.0001172142151
0.0001170229138
0.0001168174283
0.0001166060799
0.0001163840071
0.0001161615205
0.000115923517
0.0001156814087
0.0001154358692
0.000115181851
0.0001149243872
0.0001146610806
0.0001143943094
0.0001141246352
0.0001138511878
0.0001135816811
0.0001133098427
0.000113036712
0.0001127575263
0.0001124841316
0.0001122168104
0.0001119455489
0.0001116801214
0.000111417039
0.0001111550632
0.00011090034
0.0001106528822
0.0001104047196
0.0001101624414
0.0001099194471
0.0001096829973
0.0001094538105
0.0001092317019
0.0001090112996
0.0001188283385
0.0001188159769
0.0001187895081
0.000118750411
0.0001186995494
0.0001186377331
0.0001185631799
0.0001184746929
0.0001183766127
0.0001182630202
0.000118138877
0.0001180066079
0.0001178669258
0.0001177119732
0.0001175485167
0.0001173761289
0.000117190019
0.0001169991761
0.0001167927463
0.0001165819809
0.000116359141
0.0001161360356
0.0001159001594
0.0001156576133
0.000115412973
0.0001151587274
0.0001149022898
0.0001146389537
0.0001143733219
0.0001141038142
0.0001138315806
0.000113563272
0.0001132918258
0.0001130192033
0.0001127412933
0.0001124691551
0.0001122030682
0.0001119324913
0.0001116682914
0.0001114059696
0.0001111452061
0.0001108916609
0.0001106453473
0.0001103980408
0.0001101568815
0.0001099148006
0.0001096794414
0.0001094513108
0.0001092302258
0.0001090107973
0.0001188081743
0.0001187958315
0.0001187693792
0.0001187303077
0.0001186795036
0.0001186177341
0.0001185415884
0.0001184532029
0.0001183552193
0.0001182401166
0.0001181161446
0.0001179840748
0.0001178446216
0.0001176883507
0.0001175252199
0.0001173516364
0.0001171659468
0.0001169748517
0.0001167682128
0.0001165580376
0.0001163358324
0.0001161107378
0.0001158769817
0.0001156340089
0.0001153902675
0.0001151358104
0.0001148803866
0.0001146170316
0.0001143525247
0.0001140831833
0.000113812153
0.0001135450314
0.0001132739729
0.0001130018528
0.0001127252055
0.0001124543112
0.0001121891902
0.0001119195461
0.0001116565621
0.0001113949934
0.0001111354311
0.0001108830534
0.0001106378743
0.0001103914164
0.0001101513666
0.0001099101915
0.0001096759142
0.0001094488313
0.0001092287616
0.000109010299
0.0001169499158
0.0001167438271
0.0001165342492
0.0001163127132
0.000116085625
0.0001158531572
0.0001156105924
0.0001153677493
0.000115113088
0.0001148586737
0.0001145953179
0.0001143319137
0.0001140627385
0.0001137929012
0.0001135269558
0.0001132562808
0.0001129846577
0.0001127092606
0.0001124395979
0.0001121751228
0.0001119067119
0.0001116449324
0.0001113841095
0.0001111257376
0.0001108745172
0.0001106304626
0.0001103848462
0.0001101458966
0.00010990562
0.0001096724155
0.0001094463719
0.0001092273093
0.0001090098048
)
;

boundaryField
{
    front_top
    {
        type            wedge;
    }
    front_middle
    {
        type            wedge;
    }
    front_bottom
    {
        type            wedge;
    }
    back_top
    {
        type            wedge;
    }
    back_middle
    {
        type            wedge;
    }
    back_bottom
    {
        type            wedge;
    }
    axis_top
    {
        type            symmetryPlane;
    }
    axis_middle
    {
        type            symmetryPlane;
    }
    axis_bottom
    {
        type            symmetryPlane;
    }
    wall_top
    {
        type            calculated;
        value           nonuniform 0();
    }
    wall_middle
    {
        type            calculated;
        value           nonuniform 0();
    }
    wall_bottom
    {
        type            calculated;
        value           uniform 0.0001089022317;
    }
    inlet
    {
        type            calculated;
        value           nonuniform 0();
    }
    outlet
    {
        type            calculated;
        value           nonuniform 0();
    }
    procBoundary1to0
    {
        type            processor;
        value           nonuniform List<scalar> 
51
(
0.0001187880407
0.000118775706
0.0001187492715
0.0001187102275
0.0001186594835
0.0001185977639
0.0001185200322
0.0001184317529
0.0001183322739
0.0001182172758
0.000118093477
0.0001179616171
0.0001178212239
0.0001176648302
0.0001175020225
0.0001173272594
0.0001171419989
0.0001171419989
0.0001169251203
0.0001167195893
0.0001165099268
0.000116289753
0.0001160606948
0.000115829067
0.0001155873609
0.0001153449883
0.0001150905563
0.0001148371474
0.000114573794
0.0001143114851
0.0001140424832
0.0001137738219
0.000113509042
0.0001132387619
0.0001129676155
0.0001126934565
0.0001124250134
0.0001121611773
0.0001118939878
0.0001116334016
0.0001113733174
0.0001111161251
0.0001108660518
0.0001106231122
0.0001103783301
0.0001101404715
0.0001099010859
0.0001096689455
0.0001094439325
0.0001092258688
0.0001090093146
)
;
    }
    procBoundary1to2
    {
        type            processor;
        value           nonuniform List<scalar> 
51
(
0.0001192566354
0.0001192452151
0.0001192207575
0.0001191846096
0.0001191375452
0.0001190802864
0.0001190109677
0.0001189282304
0.0001188363812
0.0001187360167
0.0001186277473
0.0001185051873
0.0001183725622
0.0001182237697
0.0001180669674
0.000117904121
0.0001177283662
0.0001175426546
0.0001173473082
0.0001171396859
0.0001169245947
0.0001166964097
0.0001164620514
0.0001162230786
0.0001159662603
0.0001157078712
0.0001154436011
0.0001151702408
0.0001148930681
0.0001146075699
0.0001143204727
0.0001140262492
0.0001137324258
0.0001134423995
0.0001131234258
0.0001131234258
0.0001128240731
0.0001125280399
0.0001122389246
0.0001119468291
0.0001116606204
0.0001113761189
0.0001110945123
0.0001108211189
0.0001105536132
0.000110286246
0.0001100228254
0.0001097620684
0.0001095093787
0.0001092645118
0.0001090224651
)
;
    }
}


// ************************************************************************* //
