/*--------------------------------*- C++ -*----------------------------------*\
  =========                 |
  \\      /  F ield         | OpenFOAM: The Open Source CFD Toolbox
   \\    /   O peration     | Website:  https://openfoam.org
    \\  /    A nd           | Version:  7
     \\/     M anipulation  |
\*---------------------------------------------------------------------------*/
FoamFile
{
    version     2.0;
    format      ascii;
    class       volScalarField;
    location    "0.0021";
    object      thermo:mu;
}
// * * * * * * * * * * * * * * * * * * * * * * * * * * * * * * * * * * * * * //

dimensions      [1 -1 -1 0 0 0 0];

internalField   nonuniform List<scalar> 
1167
(
62962.71049
62423.94953
61286.79999
59649.80045
57594.7071
55203.22445
52556.65366
49731.40371
46798.59783
43821.51261
40853.85738
37940.34689
35116.59777
32410.01755
29839.68311
27418.63638
25154.10388
23049.16781
21102.18511
19309.45794
17665.31844
16162.05027
14791.73173
13545.31675
12414.15309
11389.01378
10461.4832
9623.082985
8865.986213
8182.698537
7566.337829
7010.442922
6509.095623
6056.878127
62079.34273
61549.2549
60430.40005
58819.70546
56798.44579
54445.18569
51841.56875
49061.77578
46175.76001
43245.5105
40324.33242
37456.16295
34675.91595
32010.30824
29478.42271
27093.13404
24861.87635
22787.20656
20867.8383
19100.45261
17479.08373
15996.58965
14644.89864
13415.41974
12299.39585
11288.01005
10372.74977
9545.442643
8798.213266
8123.800614
7515.291495
6966.408492
6471.21854
6024.456594
5621.143475
5256.820024
4927.463612
4629.38434
4359.319597
4114.303906
3891.667251
3689.048502
3504.353115
3335.691382
3181.382206
3039.932795
2910.020612
2790.469578
2680.237058
2578.392728
61210.47118
60688.90916
59588.03735
58003.89208
56015.18038
53700.22389
51138.05416
48402.92636
45562.89075
42678.96472
39803.52948
36979.78522
34242.14108
31616.86075
29122.84523
26772.8593
24574.38874
22529.56727
20637.57067
18895.15124
17296.31265
15834.37827
14501.12658
13288.40227
12187.34833
11189.54534
10286.38585
9469.994477
8732.453044
8066.730111
7465.89081
6923.833523
6434.624439
5993.148619
5594.430529
5234.13548
4908.256973
4613.19268
4345.746431
4102.977197
3882.278527
3681.331463
3498.08593
3330.672135
3177.445647
3036.938173
2907.849014
2789.019266
2679.421489
2578.13726
60355.85977
59842.67948
58759.48589
57201.6215
55244.70501
52967.47849
50445.93767
47754.69805
44959.84796
42121.45107
39290.98098
36510.92116
33815.18961
31229.60575
28772.89261
26457.96122
24291.55329
22276.19753
20411.37545
18693.49352
17117.03339
15675.33203
14360.35211
13164.15483
12077.92329
11093.48148
10202.2912
9396.580467
8668.597691
8011.32405
7418.015889
6882.565042
6399.195697
5962.824243
5568.557541
5212.159975
4889.643623
4597.497473
4332.576308
4091.978691
3873.154755
3673.8333
3491.986375
3325.783839
3173.609509
3034.018461
2905.730843
2787.604143
2678.625477
2577.887854
59515.27473
59010.33506
57945.27859
56412.47836
54486.81524
52246.65798
49765.77951
47116.93567
44366.49192
41572.84483
38786.57945
36049.47973
33394.98392
30848.47674
28428.76323
26148.11397
24013.3262
22027.10352
20189.0584
18495.42023
16941.15103
15519.36912
14222.54332
13042.57542
11971.0394
10999.68941
10120.30795
9325.057371
8606.450539
7957.440086
7371.485901
6842.474228
6364.797848
5933.374725
5543.435107
5190.808023
4871.549801
4582.239804
4319.756163
4081.264333
3864.259784
3666.517875
3486.030973
3321.007965
3169.859457
3031.16288
2903.658356
2786.219075
2677.84615
2577.643615
58688.48502
58192.13663
57144.54204
55636.25373
53742.00832
51537.57255
49096.6646
46489.85814
43782.68525
41033.0254
38290.22137
35595.37332
32981.44992
30473.62356
28090.232
25843.27144
23739.6672
21782.37347
19970.56646
18300.87353
16768.5205
15366.41408
14087.51265
12923.56097
11866.5102
10908.05101
10040.27965
9255.298363
8545.880123
7904.954467
7326.182845
6803.45081
6331.318368
5904.708766
5518.989761
5170.008364
4853.914133
4567.358434
4307.242912
4070.79837
3855.564307
3659.361175
3480.200745
3316.329553
3166.183923
3028.362739
2901.625311
2784.859925
2677.081196
2577.403823
57876.09481
57387.75217
56356.9234
54872.73582
53009.50912
50840.03805
48438.41315
45873.20441
43208.6698
40501.90791
37801.80636
35148.57193
32574.78571
30104.93847
27757.14732
25543.38691
23470.60279
21541.76906
19755.85702
18109.98488
16599.07443
15216.4466
13955.17218
12807.02871
11764.23246
10818.47134
9962.09414
9187.20615
8486.774724
7853.76729
7282.004721
6765.400089
6298.670934
5876.748744
5495.137013
5149.702338
4836.686255
4552.810899
4295.001187
4060.551628
3847.044504
3652.343973
3474.48034
3311.736515
3162.573574
3025.611029
2899.62668
2783.523361
2676.328752
2577.167895
57077.07308
56596.54852
55582.20671
54121.98158
52288.96849
50154.18146
47790.85894
45266.54112
42644.17434
39979.88145
37321.68601
34709.35554
32174.76736
29742.18161
27429.45652
25248.41264
23206.20193
21305.244
19544.8785
17922.5052
16432.75144
15069.43067
13825.43555
12692.96075
11664.11188
10730.90918
9885.650215
9120.712588
8429.035806
7803.816833
7238.863267
6728.261711
6266.782143
5849.429375
5471.819929
5129.840974
4819.824805
4538.562249
4283.001963
4050.500256
3838.6881
3645.450666
3468.857331
3307.219088
3159.020881
3022.902102
2897.65841
2782.206699
2675.587318
2576.935367
56291.14269
55818.30711
54820.17972
53384.08621
51580.19034
49479.93442
47153.83708
44669.7196
42088.81249
39466.2774
36849.345
34277.20445
31781.1915
29385.29239
27107.10613
24958.47055
22946.22125
21072.74936
19337.71299
17738.37676
16269.48633
14925.19606
13698.22743
12581.18234
11566.05806
10645.19849
9810.856111
9055.676564
8372.576309
7754.978707
7196.68202
6691.957653
6235.58953
5822.697957
5448.990729
5110.383365
4803.31133
4524.583656
4271.221413
4040.624761
3830.473291
3638.668585
3463.321655
3302.769388
3155.519775
3020.231412
2895.717247
2780.907784
2674.855692
2576.705861
55518.08547
55052.81245
54070.95469
52658.249
50882.98396
48816.67348
46527.51739
44082.59116
41542.45057
38960.9801
36384.63428
33852.03521
31393.98853
29034.21038
26790.08371
24673.45973
22690.61094
20844.23411
19134.24397
17557.54086
16109.30878
14783.67443
13573.48368
12471.61399
11469.98781
10561.25526
9737.628603
8992.017284
8317.319141
7707.180793
7155.394627
6656.414366
6205.039784
5796.528409
5426.609233
5091.295322
4787.100333
4510.851267
4259.63993
4030.909178
3822.385926
3631.987434
3457.865165
3298.381043
3152.065363
3017.595303
2893.800571
2779.624885
2674.132905
2576.479079
54757.68701
54299.91571
53334.50485
51944.26879
50197.42208
48164.22256
45911.70724
43505.06173
41004.95684
38463.87456
35927.45519
33433.76436
31013.08853
28688.87748
26478.57025
24393.19246
22439.31763
20619.74993
18934.33699
17379.93949
15952.11725
14644.80425
13451.23979
12364.17633
11375.89337
10479.00198
9665.934407
8929.662282
8263.213342
7660.359806
7114.943402
6621.580201
6175.08735
5770.857562
5404.64155
5072.548197
4771.16791
4497.345335
4248.241366
4021.340419
3814.415496
3625.398843
3452.481255
3294.048907
3148.653703
3014.990829
2891.90628
2778.356613
2673.418183
2576.254777
54010.13106
53560.11943
52610.08759
51241.9492
49523.52559
47522.40788
45305.92212
42937.496
40476.26194
37974.84601
35477.70867
33022.30664
30638.45862
28349.56554
26172.21633
24117.61554
22192.28725
20399.24844
18737.93556
17205.52475
15797.79108
14508.51565
13331.3069
12258.80176
11283.6478
10398.36809
9595.685516
8868.546549
8210.214908
7614.46009
7075.300743
6587.410562
6145.693196
5745.651789
5383.059075
5054.11798
4755.494195
4484.04961
4237.012622
4011.915581
3806.553233
3618.895905
3447.164526
3289.768799
3145.281607
3012.415622
2890.032685
2777.101855
2672.710907
2576.032763
53275.247
52832.40926
51897.50133
50551.09704
48860.61888
46891.05879
44710.00631
42379.17302
39956.68152
37494.05026
35035.47245
32617.8005
30270.31929
28015.86546
25870.9613
23846.67515
21949.59431
20182.55273
18544.98055
17034.38085
15646.26593
14374.76285
13213.61948
12155.42532
11193.16854
10319.28929
9526.795407
8808.611774
8158.234365
7569.432583
7036.415089
6553.866802
6116.823771
5720.882389
5361.837557
5035.99801
4740.062533
4470.950467
4225.942589
4002.619515
3798.792247
3612.473136
3441.910668
3285.537378
3141.94653
3009.867792
2888.178442
2775.859725
2672.010583
2575.812885
52552.3631
52116.58052
51196.54794
49872.13779
48208.52217
46270.60798
44123.80452
41829.94883
39445.56721
37021.32374
34600.7584
32220.09061
29908.23924
27687.6951
25574.74158
23580.31184
21711.15326
19969.60339
18355.41126
16866.28317
15497.47665
14243.56406
13098.11806
12054.04711
11104.39392
10241.71758
9459.207572
8749.805433
8107.22372
7525.234138
6998.23244
6520.916097
6088.475046
5696.524115
5340.956064
5018.161103
4724.85884
4458.036482
4215.022076
3993.443338
3791.126904
3606.126112
3436.716233
3281.351986
3138.646456
3007.345846
2886.342491
2774.629527
2671.316824
2575.595023
51841.27544
51412.4326
50507.03261
49204.37125
47567.05848
45660.31492
43547.16989
41289.68143
38942.79202
36556.31995
34173.16026
31828.91344
29552.1384
27364.98165
25283.48974
23318.68347
21476.79353
19760.34486
18169.29801
16701.16865
15351.36303
14114.75268
12984.74104
11954.58698
11017.26859
10165.65019
9392.870488
8692.112639
8057.138981
7481.8259
6960.718694
6488.52854
6060.59768
5672.556214
5320.397061
5000.588797
4709.8713
4445.298141
4204.243504
3984.381092
3783.552554
3599.851224
3431.57844
3277.210499
3135.379782
3004.848604
2884.523999
2773.410715
2670.629329
2575.379082
51141.78451
50719.76867
49829.42586
48547.48775
46936.05343
45059.96883
42980.55191
40758.23126
38448.22939
36098.92471
33752.57705
31444.17954
29201.93531
27047.65029
24997.26685
23061.52994
21246.45273
19554.71616
17986.49867
16538.97936
15207.93019
13988.26749
12873.42786
11856.94525
10931.7387
10090.97225
9327.738549
8635.477621
8007.942391
7439.20056
6923.842965
6456.677772
6033.168378
5648.960542
5300.145541
4983.268816
4695.089981
4432.727498
4193.610055
3975.427874
3776.06539
3593.645537
3426.495044
3273.111214
3132.145236
3002.375138
2882.722312
2772.202864
2669.947862
2575.164991
50453.69479
50038.83026
49162.93195
47901.30708
46315.88986
44469.40996
42423.17533
40235.78354
37961.75124
35649.024
33338.90729
31065.79833
28857.54867
26735.72334
24716.02758
22808.74672
21020.06578
19352.7733
17806.89937
16379.6574
15067.13325
13864.04781
12764.17362
11761.06897
10847.75394
10017.63715
9263.768788
8579.840984
7959.599667
7397.312042
6887.578843
6425.34101
6006.16799
5625.721244
5280.201437
4966.190682
4680.506488
4420.317904
4183.107685
3966.579631
3768.66229
3587.506669
3421.464238
3269.052774
3128.941814
2999.924716
2880.936921
2771.005642
2669.272242
2574.952693
49777.53272
49369.28193
48507.28922
47265.65239
45705.91969
43888.48089
41874.89379
39722.11047
37483.51516
35206.505
32932.04951
30693.67873
28519.06215
26429.24133
24439.52904
22560.26355
20797.56587
19154.4156
17630.43804
16223.14143
14928.83008
13742.03817
12656.91467
11666.90741
10765.3328
9945.601402
9200.924061
8525.167228
7912.079218
7356.12064
6851.903204
6394.527865
5979.579888
5602.824569
5260.546707
4949.345404
4666.113685
4408.063756
4172.731256
3957.833015
3761.340702
3581.432687
3416.484573
3265.034102
3125.768724
2997.49677
2879.167432
2769.818798
2668.60233
2574.742146
49112.3879
48710.62627
47862.3172
46640.56553
45105.88327
43317.28414
41335.56063
39216.83075
37013.32587
34771.72033
32532.20975
30328.08916
28186.399
26127.89714
24167.69875
22316.00999
20579.03054
18959.48873
17457.0522
16069.50231
14792.96416
13622.18601
12551.55447
11574.41133
10684.37739
9874.824173
9139.222863
8471.423801
7865.352489
7315.601824
6816.795232
6364.192545
5953.389464
5580.258531
5241.165241
4932.725241
4651.905475
4395.961954
4162.477123
3949.18525
3754.098529
3575.422025
3411.554886
3261.054345
3122.625346
2995.090862
2877.413544
2768.642138
2667.938023
2574.533319
48458.05733
48062.68165
47227.83871
46026.08234
44515.61807
42755.75581
40805.03205
38719.8121
36550.84173
34344.08726
32139.04803
29968.57552
27859.28271
25831.61001
23900.46235
22075.9204
20364.31197
18767.92818
17286.68075
15918.56137
14659.48421
13504.51962
12448.04057
11483.53325
10604.82993
9805.267076
9078.571822
8418.580671
7819.434889
7275.733368
6782.236138
6334.317524
5927.583784
5558.012597
5222.048581
4916.323488
4637.876612
4384.017206
4152.342215
3940.634021
3746.934049
3569.473409
3406.67425
3257.112831
3119.511202
2992.706655
2875.675031
2767.475521
2667.279244
2574.32619
47814.36077
47425.26986
46603.93385
45421.59264
43934.96505
42203.37926
40283.4376
38230.92093
36095.93969
33923.48646
31752.37783
29615.02752
27537.62602
25540.30037
23637.74863
21840.14604
20153.2672
18579.66844
17119.35912
15770.24794
14528.33552
13388.94535
12346.32569
11394.28253
10526.65019
9736.894102
9018.93917
8366.610132
7774.26337
7236.495032
6748.211386
6304.888937
5902.151742
5536.092426
5203.188928
4900.134125
4624.022485
4372.215428
4142.323898
3932.177374
3739.845827
3563.585801
3401.841917
3253.20903
3116.425922
2990.343895
2873.951726
2766.318843
2666.62594
2574.120741
47181.12139
46798.26637
45990.56035
44826.93252
43363.97561
41660.00736
39770.64936
37750.02994
35648.49831
33509.80685
31372.09727
29267.3508
27221.3412
25253.88607
23379.6409
21608.37972
19945.83025
18394.6453
16954.99403
15624.50404
14399.46222
13275.37255
12246.36595
11306.59206
10449.80054
9669.710419
8960.29535
8315.486524
7729.812696
7197.868264
6714.731791
6275.894065
5877.082861
5514.480571
5184.579804
4884.152011
4610.339116
4360.553601
4132.419916
3923.813653
3732.832663
3557.758343
3397.057285
3249.342525
3113.36922
2988.002393
2872.243505
2765.172031
2665.978072
2573.916962
46558.46717
46182.04141
45387.14824
44241.94056
42802.68705
41125.49169
39266.22856
37277.49516
35208.39855
33102.93808
30998.10429
28925.45063
26910.33994
24972.44058
23125.9843
21380.54982
19741.93594
18212.88209
16793.45305
15481.26881
14272.92692
13163.75557
12148.1191
11220.39293
10374.24565
9603.668164
8902.612783
8265.201476
7686.062587
7159.83599
6681.753832
6247.32119
5852.367556
5493.163366
5166.215642
4868.37287
4596.828672
4349.028987
4122.628269
3915.541413
3725.893531
3551.990319
3392.31986
3245.512982
3110.340876
2985.682007
2870.550281
2764.035034
2665.335616
2573.714846
18034.3149
16634.67602
15340.48811
14148.56187
13054.04799
12051.60698
11135.64627
10299.95151
9538.713536
8845.865551
8215.749897
7642.994205
7122.382416
6649.264444
6219.15964
5827.997256
5472.134125
5148.091318
4852.792799
4583.489201
4337.639256
4112.947239
3907.359418
3719.02756
3546.281126
3387.629238
3241.720135
3107.34072
2983.382631
2868.871994
2762.90782
2664.698557
2573.514391
)
;

boundaryField
{
    front_top
    {
        type            wedge;
    }
    front_middle
    {
        type            wedge;
    }
    front_bottom
    {
        type            wedge;
    }
    back_top
    {
        type            wedge;
    }
    back_middle
    {
        type            wedge;
    }
    back_bottom
    {
        type            wedge;
    }
    axis_top
    {
        type            symmetryPlane;
    }
    axis_middle
    {
        type            symmetryPlane;
    }
    axis_bottom
    {
        type            symmetryPlane;
    }
    wall_top
    {
        type            calculated;
        value           nonuniform 0();
    }
    wall_middle
    {
        type            calculated;
        value           nonuniform 0();
    }
    wall_bottom
    {
        type            calculated;
        value           uniform 2530.329233;
    }
    inlet
    {
        type            calculated;
        value           nonuniform 0();
    }
    outlet
    {
        type            calculated;
        value           nonuniform 0();
    }
    procBoundary1to0
    {
        type            processor;
        value           nonuniform List<scalar> 
51
(
45946.25926
45575.81419
44793.53341
43666.45791
42250.52777
40599.68764
38770.04137
36812.6929
34775.98263
32702.91029
30630.34727
28589.32793
26604.76821
24695.84893
22876.60668
21156.58426
19541.51733
19541.51733
17858.78908
16478.60806
15202.17989
14026.31398
12946.20341
11956.75734
11052.31642
10226.91174
9474.817718
8790.028997
8167.077075
7600.589876
7085.505556
6617.251542
6191.399595
5803.984645
5451.386682
5130.202002
4837.40799
4570.311121
4326.38256
4103.375436
3899.266657
3712.234037
3540.63028
3382.985098
3237.963781
3104.368626
2981.104193
2867.208601
2761.790368
2664.066888
2573.315594
)
;
    }
    procBoundary1to2
    {
        type            processor;
        value           nonuniform List<scalar> 
51
(
63861.40861
63313.2281
62157.46491
60493.70009
58404.16476
55973.78591
53283.48919
50411.97092
47432.1687
44407.162
41392.11295
38432.57952
35564.68243
32816.0672
30206.69681
27749.37002
25451.37853
23315.50789
21340.58197
19522.2865
17855.08971
16330.9624
14941.73108
13678.31111
12531.75311
11492.74715
10552.75289
9703.092874
8935.955867
8243.609801
7619.211221
7056.114141
6548.423126
6090.567757
5648.813129
5648.813129
5280.316602
4947.353027
4646.14428
4373.360775
4126.012962
3901.36551
3697.013766
3510.817003
3340.864561
3185.436988
3043.015722
2912.255262
2791.961458
2681.075749
2578.655369
)
;
    }
}


// ************************************************************************* //
