/*--------------------------------*- C++ -*----------------------------------*\
  =========                 |
  \\      /  F ield         | OpenFOAM: The Open Source CFD Toolbox
   \\    /   O peration     | Website:  https://openfoam.org
    \\  /    A nd           | Version:  7
     \\/     M anipulation  |
\*---------------------------------------------------------------------------*/
FoamFile
{
    version     2.0;
    format      ascii;
    class       volVectorField;
    location    "0.0021";
    object      U;
}
// * * * * * * * * * * * * * * * * * * * * * * * * * * * * * * * * * * * * * //

dimensions      [0 1 -1 0 0 0 0];

internalField   nonuniform List<vector> 
1167
(
(-1.158492675e-06 -2.221424223e-18 -0.04989896557)
(-3.01715622e-06 -3.969814887e-18 -0.04989789021)
(-4.750745164e-06 -5.680169526e-18 -0.04989555348)
(-6.521672837e-06 -8.498200184e-18 -0.04989193914)
(-8.279991705e-06 -5.198727217e-18 -0.04988691147)
(-1.004642844e-05 -6.948118308e-18 -0.04988024456)
(-1.187606586e-05 -7.486696472e-18 -0.04987161652)
(-1.384091649e-05 -1.050415841e-17 -0.04986061492)
(-1.601975909e-05 -1.297516318e-17 -0.04984674441)
(-1.849517853e-05 -1.300491071e-17 -0.04982943498)
(-2.134956292e-05 -1.467609291e-17 -0.04980804296)
(-2.466102861e-05 -1.591764695e-17 -0.04978184322)
(-2.850194714e-05 -1.702280142e-17 -0.04975001592)
(-3.293819254e-05 -1.808741018e-17 -0.04971162985)
(-3.802778314e-05 -1.903572814e-17 -0.04966562332)
(-4.382021315e-05 -2.015374064e-17 -0.04961078134)
(-5.035577159e-05 -2.180691758e-17 -0.04954570971)
(-5.766198355e-05 -2.151168873e-17 -0.04946880629)
(-6.574953499e-05 -2.155539383e-17 -0.049378229)
(-7.461138489e-05 -2.171838636e-17 -0.04927185517)
(-8.42181386e-05 -2.188887863e-17 -0.04914723748)
(-9.451380137e-05 -2.202043603e-17 -0.04900155305)
(-0.0001054129712 -2.209178518e-17 -0.04883154358)
(-0.0001167962833 -2.207977575e-17 -0.0486334503)
(-0.0001285072151 -2.195771143e-17 -0.04840293926)
(-0.0001403500192 -2.171009639e-17 -0.04813502211)
(-0.000152088146 -2.132433228e-17 -0.04782396992)
(-0.0001634457037 -2.125135083e-17 -0.04746322831)
(-0.0001741106802 -2.107401091e-17 -0.04704533203)
(-0.000183742429 -2.12183781e-17 -0.04656182989)
(-0.0001919818671 -2.096208675e-17 -0.04600322291)
(-0.0001984661062 -2.068858351e-17 -0.04535892538)
(-0.0002028457108 -2.035515413e-17 -0.04461725309)
(-0.0002048054389 -1.995419147e-17 -0.04376544724)
(-1.332483653e-06 -1.370689911e-18 -0.04991233682)
(-3.471055064e-06 -1.879887978e-18 -0.04991124294)
(-5.467170396e-06 -3.406111534e-18 -0.04990887021)
(-7.504314646e-06 -5.076317287e-18 -0.04990522638)
(-9.513957669e-06 -6.11647415e-18 -0.04990020689)
(-1.150303954e-05 -7.535362361e-18 -0.04989362795)
(-1.351289132e-05 -9.233418068e-18 -0.04988521201)
(-1.560250093e-05 -1.08991165e-17 -0.0498745881)
(-1.784209306e-05 -1.241196846e-17 -0.04986129218)
(-2.030778931e-05 -1.362762017e-17 -0.04984477261)
(-2.307759268e-05 -1.478416643e-17 -0.04982439355)
(-2.622732486e-05 -1.569384286e-17 -0.04979943139)
(-2.98275304e-05 -1.656045227e-17 -0.04976906401)
(-3.394164555e-05 -1.732329738e-17 -0.04973235469)
(-3.862550885e-05 -1.815383429e-17 -0.04968823196)
(-4.39270304e-05 -1.886857712e-17 -0.04963546553)
(-4.988465276e-05 -1.960847111e-17 -0.04957263942)
(-5.652308192e-05 -2.018194478e-17 -0.04949812221)
(-6.385140026e-05 -2.071272183e-17 -0.04941003141)
(-7.186252844e-05 -2.117752491e-17 -0.04930619191)
(-8.052722001e-05 -2.156519404e-17 -0.04918409101)
(-8.97916627e-05 -2.186781919e-17 -0.04904082463)
(-9.957389149e-05 -2.208331297e-17 -0.04887303776)
(-0.0001097603531 -2.221474971e-17 -0.04867685833)
(-0.000120203121 -2.224618467e-17 -0.04844782425)
(-0.0001307185882 -2.218077385e-17 -0.04818080593)
(-0.0001410869524 -2.202485326e-17 -0.04786992548)
(-0.0001510539418 -2.179603842e-17 -0.04750847735)
(-0.0001603352025 -2.14813187e-17 -0.04708885309)
(-0.00016862382 -2.103951071e-17 -0.04660247629)
(-0.0001756005025 -2.100539037e-17 -0.0460397546)
(-0.000180947335 -2.083912045e-17 -0.04539005305)
(-0.0001843634386 -2.056949816e-17 -0.04464169575)
(-0.0001855832179 -2.020137436e-17 -0.04378199924)
(-0.0001843939914 -1.973573731e-17 -0.04279733974)
(-0.0001806538678 -1.919284475e-17 -0.04167324949)
(-0.0001743061043 -1.855591429e-17 -0.04039454834)
(-0.0001653909516 -1.780219261e-17 -0.03894549781)
(-0.0001540533821 -1.69160248e-17 -0.03730997438)
(-0.0001405442711 -1.590208248e-17 -0.03547165496)
(-0.000125217847 -1.476604302e-17 -0.03341420021)
(-0.0001085242161 -1.351887721e-17 -0.03112143765)
(-9.099826867e-05 -1.216340145e-17 -0.02857753839)
(-7.32445781e-05 -1.071316881e-17 -0.02576717371)
(-5.591992952e-05 -9.186214781e-18 -0.0226756468)
(-3.971005835e-05 -7.606007948e-18 -0.01928900245)
(-2.530981682e-05 -6.006684852e-18 -0.01559410905)
(-1.345957422e-05 -4.369360628e-18 -0.01157869762)
(-5.067647405e-06 -2.677836467e-18 -0.007231309017)
(-9.023331772e-07 -9.195034499e-19 -0.002540970226)
(-1.479620903e-06 1.718652332e-18 -0.0499266001)
(-3.855303075e-06 6.27375756e-18 -0.04992548737)
(-6.075194305e-06 2.237954035e-19 -0.04992307516)
(-8.34175557e-06 -3.282472119e-18 -0.04991938938)
(-1.057211265e-05 -5.358357866e-18 -0.04991434899)
(-1.276321397e-05 -6.480492024e-18 -0.04990780255)
(-1.494504904e-05 -1.063845075e-17 -0.04989951192)
(-1.71637078e-05 -1.152528741e-17 -0.04988914561)
(-1.947925906e-05 -1.273612119e-17 -0.04987627468)
(-2.195994549e-05 -1.405800211e-17 -0.04986037241)
(-2.46782786e-05 -1.560292374e-17 -0.04984081645)
(-2.770631535e-05 -1.525949054e-17 -0.04981688769)
(-3.111221187e-05 -1.646498904e-17 -0.04978776246)
(-3.49578217e-05 -1.731457052e-17 -0.04975249785)
(-3.929757847e-05 -1.802890381e-17 -0.04971001165)
(-4.417806581e-05 -1.837429066e-17 -0.04965905779)
(-4.963508235e-05 -1.817518639e-17 -0.04959819885)
(-5.56908799e-05 -1.861438588e-17 -0.04952577453)
(-6.235432746e-05 -1.972322399e-17 -0.04943986286)
(-6.961736549e-05 -2.05299852e-17 -0.04933823847)
(-7.745081608e-05 -2.119081905e-17 -0.04921832585)
(-8.580281776e-05 -2.170316017e-17 -0.04907714393)
(-9.459472965e-05 -2.209044519e-17 -0.04891124696)
(-0.0001037187927 -2.241475245e-17 -0.04871665726)
(-0.0001130355959 -2.261848105e-17 -0.04848879491)
(-0.0001223734269 -2.263611323e-17 -0.04822240209)
(-0.0001315286933 -2.249429824e-17 -0.0479114681)
(-0.000140267866 -2.219364565e-17 -0.0475491554)
(-0.0001483327347 -2.169652827e-17 -0.04712773383)
(-0.0001554475532 -2.092905046e-17 -0.04663852491)
(-0.0001613292972 -2.105814885e-17 -0.04607186553)
(-0.0001657000047 -2.09983531e-17 -0.04541709155)
(-0.0001683011219 -2.076943878e-17 -0.04466254992)
(-0.0001689091432 -2.036304926e-17 -0.04379563905)
(-0.0001673504866 -1.975478831e-17 -0.04280288081)
(-0.0001635164875 -1.944904253e-17 -0.04167001638)
(-0.000157374475 -1.897637565e-17 -0.04038213424)
(-0.0001489769817 -1.838851277e-17 -0.03892381492)
(-0.0001384671514 -1.741998262e-17 -0.03727929559)
(-0.0001260788564 -1.633892664e-17 -0.03543263952)
(-0.0001121337878 -1.514295427e-17 -0.03336790399)
(-9.703472858e-05 -1.382721918e-17 -0.03106931064)
(-8.125548281e-05 -1.236166007e-17 -0.02852140793)
(-6.532836362e-05 -1.082591574e-17 -0.0257092135)
(-4.98293163e-05 -9.128245232e-18 -0.02261833532)
(-3.535840682e-05 -7.265523344e-18 -0.01923507586)
(-2.25232926e-05 -5.81789064e-18 -0.01554650886)
(-1.197275835e-05 -4.272680689e-18 -0.01154051661)
(-4.506647369e-06 -2.618382856e-18 -0.007205740641)
(-8.022594019e-07 -8.991855039e-19 -0.00253127722)
(-1.601874739e-06 -1.903154449e-18 -0.04994161227)
(-4.174848218e-06 -3.231935596e-18 -0.04994048137)
(-6.582295106e-06 -3.862637942e-18 -0.04993802985)
(-9.041947008e-06 -5.437634597e-18 -0.04993429759)
(-1.146044427e-05 -6.789496414e-18 -0.04992922097)
(-1.382813919e-05 -7.682986581e-18 -0.04992267252)
(-1.616703403e-05 -7.78769165e-18 -0.04991444712)
(-1.851165834e-05 -1.050288513e-17 -0.04990424876)
(-2.091070725e-05 -1.240072668e-17 -0.04989168371)
(-2.342387292e-05 -1.373157289e-17 -0.049876254)
(-2.611678655e-05 -1.50700421e-17 -0.04985735609)
(-2.905676549e-05 -1.650154404e-17 -0.04983427956)
(-3.230899416e-05 -1.804095482e-17 -0.04980620122)
(-3.593343124e-05 -1.986898023e-17 -0.04977217247)
(-3.998337072e-05 -1.996693541e-17 -0.0497311001)
(-4.450367747e-05 -2.020081272e-17 -0.04968172225)
(-4.95274395e-05 -2.041957297e-17 -0.04962258038)
(-5.507556986e-05 -2.043753492e-17 -0.04955198461)
(-6.115652755e-05 -2.004878571e-17 -0.04946797453)
(-6.776121608e-05 -2.035226187e-17 -0.04936827692)
(-7.486107957e-05 -2.128991196e-17 -0.049250256)
(-8.240580157e-05 -2.184090933e-17 -0.04911085811)
(-9.032008601e-05 -2.203684455e-17 -0.04894655205)
(-9.850181087e-05 -2.290731953e-17 -0.04875326248)
(-0.000106819895 -2.3668486e-17 -0.04852630145)
(-0.00011511416 -2.355264172e-17 -0.04826029556)
(-0.0001231965113 -2.338515523e-17 -0.04794911628)
(-0.0001308532038 -2.313114526e-17 -0.04758581163)
(-0.0001378503893 -2.275435334e-17 -0.04716254867)
(-0.0001439409999 -2.220410282e-17 -0.04667056661)
(-0.00014887466 -2.183777471e-17 -0.04610014973)
(-0.000152408691 -2.186202387e-17 -0.04544062035)
(-0.0001543212302 -2.166928535e-17 -0.04468035785)
(-0.0001544242064 -2.129018654e-17 -0.04380684548)
(-0.0001525762148 -2.106220353e-17 -0.04280674336)
(-0.0001486949187 -2.031170438e-17 -0.04166598505)
(-0.0001427656779 -1.943180833e-17 -0.04036990037)
(-0.0001348489101 -1.840661379e-17 -0.03890335202)
(-0.0001250833261 -1.777056977e-17 -0.03725089219)
(-0.0001136858262 -1.704901701e-17 -0.03539691863)
(-0.0001009484234 -1.630732171e-17 -0.03332583074)
(-8.723231817e-05 -1.490866574e-17 -0.03102218973)
(-7.295866136e-05 -1.362370559e-17 -0.02847086768)
(-5.85983101e-05 -1.15644306e-17 -0.02565717916)
(-4.465906105e-05 -9.437418499e-18 -0.02256699612)
(-3.166920626e-05 -7.653024293e-18 -0.01918684576)
(-2.016366402e-05 -5.798321665e-18 -0.01550398355)
(-1.071496309e-05 -3.837701281e-18 -0.0115064293)
(-4.032507407e-06 -2.274952248e-18 -0.007182920949)
(-7.177636214e-07 -5.961234122e-19 -0.002522626503)
(-1.701235421e-06 -6.311791885e-18 -0.04995724016)
(-4.43499299e-06 -1.491187545e-17 -0.04995609226)
(-6.995864549e-06 -1.134816407e-17 -0.04995360356)
(-9.613909337e-06 -9.913459012e-18 -0.04994982546)
(-1.21891572e-05 -9.891230559e-18 -0.04994470608)
(-1.470696355e-05 -1.126556259e-17 -0.04993813591)
(-1.718319877e-05 -9.627683459e-18 -0.04992993594)
(-1.96439285e-05 -1.177083808e-17 -0.04991984157)
(-2.212696291e-05 -1.381738227e-17 -0.04990749114)
(-2.468282755e-05 -1.308279496e-17 -0.04989241654)
(-2.736967981e-05 -1.420714484e-17 -0.04987403681)
(-3.024898595e-05 -1.69178438e-17 -0.04985165439)
(-3.338197326e-05 -1.806638955e-17 -0.04982444961)
(-3.682637738e-05 -1.983345038e-17 -0.04979146964)
(-4.063380412e-05 -2.047790949e-17 -0.04975161104)
(-4.48464967e-05 -2.1503378e-17 -0.04970359672)
(-4.949581069e-05 -2.285169817e-17 -0.04964594643)
(-5.460255475e-05 -2.34469131e-17 -0.04957694089)
(-6.017369458e-05 -2.329330182e-17 -0.04949458248)
(-6.619912163e-05 -2.337325702e-17 -0.04939655159)
(-7.26514722e-05 -2.353165966e-17 -0.04928015485)
(-7.94819634e-05 -2.375122307e-17 -0.04914227045)
(-8.661874809e-05 -2.393055032e-17 -0.04897928722)
(-9.396511267e-05 -2.396045941e-17 -0.04878703998)
(-0.0001013980605 -2.395449964e-17 -0.04856074201)
(-0.0001087685879 -2.405997548e-17 -0.0482949164)
(-0.0001159032809 -2.41456607e-17 -0.04798333022)
(-0.0001226070894 -2.424944295e-17 -0.04761893293)
(-0.0001286685985 -2.444447026e-17 -0.0471938051)
(-0.0001338669544 -2.486354196e-17 -0.0466991202)
(-0.0001379808873 -2.496109979e-17 -0.04612512465)
(-0.0001407987345 -2.42384328e-17 -0.04546113874)
(-0.0001421301114 -2.379401526e-17 -0.04469558097)
(-0.0001418168074 -2.360720128e-17 -0.04381601914)
(-0.0001397440595 -2.272618923e-17 -0.04280924346)
(-0.0001358501479 -2.14653484e-17 -0.04166136341)
(-0.0001301337644 -2.026512863e-17 -0.04035792493)
(-0.0001226599289 -1.905170399e-17 -0.03888404113)
(-0.0001135615484 -1.808949616e-17 -0.03722454019)
(-0.0001030392121 -1.705544e-17 -0.03536411041)
(-9.135815521e-05 -1.590887353e-17 -0.03328744853)
(-7.884300654e-05 -1.457862261e-17 -0.03097940996)
(-6.586965532e-05 -1.309966923e-17 -0.02842514703)
(-5.285656176e-05 -1.135489795e-17 -0.02561023186)
(-4.025392812e-05 -9.476044282e-18 -0.02252076687)
(-2.852966599e-05 -7.48531704e-18 -0.0191434773)
(-1.815771275e-05 -5.821831174e-18 -0.01546578122)
(-9.646743118e-06 -4.033842305e-18 -0.01147582467)
(-3.630270429e-06 -2.175714346e-18 -0.007162437994)
(-6.46206216e-07 -7.465586316e-19 -0.002514861712)
(-1.780213116e-06 3.864579545e-18 -0.04997336109)
(-4.641596981e-06 -2.469841157e-18 -0.04997219794)
(-7.323674421e-06 -4.17277515e-18 -0.04996967588)
(-1.006780541e-05 -7.71989621e-18 -0.04996585505)
(-1.27700425e-05 -8.002283286e-18 -0.04996069176)
(-1.541145049e-05 -1.111384181e-17 -0.04995409059)
(-1.800289797e-05 -1.352717169e-17 -0.04994589186)
(-2.056515223e-05 -1.328681693e-17 -0.04993585727)
(-2.312730143e-05 -1.396241063e-17 -0.04992365403)
(-2.572998667e-05 -1.551971792e-17 -0.0499088424)
(-2.842340008e-05 -1.543689123e-17 -0.04989086551)
(-3.12628516e-05 -1.574434943e-17 -0.0498690419)
(-3.430503675e-05 -1.567628404e-17 -0.04984255863)
(-3.760438756e-05 -1.682109924e-17 -0.04981046121)
(-4.120935707e-05 -1.904447857e-17 -0.04977163772)
(-4.515997968e-05 -2.117050707e-17 -0.04972479615)
(-4.948690012e-05 -2.200820446e-17 -0.04966843417)
(-5.421017421e-05 -2.304497677e-17 -0.0496008038)
(-5.933522408e-05 -2.437230944e-17 -0.04951987186)
(-6.485190102e-05 -2.500080566e-17 -0.04942327347)
(-7.073341049e-05 -2.50108265e-17 -0.0493082605)
(-7.693243659e-05 -2.549440575e-17 -0.049171647)
(-8.338080627e-05 -2.542209392e-17 -0.04900974729)
(-8.998712849e-05 -2.467527746e-17 -0.04881831368)
(-9.663635752e-05 -2.398434903e-17 -0.0485924697)
(-0.0001031902309 -2.410431752e-17 -0.04832664587)
(-0.0001094892441 -2.41566862e-17 -0.0480145174)
(-0.0001153557104 -2.414905582e-17 -0.04764894899)
(-0.0001205988218 -2.408981637e-17 -0.04722194896)
(-0.000125021324 -2.398430556e-17 -0.04672463872)
(-0.0001284278169 -2.395080953e-17 -0.04614723855)
(-0.0001306336662 -2.34723022e-17 -0.0454790752)
(-0.0001314754085 -2.294671279e-17 -0.04470861006)
(-0.0001308199803 -2.235238318e-17 -0.04382349348)
(-0.0001285744666 -2.16811319e-17 -0.04281063759)
(-0.000124693484 -2.089306619e-17 -0.04165631198)
(-0.0001191855426 -2.004085528e-17 -0.04034625559)
(-0.0001121177919 -1.914492897e-17 -0.03886580415)
(-0.0001036166709 -1.823210544e-17 -0.03720002879)
(-9.386742585e-05 -1.703300641e-17 -0.03533387212)
(-8.311130496e-05 -1.578496509e-17 -0.03325229045)
(-7.164091989e-05 -1.446033687e-17 -0.0309403959)
(-5.97931185e-05 -1.297338872e-17 -0.02838358547)
(-4.794160037e-05 -1.134336832e-17 -0.02556765681)
(-3.648770384e-05 -9.684761811e-18 -0.02247891552)
(-2.584834763e-05 -7.925983325e-18 -0.01910426325)
(-1.644613067e-05 -6.240045807e-18 -0.0154312652)
(-8.736029943e-06 -4.513522895e-18 -0.01144818454)
(-3.287626179e-06 -2.739383886e-18 -0.007143940973)
(-5.853142889e-07 -9.38603913e-19 -0.002507848528)
(-1.840281523e-06 -3.508314903e-18 -0.04998986387)
(-4.798517443e-06 -7.43481338e-18 -0.04998868806)
(-7.572829834e-06 -1.189332926e-17 -0.04998613744)
(-1.041424356e-05 -1.072503342e-17 -0.0499822785)
(-1.321519977e-05 -1.138199698e-17 -0.0499770737)
(-1.595435816e-05 -1.194975717e-17 -0.0499704387)
(-1.863925152e-05 -1.239138531e-17 -0.04996222783)
(-2.128591961e-05 -1.23387234e-17 -0.04995222368)
(-2.391730577e-05 -1.187734284e-17 -0.04994011882)
(-2.656578661e-05 -1.374895273e-17 -0.04992549962)
(-2.927319941e-05 -1.503794693e-17 -0.04990783279)
(-3.208805483e-05 -1.603100719e-17 -0.04988645468)
(-3.506157322e-05 -1.684027951e-17 -0.04986056205)
(-3.824367963e-05 -1.752614493e-17 -0.04982920169)
(-4.167963827e-05 -1.840916372e-17 -0.04979125486)
(-4.540777513e-05 -1.928344169e-17 -0.04974541506)
(-4.945800494e-05 -2.018496227e-17 -0.04969015865)
(-5.384854452e-05 -2.120438203e-17 -0.04962371007)
(-5.858344938e-05 -2.214037788e-17 -0.04954400142)
(-6.365340974e-05 -2.285287325e-17 -0.04944862435)
(-6.903188405e-05 -2.33285684e-17 -0.04933477933)
(-7.467334865e-05 -2.364346206e-17 -0.04919921953)
(-8.051302382e-05 -2.393187144e-17 -0.04903819037)
(-8.646478116e-05 -2.405795419e-17 -0.04884736821)
(-9.24212681e-05 -2.409481471e-17 -0.0486217955)
(-9.825447092e-05 -2.410373531e-17 -0.0483558201)
(-0.0001038178873 -2.403327686e-17 -0.04804303675)
(-0.0001089498829 -2.381042693e-17 -0.04767623744)
(-0.0001134784227 -2.341865618e-17 -0.04724737051)
(-0.0001172275128 -2.281739432e-17 -0.04674751644)
(-0.0001200245317 -2.228757548e-17 -0.04616687878)
(-0.0001217083749 -2.209484063e-17 -0.04549479671)
(-0.0001221385891 -2.163433168e-17 -0.04471977645)
(-0.0001212031242 -2.09045543e-17 -0.04382954773)
(-0.0001188268934 -2.050156175e-17 -0.04281113585)
(-0.0001149775862 -1.988486402e-17 -0.04165095605)
(-0.0001096709219 -1.908604932e-17 -0.04033492035)
(-0.0001029744943 -1.811891655e-17 -0.03884856249)
(-9.500790642e-05 -1.698452584e-17 -0.0371771683)
(-8.594217819e-05 -1.628504394e-17 -0.03530590419)
(-7.599730816e-05 -1.551909625e-17 -0.03321995462)
(-6.543779986e-05 -1.381632551e-17 -0.03090465734)
(-5.456680867e-05 -1.199395423e-17 -0.02834562464)
(-4.371967724e-05 -1.03829844e-17 -0.02552885343)
(-3.325615741e-05 -8.570713196e-18 -0.02244083015)
(-2.354995014e-05 -6.979562706e-18 -0.01906861513)
(-1.498025318e-05 -5.657793324e-18 -0.01539990798)
(-7.956672198e-06 -4.185090042e-18 -0.01142308148)
(-2.994655898e-06 -2.589975496e-18 -0.007127142014)
(-5.333169113e-07 -8.931404068e-19 -0.00250147756)
(-1.88272922e-06 -1.111996188e-17 -0.0500066489)
(-4.909682845e-06 -1.200805822e-17 -0.05000546271)
(-7.750393966e-06 -1.419790008e-17 -0.050002888)
(-1.066319838e-05 -1.272449046e-17 -0.04999899624)
(-1.353719681e-05 -1.642844035e-17 -0.04999375481)
(-1.635000728e-05 -1.380971502e-17 -0.04998708718)
(-1.910712093e-05 -1.320758035e-17 -0.04997885863)
(-2.18203318e-05 -1.295277598e-17 -0.04996886738)
(-2.450819644e-05 -1.247306532e-17 -0.04995682692)
(-2.719671669e-05 -1.433292282e-17 -0.04994234707)
(-2.992012845e-05 -1.56367994e-17 -0.04992491714)
(-3.271965945e-05 -1.676887406e-17 -0.04990389192)
(-3.56402779e-05 -1.787938667e-17 -0.04987847974)
(-3.872711321e-05 -1.705496009e-17 -0.04984773065)
(-4.202236405e-05 -1.756881431e-17 -0.04981052068)
(-4.556245592e-05 -1.739283416e-17 -0.04976553024)
(-4.937546675e-05 -1.759854746e-17 -0.04971121575)
(-5.347748929e-05 -1.955911427e-17 -0.04964577565)
(-5.787216059e-05 -2.08531742e-17 -0.04956710789)
(-6.25502133e-05 -2.16928142e-17 -0.04947276258)
(-6.748548317e-05 -2.21557698e-17 -0.04935989168)
(-7.263492672e-05 -2.223356814e-17 -0.04922519129)
(-7.79368578e-05 -2.296468283e-17 -0.04906484329)
(-8.331034425e-05 -2.344968919e-17 -0.04887445429)
(-8.865533617e-05 -2.378737075e-17 -0.04864899375)
(-9.385350173e-05 -2.40676076e-17 -0.04838273575)
(-9.877047407e-05 -2.438212046e-17 -0.04806920487)
(-0.0001032593439 -2.39803978e-17 -0.04770113054)
(-0.0001071651087 -2.358512584e-17 -0.04727041171)
(-0.0001103307678 -2.273769567e-17 -0.04676809695)
(-0.0001126037319 -2.245038346e-17 -0.04618438059)
(-0.0001138434311 -2.209964329e-17 -0.04550861816)
(-0.0001139289092 -2.165504671e-17 -0.04472936163)
(-0.0001127656794 -2.111063234e-17 -0.04383441568)
(-0.0001102932533 -2.047739172e-17 -0.04281091052)
(-0.0001064896441 -1.973077729e-17 -0.04164539378)
(-0.0001013759795 -1.885516621e-17 -0.04032393309)
(-9.501898086e-05 -1.783742151e-17 -0.03883223883)
(-8.753135822e-05 -1.667351182e-17 -0.03715578733)
(-7.907110126e-05 -1.564979002e-17 -0.03527994307)
(-6.983938764e-05 -1.445408541e-17 -0.03319009297)
(-6.00761335e-05 -1.338539024e-17 -0.0308717741)
(-5.005536674e-05 -1.216114068e-17 -0.02831078883)
(-4.007949695e-05 -1.094517226e-17 -0.02549331227)
(-3.047275755e-05 -9.666963543e-18 -0.02240599341)
(-2.157206989e-05 -8.014534208e-18 -0.01903603656)
(-1.371977982e-05 -6.340301187e-18 -0.01537126529)
(-7.286984226e-06 -4.617917938e-18 -0.01140015571)
(-2.743091893e-06 -2.832163063e-18 -0.00711179866)
(-4.88711712e-07 -9.724805357e-19 -0.002495656469)
(-1.909612195e-06 -2.622019566e-18 -0.05002362568)
(-4.980302838e-06 -4.006584024e-18 -0.05002243112)
(-7.864338259e-06 -2.800917246e-18 -0.05001983667)
(-1.082451615e-05 -7.208145045e-18 -0.05001591773)
(-1.374776787e-05 -9.545819433e-18 -0.050010646)
(-1.661156305e-05 -1.097155416e-17 -0.05000394988)
(-1.942055893e-05 -1.21640991e-17 -0.04999570354)
(-2.218313594e-05 -1.340472269e-17 -0.04998571652)
(-2.491384957e-05 -1.479881165e-17 -0.04997371892)
(-2.763363451e-05 -1.659039636e-17 -0.04995934054)
(-3.037034676e-05 -1.672631491e-17 -0.04994209147)
(-3.315853664e-05 -1.727845661e-17 -0.04992134458)
(-3.603707352e-05 -1.795266676e-17 -0.04989632074)
(-3.904611913e-05 -1.856815362e-17 -0.04986607479)
(-4.222418947e-05 -1.937238352e-17 -0.04982947929)
(-4.560525402e-05 -2.049639915e-17 -0.04978520324)
(-4.921451779e-05 -2.076351522e-17 -0.04973168511)
(-5.306617288e-05 -2.121265616e-17 -0.04966709814)
(-5.716423151e-05 -2.171033473e-17 -0.04958930763)
(-6.149889597e-05 -2.216295808e-17 -0.04949582468)
(-6.604451177e-05 -2.254050255e-17 -0.04938375486)
(-7.076023966e-05 -2.284823972e-17 -0.04924974113)
(-7.558750696e-05 -2.313353785e-17 -0.04908990672)
(-8.045060164e-05 -2.333623618e-17 -0.04889979444)
(-8.525642266e-05 -2.342960884e-17 -0.04867430818)
(-8.98957459e-05 -2.339904972e-17 -0.0484076563)
(-9.424549285e-05 -2.323234698e-17 -0.04809330223)
(-9.81722067e-05 -2.310556172e-17 -0.04772392181)
(-0.0001015362439 -2.283635033e-17 -0.04729137327)
(-0.0001041974244 -2.268565475e-17 -0.04678668072)
(-0.0001060207934 -2.242766849e-17 -0.04620003485)
(-0.0001068835222 -2.208561838e-17 -0.04552081062)
(-0.0001066812757 -2.165919842e-17 -0.0447376053)
(-0.0001053345619 -2.113970558e-17 -0.04383829398)
(-0.0001027945491 -2.052279623e-17 -0.04281010377)
(-9.904727161e-05 -1.980560334e-17 -0.04163970263)
(-9.411779659e-05 -1.898378963e-17 -0.04031329917)
(-8.807127748e-05 -1.805950458e-17 -0.03881676159)
(-8.101373554e-05 -1.703469949e-17 -0.03713573501)
(-7.309129981e-05 -1.590992583e-17 -0.03525576098)
(-6.448833848e-05 -1.466507756e-17 -0.03316240689)
(-5.54233771e-05 -1.353132706e-17 -0.03084138736)
(-4.614519246e-05 -1.228911871e-17 -0.02827867437)
(-3.692787018e-05 -1.095555749e-17 -0.02546060326)
(-2.806519534e-05 -9.537373482e-18 -0.02237397023)
(-1.986265122e-05 -8.026404069e-18 -0.01900611151)
(-1.263114941e-05 -6.361470735e-18 -0.0153449658)
(-6.70894501e-06 -4.636344448e-18 -0.01137910733)
(-2.526087208e-06 -2.843890141e-18 -0.007097709414)
(-4.502667963e-07 -9.764198616e-19 -0.002490308822)
(-1.922522907e-06 -2.39000086e-18 -0.05004071229)
(-5.014624117e-06 -4.209215188e-18 -0.05003951143)
(-7.921345642e-06 -5.301342132e-18 -0.05003690165)
(-1.090690138e-05 -6.393842998e-18 -0.05003296201)
(-1.385782627e-05 -5.690687317e-18 -0.05002766702)
(-1.675190321e-05 -8.732865599e-18 -0.0500209483)
(-1.959347157e-05 -1.085087101e-17 -0.05001268702)
(-2.238864048e-05 -1.282269547e-17 -0.05000270158)
(-2.514817825e-05 -1.492729242e-17 -0.04999073441)
(-2.788919422e-05 -1.435663232e-17 -0.04997643183)
(-3.063426008e-05 -1.581395477e-17 -0.04995932197)
(-3.341193484e-05 -1.699697645e-17 -0.04993879461)
(-3.625523668e-05 -1.81211178e-17 -0.04991408328)
(-3.919929582e-05 -1.923953488e-17 -0.0498842488)
(-4.227897758e-05 -2.02484098e-17 -0.04984816175)
(-4.552454599e-05 -2.1460054e-17 -0.04980448186)
(-4.895795012e-05 -2.306419438e-17 -0.04975163133)
(-5.259249441e-05 -2.259964944e-17 -0.04968775908)
(-5.643161732e-05 -2.253758762e-17 -0.04961069956)
(-6.046489093e-05 -2.266780347e-17 -0.04951792731)
(-6.466793844e-05 -2.287355303e-17 -0.04940650425)
(-6.900168453e-05 -2.307895401e-17 -0.04927302407)
(-7.341076702e-05 -2.323744765e-17 -0.0491135555)
(-7.782424195e-05 -2.331268468e-17 -0.04892358337)
(-8.215552888e-05 -2.326012147e-17 -0.04869795247)
(-8.630403256e-05 -2.302605928e-17 -0.04843081294)
(-9.015706215e-05 -2.25400773e-17 -0.04811557473)
(-9.359342223e-05 -2.258452368e-17 -0.04774486801)
(-9.64872276e-05 -2.242462325e-17 -0.04731051747)
(-9.871326825e-05 -2.257744194e-17 -0.04680352881)
(-0.0001001519675 -2.232072038e-17 -0.04621409324)
(-0.0001006957939 -2.200774883e-17 -0.04553160692)
(-0.0001002546623 -2.161397065e-17 -0.04474471131)
(-9.876172577e-05 -2.112246961e-17 -0.04384134831)
(-9.617765889e-05 -2.052864881e-17 -0.04280883412)
(-9.249476604e-05 -1.983441984e-17 -0.04163394535)
(-8.774064834e-05 -1.903860979e-17 -0.04030301855)
(-8.197862325e-05 -1.814217112e-17 -0.03880206394)
(-7.53083654e-05 -1.714520297e-17 -0.03711687774)
(-6.786524274e-05 -1.604758459e-17 -0.03523316003)
(-5.981867296e-05 -1.485120281e-17 -0.0331366399)
(-5.136845471e-05 -1.356334097e-17 -0.03081319118)
(-4.274142714e-05 -1.217636505e-17 -0.02824893852)
(-3.418722383e-05 -1.06828795e-17 -0.02543036239)
(-2.597343826e-05 -9.076470202e-18 -0.02234439343)
(-1.837857818e-05 -7.351520632e-18 -0.01897848955)
(-1.168662484e-05 -5.88198604e-18 -0.0153206973)
(-6.207690269e-06 -4.315029254e-18 -0.01135968452)
(-2.33800574e-06 -2.657562066e-18 -0.007084705208)
(-4.169686506e-07 -9.141731236e-19 -0.002485370517)
(-1.923176399e-06 -2.071213627e-18 -0.05005783442)
(-5.01709212e-06 -3.477038086e-18 -0.05005662921)
(-7.927233859e-06 -4.468342452e-18 -0.05005400876)
(-1.091799951e-05 -5.623209673e-18 -0.05005005524)
(-1.387762143e-05 -7.235234987e-18 -0.05004474432)
(-1.678351331e-05 -8.916283162e-18 -0.05003801025)
(-1.963932715e-05 -1.053624369e-17 -0.050029739)
(-2.24509528e-05 -1.187775025e-17 -0.05001975636)
(-2.522588577e-05 -1.314064547e-17 -0.05000781383)
(-2.797733757e-05 -1.433678935e-17 -0.04999357054)
(-3.072396324e-05 -1.541758135e-17 -0.04997656989)
(-3.348919764e-05 -1.642270342e-17 -0.04995621677)
(-3.630073716e-05 -1.741045551e-17 -0.04993175676)
(-3.918917067e-05 -1.841634156e-17 -0.04990225703)
(-4.218478511e-05 -1.945790272e-17 -0.04986658787)
(-4.531323579e-05 -2.046382619e-17 -0.0498234018)
(-4.859404492e-05 -2.109201745e-17 -0.04977110554)
(-5.203991123e-05 -2.156530223e-17 -0.0497078254)
(-5.56527648e-05 -2.199505615e-17 -0.04963136728)
(-5.942148511e-05 -2.239369941e-17 -0.04953917099)
(-6.332313119e-05 -2.275349876e-17 -0.04942825744)
(-6.732034797e-05 -2.305545574e-17 -0.04929517496)
(-7.136111095e-05 -2.328286766e-17 -0.04913594216)
(-7.537879128e-05 -2.34317179e-17 -0.04894599136)
(-7.929301008e-05 -2.349449319e-17 -0.04872011376)
(-8.301112009e-05 -2.346756294e-17 -0.04845240813)
(-8.643000851e-05 -2.334453413e-17 -0.0481362375)
(-8.943953605e-05 -2.313874359e-17 -0.04776419331)
(-9.192624497e-05 -2.283421561e-17 -0.04732807247)
(-9.377805727e-05 -2.241576323e-17 -0.04681886741)
(-9.488888533e-05 -2.221994925e-17 -0.04622677275)
(-9.516439558e-05 -2.194067065e-17 -0.04554120695)
(-9.452655218e-05 -2.156406231e-17 -0.04475085416)
(-9.291900148e-05 -2.1082116e-17 -0.04384371892)
(-9.031041841e-05 -2.049961318e-17 -0.04280719955)
(-8.669809837e-05 -1.981661367e-17 -0.04162817164)
(-8.211118986e-05 -1.903003824e-17 -0.04029308773)
(-7.66108314e-05 -1.814239351e-17 -0.03878808613)
(-7.029071891e-05 -1.715024906e-17 -0.03709909915)
(-6.327663225e-05 -1.604914754e-17 -0.0352119696)
(-5.572459411e-05 -1.483934306e-17 -0.03311257234)
(-4.781798104e-05 -1.352141017e-17 -0.03078692497)
(-3.976450688e-05 -1.209086766e-17 -0.02822129051)
(-3.179263055e-05 -1.054100618e-17 -0.02540228183)
(-2.414734124e-05 -8.865758935e-18 -0.02231695323)
(-1.708390728e-05 -7.052150138e-18 -0.01895287572)
(-1.086313103e-05 -5.663333063e-18 -0.01529819743)
(-5.770884702e-06 -4.164404294e-18 -0.01134167597)
(-2.174187526e-06 -2.568429638e-18 -0.007072644381)
(-3.879854645e-07 -8.842537769e-19 -0.002480787924)
(-1.91298937e-06 -9.742624747e-19 -0.05007492527)
(-4.990835818e-06 -1.499950709e-18 -0.05007371799)
(-7.886749681e-06 -1.854621295e-18 -0.05007109216)
(-1.086500999e-05 -2.043026168e-18 -0.0500671314)
(-1.381602346e-05 -7.881841986e-18 -0.05006181191)
(-1.671682744e-05 -9.161623193e-18 -0.05005507056)
(-1.957040815e-05 -1.142075878e-17 -0.05004679577)
(-2.238291502e-05 -1.129559728e-17 -0.05003681917)
(-2.516015372e-05 -1.153554773e-17 -0.05002489991)
(-2.791165226e-05 -1.460349512e-17 -0.05001070649)
(-3.065227406e-05 -1.51740225e-17 -0.04999379443)
(-3.340147731e-05 -1.583588096e-17 -0.04997358143)
(-3.618252156e-05 -1.652509806e-17 -0.04994932398)
(-3.902105142e-05 -1.737754288e-17 -0.049920096)
(-4.194209153e-05 -1.857382968e-17 -0.04988476885)
(-4.496767508e-05 -1.984949558e-17 -0.04984198852)
(-4.811557352e-05 -1.970508873e-17 -0.04979014755)
(-5.139655635e-05 -2.069239165e-17 -0.04972735154)
(-5.481077392e-05 -2.146541895e-17 -0.04965138036)
(-5.834740736e-05 -2.209003586e-17 -0.0495596409)
(-6.198412964e-05 -2.259790284e-17 -0.04944911606)
(-6.568494139e-05 -2.299749196e-17 -0.04931631206)
(-6.940119429e-05 -2.328895069e-17 -0.04915720147)
(-7.307054423e-05 -2.349915003e-17 -0.04896716902)
(-7.661851945e-05 -2.364599578e-17 -0.04874095767)
(-7.995969704e-05 -2.374871081e-17 -0.04847262073)
(-8.299974385e-05 -2.384938716e-17 -0.0481554802)
(-8.56384736e-05 -2.357623602e-17 -0.04778209453)
(-8.777355933e-05 -2.332400425e-17 -0.0473442379)
(-8.930447006e-05 -2.236433781e-17 -0.04683289346)
(-9.013707345e-05 -2.219786863e-17 -0.04623826139)
(-9.018825124e-05 -2.190948038e-17 -0.04554978318)
(-8.939014954e-05 -2.151898958e-17 -0.04475618334)
(-8.769525324e-05 -2.102861865e-17 -0.04384552521)
(-8.507880764e-05 -2.044586804e-17 -0.04280528281)
(-8.154218361e-05 -1.976981111e-17 -0.04162242224)
(-7.711524418e-05 -1.899814927e-17 -0.04028350147)
(-7.185674017e-05 -1.81284309e-17 -0.03877477483)
(-6.585480864e-05 -1.715209705e-17 -0.03708229777)
(-5.922663893e-05 -1.60545302e-17 -0.03519204296)
(-5.211632702e-05 -1.484649275e-17 -0.033090017)
(-4.46928122e-05 -1.353244346e-17 -0.03076236732)
(-3.714709701e-05 -1.210466053e-17 -0.02819548384)
(-2.968922698e-05 -1.055399184e-17 -0.02537610118)