/*--------------------------------*- C++ -*----------------------------------*\
  =========                 |
  \\      /  F ield         | OpenFOAM: The Open Source CFD Toolbox
   \\    /   O peration     | Website:  https://openfoam.org
    \\  /    A nd           | Version:  7
     \\/     M anipulation  |
\*---------------------------------------------------------------------------*/
FoamFile
{
    version     2.0;
    format      ascii;
    class       volScalarField;
    location    "0.0018";
    object      thermo:alpha;
}
// * * * * * * * * * * * * * * * * * * * * * * * * * * * * * * * * * * * * * //

dimensions      [1 -1 -1 0 0 0 0];

internalField   nonuniform List<scalar> 
1166
(
0.0001207057909
0.0001207135608
0.0001208069721
0.0001208146754
0.0001208311801
0.0001208542506
0.0001208802752
0.0001209119127
0.0001209487887
0.0001209882886
0.0001210212283
0.0001210571678
0.0001210958556
0.0001211370683
0.0001211792681
0.0001212157056
0.0001212532478
0.0001212876527
0.0001213222025
0.00012135342
0.0001213833157
0.0001214104367
0.0001214343657
0.0001214566801
0.0001214736334
0.0001214906082
0.0001215077402
0.0001215164042
0.0001215209507
0.0001215202053
0.0001215194574
0.0001215187078
0.0001215060145
0.0001214930448
0.0001214800898
0.0001214619985
0.0001214430312
0.0001214241391
0.0001214010814
0.0001213756393
0.000121345107
0.0001213147684
0.0001212846387
0.0001212494167
0.0001212123242
0.0001211714132
0.0001211308744
0.0001210907082
0.0001210509614
0.0001210101886
0.0001209657721
0.0001209189789
0.0001208955556
0.0001209018299
0.0001209152735
0.0001209351221
0.000120960932
0.0001209895431
0.0001210155652
0.0001210450354
0.0001210777136
0.0001211133114
0.0001211516604
0.0001211887599
0.0001212232045
0.0001212581665
0.0001212910639
0.0001213239187
0.0001213540285
0.0001213829707
0.0001214093078
0.0001214328964
0.0001214546846
0.0001214717972
0.0001214884494
0.0001215052853
0.0001215155749
0.0001215208
0.0001215203409
0.000121519601
0.0001215188587
0.0001215087329
0.0001214958563
0.0001214829848
0.0001214663568
0.0001214474697
0.0001214286482
0.0001214071018
0.0001213824355
0.000121352693
0.0001213223689
0.0001212922452
0.0001212584856
0.0001212228261
0.0001211818552
0.0001211412219
0.0001211009574
0.0001210610809
0.0001210215708
0.0001209769887
0.0001209313637
0.0001208823282
0.0001209749106
0.000120981134
0.0001209910791
0.0001210050866
0.0001210233023
0.0001210454493
0.0001210712671
0.0001211004706
0.0001211328411
0.0001211681623
0.0001211996473
0.0001212319781
0.0001212640957
0.0001212953887
0.0001213263357
0.0001213552622
0.0001213830844
0.0001214085808
0.0001214317034
0.0001214529248
0.000121470107
0.0001214864093
0.0001215029236
0.0001215147666
0.000121519911
0.0001215204755
0.0001215197445
0.0001215190103
0.0001215114755
0.0001214987047
0.0001214859279
0.000121470802
0.0001214520157
0.0001214332731
0.0001214132924
0.0001213886967
0.0001213605293
0.0001213302368
0.0001213001355
0.0001212679116
0.0001212323875
0.0001211927495
0.000121152038
0.0001211116908
0.0001210716981
0.0001210320827
0.0001209888009
0.000120944431
0.0001208951898
0.0001208478341
0.0001210323457
0.0001210367387
0.0001210461519
0.0001210600507
0.0001210781256
0.0001211000662
0.0001211256435
0.0001211546119
0.0001211841266
0.0001212120554
0.000121242147
0.0001212711367
0.0001213007246
0.0001213295334
0.0001213571981
0.0001213837179
0.0001214083143
0.0001214308311
0.000121451443
0.000121468593
0.000121484516
0.0001215006825
0.0001215139873
0.0001215190436
0.000121520608
0.0001215198869
0.0001215191617
0.0001215142272
0.0001215015791
0.0001214889057
0.0001214753152
0.0001214566469
0.0001214379969
0.0001214193799
0.000121395124
0.000121368592
0.0001213383605
0.0001213082881
0.0001212776702
0.0001212421476
0.0001212040709
0.0001211633083
0.0001211228854
0.0001210827915
0.0001210430723
0.0001210011868
0.0001209567203
0.0001209087246
0.0001208597747
0.0001208166213
0.0001210862786
0.0001210906311
0.0001210999574
0.0001211137283
0.0001211316369
0.0001211534116
0.0001211778011
0.0001212007085
0.0001212261127
0.0001212533469
0.000121279394
0.0001213071724
0.0001213335945
0.0001213599156
0.0001213849343
0.000121408569
0.0001214303258
0.0001214502836
0.0001214672864
0.000121482798
0.0001214985903
0.0001215132452
0.0001215182058
0.0001215207374
0.0001215200273
0.0001215193118
0.0001215169725
0.0001215044611
0.0001214919041
0.0001214793167
0.0001214613435
0.000121442802
0.0001214242823
0.0001214016965
0.0001213768563
0.0001213467063
0.0001213166807
0.0001212868038
0.0001212522341
0.0001212157927
0.0001211750046
0.0001211345172
0.0001210943456
0.0001210545306
0.0001210141228
0.0001209695166
0.0001209229087
0.0001208737644
0.0001208288642
0.0001207860614
0.0001211389372
0.0001211432574
0.0001211525144
0.000121166183
0.0001211819141
0.0001211991347
0.0001212192115
0.000121241952
0.000121264976
0.0001212889757
0.0001213148362
0.0001213386047
0.000121363497
0.0001213867993
0.0001214094075
0.0001214302351
0.0001214494922
0.0001214662197
0.0001214812886
0.0001214966768
0.0001215123594
0.0001215174056
0.0001215208626
0.0001215201645
0.0001215194597
0.000121518749
0.0001215073351
0.0001214949085
0.0001214824399
0.000121466086
0.0001214476697
0.0001214292632
0.0001214083921
0.0001213841405
0.000121355249
0.0001213252898
0.0001212954687
0.000121262622
0.0001212273326
0.0001211870944
0.0001211465614
0.0001211063388
0.0001210664352
0.000121026861
0.0001209828549
0.0001209377178
0.0001208883946
0.0001208416888
0.0001207986952
0.0001207529209
0.0001211870698
0.0001211904867
0.0001211978084
0.0001212086197
0.0001212226803
0.0001212397771
0.0001212584694
0.0001212781575
0.0001212999931
0.0001213227361
0.0001213446525
0.0001213680275
0.0001213893807
0.0001214108953
0.0001214306088
0.0001214491164
0.0001214654267
0.00012148002
0.0001214949726
0.0001215102528
0.0001215166517
0.0001215209824
0.0001215202975
0.0001215196043
0.0001215189044
0.000121510185
0.0001214979033
0.0001214855674
0.0001214708538
0.0001214525872
0.0001214343044
0.000121415188
0.0001213910595
0.0001213639631
0.0001213340961
0.0001213043457
0.0001212732853
0.0001212380344
0.0001211995504
0.0001211589957
0.0001211187379
0.0001210787629
0.0001210391143
0.0001209967115
0.0001209522375
0.0001209036409
0.0001208550744
0.0001208119027
0.0001207675298
0.0001207200282
0.0001212271928
0.0001212305855
0.0001212378555
0.0001212485904
0.0001212609472
0.0001212757507
0.0001212930105
0.0001213125615
0.000121331631
0.0001213518292
0.0001213735058
0.0001213927488
0.0001214130998
0.0001214314983
0.0001214492057
0.0001214649424
0.000121479026
0.0001214935099
0.0001215083567
0.000121515953
0.0001215206667
0.000121520425
0.0001215197446
0.0001215190565
0.0001215129938
0.0001215008764
0.0001214886841
0.0001214756259
0.0001214575289
0.0001214393866
0.0001214212207
0.0001213980755
0.0001213728216
0.0001213430772
0.0001213134107
0.0001212838398
0.0001212490063
0.0001212123442
0.000121171804
0.0001211315171
0.000121091493
0.0001210517842
0.0001210110615
0.0001209664784
0.000120919478
0.0001208702686
0.0001208256637
0.0001207827328
0.0001207350536
0.0001206868627
0.0001212643363
0.0001212672742
0.0001212735696
0.0001212828657
0.000121294956
0.0001213096578
0.0001213252759
0.0001213418483
0.0001213602295
0.0001213790562
0.0001213969766
0.0001214160911
0.0001214329572
0.0001214498113
0.0001214648033
0.0001214783413
0.0001214923221
0.000121506703
0.0001215153186
0.0001215199122
0.000121520546
0.0001215198795
0.0001215192041
0.0001215157441
0.0001215038079
0.000121491774
0.0001214796592
0.0001214624728
0.0001214444899
0.0001214264696
0.0001214051646
0.0001213813212
0.0001213521988
0.0001213226387
0.0001212931616
0.0001212602211
0.0001212252322
0.000121184944
0.0001211446497
0.0001211046116
0.0001210648468
0.0001210253641
0.0001209812056
0.0001209358802
0.0001208865234
0.0001208399577
0.0001207968597
0.0001207507058
0.0001207032456
0.0001206518762
0.0001212978137
0.0001213007318
0.0001213069846
0.0001213162178
0.0001213264939
0.0001213389572
0.0001213534891
0.000121369951
0.00012138562
0.0001214021391
0.0001214199417
0.0001214350407
0.0001214509864
0.0001214650472
0.0001214780023
0.0001214914437
0.0001215053248
0.0001215147583
0.0001215192224
0.0001215206591
0.0001215200079
0.0001215193463
0.0001215184175
0.0001215066798
0.0001214948206
0.0001214828665
0.0001214673968
0.0001214495953
0.0001214317376
0.0001214123022
0.0001213886219
0.0001213614332
0.0001213320052
0.0001213026425
0.000121271651
0.0001212367429
0.0001211983861
0.0001211581103
0.0001211180779
0.000121078277
0.000121038754
0.0001209963934
0.0001209519644
0.0001209033354
0.0001208547626
0.0001208115122
0.000120766963
0.0001207192958
0.0001206694262
0.0001206176059
0.0001213284916
0.0001213309655
0.0001213362667
0.000121344095
0.0001213542766
0.0001213666579
0.0001213797219
0.0001213932779
0.0001214083143
0.0001214237632
0.0001214378063
0.0001214527863
0.0001214657134
0.0001214780466
0.0001214909108
0.0001215042567
0.0001215142822
0.0001215186069
0.0001215207632
0.0001215201284
0.0001215194817
0.0001215188243
0.0001215094737
0.0001214978065
0.0001214860294
0.0001214722779
0.0001214546847
0.0001214370037
0.0001214192511
0.0001213959683
0.0001213707513
0.0001213414923
0.0001213122563
0.0001212830605
0.0001212484639
0.0001212120997
0.0001211718843
0.0001211318641
0.0001210920531
0.0001210525059
0.0001210120151
0.000120967513
0.0001209206773
0.0001208714568
0.0001208266688
0.0001207836493
0.0001207359429
0.0001206876535
0.0001206355836
0.0001205857799
0.0001213558444
0.0001213583023
0.0001213635692
0.0001213713468
0.0001213800271
0.0001213902237
0.0001214021134
0.0001214155827
0.0001214283655
0.0001214413133
0.0001214552679
0.0001214668427
0.0001214785134
0.0001214907609
0.0001215035345
0.0001215139006
0.0001215180758
0.0001215208568
0.0001215202399
0.0001215196093
0.0001215189668
0.0001215121706
0.000121500717
0.0001214891304
0.0001214770919
0.0001214597296
0.0001214422464
0.0001214246758
0.0001214033344
0.0001213799728
0.0001213510598
0.0001213219758
0.0001212929171
0.0001212603658
0.0001212257541
0.0001211859245
0.0001211459414
0.000121106159
0.0001210665938
0.000121027263
0.0001209834891
0.0001209385213
0.0001208891907
0.0001208423075
0.0001207991488
0.0001207531648
0.0001207055548
0.0001206542301
0.000120602429
0.0001205562015
0.0001213809797
0.0001213830041
0.0001213873421
0.000121393748
0.00012140208
0.0001214122124
0.0001214232081
0.000121433835
0.0001214456231
0.0001214581976
0.0001214684771
0.0001214794431
0.0001214910329
0.0001215031955
0.0001215136245
0.0001215176393
0.0001215209386
0.0001215203408
0.0001215197277
0.0001215191014
0.0001215147506
0.0001215035305
0.0001214921518
0.000121480635
0.0001214647059
0.000121447443
0.0001214300754
0.0001214106935
0.00012138754
0.0001213606774
0.0001213317739
0.0001213028761
0.0001212724181
0.0001212379357
0.0001212001988
0.000121160285
0.0001211205508
0.0001210809908
0.000121041659
0.0001209998651
0.0001209555447
0.0001209074197
0.0001208584045
0.0001208151237
0.0001207709377
0.0001207231494
0.0001206735219
0.0001206214839
0.0001205731094
0.0001205272229
0.0001214026948
0.0001214047066
0.0001214090177
0.0001214153839
0.0001214229198
0.0001214309147
0.0001214402374
0.0001214507992
0.0001214611808
0.0001214706604
0.0001214808778
0.000121491767
0.0001215032784
0.0001215134652
0.0001215173085
0.0001215210072
0.00012152043
0.0001215198357
0.0001215192268
0.000121517193
0.0001215062264
0.0001214950747
0.0001214837677
0.0001214695887
0.0001214525761
0.0001214354272
0.0001214180171
0.0001213950978
0.0001213703137
0.0001213416315
0.000121312909
0.0001212841681
0.0001212502637
0.000121214674
0.000121174873
0.0001211351987
0.0001210956778
0.000121056359
0.0001210166122
0.0001209722603
0.0001209261144
0.0001208769485
0.0001208315512
0.0001207884913
0.0001207412881
0.0001206934349
0.0001206411766
0.0001205906046
0.0001205444863
0.0001204969803
0.0001214231467
0.0001214247342
0.0001214281361
0.0001214331598
0.0001214396941
0.0001214476407
0.0001214569072
0.0001214648056
0.0001214734379
0.0001214828611
0.0001214930052
0.0001215038235
0.0001215134343
0.0001215170945
0.0001215209155
0.0001215205058
0.0001215199319
0.0001215193417
0.0001215187364
0.000121508784
0.0001214978793
0.0001214868012
0.0001214743517
0.0001214576156
0.0001214407077
0.0001214236587
0.000121402618
0.000121379822
0.0001213515051
0.0001213229863
0.0001212944316
0.0001212627062
0.0001212285609
0.0001211896571
0.0001211500711
0.0001211106275
0.000121071335
0.0001210322273
0.000120989341
0.0001209452142
0.0001208960121
0.000120848407
0.0001208052408
0.000120759947
0.0001207122368
0.0001206614828
0.0001206094825
0.0001205623302
0.0001205164398
0.0001204661235
0.0001214396665
0.0001214412446
0.0001214446262
0.00012144962
0.0001214561156
0.0001214622925
0.0001214691205
0.0001214768564
0.0001214854375
0.0001214947908
0.0001215048723
0.0001215135442
0.0001215170089
0.0001215206481
0.0001215205668
0.0001215200148
0.0001215194448
0.000121518858
0.0001215111817
0.0001215005484
0.0001214897157
0.000121478698
0.0001214625342
0.0001214458922
0.0001214290892
0.0001214100713
0.000121387534
0.0001213613614
0.0001213330801
0.0001213047364
0.0001212752299
0.0001212412686
0.0001212046025
0.0001211651474
0.0001211257973
0.0001210865574
0.0001210474941
0.0001210067573
0.0001209626207
0.0001209155049
0.000120866516
0.0001208224128
0.0001207791004
0.0001207312458
0.0001206823775
0.0001206301721
0.0001205807345
0.0001205346238
0.0001204860298
0.000120435885
0.0001214558399
0.0001214573958
0.0001214598877
0.0001214635676
0.0001214683543
0.0001214741756
0.0001214809642
0.0001214886497
0.0001214971686
0.0001215064682
0.0001215138074
0.0001215170641
0.0001215205093
0.0001215206115
0.0001215200829
0.0001215195345
0.0001215189678
0.000121513397
0.0001215030579
0.0001214924909
0.0001214817197
0.0001214673046
0.0001214509587
0.0001214344223
0.000121417427
0.0001213951772
0.0001213711663
0.0001213431651
0.0001213150517
0.0001212868572
0.000121254054
0.0001212196729
0.0001211803901
0.0001211411546
0.0001211020137
0.0001210630029
0.000121024134
0.0001209803573
0.0001209353955
0.0001208863624
0.0001208399826
0.0001207969409
0.0001207507431
0.0001207031199
0.0001206514432
0.0001205996778
0.0001205533614
0.000120506565
0.0001204561572
0.0001204062689
0.0001214679708
0.0001214691271
0.0001214716047
0.0001214752637
0.0001214800231
0.0001214858102
0.0001214925495
0.0001215001851
0.0001215086558
0.0001215142371
0.0001215172726
0.0001215205112
0.0001215206382
0.0001215201347
0.0001215196094
0.0001215190643
0.0001215154064
0.0001215053845
0.0001214951055
0.0001214846015
0.0001214718984
0.0001214558797
0.0001214396325
0.0001214231863
0.000121402721
0.0001213805857
0.0001213531964
0.0001213253452
0.000121297392
0.0001212668825
0.0001212333059
0.0001211957536
0.0001211566653
0.0001211176569
0.0001210787232
0.0001210399222
0.0001209983927
0.0001209544868
0.0001209066008
0.0001208579236
0.0001208148138
0.0001207707025
0.0001207229526
0.0001206732696
0.0001206211258
0.0001205726322
0.0001205265347
0.0001204770515
0.0001204268797
0.0001203772612
0.0001214794651
0.0001214806149
0.0001214830787
0.0001214867145
0.0001214914398
0.0001214971867
0.0001215038885
0.0001215114816
0.0001215148469
0.0001215176474
0.0001215206663
0.0001215206452
0.0001215201684
0.000121519668
0.0001215191459
0.0001215171855
0.000121507505
0.0001214975371
0.0001214873221
0.0001214762857
0.0001214606232
0.0001214446927
0.0001214285405
0.0001214101333
0.000121388313
0.0001213631378
0.0001213355896
0.0001213079025
0.0001212797175
0.0001212463867
0.0001212112
0.0001211723149
0.0001211334494
0.0001210946307
0.0001210559177
0.0001210166943
0.0001209728299
0.0001209271982
0.0001208783806
0.0001208330531
0.0001207901475
0.0001207432417
0.0001206956243
0.0001206433129
0.0001205924143
0.0001205461248
0.0001204985461
0.0001204481241
0.0001203982121
0.0001203488293
0.0001214907129
0.0001214918545
0.0001214943009
0.0001214979137
0.000121502613
0.0001215083284
0.000121513351
0.0001215156507
0.0001215182021
0.0001215209876
0.0001215206308
0.0001215201825
0.0001215197086
0.0001215192112
0.0001215186919
0.0001215093948
0.0001214997645
0.0001214898594
0.000121479697
0.0001214651596
0.0001214495767
0.0001214337437
0.0001214173806
0.0001213959074
0.0001213729519
0.0001213457498
0.0001213183549
0.0001212908108
0.000121259471
0.0001212263021
0.0001211880438
0.0001211493554
0.0001211106983
0.0001210720887
0.000121033568
0.0001209914344
0.0001209477766
0.0001208993121
0.0001208516315
0.0001208086777
0.0001207639598
0.0001207163264
0.0001206660217
0.0001206139499
0.0001205662202
0.0001205201429
0.0001204699623
0.0001204197707
0.000120370119
0.000120320966
0.0001215017205
0.000121502856
0.0001215052891
0.0001215088824
0.0001215129134
0.0001215146445
0.0001215166633
0.0001215189508
0.0001215209807
0.0001215205931
0.0001215201752
0.0001215197296
0.0001215192586
0.0001215187638
0.0001215110287
0.0001215017623
0.0001214921902
0.0001214823374
0.0001214694578
0.0001214542584
0.000121438768
0.0001214230156
0.0001214033353
0.0001213819678
0.0001213557807
0.0001213287136
0.0001213014728
0.000121272521
0.0001212396298
0.0001212038123
0.0001211653498
0.0001211268759
0.0001210884016
0.0001210500038
0.0001210102665
0.0001209666769
0.000120920563
0.000120871979
0.0001208275422
0.0001207847858
0.0001207373607
0.000120689224
0.0001206370044
0.0001205867986
0.0001205405443
0.0001204923719
0.0001204419426
0.0001203920102
0.00012034258
0.0001202936802
0.0001215125024
0.0001215129364
0.0001215136734
0.0001215147619
0.0001215161777
0.0001215178997
0.000121519908
0.0001215208835
0.0001215205303
0.0001215201447
0.0001215197292
0.0001215192863
0.0001215188177
0.0001215123801
0.000121503504
0.0001214942903
0.000121484771
0.0001214734855
0.0001214587012
0.000121443584
0.0001214281786
0.0001214105618
0.000121389572
0.000121365643
0.0001213389533
0.0001213120393
0.0001212849283
0.0001212529205
0.0001212195788
0.0001211813908
0.0001211431261
0.0001211048433
0.000121066578
0.0001210283574
0.0001209858004
0.0001209420976
0.0001208935509
0.0001208467127
0.0001208039297
0.00012075879
0.0001207112866
0.0001206605464
0.0001206085587
0.0001205614229
0.0001205153297
0.0001204646814
0.0001204144823
0.0001203647959
0.0001203155958
0.0001202669309
0.0001215158088
0.0001215161509
0.0001215168841
0.000121517967
0.0001215193755
0.0001215210367
0.0001215207572
0.0001215204405
0.0001215200891
0.0001215197056
0.0001215192926
0.000121518852
0.0001215134215
0.0001215049633
0.0001214961345
0.0001214869737
0.0001214772089
0.0001214628731
0.000121448161
0.0001214331326
0.0001214175503
0.0001213969738
0.0001213752957
0.0001213490255
0.0001213224732
0.0001212956975
0.0001212661345
0.0001212337099
0.0001211974266
0.000121159414
0.0001211213554
0.0001210832555
0.0001210451866
0.0001210051114
0.0001209618178
0.0001209154016
0.0001208670712
0.000120823375
0.0001207805846
0.0001207330195
0.0001206845466
0.0001206324323
0.0001205827557
0.0001205365462
0.0001204879624
0.0001204375341
0.0001203875865
0.000120338115
0.0001202891607
0.0001202407056
0.0001208430923
0.0001208004963
0.0001207551128
0.0001207077547
0.0001206567585
0.0001206048688
0.0001205581669
0.0001205117612
0.0001204611306
0.0001204109303
0.0001203612165
0.0001203119734
0.0001202632422
0.0001202133754
)
;

boundaryField
{
    front_top
    {
        type            wedge;
    }
    front_middle
    {
        type            wedge;
    }
    front_bottom
    {
        type            wedge;
    }
    back_top
    {
        type            wedge;
    }
    back_middle
    {
        type            wedge;
    }
    back_bottom
    {
        type            wedge;
    }
    axis_top
    {
        type            symmetryPlane;
    }
    axis_middle
    {
        type            symmetryPlane;
    }
    axis_bottom
    {
        type            symmetryPlane;
    }
    wall_top
    {
        type            calculated;
        value           nonuniform List<scalar> 
24
(
0.0001208943865
0.000120857996
0.0001208262454
0.0001207951608
0.0001207625601
0.0001207291079
0.0001206963264
0.0001206607491
0.000120625904
0.0001205927376
0.0001205626676
0.0001205332089
0.0001205030989
0.0001204717349
0.0001204410021
0.0001204108965
0.000120381418
0.0001203525265
0.0001203242099
0.0001202964865
0.0001202693098
0.0001202426674
0.0001202150814
0.0001201869511
)
;
    }
    wall_middle
    {
        type            calculated;
        value           nonuniform 0();
    }
    wall_bottom
    {
        type            calculated;
        value           nonuniform 0();
    }
    inlet
    {
        type            calculated;
        value           nonuniform 0();
    }
    outlet
    {
        type            calculated;
        value           nonuniform 0();
    }
    procBoundary8to7
    {
        type            processor;
        value           nonuniform List<scalar> 
51
(
0.0001215189598
0.0001215193002
0.0001215200297
0.0001215210341
0.0001215208381
0.0001215205996
0.0001215203215
0.0001215200064
0.000121519657
0.0001215192759
0.0001215188649
0.0001215141242
0.0001215061125
0.0001214976966
0.0001214889204
0.000121479804
0.0001214667404
0.0001214524733
0.0001214378471
0.0001214228903
0.0001214041364
0.0001213836567
0.0001213588866
0.0001213327386
0.0001213063324
0.0001212792299
0.0001212471566
0.0001212134137
0.0001211757127
0.0001211378979
0.0001211000149
0.0001210621158
0.0001210242173
0.0001209814094
0.0001209374936
0.0001208892305
0.0001208892305
0.0001208204779
0.0001207775352
0.0001207301396
0.0001206815065
0.0001206295132
0.000120580212
0.0001205340588
0.0001204852393
0.000120434822
0.0001203848657
0.0001203353606
0.000120286356
0.0001202378286
0.0001201856828
)
;
    }
    procBoundary8to9
    {
        type            processor;
        value           nonuniform List<scalar> 
51
(
0.0001205825918
0.0001205922979
0.0001207302082
0.0001207302082
0.0001207547855
0.0001207867414
0.000120825587
0.0001208668291
0.0001209089366
0.0001209556193
0.0001209996722
0.0001210387016
0.0001210803108
0.0001211242284
0.0001211703242
0.0001212093649
0.0001212491275
0.000121285061
0.0001213211098
0.0001213533628
0.0001213840606
0.0001214119112
0.0001214360685
0.0001214584791
0.0001214755868
0.0001214928583
0.000121510262
0.0001215172469
0.0001215208235
0.0001215200696
0.0001215193145
0.0001215164012
0.0001215033345
0.0001214902835
0.0001214768485
0.0001214577451
0.0001214387116
0.0001214197623
0.0001213952517
0.0001213683545
0.0001213377941
0.0001213074571
0.0001212764314
0.000121240728
0.0001212022825
0.0001211614483
0.000121121019
0.0001210809768
0.0001210413609
0.0001209994117
0.0001209551736
)
;
    }
}


// ************************************************************************* //
