/*--------------------------------*- C++ -*----------------------------------*\
  =========                 |
  \\      /  F ield         | OpenFOAM: The Open Source CFD Toolbox
   \\    /   O peration     | Website:  https://openfoam.org
    \\  /    A nd           | Version:  7
     \\/     M anipulation  |
\*---------------------------------------------------------------------------*/
FoamFile
{
    version     2.0;
    format      ascii;
    class       volVectorField;
    location    "0.0018";
    object      U;
}
// * * * * * * * * * * * * * * * * * * * * * * * * * * * * * * * * * * * * * //

dimensions      [0 1 -1 0 0 0 0];

internalField   nonuniform List<vector> 
1166
(
(2.04754602e-08 2.057566369e-19 -0.002139776169)
(5.339676503e-08 1.083618722e-19 -0.002139778233)
(2.016677687e-08 -1.549516647e-19 -0.002140569109)
(5.259073402e-08 -2.227990246e-20 -0.002140571196)
(8.284157925e-08 5.554107114e-20 -0.002140575782)
(1.133871766e-07 9.723932525e-20 -0.002140582598)
(1.429411956e-07 2.762158975e-19 -0.002140591506)
(1.711335067e-07 2.034930251e-19 -0.002140602425)
(1.978189804e-07 1.72863646e-19 -0.002140615271)
(2.22934033e-07 1.720926605e-19 -0.00214062997)
(2.464321467e-07 2.017186381e-19 -0.00214064645)
(2.682272738e-07 2.523828328e-19 -0.002140664658)
(2.882754709e-07 2.634263381e-19 -0.002140684535)
(3.065521268e-07 2.978914824e-19 -0.002140706025)
(3.230451358e-07 3.013416294e-19 -0.00214072907)
(3.377605425e-07 3.221337912e-19 -0.002140753615)
(3.507026487e-07 3.59330167e-19 -0.002140779612)
(3.618838341e-07 4.185649016e-19 -0.002140807007)
(3.713230911e-07 3.885934372e-19 -0.002140835746)
(3.790467529e-07 3.742561213e-19 -0.002140865771)
(3.850976001e-07 3.65042362e-19 -0.002140897026)
(3.895157646e-07 3.641181358e-19 -0.002140929449)
(3.923353921e-07 3.395613071e-19 -0.002140962968)
(3.935995176e-07 3.162391939e-19 -0.00214099751)
(3.933513083e-07 2.95067254e-19 -0.002141032994)
(3.916538833e-07 3.002266023e-19 -0.002141069337)
(3.885588397e-07 3.047151185e-19 -0.002141106445)
(3.84119285e-07 3.084776391e-19 -0.002141144218)
(3.783890053e-07 3.111399483e-19 -0.002141182548)
(3.71419793e-07 3.121021433e-19 -0.002141221318)
(3.632774099e-07 3.115150713e-19 -0.002141260405)
(3.540141988e-07 3.071121592e-19 -0.002141299675)
(3.436818191e-07 3.028051402e-19 -0.002141338984)
(3.323456698e-07 3.041658578e-19 -0.002141378184)
(3.200608654e-07 3.112712636e-19 -0.002141417118)
(3.068752181e-07 3.180210831e-19 -0.002141455615)
(2.928384597e-07 3.251961216e-19 -0.002141493502)
(2.780005929e-07 3.332230078e-19 -0.002141530595)
(2.624096353e-07 3.272925731e-19 -0.002141566705)
(2.461142986e-07 3.156301013e-19 -0.002141601635)
(2.29167208e-07 3.040830192e-19 -0.002141635184)
(2.116121892e-07 2.98192585e-19 -0.002141667145)
(1.934888919e-07 2.950772255e-19 -0.002141697305)
(1.748407801e-07 2.899552446e-19 -0.002141725447)
(1.557046565e-07 2.82211286e-19 -0.002141751352)
(1.361202246e-07 2.767556286e-19 -0.0021417748)
(1.161228847e-07 2.731584352e-19 -0.002141795567)
(9.574258425e-08 2.714793507e-19 -0.002141813429)
(7.500712583e-08 2.689413186e-19 -0.002141828159)
(5.393825482e-08 2.666063921e-19 -0.002141839534)
(3.266321288e-08 2.668383904e-19 -0.002141847333)
(1.153385725e-08 2.649921194e-19 -0.00214185133)
(1.988347515e-08 -2.950523774e-19 -0.002141344817)
(5.184740679e-08 2.105269743e-21 -0.00214134692)
(8.165060339e-08 2.128520386e-19 -0.002141351542)
(1.117202157e-07 3.969226125e-19 -0.002141358422)
(1.408098484e-07 4.1621362e-19 -0.002141367422)
(1.685851978e-07 2.234500668e-19 -0.002141378447)
(1.949175278e-07 8.951528096e-20 -0.002141391411)
(2.19693224e-07 8.84476415e-20 -0.002141406249)
(2.428455941e-07 8.318499245e-20 -0.002141422889)
(2.643454503e-07 6.886544752e-20 -0.002141441259)
(2.841244979e-07 1.191885825e-19 -0.002141461307)
(3.021529405e-07 1.620659491e-19 -0.002141482977)
(3.184242591e-07 2.693899643e-19 -0.002141506217)
(3.329406675e-07 3.411719243e-19 -0.002141530972)
(3.457089989e-07 3.498916559e-19 -0.002141557189)
(3.567367389e-07 3.798645919e-19 -0.002141584812)
(3.660453218e-07 4.253665052e-19 -0.002141613785)
(3.736702895e-07 4.486511305e-19 -0.002141644053)
(3.796462761e-07 4.143751146e-19 -0.002141675554)
(3.840027396e-07 3.952097147e-19 -0.002141708221)
(3.867796832e-07 3.879467296e-19 -0.002141741983)
(3.880210684e-07 3.618827591e-19 -0.002141776766)
(3.877823843e-07 3.444431723e-19 -0.002141812488)
(3.861104093e-07 3.332060895e-19 -0.002141849064)
(3.830583967e-07 3.251324844e-19 -0.002141886395)
(3.786792685e-07 3.179899819e-19 -0.002141924381)
(3.730249841e-07 3.099046692e-19 -0.002141962911)
(3.661583123e-07 2.991432927e-19 -0.002142001867)
(3.581328941e-07 3.054852034e-19 -0.002142041125)
(3.489997825e-07 3.301070201e-19 -0.002142080547)
(3.388213702e-07 3.397628299e-19 -0.002142119992)
(3.276561482e-07 3.520191959e-19 -0.002142159311)
(3.155502741e-07 3.761633448e-19 -0.002142198342)
(3.025531326e-07 3.809868199e-19 -0.002142236917)
(2.88719706e-07 3.813994491e-19 -0.00214227486)
(2.740954677e-07 3.759009748e-19 -0.002142311989)
(2.587281585e-07 3.645871751e-19 -0.002142348116)
(2.426731887e-07 3.582246545e-19 -0.002142383044)
(2.259746987e-07 3.621205797e-19 -0.002142416573)
(2.086738843e-07 3.693108974e-19 -0.002142448499)
(1.908073499e-07 3.70365766e-19 -0.002142478609)
(1.724179677e-07 3.726232868e-19 -0.002142506691)
(1.535575819e-07 3.767003195e-19 -0.002142532527)
(1.342555277e-07 3.809593527e-19 -0.0021425559)
(1.14541591e-07 3.75314336e-19 -0.00214257659)
(9.444398621e-08 3.668685043e-19 -0.002142594376)
(7.398388333e-08 3.714998001e-19 -0.002142609037)
(5.320178836e-08 3.673689948e-19 -0.002142620353)
(3.221594448e-08 3.624773347e-19 -0.002142628106)
(1.137186965e-08 3.635482366e-19 -0.002142632078)
(1.957508706e-08 2.671430164e-19 -0.002142103923)
(5.104289298e-08 2.166313921e-19 -0.002142106042)
(8.04027805e-08 1.998655855e-19 -0.002142110696)
(1.100608133e-07 2.01629218e-19 -0.002142117629)
(1.387648382e-07 -3.292747935e-21 -0.002142126712)
(1.661421778e-07 4.166825101e-20 -0.002142137841)
(1.920775476e-07 4.207798261e-20 -0.00214215093)
(2.165106379e-07 2.761658941e-20 -0.0021421659)
(2.393436594e-07 -1.327715121e-20 -0.002142182686)
(2.605214763e-07 -1.714386012e-20 -0.00214220122)
(2.800254627e-07 2.409139477e-20 -0.00214222144)
(2.978124521e-07 4.271098069e-20 -0.002142243294)
(3.138689852e-07 9.91705162e-20 -0.002142266728)
(3.281929887e-07 1.478129373e-19 -0.002142291688)
(3.407848715e-07 1.91323692e-19 -0.002142318116)
(3.51660133e-07 2.269410666e-19 -0.002142345956)
(3.608474992e-07 2.51434191e-19 -0.002142375154)
(3.683753355e-07 2.669897914e-19 -0.002142405651)
(3.742674171e-07 2.774544291e-19 -0.00214243738)
(3.785603779e-07 2.812290497e-19 -0.002142470274)
(3.813013591e-07 2.775350891e-19 -0.002142504262)
(3.825350894e-07 2.954451498e-19 -0.002142539268)
(3.822999292e-07 3.072511669e-19 -0.002142575207)
(3.806509834e-07 3.153767425e-19 -0.00214261199)
(3.776411276e-07 3.212664036e-19 -0.002142649521)
(3.733236624e-07 3.257929184e-19 -0.002142687693)
(3.677560416e-07 3.297033523e-19 -0.002142726398)
(3.609914678e-07 3.33783904e-19 -0.002142765516)
(3.530805837e-07 3.371332985e-19 -0.002142804917)
(3.440826607e-07 3.430489492e-19 -0.002142844467)
(3.34060933e-07 3.527778646e-19 -0.002142884022)
(3.230611648e-07 3.619376015e-19 -0.002142923429)
(3.111303012e-07 3.645215931e-19 -0.002142962529)
(2.983233738e-07 3.670088471e-19 -0.002143001151)
(2.846878583e-07 3.680765774e-19 -0.002143039123)
(2.702740786e-07 3.671696023e-19 -0.002143076261)
(2.551283374e-07 3.784020725e-19 -0.002143112377)
(2.39301222e-07 3.928620205e-19 -0.002143147278)
(2.228471594e-07 4.045950514e-19 -0.002143180763)
(2.057959882e-07 4.074560916e-19 -0.002143212628)
(1.881852413e-07 4.111912527e-19 -0.002143242667)
(1.700614165e-07 4.162009924e-19 -0.002143270668)
(1.514645326e-07 4.228668459e-19 -0.002143296417)
(1.324368242e-07 4.253247661e-19 -0.002143319699)
(1.13001102e-07 4.266061754e-19 -0.002143340298)
(9.318238075e-08 4.301225931e-19 -0.002143357997)
(7.300163508e-08 4.33571493e-19 -0.00214337258)
(5.249288683e-08 4.341668644e-19 -0.002143383831)
(3.179269528e-08 4.349848875e-19 -0.002143391535)
(1.122476031e-08 4.384312433e-19 -0.002143395482)
(1.929251005e-08 2.591454625e-19 -0.002142846823)
(5.02980354e-08 1.686312173e-19 -0.002142848969)
(7.922003332e-08 9.258753154e-20 -0.00214285368)
(1.084397482e-07 2.545691448e-20 -0.002142860694)
(1.367200749e-07 -5.999747961e-20 -0.002142869866)
(1.637194016e-07 -2.191658004e-21 -0.00214288109)
(1.893073414e-07 2.9770702e-20 -0.00214289429)
(2.133888931e-07 5.007021913e-20 -0.002142909388)
(2.359008802e-07 6.523908879e-20 -0.002142926312)
(2.567940226e-07 7.010329905e-20 -0.002142945)
(2.76024141e-07 7.867780397e-20 -0.002142965392)
(2.935722548e-07 8.878469233e-20 -0.002142987427)
(3.094140011e-07 3.568929211e-20 -0.002143011052)
(3.235396512e-07 2.318026926e-20 -0.002143036205)
(3.359590065e-07 8.167820846e-20 -0.002143062834)
(3.466932843e-07 1.185766228e-19 -0.002143090882)
(3.557637025e-07 1.480201471e-19 -0.002143120294)
(3.631880032e-07 1.65993824e-19 -0.002143151002)
(3.689977177e-07 2.156288593e-19 -0.002143182943)
(3.732356386e-07 2.547133397e-19 -0.002143216049)
(3.759435787e-07 2.836034337e-19 -0.002143250246)
(3.771582485e-07 3.018432328e-19 -0.002143285455)
(3.769286396e-07 3.153437337e-19 -0.002143321589)
(3.753056659e-07 3.262283856e-19 -0.002143358559)
(3.723410967e-07 3.361811413e-19 -0.002143396265)
(3.680898562e-07 3.467166802e-19 -0.002143434602)
(3.626078477e-07 3.59521868e-19 -0.002143473457)
(3.55942363e-07 3.766124744e-19 -0.002143512708)
(3.481484686e-07 3.758004307e-19 -0.002143552226)
(3.392880643e-07 3.559321771e-19 -0.002143591876)
(3.294120459e-07 3.535285355e-19 -0.002143631512)
(3.185717603e-07 3.592354437e-19 -0.002143670981)
(3.068138345e-07 3.544906778e-19 -0.002143710121)
(2.941881521e-07 3.580756243e-19 -0.002143748765)
(2.807521631e-07 3.701254493e-19 -0.002143786737)
(2.66547783e-07 3.916688406e-19 -0.002143823856)
(2.516225552e-07 4.167802519e-19 -0.002143859936)
(2.36025948e-07 4.249773199e-19 -0.002143894785)
(2.197985179e-07 4.239995616e-19 -0.002143928203)
(2.029879564e-07 4.188591408e-19 -0.002143959988)
(1.856301177e-07 4.15205494e-19 -0.002143989935)
(1.677651644e-07 4.119071698e-19 -0.002144017837)
(1.49434472e-07 4.079452971e-19 -0.002144043482)
(1.306667111e-07 4.020126874e-19 -0.002144066659)
(1.114980694e-07 4.047443883e-19 -0.002144087154)
(9.195080309e-08 4.044483539e-19 -0.002144104754)
(7.204483764e-08 4.060235642e-19 -0.002144119248)
(5.181259296e-08 4.051412581e-19 -0.002144130426)
(3.137557776e-08 4.078084128e-19 -0.002144138079)
(1.107308072e-08 4.090691964e-19 -0.002144141995)
(1.90174419e-08 5.697651723e-20 -0.002143574052)
(4.958450018e-08 8.461631715e-20 -0.002143576214)
(7.8107513e-08 8.454749919e-20 -0.002143580967)
(1.06926331e-07 7.746159021e-20 -0.00214358804)
(1.347976753e-07 7.147709049e-20 -0.002143597291)
(1.613914181e-07 7.585744969e-20 -0.002143608615)
(1.866067025e-07 8.099894279e-20 -0.002143621928)
(2.103598411e-07 8.340486148e-20 -0.002143637149)
(2.325633634e-07 1.749198507e-19 -0.002143654213)
(2.531656537e-07 1.230123816e-19 -0.002143673054)
(2.721446014e-07 9.51311507e-20 -0.002143693607)
(2.894556267e-07 8.179868453e-20 -0.002143715814)
(3.050766525e-07 7.477931666e-20 -0.002143739613)
(3.190104727e-07 7.958960133e-20 -0.002143764951)
(3.312697456e-07 9.094445195e-20 -0.002143791772)
(3.418672996e-07 1.016883742e-19 -0.002143820018)
(3.508141472e-07 1.599449293e-19 -0.002143849625)
(3.581363265e-07 2.16363994e-19 -0.00214388053)
(3.638712655e-07 2.750109333e-19 -0.002143912667)
(3.680574041e-07 3.377713503e-19 -0.002143945968)
(3.70730859e-07 3.762393729e-19 -0.002143980355)
(3.719329527e-07 3.608920456e-19 -0.002144015745)
(3.717108808e-07 3.535352837e-19 -0.002144052055)
(3.701152045e-07 3.495928839e-19 -0.00214408919)
(3.671980488e-07 3.474044546e-19 -0.00214412705)
(3.630128461e-07 3.45201905e-19 -0.002144165528)
(3.576078342e-07 3.403264457e-19 -0.002144204508)
(3.510395812e-07 3.518104359e-19 -0.002144243868)
(3.433656555e-07 3.586625939e-19 -0.00214428348)
(3.346382052e-07 3.624251543e-19 -0.002144323205)
(3.249112301e-07 3.652844284e-19 -0.002144362896)
(3.142289714e-07 3.676934985e-19 -0.0021444024)
(3.026397058e-07 3.702778545e-19 -0.002144441556)
(2.901922623e-07 3.735431502e-19 -0.002144480197)
(2.769378257e-07 3.775618506e-19 -0.002144518146)
(2.629366071e-07 3.820783396e-19 -0.002144555225)
(2.482282626e-07 3.864218661e-19 -0.002144591246)
(2.328532006e-07 3.925000383e-19 -0.002144626021)
(2.168568933e-07 3.975270614e-19 -0.002144659351)
(2.002789063e-07 4.016115636e-19 -0.002144691036)
(1.831671329e-07 4.049679598e-19 -0.002144720875)
(1.655538164e-07 4.076151474e-19 -0.002144748663)
(1.474718951e-07 4.099172021e-19 -0.00214477419)
(1.289607317e-07 4.121595697e-19 -0.002144797248)
(1.100456843e-07 4.146171913e-19 -0.002144817628)
(9.076091941e-08 4.172218283e-19 -0.002144835121)
(7.112363736e-08 4.168159854e-19 -0.002144849519)
(5.116127578e-08 4.165122667e-19 -0.002144860619)
(3.098990243e-08 4.163653786e-19 -0.002144868215)
(1.09346928e-08 4.16283841e-19 -0.002144872103)
(1.874775738e-08 6.260150021e-20 -0.002144285987)
(4.888058377e-08 1.115174322e-19 -0.002144288171)
(7.699806957e-08 1.375928126e-19 -0.002144292961)
(1.054076543e-07 1.456121616e-19 -0.002144300087)
(1.329004683e-07 1.55343757e-19 -0.002144309405)
(1.591469231e-07 1.723086961e-19 -0.002144320818)
(1.840182245e-07 1.971129171e-19 -0.002144334236)
(2.074378052e-07 2.309600936e-19 -0.002144349581)
(2.293479821e-07 1.679255088e-19 -0.002144366781)
(2.496811482e-07 1.047602911e-19 -0.002144385769)
(2.683937879e-07 3.665517132e-20 -0.002144406478)
(2.85466621e-07 2.707278039e-20 -0.002144428844)
(3.008818984e-07 -2.157841863e-21 -0.002144452813)
(3.146403853e-07 5.749970764e-20 -0.002144478328)
(3.267457116e-07 1.015333921e-19 -0.002144505332)
(3.372017954e-07 1.401102652e-19 -0.00214453376)
(3.460289766e-07 1.798969544e-19 -0.00214456355)
(3.532587037e-07 2.214467251e-19 -0.002144594638)
(3.589246225e-07 2.659706037e-19 -0.002144626959)
(3.630585672e-07 2.770582272e-19 -0.002144660438)
(3.656977419e-07 2.959701783e-19 -0.002144694997)
(3.668886648e-07 3.186826431e-19 -0.002144730552)
(3.66676586e-07 3.443287339e-19 -0.002144767017)
(3.651099455e-07 3.445384329e-19 -0.002144804296)
(3.62241022e-07 3.480882458e-19 -0.002144842289)
(3.581173174e-07 3.53355592e-19 -0.002144880886)
(3.527951893e-07 3.603224993e-19 -0.002144919968)
(3.463296171e-07 3.685745758e-19 -0.002144959415)
(3.387734324e-07 3.784379327e-19 -0.002144999098)
(3.301712101e-07 3.785435954e-19 -0.002145038874)
(3.20574042e-07 3.800300291e-19 -0.002145078598)
(3.100437241e-07 3.718454061e-19 -0.002145118113)
(2.986189794e-07 3.734287238e-19 -0.00214515726)
(2.863463953e-07 3.746049629e-19 -0.002145195873)
(2.732817898e-07 3.755295815e-19 -0.002145233777)
(2.59473346e-07 3.761813212e-19 -0.002145270794)
(2.449721262e-07 3.76397474e-19 -0.002145306738)
(2.298085792e-07 3.844429957e-19 -0.002145341419)
(2.140255057e-07 3.922575196e-19 -0.002145374643)
(1.976805691e-07 4.006209324e-19 -0.002145406212)
(1.808043659e-07 4.105837556e-19 -0.002145435926)
(1.634321151e-07 4.095536953e-19 -0.002145463583)
(1.455931693e-07 4.105217434e-19 -0.002145488978)
(1.273195038e-07 4.131537214e-19 -0.002145511906)
(1.08651341e-07 4.173461826e-19 -0.002145532159)
(8.961330853e-08 4.234942504e-19 -0.002145549536)
(7.023288524e-08 4.203163902e-19 -0.002145563831)
(5.052965756e-08 4.186704651e-19 -0.002145574844)
(3.061509995e-08 4.178529617e-19 -0.002145582376)
(1.080562446e-08 4.174908378e-19 -0.002145586229)
(1.849869925e-08 9.053532348e-20 -0.002144982982)
(4.822750371e-08 1.955667358e-19 -0.002144985184)
(7.596688918e-08 3.135069379e-19 -0.002144990013)
(1.039972192e-07 2.189262062e-19 -0.002144997196)
(1.311134398e-07 2.028629954e-19 -0.002145006591)
(1.569950297e-07 2.18421247e-19 -0.002145018093)
(1.815378693e-07 2.485772783e-19 -0.002145031615)
(2.046614182e-07 2.873141746e-19 -0.002145047078)
(2.262831391e-07 2.270120583e-19 -0.002145064405)
(2.463431539e-07 1.714645151e-19 -0.002145083526)
(2.648091927e-07 1.104501288e-19 -0.002145104378)
(2.816581485e-07 1.030254077e-19 -0.0021451269)
(2.968811223e-07 8.201396919e-20 -0.002145151034)
(3.104679907e-07 1.076410213e-19 -0.002145176718)
(3.224141457e-07 1.259518907e-19 -0.00214520389)
(3.327338899e-07 1.419939309e-19 -0.002145232487)
(3.414519262e-07 1.554896256e-19 -0.002145262448)
(3.485963717e-07 1.666592498e-19 -0.002145293709)
(3.541941224e-07 1.715536114e-19 -0.002145326197)
(3.58277365e-07 1.692065541e-19 -0.002145359838)
(3.608856342e-07 1.895580576e-19 -0.002145394551)
(3.620641248e-07 2.316831496e-19 -0.002145430255)
(3.618638583e-07 2.645072808e-19 -0.002145466857)
(3.603302308e-07 2.956295263e-19 -0.002145504264)
(3.575081311e-07 3.271613323e-19 -0.002145542371)
(3.534430567e-07 3.385342953e-19 -0.002145581066)
(3.481952131e-07 3.563176307e-19 -0.002145620233)
(3.418318061e-07 3.578824311e-19 -0.002145659748)
(3.343878946e-07 3.653894313e-19 -0.002145699478)
(3.259076742e-07 3.656373879e-19 -0.002145739283)
(3.164458006e-07 3.690071409e-19 -0.002145779017)
(3.060516108e-07 3.74418077e-19 -0.002145818525)
(2.947830092e-07 3.792605262e-19 -0.002145857646)
(2.826792256e-07 3.766876219e-19 -0.002145896213)
(2.697907267e-07 3.762656601e-19 -0.002145934055)
(2.561777725e-07 3.77589092e-19 -0.002145970992)
(2.418701793e-07 3.806402921e-19 -0.00214600684)
(2.269091967e-07 3.852380949e-19 -0.002146041411)
(2.113386075e-07 3.827588641e-19 -0.002146074514)
(1.952026146e-07 3.806943948e-19 -0.002146105955)
(1.785509456e-07 3.785458373e-19 -0.002146135531)
(1.614051818e-07 3.791031114e-19 -0.002146163047)
(1.437973217e-07 3.790665429e-19 -0.002146188299)
(1.257573031e-07 3.853214088e-19 -0.002146211087)
(1.07318965e-07 3.908577955e-19 -0.00214623121)
(8.851957855e-08 3.955183212e-19 -0.002146248466)
(6.937289406e-08 3.991369947e-19 -0.002146262657)
(4.991105865e-08 4.018582207e-19 -0.002146273583)
(3.023677063e-08 4.037434938e-19 -0.002146281053)
(1.066579111e-08 4.047850125e-19 -0.002146284871)
(1.825594685e-08 4.371625113e-20 -0.002145665423)
(4.759352397e-08 4.346528468e-20 -0.002145667643)
(7.496856532e-08 4.159769665e-21 -0.002145672509)
(1.026333873e-07 -3.746536821e-20 -0.002145679746)
(1.2940753e-07 8.757702781e-20 -0.00214568921)
(1.549714659e-07 1.680435735e-19 -0.0021457008)
(1.792044099e-07 2.269078641e-19 -0.002145714422)
(2.020237343e-07 2.709701264e-19 -0.002145729994)
(2.233637513e-07 2.989072066e-19 -0.002145747436)
(2.431693217e-07 3.174920489e-19 -0.002145766685)
(2.614062248e-07 3.398434836e-19 -0.002145787677)
(2.780551236e-07 2.926461745e-19 -0.002145810349)
(2.930930507e-07 2.545494905e-19 -0.002145834637)
(3.065063414e-07 2.103356291e-19 -0.002145860476)
(3.183027574e-07 1.650269596e-19 -0.002145887806)
(3.28499357e-07 1.627375211e-19 -0.002145916564)
(3.371177523e-07 1.485098482e-19 -0.002145946687)
(3.441791006e-07 1.672519995e-19 -0.002145978106)
(3.497106375e-07 1.766663142e-19 -0.002146010748)
(3.537466752e-07 2.221533275e-19 -0.002146044537)
(3.563279004e-07 2.31429657e-19 -0.002146079393)
(3.575033611e-07 2.375088225e-19 -0.002146115228)
(3.573163955e-07 2.367565236e-19 -0.002146151953)
(3.558130029e-07 2.603339842e-19 -0.002146189471)
(3.530334169e-07 2.75927107e-19 -0.002146227674)
(3.490309986e-07 2.88118594e-19 -0.002146266451)
(3.438674007e-07 2.940713643e-19 -0.002146305686)
(3.375880325e-07 2.925287331e-19 -0.002146345252)
(3.302457021e-07 2.959121296e-19 -0.002146385013)
(3.218816661e-07 3.053373479e-19 -0.002146424831)
(3.125446531e-07 3.223884803e-19 -0.00214646456)
(3.022936504e-07 3.35725907e-19 -0.002146504042)
(2.911705062e-07 3.349856639e-19 -0.002146543119)
(2.792285822e-07 3.334614079e-19 -0.002146581625)
(2.665127859e-07 3.372437964e-19 -0.002146619389)
(2.530663066e-07 3.372422781e-19 -0.002146656233)
(2.38943559e-07 3.428308336e-19 -0.00214669197)
(2.24177665e-07 3.457612569e-19 -0.002146726417)
(2.088124282e-07 3.496375643e-19 -0.002146759386)
(1.928849319e-07 3.513498121e-19 -0.002146790685)
(1.76431642e-07 3.500120365e-19 -0.002146820116)
(1.594988645e-07 3.593349793e-19 -0.002146847481)
(1.421071669e-07 3.646624735e-19 -0.002146872583)
(1.242918357e-07 3.760763393e-19 -0.002146895224)
(1.060834393e-07 3.84825454e-19 -0.002146915208)
(8.75094479e-08 3.919741403e-19 -0.00214693234)
(6.85898664e-08 3.98077323e-19 -0.002146946422)
(4.934687412e-08 4.036546456e-19 -0.002146957262)
(2.990092291e-08 4.090717537e-19 -0.002146964669)
(1.05494663e-08 4.14621232e-19 -0.002146968456)
(1.803515449e-08 2.529676521e-19 -0.002146333615)
(4.701468076e-08 8.360727777e-20 -0.002146335854)
(7.405505467e-08 -7.837507291e-20 -0.002146340758)
(1.013852858e-07 4.26699452e-20 -0.00214634805)
(1.278313162e-07 1.156076375e-19 -0.002146357584)
(1.530752935e-07 1.910239096e-19 -0.002146369252)
(1.770069351e-07 2.654553973e-19 -0.002146382963)
(1.995469659e-07 3.421037086e-19 -0.002146398635)
(2.206293372e-07 4.273347757e-19 -0.002146416195)
(2.402047146e-07 4.329804405e-19 -0.002146435573)
(2.582369729e-07 4.602748373e-19 -0.002146456704)
(2.746908779e-07 4.271443565e-19 -0.002146479519)
(2.895432381e-07 4.108645811e-19 -0.00214650395)
(3.027962393e-07 3.288064043e-19 -0.002146529937)
(3.144584754e-07 3.120018805e-19 -0.002146557418)
(3.245439356e-07 2.933759173e-19 -0.00214658633)
(3.330671743e-07 2.771516052e-19 -0.002146616606)
(3.400500664e-07 2.573285589e-19 -0.002146648173)
(3.455216018e-07 2.426882034e-19 -0.00214668096)
(3.495170011e-07 2.344614936e-19 -0.002146714888)
(3.520735339e-07 2.835369762e-19 -0.002146749875)
(3.532387074e-07 2.7758087e-19 -0.002146785835)
(3.530695863e-07 2.831574449e-19 -0.002146822671)
(3.515940841e-07 2.97452861e-19 -0.002146860284)
(3.488575855e-07 2.888503687e-19 -0.002146898569)
(3.449189044e-07 3.074224625e-19 -0.002146937416)
(3.398276836e-07 3.253757617e-19 -0.002146976705)
(3.336370603e-07 3.310822713e-19 -0.002147016305)
(3.263882779e-07 3.247919034e-19 -0.002147056084)
(3.181333404e-07 3.317698683e-19 -0.002147095902)
(3.08914832e-07 3.363321461e-19 -0.00214713561)
(2.987830583e-07 3.409792894e-19 -0.002147175055)
(2.878034422e-07 3.454799371e-19 -0.002147214075)
(2.760145053e-07 3.61665989e-19 -0.002147252506)
(2.634605348e-07 3.579956904e-19 -0.002147290178)
(2.501773335e-07 3.549279319e-19 -0.002147326914)
(2.362122046e-07 3.479157586e-19 -0.002147362532)
(2.216298671e-07 3.390090873e-19 -0.002147396846)
(2.064557783e-07 3.45444498e-19 -0.002147429672)
(1.907241211e-07 3.586417231e-19 -0.002147460817)
(1.744672957e-07 3.716331472e-19 -0.002147490092)
(1.577200239e-07 3.853022738e-19 -0.0021475173)
(1.405280284e-07 4.001248461e-19 -0.002147542244)
(1.229160045e-07 3.99947628e-19 -0.002147564733)
(1.049219981e-07 4.013314237e-19 -0.002147584572)
(8.656435445e-08 4.044533232e-19 -0.002147601569)
(6.785647743e-08 4.029041302e-19 -0.002147615536)
(4.882495491e-08 4.028719779e-19 -0.002147626281)
(2.958090487e-08 4.040738227e-19 -0.002147633622)
(1.043350274e-08 4.004666822e-19 -0.00214763737)
(1.783008467e-08 2.642200418e-19 -0.002146987879)
(4.647724424e-08 1.738466756e-19 -0.002146990134)
(7.320508516e-08 1.207798918e-19 -0.002146995069)
(1.002182867e-07 1.011134225e-19 -0.002147002406)
(1.263583151e-07 5.229455148e-20 -0.002147011998)
(1.513124855e-07 1.618439754e-19 -0.002147023741)
(1.749733209e-07 2.41780961e-19 -0.002147037544)
(1.972646004e-07 3.124192186e-19 -0.002147053323)
(2.181190091e-07 3.901603398e-19 -0.002147071002)
(2.374864227e-07 4.00281414e-19 -0.002147090509)
(2.553175086e-07 4.260426823e-19 -0.002147111771)
(2.715785994e-07 4.57949355e-19 -0.002147134717)
(2.862658344e-07 5.040542468e-19 -0.002147159287)
(2.993785042e-07 4.434176368e-19 -0.002147185418)
(3.109220064e-07 4.516028154e-19 -0.002147213047)
(3.2090346e-07 4.156506906e-19 -0.002147242106)
(3.293386011e-07 3.90359008e-19 -0.002147272526)
(3.362502663e-07 3.213867072e-19 -0.002147304235)
(3.416695372e-07 2.956907754e-19 -0.002147337158)
(3.456295962e-07 2.694137487e-19 -0.002147371217)
(3.481706655e-07 2.740567723e-19 -0.002147406328)
(3.493349932e-07 2.833375509e-19 -0.002147442402)
(3.491627577e-07 2.90048564e-19 -0.002147479343)
(3.477121485e-07 2.970787558e-19 -0.002147517043)
(3.450257209e-07 3.048931561e-19 -0.002147555403)
(3.411499537e-07 3.13811569e-19 -0.002147594312)
(3.361258429e-07 3.249539589e-19 -0.002147633644)
(3.300031763e-07 3.42507931e-19 -0.002147673272)
(3.228479452e-07 3.41365375e-19 -0.002147713058)
(3.146934838e-07 3.441143921e-19 -0.002147752864)
(3.055864434e-07 3.476673188e-19 -0.002147792543)
(2.955743473e-07 3.539117724e-19 -0.002147831941)
(2.847117453e-07 3.639963128e-19 -0.002147870898)
(2.730652861e-07 3.788359888e-19 -0.002147909247)
(2.606575674e-07 3.909360388e-19 -0.00214794682)
(2.475282064e-07 3.974186313e-19 -0.00214798344)
(2.337247551e-07 3.972801299e-19 -0.002148018931)
(2.192939655e-07 3.900535242e-19 -0.00214805311)
(2.042904896e-07 3.836400945e-19 -0.002148085787)
(1.887338575e-07 3.731587754e-19 -0.002148116777)
(1.726580812e-07 3.765516869e-19 -0.002148145889)
(1.560940816e-07 3.790990621e-19 -0.002148172934)
(1.390777392e-07 3.822180112e-19 -0.002148197721)
(1.216528472e-07 3.740967168e-19 -0.002148220057)
(1.038420485e-07 3.667443444e-19 -0.002148239754)
(8.567754805e-08 3.594499455e-19 -0.002148256619)
(6.716633299e-08 3.606813266e-19 -0.00214827047)
(4.833314821e-08 3.621022294e-19 -0.002148281122)
(2.928456477e-08 3.577659564e-19 -0.002148288396)
(1.032295879e-08 3.500425712e-19 -0.002148292112)
(1.764237008e-08 -1.688738975e-19 -0.002147628425)
(4.59854163e-08 6.763491414e-20 -0.002147630698)
(7.24280596e-08 2.267794598e-19 -0.002147635667)
(9.915443115e-08 3.492670916e-19 -0.002147643056)
(1.250232134e-07 2.111370047e-19 -0.002147652717)
(1.497260265e-07 2.337683939e-19 -0.002147664543)
(1.731491485e-07 2.299229993e-19 -0.002147678442)
(1.952163418e-07 2.026809895e-19 -0.002147694331)
(2.15863049e-07 1.465548959e-19 -0.002147712127)
(2.350290165e-07 2.711051563e-19 -0.002147731754)
(2.526667654e-07 3.596498767e-19 -0.002147753141)
(2.687628891e-07 4.272788338e-19 -0.002147776222)
(2.833083732e-07 4.816572525e-19 -0.002147800934)
(2.962989469e-07 5.219035651e-19 -0.00214782721)
(3.077333024e-07 4.939474326e-19 -0.002147854984)
(3.176203762e-07 4.70462784e-19 -0.002147884188)
(3.25976198e-07 4.512611577e-19 -0.002147914749)
(3.328267427e-07 4.33865358e-19 -0.002147946597)
(3.382000531e-07 3.656066685e-19 -0.002147979654)
(3.421317572e-07 3.701236878e-19 -0.00214801384)
(3.446614999e-07 3.1697309e-19 -0.00214804907)
(3.458245332e-07 3.239638443e-19 -0.002148085253)
(3.456605383e-07 3.178696549e-19 -0.00214812229)
(3.442250001e-07 3.02268963e-19 -0.002148160081)
(3.4158573e-07 3.077214682e-19 -0.002148198514)
(3.377661996e-07 2.900484064e-19 -0.002148237477)
(3.328055359e-07 2.801789487e-19 -0.002148276848)
(3.267540128e-07 2.767981431e-19 -0.002148316498)
(3.196631946e-07 2.956658709e-19 -0.002148356292)
(3.116000903e-07 3.075824487e-19 -0.002148396082)
(3.025956189e-07 3.099431159e-19 -0.002148435727)
(2.926974559e-07 3.061352504e-19 -0.002148475073)
(2.819555453e-07 3.062044547e-19 -0.002148513963)
(2.704150234e-07 3.181515984e-19 -0.00214855223)
(2.581348444e-07 3.422407927e-19 -0.0021485897)
(2.451455559e-07 3.718748329e-19 -0.002148626203)
(2.31492768e-07 3.904514779e-19 -0.002148661564)
(2.17214433e-07 4.041059748e-19 -0.002148695601)
(2.023488488e-07 4.01421815e-19 -0.002148728132)
(1.869457775e-07 3.9138483e-19 -0.002148758965)
(1.710263523e-07 3.800335771e-19 -0.002148787918)
(1.546304732e-07 3.683099731e-19 -0.0021488148)
(1.377878624e-07 3.551563174e-19 -0.002148839426)
(1.205298542e-07 3.473668038e-19 -0.00214886161)
(1.028883496e-07 3.368449159e-19 -0.002148881164)
(8.48840351e-08 3.230629134e-19 -0.002148897903)
(6.654412905e-08 3.103509667e-19 -0.002148911641)
(4.788604634e-08 2.927639238e-19 -0.002148922204)
(2.90217763e-08 2.797006274e-19 -0.002148929412)
(1.023465309e-08 2.80576361e-19 -0.002148933094)
(1.747981076e-08 -1.429202413e-19 -0.002148255545)
(4.555848775e-08 1.606203628e-19 -0.002148257836)
(7.175490279e-08 3.796149053e-19 -0.002148262842)
(9.823723752e-08 5.855754335e-19 -0.002148270285)
(1.238664356e-07 6.028900219e-19 -0.002148280017)
(1.483386646e-07 4.655143681e-19 -0.002148291932)
(1.715528868e-07 3.835986599e-19 -0.00214830593)
(1.934231081e-07 3.302065722e-19 -0.002148321924)
(2.138714253e-07 2.89426478e-19 -0.002148339831)
(2.328598562e-07 3.522534408e-19 -0.002148359577)
(2.503482817e-07 4.144269121e-19 -0.002148381094)
(2.66303745e-07 4.835878976e-19 -0.002148404313)
(2.807255752e-07 5.702649749e-19 -0.002148429168)
(2.936047558e-07 5.61925617e-19 -0.00214845559)
(3.049417842e-07 5.18534977e-19 -0.00214848351)
(3.147447558e-07 4.946029316e-19 -0.002148512858)
(3.230337763e-07 4.810571838e-19 -0.002148543564)
(3.298310398e-07 4.777758054e-19 -0.002148575552)
(3.351667502e-07 4.421824969e-19 -0.002148608744)
(3.390771521e-07 4.100731896e-19 -0.002148643059)
(3.415960314e-07 3.826412673e-19 -0.002148678409)
(3.427566344e-07 3.622817362e-19 -0.002148714701)
(3.426072528e-07 3.48845804e-19 -0.002148751837)
(3.412037698e-07 3.380810293e-19 -0.002148789716)
(3.385858962e-07 3.305283351e-19 -0.002148828227)
(3.348101089e-07 3.276172155e-19 -0.002148867245)
(3.299081466e-07 3.250481246e-19 -0.002148906654)
(3.239231298e-07 3.230967285e-19 -0.002148946326)
(3.169023728e-07 3.358205949e-19 -0.002148986124)
(3.088984191e-07 3.484352022e-19 -0.002149025906)
(2.999819692e-07 3.487278551e-19 -0.002149065519)
(2.901852033e-07 3.504323694e-19 -0.002149104816)
(2.795511201e-07 3.500335418e-19 -0.002149143638)
(2.681169739e-07 3.461207574e-19 -0.002149181821)
(2.559319467e-07 3.42270302e-19 -0.002149219195)
(2.430639084e-07 3.440872432e-19 -0.002149255585)
(2.295385863e-07 3.473881635e-19 -0.002149290819)