/*--------------------------------*- C++ -*----------------------------------*\
  =========                 |
  \\      /  F ield         | OpenFOAM: The Open Source CFD Toolbox
   \\    /   O peration     | Website:  https://openfoam.org
    \\  /    A nd           | Version:  7
     \\/     M anipulation  |
\*---------------------------------------------------------------------------*/
FoamFile
{
    version     2.0;
    format      ascii;
    class       volScalarField;
    location    "0.0024";
    object      p;
}
// * * * * * * * * * * * * * * * * * * * * * * * * * * * * * * * * * * * * * //

dimensions      [1 -1 -2 0 0 0 0];

internalField   nonuniform List<scalar> 
1166
(
1489932.7
1488416.83
1488907.24
1489392.169
1489872.699
1490418.758
1491029.541
1491704.438
1492418.535
1493173.393
1493952.211
1494756.264
1495570.744
1496395.912
1497219.633
1498042.366
1498863.722
1499677.162
1488765.151
1487256.684
1487702.233
1488125.978
1488533.016
1488996.453
1489524.993
1490110.746
1490737.7
1491403.471
1492095.069
1492810.122
1493537.855
1494275.604
1495019.487
1495766.24
1496511.663
1497253.918
1497989.846
1498715.619
1499435.507
1500148.196
1500849.392
1501534.045
1502212.167
1502884.561
1503549.586
1504204.638
1504862.733
1505521.052
1506176.865
1506826.692
1507471.692
1508117.638
1508759.385
1509390.301
1510005.402
1510611.277
1511206.127
1511784.677
1512344.121
1512889.375
1513419.928
1513931.955
1514424.506
1514901.214
1515359.736
1515801.257
1516251.282
1516707.134
1487546.826
1486054.467
1486463.759
1486840.308
1487192.092
1487594.516
1488060.72
1488577.195
1489133.618
1489724.746
1490341.965
1490979.365
1491633.814
1492299.955
1492975.798
1493655.922
1494334.158
1495013.753
1495690.25
1496358.915
1497026.89
1497687.809
1498335.407
1498977.3
1499618.27
1500256.14
1500888.149
1501518.476
1502153.822
1502789.964
1503422.582
1504048.415
1504676.52
1505303.1
1505920.511
1506522.053
1507113.923
1507696.872
1508264.938
1508814.085
1509348.622
1509869.846
1510373.518
1510857.547
1511326.214
1511778.803
1512209.888
1512627.207
1513054.213
1513481.885
1486314.574
1484849.518
1485230.349
1485570.959
1485881.628
1486238.735
1486651.327
1487109.521
1487605.97
1488132.135
1488686.377
1489260.982
1489854.426
1490458.013
1491073.089
1491691.999
1492313.648
1492938.934
1493562.108
1494182.85
1494802.469
1495415.557
1496018.45
1496626.481
1497236.11
1497844.2
1498446.905
1499057.383
1499672.328
1500286.322
1500893.602
1501502.199
1502112.302
1502714.846
1503302.672
1503880.229
1504450.692
1505007.482
1505546.117
1506069.87
1506581.582
1507076.667
1507552.092
1508012.165
1508457.719
1508883.343
1509290.44
1509686.944
1510087.851
1510489.261
1485101.172
1483669.575
1484025.671
1484336.001
1484612.236
1484930.071
1485297.252
1485705.166
1486151.694
1486625.92
1487128.438
1487648.299
1488187.919
1488736.159
1489297.596
1489861.641
1490436.007
1491014.795
1491588.152
1492164.395
1492740.859
1493313.516
1493883.875
1494462.138
1495043.667
1495622.994
1496206.164
1496798.036
1497391.667
1497980.409
1498568.994
1499161.833
1499748.737
1500322.159
1500885.174
1501442.472
1501987.452
1502515.15
1503028.136
1503529.998
1504016.186
1504483.021
1504934.642
1505372.577
1505791.68
1506193.434
1506580.171
1506952.585
1507329.426
1507709.656
1483919.296
1482524.623
1482857.903
1483141.033
1483386.463
1483669.223
1484002.411
1484370.946
1484776.395
1485204.271
1485657.833
1486132.31
1486624.585
1487125.073
1487640.153
1488158.206
1488690.888
1489226.458
1489753.721
1490290.81
1490831.53
1491367.558
1491912.699
1492466.461
1493021.845
1493577.228
1494145.03
1494717.434
1495287.02
1495855.494
1496429.731
1497000.129
1497558.573
1498107.021
1498650.239
1499182.816
1499699.146
1500201.355
1500692.988
1501169.909
1501628.072
1502071.409
1502501.713
1502913.582
1503309.083
1503690.738
1504054.248
1504404.404
1504760.919
1505117.932
1482768.624
1481417.242
1481731.529
1481992.485
1482213.424
1482467.989
1482772.083
1483104.597
1483469.374
1483860.017
1484270.006
1484705.282
1485152.366
1485615.794
1486093.147
1486570.859
1487061.55
1487552.471
1488046.41
1488552.064
1489059.412
1489568.617
1490093.099
1490624.404
1491154.303
1491694.854
1492244.597
1492794.544
1493342.969
1493897.159
1494450.172
1494992.927
1495526.279
1496055.076
1496574.808
1497079.238
1497570.379
1498051.649
1498518.978
1498968.332
1499403.463
1499826.16
1500230.643
1500619.359
1500995.173
1501353.907
1501695.787
1502027.382
1502362.132
1502696.327
1481660.375
1480354.863
1480656.303
1480897.662
1481096.712
1481326.656
1481603.864
1481903.57
1482230.947
1482591.256
1482965.11
1483364.045
1483771.843
1484202.457
1484639.345
1485083.071
1485537.012
1485989.694
1486459.092
1486937.131
1487413.669
1487906
1488410.31
1488916.278
1489429.572
1489956.02
1490485.688
1491013.488
1491547.142
1492082.232
1492608.683
1493126.477
1493640.572
1494147.079
1494639.131
1495118.946
1495589.745
1496047.187
1496487.615
1496914.621
1497329.713
1497726.748
1498108.734
1498478.384
1498831.513
1499169.114
1499493.062
1499804.285
1500118.312
1500434.347
1480599.9
1479335.254
1479623.517
1479852.136
1480032.649
1480239.152
1480488.891
1480765.51
1481063.679
1481394.213
1481736.809
1482105.971
1482481.375
1482876.578
1483272.375
1483687.714
1484110.661
1484537.987
1484982.717
1485432.426
1485890.894
1486367.21
1486849.167
1487335.241
1487837.461
1488346.225
1488852.86
1489365.474
1489882.103
1490391.641
1490893.394
1491392.47
1491885.346
1492364.519
1492832.716
1493292.896
1493740.117
1494171.459
1494590.333
1494997.645
1495387.173
1495762.512
1496126.126
1496473.104
1496805.69
1497125.884
1497429.761
1497722.012
1498018.861
1498314.714
1479592.232
1478366.702
1478636.041
1478854.427
1479022.057
1479207.081
1479428.912
1479687.777
1479961.259
1480263.936
1480580.962
1480917.087
1481264.649
1481627.744
1481996.064
1482384.997
1482776.799
1483186.685
1483609.634
1484035.103
1484481.998
1484940.119
1485400.343
1485875.78
1486361.998
1486847.858
1487339.204
1487836.858
1488328.903
1488814.158
1489297.899
1489776.75
1490242.55
1490698.829
1491148.226
1491584.887
1492006.975
1492417.606
1492816.654
1493198.884
1493567.683
1493925.43
1494266.179
1494593.333
1494909.195
1495209.16
1495494.756
1495771.357
1496049.235
1496326.928
1478632.144
1477448.669
1477698.955
1477898.778
1478059.921
1478228.921
1478428.991
1478667.438
1478920.191
1479192.232
1479487.146
1479789.865
1480115.107
1480448.347
1480799.558
1481163.241
1481534.595
1481928.135
1482327.343
1482742.339
1483174.829
1483610.279
1484058.901
1484522.126
1484987.059
1485456.827
1485935.146
1486409.269
1486877.654
1487345.692
1487809.85
1488262.185
1488706.38
1489144.847
1489570.62
1489983.295
1490385.672
1490776.264
1491151.16
1491513.409
1491864.934
1492199.9
1492521.737
1492832.777
1493128.424
1493410.725
1493681.129
1493939.983
1494201.384
1494464.118
1477715.636
1476576.079
1476811.828
1476992.177
1477139.664
1477304.452
1477487.307
1477698.873
1477936.295
1478182.229
1478456.358
1478734.899
1479039.502
1479347.805
1479681.339
1480019.891
1480380.525
1480754.075
1481136.868
1481542.69
1481954.707
1482376.498
1482816.461
1483260.429
1483708.885
1484166.7
1484622.273
1485073.414
1485525.407
1485974.332
1486412.905
1486844.763
1487272.113
1487686.626
1488089.676
1488483.717
1488865.592
1489233.129
1489589.084
1489933.876
1490263.068
1490579.625
1490885.706
1491176.867
1491455.329
1491722.69
1491975.973
1492219.768
1492466.679
1492712.895
1476846.511
1475750.503
1475974.387
1476139.99
1476266.451
1476420.686
1476592.406
1476779.813
1476998.216
1477226.648
1477474.717
1477740.925
1478020.907
1478317.908
1478631.052
1478957.07
1479306.142
1479659.962
1480036.024
1480424.425
1480820.258
1481235.77
1481658.452
1482085.471
1482522.345
1482959.016
1483392.621
1483828.311
1484261.642
1484686.248
1485105.844
1485521.618
1485924.46
1486317.72
1486703.395
1487076.336
1487436.448
1487786.166
1488124.111
1488447.66
1488759.39
1489060.204
1489346.943
1489621.543
1489885.147
1490135.845
1490374.796
1490604.753
1490836.628
1491069.137
1476011.632
1474963.502
1475180.808
1475334.392
1475444.965
1475576.646
1475740.697
1475913.707
1476108.063
1476327.529
1476553.617
1476809.374
1477068.019
1477356.517
1477650.023
1477969.158
1478298.999
1478645.384
1479010.556
1479381.37
1479771.082
1480172.203
1480577.64
1480993.298
1481410.808
1481826.58
1482245.675
1482663.056
1483073.419
1483480.409
1483883.531
1484275.075
1484658.536
1485035.747
1485399.456
1485752.006
1486095.483
1486426.398
1486744.291
1487051.346
1487346.716
1487629.138
1487900.176
1488159.459
1488407.016
1488644
1488868.75
1489085.075
1489303.97
1489521.87
1475206.859
1474200.774
1474409.025
1474561.336
1474664.823
1474778.716
1474925.351
1475095.493
1475271.799
1475475.674
1475692.686
1475928.142
1476181.849
1476452.052
1476739.035
1477045.151
1477361.891
1477704.058
1478050.635
1478414.544
1478794.222
1479177.975
1479572.176
1479970.37
1480368.092
1480770.343
1481171.475
1481567.34
1481961.511
1482351.582
1482731.686
1483105.001
1483473.013
1483828.001
1484173.032
1484510.136
1484833.968
1485146.205
1485448.668
1485738.489
1486016.596
1486284.138
1486539.206
1486783.231
1487017.344
1487239.966
1487451.906
1487656.367
1487861.881
1488067.188
1474449.482
1473479.733
1473671.139
1473815.003
1473920.084
1474029.406
1474156.177
1474314.178
1474486.739
1474671.984
1474885.279
1475103.529
1475352.063
1475608.116
1475892.254
1476182.59
1476495.926
1476820.027
1477158.78
1477517.299
1477879.265
1478251.745
1478630.521
1479009.999
1479395.153
1479779.759
1480160.868
1480541.989
1480918.669
1481287.271
1481650.81
1482008.458
1482354.618
1482691.834
1483021.715
1483339.124
1483645.623
1483942.714
1484227.695
1484501.544
1484765.073
1485016.549
1485257.251
1485488.209
1485708.299
1485918.342
1486118.769
1486310.929
1486504.716
1486698.127
1473735.551
1472807.163
1472985.369
1473110.273
1473204.754
1473314.696
1473437.457
1473576.207
1473744.761
1473923.253
1474122.223
1474340.537
1474573.667
1474827.563
1475095.64
1475381.196
1475683.536
1475997.639
1476334.913
1476675.01
1477025.576
1477384.945
1477746.039
1478113.859
1478481.718
1478847.844
1479215.71
1479578.697
1479935.593
1480289.281
1480636.185
1480973.504
1481303.405
1481625.227
1481935.973
1482236.816
1482528.342
1482808.458
1483078.08
1483337.631
1483585.61
1483823.206
1484050.954
1484268.386
1484476.571
1484674.866
1484863.29
1485044.485
1485227.109
1485409.568
1473040.652
1472159.256
1472335.208
1472452.845
1472531.782
1472630.266
1472754.736
1472889.942
1473043.27
1473221.493
1473406.938
1473620.86
1473845.551
1474093.268
1474351.745
1474634.224
1474926.041
1475239.548
1475558.184
1475887.047
1476227.232
1476569.916
1476920.242
1477271.247
1477622.247
1477976.712
1478325.774
1478670.781
1479014.514
1479350.412
1479678.794
1480001.541
1480314.812
1480618.925
1480914.829
1481199.9
1481475.097
1481741.255
1481996.031
1482240.4
1482475.327
1482699.573
1482914.128
1483119.75
1483316.033
1483503.066
1483680.846
1483851.755
1484024.22
1484196.296
1472375.02
1471534.633
1471704.065
1471824.663
1471908.062
1471994.106
1472106.993
1472244.293
1472391.439
1472560.325
1472749.644
1472949.887
1473175.361
1473409.753
1473668.594
1473936.988
1474225.829
1474524.093
1474831.34
1475152.499
1475476.708
1475809.33
1476143.368
1476479.055
1476819.93
1477154.802
1477487.49
1477820.539
1478145.689
1478464.84
1478779.623
1479084.769
1479382.031
1479672.244
1479951.429
1480221.555
1480483.473
1480734.231
1480975.019
1481206.703
1481428.126
1481640.075
1481843.186
1482037.279
1482222.682
1482399.078
1482566.871
1482728.359
1482891.092
1483053.477
1471759.22
1470953.593
1471108.913
1471221.439
1471304.926
1471398.758
1471503.722
1471631.651
1471781.621
1471940.403
1472124.198
1472323.417
1472538.807
1472772.573
1473021.944
1473287.383
1473566.292
1473852.857
1474154.731
1474460.427
1474775.295
1475092.436
1475412.447
1475738.675
1476060.156
1476380.394
1476701.893
1477016.755
1477326.492
1477632.548
1477930.033
1478220.334
1478504.279
1478778.013
1479043.08
1479300.509
1479547.451
1479784.723
1480013.173
1480231.851
1480441.452
1480641.913
1480833.755
1481017.223
1481192.063
1481358.73
1481517.373
1481669.904
1481823.404
1481976.606
1471177.753
1470415.712
1470568.124
1470667.918
1470738.307
1470830.191
1470941.496
1471063.157
1471205.532
1471368.897
1471541.015
1471737.846
1471946.684
1472178.267
1472420.492
1472680.978
1472947.869
1473229.845
1473516.821
1473813.793
1474114.119
1474418.37
1474729.721
1475037.718
1475345.338
1475655.096
1475959.663
1476260.336
1476556.954
1476846.688
1477130.547
1477407.409
1477675.6
1477936.187
1478188.293
1478431.275
1478665.424
1478890.153
1479105.859
1479312.864
1479510.988
1479700.698
1479882.203
1480055.36
1480220.564
1480378.281
1480528.323
1480672.28
1480817.363
1480961.998
1470615.905
1469892.41
1470040.935
1470146.706
1470221.971
1470300.882
1470406.31
1470532.528
1470669.744
1470826.98
1471003.952
1471191.508
1471402.448
1471623.752
1471863.24
1472110.122
1472372.558
1472641.003
1472920.023
1473203.752
1473492.271
1473788.665
1474083.348
1474379.071
1474675.997
1474970.024
1475262.139
1475548.437
1475829.969
1476107.116
1476376.818
1476639.141
1476894.491
1477141.802
1477380.779
1477611.223
1477832.763
1478045.659
1478250.039
1478445.905
1478633.552
1478813.222
1478984.764
1479148.318
1479304.866
1479454.186
1479595.83
1479732.011
1479868.906
1480005.737
1470099.771
1469407.799
1469544.878
1469646.301
1469722.742
1469810.198
1469910.884
1470030.067
1470169.906
1470322.074
1470495.656
1470687.151
1470888.562
1471107.713
1471335.038
1471578.397
1471828.577
1472089.616
1472357.037
1472629.895
1472911.242
1473192.481
1473476.228
1473760.096
1474042.963
1474325.099
1474602.289
1474875.607
1475145.181
1475408.268
1475664.782
1475914.657
1476157.199
1476392.165
1476618.846
1476837.152
1477047.253
1477248.979
1477442.55
1477628.048
1477805.961
1477975.999
1478137.983
1478293.037
1478441.031
1478582.334
1478716.563
1478845.113
1478974.814
1479103.889
1469099.104
1469192.863
1469257.772
1469342.964
1469448.11
1469567.541
1469701.157
1469856.288
1470023.547
1470209.713
1470408.428
1470618.338
1470842.223
1471075.617
1471318.928
1471570.395
1471827.731
1472094.018
1472361.611
1472632.926
1472903.997
1473175.619
1473447.488
1473715.527
1473980.506
1474242.326
1474498.761
1474749.834
1474993.549
1475231.035
1475461.993
1475684.742
1475899.66
1476106.772
1476305.979
1476497.315
1476680.698
1476856.726
1477024.983
1477185.84
1477339.635
1477486.397
1477626.84
1477760.515
1477887.284
1478009.246
1478131.779
1478254.538
)
;

boundaryField
{
    front_top
    {
        type            wedge;
    }
    front_middle
    {
        type            wedge;
    }
    front_bottom
    {
        type            wedge;
    }
    back_top
    {
        type            wedge;
    }
    back_middle
    {
        type            wedge;
    }
    back_bottom
    {
        type            wedge;
    }
    axis_top
    {
        type            symmetryPlane;
    }
    axis_middle
    {
        type            symmetryPlane;
    }
    axis_bottom
    {
        type            symmetryPlane;
    }
    wall_top
    {
        type            fixedFluxPressure;
        gradient        uniform 0;
        value           nonuniform List<scalar> 
23
(
1516707.134
1513481.885
1510489.261
1507709.656
1505117.932
1502696.327
1500434.347
1498314.714
1496326.928
1494464.118
1492712.895
1491069.137
1489521.87
1488067.188
1486698.127
1485409.568
1484196.296
1483053.477
1481976.606
1480961.998
1480005.737
1479103.889
1478254.538
)
;
    }
    wall_middle
    {
        type            fixedFluxPressure;
        gradient        nonuniform 0();
        value           nonuniform 0();
    }
    wall_bottom
    {
        type            fixedFluxPressure;
        gradient        nonuniform 0();
        value           nonuniform 0();
    }
    inlet
    {
        type            zeroGradient;
    }
    outlet
    {
        type            fixedValue;
        value           nonuniform 0();
    }
    procBoundary9to8
    {
        type            processor;
        value           nonuniform List<scalar> 
51
(
1469616.362
1468963.202
1468963.202
1468663.042
1468758.512
1468831.196
1468912.904
1469011.764
1469133.539
1469271.413
1469418.911
1469585.264
1469761.98
1469956.084
1470160.609
1470378.206
1470603.888
1470839.855
1471081.873
1471333.124
1471586.795
1471844.862
1472103.829
1472364.277
1472625.688
1472884.61
1473141.865
1473394.833
1473643.925
1473888.666
1474126.916
1474359.306
1474585.788
1474804.836
1475016.396
1475220.457
1475417.008
1475605.779
1475787.369
1475961.661
1476128.333
1476287.909
1476440.45
1476586.005
1476725.361
1476857.974
1476984.698
1477105.094
1477220.281
1477336.754
1477452.594
)
;
    }
    procBoundary9to10
    {
        type            processor;
        value           nonuniform List<scalar> 
51
(
1491028.155
1489517.572
1490049.232
1490605.05
1491175.917
1491825.686
1492545.443
1493338.359
1494170.416
1495037.03
1495926.168
1496831.102
1497744.75
1498670.055
1499589.809
1500505.418
1501412.154
1502305.856
1500481.44
1500481.44
1501273.748
1502053.594
1502821.41
1503576.542
1504315.564
1505040.795
1505753.199
1506454.741
1507144.728
1507828.194
1508510.009
1509189.133
1509863.525
1510529.809
1511193.939
1511855.8
1512511.467
1513154.749
1513783.005
1514402.52
1515008.692
1515596.959
1516166.522
1516722.484
1517262.269
1517782.367
1518282.674
1518766.371
1519236.149
1519711.805
1520192.146
)
;
    }
}


// ************************************************************************* //
