/*--------------------------------*- C++ -*----------------------------------*\
  =========                 |
  \\      /  F ield         | OpenFOAM: The Open Source CFD Toolbox
   \\    /   O peration     | Website:  https://openfoam.org
    \\  /    A nd           | Version:  7
     \\/     M anipulation  |
\*---------------------------------------------------------------------------*/
FoamFile
{
    version     2.0;
    format      ascii;
    class       volScalarField;
    location    "0.0024";
    object      thermo:mu;
}
// * * * * * * * * * * * * * * * * * * * * * * * * * * * * * * * * * * * * * //

dimensions      [1 -1 -1 0 0 0 0];

internalField   nonuniform List<scalar> 
1166
(
316030090.8
311699841.6
302636415.7
289772167.7
273922246.3
255906650.5
236539276.2
216515069.9
196451804.3
176867440.5
158127284.7
140525938.3
124223329.7
109321669.8
95846263.97
83768199.75
73034860.56
63554430.44
246733258.4
243459741
236603584.4
226861473.4
214840093.6
201150137.1
186402046.8
171108752.8
155741898.3
140689366.5
126235414
112606140.8
99933926.1
88302136.53
77739611.53
68231052.86
59742956.79
52212669.38
45568523.4
39735643.27
34634312.11
30185442.01
26315241.15
22956299.84
20044498.65
17522240.33
15338386.47
13448094.02
11811483.49
10393248.05
9163176.746
8095164
7166966.659
6358893.769
5654189.437
5038605.364
4500083.451
4028215.36
3613852.249
3249330.102
2928111.947
2644556.387
2393685.204
2171302.847
1973840.606
1798172.337
1641542.138
1501620.065
1376466.286
1264226.874
194858005.9
192354463.3
187107469.9
179643491.7
170419052.2
159895437.8
148530767
136714650.3
124807353.2
113105170.6
101830876.4
91161168.67
81203292.72
72027343.95
63660647.06
56097508.2
49318631.67
43278726.4
37926854.85
33209126.16
29064824.23
25435220.62
22264599.69
19501817.48
17096383.9
15004020.5
13184950.5
11604196.23
10229692.96
9033775.562
7992444.746
7084971.886
6293251.868
5601344.897
4995798.817
4465105.344
3999450.288
3589982.437
3229329.141
2911146.229
2630026.004
2381097.716
2160269.019
1964040.41
1789383.688
1633576.225
1494324.925
1369719.742
1257944.037
1157492.882
155566884.6
153630507.4
149569528.5
143786292.5
136628194.9
128446667
119590731.2
110360141.5
101032482.6
91837794.15
82950129.67
74510766.79
66605435.35
59293755.97
52601339.84
46528079.92
41063312.87
36174490.48
31825098.83
27975833.19
24580410.86
21594820.82
18976960.09
16686085.08
14683511.72
12934636.15
11408356.06
10076646.33
8914052.337
7898650.648
7011223.705
6235210.585
5555500.786
4959432.635
4436068.725
3976126.544
3571103.924
3213903.127
2898385.917
2619341.273
2372032.114
2152461.179
1957200.654
1783308.48
1628098.727
1489316.584
1365073.775
1253592.17
1153377.058
1063177.9
125471137
123957014.6
120779624.1
116249992.3
110635558.4
104206457.4
97233457.81
89947926.76
82565505.93
75268221.26
68191899.02
61450810.07
55114195.99
49233833.47
43831065.52
38910529.31
34466229.99
30474862.65
26910647.72
23744043.74
20940066.77
18465133.46
16287031.4
14373210.13
12693768.58
11221404.17
9931938.747
8802190.811
7812263.116
6944497.385
6183703.332
5515764.701
4928759.109
4412355.937
3957714.322
3556769.606
3202673.575
2889508.397
2612227.339
2366252.926
2147676.641
1953145.686
1779793.999
1624976.164
1486474.468
1362424.618
1251079.05
1150955.416
1060811.62
979494.4816
102170811.2
100974823.7
98463537.97
94879886.44
90431868.05
85329366.66
79783886.61
73977433.19
68077651.38
62230554.05
56542907.12
51109394.68
45984303.89
41213064.81
36813608.78
32793669.03
29148808.38
25863591.93
22920138.82
20295021.31
17961961.78
15895261.68
14069721.08
12459457.79
11041125.77
9793488.726
8696440.721
7731813.5
6883565.031
6137697.461
5481271.836
4903053.704
4393326.3
3943704.417
3546550.975
3195279.039
2884195.389
2608424.499
2363538.866
2145726.036
1951712.429
1778699.382
1624086.239
1485691.843
1361678.443
1250321.895
1150154.526
1059944.556
978550.1541
904971.2062
83950148.35
82996328.74
80992395.89
78130005.97
74572569.98
70485053.65
66032533.87
61361695.49
56603187.36
51876557.4
47265783.01
42847092.14
38666608.54
34763243.6
31151368.94
27840780.18
24828211.77
22103658.41
19654992.68
17462752.35
15507431.27
13769866.95
12228961.25
10864892.79
9659306.498
8595114.713
7655876.773
6827165.295
6096189.182
5451180.43
4881611.238
4378389.229
3933601.145
3540032.299
3191370.285
2882152.823
2607684.047
2363679.294
2146430.281
1952747.745
1779893.305
1625315.786
1486870.693
1362749.753
1251245.84
1150908.474
1060518.248
978939.3417
905178.5553
838416.3112
69566940.96
68798641.79
67184824.43
64877577.5
62006534.97
58702607.21
55095895.97
51306224.84
47436487.1
43581878.13
39813041.71
36190252.61
32753859.44
29534344.22
26545991.03
23799290.41
21291046.63
19015892.35
16963781.76
15120202.68
13470692.73
11999696.73
10690470.74
9527514.687
8496573.613
7583062.772
6774124.363
6058189.049
5424659.998
4863735.874
4366962.338
3926916.406
3536805.136
3190605.285
2883093.836
2609764.527
2366470.808
2149617.473
1956105.593
1783251.364
1628558.335
1489919.414
1365559.165
1253781.777
1153156.714
1062479.203
980614.5167
906578.1039
839556.0054
778776.2094
58110386.69
57486218.6
56174262.99
54298789.82
51962267.78
49269497.56
46323331.91
43223188.31
40050721.2
36882139.48
33777621.91
30784168.09
27937904.53
25262696.4
22773223.97
20477521.04
18374604.05
16461741.56
14730203.45
13169597.19
11769226.57
10515723.21
9396376.038
8399217.584
7512005.303
6723282.448
6022715.426
5400884.261
4848734.207
4358465.042
3923163.959
3536463.285
3192644.798
2886734.937
2614428.426
2371714.419
2155120.503
1961645.039
1788654.472
1633712.852
1494751.911
1370032.842
1257866.122
1156844.182
1065779.383
983533.5657
909132.7049
841770.0854
780668.0838
725151.9349
48907382.22
48396575.99
47321760.81
45783805.99
43866963.69
41654805.96
39230177.25
36673621.94
34053147.39
31428623.54
28852229.13
26360613.21
23986506.41
21748037.14
19660189.58
17728323.86
15953756.29
14334709.94
12864254.97
11535261.56
10338609.33
9263928.742
8301487.198
7441360.165
6673489.963
5988789.685
5379025.938
4835909.982
4352313.401
3921854.541
3538598.284
3197148.281
2892792.343
2621438.907
2379212.668
2162774.528
1969228.024
1795986.88
1640681.995
1501288.755
1376100.959
1263439.389
1161919.924
1070374.835
987658.3715
912809.0846
845029.2704
783532.0884
727649.0627
676835.753
41455006.63
41033750.7
40146956.29
38876043.66
37291230.81
35460489.29
33450745.66
31326411.39
29146113.48
26957125.33
24803642.14
22716281.03
20722047.07
18836922.69
17074106.27
15437822.18
13931324.62
12552035.98
11295681.32
10157200.03
9128448.673
8201861.213
7369803.112
6623605.672
5955477.465
5358250.25
4824558.271
4347914.836
3922491.018
3542794.993
3203769.89
2900978.362
2630556.56
2388766.729
2172414.376
1978717.052
1805134.122
1649370.27
1509457.715
1383696.125
1270444.721
1168335.711
1076224.354
992953.5183
917576.5622
849306.7278
787344.5494
731031.8867
679821.4026
633148.6437
35374840.65
35024951.18
34288062.82
33231193.59
31910392.06
30384466.71
28706850.84
26929794.75
25102956.36
23265676.38
21453216.72
19693579.67
18007343.45
16410209.31
14911969.63
13517999.31
12230909.55
11048846.45
9969674.905
8988281.175
8098936.646
7296020.867
6572485.848
5921755.541
5337715.769
4813964.058
4344665.527
3924565.26
3548628.332
3212155.313
2911010.717
2641536.345
2400173.68
2183872.151
1989973.084
1815981.191
1659682.478
1519172.073
1392752.983
1278827.74
1176056.189
1083289.329
999386.4861
923412.838
854578.8494
792085.2379
735284.5204
683615.7177
636520.3799
593553.7031
30378582.23
30085953.04
29469399.54
28584493.87
27477499.65
26195794.34
24786249.48
23290779.93
21749519.23
20197779.36
18662765.81
17170132.37
15735517.91
14374284.78
13093306.94
11899094.94
10792780
9774343.482
8841850.057
7991281.563
7218725.844
6518994.783
5886627.128
5316568.852
4803397.654
4341946.232
3927554.102
3555659.34
3221937.916
2922577.449
2654124.994
2413224
2196974.866
2002853.337
1828410.505
1671521.82
1530352.046
1403205.776
1288534.141
1185030.606
1091532.681
1006926.327
930292.196
860823.67
797735.4285
740388.1999
688204.7188
640633.9512
597235.1613
557582.1756
26245000.13
25998691.35
25479525.92
24733897.7
23800289.67
22717579.81
21525175.19
20259005.45
18951189.85
17632173.2
16325157.9
15050604.42
13823803.86
12656109.43
11555109.66
10525827.52
9569655.739
8687668.388
7877431.795
7136662.427
6462008.521
5849101.066
5293944.854
4792113.822
4339120.283
3930916.82
3563432.479
3232736.114
2935356.96
2668058.108
2427699.01
2211542.188
2017209.306
1842300.2
1684788.462
1542915.864
1414987.648
1299509.263
1195212.08
1100917.912
1015543.102
938186.2027
868020.9492
804278.3213
746328.9053
693576.6168
645479.3635
601601.5947
561501.422
524806.2134
22804266.33
22595354.48
22154968.2
21522946.9
20730897.57
19811355.41
18796377.96
17717777.76
16602057.99
15473741.01
14354612.54
13260085.06
12205112.36
11197868.48
10246675.33
9354551.045
8524361.293
7756073.421
7048608.371
6400416.035
5808184.843
5268968.467
4779351.16
4335532.192
3934093.16
3571473.34
3244150.934
2949015.185
2683057.876
2443368.817
2227406.927
2032884.591
1857522.254
1699377.895
1556778.357
1428029.419
1311697.027
1206555.205
1111408.322
1025207.158
947070.9
876151.305
811698.1969
753093.8478
699720.935
651047.9616
606645.7909
566054.6149
528913.4808
494902.0983
19922708.15
19744780.48
19369474.72
18829798.47
18153689.95
17368238.19
16500146.88
15575260.96
14618202.33
13648306.65
12684160.64
11739894.89
10827038.83
9954262.709
9127550.721
8350690.394
7625980.377
6953425.035
6333128.341
5762889.815
5240756.299
4764332.795
4330507.004
3936501.777
3579286.456
3255763.435
2963199.751
2698830.19
2459989.335
2244349.796
2049713.866
1873941.501
1715198.166
1571849.212
1442258.101
1325041.775
1219012.762
1122966.129
1035888.354
956922.3207
885195.7245
819982.4003
760671.1431
706628.2819
657341.3378
612361.5882
571236.7779
533610.3903
499145.631
467525.5769
17495190.58
17342805.7
17021259.1
16558598.25
15977827.22
15302821.89
14556398.96
13759846.75
12933658.2
12095770.38
11260503.58
10441661.03
9647842.691
8887668.039
8165576.187
7486033.923
6850112.587
6259089.865
5712239.296
5208422.08
4746269.246
4323351.382
3937540.024
3586354.209
3267133.061
2977538.029
2715062.586
2477300.264
2262152.282
2067519.366
1891412.241
1732120.608
1588032.381
1457596.1
1339497.176
1232534.87
1135551.667
1047572.036
967715.8039
895134.9294
829125.1818
769049.2469
714289.7992
664345.3072
618744.1035
577044.2744
538894.2853
503938.9777
471872.4749
442439.2638
15438909.65
15307715.96
15030786.88
14632087.61
14131200.65
13547891.88
12902255.98
12212809.98
11496156.44
10768242.91
10041711.89
9327347.728
8634186.966
7968404.587
7335226.583
6737513.925
6177296.609
5655281.258
5171085.279
4724363.892
4313356.701
3936585.311
3592136.951
3277796.92
2991635.878
2731422.693
2495023.405
2280582.728
2086109.686
1909777.267
1750010.436
1605223.91
1473959.544
1354978.676
1247067.878
1149122.464
1060210.428
979425.3357
905948.8309
839101.0391
778216.5915
722696.883
672053.197
625788.8787
583475.1585
544763.1029
509280.8019
476736.008
446855.8493
419377.0228
13688750.47
13575032.15
13334914.38
12989457.54
12555268.93
12049128.69
11487751.25
10887660.68
10263383.64
9627590.596
8992476.279
8366651.898
7758228.381
7172719.954
6614711.08
6086810.584
5591100.48
5127916.598
4697819.637
4299803.396
3932997.598
3596074.058
3287269.793
3005076.938
2747557.063
2512861.236
2299392.18
2105278.317
1928866.443
1768728.235
1623310.461
1491256.893
1371412.783
1262553.261
1163632.272
1073766.655
992022.8533
917615.9417
849893.7879
788161.2027
731844.5256
680458.8938
633491.8341
590534.7154
551215.5348
515170.6718
482114.648
451755.547
423838.9504
398159.1043
12191304.87
12092407.79
11883514.2
11582433.04
11203667.01
10762386.25
10272378.13
9747390.562
9200689.55
8643355.432
8085019.557
7534562.044
6997846.966
6480911.394
5986778.094
5518832.873
5078086.01
4665846.891
4281966.456
3926122.865
3597585.8
3295044.778
3017422.373
2763090.291
2530495.609
2318312.85
2124802.006
1948509.486
1788122.129
1642168.274
1509403.897
1388718.74
1278926.825
1179045.343
1088200.563
1005477.425
930128.4988
861485.5215
798869.9934
741731.1145
689555.8998
641848.7899
598212.6203
558250.525
521608.4955
488009.0155
457139.4327
428759.0147
402645.0143
378578.4699
10903613.57
10817204.06
10634626.72
10371329.03
10039793.28
9652604.16
9222750.98
8761808.388
8280647.679
7789718.984
7297206.123
6810415.154
6335467.93
5876616.885
5437675.591
5020755.661
4627671.817
4259121.67
3915297.455
3596076.004
3300594.624
3028211.199
2777624.634
2547613.61
2337056.283
2144438.747
1968508.191
1808025.512
1661660.77
1528288.535
1406806.749
1296116.647
1195301.062
1103467.423
1019754.284
943449.4618
873856.4579
810328.4185
752336.3151
699337.4781
650855.575
606506.7384
565867.4782
528604.4684
494420.2779
463009.2948
434136.3396
407560.1899
383072.3096
360499.0787
9791573.313
9715601.314
9555031.636
9323727.503
9032267.753
8691578.908
8312488.585
7905761.133
7480882.728
7046231.921
6609954.274
6177902.628
5755548.743
5346921.539
4955181.517
4582551.982
4230556.376
3899855.274
3590936.567
3303374.145
3036961.077
2790739.496
2563826.579
2355313.138
2163926.96
1988626.204
1828255.795
1681637.329
1547774.03
1425576.934
1314042.318
1212325.703
1119517.118
1034814.412
957545.179
886984.2148
822526.3683
763648.5716
709795.9044
660521.3124
615414.3103
574065.4236
536151.162
501350.0013
469368.155
439973.5871
412907.5537
387974.342
364983.5821
343755.0053
8827018.522
8760039.788
8618434.64
8414020.465
8156281.417
7855229.484
7519898.147
7159346.664
6782326.059
6396411.523
6007929.956
5623088.433
5245965.898
4880690.307
4529788.877
4195580.196
3879136.256
3581553.707
3302824.64
3043171.328
2801993.477
2578747.802
2372752.359
2182984.641
2008625.14
1848613.547
1701932.478
1567724.07
1444918.148
1332628.823
1230047.316
1136292.703
1050634.586
972381.3268
900842.8054
835451.9871
775654.0916
720921.6951
670828.0076
624932.2826
582843.5931
544248.3025
508799.9633
476226.6882
446273.7788
418690.5297
393286.5842
369853.4657
348223.0157
328242.2018
7801767.607
7620658.401
7392143.12
7124583.137
6826522.911
6505959.548
6170044.089
5825728.917
5478917.075
5134351.297
4796695.493
4468741.349
4153536.236
3852495.327
3567314.777
3298378.739
3046326.115
2810926.149
2591971.525
2389021.484
2201309.038
2028247.224
1868881.842
1722394.685
1587987.455
1464706.453
1351775.626
1248384.754
1153729.542
1067146.32
987918.3964
915402.0807
849070.5462
788336.5791
732708.4653
681767.492
635056.3437
592213.0248
552895.8953
516771.5392
483579.2957
453040.2581
424917.6419
399013.1314
375112.9545
353057.7787
332678.1404
313829.7073
)
;

boundaryField
{
    front_top
    {
        type            wedge;
    }
    front_middle
    {
        type            wedge;
    }
    front_bottom
    {
        type            wedge;
    }
    back_top
    {
        type            wedge;
    }
    back_middle
    {
        type            wedge;
    }
    back_bottom
    {
        type            wedge;
    }
    axis_top
    {
        type            symmetryPlane;
    }
    axis_middle
    {
        type            symmetryPlane;
    }
    axis_bottom
    {
        type            symmetryPlane;
    }
    wall_top
    {
        type            calculated;
        value           nonuniform List<scalar> 
23
(
1212238.277
1110922.011
1021259.157
941648.4376
870706.5992
807263.6499
750380.4074
699206.4495
653028.4857
611276.3255
573391.5627
538954.258
507563.9278
478890.2898
452641.5257
428556.029
406419.6637
386026.4743
367213.0124
349819.0464
333714.2167
318776.8278
304897.6127
)
;
    }
    wall_middle
    {
        type            calculated;
        value           nonuniform 0();
    }
    wall_bottom
    {
        type            calculated;
        value           nonuniform 0();
    }
    inlet
    {
        type            calculated;
        value           nonuniform 0();
    }
    outlet
    {
        type            calculated;
        value           nonuniform 0();
    }
    procBoundary9to8
    {
        type            processor;
        value           nonuniform List<scalar> 
51
(
7986459.235
7927164.739
7927164.739
7086955.243
6925670.931
6722282.685
6483946.468
6217964.144
5931448.734
5631249.404
5322909.292
5011891.25
4702719.571
4398918.179
4103814.753
3819355.766
3547616.276
3289466.315
3045898.484
2817060.5
2603072.171
2403746.737
2218584.233
2047213.339
1888823.404
1742797.501
1608398.457
1484804.799
1371356.682
1267246.924
1171757.821
1084289.276
1004111.022
930643.7455
863355.4411
801676.5383
745151.4646
693330.3724
645780.7521
602158.7605
562093.3231
525270.4193
491428.2183
460276.1909
431592.8316
405158.2253
380767.9326
358263.868
337463.1333
318232.0465
300430.1606
)
;
    }
    procBoundary9to10
    {
        type            processor;
        value           nonuniform List<scalar> 
51
(
409748025.2
403943000.4
391816911.1
374624566.5
353473779.5
329477954
303731662.6
277193805.6
250677365.5
224888737.7
200297869.2
177296964.8
156079305
136772059.3
119387930.4
103878023.1
90159471.31
78099159.72
55227021.5
55227021.5
47949218.63
41612469.12
36111097.94
31346729.06
27229238.66
23675486.12
20610514.53
17968294.65
15690505.05
13727177.74
12032957.43
10569600.45
9304167.667
8208492.726
7258533.766
6433245.41
5714963.877
5088632.688
4541647.971
4062978.081
3643184.48
3274306.367
2949618.418
2663225.954
2410047.189
2185781.106
1986791.437
1809840.511
1652142.224
1511339.667
1385427.34
)
;
    }
}


// ************************************************************************* //
