/*--------------------------------*- C++ -*----------------------------------*\
  =========                 |
  \\      /  F ield         | OpenFOAM: The Open Source CFD Toolbox
   \\    /   O peration     | Website:  https://openfoam.org
    \\  /    A nd           | Version:  7
     \\/     M anipulation  |
\*---------------------------------------------------------------------------*/
FoamFile
{
    version     2.0;
    format      ascii;
    class       volTensorField;
    location    "0.0012";
    object      grad(U);
}
// * * * * * * * * * * * * * * * * * * * * * * * * * * * * * * * * * * * * * //

dimensions      [0 0 -1 0 0 0 0];

internalField   nonuniform List<tensor> 
1167
(
(-44.55229803 -1.60520941e-12 3.093135071 -1.315252802e-12 -72.58186676 0 -0.6619665804 1.970282408e-13 120.7817493)
(-41.66297617 -6.239068909e-14 2.844137567 3.255442835e-12 -67.82890361 -5.208708536e-11 -1.11575718 6.639397758e-13 112.9365885)
(-55.45821889 5.45929282e-14 6.921072576 1.112500666e-12 -59.4952005 0 -3.29100359 -5.874410782e-15 113.0010398)
(-54.77749834 5.359534555e-14 11.38897166 6.86020423e-13 -56.97323762 0 -5.156760288 -4.299525076e-13 113.1694404)
(-56.2454776 2.041667159e-14 15.80998386 5.037752218e-13 -56.60595925 0 -6.988430393 -5.079680453e-13 113.4296467)
(-56.76152959 -2.041862497e-13 20.2721787 5.035807314e-13 -56.5778854 0 -8.775200784 -5.185295885e-13 113.7680195)
(-57.08813088 -2.69573757e-13 24.79662523 3.389116356e-13 -56.61558331 0 -10.46066863 -3.881022725e-13 114.1721338)
(-57.46514181 6.0468987e-15 29.41454419 1.474291493e-13 -56.69420781 0 -12.02102528 -2.708683008e-13 114.630804)
(-57.87545417 1.934680755e-13 34.15322657 2.627470945e-13 -56.8030368 0 -13.44614665 -2.064741548e-13 115.132054)
(-58.29673936 2.465136634e-13 39.04112113 2.383663752e-13 -56.93254024 0 -14.7259472 -1.688740757e-13 115.6621754)
(-58.71946777 1.59747706e-13 44.10845184 2.192783525e-13 -57.07624161 0 -15.84960777 -9.090017043e-14 116.2054389)
(-59.13225936 4.46193597e-14 49.38619629 1.019871079e-13 -57.22938869 1.631793726e-12 -16.80695188 -1.15199394e-13 116.7438561)
(-59.5194085 -8.096345207e-14 54.90553873 0 -57.38781963 0 -17.58876417 -2.502921027e-14 117.2569024)
(-59.8619508 -9.196347151e-14 60.69745961 0 -57.54748122 0 -18.18676367 -5.296640106e-14 117.721262)
(-60.13805659 8.248896017e-15 66.79229856 0 -57.70423571 0 -18.59364731 -9.88115892e-14 118.1105966)
(-60.32283691 6.445033993e-16 73.21917643 0 -57.85374785 0 -18.80328202 -6.343875015e-14 118.3952537)
(-60.3881129 -1.290726702e-13 80.00548112 1.586679643e-13 -57.99140797 1.269343714e-12 -18.8110721 -8.84791606e-14 118.5420986)
(-60.30247742 -2.558638116e-13 87.17610318 1.53219031e-13 -58.11227916 0 -18.61414122 -7.247924771e-14 118.5144195)
(-60.03104889 -2.072308695e-13 94.75285108 2.969970754e-13 -58.21108458 0 -18.21180665 -7.705830845e-14 118.2717627)
(-59.5354033 -1.473520541e-13 102.7537135 1.443909124e-13 -58.28216822 0 -17.60612106 -3.571358952e-14 117.7699781)
(-58.77409528 -2.277070387e-13 111.1921899 4.224130573e-13 -58.31950125 5.632174098e-13 -16.80214412 -2.487181493e-14 116.9612922)
(-57.7023273 -2.753300642e-13 120.0769705 2.753300642e-13 -58.31670841 0 -15.80879445 3.157882786e-14 115.7943178)
(-56.27208035 -2.891932042e-13 129.4112556 1.349129116e-13 -58.26705047 -1.079303293e-12 -14.63955804 9.779003724e-14 114.2144378)
(-54.43298676 -1.551425102e-13 139.1925591 -1.324986909e-13 -58.16346341 -5.299947637e-13 -13.3129273 5.528042986e-14 112.1641057)
(-52.13235745 5.589597962e-14 149.4128773 -1.303815106e-13 -57.99860661 -5.215260422e-13 -11.85334782 -2.220239442e-14 109.5831838)
(-49.31547542 1.464758679e-13 160.058869 0 -57.76488867 0 -10.29206466 -1.002345758e-13 106.4095544)
(-45.92649905 8.439821024e-14 171.1126602 1.269071473e-13 -57.4545199 5.07628589e-13 -8.667649956 -1.172982497e-13 102.5796464)
(-41.90885605 -1.470666784e-14 182.5534657 -1.254968989e-13 -57.05957892 -5.019875957e-13 -7.026762178 -1.151016484e-13 98.02886028)
(-37.20531681 5.461336821e-15 194.35958 0 -56.57206387 0 -5.424974063 -1.616832643e-13 92.69201548)
(-31.75835478 2.057776532e-14 206.5114927 0 -55.98393817 0 -3.927285569 -1.737298869e-13 86.50350099)
(-25.50986616 1.291415755e-13 218.9963183 -1.223320753e-13 -55.28718073 -4.89328301e-13 -2.60874244 -2.179530645e-13 79.39689719)
(-18.40001788 2.233337764e-13 231.8133221 0 -54.47379918 0 -1.555310165 -2.49894048e-13 71.30405969)
(-10.36560499 1.76598401e-13 244.981298 0 -53.5358125 0 -0.8646613683 -2.270410843e-13 62.15317845)
(-1.336961486 2.261020164e-13 258.5476803 -2.409245211e-13 -52.46519221 -4.818490422e-13 -0.6475285861 -2.255616958e-13 51.86559834)
(8.766501177 2.998377266e-13 272.5993659 0 -51.25372859 0 -1.029557036 -2.584132347e-13 40.35114621)
(20.04208941 2.994848112e-13 287.2746492 0 -49.89282721 0 -2.153878365 -2.919816259e-13 27.50181804)
(32.61071238 1.694861493e-13 302.7735255 1.19609798e-13 -48.37321528 2.39219596e-13 -4.184497889 -2.546058012e-13 13.1846338)
(46.62302473 6.967957784e-14 319.3634005 0 -46.68457756 0 -7.309965488 -2.386613949e-13 -2.765266351)
(62.26261809 1.825349754e-13 337.3743955 -1.195113905e-13 -44.81517349 -2.390227811e-13 -11.74645752 -2.879502004e-13 -20.54821558)
(79.74211434 1.648993085e-13 357.1761298 1.195870339e-13 -42.75151865 2.391740679e-13 -17.73821394 -3.261964472e-13 -40.39584794)
(99.28810002 1.859246007e-13 379.1343874 -1.197401202e-13 -40.4782921 -2.394802404e-13 -25.552637 -3.349829518e-13 -62.55559709)
(121.1139236 1.909629335e-13 403.5523611 2.399337962e-13 -37.9786274 4.798675924e-13 -35.46794491 -3.219419681e-13 -87.26218846)
(145.3841174 1.996570845e-13 430.6103921 -6.013201603e-14 -35.23489597 -1.202640321e-13 -47.75291855 -3.003678477e-13 -114.6997567)
(172.1828053 3.214797694e-13 460.3336008 0 -32.22994798 0 -62.64244419 -3.480563086e-13 -144.9671855)
(201.5040681 4.20155571e-13 492.6261837 -6.052888362e-14 -28.94851493 -1.210577672e-13 -80.31573986 -3.879735614e-13 -178.067225)
(233.2759579 5.151009128e-13 527.4134623 0 -25.3782761 1.21549334e-13 -100.8809692 -3.92414347e-13 -213.9429235)
(267.4255622 4.526923299e-13 564.9116026 6.105056575e-14 -21.51013765 1.221011315e-13 -124.3681645 -3.508802899e-13 -252.5706712)
(304.072014 3.335613185e-13 605.9552987 3.067781482e-14 -17.33725088 6.135562963e-14 -150.7847504 -2.835446896e-13 -294.0655872)
(344.0413303 3.051618539e-13 652.2046887 0 -12.85026219 0 -180.3724173 -2.460901094e-13 -338.7019347)
(389.603845 3.528487263e-13 706.0911268 0 -8.024014726 0 -214.0345874 -2.30324352e-13 -386.8266877)
(435.6095403 3.947793045e-13 774.9967117 0 -2.797251416 0 -248.0984126 -2.43205745e-13 -441.4845412)
(-37.41802955 6.627367908e-13 2.519400046 4.863235968e-12 -60.90574294 0 -1.497190653 -3.886723961e-13 101.5684414)
(-49.83216244 6.421134893e-13 6.193050392 9.065131614e-13 -53.42927444 0 -4.249356396 -2.424897107e-13 101.6734454)
(-49.28729019 4.290752543e-13 10.21707138 3.726658697e-13 -51.18181529 0 -6.675611004 -3.570245879e-13 101.9373374)
(-50.72319808 4.563311687e-13 14.18083518 2.736650757e-13 -50.88440791 0 -9.09270679 -3.392490042e-13 102.3398004)
(-51.34691386 -1.44259852e-14 18.18986212 0 -50.90812716 0 -11.46846508 -3.014897191e-13 102.8669221)
(-51.83476029 -5.827041737e-13 22.26369146 1.841064714e-13 -51.00396949 2.945703543e-12 -13.74559595 -3.607223925e-13 103.5073135)
(-52.40467159 -4.830290663e-13 26.43084076 3.203508834e-13 -51.1484418 0 -15.90317171 -3.877193195e-13 104.2516053)
(-53.04328013 -2.199518095e-13 30.71907397 4.281951577e-13 -51.33171171 2.283707508e-12 -17.93275502 -3.519570465e-13 105.0902601)
(-53.73138929 -2.573309505e-13 35.15809822 2.589748338e-13 -51.54511265 0 -19.82539422 -2.01936115e-13 106.0126417)
(-54.46172172 -2.340487651e-13 39.77994764 1.191182582e-13 -51.78278473 -1.905892131e-12 -21.57119991 -4.65864337e-14 107.0067762)
(-55.22581546 -1.47378794e-13 44.6183198 1.108046145e-13 -52.04050191 -1.772873833e-12 -23.16053965 7.114088178e-15 108.059148)
(-56.01163739 4.113757802e-14 49.70828313 0 -52.31464062 0 -24.58421506 5.780400054e-15 109.1544143)
(-56.80449636 1.984837268e-13 55.08604106 2.951316596e-13 -52.60173435 0 -25.83328737 -4.077330607e-14 110.2751214)
(-57.58743926 1.060816615e-14 60.78881689 2.809335035e-13 -52.89829098 0 -26.89904316 2.693469096e-14 111.4013704)
(-58.3407794 -2.800901102e-15 66.8545608 2.688865058e-13 -53.20069176 0 -27.77305102 3.163685356e-14 112.510515)
(-59.04195188 3.148063387e-14 73.32148971 2.585788964e-13 -53.50508326 0 -28.44723937 3.45616711e-14 113.5768202)
(-59.66540142 -3.592672272e-14 80.22790602 1.664659008e-13 -53.80734653 0 -28.91394702 2.537618586e-14 114.5711566)
(-60.18186072 -1.310865448e-13 87.61181528 3.226745719e-13 -54.10304332 6.453491437e-13 -29.16621091 2.911926999e-14 115.460505)
(-60.55833834 -2.497123835e-13 95.51043921 3.13749056e-13 -54.3873557 0 -29.19788596 7.34438525e-14 116.2076636)
(-60.75763876 -3.479350511e-13 103.9600336 1.529778842e-13 -54.65507741 0 -29.0040003 1.117388325e-13 116.7706568)
(-60.73764761 -4.307358544e-13 112.9954344 2.991342929e-13 -54.90055104 0 -28.58134343 1.115207835e-13 117.10231)
(-60.45129083 -3.010269667e-13 122.6496786 1.46577087e-13 -55.11763313 -5.863083478e-13 -27.92884295 5.479781478e-14 117.1497858)
(-59.84579468 -4.906249525e-14 132.953778 0 -55.29966986 -1.151633126e-12 -27.0483943 -5.619233495e-14 116.8540025)
(-58.86211953 1.265755189e-13 143.9363284 0 -55.43944091 -1.133231313e-12 -25.94584057 -1.069136845e-13 116.1492316)
(-57.43493998 2.057770948e-13 155.6234793 1.396393274e-13 -55.52913023 0 -24.63187751 -1.390857366e-13 114.9626418)
(-55.49198403 2.745465051e-13 168.0389474 0 -55.56030522 0 -23.12336487 -1.890803063e-13 113.2138649)
(-52.95350792 3.414000929e-13 181.2043987 0 -55.52387504 0 -21.44490556 -2.4962048e-13 110.8146555)
(-49.73222012 2.6384332e-13 195.140502 1.350202697e-13 -55.41006775 5.400810789e-13 -19.63037227 -2.485261503e-13 107.6685236)
(-45.7326779 1.64342524e-13 209.8684234 0 -55.20841461 0 -17.7246944 -2.341717902e-13 103.6702949)
(-40.8505108 1.352448308e-13 225.4126771 1.329085478e-13 -54.90771968 5.31634191e-13 -15.78603121 -2.476198506e-13 98.70546428)
(-34.97149807 1.413802465e-13 241.8053349 0 -54.49602979 0 -13.88797232 -2.152084759e-13 92.64919364)
(-27.96979699 1.474613385e-13 259.0920316 -1.314189822e-13 -53.96058873 0 -12.12211666 -1.865142279e-13 85.36464599)
(-19.70517067 1.059541952e-13 277.3405648 1.308770759e-13 -53.28775812 0 -10.60123156 -1.604412956e-13 76.70032952)
(-10.01888318 1.605235164e-13 296.6522671 0 -52.46289246 0 -9.462913294 -1.917513797e-13 66.48602815)
(1.272236134 2.431433383e-13 317.1764981 0 -51.47014682 0 -8.874271874 -2.21916798e-13 54.52689615)
(14.38337305 2.758918757e-13 339.1269375 0 -50.29219529 0 -9.037589226 -2.248341904e-13 40.5957506)
(29.57007368 2.564040617e-13 362.7959592 1.298505238e-13 -48.90985942 2.597010476e-13 -10.19694882 -2.236308664e-13 24.42448493)
(47.1346921 3.514917555e-13 388.560635 -1.298439963e-13 -47.30166694 -2.596879925e-13 -12.6450664 -2.683460411e-13 5.697227696)
(67.42543134 3.461314594e-13 416.8687665 1.299261783e-13 -45.44343305 5.197047132e-13 -16.72793372 -2.320750945e-13 -15.94964325)
(90.82055131 2.463372634e-13 448.1892591 -1.300925001e-13 -43.30804954 0 -22.84388495 -2.074480547e-13 -40.91158424)
(117.6891226 2.48585785e-13 482.920823 6.516944286e-14 -40.8657542 0 -31.43162571 -2.121488593e-13 -69.57632534)
(148.3220591 2.05307313e-13 521.2641671 6.533085412e-14 -38.08522652 2.613234165e-13 -42.94114277 -2.019511334e-13 -102.2554194)
(182.8288195 2.302469285e-13 563.0672207 0 -34.93581682 0 -57.78047637 -2.102092332e-13 -139.0821136)
(220.9883674 2.395433434e-13 607.6419742 6.576203315e-14 -31.39121457 1.315240663e-13 -76.22761135 -1.768294862e-13 -179.8693984)
(262.0380066 1.505643258e-13 653.5048363 6.602906621e-14 -27.43502005 1.320581324e-13 -98.29837489 -9.998842556e-14 -223.9115492)
(304.4495816 1.059058781e-13 697.9436638 0 -23.0687744 0 -123.6060544 -6.289735576e-14 -269.7124955)
(345.9299845 1.391793269e-13 736.3850973 0 -18.32129283 0 -151.3634998 -8.220639876e-14 -314.6896588)
(383.6868142 1.61829165e-13 762.0554847 0 -13.25365328 0 -180.5827454 -9.08703893e-14 -355.1742864)
(412.9166713 2.801263108e-13 768.1204716 -1.685366288e-14 -7.958975021 -3.370732576e-14 -209.3216671 -1.727740161e-13 -387.9032411)
(424.9219443 2.891065254e-13 754.1300814 8.479508551e-15 -2.603376163 8.479508551e-15 -233.7517103 -1.713634929e-13 -413.9125921)
(-32.0734565 -7.003787021e-13 2.132019345 -1.205155085e-13 -52.15150768 3.085197017e-11 -1.762618386 -4.283335449e-13 87.02683794)
(-42.76925343 5.373282142e-14 5.293535761 5.765821317e-13 -45.77939313 1.054321612e-11 -4.897789565 -2.861561264e-13 87.15059468)
(-42.38832305 2.133881773e-13 8.747338504 0 -43.8959044 0 -7.714717874 -1.297352408e-13 87.46655331)
(-43.73255706 -8.450602823e-14 12.12713313 0 -43.68415693 0 -10.54925434 -2.614607307e-14 87.94507404)
(-44.42267227 8.41238583e-14 15.54836307 -1.193114001e-13 -43.75789766 -3.817964805e-12 -13.35319188 8.321363105e-14 88.57253713)
(-45.03393588 8.439418525e-14 19.02587006 0 -43.90436198 0 -16.07259128 6.387308002e-14 89.33903217)
(-45.75471354 -8.493674e-14 22.58250475 0 -44.10366021 0 -18.69178742 -4.634315435e-14 90.23646531)
(-46.57532852 -3.655155795e-13 26.24308526 1.556290867e-13 -44.34769175 4.980130773e-12 -21.20628569 -7.7347352e-14 91.25689074)
(-47.48059042 -5.945339158e-13 30.0348819 1.411880171e-13 -44.62925038 2.259008274e-12 -23.61083426 -8.518306585e-14 92.39171912)
(-48.46592994 -4.653678329e-13 33.98752532 2.597637836e-13 -44.94348851 0 -25.89939222 -1.583276045e-13 93.63153188)
(-49.52632417 -2.37622537e-13 38.1326452 2.416340396e-13 -45.28699435 0 -28.06621123 -1.883377421e-13 94.96589941)
(-50.65416185 -1.4176334e-13 42.50375949 3.402320161e-13 -45.65692065 1.814570752e-12 -30.10594555 -1.980393842e-13 96.3831578)
(-51.83992066 -1.66242395e-13 47.13623384 2.145333491e-13 -46.05061667 0 -32.01346686 -1.072806275e-13 97.87019955)
(-53.07253932 -9.961347333e-14 52.06723054 0 -46.46545722 -1.633700848e-12 -33.78375871 -1.264617377e-13 99.41225047)
(-54.33926354 -4.437833668e-14 57.33573122 3.909111119e-13 -46.89876908 1.563644448e-12 -35.41187239 -2.160267121e-13 100.9927209)
(-55.62535527 -9.471566974e-14 62.98235771 1.879628795e-13 -47.34775339 0 -36.89272839 -2.100795819e-13 102.5930212)
(-56.91409086 -1.253184494e-13 69.04951423 2.722618646e-13 -47.80944283 0 -38.22099813 -1.767009005e-13 104.1923035)
(-58.18638506 -1.8983109e-13 75.58147474 2.638738047e-13 -48.28067516 0 -39.39099941 -1.118372105e-13 105.7672321)
(-59.42047268 -2.143134386e-13 82.6243982 2.565747792e-13 -48.75804723 0 -40.39643275 -9.384221356e-14 107.2916994)
(-60.59167036 -1.537697679e-13 90.22667798 8.340055208e-14 -49.2378897 -6.672044167e-13 -41.23028885 -1.135712563e-13 108.7363308)
(-61.67163331 -1.067041529e-13 98.43907028 2.44623252e-13 -49.71623257 0 -41.88472697 -1.699738699e-13 110.0680204)
(-62.62769741 -1.117504882e-13 107.3150518 1.598219272e-13 -50.18874826 0 -42.35107799 -2.07472461e-13 111.2491473)
(-63.42218496 -8.292619538e-14 116.9111879 1.569619669e-13 -50.65070281 0 -42.6200239 -2.418023505e-13 112.2366703)
(-64.01112119 3.997097741e-14 127.2873889 0 -51.09689076 -6.178155603e-13 -42.68191189 -2.767744844e-13 112.9809891)
(-64.34302837 2.639225007e-13 138.5074189 3.045145247e-13 -51.52154294 0 -42.52746306 -3.308829007e-13 113.424478)
(-64.35744565 3.110999347e-13 150.6393174 3.006761049e-13 -51.91823768 6.013522097e-13 -42.1487474 -3.273368436e-13 113.4998988)
(-63.98301065 2.07031018e-13 163.7557468 1.486674351e-13 -52.2797805 0 -41.54056801 -2.446560017e-13 113.1285105)
(-63.13587862 1.902081518e-13 177.9348074 1.472208219e-13 -52.59807184 0 -40.70213329 -1.86106268e-13 112.2179805)
(-61.71747782 2.101272757e-13 193.2611238 0 -52.86397783 0 -39.63929814 -1.611664152e-13 110.6599734)
(-59.61192095 7.840305597e-14 209.8272007 1.44918284e-13 -53.0671623 1.159346272e-12 -38.36736226 -9.178354799e-14 108.3275641)
(-56.68363324 -6.371572962e-14 227.7359992 0 -53.19591631 0 -36.91414497 -3.871335845e-14 105.0721327)
(-52.77382815 1.539292301e-15 247.1047247 -1.432941197e-13 -53.23697585 -5.731764787e-13 -35.324045 -6.947099616e-14 100.7196334)
(-47.69626927 2.371884037e-13 268.0703278 -1.427032464e-13 -53.17529335 -1.141625971e-12 -33.66286544 -1.812251591e-13 95.06598892)
(-41.23182079 3.219969986e-13 290.7978052 1.422454386e-13 -52.99378426 1.137963508e-12 -32.02374836 -2.433685255e-13 87.87094091)
(-33.12088563 2.177177613e-13 315.4919381 0 -52.6730016 0 -30.53489916 -1.702465173e-13 78.84975652)
(-23.05332506 1.367119851e-13 342.41288 1.416933935e-13 -52.19072895 2.833867869e-13 -29.369473 -1.110286118e-13 67.6620544)
(-10.6549415 7.328074726e-14 371.8942655 0 -51.52144846 0 -28.7587576 -6.319063019e-14 53.89729723)
(4.528230471 -1.672929203e-14 404.3605097 0 -50.63565575 2.83153637e-13 -29.00894701 -1.096367967e-14 37.05704144)
(23.04549756 9.877912839e-14 440.331947 -2.833328501e-13 -49.49904544 -5.666657001e-13 -30.52190255 -3.205226237e-14 16.5372701)
(45.5498551 3.202656818e-13 480.3974153 0 -48.07162689 0 -33.81830428 -1.362489949e-13 -8.381361671)
(72.78615965 2.691052214e-13 525.1275364 1.421164243e-13 -46.30701299 2.842328486e-13 -39.55842624 -8.747770616e-14 -38.52251751)
(105.5470372 2.338763789e-13 574.9091879 0 -44.15229073 0 -48.55442676 -6.818278664e-14 -74.766306)
(144.5998673 8.861488638e-14 629.732918 7.145011311e-14 -41.54893437 2.858004524e-13 -61.77261339 1.69513675e-14 -117.9638796)
(190.6303131 6.232116311e-14 689.0745487 -1.434086989e-13 -38.43485063 -2.868173979e-13 -80.34069784 3.745103463e-14 -168.8603176)
(244.3009439 3.210268679e-13 752.1843657 -7.199551308e-14 -34.74653438 -1.439910262e-13 -105.5911455 -1.034130186e-13 -228.1607855)
(306.5471691 4.312502639e-13 819.2160672 0 -30.41881619 0 -139.1530924 -1.839693703e-13 -296.9418347)
(379.2803787 3.452477595e-13 893.2813527 7.268373883e-14 -25.3786211 1.453674777e-13 -183.0977344 -1.347952062e-13 -377.3436701)
(466.6245699 3.949389111e-13 982.4532955 -3.653934269e-14 -19.52715222 -7.307868539e-14 -240.2241043 -1.802917487e-13 -472.6307301)
(576.8270354 4.227330062e-13 1099.469013 3.67531498e-14 -12.70581417 7.35062996e-14 -314.8730704 -2.148383658e-13 -585.1870263)
(698.5545434 3.101741968e-13 1270.146583 0 -4.63936925 0 -398.0855165 -1.518037273e-13 -721.4866365)
(-25.87536775 1.44803184e-13 1.754904703 6.596016921e-13 -42.08293263 0 -1.831373932 -1.052475433e-13 70.45278014)
(-34.50738597 -1.507425168e-13 4.394113457 1.803274968e-13 -36.9358691 0 -5.027913956 -2.818947162e-13 70.58703561)
(-34.23604543 -1.905793685e-13 7.275588964 1.111984464e-13 -35.41715025 0 -7.934566256 5.956329558e-14 70.93842197)
(-35.39817827 -8.883491913e-14 10.08437529 1.633159016e-13 -35.26342488 0 -10.87439199 2.7062717e-14 71.46449499)
(-36.05838754 -2.870954437e-13 12.93196512 1.959034214e-13 -35.35266101 0 -13.79290246 2.272421905e-13 72.15371693)
(-36.67423919 -2.225291683e-13 15.83143883 1.098697533e-13 -35.50946432 0 -16.64235958 2.329144204e-13 72.99725619)
(-37.39795219 2.847114336e-14 18.80272458 9.558836327e-14 -35.71633557 -3.058827625e-12 -19.41195853 2.336392444e-13 73.98736365)
(-38.22118542 1.118798614e-13 21.86892643 1.703568448e-13 -35.96605366 0 -22.10045479 1.026419437e-13 75.11662952)
(-39.13017036 7.169028571e-14 25.05607513 2.318237449e-13 -36.2522606 2.472786613e-12 -24.70572131 -3.090788756e-14 76.37734114)
(-40.11951864 -5.886854813e-14 28.39265483 0 -36.57052676 0 -27.22490499 -6.294239854e-14 77.76123611)
(-41.18351083 -1.733203259e-13 31.90932891 6.612519142e-14 -36.91760451 0 -29.65540455 -1.279364613e-14 79.25939605)
(-42.3143936 -2.44043116e-13 35.63881854 1.862147174e-13 -37.29071976 0 -31.99489817 -2.152768327e-14 80.86214938)
(-43.50305819 -1.100791107e-14 39.6157972 2.348354361e-13 -37.68727854 1.878683489e-12 -34.24114675 -1.646583554e-13 82.55903002)
(-44.7393946 3.231914195e-13 43.8766579 2.235380031e-13 -38.10474212 0 -36.39181388 -2.966372937e-13 84.33881107)
(-46.01262524 2.943932686e-13 48.45930193 1.069761203e-13 -38.540571 0 -38.44430897 -2.785475651e-13 86.18961145)
(-47.31150975 -2.421185139e-14 53.40303391 1.028752524e-13 -38.99221741 0 -40.39552785 -2.155550121e-13 88.09904583)
(-48.62427193 -2.929822872e-13 58.7484357 9.934233843e-14 -39.4571207 0 -42.24173243 -1.306038063e-13 90.05435963)
(-49.93891364 -3.418753293e-13 64.53723804 1.925634418e-13 -39.93269894 1.540507535e-12 -43.97834275 -1.179801839e-13 92.04272973)
(-51.24345636 -2.913691965e-13 70.81261043 9.361846791e-14 -40.41637817 7.489477433e-13 -45.59966799 -1.365642475e-13 94.05131217)
(-52.52583281 -2.011300137e-13 77.61966489 0 -40.90560199 0 -47.09889136 -1.630930453e-13 96.06722896)
(-53.7737491 -1.597746241e-13 85.00622445 0 -41.39783915 0 -48.46801609 -1.503253911e-13 98.077429)
(-54.97414448 -7.653908053e-14 93.02411605 0 -41.89057783 0 -49.6979388 -1.802332881e-13 100.0681335)
(-56.11262713 2.760127829e-14 101.730873 8.590792999e-14 -42.38129381 6.8726344e-13 -50.77856032 -2.536469138e-13 102.0240358)
(-57.17215221 1.502481406e-14 111.1919609 0 -42.86741613 0 -51.69909883 -2.450971434e-13 103.9269942)
(-58.13145394 2.197255954e-14 121.4831498 0 -43.34622929 0 -52.4483465 -1.961263584e-13 105.7544134)
(-58.96327644 -6.106908066e-15 132.6935434 8.228255079e-14 -43.81477599 6.582604063e-13 -53.01496019 -1.272698092e-13 107.4770957)
(-59.63169546 -6.865441233e-14 144.9287404 0 -44.26970987 0 -53.38789493 -6.579279169e-14 109.0567039)
(-60.08944148 -1.063860776e-13 158.314385 0 -44.7071124 0 -53.55671327 -3.065693652e-14 110.4427624)
(-60.27435534 -6.163832961e-14 173.0004245 7.989575888e-14 -45.12228884 -6.391660711e-13 -53.512226 -2.23345303e-14 111.5691332)
(-60.10531773 9.12446363e-14 189.1660185 1.586324407e-13 -45.50950534 0 -53.24722303 -8.629861015e-14 112.3499114)
(-59.47725958 2.040014018e-13 207.0258949 0 -45.86170417 0 -52.75765345 -1.535660805e-13 112.6743931)
(-58.25458196 2.322182973e-13 226.838678 7.842728774e-14 -46.17014661 0 -52.04464614 -1.675535983e-13 112.4008381)
(-56.26308227 2.707703282e-13 248.9184092 7.810389185e-14 -46.42399152 6.248311348e-13 -51.1173283 -2.110794164e-13 111.3482379)
(-53.27848183 1.332021756e-13 273.6504087 7.785332638e-14 -46.60978039 6.228266111e-13 -49.99765338 -1.38404785e-13 109.2852189)
(-49.01082634 -3.034006368e-15 301.5132879 -7.767056303e-14 -46.71076474 -6.213645043e-13 -48.72773117 -7.866785776e-14 105.9147929)
(-43.08299303 8.527600772e-14 333.1098154 0 -46.70604535 0 -47.38100917 -1.411623639e-13 100.8529194)
(-35.00038084 1.403015832e-13 369.2088303 -7.749127359e-14 -46.56942315 -3.099650943e-13 -46.07916893 -1.720990826e-13 93.59870226)
(-24.10904576 1.587583208e-13 410.8005771 0 -46.26786119 0 -45.01701408 -1.936549072e-13 83.49312634)
(-9.539881455 1.64916338e-13 459.1647531 1.550728468e-13 -45.75942107 3.101456936e-13 -44.4980181 -2.346965834e-13 69.66367036)
(9.860310638 8.946298769e-14 515.9399959 7.763567746e-14 -44.99056142 3.105427098e-13 -44.98258038 -1.853354863e-13 50.95451361)
(35.60080399 1.048243623e-13 583.1599958 -7.778271519e-14 -43.89276819 -3.111308608e-13 -47.14807133 -1.745555804e-13 25.85140781)
(69.59654123 1.382844403e-13 663.1719415 7.797536724e-14 -42.37878273 3.119014689e-13 -51.95362037 -1.89876267e-13 -7.566172703)
(114.1369194 1.48632786e-13 758.2907164 -7.821170239e-14 -40.33915661 -3.128468096e-13 -60.68783084 -1.510886833e-13 -51.5748491)
(171.6206549 2.334770827e-13 869.9888384 0 -37.6409374 0 -74.92544503 -1.962039529e-13 -108.544142)
(243.6806974 2.804482112e-13 997.3162849 0 -34.1330794 1.57617436e-13 -96.1811235 -2.111572369e-13 -180.2684456)
(329.187541 1.800573587e-13 1133.604602 7.916648144e-14 -29.66947244 1.583329629e-13 -124.9512517 -1.39835996e-13 -266.3129005)
(421.6316353 2.029454385e-13 1258.96309 -3.978103541e-14 -24.16456599 -1.591241416e-13 -159.4914365 -1.187635749e-13 -359.8364212)
(508.3451801 3.659509085e-13 1328.776805 0 -17.67323615 0 -196.2832357 -1.939995383e-13 -441.1037593)
(562.347076 3.953583383e-13 1281.87462 4.023123705e-14 -10.44429648 8.04624741e-14 -228.6561214 -1.737172129e-13 -484.3799407)
(547.6296173 6.577850191e-13 1096.202753 -1.012068185e-14 -3.177553891 -3.036204554e-14 -258.5862249 -3.110059156e-13 -501.5763304)
(-19.72646382 -2.393463043e-14 1.335622011 -1.522752346e-12 -32.05718115 3.712615243e-11 -1.727543418 -1.687937947e-13 53.76282204)
(-26.35260385 -6.865784742e-13 3.356762636 -5.451586023e-13 -28.15010738 0 -4.708331049 1.306217155e-14 53.88410308)
(-26.22608459 -5.079565308e-13 5.562380072 1.222438279e-13 -27.02521099 0 -7.437522162 -1.565539225e-14 54.2148201)
(-27.21492736 -6.130420576e-13 7.703162154 1.346535965e-13 -26.94710123 0 -10.20175526 7.211176751e-14 54.71424949)
(-27.85189158 -4.310756819e-13 9.868947539 2.871501046e-13 -27.06197995 -4.594401674e-12 -12.95603393 -1.041671164e-14 55.36870655)
(-28.48835615 5.838638855e-15 12.07255938 2.415663106e-13 -27.23750355 3.86506097e-12 -15.65796717 -1.707319939e-13 56.1701161)
(-29.24037522 2.33769049e-13 14.32901264 1.576247846e-13 -27.46075882 0 -18.29973327 -2.024861338e-13 57.11270495)
(-30.10216065 4.072026089e-13 16.65622983 1.872784512e-13 -27.72636539 2.996455219e-12 -20.88274138 -1.650001049e-13 58.19075633)
(-31.06448163 -8.577988628e-14 19.07537217 1.699005871e-13 -28.02958575 0 -23.40759742 -7.457343621e-15 59.39824149)
(-32.12481068 -4.793409008e-13 21.60984467 1.562952022e-13 -28.36718434 0 -25.8742803 5.001442303e-14 60.7288042)
(-33.28074709 -2.793443834e-13 24.28466358 7.269343039e-14 -28.73685782 0 -28.28314776 1.32219301e-15 62.1757701)
(-34.52887721 2.884752764e-13 27.12623018 1.36474328e-13 -29.13672015 0 -30.63494494 -1.477914364e-13 63.73216528)
(-35.86533464 3.754563941e-13 30.1620383 1.936212931e-13 -29.56509044 2.065293793e-12 -32.93064322 -1.956536147e-13 65.39079254)
(-37.28609234 2.693803927e-14 33.42027691 0 -30.0204083 0 -35.17136784 -2.221936135e-14 67.1443328)
(-38.78708897 -8.636403981e-14 36.92942294 -1.176020968e-13 -30.50119366 -1.881633548e-12 -37.35843557 9.869290543e-14 68.98538866)
(-40.36406607 -1.413673601e-13 40.71787384 -5.654694404e-14 -31.00602917 -1.809502209e-12 -39.4936379 1.681921694e-13 70.90647479)
(-42.01235295 -1.790660853e-13 44.81350347 1.638150726e-13 -31.53352655 -8.736803874e-13 -41.57959155 1.738932484e-13 72.89994837)
(-43.72674111 -1.496720375e-13 49.24359256 1.587681282e-13 -32.08230486 0 -43.62005034 1.065805384e-13 74.95765694)
(-45.50078906 -1.811108963e-13 54.03512436 1.029176236e-13 -32.65096576 0 -45.62058229 7.217167885e-14 77.07028744)
(-47.32623075 -2.441404492e-13 59.21495536 1.003612284e-13 -33.23802871 0 -47.58922905 6.146759998e-14 79.22678957)
(-49.19248551 -1.827360594e-13 64.81062124 0 -33.84188546 -1.569977764e-12 -49.53691631 3.071595095e-14 81.41363014)
(-51.08611701 7.108849625e-14 70.85151373 9.616198172e-14 -34.46073558 0 -51.47770618 -7.629956707e-14 83.61410071)
(-52.99064207 5.349208322e-14 77.37025787 9.444119521e-14 -35.0925365 1.511059123e-12 -53.42856187 -6.973518954e-14 85.80801945)
(-54.88669851 -2.045595958e-13 84.40446326 -9.293213227e-14 -35.73496381 -7.434570582e-13 -55.40865486 3.965387098e-14 87.97174918)
(-56.75268458 -1.85457502e-13 91.99865307 -9.161045926e-14 -36.38540223 -7.328836741e-13 -57.43804883 3.133775706e-14 90.07884569)
(-58.56563337 -7.517363913e-14 100.2063949 0 -37.04096537 0 -59.5360901 -1.115270509e-14 92.10105977)
(-60.30250499 -2.279940093e-14 109.0924673 0 -37.69854229 0 -61.71948925 -4.579475132e-14 94.00987661)
(-61.94156688 1.591674105e-14 118.7352812 0 -38.35487939 0 -64.00038572 -6.388025321e-14 95.77799216)
(-63.46348243 1.450426094e-13 129.2295203 0 -39.00667542 0 -66.38474319 -1.291016525e-13 97.38082261)
(-64.85227392 1.997644858e-13 140.6893257 1.743894574e-13 -39.65068089 6.975578295e-13 -68.87085797 -1.320820622e-13 98.79747215)
(-66.09578582 1.032464968e-14 153.252726 0 -40.28379717 0 -71.44817601 -4.068345842e-14 100.0109889)
(-67.18530693 1.119817111e-13 167.0881678 -1.724349958e-13 -40.90315297 -1.379479966e-12 -74.09615161 -6.942403083e-14 101.0073219)
(-68.11370861 3.125074225e-13 182.4047198 0 -41.50614575 0 -76.7831724 -1.504409283e-13 101.7724633)
(-68.87117727 2.958752928e-13 199.467725 0 -42.09040892 0 -79.46574052 -1.264872736e-13 102.2867648)
(-69.4372766 3.701432732e-13 218.6224147 8.538560751e-14 -42.65366847 6.830848601e-13 -82.08826779 -1.894158675e-13 102.515263)
(-69.76777143 2.962256331e-13 240.3285705 8.525436995e-14 -43.19342277 6.820349596e-13 -84.58448006 -1.676400626e-13 102.392262)
(-69.77387711 1.667165749e-13 265.2106494 0 -43.70637902 -6.815080745e-13 -86.88171302 -1.109811201e-13 101.7981117)
(-69.29094393 2.447382778e-13 294.1305226 8.518422721e-14 -44.18753374 0 -88.90968188 -1.53502235e-13 100.5246128)
(-68.03088259 2.365691496e-13 328.295618 1.704762908e-13 -44.62877627 6.81905163e-13 -90.6166459 -1.487353172e-13 98.22296989)
(-65.50844748 1.731949218e-13 369.422952 0 -45.01677676 0 -91.99846066 -1.170915877e-13 94.32327895)
(-60.92556875 1.760280861e-13 419.9874742 8.550889949e-14 -45.32980902 3.42035598e-13 -93.15104992 -1.322457894e-13 87.90623533)
(-52.97749951 -3.381949044e-14 483.5783463 1.714413773e-13 -45.53292471 6.857655092e-13 -94.37160156 -2.004752062e-14 77.49590905)
(-39.52291276 -1.936240526e-13 565.3849159 -8.598049865e-14 -45.57025582 -3.439219946e-13 -96.35205772 5.71326824e-14 60.71191435)
(-17.08055409 -2.511070169e-14 672.9095701 -8.628643804e-14 -45.35258436 -3.451457522e-13 -100.5102039 -1.426159922e-14 33.6321812)
(19.93363326 1.595674163e-13 817.0977837 0 -44.73865209 0 -109.5621931 -9.634036213e-14 -10.39084651)
(81.22144522 1.31055117e-13 1013.97206 8.703011664e-14 -43.50685625 3.481204665e-13 -128.9972125 -5.872916171e-14 -82.76004222)
(188.2129059 3.416601556e-14 1289.102728 0 -41.29011937 0 -171.9371613 -5.928057895e-15 -204.4076022)
(398.2858321 4.689002319e-14 1701.046361 0 -37.36289885 0 -273.1542371 1.370005312e-14 -424.4027538)