/*--------------------------------*- C++ -*----------------------------------*\
  =========                 |
  \\      /  F ield         | OpenFOAM: The Open Source CFD Toolbox
   \\    /   O peration     | Website:  https://openfoam.org
    \\  /    A nd           | Version:  7
     \\/     M anipulation  |
\*---------------------------------------------------------------------------*/
FoamFile
{
    version     2.0;
    format      ascii;
    class       volVectorField;
    location    "0.0012";
    object      grad(generalizedNewtonian:nu);
}
// * * * * * * * * * * * * * * * * * * * * * * * * * * * * * * * * * * * * * //

dimensions      [0 1 -1 0 0 0 0];

internalField   nonuniform List<vector> 
1167
(
(-640.2779759 0 -1446.811772)
(-715.1848307 4.166966829e-10 -2834.834798)
(-381.2453632 0 -2808.420685)
(-797.8173876 0 -2754.9203)
(-1551.118187 0 -2638.073314)
(-1802.300047 -5.15666669e-11 -2516.182868)
(-2107.588724 0 -2368.560731)
(-2403.844011 3.774186221e-11 -2199.993298)
(-2660.539015 0 -2016.581422)
(-2879.385704 0 -1822.011283)
(-3063.195494 0 -1619.513072)
(-3213.092481 0 -1412.187856)
(-3330.37263 0 -1202.832461)
(-3417.303803 0 -993.7499493)
(-3476.639015 0 -786.8295681)
(-3511.094412 -1.055954369e-11 -583.5371477)
(-3523.74441 -1.015474971e-11 -385.1196691)
(-3517.706217 0 -192.1475407)
(-3495.724804 0 -5.368811002)
(-3461.182437 0 175.2222413)
(-3417.227697 -9.011478556e-12 349.6655937)
(-3366.098459 0 517.8807443)
(-3310.882492 8.634426345e-12 680.3249707)
(-3254.322254 8.479916219e-12 837.452983)
(-3198.565845 8.344416676e-12 989.4922441)
(-3146.243991 0 1137.022617)
(-3100.044731 0 1280.67002)
(-3062.422829 4.015900765e-12 1420.897429)
(-3035.989262 0 1558.299401)
(-3023.862818 0 1693.659268)
(-3029.019385 7.829252816e-12 1827.650938)
(-3054.739584 0 1961.096631)
(-3104.474268 0 2094.949056)
(-3181.268763 7.709584675e-12 2230.00023)
(-3287.58868 0 2367.012017)
(-3424.009454 0 2506.108943)
(-3587.439336 -3.827513537e-12 2646.245666)
(-3769.563856 0 2784.436302)
(-3954.841316 0 2914.736378)
(-4120.121378 -1.913392543e-12 3027.866345)
(-4238.404438 3.831683847e-12 3112.171925)
(-4284.898227 -5.758411109e-12 3155.985391)
(-4244.656477 1.924224513e-12 3151.111254)
(-4118.701268 0 3096.136279)
(-3925.112412 1.936924276e-12 2997.726332)
(-3694.757289 0 2869.085658)
(-3462.970792 -9.768090521e-13 2725.767574)
(-3260.724718 0 2580.870555)
(-3108.215071 0 2441.771302)
(-3004.319153 0 2305.218307)
(-2852.462899 0 2116.943986)
(-814.0632836 0 -4769.45298)
(-464.0367719 0 -4722.307436)
(-960.2245631 0 -4656.756212)
(-1833.218011 0 -4499.022162)
(-2139.928983 0 -4332.402341)
(-2503.771977 -4.713125668e-11 -4132.382895)
(-2856.201526 0 -3904.927993)
(-3162.673153 -3.653932013e-11 -3657.882791)
(-3424.870642 0 -3396.533687)
(-3646.009725 0 -3125.51236)
(-3827.571913 2.836598132e-11 -2849.192048)
(-3971.302696 0 -2571.48836)
(-4079.85808 0 -2295.622079)
(-4156.688389 0 -2024.367119)
(-4204.837018 0 -1759.789368)
(-4228.230062 0 -1503.406905)
(-4230.307812 0 -1256.275852)
(-4214.405086 -1.03255863e-11 -1019.044712)
(-4184.424493 0 -791.686788)
(-4143.138162 0 -574.2375153)
(-4093.707339 0 -366.1373725)
(-4039.06823 9.380933565e-12 -166.6879808)
(-3981.331627 9.21306501e-12 24.80776224)
(-3923.090448 9.065850501e-12 209.3434532)
(-3866.772278 0 387.9800644)
(-3814.028596 0 561.5838542)
(-3767.143009 0 731.1277889)
(-3728.472601 -8.641297262e-12 897.6709564)
(-3699.913021 0 1062.018879)
(-3683.99969 -4.253073528e-12 1224.990238)
(-3683.273584 0 1387.456503)
(-3700.295685 4.205407431e-12 1550.065704)
(-3737.702661 -4.188066429e-12 1713.450523)
(-3797.716277 0 1878.03107)
(-3881.558476 0 2043.788968)
(-3988.089478 0 2209.898963)
(-4111.798967 -2.077608381e-12 2373.897928)
(-4241.057168 2.07750394e-12 2530.981138)
(-4356.338783 -4.157637706e-12 2673.16707)
(-4430.774293 0 2789.01706)
(-4435.928743 0 2865.5545)
(-4348.931864 -2.090587332e-12 2890.797658)
(-4158.027099 0 2856.205571)
(-3862.371657 -1.05219253e-12 2757.435959)
(-3465.336137 -1.056465059e-12 2592.889341)
(-2967.644341 0 2362.43102)
(-2368.299062 0 2068.58482)
(-1677.379279 0 1720.059935)
(-951.1975666 1.078634424e-12 1345.176944)
(-469.9022787 -1.085377095e-12 1095.378074)
(-982.8458611 -4.936315227e-10 -7658.887926)
(-605.4079391 -1.686914579e-10 -7585.64586)
(-1206.49936 0 -7500.117108)
(-2248.139389 0 -7276.163838)
(-2631.53951 6.108743687e-11 -7035.486384)
(-3077.938502 0 -6749.364389)
(-3507.512811 0 -6426.211572)
(-3880.351858 -3.984104618e-11 -6077.329943)
(-4197.702632 0 -5710.918253)
(-4463.281659 0 -5334.178851)
(-4678.998461 0 -4953.759447)
(-4847.298673 -2.903313204e-11 -4575.468836)
(-4971.191775 0 -4204.099179)
(-5055.064912 2.613921357e-11 -3843.442064)
(-5103.450898 0 -3496.300808)
(-5120.765807 1.202962429e-11 -3164.244497)
(-5111.872126 0 -2848.260749)
(-5081.296446 0 -2548.269988)
(-5033.786873 0 -2263.4997)
(-4973.977774 1.067527067e-11 -1992.62614)
(-4905.515492 0 -1733.813919)
(-4832.393396 0 -1485.083075)
(-4758.195127 0 -1244.161426)
(-4685.427785 9.885048965e-12 -1009.038811)
(-4616.961024 0 -777.8550628)
(-4554.886141 -9.621635355e-12 -549.0130907)
(-4500.944333 0 -321.3536481)
(-4457.095454 0 -93.9236624)
(-4424.595088 0 133.7037523)
(-4404.95819 -9.274770173e-12 361.8885604)
(-4399.838853 0 590.8715729)
(-4410.56766 4.58541183e-12 820.6588697)
(-4438.806095 4.566503885e-12 1051.477243)
(-4485.86515 -9.103708067e-12 1283.388269)
(-4552.703463 0 1516.456763)
(-4638.89473 -4.534188591e-12 1750.287005)
(-4741.288508 0 1983.570941)
(-4852.422061 -2.265229096e-12 2213.425435)
(-4957.469857 6.799988401e-12 2433.992596)
(-5033.143611 0 2635.712355)
(-5049.243964 0 2805.334384)
(-4976.273123 0 2928.177116)
(-4799.781812 -2.28640362e-12 2994.099756)
(-4535.373275 2.294539183e-12 3005.448029)
(-4236.290307 1.151928209e-12 2983.285835)
(-3980.645733 0 2962.743915)
(-3826.885776 -1.162939821e-12 2966.624813)
(-3756.21916 1.169258966e-12 2966.819183)
(-3673.236127 -5.880503968e-13 2880.650813)
(-3381.302531 0 2563.851912)
(-1205.392902 0 -11903.42004)
(-799.6125153 -1.846553567e-10 -11785.46013)
(-1594.862571 1.138672091e-10 -11658.91123)
(-2911.95205 0 -11323.48687)
(-3418.426093 0 -10957.53239)
(-3991.087844 0 -10526.83623)
(-4534.23512 4.8941242e-11 -10042.77559)
(-5000.103054 0 -9522.333874)
(-5390.345362 -3.95645858e-11 -8978.01388)
(-5709.886429 0 -8420.808533)
(-5962.12416 3.385609801e-11 -7860.558248)
(-6151.487025 0 -7305.576405)
(-6283.361782 -3.005893583e-11 -6762.493771)
(-6364.186864 0 -6236.191805)
(-6401.895357 -2.73858868e-11 -5730.002747)
(-6404.05482 -2.63360646e-11 -5245.872691)
(-6377.754294 0 -4784.809386)
(-6330.780071 -2.464812055e-11 -4346.675267)
(-6269.912615 -1.198316389e-11 -3931.216996)
(-6201.626893 0 -3537.894978)
(-6131.172314 0 -3166.288443)
(-6062.461253 0 -2816.393974)
(-5998.803851 -1.099621504e-11 -2488.311823)
(-5941.580157 0 -2182.722493)
(-5891.781786 0 -1899.835986)
(-5849.310593 0 -1640.080279)
(-5813.603806 0 -1402.945555)
(-5784.283006 0 -1187.272652)
(-5760.875164 1.022665714e-11 -990.848861)
(-5743.911864 0 -810.1940915)
(-5734.06767 0 -640.8412984)
(-5733.182107 0 -477.2062033)
(-5743.564365 -4.998649078e-12 -312.9044387)
(-5767.495949 -4.982612888e-12 -141.4907561)
(-5807.255895 4.970916034e-12 43.43613596)
(-5864.003734 0 247.0855814)
(-5936.649164 2.479720755e-12 472.9729119)
(-6020.355738 0 721.8498754)
(-6104.31502 0 991.0476544)
(-6168.656787 -2.484341679e-12 1273.228728)
(-6182.126387 2.489046886e-12 1555.536292)
(-6102.338685 0 1818.836443)
(-5884.453734 1.251387238e-12 2039.536259)
(-5494.33457 0 2193.408954)
(-4909.862973 0 2254.138043)
(-4091.812535 -1.266663703e-12 2175.413872)
(-2944.976879 6.364965666e-13 1874.718271)
(-1340.60267 6.399551376e-13 1272.216616)
(742.8247428 -6.436997928e-13 372.7499856)
(2067.33956 1.943170914e-12 -159.8844881)
(-1597.037322 -1.188036878e-09 -18834.32176)
(-1167.872992 0 -18633.09848)
(-2257.734315 0 -18396.30574)
(-3997.051377 0 -17818.82153)
(-4697.7922 1.470208536e-10 -17183.98982)
(-5472.236433 -1.23681951e-10 -16445.5284)
(-6197.270143 0 -15627.19394)
(-6811.813274 -4.79432835e-11 -14761.1544)
(-7319.059585 0 -13871.39807)
(-7725.973677 0 -12978.14013)
(-8038.559275 3.721903636e-11 -12098.80149)
(-8264.393976 0 -11247.41063)
(-8412.495819 -6.608940136e-11 -10434.74535)
(-8492.606122 0 -9668.816282)
(-8514.551055 3.010613677e-11 -8955.679798)
(-8487.724617 2.895203535e-11 -8300.347721)
(-8420.849904 2.79577724e-11 -7706.863285)
(-8320.050385 0 -7179.500182)
(-8189.789032 0 -6723.116244)
(-8034.245138 0 -6342.032234)
(-7855.35812 2.511964423e-11 -6040.388759)
(-7655.404747 0 -5820.833685)
(-7436.898768 -2.417694597e-11 -5683.63739)
(-7203.944799 1.189531293e-11 -5625.948398)
(-6962.153387 1.172613879e-11 -5641.06425)
(-6719.201422 0 -5718.697513)
(-6484.854573 0 -5844.789497)
(-6269.79053 0 -6002.97325)
(-6085.729385 0 -6174.981237)
(-5944.465441 -1.116092527e-11 -6341.799554)
(-5857.164245 0 -6484.050213)
(-5833.309915 1.65537596e-11 -6582.233364)
(-5880.060079 -5.495166741e-12 -6616.310208)
(-6001.071471 0 -6565.606904)
(-6195.660182 -5.464678881e-12 -6409.189933)
(-6458.437982 -5.456279677e-12 -6127.594088)
(-6779.553454 0 -5705.497788)
(-7145.813172 -5.451790542e-12 -5135.11633)
(-7541.884379 -5.455241304e-12 -4419.951355)
(-7950.345986 0 -3577.280474)
(-8348.277984 -2.736284784e-12 -2637.405639)
(-8697.824183 -5.486124074e-12 -1636.940124)
(-8944.474627 2.751375957e-12 -605.0606356)
(-9028.814648 1.380583009e-12 443.1241259)
(-8895.620388 0 1480.710668)
(-8533.691375 -1.392481866e-12 2449.523867)
(-8135.481003 0 3363.119336)
(-8026.859544 0 4359.388467)
(-7821.504698 7.076387292e-13 5240.246179)
(-6217.357559 7.120622586e-13 5210.608434)
(-2072.362673 0 -28733.66074)
(-1749.0129 0 -28388.23524)
(-3352.197928 0 -28131.04569)
(-5677.237276 1.621145429e-10 -27442.1592)
(-6657.383832 -1.296415651e-10 -26657.85743)
(-7702.921056 0 -25765.81108)
(-8635.739363 -9.488521138e-11 -24795.06007)
(-9384.442557 0 -23785.58836)
(-9961.333024 7.67061466e-11 -22771.97227)
(-10380.91653 0 -21781.98886)
(-10656.46403 -6.563877168e-11 -20839.41903)
(-10803.42829 -6.161497134e-11 -19964.17597)
(-10837.51272 0 -19173.25653)
(-10773.04353 0 -18481.98499)
(-10621.94207 0 -17904.86859)
(-10393.88794 2.552962441e-11 -17454.98309)
(-10096.34659 4.930578596e-11 -17143.44424)
(-9733.687237 0 -16977.64102)
(-9310.371595 0 -16958.29202)
(-8834.159932 0 -17075.37333)
(-8314.579513 0 -17306.59828)
(-7765.859106 0 -17613.77931)
(-7206.666292 0 -17942.60969)
(-6658.825315 0 -18222.94973)
(-6145.917766 0 -18372.76054)
(-5690.753265 0 -18305.45232)
(-5313.569543 -1.009620547e-11 -17940.66022)
(-5030.041577 0 -17218.25236)
(-4851.73965 -9.913505491e-12 -16112.36793)
(-4788.282529 0 -14641.75237)
(-4850.460183 0 -12871.91091)
(-5054.770842 0 -10905.81064)
(-5425.181435 0 -8864.804833)
(-5990.404842 0 -6865.523295)
(-6774.836386 0 -5002.01542)
(-7784.583154 0 -3337.149113)
(-8993.811415 0 -1904.045799)
(-10333.17252 0 -712.4079133)
(-11690.68267 0 243.953759)
(-12938.80884 0 981.948796)
(-14002.46897 0 1525.05983)
(-14927.77244 4.837611092e-12 1896.833267)
(-15845.74873 -4.852273348e-12 2111.0659)
(-16752.34348 0 2164.4595)
(-17270.39061 0 2046.789123)
(-16834.49785 0 1766.709652)
(-15370.3954 0 1351.165328)
(-13360.27629 1.240717983e-12 788.5545294)
(-10698.16884 0 40.09599356)
(-6936.612433 0 -775.0869294)
(-2633.217547 0 -40417.9345)
(-2372.888722 0 -39871.33619)
(-4346.393037 0 -39354.61709)
(-7153.51578 0 -38196.34707)
(-8355.386196 0 -36867.92424)
(-9610.230385 0 -35386.10634)
(-10682.92332 0 -33812.94127)
(-11492.20879 0 -32219.31768)
(-12059.28501 0 -30666.71763)
(-12407.33387 0 -29205.97475)
(-12554.30536 0 -27879.14572)
(-12518.66787 0 -26721.69404)
(-12316.31835 0 -25762.86974)
(-11959.45849 -5.547341208e-11 -25024.47798)
(-11459.5629 0 -24516.81129)
(-10829.95952 2.552962441e-11 -24234.36758)
(-10088.60564 0 -24150.66301)
(-9262.482693 0 -24213.77573)
(-8395.633104 0 -24342.05892)
(-7549.054639 0 -24427.07491)
(-6799.443728 0 -24341.70919)
(-6239.745572 0 -23952.77779)
(-5970.374222 0 -23144.50148)
(-6089.271994 0 -21838.57405)
(-6672.159161 0 -20015.41864)
(-7751.397841 0 -17719.82949)
(-9292.915455 0 -15054.73684)
(-11179.47829 0 -12158.07555)
(-13213.92442 0 -9177.270801)
(-15146.56086 -1.968319149e-11 -6244.308043)
(-16729.30831 0 -3464.701371)
(-17780.8265 0 -914.3336618)
(-18235.61592 0 1354.520384)
(-18149.70255 0 3308.010176)
(-17663.19571 0 4924.781686)
(-16942.05771 0 6194.318109)
(-16128.4937 0 7116.113052)
(-15316.7451 0 7701.245392)
(-14554.5817 0 7974.025704)
(-13858.48632 0 7972.293401)
(-13221.13014 0 7740.071035)
(-12598.22282 0 7308.239699)
(-11889.47779 0 6672.672879)
(-10959.97305 0 5797.988799)
(-9712.537758 0 4671.2121)
(-8134.593036 -1.227877028e-12 3373.88379)
(-6275.413315 0 2074.100409)
(-4244.148722 0 902.2275729)
(-2257.694289 0 -87.05822289)
(-901.993118 0 -752.7923368)
(-3468.994407 0 -57527.92382)
(-3611.704816 0 -56670.35562)
(-6441.568659 0 -55703.57222)
(-10142.07163 0 -53776.39852)
(-11782.24771 0 -51582.42346)
(-13364.04688 0 -49207.50002)
(-14603.93371 0 -46781.52094)
(-15418.72322 0 -44437.36847)
(-15844.95765 0 -42286.2792)
(-15922.66774 0 -40416.1939)
(-15685.10565 0 -38888.7983)
(-15164.64063 0 -37735.26954)
(-14397.5148 0 -36948.80886)
(-13432.04706 0 -36474.7073)
(-12335.231 0 -36201.2183)
(-11197.29722 0 -35957.19155)
(-10134.23168 0 -35519.69832)
(-9287.210634 0 -34637.21825)
(-8810.259906 0 -33071.57096)
(-8844.613456 0 -30657.27688)
(-9491.567118 0 -27351.92354)
(-10772.42705 0 -23265.43289)
(-12601.86695 0 -18643.20983)
(-14781.61777 0 -13809.23909)
(-17027.43212 0 -9096.42213)
(-19032.60335 0 -4788.129913)
(-20544.15095 0 -1090.078885)
(-21420.21665 0 1877.32154)
(-21647.35371 0 4073.26184)
(-21313.12867 -1.968319149e-11 5527.873245)
(-20555.20759 0 6329.618187)
(-19518.92084 0 6606.870725)
(-18333.72983 0 6504.422616)
(-17108.01439 0 6158.969863)
(-15928.62746 0 5682.05238)
(-14861.31148 0 5152.580842)
(-13947.28723 0 4619.655469)
(-13200.33841 0 4108.900808)
(-12604.51373 0 3629.384763)
(-12110.43352 0 3177.120589)
(-11631.31009 0 2737.137134)
(-11050.88766 0 2287.995428)
(-10259.67948 0 1813.369125)
(-9213.380834 0 1316.991841)
(-7974.611841 0 827.7665452)
(-6697.285177 -1.227877028e-12 389.0943435)
(-5547.964879 0 44.35537423)
(-4613.544861 0 -170.1070948)
(-3883.699815 0 -234.7261064)
(-3228.443286 0 -158.2109161)
(-4824.418929 0 -84859.22338)
(-5622.439067 0 -83458.37478)
(-9649.062171 0 -81715.73328)
(-14550.29518 0 -78587.31472)
(-16677.51423 0 -75151.42305)
(-18495.31154 0 -71645.56412)
(-19660.64554 0 -68329.8055)
(-20100.77869 0 -65428.16501)
(-19896.65833 0 -63074.2421)
(-19146.8224 0 -61301.73978)
(-17966.24808 0 -60032.74763)
(-16503.09606 0 -59069.01694)
(-14950.08889 0 -58096.27694)
(-13550.62522 -5.547341208e-11 -56711.47156)
(-12589.32579 0 -54485.6639)
(-12360.33939 5.105924881e-11 -51063.04226)
(-13111.67456 0 -46273.12843)
(-14964.47585 0 -40207.94059)
(-17822.46871 0 -33221.65684)
(-21330.80571 0 -25836.49585)
(-24923.47506 0 -18603.5414)
(-27972.61785 0 -11991.19714)
(-29992.76356 0 -6321.811751)
(-30781.07717 0 -1766.507312)
(-30429.3372 0 1641.914141)
(-29221.27775 0 3979.561464)
(-27493.33098 0 5401.836016)
(-25534.33809 0 6104.130476)
(-23545.01173 0 6289.010603)
(-21643.02657 -1.968319149e-11 6135.94861)
(-19883.96648 0 5788.773194)
(-18286.47558 0 5351.465985)
(-16852.07682 0 4893.796073)
(-15578.12548 0 4457.466199)
(-14462.52829 0 4063.115723)
(-13502.24117 0 3715.5325)
(-12686.83717 0 3408.083926)
(-11990.10153 0 3126.071923)
(-11365.22181 0 2849.475063)
(-10746.0616 0 2556.272384)
(-10059.92733 0 2228.097047)
(-9251.025808 0 1858.289993)
(-8305.014022 0 1458.730244)
(-7254.539321 0 1058.283121)
(-6160.583912 0 691.3576371)
(-5081.903676 0 381.9217126)
(-4058.711303 0 133.9754405)
(-3121.650006 0 -64.79488193)
(-2314.712817 0 -228.655928)
(-1764.994168 0 -364.0339449)
(-7048.349791 0 -130754.7744)
(-9262.314594 1.432008002e-09 -128319.9929)
(-15312.41312 0 -125001.7316)
(-21902.99208 0 -119824.6209)
(-24396.83974 0 -114585.0486)
(-25956.59527 2.181230935e-10 -109778.2863)
(-26272.31071 -1.897704228e-10 -105712.3282)
(-25452.08135 0 -102426.4367)
(-23861.44569 0 -99636.83073)
(-21939.80122 1.411272662e-10 -96785.79323)
(-20192.74126 -2.625550867e-10 -93134.8296)
(-19169.22579 0 -87924.07183)
(-19392.49424 0 -80598.75757)
(-21237.35671 0 -71035.10342)
(-24763.4342 0 -59648.40424)
(-29579.01802 5.105924881e-11 -47294.61626)
(-34851.30588 4.930578596e-11 -35001.48744)
(-39525.66078 4.778673421e-11 -23696.01563)
(-42696.91687 0 -14040.26866)
(-43930.5394 0 -6382.436174)
(-43323.19718 0 -784.91108)
(-41329.0238 0 2923.435046)
(-38504.04275 0 5073.410666)
(-35323.15704 0 6065.571687)
(-32116.74767 0 6287.305269)
(-29082.23676 0 6055.153526)
(-26320.00795 0 5595.577866)
(-23866.72184 0 5052.518675)
(-21720.26302 0 4508.42646)
(-19855.38406 0 4005.528815)
(-18237.35804 0 3561.460373)
(-16829.04986 0 3180.972598)
(-15598.25761 0 2861.003929)
(-14519.44697 0 2594.904569)
(-13573.42866 4.818700871e-12 2372.469639)
(-12742.64122 0 2181.359011)
(-12004.14176 0 2006.597549)
(-11323.15322 -9.614672181e-12 1832.317066)
(-10652.42707 0 1643.422759)
(-9940.596982 0 1429.64548)
(-9147.879508 2.412829394e-12 1188.969506)
(-8262.697783 2.418805546e-12 930.1098384)
(-7307.361152 0 670.0077079)
(-6329.90039 0 428.1381627)
(-5386.646719 -1.222328066e-12 220.4084788)
(-4525.062774 0 56.38651777)
(-3774.135571 0 -59.67937189)
(-3146.125278 0 -127.1995134)
(-2649.915058 0 -149.3031826)
(-2277.579939 -6.278896109e-13 -134.4780818)
(-11045.6109 0 -217090.8929)
(-16050.18762 0 -213098.8139)
(-24988.40768 -8.830437264e-10 -207405.3184)
(-33137.51979 0 -199650.6886)
(-34856.58348 0 -192209.9293)
(-34813.46856 0 -185078.0172)
(-33426.71948 0 -177510.8053)
(-31712.75512 0 -168250.5796)
(-30930.87252 -1.534122932e-10 -155958.7715)
(-32164.49976 1.411272662e-10 -139804.8819)
(-36070.95369 0 -119970.841)
(-42577.44769 0 -97731.77384)
(-50683.51244 0 -75016.46709)
(-58636.91295 -1.109468242e-10 -53736.65364)
(-64564.73407 0 -35307.27526)
(-67267.82474 1.021184976e-10 -20495.28168)
(-66618.88324 0 -9481.951824)
(-63344.66206 0 -1989.99901)
(-58503.8427 0 2574.794657)
(-53037.41782 0 4956.631265)
(-47581.13765 0 5879.567194)
(-42487.35466 0 5938.258122)
(-37908.71487 0 5553.285787)
(-33880.38294 0 4991.330319)
(-30377.86644 0 4402.389297)
(-27351.63032 0 3862.456741)
(-24745.48921 0 3400.909538)
(-22503.41124 0 3023.147178)
(-20573.1612 0 2720.984654)
(-18905.44402 -9.841595743e-12 2482.38732)
(-17455.86198 -9.781168704e-12 2293.79045)
(-16185.17166 0 2143.092417)
(-15060.869 0 2019.516878)
(-14056.73085 -9.660079362e-12 1913.310604)
(-13150.0378 0 1815.056343)
(-12318.5311 0 1714.836401)
(-11535.47126 0 1602.602401)
(-10768.72203 0 1469.106859)
(-9985.014824 0 1308.670458)
(-9159.052812 0 1121.542155)
(-8283.185924 0 915.3101286)
(-7371.304968 0 703.3989005)
(-6453.558933 0 501.1328075)
(-5565.904861 0 321.482566)
(-4738.805081 0 172.0501913)
(-3991.280769 0 54.62492195)
(-3331.28529 0 -33.45986017)
(-2761.022286 0 -97.13009608)
(-2286.732663 0 -142.0318097)
(-1940.788405 0 -174.5163069)
(-17248.6451 8.380795319e-09 -411571.7747)
(-26889.63829 0 -404629.5312)
(-39386.24497 1.766087453e-09 -390360.033)
(-48945.0624 0 -370404.3178)
(-50812.5192 0 -344725.9811)
(-53194.7195 0 -311500.011)
(-58156.73684 0 -270333.9498)
(-67109.24913 0 -223280.0924)
(-79822.27083 0 -174467.9825)
(-93929.82963 0 -128379.5007)
(-105763.3104 0 -88305.47897)
(-112153.5126 0 -55918.02334)
(-111971.8795 1.165539884e-10 -31567.91286)
(-106273.8244 -1.109468242e-10 -14681.75693)
(-97220.37125 0 -4057.810184)
(-86879.83 0 1842.146963)
(-76644.27793 0 4561.28414)
(-67237.2443 0 5382.414933)
(-58939.80528 0 5219.370171)
(-51782.16915 0 4637.332724)
(-45676.34277 0 3947.301818)
(-40491.62192 -4.341488838e-11 3301.310677)
(-36090.07171 0 2759.648535)
(-32344.25861 0 2336.788785)
(-29143.76291 0 2023.707132)
(-26396.76765 0 1803.584005)
(-24027.79412 0 1656.41918)
(-21975.08022 0 1563.27886)
(-20187.5179 0 1507.270445)
(-18621.61861 -1.968319149e-11 1474.210372)
(-17238.8264 0 1453.036336)
(-16006.4309 0 1434.73321)
(-14895.77936 0 1412.784381)
(-13882.18419 0 1381.171955)
(-12942.64461 0 1334.856603)
(-12054.1751 0 1268.765131)
(-11192.44721 0 1178.926408)
(-10333.85539 0 1063.37184)
(-9460.833318 -4.810378996e-12 924.0639859)
(-8567.151916 0 767.3055402)
(-7661.137148 0 603.2614416)
(-6763.079515 0 443.3320196)
(-5899.181388 -1.213068337e-12 297.6513979)
(-5094.191583 0 173.1417882)
(-4366.07339 -1.222328066e-12 73.01940301)
(-3724.516034 -1.227877028e-12 -2.454993717)
(-3171.968832 0 -54.83820154)
(-2707.241204 0 -86.62356594)
(-2331.128963 0 -100.9030436)
(-2044.963432 0 -101.8111055)
(-28783.97104 0 -849855.6829)
(-55859.60496 0 -813882.195)
(-86359.95776 -1.766087453e-09 -718306.8793)
(-115536.1836 0 -597358.7981)
(-142902.9429 0 -465427.5379)
(-173370.5318 0 -341261.848)
(-200262.0695 0 -236103.7706)
(-215870.338 0 -153290.0662)
(-216241.5922 0 -91902.80104)
(-203302.987 2.822545324e-10 -49335.55859)
(-182534.4622 0 -22209.42503)
(-159304.1444 0 -6717.774931)
(-137032.3331 0 909.9399651)
(-117263.8022 -1.109468242e-10 3849.82713)
(-100394.5641 0 4362.794197)
(-86272.9671 1.021184976e-10 3826.014336)
(-74540.49084 0 2971.175837)
(-64808.73475 0 2141.764278)
(-56724.08602 0 1472.574525)
(-49977.3997 0 991.8229291)
(-44315.62661 0 684.2152949)
(-39533.22536 0 516.6757559)
(-35466.03438 0 454.9736373)
(-31982.30699 0 467.7843903)
(-28977.31905 0 529.7735981)
(-26369.06793 0 620.5653771)
(-24090.76549 0 725.1211036)
(-22089.52597 0 831.3087269)
(-20321.34803 0 930.7565587)
(-18749.0978 -1.968319149e-11 1016.48587)
(-17339.60305 0 1084.098873)
(-16064.05326 0 1130.049031)
(-14896.41888 0 1152.032026)
(-13812.93271 0 1148.202735)
(-12791.82802 0 1117.143962)
(-11812.46106 0 1058.300672)
(-10856.60371 0 972.4416027)
(-9910.901501 0 862.8190975)
(-8970.254868 0 735.4355314)
(-8039.383846 0 598.7412168)
(-7131.721246 -2.412829394e-12 462.192535)
(-6265.15668 0 334.3682451)
(-5457.60556 0 221.6600849)
(-4722.611635 0 127.5185835)
(-4067.445225 0 52.74594936)
(-3493.486672 0 -3.820394789)
(-2997.691397 0 -44.48669189)
(-2575.342724 0 -72.1024641)
(-2224.781393 0 -89.76159062)
(-1955.341057 0 -100.8774273)
(-109165.7146 0 -1039772.049)
(-278513.8505 0 -889601.3495)
(-425144.2485 3.532174906e-09 -657794.7371)
(-501861.8403 0 -439116.9554)
(-514697.9929 0 -267387.1069)
(-474969.8785 0 -147157.5151)
(-409867.9875 7.590816911e-10 -70978.8509)
(-341781.1571 0 -27959.8979)
(-281406.254 0 -7017.820551)
(-231486.2133 0 1157.648986)
(-191356.1302 0 3025.999774)
(-159382.4565 0 2329.925446)
(-133907.6628 0 920.8317719)
(-113522.9601 -2.218936483e-10 -412.7448093)
(-97100.9626 0 -1404.51791)
(-83759.6759 0 -2019.194702)
(-72822.70942 0 -2311.168271)
(-63780.83812 0 -2353.334504)
(-56241.0177 4.646490293e-11 -2219.337789)
(-49899.28153 4.531075074e-11 -1971.743919)
(-44521.88767 0 -1657.736513)
(-39926.09874 0 -1314.110044)
(-35969.94967 2.131899682e-11 -965.0700358)
(-32540.39748 0 -628.6727198)
(-29547.99912 -2.067999104e-11 -315.2226718)
(-26922.11726 0 -32.22082033)
(-24604.53156 0 217.0703905)
(-22548.02226 0 430.335039)
(-20712.80534 0 606.9606571)
(-19064.47279 0 746.8199465)
(-17572.57632 9.781168704e-12 850.274748)
(-16209.29342 0 918.2415226)
(-14950.0212 0 951.5803784)
(-13771.97369 4.830039681e-12 951.8634566)
(-12655.53434 0 920.7673818)
(-11584.28761 0 861.3087224)
(-10546.37683 0 777.6289515)
(-9536.361274 0 675.8351321)
(-8556.039702 0 563.2705817)
(-7613.809361 0 448.0305696)
(-6721.787697 0 337.4966545)
(-5892.685225 1.209402773e-12 237.4391385)
(-5136.834966 0 151.517759)
(-4460.124795 0 81.19976004)
(-3863.912133 0 26.29289919)
(-3345.864878 -1.227877028e-12 -14.47277503)
(-2901.138028 0 -42.90094915)
(-2524.34323 0 -60.98445824)
(-2212.700782 0 -70.75198464)
(-1967.706392 0 -74.4482949)
(-412490.1787 0 -463826.6914)
(-755905.5579 0 -316540.6029)
(-873367.4453 0 -168244.6659)
(-803388.6059 0 -62090.67605)
(-665584.4922 -2.074265041e-09 -11505.70713)
(-531192.6437 0 4687.293372)
(-421240.1237 -7.590816911e-10 5715.590115)
(-336481.831 0 1999.594428)
(-272039.5426 3.068245864e-10 -2161.817467)
(-222790.8276 0 -5382.823439)
(-184715.6883 -2.625550867e-10 -7435.615078)
(-154899.4006 -2.464598854e-10 -8480.060415)
(-131259.9331 0 -8764.607329)
(-112295.7547 0 -8522.191996)
(-96905.92597 0 -7942.04202)
(-84273.06075 0 -7168.216744)
(-73797.09169 1.479173579e-10 -6300.71946)
(-65031.474 0 -5407.409199)
(-57629.7706 0 -4536.016866)
(-51329.41423 0 -3714.663231)
(-45925.86409 0 -2960.191069)
(-41259.76316 0 -2280.945556)
(-37205.79944 0 -1679.07657)
(-33662.28692 0 -1153.72756)
(-30547.88505 0 -701.3030088)
(-27796.82977 0 -317.4275637)
(-25354.56763 -2.019241095e-11 2.763072868)
(-23174.60098 0 264.2907911)
(-21218.42438 -9.913505491e-12 471.4073301)
(-19451.39657 0 628.5894246)
(-17843.24913 0 739.295448)
(-16366.63017 0 807.4059647)
(-14997.63711 0 836.332213)
(-13715.21796 0 830.0324284)
(-12502.61397 0 792.8290202)
(-11347.78141 0 729.9966939)
(-10243.8397 0 647.7242155)
(-9189.889308 0 553.0653646)
(-8190.022161 0 453.2250699)
(-7251.901276 0 354.985084)
(-6383.650369 0 263.7357261)
(-5592.300716 1.209402773e-12 183.188972)
(-4881.868241 -1.213068337e-12 115.2593167)
(-4252.601461 0 60.31627008)
(-3701.698641 0 17.64058256)
(-3224.082287 0 -14.13688945)
(-2813.289755 0 -36.70675988)
(-2462.953974 6.203589913e-13 -51.83922037)
(-2169.537315 0 -61.30386501)
(-1936.068616 0 -66.92924346)
(-485501.3554 0 22837.47187)
(-799423.9402 0 43292.85992)
(-861469.3374 0 33747.23947)
(-771476.6693 0 16505.17467)
(-630979.1855 0 -353.6861262)
(-504954.5454 0 -12064.60888)
(-404292.2168 0 -18656.68766)
(-326619.5204 0 -21590.37868)
(-267055.424 0 -22238.68645)
(-221077.1052 0 -21525.15191)
(-185148.254 0 -20033.7878)
(-156690.0062 0 -18138.59994)
(-133855.52 0 -16080.4759)
(-115310.886 -1.109468242e-10 -14013.49142)
(-100074.1267 0 -12034.81681)
(-87422.21946 0 -10198.11961)
(-76821.14782 0 -8526.836136)
(-67860.79452 0 -7030.990545)
(-60226.78847 0 -5710.778712)
(-53678.67942 0 -4556.549184)
(-48024.63528 0 -3557.735973)
(-43114.62258 0 -2699.909901)
(-38828.02675 0 -1969.998368)
(-35066.07942 0 -1354.04693)
(-31748.76086 0 -839.9934713)
(-28809.621 0 -415.8541292)
(-26193.21466 0 -72.09895046)
(-23851.73349 0 200.706612)
(-21745.01609 0 409.8787304)
(-19837.37205 -9.841595743e-12 562.4912095)
(-18097.66223 0 664.4831188)
(-16498.81087 0 721.5418856)
(-15017.47024 0 739.2360854)
(-13634.70519 0 723.1717024)
(-12336.33387 0 679.5535578)
(-11113.48866 0 614.8349131)
(-9962.088234 0 536.0013978)
(-8882.386126 0 449.8524652)
(-7877.818118 0 362.701949)
(-6953.044377 0 279.7393969)
(-6111.640859 0 204.674512)
(-5355.580804 0 139.7562814)
(-4684.091067 0 85.80999543)
(-4093.743159 0 42.63169061)
(-3579.279334 0 9.335279949)
(-3134.238596 -1.227877028e-12 -15.31339311)
(-2751.610014 0 -32.69692832)
(-2424.992136 0 -44.16784791)
(-2150.618113 0 -51.01162891)
(-1929.394099 0 -54.53970007)
(-464756.4291 0 146400.5391)
(-765080.8715 0 84461.85031)
(-824565.6734 0 25519.71396)
(-742644.5914 0 -13275.61931)
(-614452.986 0 -31728.89597)
(-497972.362 0 -38761.86294)
(-403689.3928 0 -39849.43386)
(-329829.0804 0 -37918.44936)
(-272287.9967 0 -34594.1371)
(-227246.9629 0 -30762.31147)
(-191619.6611 0 -26877.1365)
(-163085.3191 0 -23168.78195)
(-139950.4081 0 -19749.56259)
(-120972.9116 -1.109468242e-10 -16669.30657)
(-105239.9003 0 -13939.55335)
(-92078.27645 1.021184976e-10 -11545.66332)
(-80975.61838 0 -9464.249972)
(-71533.86778 0 -7670.223925)
(-63450.7947 0 -6133.33232)
(-56489.57295 0 -4824.120908)
(-50459.44375 0 -3716.19689)
(-45209.68085 0 -2783.54634)
(-40617.0342 0 -2004.738944)
(-36580.25614 0 -1359.093346)
(-33016.094 0 -829.9373404)
(-29854.8752 0 -401.6642717)
(-27037.94831 0 -61.74221023)
(-24515.00591 0 201.2484724)
(-22243.1515 0 396.9538922)
(-20185.63771 -9.841595743e-12 533.7532921)
(-18309.93096 0 619.4663908)
(-16589.19004 0 661.020393)
(-15000.89003 0 665.5382677)
(-13527.66172 0 639.7636462)
(-12157.26908 0 590.87616)
(-10882.28454 0 525.7573634)
(-9699.229957 0 451.2476894)
(-8607.383158 0 373.3696082)
(-7607.706588 0 297.2918608)
(-6700.955134 0 226.7823075)
(-5886.565066 0 164.2864878)
(-5162.36179 0 111.0561819)
(-4524.024198 0 67.2846818)
(-3965.591956 0 32.46961686)
(-3480.184848 0 5.680924441)
(-3060.418488 -1.227877028e-12 -14.20156246)
(-2698.864698 0 -28.3659271)
(-2389.000976 0 -37.94789112)
(-2126.903842 0 -44.01675972)
(-1913.623387 0 -47.63445542)
(-327239.7276 0 296610.5946)
(-587534.1295 0 189332.0214)
(-694806.8716 0 79401.2169)
(-673008.4783 0 7042.20384)
(-586353.1959 0 -27649.5301)
(-490667.3656 0 -40968.22658)
(-406207.1277 0 -43883.58752)
(-336840.7962 0 -42044.04727)
(-281092.3881 0 -38175.06583)
(-236453.5734 0 -33628.68311)
(-200545.2564 0 -29062.14776)
(-171406.1862 0 -24776.20635)
(-147523.6171 0 -20896.90274)
(-127757.34 -1.109468242e-10 -17461.39527)
(-111256.4638 0 -14459.6103)
(-97373.41854 1.021184976e-10 -11861.54114)
(-85600.72466 0 -9632.112595)
(-75549.11687 0 -7733.528659)
(-66920.01643 0 -6124.010617)
(-59470.27169 0 -4768.00119)
(-53006.22462 0 -3631.884052)
(-47371.45483 0 -2686.185604)
(-42437.77917 0 -1904.967624)
(-38099.16213 0 -1265.65222)
(-34267.09412 0 -748.6334344)
(-30868.05556 0 -337.2089899)
(-27838.93863 0 -16.78248203)
(-25127.04211 0 224.8596289)
(-22686.45255 0 398.9942513)
(-20478.71201 -9.841595743e-12 514.8809961)
(-18470.66337 0 581.5613466)
(-16635.32246 0 606.9991116)
(-14950.8447 0 599.1755668)
(-13400.65918 0 565.5672326)
(-11973.22432 0 513.5394206)
(-10660.93934 0 449.8525598)
(-9459.229434 0 380.6560858)
(-8365.039064 0 310.99434)
(-7376.136199 0 244.8648436)
(-6489.406803 0 184.9117642)
(-5700.739344 0 132.6679211)
(-5004.747215 0 88.71201546)
(-4394.561209 0 52.87267983)
(-3862.547895 0 24.51564429)
(-3400.860483 0 2.758310021)
(-3001.658839 0 -13.38345754)
(-2657.426101 0 -24.89290069)