/*--------------------------------*- C++ -*----------------------------------*\
  =========                 |
  \\      /  F ield         | OpenFOAM: The Open Source CFD Toolbox
   \\    /   O peration     | Website:  https://openfoam.org
    \\  /    A nd           | Version:  7
     \\/     M anipulation  |
\*---------------------------------------------------------------------------*/
FoamFile
{
    version     2.0;
    format      ascii;
    class       surfaceScalarField;
    location    "0.0012";
    object      phi;
}
// * * * * * * * * * * * * * * * * * * * * * * * * * * * * * * * * * * * * * //

dimensions      [1 0 -1 0 0 0 0];

internalField   nonuniform List<scalar> 
2259
(
7.470009963e-11
2.687919341e-12
7.201218029e-11
1.051948668e-11
2.105819622e-10
2.310577044e-11
3.409681151e-10
4.001414798e-11
4.632489462e-10
6.077924942e-11
5.775352128e-10
8.491146378e-11
6.839634891e-10
1.119036372e-10
7.826884514e-10
1.412368968e-10
8.7387902e-10
1.72385926e-10
9.577142838e-10
2.048234918e-10
1.034379754e-09
2.380245711e-10
1.104064467e-09
2.714701561e-10
1.166958437e-09
3.046509096e-10
1.22325092e-09
3.370706513e-10
1.273128518e-09
3.682500963e-10
1.316774221e-09
3.977302826e-10
1.354366893e-09
4.250770034e-10
1.386080302e-09
4.498842301e-10
1.412083902e-09
4.717792672e-10
1.432542325e-09
4.904268792e-10
1.447615945e-09
5.055341683e-10
1.457461914e-09
5.168557203e-10
1.462234645e-09
5.241984646e-10
1.462086421e-09
5.274259888e-10
1.457169141e-09
5.264634321e-10
1.447634228e-09
5.213008847e-10
1.433634118e-09
5.119960279e-10
1.415322633e-09
4.986759919e-10
1.392855e-09
4.81537564e-10
1.366388253e-09
4.608454304e-10
1.336080081e-09
4.369289392e-10
1.302087735e-09
4.101769383e-10
1.264565368e-09
3.81029853e-10
1.223660956e-09
3.499707869e-10
1.179510979e-09
3.175144225e-10
1.132234334e-09
2.841959243e-10
1.081924071e-09
2.505597228e-10
1.028638623e-09
2.171503848e-10
9.723926392e-10
1.845075549e-10
9.131500278e-10
1.531644168e-10
8.508234128e-10
1.236495537e-10
7.852825626e-10
9.648787726e-11
7.163755761e-10
7.219510409e-11
6.439622505e-10
5.125742871e-11
5.679558478e-10
3.408674906e-11
4.883679874e-10
2.093764269e-11
4.053525273e-10
1.176590613e-11
3.192525564e-10
6.004858169e-12
2.306626349e-10
2.252649003e-12
1.404959358e-10
4.862335165e-11
3.257997421e-12
6.875418288e-11
1.276340986e-11
2.010765498e-10
2.807005668e-11
3.256614683e-10
4.869282407e-11
4.426261788e-10
7.411792437e-11
5.521101125e-10
1.038106816e-10
6.542707318e-10
1.372211348e-10
7.492779981e-10
1.737891866e-10
8.373109683e-10
2.129489191e-10
9.185545513e-10
2.541321916e-10
9.931964812e-10
2.967717512e-10
1.061424907e-09
3.403039038e-10
1.123426284e-09
3.841710127e-10
1.179383811e-09
4.278234657e-10
1.229476065e-09
4.707220881e-10
1.273875599e-09
5.123401205e-10
1.31274886e-09
5.521655528e-10
1.34625487e-09
5.897036111e-10
1.374545844e-09
6.244796053e-10
1.397766331e-09
6.56041952e-10
1.416053599e-09
6.839660504e-10
1.429537816e-09
7.078582925e-10
1.438342403e-09
7.273606985e-10
1.442584015e-09
7.421562341e-10
1.442373606e-09
7.519742255e-10
1.437816237e-09
7.565966894e-10
1.429011654e-09
7.558641893e-10
1.416055132e-09
7.496820507e-10
1.399037139e-09
7.380267023e-10
1.378043601e-09
7.209503615e-10
1.353156422e-09
6.985862113e-10
1.324451885e-09
6.711509047e-10
1.292000674e-09
6.389464989e-10
1.255865361e-09
6.02359698e-10
1.216097779e-09
5.618592624e-10
1.172734769e-09
5.17991257e-10
1.125792076e-09
4.713728887e-10
1.07525699e-09
4.226858727e-10
1.021079655e-09
3.726714966e-10
9.631644036e-10
3.221294353e-10
9.013654738e-10
2.719202939e-10
8.354917035e-10
2.229693665e-10
7.653265029e-10
1.762629275e-10
6.906686889e-10
1.328277022e-10
6.113910725e-10
9.369135895e-11
5.2750433e-10
5.98478979e-11
4.391959876e-10
3.229436496e-11
3.468060888e-10
1.223696081e-11
2.507200387e-10
1.55004131e-12
1.511828556e-10
5.017339363e-11
3.792211851e-12
6.496197103e-11
1.485846697e-11
1.900102947e-10
3.270339431e-11
3.07816541e-10
5.680086688e-11
4.185287062e-10
8.660150316e-11
5.223094762e-10
1.215396523e-10
6.193325828e-10
1.610380669e-10
7.097795835e-10
2.045122868e-10
7.938367484e-10
2.513741857e-10
8.716926524e-10
3.010347514e-10
9.435359159e-10
3.529063637e-10
1.009553295e-09
4.064046218e-10
1.069928026e-09
4.60949913e-10
1.12483852e-09
5.159684795e-10
1.174457498e-09
5.708933198e-10
1.218950759e-09
6.251653859e-10
1.258476795e-09
6.782338276e-10
1.293186428e-09
7.295570879e-10
1.323222584e-09
7.786034277e-10
1.348719991e-09
8.248516137e-10
1.369805413e-09
8.677923682e-10
1.386597061e-09
9.069292273e-10
1.399205544e-09
9.417804119e-10
1.407732831e-09
9.718813821e-10
1.412272636e-09
9.967874419e-10
1.412910177e-09
1.016077825e-09
1.409721271e-09
1.029360493e-09
1.402772465e-09
1.036277845e-09
1.392119787e-09
1.03651359e-09
1.377807857e-09
1.029800712e-09
1.359869299e-09
1.015930015e-09
1.338322582e-09
9.947595668e-10
1.313171123e-09
9.6622498e-10
1.284399948e-09
9.30349671e-10
1.251973089e-09
8.872553956e-10
1.215829044e-09
8.371733901e-10
1.175874081e-09
7.804560957e-10
1.131974284e-09
7.175915329e-10
1.083944217e-09
6.49223148e-10
1.031532788e-09
5.761807848e-10
9.744078362e-10
4.99531017e-10
9.121414703e-10
4.206521378e-10
8.44205381e-10
3.413333673e-10
7.699874582e-10
2.638784868e-10
6.888459514e-10
1.911678096e-10
6.002150056e-10
1.2659745e-10
5.037663456e-10
7.372681413e-11
3.996767229e-10
3.524014333e-11
2.892067073e-10
1.07388266e-11
1.756841694e-10
6.091222072e-11
4.251795929e-12
6.071017512e-11
1.667333334e-11
1.775887573e-10
3.673360851e-11
2.877562657e-10
6.388015512e-11
3.913821595e-10
9.75461021e-11
4.886435292e-10
1.371553491e-10
5.797233357e-10
1.821267984e-10
6.648081341e-10
2.31877663e-10
7.440858833e-10
2.858264317e-10
8.177438836e-10
3.433950202e-10
8.859673272e-10
4.040105004e-10
9.489378146e-10
4.671063514e-10
1.006832175e-09
5.321233446e-10
1.059821526e-09
5.985101265e-10
1.108070716e-09
6.657231283e-10
1.151737756e-09
7.332265053e-10
1.190973417e-09
8.004916009e-10
1.225921332e-09
8.669963034e-10
1.256717881e-09
9.322237801e-10
1.283492515e-09
9.956612479e-10
1.306367945e-09
1.056798557e-09
1.32545975e-09
1.115126643e-09
1.340877458e-09
1.170135845e-09
1.352723628e-09
1.221314201e-09
1.361094278e-09
1.268146428e-09
1.366077949e-09
1.310112165e-09
1.367755533e-09
1.346685807e-09
1.366198823e-09
1.377335828e-09
1.361469764e-09
1.401525042e-09
1.353618642e-09
1.418711584e-09
1.342682758e-09
1.428350518e-09
1.328683648e-09
1.429896317e-09
1.311625323e-09
1.422806001e-09
1.291490263e-09
1.406543375e-09
1.268235714e-09
1.380585138e-09
1.241787281e-09
1.344427724e-09
1.212031495e-09
1.297598105e-09
1.178803904e-09
1.239667828e-09
1.141874494e-09
1.170275052e-09
1.100925564e-09
1.089159145e-09
1.055523742e-09
9.962199029e-10
1.005080713e-09
8.916187581e-10
9.488065262e-10
7.759486899e-10
8.856575266e-10
6.50503039e-10
8.142916025e-10
5.176731002e-10
7.330449449e-10
3.814939764e-10
6.399454695e-10
2.483501859e-10
5.328205134e-10
1.28125657e-10
4.09431237e-10
3.76609638e-11
2.661488633e-10
9.857318409e-11
4.585792387e-12
5.612438272e-11
1.798492617e-11
1.641896236e-10
3.964344715e-11
2.660977448e-10
6.89956861e-11
3.620299205e-10
1.054686082e-10
4.52170607e-10
1.484858356e-10
5.367061082e-10
1.974710761e-10
6.158228936e-10
2.51850398e-10
6.897065616e-10
3.11054252e-10
7.585400297e-10
3.74518968e-10
8.225026113e-10
4.416877254e-10
8.817690575e-10
5.120111639e-10
9.365087362e-10
5.849476442e-10
9.868850462e-10
6.599633023e-10
1.033055058e-09
7.365318764e-10
1.075169183e-09
8.141342742e-10
1.11337102e-09
8.922585325e-10
1.147797074e-09
9.703997732e-10
1.178576641e-09
1.04806017e-09
1.205832119e-09
1.124749684e-09
1.229678431e-09
1.199986617e-09
1.250222818e-09
1.273298606e-09
1.267565471e-09
1.344223537e-09
1.281798697e-09
1.412309643e-09
1.293008175e-09
1.477115181e-09
1.301272412e-09
1.538206616e-09
1.306664099e-09
1.595155403e-09
1.309250037e-09
1.647532932e-09
1.309092236e-09
1.694903914e-09
1.306247662e-09
1.736817453e-09
1.30076922e-09
1.772796783e-09
1.292704318e-09
1.802326491e-09
1.282095616e-09
1.824837894e-09
1.26897886e-09
1.839691602e-09
1.253382009e-09
1.846157513e-09
1.23532137e-09
1.843391631e-09
1.214797378e-09
1.83040821e-09
1.191787324e-09
1.806047072e-09
1.166235633e-09
1.768931945e-09
1.138040691e-09
1.717417395e-09
1.107038293e-09
1.649519849e-09
1.072978259e-09
1.562835871e-09
1.035490504e-09
1.454467408e-09
9.940259886e-10
1.321019975e-09
9.477390345e-10
1.158806812e-09
8.952581067e-10
9.644797387e-10
8.342725403e-10
7.364357933e-10
7.60864457e-10
4.779202941e-10
6.6794674e-10
2.053046984e-10
5.387644505e-10
3.038778728e-10
-4.602234746e-13
5.658460619e-11
-1.809989407e-12
1.655393895e-10
-4.013740668e-12
2.68301496e-10
-7.046817111e-12
3.650629969e-10
-1.089205767e-11
4.560158475e-10
-1.553868026e-11
5.413527307e-10
-2.09812306e-11
6.212654439e-10
-2.721820806e-11
6.95943539e-10
-3.425100184e-11
7.655728234e-10
-4.208267377e-11
8.303342832e-10
-5.071697036e-11
8.904033539e-10
-6.015736163e-11
9.459491274e-10
-7.040614808e-11
9.971338324e-10
-8.14635647e-11
1.044112475e-09
-9.332685213e-11
1.08703247e-09
-1.059890845e-10
1.126033252e-09
-1.194379834e-10
1.161245973e-09
-1.336546517e-10
1.192793309e-09
-1.48612136e-10
1.220789603e-09
-1.642738434e-10
1.245340138e-09
-1.805928271e-10
1.266541801e-09
-1.975109759e-10
1.284483619e-09
-2.149595368e-10
1.299247258e-09
-2.328599389e-10
1.310908576e-09
-2.511256365e-10
1.31953811e-09
-2.696639958e-10
1.325202457e-09
-2.88378149e-10
1.32796419e-09
-3.071678991e-10
1.327881986e-09
-3.259297075e-10
1.325009469e-09
-3.445551472e-10
1.319394659e-09
-3.629285572e-10
1.311077727e-09
-3.809238402e-10
1.300090899e-09
-3.984015758e-10
1.286456595e-09
-4.152059408e-10
1.270186373e-09
-4.311617459e-10
1.251277174e-09
-4.460694575e-10
1.229705089e-09
-4.596970627e-10
1.205414929e-09
-4.717657121e-10
1.178304282e-09
-4.819272829e-10
1.148202261e-09
-4.897290464e-10
1.114840056e-09
-4.945568429e-10
1.077806055e-09
-4.955373091e-10
1.036470971e-09
-4.913624782e-10
9.898511588e-10
-4.799917848e-10
9.363683427e-10
-4.582016076e-10
8.734679318e-10
-4.210053533e-10
7.970762887e-10
-3.61046877e-10
7.009059842e-10
-2.686303374e-10
5.755302054e-10
-1.355485424e-10
4.056826556e-10
1.683293293e-10
-3.569873175e-13
5.69415935e-11
-1.406612162e-12
1.665890144e-10
-3.124105739e-12
2.700189896e-10
-5.493475073e-12
3.674323662e-10
-8.50592398e-12
4.590282964e-10
-1.215824733e-11
5.450050541e-10
-1.645159607e-11
6.255587926e-10
-2.138984791e-11
7.008817908e-10
-2.6978403e-11
7.711613785e-10
-3.322290904e-11
8.365787892e-10
-4.012790345e-11
8.973083484e-10
-4.769547997e-11
9.535167039e-10
-5.592387846e-11
1.005362231e-09
-6.480594911e-11
1.052994545e-09
-7.432735301e-11
1.096553874e-09
-8.446483383e-11
1.136170733e-09
-9.518478018e-11
1.171965919e-09
-1.064424634e-10
1.204050992e-09
-1.181817744e-10
1.232528914e-09
-1.303366121e-10
1.257494976e-09
-1.428338046e-10
1.279038994e-09
-1.555963776e-10
1.297246193e-09
-1.685485618e-10
1.312199442e-09
-1.816194599e-10
1.323979474e-09
-1.947469476e-10
1.332665598e-09
-2.078791089e-10
1.338334618e-09
-2.209746635e-10
1.341059745e-09
-2.340005588e-10
1.340907881e-09
-2.469287324e-10
1.337937643e-09
-2.597303354e-10
1.332196262e-09
-2.723697573e-10
1.323717149e-09
-2.847968688e-10
1.31251801e-09
-2.969399969e-10
1.298599723e-09
-3.086979413e-10
1.281944317e-09
-3.199327272e-10
1.26251196e-09
-3.304601633e-10
1.240232525e-09
-3.400372467e-10
1.214992013e-09
-3.48341953e-10
1.186608988e-09
-3.549411495e-10
1.154801458e-09
-3.592386577e-10
1.119137565e-09
-3.603944372e-10
1.078961835e-09
-3.572073772e-10
1.03328391e-09
-3.479699094e-10
9.806136906e-10
-3.303429403e-10
9.187413728e-10
-3.013729128e-10
8.44497903e-10
-2.578828596e-10
7.53586233e-10
-1.976400812e-10
6.406632026e-10
-1.222218383e-10
5.0011196e-10
-4.494178324e-11
3.284025965e-10
1.233875445e-10
-2.664169377e-13
5.720801044e-11
-1.049346251e-12
1.673719437e-10
-2.333002166e-12
2.713026455e-10
-4.108853198e-12
3.692082172e-10
-6.374381421e-12
4.612938247e-10
-9.131363036e-12
5.477620357e-10
-1.238442595e-11
6.288118555e-10
-1.613927176e-11
7.046366366e-10
-2.040105396e-11
7.754231606e-10
-2.517278834e-11
8.413505235e-10
-3.045356035e-11
9.025891203e-10
-3.6236733e-11
9.592998765e-10
-4.250824927e-11
1.011633747e-09
-4.924522875e-11
1.059731525e-09
-5.641516982e-11
1.103723815e-09
-6.397635737e-11
1.143731921e-09
-7.187957346e-11
1.179869136e-09
-8.007109919e-11
1.212242518e-09
-8.849647624e-11
1.240954291e-09
-9.710523889e-11
1.266103739e-09
-1.058541708e-10
1.287787926e-09
-1.147097928e-10
1.306101814e-09
-1.236489137e-10
1.321138563e-09
-1.326571547e-10
1.332987715e-09
-1.417266254e-10
1.341735068e-09
-1.508520016e-10
1.347459994e-09
-1.600268744e-10
1.350234617e-09
-1.692394455e-10
1.350120452e-09
-1.784688155e-10
1.347167013e-09
-1.876812633e-10
1.34140871e-09
-1.968264953e-10
1.332862381e-09
-2.058333539e-10
1.321524869e-09
-2.146039683e-10
1.307370338e-09
-2.230063535e-10
1.290346702e-09
-2.308641293e-10
1.270369737e-09
-2.379440781e-10
1.247312474e-09
-2.439393218e-10
1.220987257e-09
-2.484479879e-10
1.191117655e-09
-2.509438348e-10
1.157297305e-09
-2.507389686e-10
1.118932699e-09
-2.469431339e-10
1.075166001e-09
-2.384422922e-10
1.024783069e-09
-2.239469426e-10
9.661183417e-10
-2.021943449e-10
8.969887758e-10
-1.724045183e-10
8.147080769e-10
-1.350482281e-10
7.162299432e-10
-9.282856587e-11
5.98443541e-10
-5.128510693e-11
4.58568502e-10
-1.731858699e-11
2.944360748e-10
1.060689568e-10
-1.894004043e-13
5.739741084e-11
-7.470745015e-13
1.679296178e-10
-1.664248387e-12
2.722198194e-10
-2.938282105e-12
3.704822509e-10
-4.571253447e-12
4.62926796e-10
-6.568173508e-12
5.497589557e-10
-8.934981747e-12
6.311786637e-10
-1.167668101e-11
7.073783358e-10
-1.47952583e-11
7.785417379e-10
-1.828782909e-11
8.448430943e-10
-2.214509446e-11
9.064463858e-10
-2.635038317e-11
9.635051653e-10
-3.087970507e-11
1.016163069e-09
-3.570304138e-11
1.064554861e-09
-4.078708125e-11
1.108807855e-09
-4.609891237e-11
1.149043752e-09
-5.160997902e-11
1.185380202e-09
-5.729932044e-11
1.217931859e-09
-6.315592688e-11
1.246810897e-09
-6.917913764e-11
1.272126949e-09
-7.537698175e-11
1.29398577e-09
-8.176401014e-11
1.312488843e-09
-8.83569361e-11
1.327731489e-09
-9.517133999e-11
1.339802119e-09
-1.022174519e-10
1.34878118e-09
-1.094976828e-10
1.354740225e-09
-1.170037091e-10
1.357740644e-09
-1.24715275e-10
1.357832018e-09
-1.325975682e-10
1.355049306e-09
-1.405998972e-10
1.349411039e-09
-1.486525176e-10
1.340915002e-09
-1.566636134e-10
1.329535965e-09
-1.645139356e-10
1.31522066e-09
-1.720498944e-10
1.297882661e-09
-1.790735732e-10
1.277393415e-09
-1.853299037e-10
1.253568804e-09
-1.90490702e-10
1.226148055e-09
-1.941360807e-10
1.194763033e-09
-1.95735568e-10
1.158896792e-09
-1.946352576e-10
1.117832388e-09
-1.900651302e-10
1.070595873e-09
-1.811901987e-10
1.015908138e-09
-1.672336219e-10
9.521617647e-10
-1.476940747e-10
8.774492283e-10
-1.22650147e-10
7.896641487e-10
-9.311031723e-11
6.866901127e-10
-6.135129084e-11
5.66684514e-10
-3.123613037e-11
4.284533415e-10
-8.678105745e-12
2.71878049e-10
9.739085045e-11
-1.269604567e-13
5.752437129e-11
-5.014460992e-13
1.683041034e-10
-1.120032766e-12
2.728384061e-10
-1.984081205e-12
3.713462994e-10
-3.09797968e-12
4.640406944e-10
-4.467142546e-12
5.511281186e-10
-6.095541543e-12
6.328070627e-10
-7.984003337e-12
7.092667976e-10
-1.012862269e-11
7.806863573e-10
-1.252018773e-11
8.472346594e-10
-1.514474446e-11
9.090709426e-10
-1.798541322e-11
9.663458341e-10
-2.10251993e-11
1.019202855e-09
-2.425019533e-11
1.067779857e-09
-2.765249735e-11
1.112210157e-09
-3.123218369e-11
1.152623438e-09
-3.499756053e-11
1.189145579e-09
-3.896431901e-11
1.221898617e-09
-4.315356271e-11
1.251000141e-09
-4.758860964e-11
1.276561996e-09
-5.229247241e-11
1.298689632e-09
-5.728521076e-11
1.317481581e-09
-6.258168877e-11
1.333027967e-09
-6.818994461e-11
1.345410375e-09
-7.410915728e-11
1.354700393e-09
-8.032806393e-11
1.360959132e-09
-8.682308399e-11
1.364235664e-09
-9.355691546e-11
1.36456585e-09
-1.004769914e-10
1.361969382e-09
-1.075136502e-10
1.356447698e-09
-1.14578249e-10
1.347979601e-09
-1.215595447e-10
1.336517261e-09
-1.283196871e-10
1.321980803e-09
-1.346871347e-10
1.304250109e-09
-1.404488134e-10
1.283155094e-09
-1.453390793e-10
1.25845907e-09
-1.49029216e-10
1.229838192e-09
-1.511178018e-10
1.196851619e-09
-1.51129513e-10
1.158908503e-09
-1.485292954e-10
1.115232171e-09
-1.427667813e-10
1.064833359e-09
-1.333612475e-10
1.006502604e-09
-1.200356111e-10
9.388361286e-10
-1.028897031e-10
8.603033203e-10
-8.258324747e-11
7.693576929e-10
-6.047417469e-11
6.645810398e-10
-3.863064945e-11
5.448409886e-10
-1.961089935e-11
4.094335914e-10
-5.884138943e-12
2.581512873e-10
9.150671113e-11
-7.840926738e-14
5.760278055e-11
-3.102507782e-13
1.68535945e-10
-6.955012506e-13
2.732236565e-10
-1.237171665e-12
3.718879698e-10
-1.939361956e-12
4.647428847e-10
-2.805252093e-12
5.519940087e-10
-3.835443039e-12
6.338372537e-10
-5.02750677e-12
7.104588614e-10
-6.376717672e-12
7.820355682e-10
-7.877580002e-12
8.487355217e-10
-9.526160597e-12
9.10719523e-10
-1.132244302e-11
9.681421164e-10
-1.327211327e-11
1.021152525e-09
-1.538731569e-11
1.069895059e-09
-1.768636524e-11
1.114509206e-09
-2.019223891e-11
1.155129312e-09
-2.293065504e-11
1.191883995e-09
-2.592817491e-11
1.224896137e-09
-2.9210185e-11
1.254282151e-09
-3.279908905e-11
1.2801509e-09
-3.67133121e-11
1.302603856e-09
-4.096540187e-11
1.321733671e-09
-4.556144027e-11
1.337624005e-09
-5.049947544e-11
1.35034841e-09
-5.576905088e-11
1.359969968e-09
-6.134950699e-11
1.366539588e-09
-6.720932397e-11
1.370095481e-09
-7.330406807e-11
1.370660594e-09
-7.95754811e-11
1.368240795e-09
-8.594883541e-11
1.362821052e-09
-9.233103788e-11
1.354361803e-09
-9.860696865e-11
1.342793192e-09
-1.046352129e-10
1.328009047e-09
-1.102423782e-10
1.309857274e-09
-1.152161846e-10
1.288128901e-09
-1.192986523e-10
1.262541538e-09
-1.221806923e-10
1.232720232e-09
-1.235029e-10
1.198173827e-09
-1.228667147e-10
1.158272318e-09
-1.198637879e-10
1.112229244e-09
-1.141282847e-10
1.059097856e-09
-1.054137195e-10
9.977880389e-10
-9.368812605e-11
9.271105352e-10
-7.923112102e-11
8.458463152e-10
-6.271215255e-11
7.528387244e-10
-4.522811335e-11
6.470970004e-10
-2.828701582e-11
5.278998911e-10
-1.373793343e-11
3.948845093e-10
-3.688280963e-12
2.481016341e-10
8.781842981e-11
-4.233662948e-14
5.764511718e-11
-1.679311154e-13
1.686615395e-10
-3.781545478e-13
2.7343388e-10
-6.757078234e-13
3.721855231e-10
-1.063417298e-12
4.651305942e-10
-1.543286667e-12
5.524738781e-10
-2.116778501e-12
6.344107455e-10
-2.785777933e-12
7.111278607e-10
-3.554285742e-12
7.828040759e-10
-4.429906371e-12
8.496111422e-10
-5.424732127e-12
9.117143486e-10
-6.555590686e-12
9.692729748e-10
-7.843467652e-12
1.022440402e-09
-9.312421101e-12
1.071364013e-09
-1.098823707e-11
1.116185022e-09
-1.289708846e-11
1.157038163e-09
-1.506445919e-11
1.194051366e-09
-1.751393781e-11
1.227345616e-09
-2.026569998e-11
1.257033913e-09
-2.333589499e-11
1.283221095e-09
-2.673572431e-11
1.306003685e-09
-3.047057045e-11
1.325468517e-09
-3.45396313e-11
1.341693066e-09
-3.893472966e-11
1.354743508e-09
-4.36399831e-11
1.364675222e-09
-4.863025343e-11
1.371529858e-09
-5.387027688e-11
1.375335504e-09
-5.931291581e-11
1.376103233e-09
-6.489745625e-11
1.373825335e-09
-7.054752026e-11
1.368471116e-09
-7.616822322e-11
1.359982506e-09
-8.164345976e-11
1.348268428e-09
-8.683141126e-11
1.333196998e-09
-9.156094959e-11
1.314586812e-09
-9.562674742e-11
1.292194699e-09
-9.878705338e-11
1.265701844e-09
-1.007644327e-10
1.234697611e-09
-1.012547664e-10
1.198664161e-09
-9.994671672e-11
1.156964268e-09
-9.655654261e-11
1.10883907e-09
-9.087681097e-11
1.053418125e-09
-8.283700113e-11
9.897482292e-10
-7.256574274e-11
9.168392768e-10
-6.044273401e-11
8.337233064e-10
-4.712638365e-11
7.395223739e-10
-3.354379537e-11
6.335144119e-10
-2.08330162e-11
5.151891118e-10
-1.0232247e-11
3.842837401e-10
-2.911972367e-12
2.407813586e-10
8.490645715e-11
-1.693739521e-14
5.766205457e-11
-6.792069748e-14
1.687125228e-10
-1.550720267e-13
2.735210313e-10
-2.814384879e-13
3.723118895e-10
-4.510666094e-13
4.653002223e-10
-6.690839517e-13
5.526918954e-10
-9.427251882e-13
6.346843867e-10
-1.282006166e-12
7.114671416e-10
-1.700256979e-12
7.832223267e-10
-2.214210688e-12
8.501250959e-10
-2.843592534e-12
9.123437305e-10
-3.610571469e-12
9.700399539e-10
-4.539053708e-12
1.023368885e-09
-5.653790066e-12
1.072478749e-09
-6.979338482e-12
1.117510571e-09
-8.539220394e-12
1.158598045e-09
-1.035516765e-11
1.195867313e-09
-1.244626108e-11
1.22943671e-09
-1.482822597e-11
1.259415878e-09
-1.751315431e-11
1.285906023e-09
-2.050845452e-11
1.308998985e-09
-2.381670076e-11
1.328776763e-09
-2.743463362e-11
1.345310999e-09
-3.135266425e-11
1.358661539e-09
-3.555377091e-11
1.368876329e-09
-4.001263226e-11
1.37598872e-09
-4.469394171e-11
1.380016814e-09
-4.955127331e-11
1.380960565e-09
-5.452462479e-11
1.378798687e-09
-5.953890987e-11
1.373485401e-09
-6.450081222e-11
1.364944409e-09
-6.929649846e-11
1.353064114e-09
-7.378831195e-11
1.337688812e-09
-7.781218648e-11
1.318610687e-09
-8.117609407e-11
1.295558607e-09
-8.366086233e-11
1.268186612e-09
-8.502622312e-11
1.236062972e-09
-8.50235477e-11
1.198661486e-09
-8.341814903e-11
1.15535887e-09
-8.002075732e-11
1.105441679e-09
-7.472622109e-11
1.048123589e-09
-6.755476629e-11
9.825767744e-10
-5.868776642e-11
9.07972277e-10
-4.849137429e-11
8.235269144e-10
-3.752114861e-11
7.285521482e-10
-2.650479036e-11
6.224980537e-10
-1.630343304e-11
5.049877546e-10
-7.857547716e-12
3.758378552e-10
-2.134343607e-12
2.350581541e-10
8.277211325e-11
-1.884860153e-15
5.766393943e-11
-8.407488619e-15
1.687190454e-10
-2.292798926e-14
2.735355518e-10
-5.038345146e-14
3.723393449e-10
-9.760493988e-14
4.653474438e-10
-1.735374949e-13
5.527678279e-10
-2.895392784e-13
6.348003885e-10
-4.595512772e-13
7.116371537e-10
-7.000638767e-13
7.834628393e-10
-1.029890225e-12
8.504549223e-10
-1.469748865e-12
9.127835892e-10
-2.041570404e-12
9.706117754e-10
-2.767819902e-12
1.024095134e-09
-3.670826744e-12
1.073381756e-09
-4.772270943e-12
1.118612015e-09
-6.092560253e-12
1.159918334e-09
-7.65040283e-12
1.197425155e-09
-9.46193138e-12
1.231248238e-09
-1.154056074e-11
1.261494507e-09
-1.38963735e-11
1.288261836e-09
-1.653532079e-11
1.311637932e-09
-1.945909594e-11
1.331700538e-09
-2.266379445e-11
1.348515697e-09
-2.613977848e-11
1.362137523e-09
-2.987002187e-11
1.372606572e-09
-3.38296425e-11
1.37994834e-09
-3.798386401e-11
1.384171035e-09
-4.228696249e-11
1.385263663e-09
-4.668006473e-11
1.383191789e-09
-5.108930435e-11
1.377894641e-09
-5.542364827e-11
1.369278753e-09
-5.957249862e-11
1.357212965e-09
-6.340419272e-11
1.341520506e-09
-6.676444579e-11
1.32197094e-09
-6.947781759e-11
1.298271978e-09
-7.135102921e-11
1.270059824e-09
-7.218228976e-11
1.236894233e-09
-7.177540951e-11
1.198254606e-09
-6.996140806e-11
1.153544869e-09
-6.662437253e-11
1.102104643e-09
-6.173040991e-11
1.043229626e-09
-5.535443329e-11
9.762007978e-10
-4.769987168e-11
9.003177154e-10
-3.910768833e-11
8.149347309e-10
-3.005111425e-11
7.19495574e-10
-2.111522886e-11
6.135621681e-10
-1.296209123e-11
4.968346169e-10
-6.284320001e-12
3.69160084e-10
-1.750213094e-12
2.305240465e-10
8.102189988e-11
4.158026891e-15
5.765978141e-11
1.575551884e-14
1.687074479e-10
3.09725384e-14
2.735203348e-10
4.405121774e-14
3.723262663e-10
4.730096607e-14
4.65344194e-10
3.069912506e-14
5.527844298e-10
-1.7980878e-14
6.348490685e-10
-1.13252265e-13
7.117324251e-10
-2.714624773e-13
7.836210495e-10
-5.105288516e-13
8.506939886e-10
-8.495753404e-13
9.131226357e-10
-1.308489055e-12
9.710706891e-10
-1.907419347e-12
1.024694064e-09
-2.666307568e-12
1.074140644e-09
-3.604457597e-12
1.119550165e-09
-4.740147937e-12
1.161054025e-09
-6.090047296e-12
1.198775055e-09
-7.668786731e-12
1.232826977e-09
-9.488702384e-12
1.263314423e-09
-1.155894764e-11
1.290332081e-09
-1.388520629e-11
1.313964191e-09
-1.646894488e-11
1.334284277e-09
-1.93065624e-11
1.351353315e-09
-2.238873266e-11
1.365219693e-09
-2.569917207e-11
1.375917011e-09
-2.921363299e-11
1.383462801e-09
-3.289851093e-11
1.387855913e-09
-3.670917189e-11
1.389074324e-09
-4.058856789e-11
1.387071185e-09
-4.446496472e-11
1.381771038e-09
-4.82508006e-11
1.373064588e-09
-5.184058129e-11
1.360802746e-09
-5.511061243e-11
1.344790537e-09
-5.791908044e-11
1.324779408e-09
-6.010900232e-11
1.3004619e-09
-6.151382271e-11
1.271464645e-09
-6.196741148e-11
1.237347822e-09
-6.131810136e-11
1.197605296e-09
-5.944710339e-11
1.151673871e-09
-5.628851524e-11
1.098946055e-09
-5.184965064e-11
1.038790762e-09
-4.622745576e-11
9.705786031e-10
-3.961863496e-11
8.937088947e-10
-3.232133355e-11
8.076374296e-10
-2.472735833e-11
7.119015988e-10
-1.730539742e-11
6.061402073e-10
-1.057729244e-11
4.901065121e-10
-5.090632539e-12
3.636734246e-10
-1.393821691e-12
2.268272352e-10
7.96280779e-11
5.179321542e-15
5.765460208e-11
1.971887259e-14
1.686929084e-10
4.030526174e-14
2.734997484e-10
6.174152843e-14
3.7230483e-10
7.690187454e-14
4.653290337e-10
7.646758677e-14
5.527848641e-10
4.915691708e-14
6.348763791e-10
-1.822815218e-14
7.117998101e-10
-1.405205577e-13
7.837433419e-10
-3.338035853e-13
8.508872716e-10
-6.151403795e-13
9.134039724e-10
-1.002241854e-12
9.714577905e-10
-1.51308804e-12
1.02520491e-09
-2.165563855e-12
1.07479312e-09
-2.977151319e-12
1.120361752e-09
-3.964466943e-12
1.16204134e-09
-5.142770933e-12
1.199953359e-09
-6.525724467e-12
1.234209931e-09
-8.124867881e-12
1.264913566e-09
-9.948803296e-12
1.292156017e-09
-1.200309089e-11
1.316018479e-09
-1.428900952e-11
1.336570196e-09
-1.680330407e-11
1.353867609e-09
-1.953685024e-11
1.367953239e-09
-2.247406029e-11
1.378854221e-09
-2.559123196e-11
1.386579973e-09
-2.885586375e-11
1.391120545e-09
-3.222453812e-11
1.392442999e-09
-3.564207458e-11
1.390488722e-09
-3.903950364e-11
1.385168467e-09
-4.233319148e-11
1.376358276e-09
-4.542391792e-11
1.363893472e-09
-4.819705558e-11
1.347563675e-09
-5.052447606e-11
1.327106829e-09
-5.226810953e-11
1.302205534e-09
-5.328702996e-11
1.272483565e-09
-5.344688188e-11
1.237507674e-09
-5.263295217e-11
1.196791366e-09
-5.076477395e-11
1.149805692e-09
-4.781136959e-11
1.095992651e-09
-4.38050691e-11
1.034784461e-09
-3.885125216e-11
9.656247861e-10
-3.313314708e-11
8.879907896e-10
-2.69101196e-11
8.014144021e-10
-2.050956253e-11
7.055010417e-10
-1.431277207e-11
5.999434167e-10
-8.736520317e-12
4.845302603e-10
-4.211968636e-12
3.59148873e-10
-1.163065967e-12
2.23778332e-10
7.846501165e-11
4.145333364e-15
5.765045675e-11
1.566554057e-14
1.686813882e-10
3.197120443e-14
2.734834427e-10
4.884143092e-14
3.722879598e-10
6.017816795e-14
4.653176969e-10
5.800524866e-14
5.52787037e-10
3.252274336e-14
6.349018616e-10
-2.764477825e-14
7.118599776e-10
-1.35395733e-13
7.838510929e-10
-3.048036203e-13
8.510566795e-10
-5.508654079e-13
9.136500342e-10
-8.892594147e-13
9.717961845e-10
-1.336030223e-12
1.025651681e-09
-1.907311361e-12
1.075364401e-09
-2.618977474e-12
1.121073418e-09
-3.486173196e-12
1.162908536e-09
-4.523054996e-12
1.200990241e-09
-5.742426315e-12
1.235429302e-09
-7.15497449e-12
1.266326115e-09
-8.768925362e-12
1.293769968e-09
-1.058953414e-11
1.317839087e-09
-1.26180058e-11
1.338598667e-09
-1.485125566e-11
1.356100859e-09
-1.728043095e-11
1.370382415e-09
-1.989049181e-11
1.381464282e-09
-2.26585271e-11
1.389348008e-09
-2.555305202e-11
1.39401507e-09
-2.853232323e-11
1.39542227e-09
-3.154323556e-11
1.393499634e-09
-3.452026374e-11
1.388145495e-09
-3.738444737e-11
1.37922246e-09
-4.004373652e-11
1.366552761e-09
-4.23934885e-11
1.349913427e-09
-4.431958714e-11
1.329032927e-09
-4.570240336e-11
1.30358835e-09
-4.642416008e-11
1.273205322e-09
-4.63774972e-11
1.237461011e-09
-4.547675841e-11
1.195890627e-09
-4.366918025e-11
1.147998114e-09
-4.094627701e-11
1.093269748e-09
-3.735296259e-11
1.031191147e-09
-3.299317713e-11
9.612650008e-10
-2.803165126e-11
8.830292638e-10
-2.269094921e-11
7.960737001e-10
-1.724423508e-11
7.000543277e-10
-1.200427359e-11
5.947034553e-10
-7.310166828e-12
4.798361538e-10
-3.513177478e-12
3.553518842e-10
-9.639840258e-13
2.212291382e-10
7.750102734e-11
2.455229043e-15
5.764800152e-11
9.21383511e-15
1.686746295e-10
1.839200659e-14
2.734742645e-10
2.667672845e-14
3.72279675e-10
2.903926253e-14
4.653153344e-10
1.889091433e-14
5.527971853e-10
-1.204759523e-14
6.349328001e-10
-7.345247638e-14
7.119213825e-10
-1.763202737e-13
7.839539607e-10
-3.328286059e-13
8.512131878e-10
-5.561014297e-13
9.13873307e-10
-8.599686877e-13
9.721000518e-10
-1.258740812e-12
1.026050453e-09
-1.766909095e-12
1.075872569e-09
-2.398791416e-12
1.121705301e-09
-3.168250284e-12
1.163677995e-09
-4.088354612e-12
1.201910345e-09
-5.170941311e-12
1.236511889e-09
-6.425880084e-12
1.267581053e-09
-7.860964459e-12
1.295205052e-09
-9.480923965e-12
1.319459047e-09
-1.128693617e-11
1.340404679e-09
-1.327577612e-11
1.358089699e-09
-1.543896187e-11
1.3725456e-09
-1.776174468e-11
1.383787065e-09
-2.022210856e-11
1.391808372e-09
-2.278952532e-11
1.396582487e-09
-2.542409926e-11
1.398056844e-09
-2.807506972e-11
1.396150604e-09
-3.068065663e-11
1.390751082e-09
-3.316716511e-11
1.381708969e-09
-3.545003357e-11
1.36883563e-09
-3.743497629e-11
1.35189837e-09
-3.902142436e-11
1.330619375e-09
-4.01069518e-11
1.304673878e-09
-4.059403874e-11
1.273692409e-09
-4.039777235e-11
1.237264745e-09
-3.945508845e-11
1.194947944e-09
-3.773334863e-11
1.146276375e-09
-3.523863303e-11
1.090775032e-09
-3.202167979e-11
1.027974194e-09
-2.818107194e-11
9.57424393e-10
-2.386335469e-11
8.787115466e-10
-1.925979206e-11
7.914701375e-10
-1.460007194e-11
6.953946075e-10
-1.014359462e-11
5.902469779e-10
-6.169247306e-12
4.758618064e-10
-2.964532761e-12
3.521471698e-10
-8.151708976e-13
2.190797759e-10
7.668585617e-11
6.157723378e-16
5.764738574e-11
2.146685915e-15
1.686730986e-10
3.421038106e-15
2.734729901e-10
2.035162638e-15
3.722810609e-10
-5.959630762e-15
4.653233292e-10
-2.595075208e-14
5.528171764e-10
-6.484617085e-14
6.349716956e-10
-1.308618793e-13
7.119873982e-10
-2.333900062e-13
7.840564888e-10
-3.829275275e-13
8.513627253e-10