/*--------------------------------*- C++ -*----------------------------------*\
  =========                 |
  \\      /  F ield         | OpenFOAM: The Open Source CFD Toolbox
   \\    /   O peration     | Website:  https://openfoam.org
    \\  /    A nd           | Version:  7
     \\/     M anipulation  |
\*---------------------------------------------------------------------------*/
FoamFile
{
    version     2.0;
    format      ascii;
    class       volScalarField;
    location    "0.0012";
    object      T;
}
// * * * * * * * * * * * * * * * * * * * * * * * * * * * * * * * * * * * * * //

dimensions      [0 0 0 1 0 0 0];

internalField   nonuniform List<scalar> 
1167
(
450.1701404
450.4739221
450.6139389
450.9142719
451.3582196
451.9363142
452.6401098
453.4617897
454.3935417
455.4276978
456.5568321
457.7734904
459.0703241
460.4397651
461.8746191
463.3675923
464.911508
466.4993161
468.1241132
469.7787577
471.4570604
473.1525483
474.8587964
476.5703107
478.2814039
479.9867068
481.6813771
483.3609708
485.0211965
486.6582113
488.2688259
489.8497545
491.398567
492.9128759
494.3908003
495.8308476
497.2319571
498.592997
499.9136862
501.1936782
502.4327812
503.631399
504.7899856
505.9091192
506.98959
508.0323516
509.0386257
510.0095898
510.9466976
511.8512856
512.7247941
450.7775886
450.9120196
451.2003488
451.6264556
452.1817362
452.857735
453.6472787
454.5429961
455.5377225
456.6245
457.7963949
459.0466055
460.3682011
461.7544681
463.1988954
464.6945775
466.2354872
467.8147742
469.4264275
471.0644029
472.7225681
474.3954512
476.0775597
477.7633859
479.4482322
481.1274174
482.7961864
484.4507125
486.0871874
487.7019166
489.2920022
490.8544041
492.386732
493.8866128
495.3522539
496.7819966
498.1747032
499.5289005
500.8441682
502.1198608
503.3553778
504.5507909
505.7061475
506.8216506
507.8977257
508.9350914
509.9345208
510.8971029
511.8239772
512.7166033
451.0810741
451.2087656
451.4825583
451.8876407
452.4153531
453.0582977
453.8092538
454.661585
455.6086625
456.6440365
457.7613286
458.9543131
460.21682
461.5424951
462.9255919
464.3600377
465.8400674
467.3599018
468.9138115
470.4963916
472.1024618
473.7264916
475.3638993
477.0097903
478.659498
480.3089326
481.9538018
483.5903262
485.2151107
486.8245704
488.4159126
489.9863004
491.5331415
493.0542911
494.5474801
496.0112109
497.4436561
498.8434537
500.2093799
501.5399466
502.834296
504.0912796
505.3096792
506.4885134
507.6268757
508.7240356
509.7795124
510.7933358
511.7660791
512.6989962
451.384325
451.5043421
451.7618661
452.1429366
452.63917
453.2441335
453.9509245
454.7533415
455.6453981
456.6211591
457.6747982
458.8006521
459.9932076
461.2468274
462.5560089
463.9157066
465.3206367
466.7655658
468.2456498
469.7557438
471.2914755
472.8479926
474.4210326
476.0064225
477.5999282
479.1980167
480.7968046
482.3931236
483.9837406
485.5657465
487.1367457
488.6939526
490.2357094
491.7598003
493.2648249
494.7491847
496.2120171
497.6520069
499.0685646
500.4606156
501.8274692
503.1681464
504.4810271
505.7646272
507.0164675
508.2332354
509.4109656
510.5448891
511.629682
512.6601228
451.6851339
451.795953
452.0337845
452.3854938
452.8439302
453.4027364
454.0559465
454.7976202
455.6225224
456.5252788
457.5006518
458.5435624
459.6491078
460.8124157
462.0287089
463.2932578
464.6015219
465.9492776
467.3319342
468.7452376
470.1853287
471.6479141
473.129555
474.6261523
476.1347276
477.6514082
479.173567
480.6978951
482.2220031
483.7430697
485.2592481
486.7683119
488.2688944
489.7594127
491.239185
492.7072822
494.1637988
495.6085589
497.0426146
498.4666834
499.8824222
501.2916559
502.6963902
504.0990761
505.501391
506.9047707
508.3087448
509.7103929
511.1032588
512.4756092
451.9320106
452.0407282
452.273637
452.6180427
453.0671145
453.6142853
454.2541076
454.9807166
455.788937
456.6736672
457.6298412
458.6525726
459.7371334
460.8788284
462.0730758
463.3153089
464.6012432
465.9267863
467.2875616
468.6794156
470.098697
471.541261
473.0037207
474.4822863
475.9738293
477.4749136
478.9827154
480.4943198
482.0072552
483.5190369
485.0278687
486.5317879
488.0296441
489.5200825
491.0026606
492.4767735
493.9424849
495.4000308
496.849992
498.2930765
499.72975
501.1608418
502.5860991
504.005557
505.4181163
506.8227146
508.2188993
509.6085243
510.9998081
512.4115211
452.1147057
452.2236828
452.4572249
452.8027012
453.2530193
453.8017479
454.4432975
455.1721532
455.9827843
456.8702354
457.8294741
458.8556452
459.9440242
461.0899035
462.2885758
463.5356867
464.8269767
466.1582095
467.5247826
468.9229794
470.3487014
471.7981083
473.2675772
474.7533728
476.2524589
477.7612929
479.2772549
480.7974499
482.3195658
483.8412721
485.3608865
486.8767555
488.3876946
489.8927342
491.3912612
492.8827865
494.3670829
495.8439617
497.3132873
498.7743961
500.2266616
501.6683522
503.0977941
504.5119664
505.9081336
507.2830626
508.6340052
509.9593471
511.2577879
512.5272595
452.2972131
452.406726
452.641539
452.9888718
453.441376
453.9930083
454.6377343
455.3702725
456.1852411
457.0773455
458.0416354
459.073293
460.1675399
461.319492
462.5246695
463.7786289
465.0770246
466.4152548
467.7892212
469.1948613
470.627919
472.0849466
473.561801
475.0553824
476.5621063
478.0791062
479.6032253
481.1323116
482.6635566
484.195331
485.7255306
487.2530363
488.7762756
490.2945312
491.8066952
493.3120289
494.8095109
496.2982366
497.7765776
499.2427452
500.6940609
502.1277724
503.5399515
504.9272638
506.2858886
507.6125898
508.9053298
510.1626911
511.3840693
512.569891
452.4797294
452.5897407
452.8256467
453.1745625
453.6289681
454.1830819
454.8305666
455.5662447
456.3847295
457.2807774
458.2493002
459.285414
460.3843055
461.5411848
462.7514563
464.0106135
465.3141316
466.6575985
468.0369116
469.4476837
470.8861906
472.3485595
473.8310415
475.3303687
476.8432005
478.3665882
479.8977129
481.434132
482.9736001
484.513993
486.0537749
487.5911486
489.1249873
490.6536246
492.1761241
493.6904373
495.1953117
496.6882381
498.167051
499.6281631
501.0685668
502.4841092
503.8712018
505.2263499
506.5464066
507.8296638
509.0753737
510.2836181
511.455775
512.5934196
452.6623298
452.772721
453.0094606
453.3594024
453.8153936
454.3712001
455.0209107
455.7588839
456.5799092
457.4787049
458.450166
459.4893632
460.5914242
461.7515422
462.9651061
464.2274984
465.5342247
466.8810678
468.2637044
469.677911
471.1201224
472.5861583
474.0728224
475.5764383
477.0941832
478.6227275
480.159782
481.7024138
483.2488119
484.7965752
486.3440991
487.8894714
489.4309823
490.9669033
492.4951643
494.0136158
495.5195647
497.0103034
498.4822641
499.9319713
501.3555808
502.7494203
504.1103807
505.435595
506.7235477
507.9735512
509.1859303
510.3615005
511.5019308
512.6086175
452.8450245
452.9556914
453.1929889
453.5436649
454.0007964
454.5577468
455.2089566
455.9485142
456.7711865
457.6717219
458.6450037
459.6860704
460.7900134
461.9520352
463.1675182
464.4316939
465.7404592
467.0894268
468.4741054
469.8907634
471.3354755
472.8044415
474.2942742
475.8015264
477.3232324
478.8563294
480.3982636
481.9464539
483.4985518
485.0525284
486.6060584
488.1574065
489.7039799
491.2439351
492.7743469
494.2926151
495.7954034
497.279497
498.7409717
500.176442
501.5819682
502.9547941
504.2922197
505.592512
506.8549519
508.0795236
509.2669408
510.4184188
511.5355351
512.6196491
453.0278156
453.1386766
453.3761954
453.7274879
454.1853583
454.7430499
455.3950842
456.1357485
456.9593727
457.8608866
458.8351772
459.877269
460.9822368
462.145309
463.3616899
464.6270538
465.9370924
467.2873227
468.6735201
470.0919833
471.5385632
473.0098943
474.5022429
476.0126049
477.5375888
479.074576
480.6205823
482.1733199
483.7299428
485.2884912
486.8463283
488.4011759
489.9504183
491.4912533
493.0207175
494.5353479
496.0319161
497.5065461
498.9557464
500.3759697
501.7641086
503.1177933
504.4348786
505.714583
506.9565882
508.161235
509.3293792
510.4623489
511.5615343
512.6282013
453.2106356
453.3215067
453.5593003
453.9110062
454.3691733
454.9274608
455.579941
456.3210979
457.145402
458.04741
459.0222113
460.0648262
461.1702996
462.3337652
463.5507701
464.8168643
466.1277291
467.4787319
468.8660827
470.2857884
471.7339435
473.2071284
474.7015725
476.2144433
477.7421749
479.2822153
480.8315628
482.3876223
483.9477046
485.5092122
487.0696344
488.6259018
490.1754524
491.7147296
493.2406775
494.74947
496.2378071
497.7017702
499.1381736
500.5435695
501.9156485
503.2522803
504.552037
505.8144995
507.0396392
508.2279035
509.3803362
510.4981587
511.5826905
512.635151
453.3934152
453.5043781
453.7423692
454.0943562
454.5526512
455.1113332
455.7640307
456.5054147
457.3299462
458.2322944
459.2073575
460.2501645
461.3557947
462.5195549
463.7369046
465.0034413
466.3146657
467.6663121
469.0544964
470.4750532
471.9244738
473.3989754
474.8951981
476.4099162
477.9399193
479.4822008
481.0340541
482.5923625
484.15461
485.7175818
487.278741
488.8346746
490.3823604
491.9182848
493.4387776
494.9403078
496.4192167
497.8720944
499.2956965
500.6872226
502.0446551
503.3661491
504.6508998
505.8986258
507.109487
508.2839548
509.423188
510.5282927
511.6005091
512.6410086
453.5762868
453.6873202
453.9254598
454.2775043
454.7359897
455.2947985
455.9477521
456.6892321
457.5138482
458.4162848
459.391435
460.434315
461.5400293
462.7039083
463.9214137
465.1881496
466.4995323
467.8516062
469.2402712
470.6614797
472.1118367
473.5872818
475.0848437
476.6008924
478.1325422
479.6763168
481.2296993
482.7892728
484.3522682
485.9154962
487.475797
489.0298739
490.5741144
492.1052007
493.6189937
495.1123319
496.581324
498.0230923
499.4343775
500.8129887
502.1571038
503.4651109
504.7366618
505.9715364
507.1699808
508.3325112
509.4603031
510.554381
511.6159258
512.6460743
453.759247
453.8703409
454.1086061
454.4606082
454.9193078
455.4781487
456.1313416
456.8728516
457.6974801
458.5999251
459.5750733
460.6179276
461.7236165
462.8874916
464.1050144
465.3716416
466.6831602
468.0354631
469.4242891
470.8459841
472.2968214
473.773006
475.2713622
476.7883392
478.320848
479.8655627
481.419488
482.9794168
484.5420192
486.1042498
487.6623849
489.2132313
490.7528572
492.2778922
493.7842911
495.2688044
496.7278559
498.1587277
499.5583064
500.9249082
502.2567716
503.5527255
504.8124925
506.0359618
507.2233844
508.3754066
509.4930955
510.5774359
511.6295534
512.6505531
453.9422893
454.0534387
454.2916497
454.6437642
455.1026572
455.6615046
456.3147248
457.056411
457.8810106
458.7834158
459.758505
460.8012667
461.9068519
463.0706317
464.287927
465.5544598
466.8659696
468.2182613
469.6071214
471.0290665
472.4800625
473.9566828
475.4553575
476.9728209
478.5055751
480.0505371
481.6041784
483.1635087
484.7247064
486.2847313
487.8397419
489.3862115
490.9204062
492.4386015
493.9371352
495.4125643
496.8617745
498.2819864
499.6706017
501.0260256
502.3466361
503.6316219
504.8807317
506.0939227
507.2714283
508.4139985
509.5225978
510.5981751
511.6418098
512.6545808
454.125405
454.2365037
454.4747096
454.8269778
455.2859024
455.8448906
456.4980986
457.2398569
458.0645047
458.9668361
459.9418255
460.9844448
462.0898657
463.2533671
464.4704196
465.7367993
467.0481768
468.4001905
469.7890242
471.2109393
472.6618866
474.1386124
475.6372043
477.1546625
478.6870895
480.231541
481.7842177
483.341943
484.9010053
486.4578689
488.0089072
489.5501944
491.0782748
492.5891344
494.0795106
495.5458084
496.9853565
498.3953185
499.7735571
501.1185368
502.4287349
503.703639
504.9429955
506.1468025
507.3152629
508.4492133
509.5495213
510.6171034
511.6529969
512.6582573
454.3083954
454.4195164
454.6578293
455.0102449
455.46914
456.0283097
456.6814907
457.4231982
458.2478745
459.1502126
460.1250698
461.1674879
462.2725863
463.435795
464.6526217
465.9187582
467.2298129
468.5814996
469.9701392
471.3916968
472.8424573
474.3188029
475.8170936
477.3339099
478.8656221
480.4088424
481.9599641
483.5153408
485.0714956
486.6244411
488.1707755
489.7062889
491.2276967
492.7309806
494.2130031
495.6702968
497.1004258
498.5005543
499.8689582
501.2040822
502.5046285
503.7701816
505.0005174
506.1956132
507.3557695
508.4817591
509.5744064
510.6345989
511.6633368
512.6616553
454.4914124
454.602584
454.8410008
455.1935106
455.6524164
456.2116897
456.8648995
457.6065423
458.4311358
459.3333593
460.3080743
461.3502525
462.4551087
463.6180367
464.8345749
466.100388
467.4109175
468.7622607
470.1505449
471.5715455
473.0218684
474.4975151
475.9951415
477.5108718
479.0413552
480.5827746
482.1317203
483.6841018
485.2366107
486.7851052
488.3260454
489.8554617
491.3698025
492.8653908
494.3389685
495.7874526
497.2083759
498.5991276
499.958185
501.2839832
502.5754999
503.8323069
505.0542216
506.2411886
507.3936017
508.5121618
509.5976562
510.650946
511.6729984
512.6648304
454.6744772
454.7856982
455.0242159
455.3766607
455.8357243
456.3949583
457.0483197
457.7898848
458.6143795
459.5164683
460.4909895
461.5329275
462.6375071
463.8001092
465.0163013
466.2815799
467.5916282
468.9425057
470.3301054
471.750535
473.2001254
474.6748255
476.1714073
477.6856592
479.214381
480.7535394
482.2996136
483.8485918
485.3968379
486.9404563
488.4755769
489.998561
491.5056217
492.9934245
494.4586043
495.8984445
497.3103967
498.6921879
500.0423344
501.359291
502.6422789
503.8908439
505.1048317
506.2841484
507.4292714
508.5408327
509.6195846
510.6663652
511.6821118
512.6678255
454.8575818
454.9688507
455.2074024
455.5598404
456.0190547
456.5782404
457.2316502
457.9732199
458.7976005
459.6995366
460.6738424
461.7155142
462.8197847
463.9820191
465.1977606
466.4624323
467.7719593
469.1222521
470.509017
471.9286835
473.3771802
474.8507746
476.3458174
477.8583675
479.3847949
480.9213213
482.464031
484.0091492
485.5526881
487.0910315
488.6200108
490.1363267
491.6359804
493.1159761
494.5728494
496.0042313
497.4074882
498.7806576
500.122279
501.4308119
502.7056956
503.9464407
505.1529084
506.3249718
507.4631767
508.5680914
509.6404363
510.6810286
511.6907787
512.6706738
455.0407182
455.1520309
455.3904767
455.7430407
456.2023408
456.7615266
457.4148597
458.156533
458.980792
459.8825584
460.8566287
461.8980097
463.0019397
464.1637519
465.3788639
466.6429983
467.9519126
469.3013521
470.6872832
472.1059989
473.5531744
475.0253902
476.518579
478.0290704
479.5528132
481.0862957
482.6252293
484.1660729
485.7045577
487.2372282
488.7599136
490.2692856
491.7615843
493.2337239
494.6824898
496.1056054
497.5004293
498.8652849
500.1986725
501.4991919
502.7663331
503.9996135
505.1988597
506.3640399
507.4956335
508.5941915
509.6604048
510.695072
511.6990796
512.6734019
494.7881785
496.2031687
497.5898568
498.9466771
500.2721063
501.5649498
502.8246575
504.0507734
505.2430868
506.4016548
507.5268922
508.619334
509.6796436
510.7086035
511.7070781
512.6760306
)
;

boundaryField
{
    front_top
    {
        type            wedge;
    }
    front_middle
    {
        type            wedge;
    }
    front_bottom
    {
        type            wedge;
    }
    back_top
    {
        type            wedge;
    }
    back_middle
    {
        type            wedge;
    }
    back_bottom
    {
        type            wedge;
    }
    axis_top
    {
        type            symmetryPlane;
    }
    axis_middle
    {
        type            symmetryPlane;
    }
    axis_bottom
    {
        type            symmetryPlane;
    }
    wall_top
    {
        type            convectiveRadiativeHeatFlux;
        mode            convectiveRadiative;
        kappaMethod     fluidThermo;
        kappa           none;
        alphaAni        Anialpha;
        h               nonuniform 0();
        Ta              constant 513.15;
        emissivityNozzle 0.95;
        emissivityFilament 0.95;
        dNozzle         2;
        dFilament       1.65;
        refValue        nonuniform 0();
        refGradient     nonuniform 0();
        valueFraction   nonuniform 0();
        value           nonuniform 0();
    }
    wall_middle
    {
        type            fixedValue;
        value           uniform 513.15;
    }
    wall_bottom
    {
        type            fixedValue;
        value           uniform 513.15;
    }
    inlet
    {
        type            fixedValue;
        value           nonuniform 0();
    }
    outlet
    {
        type            zeroGradient;
    }
    procBoundary2to1
    {
        type            processor;
        value           nonuniform List<scalar> 
51
(
455.2237972
455.3350336
455.5735684
455.9262524
456.3854865
456.9448078
457.5980551
458.3396274
459.1639306
460.0655258
461.039341
462.0804064
463.1839282
464.3451474
465.5597438
466.8232704
468.1314803
469.4799214
470.8648976
472.2823413
473.7281126
475.1986441
476.6897291
478.1977874
479.7185496
481.248534
482.7834314
484.3195386
485.8528064
487.3795092
488.8957837
490.3981028
491.8830395
493.3473559
493.3473559
494.8904602
496.2974733
497.6762938
499.02533
500.3430683
501.6285049
502.8810442
504.1002511
505.2858754
506.4380589
507.5571536
508.6436797
509.6982754
510.7217091
511.714825
512.6785767
)
;
    }
    procBoundary2to3
    {
        type            processor;
        value           nonuniform List<scalar> 
51
(
449.8660132
450.314609
450.314609
450.6244542
451.0826308
451.6788901
452.4048223
453.2519794
454.2122112
455.2773964
456.4396982
457.6912002
459.0240615
460.4302315
461.9019418
463.431368
465.0109327
466.6329092
468.2900293
469.9748509
471.6805029
473.4003139
475.127851
476.8568753
478.5818076
480.2973488
481.9984237
483.6805326
485.3397819
486.9724211
488.5752369
490.1457289
491.6811904
493.1800885
494.6405386
496.061843
497.4429111
498.7834279
500.0833244
501.3424648
502.5613422
503.740533
504.8807903
505.9829443
507.0480003
508.0770551
509.0714074
510.0322213
510.9608787
511.8585948
512.7267359
)
;
    }
}


// ************************************************************************* //
