/*--------------------------------*- C++ -*----------------------------------*\
  =========                 |
  \\      /  F ield         | OpenFOAM: The Open Source CFD Toolbox
   \\    /   O peration     | Website:  https://openfoam.org
    \\  /    A nd           | Version:  7
     \\/     M anipulation  |
\*---------------------------------------------------------------------------*/
FoamFile
{
    version     2.0;
    format      ascii;
    class       volScalarField;
    location    "0.0012";
    object      thermo:mu;
}
// * * * * * * * * * * * * * * * * * * * * * * * * * * * * * * * * * * * * * //

dimensions      [1 -1 -1 0 0 0 0];

internalField   nonuniform List<scalar> 
1167
(
94363.84901
92021.78885
90965.2414
88746.47789
85581.68762
81656.55973
77159.20064
72271.07758
67161.40276
61979.25011
56849.21005
51871.30736
47120.8433
42651.44485
38495.80807
34670.70187
31179.5976
28015.89315
25165.74619
22611.06088
20329.59366
18298.5474
16494.99268
14895.8373
13479.64382
12226.37011
11117.45183
10136.02537
9267.047516
8497.038185
7813.920501
7207.227624
6667.565706
6186.809481
5757.795279
5374.251016
5030.677435
4722.363248
4445.074173
4195.186733
3969.551087
3765.349898
3580.146706
3411.816739
3258.489334
3118.519031
2990.440898
2872.983537
2765.003774
2665.512673
2573.629561
89748.3037
88762.88006
86691.72881
83733.56561
80054.23658
75827.77968
71218.45352
66381.87083
61456.08253
56557.97992
51782.63906
47202.99531
42872.2393
38824.8321
35079.58792
31644.03984
28514.1639
25680.75501
23128.11057
20837.74367
18789.71833
16962.83153
15336.38208
13890.59958
12606.33559
11466.05704
10453.90096
9555.085675
8756.495122
8046.486347
7414.500842
6851.37524
6348.900113
5899.942621
5498.152146
5138.001198
4814.587856
4523.748458
4261.66666
4025.092607
3811.20386
3617.445064
3441.607925
3281.753344
3136.165562
3003.313971
2881.858095
2770.590757
2668.450411
2574.47268
87541.57658
86632.12375
84719.12777
81978.79091
78563.12108
74624.54846
70313.96108
65770.88567
61121.51626
56474.22519
51918.46082
47524.27445
43343.75774
39413.45508
35754.21535
32376.48091
29280.83257
26461.0418
23905.79622
21599.94346
19526.15298
17666.6573
16002.50111
14515.68848
13188.90695
12005.59438
10950.71349
10010.28213
9171.542136
8423.21001
7754.920135
7157.562848
6623.039043
6144.107403
5714.476807
5328.445742
4981.134478
4668.18017
4385.756159
4130.57735
3899.6606
3690.453608
3500.732555
3328.512806
3172.044349
3029.769331
2900.290874
2782.325852
2674.692214
2576.286216
85399.74026
84569.05961
82818.3751
80305.0845
77165.00929
73529.61524
69533.891
65302.6755
60949.10604
56572.31688
52255.41887
48064.9269
44051.52094
40252.22055
36691.11257
33380.64409
30325.49986
27523.51198
24966.77549
22644.41041
20542.05607
18644.83197
16936.59066
15401.26724
14023.39088
12787.72986
11680.39932
10688.13999
9798.95849
9001.858256
8286.759709
7644.86281
7067.918076
6548.86087
6081.198587
5659.29505
5278.009722
4932.957939
4620.130315
4336.119751
4077.857837
3842.699971
3628.413808
3432.991705
3254.785058
3092.415608
2944.707331
2810.674691
2689.468639
2580.295826
83335.53272
82589.84349
81015.7325
78751.87926
75911.43211
72610.02125
68962.17048
65078.13418
61056.40078
56985.61265
52941.40808
48985.80917
45167.49817
41523.20581
38078.66315
34850.17308
31845.78341
29066.6649
26509.93153
24168.3233
22031.4498
20087.95767
18324.42093
16727.93235
15284.47626
13981.40506
12805.62283
11745.46128
10789.50114
9927.587052
9149.970689
8448.089448
7813.892915
7240.31759
6720.773366
6249.539224
5821.270586
5431.36874
5075.500979
4749.982344
4451.403415
4176.779916
3923.493208
3689.199781
3471.987509
3270.213432
3082.673735
2908.55736
2747.458279
2599.433792
81684.99103
80970.30574
79463.73353
77295.7307
74572.1705
71404.36407
67898.38208
64159.21638
60280.90103
56347.47458
52431.50327
48592.82096
44878.8678
41325.85779
37959.54876
34796.81893
31846.39002
29110.61903
26587.71944
24271.76241
22153.45211
20222.56325
18466.79608
16873.95515
15431.10596
14125.98233
12946.33413
11880.75256
10918.35244
10049.16313
9263.741442
8553.668791
7911.031825
7328.875968
6800.691135
6320.7965
5883.980732
5485.627419
5121.604363
4788.266627
4482.470696
4201.377949
3942.682757
3704.274061
3484.437654
3281.60531
3094.269484
2920.793885
2759.036229
2606.122377
80488.18251
79784.07567
78299.31771
76161.91161
73477.73434
70355.57612
66900.69581
63214.70564
59392.12759
55515.04956
51654.8972
47870.60528
44209.01978
40705.96233
37387.22013
34268.88327
31359.608
28662.10157
26174.98733
23891.61646
21803.54923
19900.21077
18169.76403
16600.06509
15178.2446
13892.29033
12729.94784
11679.97625
10731.56948
9874.856714
9100.52989
8400.211416
7766.197021
7191.54985
6669.993428
6195.94205
5764.38754
5370.904342
5011.572957
4683.043361
4382.319526
4106.930128
3854.617539
3623.544257
3411.960634
3218.323521
3041.142292
2878.919407
2730.27595
2594.058813
79313.07064
78617.60399
77150.36752
75038.50215
72388.03411
69304.12884
65893.23463
62254.38688
58480.29233
54653.6032
50844.371
47110.57207
43498.57478
40044.14059
36771.88767
33697.85851
30830.66791
28173.52045
25723.85595
23475.62315
21420.52814
19547.45034
17845.26471
16301.18357
14903.04702
13638.36734
12495.52692
11462.91988
10530.28735
9687.534758
8925.796492
8236.616428
7612.641619
7046.975367
6533.640329
6067.201833
5642.917909
5256.53367
4904.426539
4583.367763
4290.615947
4023.676595
3780.465854
3558.954904
3357.356725
3173.950844
3007.027128
2854.988986
2716.333573
2589.632793
78157.96293
77471.25135
76022.39071
73937.30143
71321.5595
68277.43897
64911.64833
61321.30844
57597.89823
53822.74329
50065.50577
46383.50609
42822.43512
39417.12637
36192.0757
33163.09196
30338.86084
27721.92759
25309.67039
23096.51973
21073.37274
19229.82838
17554.3834
16034.64309
14658.40073
13413.47345
12288.20525
11271.43863
10352.7661
9522.6059
8771.972241
8092.90417
7477.973359
6920.750927
6415.232301
5956.407847
5539.541567
5160.716357
4816.295476
4503.290301
4218.836418
3960.531023
3726.063964
3513.318505
3320.327988
3145.134058
2985.88825
2840.8748
2708.456124
2587.194064
77022.0102
76344.65934
74915.46043
72859.92927
70279.94195
67278.85466
63959.53838
60420.08869
56749.69251
53028.61116
49325.49393
45696.90934
42187.96158
38832.88586
35655.73315
32672.21502
29890.6623
27313.11658
24937.37806
22757.63355
20764.71902
18948.8267
17297.99732
15800.55278
14444.029
13216.84823
12107.18354
11104.46755
10198.21118
9379.186918
8638.589763
7968.625566
7362.18164
6812.873484
6315.07509
5863.735887
5454.444188
5083.198923
4746.564863
4441.377581
4164.82406
3914.307458
3687.382731
3481.819905
3295.438266
3126.211316
2972.243274
2831.830465
2703.400554
2585.620328
75904.79709
75237.29126
73829.0651
71804.21219
69261.70643
66305.51139
63035.00317
59548.12536
55932.67731
52267.44569
48619.9867
45046.03389
41590.02629
38285.55843
35156.26864
32217.91802
29477.8073
26938.39353
24597.81328
22449.58748
20485.34171
18694.98879
17067.09579
15590.00534
14251.6717
13040.54126
11945.24146
10955.17098
10060.36942
9251.534848
8520.344487
7858.977135
7260.712784
6719.180137
6228.991816
5785.145954
5383.309071
5019.499474
4690.258101
4392.315365
4122.820239
3878.982281
3658.305974
3458.42719
3277.123944
3112.364915
2962.293961
2825.24326
2699.727159
2584.478754
74805.96798
74148.62992
72762.96401
70768.85792
68265.25115
65354.99522
62135.33318
58701.6691
55142.34936
51533.93581
47942.82191
44423.85367
41020.7785
37766.56227
34684.91227
31790.27886
29090.46814
26588.13889
24281.0529
22162.94052
20225.98201
18459.78006
16853.60831
15395.61515
14074.43646
12878.37585
11796.62155
10818.54994
9934.661371
9135.712485
8413.611797
7760.80695
7170.573515
6636.859641
6154.212697
5717.816841
5323.218067
4966.531997
4644.135023
4352.76564
4089.404002
3851.225078
3635.692154
3440.363418
3263.044795
3101.740313
2954.653764
2820.172197
2696.889359
2583.594194
73725.5831
73079.30173
71715.45943
69752.65746
67289.52183
64424.91295
61256.71337
57877.6464
54373.97463
50822.52033
47287.66426
43823.36224
40472.74748
37268.50473
34233.09807
31381.22518
28720.70311
26254.50939
23979.77983
21890.97651
19980.16081
18237.3052
16651.98679
15212.44979
13907.74551
12726.34112
11657.63885
10691.38069
9818.089307
9028.958134
8315.866044
7671.623136
7089.450356
6563.530054
6088.373924
5659.217454
5271.574556
4921.535901
4605.395349
4319.882488
4061.855694
3828.507396
3617.249514
3425.664731
3251.595705
3093.104939
2948.436577
2816.046843
2694.582908
2582.875648
72663.69213
72027.78888
70685.81062
68754.45503
66331.87772
63512.9971
60396.22503
57071.68182
53624.16589
50128.75598
46649.50161
43239.37296
39940.662
36785.09021
33795.12239
30985.21511
28363.52772
25932.37737
23689.30077
21629.21993
19743.87357
18023.97942
16458.89754
15037.54955
13748.88038
12581.94956
11526.10179
10571.56881
9708.858826
8929.561899
8225.582573
7589.884295
7015.845432
6497.595178
6029.812985
5607.608204
5226.579345
4882.686598
4572.26312
4291.940516
4038.583581
3809.401611
3601.776674
3413.349076
3242.005233
3085.867824
2943.220837
2812.58117
2692.642214
2582.270214
71619.18357
70993.5919
69673.35328
67774.05838
65390.91637
62618.18639
59551.59973
56281.02732
52889.05529
49449.40668
46025.07683
42668.21253
39420.3641
36312.73622
33367.5141
30599.00295
28015.48914
25618.78052
23406.98822
21375.03355
19514.76521
17817.48975
16272.37429
14869
13596.22377
12443.6792
11400.7091
10457.86616
9605.880815
8836.378541
8141.588869
7514.415676
6948.460567
6437.760133
5977.135307
5561.579365
5186.769103
4848.559529
4543.335994
4267.660036
4018.432233
3792.892453
3588.420363
3402.719596
3233.727375
3079.615377
2938.712598
2809.585057
2690.964533
2581.746773
70591.75992
69976.34845
68677.58036
66810.27102
64465.70285
61738.70847
58721.42886
55504.06844
52166.8449
48782.15211
45411.95104
42107.57721
38909.8531
35849.47889
32948.3661
30220.98133
27674.79861
25312.06925
23131.29157
21126.97214
19291.67688
17616.60067
16091.39408
14705.76728
13448.95531
12310.63663
11280.63957
10349.4704
9508.263716
8748.604364
8063.015101
7444.355012
6886.356497
6383.074827
5929.311899
5520.112504
5151.103063
4818.153724
4517.67598
4246.19474
4000.674736
3778.349851
3576.661618
3393.361186
3226.44146
3074.104925
2934.736546
2806.940618
2689.482627
2581.284087
69581.14647
68975.75799
67699.02281
65862.27736
63555.68296
60873.69463
57905.75268
54739.95846
51456.61846
48126.02427
44809.12069
41556.44462
38408.10325
35394.30053
32536.9852
29849.85164
27340.51014
25011.44994
22861.19801
20884.21364
19073.69211
17420.58861
15915.22287
14547.21433
13306.34671
12182.25007
11165.25778
10245.81609
9415.413048
8665.663705
7989.180621
7378.986468
6828.754634
6332.692108
5885.50678
5482.347551
5118.76958
4790.725074
4494.578363
4226.915297
3984.746634
3765.313141
3566.120725
3384.968994
3219.90413
3069.157739
2931.165127
2804.564433
2688.150693
2580.868096
68587.08367
67992.10128
66736.7168
64929.75916
62661.23157
60022.76169
57103.42001
53988.66937
50757.9009
47480.52964
44216.07623
41014.29346
37914.58703
34946.93803
32132.60826
29485.07475
27012.09154
24716.47276
22596.20255
20646.3508
18860.29902
17229.01123
15743.37781
14392.93643
13167.98729
12058.17837
11054.15015
10146.54287
9326.848235
8586.992494
7919.520187
7317.661585
6775.017025
6285.939156
5845.057203
5447.626964
5089.152138
4765.6743
4473.529196
4209.371011
3970.263236
3753.461547
3556.536284
3377.33486
3213.953858
3064.652085
2927.910571
2802.397903
2686.935674
2580.488444
67610.32012
67025.15355
65790.13398
64012.45309
61781.57995
59185.63836
56314.06424
53249.91605
50070.80495
46845.37813
43632.52214
40480.87689
37429.33284
34506.99803
31734.81129
29126.32728
26689.36359
24426.61518
22335.98773
20413.14664
18651.19796
17041.74825
15575.56866
14242.78004
13033.58654
11938.11855
10946.97687
10051.18391
9242.159298
8512.120688
7853.554243
7259.861825
6724.628537
6242.269027
5807.439527
5415.430809
5061.763469
4742.556904
4454.13255
4193.227418
3956.932149
3742.551762
3547.710045
3370.307061
3208.467429
3060.495214
2924.906414
2800.39723
2685.813282
2580.137616
66649.7167
66074.03668
64859.0263
63110.34923
60916.23234
58362.39232
55537.45411
52523.03383
49395.04754
46221.00877
43058.79173
39956.43913
36951.92969
34074.04698
31343.37734
28773.39022
26372.13795
24141.65718
22080.33875
20184.23224
18446.18134
16858.42589
15411.587
14096.38159
12902.90284
11821.73794
10843.44696
9959.413875
9161.026687
8440.653567
7790.903642
7205.143428
6677.130323
6201.229405
5772.213929
5385.343536
5036.233352
4721.027792
4436.084692
4178.217758
3944.533008
3732.40148
3539.493994
3363.761395
3203.353708
3056.618376
2922.103136
2798.529476
2684.765039
2579.809844
65704.86256
65138.50214
63943.15137
62223.70901
60064.96113
57553.07766
54773.37842
51807.82281
48730.08473
45606.56572
42494.22858
39440.2712
36482.03834
33647.9149
30958.1391
28426.35776
26060.06533
23861.44888
21829.34774
19959.45084
18245.14924
16678.8727
15251.2839
13953.55444
12775.77085
11708.80517
10743.3863
9870.939955
9083.119305
8372.240937
7731.141634
7153.123824
6632.114971
6162.442563
5738.999877
5357.027769
5012.25043
4700.812732
4419.146113
4164.131432
3932.893625
3722.868528
3531.772812
3357.60579
3198.541522
3052.967948
2919.462221
2796.769159
2683.776747
2579.500718
64775.50799
64218.30458
63042.57945
61351.53978
59227.54743
56756.88193
54022.01843
51104.09184
48075.73745
45001.8782
41938.58184
38932.21783
36019.51213
33228.46037
30579.06386
28084.92624
25753.02077
23585.86802
21582.64362
19738.69066
18048.06371
16502.95964
15094.6349
13814.13213
12652.02974
11599.11006
10646.47619
9785.496657
9008.109078
8306.572625
7673.945084
7103.474341
6589.25689
6125.593561
5707.500282
5330.209386
4989.55618
4681.693304
4403.127514
4150.807531
3921.879421
3713.842195
3524.45738
3351.769185
3193.975671
3049.502323
2916.953732
2795.096406
2682.837283
2579.206771
63861.40634
63313.21231
62157.42112
60493.61725
58404.03519
55973.6049
53283.25545
50411.68578
47431.83538
44406.7862
41391.70127
38432.13929
35564.2212
32815.59294
30206.2161
27748.88936
25450.90364
23315.04416
21340.13298
19521.85555
17854.67975
16330.57482
14941.36746
13677.97178
12531.43862
11492.45706
10552.48697
9702.850389
8935.735673
8243.411043
7619.032542
7055.954469
6548.281025
6090.442079
5677.468854
5304.663743
4967.949971
4663.493543
4387.887089
4138.117783
3911.383445
3705.234671
3517.482851
3346.195304
3189.612443
3046.188569
2914.553998
2793.495535
2681.93789
2578.925279
5648.702521
5280.219811
4947.268747
4646.07137
4373.298207
4125.959648
3901.320506
3696.9762
3510.786106
3340.839567
3185.417238
3043.000618
2912.244273
2791.954107
2681.071613
2578.654073
)
;

boundaryField
{
    front_top
    {
        type            wedge;
    }
    front_middle
    {
        type            wedge;
    }
    front_bottom
    {
        type            wedge;
    }
    back_top
    {
        type            wedge;
    }
    back_middle
    {
        type            wedge;
    }
    back_bottom
    {
        type            wedge;
    }
    axis_top
    {
        type            symmetryPlane;
    }
    axis_middle
    {
        type            symmetryPlane;
    }
    axis_bottom
    {
        type            symmetryPlane;
    }
    wall_top
    {
        type            calculated;
        value           nonuniform 0();
    }
    wall_middle
    {
        type            calculated;
        value           uniform 2530.329233;
    }
    wall_bottom
    {
        type            calculated;
        value           uniform 2530.329233;
    }
    inlet
    {
        type            calculated;
        value           nonuniform 0();
    }
    outlet
    {
        type            calculated;
        value           nonuniform 0();
    }
    procBoundary2to1
    {
        type            processor;
        value           nonuniform List<scalar> 
51
(
62962.7096
62423.9352
61286.75786
59649.71954
57594.57976
55203.046
52556.42281
49731.12175
46798.26829
43821.1404
40853.4494
37939.91036
35116.14065
32409.54673
29839.20563
27418.15869
25153.63168
23048.70646
21101.73822
19309.02925
17664.91004
16161.66438
14791.36925
13544.97871
12413.83939
11388.72463
10461.21785
9622.840982
8865.766425
8182.500115
7566.159423
7010.283464
6508.953682
6056.752555
6056.752555
5621.03301
5256.723324
4927.379378
4629.311442
4359.257012
4114.250554
3891.622198
3689.010879
3504.322157
3335.666329
3181.362402
3039.917645
2910.009586
2790.462199
2680.232905
2578.391427
)
;
    }
    procBoundary2to3
    {
        type            processor;
        value           nonuniform List<scalar> 
51
(
96778.71545
93241.45312
93241.45312
90886.46875
87530.42278
83377.7811
78629.63186
73483.8039
68121.6789
62702.42177
57357.51646
52191.35041
47281.23605
42680.78075
38421.44845
34517.59602
30969.43908
27767.53873
24894.5882
22329.26609
20047.04159
18022.50155
16230.42833
14646.62266
13248.0264
12013.44745
10923.69115
9961.344229
9110.769298
8358.248013
7691.62058
7100.101181
6574.472087
6106.423344
5688.936777
5315.673153
4981.307783
4681.096156
4410.92396
4167.273711
3947.006107
3747.407877
3566.111679
3401.060169
3250.445843
3112.686592
2986.379208
2870.314731
2763.408802
2664.72705
2573.429732
)
;
    }
}


// ************************************************************************* //
