/*--------------------------------*- C++ -*----------------------------------*\
  =========                 |
  \\      /  F ield         | OpenFOAM: The Open Source CFD Toolbox
   \\    /   O peration     | Website:  https://openfoam.org
    \\  /    A nd           | Version:  7
     \\/     M anipulation  |
\*---------------------------------------------------------------------------*/
FoamFile
{
    version     2.0;
    format      ascii;
    class       volScalarField;
    location    "0.0012";
    object      thermo:alpha;
}
// * * * * * * * * * * * * * * * * * * * * * * * * * * * * * * * * * * * * * //

dimensions      [1 -1 -1 0 0 0 0];

internalField   nonuniform List<scalar> 
1167
(
0.0001197300962
0.0001197015793
0.0001196884395
0.0001196602639
0.0001196186369
0.0001195644706
0.0001194939868
0.0001194123699
0.0001193230703
0.0001192169394
0.0001191012374
0.0001189709425
0.0001188264
0.0001186740499
0.0001185079802
0.0001183266284
0.000118127216
0.0001179225826
0.0001177046086
0.0001174769933
0.0001172345537
0.0001169867127
0.0001167221465
0.0001164535135
0.0001161816901
0.00011589546
0.0001156055375
0.0001153154387
0.0001150160261
0.0001147168118
0.0001144129135
0.0001141088714
0.0001138037595
0.0001135060708
0.0001132048187
0.0001129035686
0.0001126043123
0.0001123141622
0.0001120261936
0.000111742695
0.0001114661595
0.000111190723
0.000110924912
0.0001106685495
0.000110413825
0.0001101662449
0.0001099196395
0.0001096809822
0.000109450944
0.0001092291651
0.0001090100887
0.0001196730853
0.0001196604751
0.0001196334367
0.0001195934982
0.0001195411905
0.0001194715863
0.0001193950378
0.0001193077229
0.0001192056571
0.0001190943093
0.0001189683873
0.0001188290412
0.0001186820042
0.0001185224282
0.0001183484434
0.0001181552088
0.0001179565529
0.00011774722
0.0001175254164
0.000117292029
0.0001170495282
0.0001167939296
0.0001165335515
0.0001162639857
0.0001159832424
0.0001157007248
0.0001154141997
0.0001151188325
0.0001148241412
0.0001145198039
0.000114218906
0.0001139108842
0.0001136094321
0.0001133082587
0.0001130059205
0.0001127003547
0.0001124032778
0.0001121115145
0.000111820057
0.0001115378678
0.0001112541115
0.0001109797554
0.0001107150158
0.0001104537312
0.0001101981891
0.0001099451062
0.0001096994225
0.000109463111
0.0001092358564
0.000109012167
0.0001196446205
0.0001196326476
0.0001196069829
0.0001195690295
0.0001195171286
0.0001194509481
0.0001193799066
0.0001192955473
0.0001191983836
0.0001190923092
0.0001189722993
0.0001188393196
0.0001186988326
0.0001185479236
0.0001183817058
0.0001181983946
0.0001180074901
0.000117809912
0.0001175959111
0.0001173752274
0.0001171401511
0.0001168976487
0.0001166439467
0.0001163815784
0.0001161164604
0.0001158414989
0.0001155587533
0.0001152740349
0.0001149810994
0.0001146853912
0.000114385194
0.0001140819461
0.0001137772793
0.0001134783023
0.0001131726886
0.0001128650135
0.0001125591463
0.0001122608279
0.000111960658
0.0001116660868
0.0001113738434
0.0001110851639
0.0001108058161
0.000110532919
0.0001102624744
0.0001099970313
0.0001097375055
0.0001094885708
0.0001092500437
0.0001090166346
0.0001196161899
0.0001196049413
0.0001195808114
0.0001195451212
0.0001194940836
0.0001194327135
0.000119366675
0.0001192861281
0.0001191946174
0.0001190946513
0.0001189819533
0.0001188564354
0.0001187236972
0.0001185834981
0.0001184260901
0.0001182557846
0.000118074445
0.0001178883133
0.000117687872
0.0001174801555
0.0001172587874
0.000117031208
0.0001167899653
0.0001165445507
0.0001162892011
0.000116024055
0.0001157575689
0.0001154833445
0.0001152030453
0.0001149179686
0.0001146264494
0.0001143328108
0.0001140327786
0.0001137326907
0.0001134359242
0.0001131313354
0.0001128220996
0.0001125147074
0.0001122129065
0.0001119049966
0.0001116025029
0.000111297123
0.0001109957544
0.0001107016267
0.0001104074392
0.0001101178382
0.0001098280834
0.0001095495429
0.0001092834708
0.0001090264986
0.0001195880002
0.0001195776181
0.0001195553422
0.0001195202036
0.000119473007
0.0001194178888
0.0001193568679
0.0001192815831
0.0001191969627
0.0001191044681
0.000119001386
0.0001188850801
0.0001187619747
0.0001186326432
0.0001184894547
0.0001183362403
0.0001181672193
0.0001179934191
0.0001178137679
0.0001176191043
0.0001174208176
0.0001172066288
0.0001169900931
0.0001167581828
0.000116524713
0.000116281259
0.0001160280437
0.00011577458
0.0001155127116
0.0001152464685
0.0001149731509
0.0001146960161
0.0001144129006
0.0001141266885
0.0001138351274
0.0001135464509
0.0001132513819
0.0001129510988
0.0001126447196
0.0001123410674
0.0001120331243
0.0001117210148
0.0001114055449
0.0001110833749
0.0001107619036
0.0001104339788
0.0001100992469
0.0001097544896
0.0001094125403
0.0001090733254
0.0001195648737
0.0001195546919
0.000119531724
0.0001194962586
0.0001194500409
0.0001193981204
0.0001193373916
0.0001192627921
0.0001191799033
0.0001190892758
0.0001189869695
0.000118872933
0.000118752181
0.0001186252661
0.0001184841214
0.0001183333888
0.0001181672553
0.0001179963168
0.0001178198858
0.0001176281619
0.0001174330425
0.0001172222329
0.000117008466
0.0001167804733
0.0001165495907
0.00011630849
0.0001160607251
0.0001158095995
0.0001155495757
0.0001152869028
0.0001150148242
0.0001147406945
0.0001144580009
0.0001141738996
0.0001138816903
0.0001135917381
0.0001132967924
0.0001129956999
0.0001126858376
0.0001123780537
0.0001120669733
0.0001117499616
0.0001114309028
0.0001111048353
0.0001107809767
0.0001104534783
0.0001101213681
0.0001097795237
0.0001094379153
0.0001090895927
0.0001195477646
0.0001195368695
0.0001195128168
0.0001194772503
0.0001194318828
0.0001193806077
0.0001193179605
0.0001192431504
0.0001191600369
0.0001190691556
0.0001189646972
0.0001188503095
0.0001187291672
0.0001186018244
0.0001184582211
0.0001183048964
0.000118138123
0.0001179665055
0.000117787183
0.0001175946499
0.0001173968708
0.0001171846582
0.0001169688569
0.0001167384751
0.0001165055675
0.0001162643085
0.0001160111289
0.0001157574579
0.0001154959674
0.0001152287485
0.0001149548492
0.0001146755364
0.0001143905114
0.0001141003957
0.0001138051972
0.0001135119798
0.000113209683
0.0001129007649
0.000112586959
0.0001122755318
0.0001119568286
0.0001116376876
0.0001113132874
0.0001109886589
0.0001106687751
0.0001103441112
0.0001100191856
0.0001096933239
0.000109374643
0.0001090602161
0.0001195292957
0.0001195180171
0.0001194938397
0.0001194580914
0.0001194142776
0.000119362745
0.0001192979959
0.0001192228286
0.0001191392939
0.0001190479624
0.000118941034
0.0001188260694
0.0001187043116
0.0001185747538
0.0001184298547
0.0001182734968
0.0001181058634
0.0001179334049
0.0001177507408
0.0001175572551
0.0001173559563
0.000117142712
0.000116923198
0.0001166917047
0.0001164548568
0.000116215298
0.0001159579687
0.0001156998835
0.0001154369479
0.0001151648808
0.0001148892101
0.000114604499
0.0001143173048
0.0001140211852
0.0001137234672
0.0001134262284
0.0001131189696
0.0001128036775
0.0001124881439
0.0001121749945
0.0001118532937
0.0001115361193
0.0001112117214
0.0001108934443
0.000110581101
0.0001102658657
0.0001099524274
0.0001096433794
0.0001093436792
0.0001090493966
0.0001195104994
0.0001194991724
0.0001194748887
0.0001194392173
0.0001193967486
0.0001193446877
0.0001192782015
0.0001192027326
0.0001191188608
0.0001190259283
0.0001189178791
0.0001188024519
0.0001186802141
0.0001185480812
0.0001184026154
0.0001182435234
0.0001180752838
0.0001179022083
0.0001177166188
0.0001175224944
0.0001173181253
0.0001171041768
0.0001168814323
0.0001166491363
0.000116408841
0.0001161669909
0.0001159099633
0.0001156480128
0.0001153837768
0.0001151074248
0.0001148301514
0.0001145406988
0.0001142516426
0.0001139504302
0.0001136508271
0.0001133485257
0.0001130394987
0.0001127203746
0.0001124049085
0.0001120895001
0.0001117703834
0.0001114543554
0.0001111356714
0.0001108249066
0.000110519155
0.0001102143411
0.0001099106014
0.0001096136844
0.0001093260995
0.0001090434255
0.0001194916994
0.0001194803361
0.0001194559729
0.0001194219389
0.0001193793331
0.0001193253648
0.0001192586677
0.0001191829838
0.0001190988746
0.0001190038354
0.0001188954887
0.0001187797509
0.0001186571959
0.0001185227801
0.0001183769618
0.0001182155097
0.0001180469075
0.0001178734508
0.000117685386
0.0001174908509
0.0001172838712
0.0001170694565
0.0001168439397
0.0001166110579
0.0001163677697
0.0001161228026
0.000115867169
0.0001156019242
0.0001153356906
0.0001150564953
0.0001147761585
0.0001144844313
0.0001141914798
0.0001138887309
0.0001135881244
0.0001132821958
0.0001129701318
0.0001126516161
0.0001123377484
0.0001120221403
0.0001117068713
0.0001113933537
0.0001110807809
0.0001107769732
0.0001104770468
0.0001101801964
0.0001098834127
0.0001095945621
0.0001093147847
0.0001090395687
0.0001194728944
0.0001194615057
0.0001194374947
0.0001194047189
0.0001193620177
0.0001193062083
0.0001192393749
0.0001191635487
0.0001190792933
0.0001189822965
0.0001188737764
0.0001187578621
0.0001186351318
0.0001184986724
0.0001183525015
0.0001181891428
0.0001180203259
0.0001178466459
0.0001176564194
0.0001174616046
0.0001172523474
0.000117037569
0.0001168096105
0.0001165762378
0.0001163318979
0.000116082516
0.0001158261268
0.000115560015
0.0001152906007
0.0001150103822
0.0001147266635
0.000114433915
0.000114137622
0.0001138341925
0.0001135332777
0.000113224957
0.0001129111464
0.0001125941685
0.000112282649
0.0001119679569
0.0001116567924
0.0001113461483
0.0001110390616
0.0001107410359
0.0001104458173
0.0001101550533
0.0001098634928
0.0001095805883
0.0001093065472
0.0001090367692
0.0001194540843
0.0001194426786
0.0001194203694
0.0001193875445
0.0001193444539
0.0001192871845
0.000119220284
0.0001191443642
0.0001190600336
0.0001189611932
0.0001188525895
0.0001187365921
0.0001186137808
0.0001184754391
0.0001183273915
0.0001181639238
0.000117994989
0.0001178199187
0.0001176289732
0.0001174339645
0.0001172226277
0.0001170075645
0.000116777381
0.0001165435948
0.0001162988192
0.0001160448893
0.0001157878784
0.0001155210677
0.0001152488374
0.000114967885
0.0001146812823
0.000114387971
0.0001140890212
0.0001137855211
0.0001134848944
0.0001131751763
0.0001128605881
0.0001125457312
0.0001122369213
0.0001119237478
0.0001116165126
0.0001113086921
0.0001110063386
0.0001107130844
0.0001104216663
0.0001101355673
0.0001098481411
0.0001095698039
0.0001093001742
0.0001090345989
0.0001194358449
0.0001194254809
0.000119403258
0.000119370403
0.000119325573
0.0001192682572
0.0001192013283
0.0001191253778
0.0001190409996
0.00011894039
0.0001188317578
0.0001187157327
0.0001185927083
0.000118452791
0.0001183029466
0.0001181394278
0.0001179704313
0.0001177935306
0.0001176024773
0.0001174060918
0.0001171940438
0.0001169782399
0.000116746499
0.0001165117948
0.0001162672574
0.0001160103198
0.0001157515915
0.0001154842885
0.0001152095462
0.0001149281453
0.0001146391186
0.0001143456298
0.0001140446559
0.000113741556
0.0001134408843
0.0001131312769
0.000112816589
0.0001125040953
0.0001121980911
0.0001118866223
0.0001115830076
0.0001112777941
0.0001109794696
0.0001106902092
0.000110401934
0.000110119151
0.0001098356133
0.0001095610134
0.0001092949886
0.0001090328353
0.00011941876
0.0001194083901
0.0001193861543
0.0001193532815
0.0001193067315
0.0001192493901
0.0001191824562
0.0001191065021
0.0001190204395
0.000118919775
0.0001188111419
0.0001186951255
0.0001185703855
0.0001184304692
0.0001182788888
0.0001181153555
0.0001179463567
0.0001177676772
0.0001175765592
0.0001173783542
0.0001171661769
0.0001169484637
0.000116716509
0.0001164797781
0.0001162367596
0.0001159777029
0.0001157167746
0.0001154491606
0.0001151722247
0.0001148906406
0.0001145996476
0.0001143063061
0.0001140038763
0.0001137015217
0.0001134001973
0.0001130921621
0.0001127778318
0.000112467779
0.000112163246
0.000111854808
0.0001115544901
0.0001112516375
0.0001109567999
0.0001106709515
0.0001103853404
0.0001101053502
0.0001098250788
0.0001095536166
0.0001092906211
0.0001090313489
0.0001194016708
0.000119391297
0.0001193690531
0.0001193349883
0.0001192879092
0.0001192305696
0.0001191636268
0.0001190876824
0.0001189999133
0.000118899265
0.0001187906502
0.0001186746557
0.0001185482202
0.0001184083257
0.0001182550472
0.0001180915304
0.0001179225548
0.0001177421454
0.0001175510107
0.0001173510396
0.0001171387805
0.0001169192446
0.0001166871432
0.0001164485063
0.0001162070596
0.000115946052
0.0001156831441
0.0001154153854
0.0001151365812
0.0001148550277
0.0001145624618
0.0001142695493
0.0001139660937
0.0001136647698
0.0001133631929
0.0001130569122
0.0001127432066
0.0001124355904
0.0001121324805
0.0001118269602
0.0001115295724
0.0001112289084
0.0001109371367
0.0001106542629
0.0001103709703
0.0001100933957
0.0001098159551
0.0001095472131
0.0001092868424
0.0001090300635
0.0001193845777
0.0001193742009
0.0001193519511
0.0001193161828
0.0001192690939
0.0001192117658
0.0001191448157
0.0001190688879
0.0001189794226
0.0001188787993
0.0001187702127
0.0001186542509
0.0001185261385
0.0001183862803
0.0001182313292
0.0001180678683
0.0001178989184
0.0001177168183
0.0001175257104
0.0001173240137
0.0001171117388
0.0001168904337
0.0001166582692
0.0001164178205
0.0001161748835
0.0001159152033
0.000115650529
0.0001153827795
0.0001151023728
0.0001148210722
0.0001145272606
0.0001142344529
0.0001139308838
0.0001136308231
0.0001133292599
0.0001130237739
0.0001127119149
0.0001124066823
0.0001121049926
0.0001118021824
0.0001115066435
0.000111208788
0.0001109197524
0.000110639518
0.0001103582854
0.0001100828355
0.0001098078944
0.0001095415543
0.0001092835024
0.0001090289269
0.0001193674814
0.0001193571021
0.0001193335353
0.0001192973769
0.0001192502802
0.0001191929662
0.0001191260306
0.0001190501043
0.0001189589485
0.0001188583555
0.0001187498034
0.0001186338817
0.0001185041047
0.0001183642939
0.000118207706
0.0001180442991
0.0001178753935
0.0001176916434
0.0001175005795
0.000117297203
0.0001170849589
0.0001168619477
0.0001166297931
0.0001163876279
0.0001161430114
0.0001158850586
0.0001156187983
0.0001153510955
0.0001150694462
0.000114787378
0.0001144938093
0.0001142003143
0.0001138978867
0.000113599239
0.0001132978902
0.0001129930189
0.0001126833221
0.0001123804167
0.000112080089
0.0001117797993
0.0001114859726
0.0001111906719
0.00011090411
0.0001106262537
0.0001103468744
0.0001100733353
0.0001098006428
0.0001095364641
0.0001092804984
0.0001090279049
0.0001193503826
0.0001193391999
0.0001193147348
0.0001192785698
0.0001192314821
0.0001191741684
0.0001191072513
0.0001190304967
0.0001189384837
0.0001188379249
0.0001187294118
0.0001186135356
0.0001184821032
0.0001183413988
0.0001181841431
0.0001180207976
0.000117851952
0.0001176665946
0.0001174755827
0.0001172705761
0.0001170583928
0.0001168337399
0.0001166016566
0.0001163579179
0.0001161117016
0.000115854818
0.0001155878744
0.0001153188742
0.0001150376789
0.0001147546605
0.0001144619106
0.0001141679588
0.000113866803
0.0001135696612
0.000113268675
0.0001129645189
0.000112656941
0.0001123562704
0.0001120572601
0.000111759324
0.0001114670901
0.000111174137
0.0001108898386
0.000110614153
0.0001103364638
0.0001100646669
0.0001097940252
0.0001095318184
0.0001092777566
0.000109026972
0.0001193318153
0.0001193204027
0.0001192959329
0.0001192597621
0.0001192126896
0.000119155372
0.0001190884749
0.0001190100305
0.0001189180381
0.0001188175043
0.0001187090338
0.0001185930467
0.0001184601426
0.0001183178102
0.0001181606238
0.0001179973511
0.0001178278485
0.0001176416374
0.0001174507004
0.0001172441192
0.0001170320165
0.0001168058087
0.00011657383
0.00011633025
0.0001160809137
0.0001158243065
0.0001155576953
0.00011528757
0.0001150069656
0.0001147231909
0.0001144313949
0.0001141371665
0.0001138373887
0.0001135417958
0.0001132412878
0.0001129378965
0.0001126323811
0.0001123338523
0.0001120361091
0.0001117403927
0.0001114496367
0.0001111588605
0.0001108766552
0.0001106025719
0.0001103268441
0.0001100566559
0.0001097879089
0.0001095275246
0.0001092752224
0.0001090261097
0.0001193130196
0.0001193016047
0.0001192771306
0.0001192409595
0.0001191938979
0.0001191365845
0.0001190697017
0.0001189895693
0.0001188976098
0.0001187971146
0.0001186886878
0.0001185710524
0.0001184382114
0.0001182942517
0.0001181371425
0.000117973953
0.0001178028788
0.000117616762
0.0001174259168
0.0001172178019
0.0001170058161
0.0001167781135
0.0001165462951
0.0001163029416
0.000116050616
0.0001157943821
0.0001155282084
0.0001152571101
0.0001149772275
0.0001146928445
0.0001144021294
0.0001141077459
0.0001138094201
0.0001135153962
0.0001132154494
0.0001129128463
0.0001126093442
0.0001123128565
0.0001120163295
0.0001117227125
0.0001114333399
0.0001111445993
0.0001108643477
0.000110591732
0.00011031786
0.0001100491726
0.0001097821948
0.0001095235126
0.0001092728545
0.000109025304
0.0001192942238
0.0001192828068
0.0001192583286
0.0001192221735
0.0001191751079
0.0001191178133
0.0001190509322
0.0001189691136
0.0001188771887
0.0001187767344
0.0001186683569
0.0001185490745
0.0001184163007
0.000118270721
0.0001181136965
0.0001179506172
0.0001177779697
0.0001175919638
0.0001173995963
0.0001171916168
0.000116979327
0.0001167506424
0.0001165188449
0.0001162759753
0.0001160213854
0.0001157650096
0.0001154993915
0.0001152274278
0.0001149483762
0.0001146635079
0.0001143739515
0.0001140795287
0.000113782694
0.0001134902535
0.0001131909134
0.0001128891177
0.0001125875757
0.0001122930375
0.0001119976776
0.0001117060504
0.0001114179856
0.000111131163
0.00011085275
0.0001105815149
0.0001103093899
0.000110042116
0.0001097768055
0.0001095197285
0.000109270621
0.000109024544
0.0001192754288
0.0001192640098
0.0001192395344
0.0001192033893
0.0001191563203
0.0001190990455
0.0001190314129
0.0001189486639
0.0001188567754
0.0001187563639
0.0001186480381
0.0001185271129
0.0001183944102
0.0001182472174
0.0001180902908
0.000117927331
0.0001177531192
0.0001175672404
0.0001173733774
0.0001171655613
0.0001169518461
0.0001167233889
0.000116490276
0.0001162493362
0.0001159935883
0.000115736157
0.0001154711777
0.0001151984617
0.0001149203192
0.0001146350791
0.0001143467396
0.0001140523685
0.000113757047
0.0001134661915
0.0001131674868
0.0001128665053
0.0001125668618
0.0001122741985
0.0001119799597
0.0001116902278
0.0001114034056
0.0001111184025
0.0001108417337
0.0001105718064
0.0001103013392
0.0001100354071
0.000109771681
0.0001095161299
0.000109268497
0.0001090238212
0.0001192566353
0.0001192452148
0.0001192207565
0.0001191846078
0.0001191375422
0.0001190802821
0.0001190109612
0.0001189282219
0.0001188363706
0.0001187360038
0.0001186277319
0.0001185051678
0.0001183725399
0.0001182237426
0.000118066937
0.0001179040875
0.000117728327
0.0001175426121
0.0001173472596
0.000117139634
0.0001169245364
0.0001166963485
0.0001164619839
0.0001162230126
0.0001159661885
0.0001157077936
0.0001154435225
0.0001151701574
0.0001148929845
0.0001146074827
0.0001143203866
0.0001140261608
0.0001137323398
0.0001134423127
0.0001131450078
0.0001128448392
0.000112547036
0.0001122561798
0.0001119630307
0.0001116751015
0.0001113894658
0.0001111061993
0.0001108312051
0.0001105625159
0.0001102936327
0.0001100289837
0.0001097667737
0.0001095126836
0.0001092664627
0.000109023129
0.0001131233422
0.0001128239904
0.000112527962
0.0001122388519
0.0001119467592
0.0001116605565
0.0001113760589
0.0001110944589
0.0001108210721
0.0001105535714
0.000110286211
0.0001100227961
0.0001097620459
0.0001095093629
0.0001092645025
0.000109022462
)
;

boundaryField
{
    front_top
    {
        type            wedge;
    }
    front_middle
    {
        type            wedge;
    }
    front_bottom
    {
        type            wedge;
    }
    back_top
    {
        type            wedge;
    }
    back_middle
    {
        type            wedge;
    }
    back_bottom
    {
        type            wedge;
    }
    axis_top
    {
        type            symmetryPlane;
    }
    axis_middle
    {
        type            symmetryPlane;
    }
    axis_bottom
    {
        type            symmetryPlane;
    }
    wall_top
    {
        type            calculated;
        value           nonuniform 0();
    }
    wall_middle
    {
        type            calculated;
        value           uniform 0.0001089022317;
    }
    wall_bottom
    {
        type            calculated;
        value           uniform 0.0001089022317;
    }
    inlet
    {
        type            calculated;
        value           nonuniform 0();
    }
    outlet
    {
        type            calculated;
        value           nonuniform 0();
    }
    procBoundary2to1
    {
        type            processor;
        value           nonuniform List<scalar> 
51
(
0.0001192378526
0.0001192264428
0.0001192019817
0.00011916583
0.0001191187833
0.000119061524
0.0001189905164
0.0001189078096
0.0001188159769
0.0001187156549
0.0001186074392
0.0001184832403
0.0001183503791
0.0001182003173
0.0001180436179
0.0001178808877
0.000117703594
0.0001175180629
0.0001173212437
0.0001171138553
0.0001168973972
0.0001166695255
0.0001164339624
0.0001161961205
0.000115939167
0.000115679907
0.0001154163872
0.0001151424827
0.0001148663071
0.0001145806307
0.000114294798
0.0001140007741
0.0001137084528
0.0001134189727
0.0001134189727
0.0001131023781
0.0001128038406
0.0001125095281
0.0001122221091
0.0001119310369
0.0001116465
0.0001113630983
0.0001110831053
0.0001108112693
0.0001105449153
0.0001102790265
0.0001100168048
0.0001097574673
0.0001095061468
0.0001092626039
0.0001090218159
)
;
    }
    procBoundary2to3
    {
        type            processor;
        value           nonuniform List<scalar> 
51
(
0.000119761328
0.000119716533
0.000119716533
0.0001196874528
0.0001196444745
0.0001195885853
0.0001195182131
0.00011943198
0.0001193416953
0.0001192323546
0.0001191132315
0.0001189801233
0.0001188315518
0.0001186751095
0.0001185046951
0.0001183183826
0.0001181143891
0.0001179053861
0.0001176817613
0.0001174500532
0.0001172018613
0.0001169482559
0.0001166804848
0.0001164066029
0.0001161298609
0.0001158434924
0.000115551092
0.0001152577542
0.0001149586493
0.0001146574724
0.0001143551746
0.0001140505151
0.0001137481534
0.0001134533307
0.0001131536084
0.0001128541919
0.0001125593052
0.0001122736086
0.0001119885929
0.0001117097731
0.0001114365953
0.0001111656669
0.0001109040966
0.0001106516519
0.0001103999476
0.0001101556389
0.0001099115769
0.0001096754233
0.0001094474651
0.0001092273742
0.000109009596
)
;
    }
}


// ************************************************************************* //
