/*--------------------------------*- C++ -*----------------------------------*\
  =========                 |
  \\      /  F ield         | OpenFOAM: The Open Source CFD Toolbox
   \\    /   O peration     | Website:  https://openfoam.org
    \\  /    A nd           | Version:  7
     \\/     M anipulation  |
\*---------------------------------------------------------------------------*/
FoamFile
{
    version     2.0;
    format      ascii;
    class       volVectorField;
    location    "0.0012";
    object      U;
}
// * * * * * * * * * * * * * * * * * * * * * * * * * * * * * * * * * * * * * //

dimensions      [0 1 -1 0 0 0 0];

internalField   nonuniform List<vector> 
1167
(
(-0.0002748806295 5.182274277e-18 -0.04032329784)
(-0.0002468559713 -1.238111037e-17 -0.04230090862)
(-0.0006455676999 -1.296279648e-17 -0.04227366339)
(-0.001021445549 -1.192452943e-17 -0.04221137745)
(-0.001408081984 -1.205614608e-17 -0.04211880461)
(-0.001793128591 -1.169175736e-17 -0.04199727018)
(-0.002173174232 -1.45500253e-17 -0.04184775784)
(-0.002548540858 -1.539325529e-17 -0.04167090587)
(-0.002919584987 -1.456533395e-17 -0.0414671345)
(-0.003286429222 -1.296481437e-17 -0.04123668062)
(-0.003649131778 -1.147397084e-17 -0.04097960362)
(-0.004007698093 -1.096321947e-17 -0.04069579523)
(-0.004362053978 -1.091769969e-17 -0.04038499235)
(-0.004712029086 -1.188605409e-17 -0.04004679027)
(-0.00505734784 -1.20138481e-17 -0.03968065769)
(-0.005397620952 -1.180545461e-17 -0.03928595275)
(-0.005732336707 -1.199485816e-17 -0.03886194227)
(-0.006060852395 -1.319724333e-17 -0.03840782084)
(-0.006382388687 -1.474382644e-17 -0.03792273533)
(-0.006696020906 -1.541476066e-17 -0.03740580696)
(-0.00700067484 -1.627328819e-17 -0.03685615935)
(-0.007295125647 -1.77206246e-17 -0.03627294338)
(-0.007577992162 -1.903409479e-17 -0.03565536367)
(-0.007847738607 -2.055566008e-17 -0.03500270536)
(-0.008102678998 -2.056312985e-17 -0.03431435753)
(-0.008340979887 -2.004071396e-17 -0.03358983339)
(-0.00856066795 -1.920761684e-17 -0.03282878746)
(-0.008759641265 -1.925511699e-17 -0.03203102439)
(-0.008935679975 -1.934308181e-17 -0.0311964985)
(-0.009086457349 -1.921501746e-17 -0.03032530344)
(-0.009209552637 -1.916568187e-17 -0.02941764498)
(-0.009302458728 -1.813929813e-17 -0.02847379585)
(-0.009362584555 -1.730783663e-17 -0.02749402859)
(-0.009387249429 -1.670109322e-17 -0.02647852019)
(-0.009373662092 -1.551069602e-17 -0.02542722699)
(-0.009318883481 -1.434958563e-17 -0.02433972522)
(-0.009219767676 -1.320545617e-17 -0.02321502133)
(-0.009072882791 -1.305161028e-17 -0.02205134887)
(-0.008874420637 -1.269379711e-17 -0.0208459758)
(-0.00862011194 -1.17335951e-17 -0.01959507617)
(-0.008305182357 -1.150312723e-17 -0.01829373816)
(-0.007924388103 -1.044288612e-17 -0.0169361575)
(-0.007472163426 -1.017788053e-17 -0.01551603901)
(-0.006942883585 -9.107151981e-18 -0.01402715022)
(-0.006331188021 -8.047053265e-18 -0.01246385705)
(-0.005632255309 -6.381978571e-18 -0.01082135954)
(-0.004841919174 -4.756286436e-18 -0.009095252537)
(-0.003956499084 -3.537623488e-18 -0.007280089662)
(-0.002971738467 -2.697983112e-18 -0.00536709594)
(-0.001879653078 -1.696726669e-18 -0.003341819442)
(-0.0006634868757 -6.076903026e-19 -0.001182598702)
(-0.0002126588104 -1.671566386e-17 -0.04411234144)
(-0.0005562056969 -1.059760701e-17 -0.04408918705)
(-0.0008803518908 -7.563197896e-18 -0.04403555621)
(-0.001214358197 -4.810246897e-18 -0.0439558988)
(-0.001547918675 -1.597440879e-18 -0.043851311)
(-0.001878273511 -4.512703242e-18 -0.04372257448)
(-0.002205878628 -8.900604573e-18 -0.04357018987)
(-0.002531230003 -1.067881056e-17 -0.04339445667)
(-0.002854614784 -1.163194228e-17 -0.04319549658)
(-0.003176258768 -1.371861932e-17 -0.04297325656)
(-0.003496340037 -1.444693345e-17 -0.04272751407)
(-0.003814967591 -1.541482181e-17 -0.04245788389)
(-0.004132168305 -1.406062479e-17 -0.04216382479)
(-0.004447880073 -1.318816858e-17 -0.04184464774)
(-0.004761945929 -1.389594334e-17 -0.04149952326)
(-0.005074104173 -1.325909473e-17 -0.04112749193)
(-0.005383982879 -1.353781683e-17 -0.04072747592)
(-0.005691091251 -1.363783275e-17 -0.04029829037)
(-0.005994808864 -1.484098669e-17 -0.03983865742)
(-0.006294379371 -1.612599369e-17 -0.03934722112)
(-0.006588897824 -1.822657561e-17 -0.03882256136)
(-0.006877300058 -2.026496222e-17 -0.03826321115)
(-0.007158352892 -2.109136629e-17 -0.03766767207)
(-0.00743063984 -2.074631254e-17 -0.037034431)
(-0.007692549512 -1.9951776e-17 -0.03636197678)
(-0.00794226495 -1.892103647e-17 -0.03564881449)
(-0.008177749864 -1.755910292e-17 -0.03489347932)
(-0.008396737193 -1.599732435e-17 -0.03409454529)
(-0.008596718752 -1.532176726e-17 -0.03325062822)
(-0.008774932688 -1.463868611e-17 -0.03236038103)
(-0.00892835081 -1.422151757e-17 -0.03142247382)
(-0.009053663103 -1.351990407e-17 -0.03043555796)
(-0.009147256021 -1.306400469e-17 -0.02939820453)
(-0.009205181499 -1.270618094e-17 -0.02830881183)
(-0.009223111744 -1.186349465e-17 -0.02716547321)
(-0.009196274197 -1.091348311e-17 -0.02596579945)
(-0.009119364561 -9.863146967e-18 -0.02470669897)
(-0.008986439808 -9.084771657e-18 -0.02338413743)
(-0.008790807858 -7.42042784e-18 -0.02199292232)
(-0.008524951433 -6.698322569e-18 -0.02052660516)
(-0.008180545921 -5.767157515e-18 -0.01897763486)
(-0.007748652902 -5.053316554e-18 -0.01733786516)
(-0.007220170886 -4.436766415e-18 -0.01559948324)
(-0.006586631054 -3.592117734e-18 -0.01375637544)
(-0.00584146519 -2.937701799e-18 -0.01180598809)
(-0.004981901813 -2.664427179e-18 -0.009751975722)
(-0.004011282492 -2.302771234e-18 -0.007608223304)
(-0.002940563067 -1.844572364e-18 -0.00540457402)
(-0.001788707883 -1.365527614e-18 -0.00319188876)
(-0.0005924259235 -2.600570502e-19 -0.001034673289)
(-0.0001743852697 8.94430474e-19 -0.0457064396)
(-0.0004563982623 -5.273481586e-18 -0.04568767475)
(-0.0007230734456 -4.961271882e-19 -0.04564364534)
(-0.0009983983098 -1.728191929e-18 -0.04557837661)
(-0.001274193141 -1.689696406e-18 -0.04549274632)
(-0.001548389872 -7.582674258e-19 -0.0453873746)
(-0.001821552253 -6.117165392e-19 -0.04526267531)
(-0.002094279678 -1.701892664e-18 -0.04511889522)
(-0.002366995352 -4.796721121e-18 -0.04495612525)
(-0.002640067615 -8.51140502e-18 -0.04477430225)
(-0.002913825101 -1.013786342e-17 -0.04457321146)
(-0.003188541097 -1.116847774e-17 -0.04435248943)
(-0.003464425162 -1.169817351e-17 -0.04411162654)
(-0.003741617929 -1.291982487e-17 -0.04384997)
(-0.004020188528 -1.278320483e-17 -0.0435667271)
(-0.004300129228 -1.335592781e-17 -0.0432609682)
(-0.004581351061 -1.374340569e-17 -0.042931632)
(-0.004863679897 -1.458860913e-17 -0.04257752752)
(-0.005146849816 -1.558430409e-17 -0.04219733868)
(-0.005430497617 -1.663208538e-17 -0.04178962664)
(-0.005714155775 -1.704110346e-17 -0.04135283146)
(-0.005997241988 -1.760909226e-17 -0.04088527391)
(-0.006279048492 -1.805306583e-17 -0.04038515463)
(-0.006558728286 -1.834665365e-17 -0.03985055355)
(-0.006835276466 -1.772476473e-17 -0.03927942811)
(-0.007107510101 -1.611582214e-17 -0.03866960963)
(-0.007374041972 -1.51084921e-17 -0.0380187995)
(-0.007633250214 -1.441157717e-17 -0.03732456462)
(-0.007883245967 -1.357867397e-17 -0.036584329)
(-0.008121832829 -1.274611219e-17 -0.03579536302)
(-0.008346462988 -1.294963653e-17 -0.03495476765)
(-0.008554188638 -1.323293925e-17 -0.03405944792)
(-0.008741602918 -1.29493544e-17 -0.03310607427)
(-0.008904773014 -1.150982064e-17 -0.03209102352)
(-0.009039156926 -1.061899806e-17 -0.0310102914)
(-0.009139500828 -9.968261609e-18 -0.02985936644)
(-0.009199707568 -9.665659704e-18 -0.02863305705)
(-0.009212668789 -9.46674101e-18 -0.02732527326)
(-0.009170062044 -9.772348972e-18 -0.02592877871)
(-0.00906212199 -8.837635886e-18 -0.02443498684)
(-0.008877431539 -7.712669818e-18 -0.02283393728)
(-0.008602817312 -7.127490625e-18 -0.0211146679)
(-0.008223453855 -6.263590842e-18 -0.01926619392)
(-0.007723216527 -6.570223452e-18 -0.01727905994)
(-0.00708509701 -5.905482875e-18 -0.01514680685)
(-0.00629116022 -4.694470876e-18 -0.01286556821)
(-0.005321241249 -3.422098496e-18 -0.01042896047)
(-0.00414907801 -2.734486369e-18 -0.007816579587)
(-0.002734655186 -1.241669877e-18 -0.004979272025)
(-0.001011052868 -4.226072929e-19 -0.001831599353)
(-0.0001344986303 -2.540577612e-18 -0.0470274952)
(-0.0003519582992 -1.320358764e-18 -0.04701273213)
(-0.0005576233641 -3.697340265e-18 -0.04697771391)
(-0.0007703237815 -3.943092755e-18 -0.04692583767)
(-0.00098394282 -4.715346707e-18 -0.04685777876)
(-0.001196976736 -7.205122351e-18 -0.04677399959)
(-0.001409947145 -7.451528988e-18 -0.04667480065)
(-0.001623399409 -6.924887504e-18 -0.0465603413)
(-0.001837730586 -6.208603778e-18 -0.04643064175)
(-0.002053281167 -6.11092308e-18 -0.0462855832)
(-0.002270348007 -6.811801384e-18 -0.04612490841)
(-0.002489173136 -7.929925592e-18 -0.04594822266)
(-0.002709938586 -9.337948122e-18 -0.04575499512)
(-0.002932764477 -8.130406682e-18 -0.04554456101)
(-0.003157708658 -6.126296225e-18 -0.04531612553)
(-0.003384768737 -5.206916909e-18 -0.04506876835)
(-0.003613884077 -6.30477316e-18 -0.0448014487)
(-0.0038449372 -7.966973866e-18 -0.04451301106)
(-0.004077758691 -9.487811084e-18 -0.04420219135)
(-0.004312130765 -1.063424043e-17 -0.0438676199)
(-0.004547790759 -1.12991709e-17 -0.04350782315)
(-0.004784433219 -1.203586866e-17 -0.04312122041)
(-0.005021708616 -1.197824945e-17 -0.0427061154)
(-0.005259220862 -1.180466677e-17 -0.04226068069)
(-0.005496515867 -1.185024013e-17 -0.04178293401)
(-0.005733067781 -1.163166308e-17 -0.04127070794)
(-0.005968256268 -1.189217904e-17 -0.04072160835)
(-0.006201335562 -1.216980146e-17 -0.04013296724)
(-0.006431396677 -1.270923663e-17 -0.03950178387)
(-0.006657316948 -1.264858251e-17 -0.0388246572)
(-0.006877701195 -1.204130028e-17 -0.03809770475)
(-0.007090806547 -1.116756024e-17 -0.03731646551)
(-0.00729445075 -1.037776022e-17 -0.03647577932)
(-0.007485898157 -9.270171544e-18 -0.03556963337)
(-0.007661711128 -9.438481404e-18 -0.03459096285)
(-0.007817558647 -9.297153708e-18 -0.03353138754)
(-0.007947961493 -8.876870984e-18 -0.03238085814)
(-0.008045950949 -8.386169805e-18 -0.03112718641)
(-0.008102609501 -7.864587281e-18 -0.02975542579)
(-0.008106463545 -7.351497821e-18 -0.02824708981)
(-0.008042711172 -7.307893275e-18 -0.02657925221)
(-0.007892323443 -6.727168913e-18 -0.02472372341)
(-0.007631152307 -6.483316117e-18 -0.02264681629)
(-0.007229402105 -5.867580704e-18 -0.02031065695)
(-0.006652405515 -5.149764868e-18 -0.01767750053)
(-0.005864988958 -4.296442952e-18 -0.01471938963)
(-0.00484275908 -4.14856169e-18 -0.01143925651)
(-0.003589200393 -3.211233941e-18 -0.007918053025)
(-0.002148563549 -2.208216081e-18 -0.004390364714)
(-0.0006618762351 -1.153415592e-18 -0.001238742595)
(-9.771853069e-05 4.670544266e-18 -0.04806417322)
(-0.0002558366017 4.471347649e-18 -0.04805345689)
(-0.0004058225505 -2.11256862e-18 -0.04802791536)
(-0.0005614364491 -2.324353779e-18 -0.04799009386)
(-0.0007183681263 -8.56019649e-18 -0.04794053162)
(-0.0008756864376 -7.750708906e-18 -0.04787957376)
(-0.001033923023 -8.39656843e-18 -0.04780744702)
(-0.001193617762 -5.413073346e-18 -0.04772427688)
(-0.001355199287 -3.968098018e-18 -0.04763008228)
(-0.001519053864 -6.148017364e-18 -0.04752477187)
(-0.001685535616 -8.878180679e-18 -0.04740814524)
(-0.001854960803 -9.066613133e-18 -0.04727989469)
(-0.002027606235 -6.129413341e-18 -0.04713960817)
(-0.002203710242 -5.341653406e-18 -0.04698677372)
(-0.002383474357 -5.832082006e-18 -0.046820786)
(-0.002567065523 -6.156931444e-18 -0.04664095421)
(-0.002754616249 -7.117047973e-18 -0.0464465113)
(-0.002946224816 -7.782460383e-18 -0.0462366249)
(-0.003141954533 -8.443774535e-18 -0.04601040602)
(-0.003341828262 -9.35279685e-18 -0.04576691616)
(-0.003545823291 -1.052329316e-17 -0.04550517356)
(-0.003753863051 -1.090218966e-17 -0.04522415292)
(-0.003965809 -9.967341985e-18 -0.04492278182)
(-0.00418145266 -1.044061738e-17 -0.04459993015)
(-0.004400510659 -1.157498745e-17 -0.04425439434)
(-0.004622623392 -1.189972965e-17 -0.04388487487)
(-0.004847357823 -1.215205409e-17 -0.04348994831)
(-0.005074216213 -1.207604154e-17 -0.04306803398)
(-0.005302648591 -1.203354463e-17 -0.04261735491)
(-0.005532067917 -1.104713803e-17 -0.04213589322)
(-0.005761867286 -1.060906101e-17 -0.04162133775)
(-0.005991435726 -1.096255263e-17 -0.04107101956)
(-0.006220170082 -9.869958519e-18 -0.04048182796)
(-0.006447476053 -8.867608971e-18 -0.03985009415)
(-0.006672751016 -7.925036635e-18 -0.0391714264)
(-0.00689533557 -6.488312575e-18 -0.0384404716)
(-0.007114419319 -6.034345367e-18 -0.03765057365)
(-0.007328877363 -5.452453828e-18 -0.03679328436)
(-0.00753701017 -4.547155634e-18 -0.03585766451)
(-0.007736137005 -4.032263365e-18 -0.03482927051)
(-0.007921968764 -3.530769604e-18 -0.03368866851)
(-0.008087637538 -3.019052765e-18 -0.0324092459)
(-0.008222133222 -3.704417553e-18 -0.03095408377)
(-0.008307755865 -4.099908528e-18 -0.02927160968)
(-0.008316218171 -3.852105595e-18 -0.02728934927)
(-0.008202661931 -3.251544228e-18 -0.02490462025)
(-0.00789223009 -3.158148752e-18 -0.02197128487)
(-0.007237055869 -3.075243007e-18 -0.0182698479)
(-0.005886487998 -2.921458496e-18 -0.0133809868)
(-0.002951641139 -2.700730134e-18 -0.00625675057)
(-7.132505377e-05 3.202532909e-18 -0.04867714578)
(-0.0001864265202 -2.123199235e-19 -0.04866859819)
(-0.0002955981584 -2.532831969e-18 -0.04864841027)
(-0.0004092982203 -4.567244397e-18 -0.04861867855)
(-0.0005241759513 -4.172156999e-18 -0.04857970392)
(-0.000639652345 -2.491614923e-18 -0.04853171987)
(-0.000756176284 -2.706647019e-18 -0.0484748979)
(-0.0008741460384 -3.486795435e-18 -0.04840931154)
(-0.0009938593655 -5.277583083e-18 -0.04833493298)
(-0.001115567158 -5.427253055e-18 -0.04825163331)
(-0.00123947463 -5.863464263e-18 -0.0481591836)
(-0.001365736046 -5.502116305e-18 -0.04805725696)
(-0.001494453462 -5.454043948e-18 -0.04794543159)
(-0.001625676203 -7.252990253e-18 -0.04782319408)
(-0.001759398952 -8.303111778e-18 -0.0476899419)
(-0.001895556755 -9.084967269e-18 -0.04754498448)
(-0.002034018448 -1.002478022e-17 -0.04738754182)
(-0.002174580513 -9.812089808e-18 -0.04721673812)
(-0.002316958312 -9.946692318e-18 -0.0470315897)
(-0.002460776377 -1.018541658e-17 -0.04683099191)
(-0.002605566094 -1.051899084e-17 -0.04661370588)
(-0.002750767288 -1.039495108e-17 -0.04637834647)
(-0.002895738286 -1.020562965e-17 -0.04612338054)
(-0.003039774502 -1.077503683e-17 -0.04584713297)
(-0.003182132051 -1.089179609e-17 -0.04554780747)
(-0.003322054211 -1.059877988e-17 -0.04522351588)
(-0.003458793433 -1.041805637e-17 -0.04487231586)
(-0.003591624179 -1.054164398e-17 -0.04449224707)
(-0.003719842008 -1.061225176e-17 -0.04408136336)
(-0.003842748685 -1.09692764e-17 -0.04363775131)
(-0.003959625989 -1.080421153e-17 -0.04315953464)
(-0.00406970386 -1.055134733e-17 -0.04264485811)
(-0.00417213056 -9.880019566e-18 -0.04209185077)
(-0.004265948385 -9.332977755e-18 -0.04149855993)
(-0.004350072979 -8.613033735e-18 -0.04086284929)
(-0.004423266119 -8.012525879e-18 -0.04018224669)
(-0.004484086032 -7.573513742e-18 -0.03945373275)
(-0.004530798953 -6.965091497e-18 -0.03867346077)
(-0.004561234168 -6.452884764e-18 -0.03783641061)
(-0.004572557483 -6.012543691e-18 -0.03693597973)
(-0.004560905779 -5.560293068e-18 -0.03596347101)
(-0.004520773485 -5.13952612e-18 -0.03490720067)
(-0.00444397014 -4.875671618e-18 -0.03375037819)
(-0.004317877423 -4.86034255e-18 -0.03246599391)
(-0.004122399393 -4.676954484e-18 -0.0310058491)
(-0.003824529441 -4.488962959e-18 -0.02927907167)
(-0.003372273038 -4.372448713e-18 -0.02710905572)
(-0.002702947457 -4.313522754e-18 -0.02412678479)
(-0.001791108054 -3.242864931e-18 -0.01942490084)
(-0.0007525399793 -1.651909156e-18 -0.01039148804)
(-5.534928771e-05 -1.384371074e-18 -0.04903219991)
(-0.000144763328 -1.798688321e-18 -0.04902472598)
(-0.0002298802125 -2.591633623e-18 -0.04900700971)
(-0.0003188324236 -4.139849152e-18 -0.04898096783)
(-0.0004089948167 -1.586787242e-18 -0.04894678373)
(-0.0005000180065 -2.372468318e-18 -0.0489045949)
(-0.0005923170598 -2.500978817e-18 -0.04885447623)
(-0.0006862300473 -4.650377865e-18 -0.04879639266)
(-0.0007819933755 -6.524284932e-18 -0.0487301957)
(-0.0008797858053 -6.167533303e-18 -0.04865562581)
(-0.0009797261045 -6.041982857e-18 -0.04857231202)
(-0.001081863348 -6.096928317e-18 -0.04847977261)
(-0.001186171124 -7.421841495e-18 -0.04837741506)
(-0.001292540666 -8.828432139e-18 -0.04826453305)
(-0.00140077046 -9.177594322e-18 -0.04814029914)
(-0.001510555762 -9.450662277e-18 -0.04800375409)
(-0.001621483034 -1.042988838e-17 -0.04785379244)
(-0.001733032024 -1.025414374e-17 -0.04768914788)
(-0.001844584964 -1.021180768e-17 -0.04750838483)
(-0.001955450799 -1.03029193e-17 -0.04730990562)
(-0.002064906424 -1.040219584e-17 -0.04709197373)
(-0.002172242998 -1.040041157e-17 -0.04685275843)
(-0.002276818155 -1.037406441e-17 -0.04659039532)
(-0.002378100934 -1.041818155e-17 -0.04630304788)
(-0.00247570259 -1.033429993e-17 -0.04598895515)
(-0.002569387622 -1.019239986e-17 -0.04564644306)
(-0.002659062873 -1.000618034e-17 -0.0452738907)
(-0.002744745968 -1.000761507e-17 -0.04486964712)
(-0.002826517617 -9.983006176e-18 -0.04443191515)
(-0.002904462463 -1.033120658e-17 -0.0439586225)
(-0.002978602951 -1.017666121e-17 -0.0434473097)
(-0.003048830314 -9.945332928e-18 -0.04289505371)
(-0.003114838492 -9.71641465e-18 -0.04229842673)
(-0.003176065106 -9.410287608e-18 -0.04165345316)
(-0.003231639892 -9.025156175e-18 -0.04095549756)
(-0.003280332729 -8.652421441e-18 -0.04019900297)
(-0.003320482786 -8.297895999e-18 -0.03937700991)
(-0.003349882924 -7.920325204e-18 -0.03848040504)
(-0.003365582273 -7.527947207e-18 -0.03749683625)
(-0.00336355445 -7.159009081e-18 -0.03640914279)
(-0.003338161822 -6.817866773e-18 -0.03519291816)
(-0.003281358382 -6.530887058e-18 -0.03381244333)
(-0.003181673497 -5.909030806e-18 -0.03221383815)
(-0.003023284671 -5.208525302e-18 -0.03031431588)
(-0.002785731963 -4.437838208e-18 -0.02798751323)
(-0.002444257126 -3.498397873e-18 -0.02504820985)
(-0.001971095135 -3.112026751e-18 -0.02125038142)
(-0.001354383941 -2.538357905e-18 -0.01634352226)
(-0.0006856357334 -1.631831001e-18 -0.01026919368)
(-0.0001649648336 -5.737855784e-19 -0.003449586799)
(-4.129726057e-05 -6.025911631e-19 -0.04930549457)
(-0.0001079843247 4.998878779e-19 -0.04929925073)
(-0.0001715623516 -5.798508204e-19 -0.04928436328)
(-0.0002382692374 -1.703931463e-18 -0.04926249095)
(-0.0003061977235 -2.140274506e-18 -0.04923372041)
(-0.0003751284375 -2.829129481e-18 -0.04919809939)
(-0.0004453896186 -4.182715017e-18 -0.04915560077)
(-0.000517223515 -5.346070827e-18 -0.04910607691)
(-0.0005907637232 -6.265798494e-18 -0.04904925427)
(-0.0006660630979 -6.899651721e-18 -0.04898473409)
(-0.0007430883637 -7.711617847e-18 -0.04891198733)
(-0.0008217080841 -8.170049488e-18 -0.04883034547)
(-0.0009016851724 -8.787727601e-18 -0.04873898788)
(-0.0009826742518 -9.699752735e-18 -0.04863692732)
(-0.00106422694 -9.302119292e-18 -0.04852299881)
(-0.001145810854 -9.055029233e-18 -0.04839585877)
(-0.001226844296 -9.160466411e-18 -0.04825400276)
(-0.001306742733 -9.440717994e-18 -0.04809580878)
(-0.001384971187 -9.810457232e-18 -0.04791960698)
(-0.001461097837 -1.010499038e-17 -0.04772376225)
(-0.001534831713 -1.035761141e-17 -0.04750674986)
(-0.001606037739 -1.052110502e-17 -0.0472672042)
(-0.001674729231 -1.056845603e-17 -0.04700391759)
(-0.001741036977 -1.057489373e-17 -0.0467157917)
(-0.001805165656 -1.051759292e-17 -0.04640174794)
(-0.00186734292 -1.040527975e-17 -0.04606062304)
(-0.001927769762 -1.027770311e-17 -0.04569106885)
(-0.001986576705 -1.008200978e-17 -0.0452914716)
(-0.002043787028 -9.850945938e-18 -0.04485988862)
(-0.002099288707 -9.733510361e-18 -0.04439399632)
(-0.002152810529 -9.79904647e-18 -0.0438910357)
(-0.002203896575 -9.755413379e-18 -0.04334775671)
(-0.002251871675 -9.654479791e-18 -0.04276035409)
(-0.002295793106 -9.452700641e-18 -0.0421243795)
(-0.002334384566 -9.224004508e-18 -0.0414345793)
(-0.002365951754 -9.006378384e-18 -0.04068459164)
(-0.002388273993 -8.764568449e-18 -0.0398664148)
(-0.002398462454 -8.444649769e-18 -0.03896955624)
(-0.00239276696 -8.079273762e-18 -0.03797973986)
(-0.002366318106 -7.685796415e-18 -0.03687698432)
(-0.002312822744 -7.256214037e-18 -0.03563279405)
(-0.002224319408 -6.78186078e-18 -0.03420624915)
(-0.002091264541 -6.15513907e-18 -0.03253913282)
(-0.001903475867 -5.35845338e-18 -0.0305510569)
(-0.001652807028 -4.429860521e-18 -0.02813667528)
(-0.001338541083 -3.274945755e-18 -0.02516727755)
(-0.0009752074124 -2.844997692e-18 -0.02149554212)
(-0.0005991498147 -2.256583531e-18 -0.01695474946)
(-0.0002692048803 -1.495379631e-18 -0.01134145858)
(-6.49092678e-05 -5.580903866e-19 -0.004380035983)
(-2.935120482e-05 3.481478198e-18 -0.04950535735)
(-7.680783331e-05 1.455349e-17 -0.0495002076)
(-0.0001222439892 3.427900446e-18 -0.04948785018)
(-0.0001701614406 -1.617303507e-19 -0.04946962333)
(-0.0002192621621 -1.104553126e-18 -0.04944551706)
(-0.0002694233366 -9.846923472e-19 -0.04941545775)
(-0.0003208729046 -5.589220287e-18 -0.04937926961)
(-0.000373734618 -6.000431815e-18 -0.04933663402)
(-0.0004280100458 -6.61735903e-18 -0.04928707675)
(-0.0004835941565 -6.896245982e-18 -0.04922995869)
(-0.000540276138 -1.071245068e-17 -0.0491644632)
(-0.0005977451422 -9.550307652e-18 -0.0490895857)
(-0.0006556098354 -9.044602039e-18 -0.04900413544)
(-0.0007134331443 -8.473967414e-18 -0.04890675914)
(-0.0007707814667 -8.745324986e-18 -0.04879599334)
(-0.0008272813033 -8.364471302e-18 -0.0486703418)
(-0.0008826702705 -7.920128936e-18 -0.04852836298)
(-0.0009368312578 -8.346356462e-18 -0.04836874244)
(-0.0009898061227 -9.576071414e-18 -0.04819032211)
(-0.001041784228 -1.031312705e-17 -0.0479920719)
(-0.001093065388 -1.071770362e-17 -0.04777301739)
(-0.001144012092 -1.094178148e-17 -0.04753214847)
(-0.001194993418 -1.106546282e-17 -0.04726834346)
(-0.001246332785 -1.109374862e-17 -0.04698032864)
(-0.001298266459 -1.103055781e-17 -0.0466666646)
(-0.001350915228 -1.088966046e-17 -0.0463257392)
(-0.001404268985 -1.07025489e-17 -0.04595573824)
(-0.001458180896 -1.044814218e-17 -0.04555458663)
(-0.001512363056 -1.007343027e-17 -0.04511986134)
(-0.001566381618 -9.579438824e-18 -0.04464869042)
(-0.001619648341 -9.867348262e-18 -0.04413764269)
(-0.001671403971 -9.926216305e-18 -0.04358261123)
(-0.00172068988 -9.869719405e-18 -0.04297868059)
(-0.001766302334 -9.726776468e-18 -0.04231994931)
(-0.001806725985 -9.466228256e-18 -0.04159925701)
(-0.001840043965 -9.352302902e-18 -0.04080773998)
(-0.001863825486 -9.160510835e-18 -0.03993412386)
(-0.001874993445 -8.958338787e-18 -0.03896364911)
(-0.001869684098 -8.47859406e-18 -0.03787653935)
(-0.001843135415 -7.957967127e-18 -0.03664594772)
(-0.001789686768 -7.351486123e-18 -0.0352354372)
(-0.001703044788 -6.786194488e-18 -0.03359628822)
(-0.001577036049 -6.068037135e-18 -0.03166531217)
(-0.001407059021 -5.205150657e-18 -0.02936421415)
(-0.001192200553 -4.173934564e-18 -0.02660185367)
(-0.0009375991106 -2.864017832e-18 -0.02328105317)
(-0.0006570785459 -2.428133648e-18 -0.01931243889)
(-0.00037852232 -1.858609202e-18 -0.0146378929)
(-0.0001523448506 -1.171734518e-18 -0.009260631407)
(-2.764161626e-05 -4.13527662e-19 -0.003265168971)
(-1.966478867e-05 -1.041004538e-18 -0.04964528402)
(-5.149590019e-05 -2.342563859e-18 -0.04964107185)
(-8.213791474e-05 -2.46051266e-18 -0.04963095307)
(-0.0001146912817 -2.466757199e-18 -0.04961593606)
(-0.0001483185642 -2.643189227e-18 -0.04959588922)
(-0.0001829262348 -3.799486935e-18 -0.04957057359)
(-0.0002186039331 -4.815856473e-18 -0.04953960373)
(-0.0002553214212 -6.279579888e-18 -0.04950240636)
(-0.0002929300793 -7.993236742e-18 -0.04945821061)
(-0.0003311947081 -6.315125176e-18 -0.04940605159)
(-0.0003698273433 -7.442610965e-18 -0.04934479523)
(-0.0004085324548 -8.639716707e-18 -0.04927319063)
(-0.0004470591738 -9.600061026e-18 -0.04918994762)
(-0.0004852491414 -1.069308431e-17 -0.04909382295)
(-0.0005230701484 -1.087656446e-17 -0.04898368719)
(-0.0005606284735 -1.103915661e-17 -0.04885854573)
(-0.0005981549121 -1.145218608e-17 -0.04871750766)
(-0.0006359718589 -1.165802901e-17 -0.04855971923)
(-0.000674450783 -1.172423191e-17 -0.04838429291)
(-0.0007139624869 -1.18516082e-17 -0.04819026062)
(-0.0007548353086 -1.193581511e-17 -0.04797655538)
(-0.0007973266773 -1.198374041e-17 -0.04774200329)
(-0.0008416033243 -1.195390657e-17 -0.04748531251)
(-0.0008877313901 -1.187948032e-17 -0.04720504688)
(-0.0009356690912 -1.180004487e-17 -0.04689959283)
(-0.0009852602168 -1.166550168e-17 -0.04656711848)
(-0.001036228728 -1.147960169e-17 -0.04620552549)
(-0.00108817488 -1.130646786e-17 -0.04581238495)
(-0.001140572503 -1.113746278e-17 -0.04538485825)
(-0.001192764128 -1.104730405e-17 -0.04491959705)
(-0.001243953489 -1.119690785e-17 -0.04441262835)
(-0.001293188913 -1.09401702e-17 -0.04385921288)
(-0.001339336321 -1.079057832e-17 -0.04325367054)
(-0.001381035633 -1.073658278e-17 -0.04258913977)
(-0.001416641632 -1.048222581e-17 -0.04185722989)
(-0.001444147762 -9.964757827e-18 -0.04104750019)
(-0.001461103407 -9.487586238e-18 -0.0401466947)
(-0.001464539847 -8.986572867e-18 -0.03913767376)
(-0.001450942454 -8.778399233e-18 -0.03799803773)
(-0.001416325284 -8.518100739e-18 -0.03669853969)
(-0.001356500985 -8.339555617e-18 -0.03520154109)
(-0.001267642348 -7.751175076e-18 -0.03345995955)
(-0.001147218992 -6.576345189e-18 -0.03141728262)
(-0.0009952974802 -5.37582033e-18 -0.02900920529)
(-0.0008160257388 -4.033216675e-18 -0.02616712629)
(-0.0006188726817 -3.353409193e-18 -0.02282309513)
(-0.0004189978235 -2.711480389e-18 -0.01891505657)
(-0.0002365787438 -1.997970982e-18 -0.01439084835)
(-9.562863173e-05 -1.229482198e-18 -0.00920926364)
(-1.962903997e-05 -4.280794244e-19 -0.003333995594)
(-1.213390837e-05 1.580937535e-17 -0.04973745263)
(-3.180677363e-05 -1.02313297e-18 -0.04973408687)
(-5.089194156e-05 4.275467209e-18 -0.04972594065)
(-7.135483203e-05 6.851849929e-19 -0.04971366539)
(-9.266721522e-05 8.808962746e-19 -0.04969693332)
(-0.000114712626 -3.826980008e-18 -0.04967524403)
(-0.0001374522593 -3.829644012e-18 -0.04964791078)
(-0.000160766448 -5.376260512e-18 -0.04961405834)
(-0.0001844945928 -6.57005661e-18 -0.04957267488)
(-0.0002084919918 -8.836227209e-18 -0.04952268615)
(-0.000232673781 -7.024594455e-18 -0.04946303642)
(-0.0002570489332 -8.447492563e-18 -0.04939274943)
(-0.0002817362091 -9.317157319e-18 -0.04931094456)
(-0.0003069585119 -1.203000361e-17 -0.04921680674)
(-0.0003330189332 -1.286829783e-17 -0.04910953259)
(-0.0003602632319 -1.407592046e-17 -0.04898828516)
(-0.0003890394567 -1.445329219e-17 -0.04885217541)
(-0.0004196661833 -1.432650641e-17 -0.04870026116)
(-0.0004524084429 -1.359441066e-17 -0.04853154484)
(-0.0004874608651 -1.32795919e-17 -0.04834495728)
(-0.0005249416725 -1.318974811e-17 -0.04813932598)
(-0.0005648874504 -1.337259769e-17 -0.04791334034)
(-0.0006072510782 -1.297845358e-17 -0.04766551852)
(-0.000651901522 -1.271544775e-17 -0.04739417504)
(-0.0006986235317 -1.249757968e-17 -0.04709739077)
(-0.0007471152318 -1.229944703e-17 -0.04677297714)
(-0.0007969843366 -1.207567168e-17 -0.04641843223)
(-0.0008477419556 -1.176525601e-17 -0.04603087759)
(-0.0008987957255 -1.13893267e-17 -0.04560697448)
(-0.0009494395182 -1.100847216e-17 -0.04514281181)
(-0.0009988393888 -1.067709978e-17 -0.04463376605)
(-0.001046014064 -1.066912145e-17 -0.04407432482)
(-0.001089805166 -1.048724974e-17 -0.04345786052)
(-0.001128838211 -1.017190132e-17 -0.04277633067)
(-0.001161473042 -1.031664646e-17 -0.04201986376)
(-0.001185751169 -1.001305393e-17 -0.041176193)
(-0.001199352915 -9.632452935e-18 -0.04022989481)
(-0.001199592065 -9.150960367e-18 -0.03916144176)
(-0.001183484127 -8.911768117e-18 -0.03794614448)
(-0.001147939253 -8.455440858e-18 -0.03655316507)
(-0.001090127122 -7.970893047e-18 -0.03494488556)
(-0.001008037295 -7.352361578e-18 -0.03307697161)
(-0.000901206521 -6.643975064e-18 -0.03089942086)
(-0.0007714996084 -5.819447268e-18 -0.02835876267)
(-0.0006237543962 -5.008383447e-18 -0.02540135763)
(-0.0004660619108 -4.205552414e-18 -0.02197764021)
(-0.0003096882983 -3.304200449e-18 -0.01804706854)
(-0.0001694060375 -2.393219209e-18 -0.0135833359)
(-6.450668617e-05 -1.462741514e-18 -0.008578725557)
(-1.113506742e-05 -5.012081008e-19 -0.003044767618)
(-6.540426992e-06 -2.461210721e-18 -0.04979361742)
(-1.716858973e-05 -4.208835606e-18 -0.04979094796)
(-2.759034653e-05 -7.46461893e-18 -0.04978431826)
(-3.887405746e-05 -4.680226178e-18 -0.04977397338)
(-5.071083532e-05 -4.939719822e-18 -0.04975932656)
(-6.300955837e-05 -5.504728321e-18 -0.04973963253)
(-7.574347733e-05 -5.818373179e-18 -0.04971405862)
(-8.88960969e-05 -6.340429676e-18 -0.04968174676)
(-0.0001024969777 -6.415332068e-18 -0.04964187182)
(-0.000116652342 -7.553323285e-18 -0.04959365747)
(-0.0001315480032 -9.067890656e-18 -0.04953635172)
(-0.0001474349423 -1.034079854e-17 -0.04946919169)
(-0.0001646047858 -1.141552577e-17 -0.04939138409)
(-0.000183360923 -1.221158785e-17 -0.04930210887)
(-0.0002039923649 -1.291224325e-17 -0.04920052932)
(-0.0002267541369 -1.375479866e-17 -0.04908578895)
(-0.0002518562867 -1.350817203e-17 -0.04895698989)
(-0.0002794568017 -1.333516617e-17 -0.04881316363)
(-0.0003096526033 -1.314372511e-17 -0.04865324422)
(-0.0003424769201 -1.301432345e-17 -0.04847604345)
(-0.0003779009688 -1.289971392e-17 -0.0482802264)
(-0.0004158328861 -1.278010661e-17 -0.04806429048)
(-0.0004561193266 -1.287599256e-17 -0.0478265407)
(-0.0004985444125 -1.293343067e-17 -0.04756506355)
(-0.0005428283495 -1.293090808e-17 -0.04727769396)
(-0.0005886231129 -1.281173226e-17 -0.04696197457)
(-0.0006355055497 -1.256609019e-17 -0.04661510068)
(-0.0006829691245 -1.219521858e-17 -0.04623384874)
(-0.000730412333 -1.168735695e-17 -0.04581447987)
(-0.0007771257759 -1.104315172e-17 -0.0453526163)
(-0.0008222746363 -1.068810284e-17 -0.0448430806)
(-0.0008648787848 -1.075810515e-17 -0.0442796966)
(-0.0009037854956 -1.062835915e-17 -0.04365503175)
(-0.0009376399284 -1.031873757e-17 -0.04296006772)