/*--------------------------------*- C++ -*----------------------------------*\
  =========                 |
  \\      /  F ield         | OpenFOAM: The Open Source CFD Toolbox
   \\    /   O peration     | Website:  https://openfoam.org
    \\  /    A nd           | Version:  7
     \\/     M anipulation  |
\*---------------------------------------------------------------------------*/
FoamFile
{
    version     2.0;
    format      ascii;
    class       volTensorField;
    location    "0.0021";
    object      grad(U);
}
// * * * * * * * * * * * * * * * * * * * * * * * * * * * * * * * * * * * * * //

dimensions      [0 0 -1 0 0 0 0];

internalField   nonuniform List<tensor> 
14000
(
(-0.002980502598 4.035260317e-17 -0.0001757250276 -2.622978776e-15 -0.004826901449 0 0.0005944225602 -2.920868557e-16 0.008367964102)
(-0.004006389747 -3.176038142e-16 -0.0004605657062 -9.338874535e-16 -0.004247662422 0 0.001558191336 -4.998423999e-16 0.008434539373)
(-0.004042522416 -6.487276288e-16 -0.0007589084434 -3.496408732e-16 -0.004096013839 0 0.002471930378 -6.345170515e-16 0.008586926674)
(-0.004278114987 -7.756391653e-16 -0.001037103057 -3.020668233e-17 -0.004111342787 0 0.003415791364 -5.051455115e-16 0.00880872603)
(-0.004486149607 -9.169378509e-17 -0.001321024723 1.449360987e-16 -0.004165832907 0 0.004364273492 -4.177745336e-16 0.009095533566)
(-0.004711530858 4.236725098e-16 -0.001605486369 2.032135697e-17 -0.004237160132 0 0.005309918223 -4.36673396e-16 0.009442397916)
(-0.004968818541 2.444797414e-16 -0.001889217742 -1.76798909e-17 -0.00432196212 0 0.00625382738 -3.204595278e-16 0.009844331403)
(-0.005253587532 1.427903852e-16 -0.0021734055 -4.726344825e-17 -0.004418381793 0 0.007197126135 -2.205277959e-16 0.0102966623)
(-0.005560168252 8.897980477e-17 -0.002459452126 -5.717039692e-17 -0.004524657866 0 0.008139997155 -1.307502635e-16 0.01079506317)
(-0.00588395607 6.608702419e-17 -0.002748627603 -5.259227727e-17 -0.00463926119 0 0.009082014501 -1.36451033e-16 0.01133553459)
(-0.006220433885 5.108351732e-17 -0.003042165756 -4.89216944e-17 -0.004760831745 0 0.01002221131 -1.37232797e-16 0.01191439614)
(-0.006564870781 3.59331574e-17 -0.003341272138 -4.592268727e-17 -0.004888096793 0 0.01095910971 -1.333476898e-16 0.01252827025)
(-0.006912345328 3.26609607e-17 -0.003647112947 -4.343483604e-17 -0.005019830882 0 0.01189073329 -1.24534803e-16 0.01317405995)
(-0.007257727547 3.816564899e-17 -0.00396079841 -6.201791786e-17 -0.005154835983 0 0.01281466148 -1.463569625e-16 0.01384893832)
(-0.00759564966 3.804583831e-17 -0.004283335992 -5.935846383e-17 -0.005291926705 0 0.01372810357 -1.684718112e-16 0.01455032473)
(-0.007920716211 3.307543132e-17 -0.004615676777 -5.708299158e-17 -0.005429921703 0 0.01462780796 -1.393330952e-16 0.01527586128)
(-0.00822767171 3.172424081e-17 -0.004958837842 -3.674844184e-17 -0.005567660249 0 0.01551007289 -1.404918186e-16 0.01602340479)
(-0.008510534448 4.142477904e-17 -0.005313938758 -3.561626678e-17 -0.005704009449 0 0.01637097082 -1.660947999e-16 0.01679102611)
(-0.008762039421 5.269065195e-17 -0.005682211399 -6.926216636e-17 -0.005837793981 0 0.01720622521 -1.886693482e-16 0.01757701555)
(-0.008974604049 5.08871661e-17 -0.006064897596 -6.754174736e-17 -0.00596777091 0 0.01801114929 -2.075489513e-16 0.01837987662)
(-0.009141156329 4.014387113e-17 -0.006463176935 -6.60358619e-17 -0.006092671505 0 0.01878080624 -2.224531729e-16 0.01919830888)
(-0.00925476601 3.131507326e-17 -0.006878350831 -4.853678358e-17 -0.006211239957 0 0.01951004882 -2.35139686e-16 0.02003120981)
(-0.009307040071 1.993624594e-16 -0.007311918095 -6.355764584e-17 -0.006322225944 0 0.02019354072 -2.640779504e-16 0.02087768963)
(-0.009288341087 3.628386486e-16 -0.007765230553 -4.690654919e-17 -0.006424303168 0 0.02082575589 -3.038433339e-16 0.02173707391)
(-0.009189579504 3.50709364e-16 -0.008239336129 -7.706574866e-17 -0.006516095903 0 0.02140097637 -3.424266217e-16 0.02260886687)
(-0.009000947664 3.414733127e-16 -0.008734945162 -7.609433151e-17 -0.006596230101 0 0.02191336368 -3.628872778e-16 0.02349274282)
(-0.008711663207 1.833306193e-16 -0.009252022986 -1.053482346e-16 -0.006663268996 0 0.02235698949 -3.826272097e-16 0.02438852181)
(-0.008310621495 3.83934779e-17 -0.009789483818 -8.941983633e-17 -0.006715746987 0 0.0227259162 -3.895960567e-16 0.02529610939)
(-0.007785678653 2.169133091e-16 -0.01034484967 -8.866445155e-17 -0.006752154272 0 0.02301416321 -3.96424059e-16 0.02621544919)
(-0.00712483203 3.871991985e-16 -0.01091393673 -8.802130741e-17 -0.006770928166 0 0.02321569148 -4.160286681e-16 0.02714642531)
(-0.006314756629 2.440180622e-16 -0.01149062549 -7.290071646e-17 -0.006770502181 0 0.02332456301 -4.363156691e-16 0.02808876826)
(-0.005339276624 1.070652855e-16 -0.01206634945 -8.703481266e-17 -0.006749224227 0 0.02333490628 -4.457927345e-16 0.02904193154)
(-0.004181931836 1.301549621e-16 -0.01262986639 -7.222993779e-17 -0.006705338431 0 0.02324089231 -4.554777221e-16 0.03000491994)
(-0.002826737899 1.596616659e-16 -0.01316757051 -1.151971434e-16 -0.006637039829 0 0.02303681895 -4.660798981e-16 0.03097611412)
(-0.001255529131 1.812284318e-16 -0.01366385537 -1.149267157e-16 -0.006542485361 0 0.02271720303 -4.782800286e-16 0.03195310936)
(0.0005527054623 1.942150572e-16 -0.01410131983 -1.14750072e-16 -0.006419728643 0 0.02227676319 -4.917059378e-16 0.03293254978)
(0.002620181968 2.106791759e-16 -0.01446127522 -1.003287492e-16 -0.006266713983 0 0.0217104318 -5.049925934e-16 0.03390998032)
(0.004969789597 2.314247303e-16 -0.01472438516 -1.003237053e-16 -0.006081290108 0 0.02101341087 -5.190824233e-16 0.03487976071)
(0.007626312991 2.500856996e-16 -0.01487108744 -1.147282327e-16 -0.005861224427 0 0.0201812635 -5.342644778e-16 0.0358350343)
(0.01061720742 1.352643065e-16 -0.01488154302 -1.148750983e-16 -0.005604171332 0 0.01920993045 -5.502711581e-16 0.03676778825)
(0.01397046968 2.912440073e-17 -0.01473529036 -1.007060803e-16 -0.005307663721 0 0.01809573432 -5.589519277e-16 0.03766896146)
(0.01771445576 6.123807871e-17 -0.01441053774 -1.153777233e-16 -0.004969159663 0 0.01683546383 -5.590090942e-16 0.03852864287)
(0.02187863129 8.884396568e-17 -0.01388261953 -1.157274236e-16 -0.004586036982 0 0.01542643516 -5.512206179e-16 0.03933629236)
(0.0264942381 1.143670649e-16 -0.01312191783 -1.161392086e-16 -0.004155609755 0 0.01386656752 -5.453072308e-16 0.04008096868)
(0.03159274076 1.456923339e-16 -0.01209120899 -1.093226307e-16 -0.003675104119 0 0.01215437691 -5.411766123e-16 0.0407515334)
(0.03718846817 1.801073159e-16 -0.01074336373 -1.098189184e-16 -0.003141719458 0 0.01028910039 -5.389301595e-16 0.04133679473)
(0.04328151574 5.294199534e-17 -0.009021167713 -1.030098324e-16 -0.002553073209 0 0.008271531321 -5.386490805e-16 0.04182560808)
(0.05006817569 -7.626118127e-17 -0.00684917474 -1.072684748e-16 -0.001907116826 0 0.0061042664 -5.313788216e-16 0.04220697008)
(0.05806484524 -4.779680246e-17 -0.004088138228 -1.041755926e-16 -0.001197145994 0 0.003782066707 -5.258196155e-16 0.04246973247)
(0.06465515906 -1.664905408e-17 -0.00126678237 -1.038908519e-16 -0.0004093046442 0 0.001283704629 -5.220139033e-16 0.04260044643)
(-0.007645899736 2.234489039e-15 -0.0005571410913 -5.848031787e-15 -0.01240715553 0 0.0003451434513 7.347696028e-17 0.02173841789)
(-0.01018567264 2.796172556e-15 -0.001325025995 -3.929216038e-15 -0.01090481587 0 0.0009009501705 2.114098429e-16 0.02177222989)
(-0.01004370723 4.112005741e-16 -0.00214017599 -3.383761141e-15 -0.01045263835 0 0.001413396175 -1.154165543e-16 0.02183778033)
(-0.01028497315 -8.633029949e-16 -0.002921694088 -2.086043452e-15 -0.01037874721 0 0.001921602247 -3.826817981e-16 0.02193462447)
(-0.01035231547 -3.777098335e-16 -0.00367525995 -1.520997203e-15 -0.01036573362 5.024197213e-14 0.00240426669 -6.210554555e-16 0.02205900266)
(-0.01036858875 -1.261165135e-15 -0.004392409116 -1.238270038e-15 -0.01036167885 0 0.002851525994 -5.416722007e-16 0.02220704349)
(-0.01037693654 -1.981317628e-15 -0.005071135419 -7.361644596e-16 -0.01036086071 0 0.003259244937 -5.090674766e-16 0.02237522014)
(-0.01037399191 -1.699607685e-15 -0.005711228664 -4.159957621e-16 -0.01036102159 0 0.003624244602 -4.965477796e-16 0.02256006812)
(-0.01035290617 -7.572561546e-16 -0.006313132033 -2.032126134e-16 -0.01036009067 0 0.00394359055 -4.947710762e-16 0.02275813509)
(-0.01030825626 -1.178804726e-17 -0.006877739802 -1.602339875e-16 -0.01035638133 0 0.004214739675 -4.968870798e-16 0.02296605642)
(-0.01023468124 -7.928024713e-17 -0.007406175898 -1.490507461e-16 -0.01034842174 0 0.004435630324 -5.056357258e-16 0.02318060046)
(-0.01012671412 -1.499790082e-16 -0.007899609321 -1.399136086e-16 -0.01033487713 0 0.004604681862 -5.180618121e-16 0.02339869006)
(-0.009978988209 9.427492382e-17 -0.008359276077 -1.102781837e-16 -0.01031448583 0 0.004720632596 -4.92707882e-16 0.02361743521)
(-0.009786829796 3.669952223e-16 -0.008786445289 -1.259675221e-16 -0.01028607214 0 0.004782547697 -4.711716315e-16 0.02383414294)
(-0.009544948794 -1.17740019e-16 -0.009182322561 -1.40660076e-16 -0.01024858184 0 0.004789908882 -4.540917437e-16 0.02404634649)
(-0.009246660099 -2.92313142e-16 -0.009548124917 -1.159439603e-16 -0.01020093223 0 0.004742541599 -4.430989849e-16 0.02425181839)
(-0.008886707971 2.355507753e-16 -0.009885161586 -1.119622438e-16 -0.0101419921 0 0.004640613139 -4.316458365e-16 0.02444856451)
(-0.008460820589 4.364532663e-16 -0.01019493221 -1.265982929e-16 -0.01007077715 0 0.004484596095 -4.219882243e-16 0.02463481598)
(-0.007963549632 3.663012393e-16 -0.01047907241 -1.05511243e-16 -0.009986348608 0 0.004275365094 -4.150658867e-16 0.02480903526)
(-0.00739007371 2.968817466e-16 -0.01073923277 -1.20038829e-16 -0.009887768488 0 0.004014386144 -4.110100662e-16 0.02496988785)
(-0.006736417293 2.494935263e-16 -0.01097723283 -1.173624883e-16 -0.009774192226 0 0.003703580062 -4.10872405e-16 0.02511623802)
(-0.00599852436 4.180891881e-16 -0.01119521784 -1.478780303e-16 -0.009644836111 0 0.003345170057 -4.144870315e-16 0.02524712783)
(-0.005173435094 5.548623912e-16 -0.0113956153 -1.452318034e-16 -0.009498976082 8.262075925e-15 0.002941770763 -4.004898704e-16 0.02536173346)
(-0.004258812876 5.123774511e-16 -0.01158092871 -1.587901791e-16 -0.009336005575 0 0.002496601285 -3.592999379e-16 0.02545932203)
(-0.003251986634 3.185056926e-16 -0.01175375993 -2.034914465e-16 -0.009155391431 0 0.002013428088 -3.430026574e-16 0.02553923297)
(-0.002151599304 1.269072571e-16 -0.01191694117 -2.009264279e-16 -0.008956661479 0 0.001496421797 -3.15030558e-16 0.02560081616)
(-0.0009580785775 1.302732994e-16 -0.01207330241 -2.139777751e-16 -0.008739471866 -7.825472916e-15 0.0009503240823 -2.740987812e-16 0.0256433928)
(0.000327708202 1.271728707e-16 -0.01222562608 -1.664894485e-16 -0.008503610904 0 0.0003803483207 -2.645021442e-16 0.02566624106)
(0.001704849062 1.115013789e-16 -0.01237640136 -1.500754627e-16 -0.008248972261 7.68386369e-15 -0.0002077739835 -2.558203786e-16 0.02566857616)
(0.003171184891 1.143590564e-16 -0.01252740383 -1.638855485e-16 -0.007975540571 0 -0.0008077169624 -2.221518802e-16 0.02564954954)
(0.004722038803 1.339589674e-16 -0.01267936187 -1.77686506e-16 -0.007683431742 -7.581290923e-15 -0.001412723648 -1.901997406e-16 0.02560827535)
(0.006350890049 1.416920027e-16 -0.01283118562 -1.620488088e-16 -0.007372933549 0 -0.002015465914 -1.831779291e-16 0.02554388665)
(0.008050392834 1.38586165e-16 -0.01297914062 -1.613806019e-16 -0.00704449623 0 -0.002607947214 -1.772952861e-16 0.02545563794)
(0.009811525749 1.482954599e-16 -0.01311621866 -1.608628717e-16 -0.006698717719 0 -0.00318165934 -1.852335464e-16 0.0253430136)
(0.01162216458 1.713134374e-16 -0.01323143167 -1.896643778e-16 -0.006336371889 0 -0.003727599698 -1.811880403e-16 0.02520584351)
(0.01346741242 1.798985281e-16 -0.01330930773 -1.893728615e-16 -0.005958447663 0 -0.004236147396 -1.779886794e-16 0.02504442021)
(0.01533017508 1.802997165e-16 -0.01333003041 -1.601147908e-16 -0.005566149133 0 -0.004697070392 -1.64001086e-16 0.02485960404)
(0.01719043916 1.946468142e-16 -0.01327007406 -1.746618996e-16 -0.005160901037 0 -0.005099500875 -1.393324109e-16 0.02465290173)
(0.0190244591 2.123638865e-16 -0.01310366381 -1.747724491e-16 -0.004744370701 0 -0.005432057342 -1.042379612e-16 0.02442652)
(0.02080511507 2.348805314e-16 -0.01280480748 -1.822876858e-16 -0.004318493849 -7.466503611e-15 -0.00568277832 -7.053650347e-17 0.02418338863)
(0.02250289957 1.027024839e-16 -0.0123498544 -1.68022291e-16 -0.003885472631 0 -0.005839096976 -5.410411687e-17 0.02392718185)
(0.02408507439 -1.822914218e-16 -0.01172024218 -1.611150359e-16 -0.003447760731 0 -0.005887976437 -4.987429902e-17 0.02366233219)
(0.02551481146 -3.041038411e-16 -0.01090497689 -1.616033622e-16 -0.003008086309 0 -0.005815962811 -4.588539898e-17 0.02339407468)
(0.026751399 -2.742807372e-16 -0.00990296886 -1.548066397e-16 -0.002569459322 0 -0.005609335547 -4.162693193e-17 0.02312853227)
(0.02775076152 -2.478911798e-16 -0.008724831281 -1.517344116e-16 -0.002135178887 0 -0.005254106211 -3.695199435e-17 0.02287284397)
(0.02846807312 -2.192354673e-16 -0.007393897735 -1.487055946e-16 -0.001708819672 0 -0.004736260898 -3.175320301e-17 0.02263536156)
(0.02885151638 -1.82687862e-16 -0.005945904061 -1.41976235e-16 -0.001294164747 -7.651771824e-15 -0.004042902298 -2.603634898e-17 0.02242585276)
(0.02881759754 -1.476451121e-16 -0.004430482537 -1.371129205e-16 -0.0008953634166 0 -0.003162092783 -3.406565708e-17 0.02225560527)
(0.02829058082 -1.184710849e-16 -0.002915473595 -1.322474789e-16 -0.0005174820357 0 -0.002071277203 -3.356213478e-17 0.02213801195)
(0.02747385899 -5.139995759e-17 -0.001080983429 -1.297473181e-16 -0.0001655840148 0 -0.0007315559917 -3.274208464e-17 0.02209126571)
(-0.009060416441 -1.416898101e-15 -0.0005467239315 -6.039769613e-16 -0.01475409565 0 2.417607712e-05 1.424303813e-16 0.02718495006)
(-0.01199683001 1.792230218e-15 -0.00125833417 1.032002105e-15 -0.01293951368 0 6.155927039e-05 4.087643497e-16 0.02716917034)
(-0.01170138801 3.712472314e-15 -0.002015174247 -1.060635351e-15 -0.01234916751 -8.688724793e-14 8.919509086e-05 7.15174785e-16 0.0271280337)
(-0.01182429262 3.013411538e-15 -0.002754136082 -1.682362607e-15 -0.01219913225 0 0.0001052693325 4.663489885e-16 0.02706870119)
(-0.01169584034 9.312194351e-16 -0.003462226065 -1.893484384e-15 -0.01210889451 0 0.0001044590476 3.265232936e-16 0.02699253021)
(-0.01146544965 -4.523839014e-16 -0.004130435301 -1.488106016e-15 -0.01201634882 -4.292452283e-14 8.335376045e-05 2.351813074e-16 0.02690082894)
(-0.01118960277 -1.391476416e-16 -0.004756583047 -1.203500667e-15 -0.01191531361 0 3.932677589e-05 -1.146423717e-16 0.02679498172)
(-0.01086899586 3.617944148e-18 -0.005339153721 -1.039936788e-15 -0.01180422572 0 -2.955630947e-05 -4.128976228e-16 0.02667626864)
(-0.01049967452 8.084649147e-17 -0.005877290943 -8.549919554e-16 -0.01168168631 3.019006077e-14 -0.0001247282836 -6.856492893e-16 0.02654583286)
(-0.01008105381 1.592332704e-16 -0.006371071553 -8.950117551e-16 -0.01154681558 0 -0.0002471316547 -7.596062668e-16 0.02640469447)
(-0.00961383618 2.324043172e-16 -0.006821185773 -8.073173609e-16 -0.01139920949 0 -0.0003970079486 -7.460668018e-16 0.02625376638)
(-0.009097577366 -9.112056044e-17 -0.007228878174 -7.341449418e-16 -0.01123875201 0 -0.0005740618571 -7.578549565e-16 0.02609390129)
(-0.008530781262 -3.823381508e-16 -0.007595860255 -6.719736823e-16 -0.01106531591 1.146835085e-14 -0.0007775185993 -7.921614397e-16 0.02592591783)
(-0.007913025344 -3.054978142e-16 -0.007924311113 -5.970033621e-16 -0.01087879038 0 -0.00100619902 -7.319233762e-16 0.02575059272)
(-0.00724419608 -2.21928707e-16 -0.00821688578 -5.918098853e-16 -0.01067918605 -1.044850556e-14 -0.001258586355 -6.813088426e-16 0.0255686937)
(-0.006523927521 -1.831405331e-16 -0.008476477059 -4.906234456e-16 -0.01046653234 1.004796817e-14 -0.001532659195 -7.066911043e-16 0.02538098726)
(-0.005752083939 -1.670055417e-16 -0.008706155445 -4.358726196e-16 -0.0102409018 9.702903532e-15 -0.001825915617 -6.471634677e-16 0.02518822183)
(-0.004928893895 -1.137183423e-16 -0.008909327409 -4.408110378e-16 -0.01000239317 0 -0.002135614696 -5.182869948e-16 0.02499112778)
(-0.004056681245 -5.089138023e-17 -0.009089540814 -4.286177383e-16 -0.009751160862 0 -0.00245865717 -4.048383481e-16 0.02479038304)
(-0.003138668203 1.319765843e-17 -0.009250284064 -4.17971203e-16 -0.009487543277 0 -0.00279157092 -3.298883677e-16 0.02458659667)
(-0.002176427263 8.034699656e-17 -0.00939496446 -3.916250958e-16 -0.009211953016 0 -0.003130698228 -2.64487471e-16 0.02438030618)
(-0.001171695782 -7.597047991e-17 -0.009526662939 -3.671091745e-16 -0.008924786781 8.543631697e-15 -0.003472127532 -2.05471046e-16 0.02417192542)
(-0.0001286715723 -3.935402909e-16 -0.009647923431 -3.60539881e-16 -0.008626503639 0 -0.003811713261 -1.168885922e-16 0.02396170245)
(0.0009471331858 -2.576745225e-16 -0.009760610559 -3.063999211e-16 -0.008317704851 0 -0.004145250921 -5.718123401e-17 0.02374969524)
(0.002050864238 -1.454789633e-16 -0.009865476062 -3.020423337e-16 -0.007999094036 -8.139246046e-15 -0.004468373383 6.898592357e-19 0.02353577287)
(0.003177077789 -4.466934814e-16 -0.00996183 -2.825384939e-16 -0.007671415849 0 -0.004776532923 2.271036016e-17 0.02331959503)
(0.004319540682 -3.948751576e-16 -0.01004757895 -2.793988063e-16 -0.00733551162 0 -0.005065254494 4.325673664e-17 0.02310060552)
(0.005471817284 -1.753568293e-16 -0.01011908361 -2.766801129e-16 -0.006992276465 0 -0.005330168679 4.66570832e-17 0.02287806307)
(0.006625909523 -2.984847549e-16 -0.01017094462 -2.286190204e-16 -0.006642673397 0 -0.005566900765 4.924652655e-17 0.02265104718)
(0.007773511797 -4.19212352e-16 -0.01019622674 -2.269606897e-16 -0.006287768352 0 -0.005771125802 5.100838161e-17 0.02241851963)
(0.008906563143 -2.379028632e-16 -0.01018696179 -2.105293486e-16 -0.005928671764 0 -0.00593869907 5.318832373e-17 0.02217939179)
(0.01001550359 -5.592893374e-17 -0.0101346939 -2.094559023e-16 -0.0055665465 0 -0.006065752669 7.004968058e-17 0.02193260484)
(0.01109030902 1.599507669e-16 -0.01003109601 -2.085922127e-16 -0.00520264092 0 -0.006148675978 8.597418779e-17 0.02167723902)
(0.01212115884 2.082856104e-16 -0.009868702877 -2.079230214e-16 -0.004838243739 0 -0.006184147746 1.14854677e-16 0.02141265789)
(0.01309740958 8.403892314e-17 -0.009641666743 -2.074349177e-16 -0.00447468682 0 -0.00616932538 1.423147783e-16 0.02113864113)
(0.01400797757 -4.347184072e-17 -0.00934612687 -1.997190848e-16 -0.004113350855 0 -0.006101870518 1.697516791e-16 0.02085554642)
(0.01484086183 -3.310055947e-16 -0.008980494885 -1.921735129e-16 -0.003755651036 0 -0.005980036298 1.83014912e-16 0.02056444926)
(0.01558418091 -6.203101674e-16 -0.008545654235 -1.773820168e-16 -0.003403060174 0 -0.005802769089 1.958034833e-16 0.02026725822)
(0.01622673759 -7.458429006e-16 -0.008044831275 -1.55307502e-16 -0.003057056638 0 -0.005569781089 1.979737486e-16 0.01996678554)
(0.01675666059 -5.986457954e-16 -0.007483282578 -1.555063139e-16 -0.002719129317 0 -0.005281686167 2.018565143e-16 0.01966672919)
(0.01716217302 -2.774405334e-16 -0.006867991645 -1.409626568e-16 -0.002390781195 -7.597145294e-15 -0.00494005533 2.183158291e-16 0.01937159143)
(0.01743261662 -6.825179399e-17 -0.006207504164 -1.375930601e-16 -0.002073507643 -7.615961811e-15 -0.004547465207 2.190792786e-16 0.01908649045)
(0.01755964093 -4.584916182e-17 -0.005511735503 -1.305500882e-16 -0.001768770056 0 -0.004107601351 1.951740544e-16 0.01881690926)
(0.01753716844 -3.364926165e-17 -0.004791577758 -1.310146157e-16 -0.001477946616 0 -0.003625308619 1.736745049e-16 0.01856837578)
(0.01736160946 -2.03339357e-17 -0.004058547255 -1.277881417e-16 -0.001202319215 0 -0.003106661067 1.539526935e-16 0.01834610245)
(0.01703413201 -6.208988516e-18 -0.00332437548 -1.245927197e-16 -0.0009430308182 0 -0.002559010156 1.356029099e-16 0.01815460858)
(0.01655831525 9.140101993e-17 -0.002600011487 -1.233181012e-16 -0.0007010199483 0 -0.001990877585 1.180256115e-16 0.01799735373)
(0.01592835401 4.953752536e-17 -0.001894958205 -1.230344254e-16 -0.0004770580155 0 -0.001412161684 1.081862438e-16 0.01787644222)
(0.01513957644 -7.204295386e-17 -0.001219377537 -1.194373412e-16 -0.0002719941175 0 -0.0008350102399 1.021971043e-16 0.01779225121)
(0.01441813491 -3.155708013e-17 -0.0004440353862 -1.177706246e-16 -8.649639606e-05 0 -0.0002717973811 9.723958663e-17 0.01774300908)
(-0.008065529456 -6.560623082e-16 -0.0003891826703 -1.763476316e-15 -0.01311982946 0 -0.0001602103639 -2.527072417e-16 0.02647032112)
(-0.010676786 -1.475389481e-15 -0.0008715196069 3.493580364e-17 -0.01151393069 1.430970517e-13 -0.0004200274035 -7.185706107e-16 0.02644214987)
(-0.01037712139 5.850288742e-16 -0.001387008558 7.324642292e-16 -0.0109885084 0 -0.0006662309554 -2.958084048e-16 0.02637866731)
(-0.01040960821 1.99863813e-15 -0.001900982562 -1.582002848e-16 -0.01083774957 0 -0.0009210564613 -1.959345228e-17 0.02628631854)
(-0.01019530587 1.359428885e-15 -0.002394093555 -4.807431956e-16 -0.01072821022 0 -0.001178232162 1.842282042e-16 0.02616759111)
(-0.009872508901 2.278583189e-15 -0.00286067367 -5.959982227e-16 -0.01060825822 0 -0.001435710899 1.354086074e-16 0.02602523561)
(-0.009493020841 3.105016499e-15 -0.003299885652 -9.629797459e-16 -0.01047381572 0 -0.001693886811 1.070012781e-16 0.02586198888)
(-0.009060575523 2.87751591e-15 -0.003710769903 -1.237655114e-15 -0.01032457549 0 -0.001953083703 8.344279876e-17 0.02568050261)
(-0.008574512001 2.004130142e-15 -0.00409264799 -1.407256613e-15 -0.01016025193 0 -0.002213183144 6.293453769e-17 0.02548333855)
(-0.0080378961 4.62437085e-16 -0.004445357772 -1.349653512e-15 -0.009980884034 0 -0.00247362527 4.265826043e-17 0.02527293319)
(-0.007454820823 -8.044271941e-17 -0.004769367687 -1.255456886e-15 -0.009787034967 0 -0.002733687035 2.183970432e-17 0.02505155045)
(-0.006828155044 2.550711823e-16 -0.005065723231 -1.178494627e-15 -0.009579401346 -1.23140663e-14 -0.002992577834 5.260697175e-17 0.02482131034)
(-0.006160335309 -1.670775319e-16 -0.00533564777 -1.114649946e-15 -0.009358706505 0 -0.003249115411 -7.303984648e-19 0.02458414213)
(-0.005453826525 -6.302593899e-16 -0.005580610419 -9.960657038e-16 -0.009125668079 0 -0.003501881105 -1.359809332e-17 0.02434178556)
(-0.004711991738 -3.282208659e-16 -0.005802374394 -8.911772317e-16 -0.008881013038 0 -0.003749375574 1.019829613e-17 0.02409575346)
(-0.003938702251 -6.287277076e-16 -0.006002642983 -8.171533318e-16 -0.008625552808 0 -0.003989812319 2.950897745e-17 0.02384734202)
(-0.003137423126 -1.567449775e-15 -0.00618306989 -7.505986331e-16 -0.008360128931 0 -0.004221284457 3.984129806e-17 0.02359761378)
(-0.00231210332 -1.900273391e-15 -0.006345161826 -6.155545819e-16 -0.008085579357 0 -0.004441801722 4.465096594e-17 0.0233473936)
(-0.001467378316 -1.478164313e-15 -0.006490042825 -4.897044747e-16 -0.007802795498 0 -0.004649239988 7.626861075e-17 0.02309725303)
(-0.0006073924729 -1.107317974e-15 -0.006618598914 -4.067938374e-16 -0.007512704915 0 -0.004841642468 1.058980486e-16 0.02284753082)
(0.0002635015332 -1.018036611e-15 -0.006731230269 -3.63139409e-16 -0.007216214877 0 -0.005017079247 1.590851872e-16 0.02259833058)
(0.001140064256 -1.126952502e-15 -0.006827549722 -3.219864292e-16 -0.006914266379 -8.676686935e-15 -0.005173468579 2.341661586e-16 0.02234953687)
(0.002017492434 -1.020155877e-15 -0.006906534181 -2.496509936e-16 -0.006607834559 0 -0.00530878228 2.670877851e-16 0.0221008541)
(0.002890645034 -7.649103909e-16 -0.006966710241 -2.129069361e-16 -0.006297873353 8.385257789e-15 -0.00542123377 2.85652218e-16 0.0218518534)
(0.00375303838 -5.571599941e-16 -0.007006164918 -1.937344579e-16 -0.005985376163 -8.266003537e-15 -0.005509243252 3.435362631e-16 0.02160201377)
(0.004599092702 -3.573189345e-16 -0.00702255791 -1.75351391e-16 -0.005671387785 -8.1618102e-15 -0.005571304604 3.51404414e-16 0.02135081199)
(0.005424365228 -1.467704554e-16 -0.007013438366 -1.73402812e-16 -0.005356911691 0 -0.005606131885 3.306234585e-16 0.02109779722)
(0.00622297298 5.321900381e-17 -0.006976336626 -1.561050126e-16 -0.005042921965 0 -0.005612642063 3.290374974e-16 0.0208426478)
(0.006988204323 5.394846614e-17 -0.006908922162 -1.47046982e-16 -0.004730433291 0 -0.00558995705 3.28979858e-16 0.02058525298)
(0.007714176236 5.859922531e-17 -0.006809382055 -1.459803492e-16 -0.004420465818 0 -0.005537533272 3.178377645e-16 0.02032579491)
(0.008395283385 -1.085445732e-16 -0.006676463924 -1.450840351e-16 -0.004114020043 0 -0.005455099588 3.091037105e-16 0.02006478787)
(0.009025207526 -2.710980869e-16 -0.006509415201 -1.367472138e-16 -0.003812081029 0 -0.00534262377 3.136203606e-16 0.01980310238)
(0.009597254536 -4.346828512e-16 -0.006308216478 -1.059203738e-16 -0.003515643687 7.747318773e-15 -0.005200466264 3.070639776e-16 0.01954195324)
(0.01010629195 -5.817757337e-16 -0.006073579705 -1.206635055e-16 -0.003225697166 -7.722464355e-15 -0.005029284242 3.279297526e-16 0.01928287916)
(0.01054746224 -5.560606294e-16 -0.005806863453 -9.028518405e-17 -0.002943165689 0 -0.004830057222 3.28711311e-16 0.01902766772)
(0.01091548447 -3.689048348e-16 -0.005510064486 -9.014641471e-17 -0.002668957212 -7.692494055e-15 -0.004604156126 3.322304428e-16 0.01877827241)
(0.01120643283 -1.851236098e-16 -0.005185748319 -8.257037857e-17 -0.00240393856 -7.686551605e-15 -0.004353268467 3.172696879e-16 0.01853673367)
(0.01141711914 -2.486369349e-17 -0.004837097689 -7.506020677e-17 -0.00214891056 -7.686165173e-15 -0.004079495298 2.840961114e-16 0.01830507665)
(0.01154509557 1.10967248e-16 -0.004467763093 -6.759694347e-17 -0.001904615007 0 -0.003785262298 2.340771444e-16 0.01808522714)
(0.01158905614 -7.608515692e-17 -0.004081815712 -6.76834755e-17 -0.00167171504 0 -0.003473323384 1.874413102e-16 0.01787893995)
(0.01154888784 -1.545408373e-16 -0.003683690356 -6.404434833e-17 -0.001450790598 7.715460316e-15 -0.003146762394 1.509890323e-16 0.01768774198)
(0.01142583142 1.736593042e-16 -0.003278055914 -6.42029726e-17 -0.001242322953 0 -0.002808951651 1.383161042e-16 0.01751288625)
(0.01122197984 3.965917916e-16 -0.002869689352 -7.007970469e-17 -0.0010466892 0 -0.002463515592 1.281937918e-16 0.01735531787)
(0.01094031332 3.739851215e-16 -0.00246330103 -7.603142114e-17 -0.0008641668901 0 -0.002114205754 1.279111562e-16 0.01721565176)
(0.01058547784 3.622392587e-16 -0.002063411959 -8.015716379e-17 -0.0006949291451 0 -0.001764820717 1.193564529e-16 0.01709416709)
(0.01016380515 3.674334584e-16 -0.001674140961 -8.339680196e-17 -0.000539028258 0 -0.001419075335 1.200848822e-16 0.01699077869)
(0.009679918056 2.734796539e-16 -0.001299062475 -8.574027912e-17 -0.0003963945451 0 -0.001080520698 1.214333101e-16 0.0169049581)
(0.009129163942 1.213797178e-16 -0.0009414201559 -8.862769179e-17 -0.0002669138226 -7.934842089e-15 -0.0007526254466 1.28103558e-16 0.01683590569)
(0.008499360274 7.005275702e-17 -0.000605047858 -8.81720147e-17 -0.0001506103878 0 -0.0004390119755 1.205858452e-16 0.01678393678)
(0.007973183784 3.449629685e-17 -0.000220786281 -8.762027504e-17 -4.764366296e-05 0 -0.0001421879906 1.14093958e-16 0.01675207546)
(-0.006321990226 3.476967491e-15 -0.0002493339839 -7.605006161e-15 -0.01031354024 0 -0.0001989353139 -6.118791866e-17 0.02413567915)
(-0.008340850889 8.387318991e-16 -0.0005425017754 -5.623561042e-15 -0.009034939335 0 -0.0005213187063 -1.779088885e-16 0.02411309439)
(-0.008069365516 -1.216439889e-15 -0.000857569389 -2.712942553e-15 -0.008600970338 0 -0.0008243461354 -3.168019914e-16 0.02406450601)
(-0.008056995956 -4.57296286e-16 -0.001179287003 -1.73517158e-15 -0.008464288838 0 -0.001132629883 -1.45734003e-16 0.02399340609)
(-0.007840934143 -6.637379872e-17 -0.001489184484 -1.310512387e-15 -0.008358796458 0 -0.001436247844 -3.102716551e-17 0.02390171593)
(-0.007530384219 1.642818604e-16 -0.001784365843 -1.102474412e-15 -0.008243074224 0 -0.00173117399 5.44488462e-17 0.02379156703)
(-0.007166622157 3.094930781e-16 -0.002064774107 -9.779768217e-16 -0.008113580694 0 -0.002016626582 2.822165632e-16 0.02366498706)
(-0.006754431446 3.92905151e-16 -0.002329945171 -8.882304475e-16 -0.007970097661 0 -0.002292040116 4.838808631e-16 0.02352393753)
(-0.006296902004 4.369358147e-16 -0.002579500873 -8.514220253e-16 -0.007812692692 0 -0.002556648363 6.723402545e-16 0.02337029181)
(-0.005798629243 4.993874343e-16 -0.002813166044 -8.112143344e-16 -0.007642037816 0 -0.002809431269 8.719545687e-16 0.02320582273)
(-0.005262837247 1.285528931e-16 -0.003030995201 -7.806176867e-16 -0.007458957949 0 -0.003049518601 8.738773643e-16 0.02303219987)
(-0.004693826264 1.305713133e-16 -0.003233265393 -6.839131704e-16 -0.007264264635 0 -0.00327610138 8.988152946e-16 0.02285091951)
(-0.004096469503 1.809373561e-16 -0.003420179675 -7.046178936e-16 -0.007058980576 -1.182833972e-14 -0.00348820708 9.404482109e-16 0.02266330873)
(-0.0034744145 -4.166230919e-16 -0.003591885531 -6.487294e-16 -0.006844127036 0 -0.003684789714 9.566047574e-16 0.02247053651)
(-0.002832440279 -6.085573093e-16 -0.003748554528 -5.682910287e-16 -0.006620678033 -1.077648173e-14 -0.003864886181 9.759175179e-16 0.02227357749)
(-0.002175647845 -4.583075199e-16 -0.003890274925 -5.060240019e-16 -0.006389728157 -1.036337156e-14 -0.004027594936 9.885161431e-16 0.02207322037)
(-0.001507845277 -3.279465395e-16 -0.004016854168 -4.495545601e-16 -0.006152337719 -1.000747543e-14 -0.004171963976 9.21325545e-16 0.02187010263)
(-0.0008335730088 -4.928313218e-16 -0.004127950081 -4.167606613e-16 -0.005909509436 0 -0.004297133105 7.551326646e-16 0.02166469773)
(-0.0001571755944 -6.637734791e-16 -0.004223092061 -3.591834593e-16 -0.005662288926 9.430868264e-15 -0.004402381887 6.06410648e-16 0.0214573506)
(0.0005175361946 -8.242058619e-16 -0.004301592113 -3.233184167e-16 -0.00541164806 0 -0.004487059742 5.2154342e-16 0.02124830935)
(0.00118522279 -1.227223701e-15 -0.004362486586 -2.546440302e-16 -0.005158545925 0 -0.004550528048 4.43744839e-16 0.02103773098)