/*--------------------------------*- C++ -*----------------------------------*\
  =========                 |
  \\      /  F ield         | OpenFOAM: The Open Source CFD Toolbox
   \\    /   O peration     | Website:  https://openfoam.org
    \\  /    A nd           | Version:  7
     \\/     M anipulation  |
\*---------------------------------------------------------------------------*/
FoamFile
{
    version     2.0;
    format      ascii;
    class       volScalarField;
    location    "0.0021";
    object      p;
}
// * * * * * * * * * * * * * * * * * * * * * * * * * * * * * * * * * * * * * //

dimensions      [1 -1 -2 0 0 0 0];

internalField   nonuniform List<scalar> 
14000
(
1117295.117
1146861.308
1145245.918
1147305.23
1152852.452
1159835.333
1167922.019
1177166.177
1187571.373
1199123.785
1211824.536
1225687.925
1240735.875
1256995.851
1274500.399
1293282.964
1313364.044
1334768.448
1357565.101
1381809.346
1407550.757
1434820.717
1463678.081
1494233.539
1526549.223
1560709.253
1596851.673
1635059.46
1675506.084
1718308.017
1763604.648
1811606.392
1862478.994
1916344.223
1973289.299
2033415.009
2096681.004
2162971.484
2231979.204
2303338.369
2376442.361
2450553.322
2524809.446
2598285.814
2670096.602
2739300.66
2804730.344
2865961.633
2926937.568
2990573.885
1263458.94
1299282.07
1297376.479
1300011.863
1306903.63
1315490.663
1325303.813
1336360.143
1348604.94
1362002.035
1376522.736
1392157.039
1408911.354
1426789.686
1445797.992
1466022.894
1487519.607
1510298.881
1534470.798
1560095.116
1587236.359
1615973.5
1646368.583
1678439.756
1712247.985
1747782.474
1784978
1823725.174
1863881.427
1905240.167
1947490.816
1990252.01
2033118.536
2075665.138
2117436.164
2157990.526
2196959.238
2234025.199
2268938.36
2301491.943
2331559.571
2359035.449
2383788.516
2405670.36
2424451.445
2439855.315
2451548.569
2458761.627
2459859.724
2454805.204
1291158.155
1328407.667
1325937.854
1327292.145
1332572.682
1339331.844
1347158.326
1356157.842
1366386.074
1377845.522
1390522.129
1404407.238
1419556.602
1435966.592
1453647.075
1472625.35
1492899.159
1514492.601
1537368.754
1561432.812
1586659.142
1612982.656
1640278.318
1668347.981
1697023.978
1726107.898
1755341.644
1784532.517
1813400.335
1841717.288
1869293.085
1895935.662
1921460.089
1945773.392
1968732.895
1990262.555
2010249.529
2028579.338
2045191.695
2059935.311
2072692.846
2083290.079
2091589.049
2097436.754
2100656.791
2101119.429
2098744.529
2093297.138
2084085.159
2071945.205
1487418.741
1520773.464
1518406.925
1519923.083
1525177.461
1531905.591
1539730.551
1548709.562
1558901.175
1570289.738
1582806.225
1596469.162
1611231.18
1627107.525
1644036.133
1661969.418
1680837.142
1700580.504
1721066.152
1742204.13
1763870.685
1785908.919
1808162.801
1830501.322
1852704.685
1874614.965
1896112.523
1917049.164
1937237.652
1956574.354
1974923.741
1992189.775
2008210.129
2022911.781
2036225.291
2048010.863
2058227.368
2066777.269
2073604.504
2078643.294
2081847.598
2083186.884
2082638.437
2080179.53
2075825.889
2069639
2061688.341
2051839.171
2039592.612
2025888.027
1544867.2
1574937.266
1573420.853
1575040.707
1579887.487
1586060.809
1593208.762
1601392.449
1610603.472
1620751.873
1631855.614
1643858.639
1656666.249
1670256.893
1684544.679
1699399.111
1714776.515
1730553.973
1746607.77
1762873.992
1779181.443
1795385.389
1811373.894
1827051.431
1842297.274
1856964.003
1870970.556
1884199.462
1896549.926
1907958.556
1918345.649
1927607.961
1935740.099
1942624.992
1948272.739
1952622.244
1955639.186
1957314.739
1957634.066
1956594.993
1954191.247
1950443.831
1945397.125
1939085.789
1931533.88
1922784.595
1913032.764
1902418.028
1890743.773
1878490.954
1681546.665
1705613.099
1704556.031
1706406.059
1711004.944
1716782.679
1723447.903
1730984.721
1739387.256
1748498.761
1758354.449
1768822.46
1779806.452
1791215.464
1803025.679
1815078.67
1827276.17
1839555.348
1851805.671
1863908.76
1875744.164
1887235.044
1898301.393
1908839.387
1918778.598
1928060.847
1936554.026
1944238.923
1951052.05
1956936.805
1961861.208
1965763.977
1968672.671
1970496.323
1971253.823
1970963.006
1969572.183
1967097.949
1963594.594
1959059.423
1953485.819
1946959.007
1939604.022
1931512.283
1922108.62
1909334.143
1896472.629
1915647.772
2007575.557
2107854.228
1710417.274
1730192.376
1729767.051
1731482.12
1735341.769
1740131.37
1745653.287
1751798.741
1758552.612
1765860.793
1773578.665
1781684.391
1790081.677
1798654.313
1807332.392
1816060.11
1824724.917
1833244.264
1841544.907
1849541.729
1857138.594
1864318.072
1871010.08
1877099.511
1882568.97
1887376.191
1891470.268
1894793.443
1897351.08
1899078.598
1899987.233
1900062.905
1899262.579
1897639.65
1895162.011
1891829.224
1887697.157
1882771.074
1877068.324
1870671.843
1863715.754
1856263.839
1847220.213
1834720.886
1827807.776
1868994.731
1957646.835
2043875.229
2116640.684
2180430.483
1782377.957
1797146.106
1796786.762
1798237.92
1801394
1805321.859
1809756.926
1814706.78
1820036.607
1825767.774
1831748.858
1837893.245
1844173.779
1850494.084
1856772.41
1862930.929
1868899.295
1874622.79
1880043.022
1885098.451
1889723.155
1893881.197
1897508.601
1900559.598
1903029.859
1904827.223
1906003.048
1906460.754
1906254.483
1905315.729
1903672.515
1901325.194
1898234.112
1894481.939
1890036.892
1884923.384
1879213.379
1872922.969
1866257.779
1859212.817
1850512.148
1838178.119
1833654.437
1885463.721
1975615.099
2063665.338
2137585.124
2175422.925
2145809.603
2101854.311
1787677.151
1799692.805
1799522.7
1800585.707
1802914.876
1805832.677
1809051.519
1812648.226
1816489.231
1820511.352
1824685.152
1828919.748
1833149.422
1837317.525
1841367.733
1845245.24
1848890.358
1852225.194
1855209.293
1857821.957
1860033.43
1861757.423
1862986.897
1863694.575
1863851.8
1863447.24
1862454.73
1860874.179
1858693.117
1855911.888
1852544.943
1848572.228
1844058.391
1838976.579
1833376.026
1827335.761
1820997.359
1814415.03
1806083.974
1793950.376
1790802.905
1848811.332
1941711.591
2031888.244
2103456.585
2123368.704
2094698.126
2058153.154
2022647.412
1988643.696
1817055.982
1826467.935
1826089.225
1826781.449
1828513.741
1830626.723
1832994.422
1835539.69
1838270.907
1841101.68
1843971.697
1846836.771
1849642.27
1852324.63
1854835.442
1857143.343
1859215.807
1861002.571
1862443.995
1863496.703
1864198.543
1864474.892
1864300.578
1863704.57
1862603.9
1861073.431
1859028.148
1856543.95
1853552.15
1850133.191
1846235.733
1841921.164
1837192.36
1832125.544
1826902.257
1821519.958
1814372.059
1803361.842
1802075.764
1865181.292
1960946.635
2053452.407
2125147.613
2137389.572
2110364.381
2078609.742
2049469.737
2022786.813
1998931.637
1979777.268
1805884.515
1814237.278
1813772.524
1814087.819
1815146.197
1816443.181
1817895.829
1819438.696
1821018.05
1822643.152
1824248.528
1825786.739
1827220.536
1828514.462
1829635.481
1830549.362
1831219.259
1831622.301
1831751.63
1831575.645
1831064.392
1830234.306
1829059.807
1827534.305
1825666.016
1823444.399
1820885.514
1818000.188
1814789.799
1811290.278
1807486.422
1803478.498
1799434.993
1795336.66
1789546.452
1779839.95
1780373.396
1846955.234
1944141.09
2037851.296
2110146.8
2120103.211
2095593.649
2067737.483
2042453.252
2019450.885
1999526.649
1986184.826
1983308.765
1988863.34
1808398.477
1815829.271
1815141.319
1815108.263
1815678.789
1816443.505
1817219.158
1818056.839
1818900.289
1819701.988
1820428.589
1821075.037
1821616.618
1822024.08
1822267.324
1822308.017
1822137.898
1821749.331
1821139.529
1820282.723
1819165.2
1817808.858
1816178.034
1814287.069
1812173.075
1809788.07
1807206.723
1804356.38
1801337.231
1798119.169
1794990.748
1791826.387
1787032.261
1778318.918
1779979.668
1848088.75
1945703.334
2039973.376
2112609.49
2121030.769
2097792.462
2071917.052
2048447.244
2027082.909
2008652.414
1996425.236
1993911.867
2000192.634
2010828.038
2022271.255
1788465.978
1795908.63
1795040.862
1794689.023
1794892.689
1795167.532
1795439.065
1795644.432
1795842.786
1795989.539
1796049.852
1796005.022
1795837.537
1795530.799
1795070.28
1794445.023
1793656.311
1792711.997
1791556.488
1790186.405
1788648.726
1786908.381
1784947.43
1782834.396
1780498.19
1777999.311
1775318.148
1772507.023
1769774.999
1767042.325
1762694.022
1754482.398
1756347.163
1823698.742
1921084.367
2015737.293
2088591.818
2095340.957
2072248.961
2046988.683
2023842.216
2002514.197
1983882.184
1971335.004
1968654.393
1974898.707
1984961.776
1995306.116
2005090.021
2013992.798
1776722.863
1784128.613
1783035.963
1782501.033
1782475.028
1782462.474
1782426.403
1782330.821
1782147.303
1781897.861
1781579.337
1781156.302
1780611.418
1779934.935
1779123.295
1778184.912
1777100.291
1775845.653
1774390.074
1772796.825
1771047.747
1769100.584
1767003.038
1764742.171
1762289.336
1759734.41
1757239.721
1754756.983
1750696.103
1742855.522
1744412.436
1809206.36
1906045.76
2001242.468
2074708.937
2080780.592
2057683.219
2032598.248
2009466.754
1987824.11
1968576.938
1955091.298
1951537.063
1957425.459
1967562.7
1978007.459
1987496.428
1995605.924
2002298.026
2007827.198
1752393.27
1760244.707
1759045.588
1758350.491
1758112.35
1757896.747
1757583.774
1757232.937
1756766.815
1756207.843
1755557.847
1754804.956
1753939.494
1752954.121
1751839.549
1750588.207
1749195.011
1747649.167
1745940.252
1744092.66
1742094.957
1739935.353
1737609.597
1735176.697
1732821.078
1730459.875
1726629.829
1719126.022
1720079.009
1780938.725
1876710.761
1972320.526
2046792.484
2053985.121
2031284.893
2006337.181
1983318.702
1961634.036
1941913.344
1927373.089
1922723.962
1928193.918
1938607.451
1949540.765
1959556.178
1968216.625
1975230.888
1980635.112
1984974.829
1988769.09
1732101.466
1740297.93
1738948.303
1738115.406
1737756.478
1737418.032
1736960.809
1736425.386
1735788.748
1735049.469
1734208.452
1733257.239
1732188.208
1730995.77
1729674.822
1728218.676
1726622.052
1724887.741
1723019.14
1720983.371
1718795.288
1716533.857
1714314.019
1712096.547
1708549.334
1701444.387
1701777.405
1758222.506
1852563.361
1948284.753
2023891.002
2034028.524
2012265.015
1987537.157
1964581.128
1943051.878
1923223.084
1907683.761
1901505.59
1906224.28
1916903.082
1928481.028
1939168.499
1948524.984
1956278.722
1962373.966
1967093.611
1970953.267
1974536.901
1978050.229
1704138.193
1712811.447
1711346.056
1710392.818
1709936.095
1709461.595
1708863.265
1708153.178
1707337.634
1706416.589
1705384.011
1704235.181
1702964.758
1701566.273
1700035.875
1698370.498
1696566.518
1694630.975
1692588.85
1690434.837
1688312.989
1686233.709
1682921.426
1676183.461
1676020.708
1728459.584
1821029.002
1916327.1
1992895.598
2007027.183
1986553.014
1962111.367
1939203.736
1917768.159
1897862.273
1881508.61
1873559.039
1876973.767
1887701.611
1899982.645
1911443.944
1921580.623
1930132.836
1937002.903
1942409.904
1946788.054
1950578.962
1954102.475
1957577.638
1960983.521
1677772.219
1686765.715
1685170.048
1684119.003
1683600.651
1683028.704
1682334.849
1681499.313
1680566.133
1679528.462
1678371.259
1677090.194
1675683.21
1674147.836
1672479.529
1670672.138
1668730.511
1666715.826
1664789.238
1662896.297
1659785.048
1653373.459
1653073.715
1703027.53
1793758.588
1888065.257
1965167.295
1983352.392
1964472.775
1940492.841
1917792.066
1896361.314
1876383.638
1859291.043
1849534.706
1851146.817
1861425.402
1874301.444
1886580.07
1897567.06
1906994.309
1914707.583
1920850.136
1925833.932
1930114.721
1934005.323
1937621.658
1941019.078
1944329.854
1947550.038
1646517.299
1655879.934
1654194.455
1653045.064
1652447.317
1651784.842
1650982.541
1650007.363
1648959.496
1647795.874
1646482.273
1645033.363
1643464.99
1641778.471
1639985.277
1638142.588
1636366.635
1634572.86
1631539.987
1625337.682
1625391.849
1675424.928
1764361.913
1856945.323
1933817.336
1955164.865
1937541.481
1914303.978
1892011.091
1870562.801
1850461.208
1832702.966
1821088.588
1820509.872
1829933.54
1843191.588
1856209.188
1868015.556
1878340.466
1886971.319
1893942.857
1899597.687
1904406.049
1908736.126
1912756.655
1916497.507
1919949.552
1923150.216
1926248.152
1929250.289
1616252.329
1625794.242
1624061.669
1622844.378
1622149.86
1621436.593
1620514.591
1619477.622
1618330.182
1617012.124
1615566.828
1614011.591
1612363.723
1610678.956
1609055.271
1607372.282
1604343.325
1598128.969
1599246.701
1653174.016
1740590.884
1830580.511
1906103.501
1928735.632
1911973.778
1889301.112
1867551.725
1846443.312
1826153.894
1807781.954
1794351.978
1791196.801
1799191.785
1812584.469
1826301.334
1838879.822
1850051.205
1859590.802
1867427.796
1873811.609
1879194.091
1883988.052
1888420.225
1892549.951
1896379.288
1899906.048
1903138.936
1906124.94
1909023.428
1911858.866
1583069.81
1592693.441
1590902.934
1589649.299
1588874.52
1588039.963
1587021.334
1585873.634
1584562.699
1583138.16
1581641.578
1580079.423
1578516.971
1576822.643
1573550.721
1566970.957
1570179.312
1633219.148
1719485.794
1805730.805
1878329.806
1899204.894
1882770.232
1860723.805
1839396.315
1818524.337
1798272.816
1779373.215
1764392.957
1758623.71
1764679.499
1777824.443
1792143.119
1805463.624
1817453.864
1827889.718
1836621.436
1843785.968
1849776.481
1855030.079
1859849.125
1864347.022
1868529.59
1872394.853
1875955.475
1879223.598
1882215.343
1884996.431
1887736.823
1890452.081
1551130.074
1560687.578
1558816.036
1557466.356
1556635.158
1555712.482
1554630.801
1553401.843
1552049.961
1550574.161
1548987.832
1546942.139
1542993.572
1537914.477
1552423.937
1623454.944
1706642.539
1787843.459
1855707.416
1870592.044
1853712.146
1832474.474
1811693.961
1791095.82
1770967.968
1751891.46
1735609.059
1727126.429
1730701.68
1743183.731
1757998.262
1771996.633
1784693.763
1795932.858
1805525.798
1813490.915
1820138.964
1825896.144
1831107.345
1835944.014
1840445.087
1844614.16
1848460.65
1852001.863
1855256.778
1858253.219
1861023.282
1863635.506
1866246.602
1868856.559
1516486.096
1526122.923
1524341.21
1523052.779
1522244.002
1521278.775
1520022.817
1518507.752
1516718.518
1513840.217
1508463.196
1509298.395
1552606.282
1624085.952
1699918.811
1774774.844
1835931.544
1839403.321
1821154.75
1801070.674
1781128.789
1760988.677
1741136.949
1722120.252
1705120.841
1694451.199
1695342.784
1706525.774
1721478.569
1736049.786
1749403.811
1761398.545
1771821.533
1780584.243
1787893.684
1794157.82
1799767.306
1804950.463
1809773.292
1814244.523
1818371.889
1822172.385
1825663.69
1828872.652
1831837.973
1834598.654
1837183.539
1839640.973
1842107.391
1844578.456
1490618.067
1498802.153
1496077.704
1493593.345
1491254.987
1488758.975
1485463.358
1480352.442
1479890.509
1512282.658
1572323.911
1638013.868
1704514.796
1769844.504
1814795.921
1807291.96
1788555.08
1769832.213
1750852.944
1731365.458
1711997.191
1693259.38
1675934.587
1663581.272
1661880.64
1671419.047
1686202.373
1701194.346
1715076.419
1727713.019
1738904.449
1748467.499
1756476.397
1763271.312
1769260.165
1774742.065
1779836.987
1784568.835
1788946.201
1792979.318
1796686.198
1800088.045
1803219.319
1806122.894
1808839.508
1811394.514
1813798.535
1816089.328
1818396.7
1820717.915
1426779.837
1437615.608
1435896.288
1433749.635
1434973.663
1456123.6
1498473.482
1547674.859
1600045.55
1655154.04
1713258.731
1765339.071
1778819.185
1766894.202
1750849.562
1734214.823
1716659.314
1698424.113
1680153.149
1662271.411
1645279.084
1632060.462
1628443.467
1636433.183
1650891.561
1666222.113
1680557.121
1693719.14
1705546.588
1715829.275
1724539.311
1731914.747
1738332.651
1744132.911
1749500.057
1754485.365
1759098.419
1763350.649
1767260.79
1770846.801
1774136.901
1777171.363
1779994.432
1782642.443
1785137.414
1787490.868
1789710.05
1791830.037
1793972.393
1796131.825
1499931.523
1516343.062
1531215.547
1553338.248
1582137.599
1616030.04
1654891.097
1698580.858
1740504.381
1754969.493
1746000.297
1732775.535
1718932.055
1703620.347
1686959.022
1669604.635
1652147.7
1634878.326
1618084.037
1604328.035
1599146.676
1605433.14
1619080.846
1634329.757
1648809.254
1662231.073
1674457.621
1685264.256
1694528.658
1702375.515
1709133.745
1715175.835
1720750.794
1725938.106
1730748.141
1735188.261
1739275.581
1743028.974
1746469.555
1749631.56
1752557.748
1755288.931
1757854.317
1760272
1762555.88
1764716.524
1766759.895
1768717.661
1770700.157
1772706.424
1673130.249
1676450.098
1690434.45
1711057.451
1734046.208
1743503.105
1737370.37
1727706.182
1717344.894
1705824.944
1692600.238
1677964.803
1662003.685
1645186.787
1628273.32
1611466.5
1594920.628
1580857.368
1574501.462
1579077.598
1591397.922
1605973.43
1620047.492
1633253.114
1645486.655
1656503.826
1666105.966
1674304.438
1681342.625
1687561.349
1693245.408
1698532.24
1703454.077
1708016.012
1712228.014
1716106.153
1719665.309
1722931.439
1725942.88
1728742.609
1731365.747
1733833.738
1736161.121
1738361.513
1740447.576
1742428.101
1744306.596
1746112.643
1747952.075
1749819.279
1727651.755
1713548.811
1712708.855
1709771.069
1704571.466
1698009.909
1689918.556
1680108.181
1668540.936
1655133.531
1640496.777
1624898.752
1608419.075
1592172.781
1576331.839
1562635.197
1555871.991
1559073.736
1569719.321
1582872.173
1595913.068
1608366.028
1620114.544
1630907.156
1640491.521
1648774.186
1655889.845
1662127.761
1667788.203
1673059.124
1677994.131
1682594.34
1686861.26
1690805.533
1694439.797
1697779.587
1700854.225
1703702.874
1706363.946
1708865.073
1711222.552
1713448.802
1715556.642
1717556.381
1719458.255
1721268.735
1722993.125
1724657.481
1726360.801
1728095.232
1708913.524
1690048.887
1688505.917
1683899.96
1676178.493
1666243.692
1654638.462
1641377.945
1626969.142
1611587.829
1596035.874
1579683.93
1563924.828
1551061.439
1544545.176
1546605.074
1555069.646
1566050.768
1577301.475
1588349.636
1599047.673
1609114.661
1618243.198
1626242.332
1633149.689
1639185.14
1644633.491
1649713.81
1654504.727
1659009.2
1663219.253
1667135.842
1670765.768
1674115.261
1677202.428
1680058.754
1682722.104
1685224.101
1687583.792
1689813.186
1691923.135
1693924.712
1695827.885
1697641.119
1699373.269
1701030.759
1702614.324
1704145.34
1705717.013
1707323.829
1664562.118
1643487.04
1641021.609
1635325.522
1626923.705
1616338.863
1604353.903
1591715.351
1577788.945
1563765.168
1550024.744
1539258.017
1534759.849
1536852.981
1543497.667
1552283.182
1561633.8
1571132.74
1580606.663
1589748.652
1598200.817
1605741.593
1612334.171
1618113.215
1623307.307
1628133.095
1632708.44
1637052.83
1641151.208
1644993.11
1648577.258
1651905.381
1654982.642
1657829.196
1660477.149
1662960.237
1665302.778
1667516.706
1669611.459
1671598.123
1673485.601
1675282.593
1676995.651
1678634.974
1680207.939
1681717.636
1683164.482
1684571.615
1686022.189
1687509.555
1617244.579
1596618.741
1594325.559
1588687.225
1580458.194
1570788.756
1559713.444
1548512.48
1538274.734
1531290.799
1528816.18
1531076.242
1536043.076
1542462.658
1549781.692
1557560.114
1565585.201
1573540.828
1581070.443
1587946.704
1594061.611
1599450.606
1604277.93
1608752.359
1613021.546
1617117.821
1621026.463
1624723.418
1628198.487
1631448.054
1634468.582
1637268.592
1639870.942
1642306.974
1644604.161
1646778.92
1648840.145
1650795.317
1652653.424
1654422.079
1656107.897
1657715.632
1659253.549
1660728.758
1662146.431
1663510.185
1664824.391
1666112.372
1667448.724
1668821.673
1567601.292
1548578.378
1546819.339
1542414.881
1535989.519
1529677.242
1524689.021
1521856.866
1521843.96
1523839.807
1527628.941
1532460.293
1538209.554
1544624.231
1551438.56
1558366.684
1565069.729
1571335.66
1577013.817
1582056.8
1586565.604
1590750.839
1594758.283
1598631.294
1602356.955
1605910.351
1609274.998
1612441.679
1615403.851
1618157.66
1620713.771
1623096.271
1625337.271
1627459.508
1629473.218
1631384.437
1633200.287
1634929.033
1636577.127
1638148.605
1639650.483
1641089.315
1642469.927
1643794.526
1645070.183
1646303.32
1647497.038
1648670.501
1649895.284
1651158.599
1522293.979
1508434.701
1509213.776
1509328.068
1509034.268
1509306.553
1510698.197
1513155.366
1516478.156
1520801.9
1525837.984
1531534.279
1537606.533
1543852.728
1549961.828
1555771.358
1561122.824
1565908.325
1570228.312
1574233.409
1578045.965
1581734.781
1585302.768
1588718.348
1591971.585
1595056.494
1597957.417
1600663.975
1603179.141
1605519.947
1607713.098
1609783.892
1611748.329
1613613.957
1615385.296
1617067.835
1618668.783
1620194.876
1621650.355
1623042.099
1624375.415
1625656.308
1626888.636
1628078.05
1629229.032
1630345.368
1631430.446
1632501.717
1633621.224
1634777.976
1498635.335
1490942.448
1492977.627
1495013.617
1497198.365
1500113.375
1503711.254
1507942.795
1512830.417
1518171.668
1523818.407
1529611.002
1535328.062
1540805.641
1545927.81
1550559.245
1554785.834
1558705.351
1562409.044
1565966.755
1569432.294
1572778.507
1575974.38
1579006.223
1581866.023
1584545.217
1587032.98
1589340.052
1591490.81
1593513.475
1595430.501
1597253.313
1598984.794
1600629.333
1602194.007
1603684.282
1605104.38
1606457.38
1607749.842
1608987.678
1610174.563
1611315.15
1612416.768
1613487.975
1614532.299
1615548.469
1616538.867
1617519.241
1618544.669
1619601.941
1490317.395
1486316.521
1488549.674
1491223.097
1494329.752
1498016.334
1502238.939
1506920.988
1511933.884
1517075.358
1522265.483
1527284.699
1532074.004
1536496.537
1540595.576
1544422.215
1548023.109
1551511.282
1554910.697
1558194.874
1561337.823
1564315.235
1567132.929
1569794.42
1572281.446
1574590.855
1576736.095
1578741.421
1580630.581
1582417.444
1584112.481
1585721.636
1587250.914
1588705.684
1590091.647
1591413.98
1592677.216
1593885.812
1595042.665
1596147.908
1597210.341
1598237.238
1599234.489
1600206.955
1601160.103
1602093.154
1603003.322
1603905.023
1604848.84
1605821.807
1489943.207
1487720.974
1489772.258
1492336.102
1495350.798
1498847.544
1502759.235
1506983.077
1511323.605
1515682.073
1519933.941
1523992.882
1527836.007
1531490.867
1534954.268
1538346.221
1541658.31
1544855.186
1547919.681
1550868.762
1553678.541
1556332.212
1558818.001
1561122.033
1563258.355
1565248.146
1567120.331
1568893.007
1570574.639
1572170.244
1573683.383
1575118.634
1576482.363
1577780.845
1579017.619
1580198.5
1581328.24
1582412.29
1583452.891
1584453.41
1585418.399
1586355.984
1587271.053
1588167.335
1589047.221
1589911.644
1590755.479
1591592.506
1592467.841
1593367.84
1491793.876
1490322.648
1492096.183
1494328.808
1496928.952
1499904.295
1503194.456
1506658.75
1510157.642
1513661.037
1517050.021
1520382.142
1523609.405
1526806.889
1529954.985
1533001.59
1535975.876
1538855.235
1541605.355
1544199.526
1546648.874
1548956.778
1551108.814
1553108.973
1554973.321
1556723.863
1558382.523
1559957.686
1561454.001
1562878.59
1564235.08
1565526.186
1566753.638
1567920.336
1569035
1570101.97
1571123.684
1572103.716
1573049.753
1573969.124
1574860.689
1575730.487
1576583.175
1577420.693
1578244.077
1579052.509
1579843.914
1580628.307
1581445.229
1582282.181
1493853.112
1492599.638
1494057.781
1495869.964
1497940.179
1500312.066
1502925.593
1505640.041
1508439.983
1511278.355
1514136.295
1517004.423
1519886.913
1522707.042
1525510.672
1528244.746
1530858.235
1533372.124
1535785.561
1538064.771
1540184.293
1542156.783
1544001.914
1545746.472
1547399.869
1548968.621
1550452.677
1551861.612
1553202.576
1554479.81
1555697.935
1556862.025
1557974.882
1559037.661
1560052.876
1561025.029
1561959.429
1562862.217
1563739.141
1564594.928
1565432.036
1566251.859
1567057.319
1567849.532
1568628.782
1569393.906
1570142.589
1570881.622
1571648.841
1572433.896
1495144.175
1493893.523
1495047.928
1496447.071
1498062.97
1499953.549
1502023.931
1504233.377
1506595.798
1509008.147
1511523.351
1514035.348
1516569.336
1519072.264
1521505.284
1523896.329
1526200.353
1528379.288
1530441.399
1532396.844
1534230.373
1535941.927
1537557.801
1539096.572
1540567.785
1541974.468
1543312.58
1544582.767
1545793.425
1546949.621
1548053.598
1549110.331
1550125.535
1551102.275
1552035.181
1552932.363
1553801.367
1554647.153
1555473.309
1556283.361
1557079.236
1557861.055
1558629.973
1559387.051
1560131.846
1560860.493
1561571.088
1562271.38
1562996.702
1563735.606
1495449.038
1494131.062
1495078.115
1496225.453
1497576.197
1499132.68
1500857.72
1502780.9
1504807.635
1506930.499
1509105.055
1511312.555
1513498.142
1515690.204
1517815.105
1519865.716
1521854.078
1523735.845
1525498.719
1527163.163
1528755.038
1530273.351
1531714.544
1533090.465
1534405.464
1535663.891
1536874.182
1538031.001
1539132.388
1540185.713
1541196.704
1542168.313
1543102.783
1544002.679
1544871.503
1545713.104
1546533.658
1547337.183
1548126.46
1548902.501
1549665.645
1550416.897
1551157.053
1551885.628
1552599.659
1553294.214
1553971.577
1554638.28
1555326.391
1556024.859
1495119.917
1493768.122
1494626.016
1495648.654
1496802.897
1498114.89
1499630.305
1501302.778
1503053.726
1504912.835
1506790.61
1508716.162
1510618.484
1512499.257
1514344.427
1516101.795
1517783.323
1519398.741
1520925.883
1522380.387
1523779.902
1525135.046
1526433.328
1527670.664
1528857.133
1529996.644
1531092.5
1532148.562
1533158.948
1534128.691
1535062.828
1535962.582
1536830.058
1537670.92
1538490.38
1539289.899
1540074.222
1540846.146
1541606.577
1542355.309
1543091.008
1543817.403
1544532.683
1545233.481
1545916.381
1546581.742
1547229.262
1547864.666
1548518.619
1549182.417
1494544.879
1493169.851
1493951.408
1494848.968
1495830.704
1496982.184
1498315.902
1499754.579
1501293.123
1502899.53
1504539.685
1506194.694
1507846.064
1509452.449
1511025.582
1512532.096
1513972.271
1515367.311
1516718.231
1518014.757
1519265.207
1520474.484
1521646.312
1522768.723
1523847.614
1524887.056
1525888.31
1526855.309
1527789.925
1528689.715
1529557.167
1530396.417
1531212.563
1532009.374
1532789.262
1533556.273
1534312.546
1535058.758
1535794.451
1536517.804
1537231.546
1537935.166
1538624.658
1539297.279
1539950.799
1540588.917
1541208.22
1541814.259
1542434.662
1543066.174
1493813.973
1492400.339
1493109.677
1493892.038
1494743.857
1495772.525
1496936.158
1498177.639
1499522.426
1500903.836
1502329.538
1503744.656
1505160.982
1506530.552
1507865.884
1509173.731
1510435.232
1511665.27
1512873.31
1514037.374
1515161.669
1516251.813
1517312.016
1518337.045
1519324.167
1520277.408
1521200.121
1522094.707
1522962.689
1523799.722
1524611.67
1525404.002
1526180.091
1526941.829
1527690.696
1528431.563
1529164.111
1529887.566
1530600.464
1531300.862
1531993.276
1532672.093
1533334.726
1533979.281
1534606.02
1535217.163
1535808.757
1536384.365
1536974.564
1537575.709
1492967.958
1491517.906
1492159.673
1492848.875
1493610.827
1494505.667
1495505.842
1496591.57
1497751.339
1498934.842
1500151.187
1501356.222
1502559.064
1503739.335
1504899.829
1506052.896
1507176.231
1508275.568
1509354.775
1510404.937
1511424.019
1512415.313
1513380.299
1514319.354
1515226.787
1516107.568
1516964.235
1517796.477
1518602.837
1519387.81
1520156.241
1520911.145
1521654.513
1522387.141
1523111.091
1523829.262
1524539.794
1525241.414
1525932.151
1526611.3
1527278.915
1527931.847
1528567.813
1529183.333
1529784.843
1530369.565
1530932.343
1531478.442
1532041.245
1532611.934
1492038.04
1490553.036
1491131.679
1491752.958
1492420.9
1493188.136
1494036.691
1494973.895
1495960.94
1496970.362
1498004.34
1499037.049
1500073.484
1501113.357
1502143.182
1503168.722
1504176.335
1505163.743
1506133.612
1507088.361
1508017.755
1508924.178
1509808.239
1510670.663
1511510.15
1512328.989
1513126.6
1513902.254
1514658.408
1515402.079
1516135.153
1516859.524
1517575.771
1518282.101
1518984.673
1519681.538
1520371.234
1521051.853
1521718.008
1522373.611
1523016.165
1523642.691
1524249.235
1524839.711
1525415.847
1525972.603
1526505.925
1527026.782
1527561.226
1528100.1
1491027.703
1489517.12
1490048.779
1490604.597
1491175.465
1491825.233
1492544.991
1493337.907
1494169.963
1495036.578
1495925.715
1496830.649
1497744.297
1498669.603
1499589.357
1500504.966
1501411.702
1502305.404
1503186.905
1504055.452
1504905.17
1505737.002
1506551.562
1507348.442
1508128.829
1508890.902
1509635.68
1510365.682
1511081.084
1511790.437
1512494.35
1513192.786
1513883.963
1514567.623
1515249.169
1515925.624
1516594.219
1517249.341
1517891.45
1518522.755
1519139.345
1519736.807
1520316.334
1520882.925
1521431.768
1521959.113
1522466.435
1522962.474
1523467.975
1523975.185
1489932.247
1488416.378
1488906.787
1489391.716
1489872.247
1490418.306
1491029.088
1491703.986
1492418.082
1493172.941
1493951.758
1494755.812
1495570.291
1496395.46
1497219.181
1498041.913
1498863.27
1499676.71
1500480.988
1501273.295
1502053.142
1502820.957
1503576.089
1504315.112
1505040.342
1505752.747
1506454.288
1507144.276
1507827.741
1508509.556
1509188.68
1509863.072
1510529.356
1511193.487
1511855.348
1512511.014
1513154.297
1513782.552
1514402.068
1515008.24
1515596.506
1516166.07
1516722.032
1517261.817
1517781.914
1518282.222
1518765.918
1519235.697
1519711.353
1520191.693
1488764.698
1487256.232
1487701.78
1488125.525
1488532.564
1488996.001
1489524.541
1490110.293
1490737.247
1491403.018
1492094.617
1492809.669
1493537.402
1494275.151
1495019.034
1495765.787
1496511.211
1497253.466
1497989.394
1498715.166
1499435.054
1500147.743
1500848.939
1501533.592
1502211.715
1502884.108
1503549.134
1504204.185
1504862.281
1505520.599
1506176.412
1506826.239
1507471.24
1508117.185
1508758.932
1509389.849
1510004.949
1510610.824
1511205.675
1511784.224
1512343.669
1512888.923
1513419.475
1513931.502
1514424.053
1514900.762
1515359.284
1515800.805
1516250.83
1516706.682
1487546.373
1486054.014
1486463.306
1486839.855
1487191.639
1487594.063
1488060.267
1488576.742
1489133.165
1489724.293
1490341.512
1490978.912
1491633.361
1492299.502
1492975.346
1493655.47
1494333.705
1495013.3
1495689.797
1496358.462
1497026.437
1497687.356
1498334.954
1498976.847
1499617.817
1500255.687
1500887.696
1501518.023
1502153.369
1502789.512
1503422.129
1504047.963
1504676.067
1505302.648
1505920.058
1506521.6
1507113.47
1507696.42
1508264.486
1508813.632
1509348.169
1509869.393
1510373.066
1510857.094
1511325.761
1511778.35
1512209.435
1512626.754
1513053.76
1513481.432
1486314.121
1484849.065
1485229.896
1485570.506
1485881.175
1486238.282
1486650.874
1487109.068
1487605.517
1488131.682
1488685.925
1489260.529
1489853.973
1490457.56
1491072.636