/*--------------------------------*- C++ -*----------------------------------*\
  =========                 |
  \\      /  F ield         | OpenFOAM: The Open Source CFD Toolbox
   \\    /   O peration     | Website:  https://openfoam.org
    \\  /    A nd           | Version:  7
     \\/     M anipulation  |
\*---------------------------------------------------------------------------*/
FoamFile
{
    version     2.0;
    format      ascii;
    class       volVectorField;
    location    "0.0021";
    object      U;
}
// * * * * * * * * * * * * * * * * * * * * * * * * * * * * * * * * * * * * * //

dimensions      [0 1 -1 0 0 0 0];

internalField   nonuniform List<vector> 
14000
(
(-6.07285728e-08 3.314763166e-20 -0.002000023234)
(-1.593329716e-07 3.458891923e-20 -0.002000029053)
(-2.538642441e-07 2.082731992e-20 -0.002000043687)
(-3.535454691e-07 3.773055397e-21 -0.002000064794)
(-4.564175864e-07 -1.570219658e-20 -0.002000092261)
(-5.622497072e-07 -3.029918874e-21 -0.002000125866)
(-6.716293483e-07 4.073409505e-21 -0.002000165327)
(-7.850704082e-07 8.140850865e-21 -0.002000210398)
(-9.029116717e-07 1.047063973e-20 -0.002000260876)
(-1.025365741e-06 1.203750819e-20 -0.002000316596)
(-1.152536065e-06 1.330061597e-20 -0.002000377422)
(-1.284419551e-06 1.419132557e-20 -0.002000443246)
(-1.420909862e-06 1.478930691e-20 -0.002000513985)
(-1.561801311e-06 1.550687721e-20 -0.00200058958)
(-1.706791631e-06 1.629820221e-20 -0.002000669989)
(-1.855484822e-06 1.698787569e-20 -0.002000755185)
(-2.007401868e-06 1.756329678e-20 -0.002000845157)
(-2.161989568e-06 1.817475683e-20 -0.002000939908)
(-2.318599111e-06 1.907568886e-20 -0.002001039457)
(-2.47647557e-06 2.006841453e-20 -0.002001143839)
(-2.634773801e-06 2.087683649e-20 -0.002001253102)
(-2.792577437e-06 2.146550611e-20 -0.002001367306)
(-2.94890025e-06 2.194606465e-20 -0.002001486529)
(-3.102650816e-06 2.799361345e-20 -0.00200161086)
(-3.252643012e-06 3.382062952e-20 -0.002001740398)
(-3.397621912e-06 3.926233882e-20 -0.002001875247)
(-3.536233256e-06 4.458402018e-20 -0.002002015504)
(-3.667040521e-06 4.502614226e-20 -0.002002161248)
(-3.788517546e-06 4.574620387e-20 -0.002002312521)
(-3.89904364e-06 5.13994059e-20 -0.002002469309)
(-3.996932082e-06 5.706881876e-20 -0.002002631517)
(-4.080383767e-06 5.847800041e-20 -0.002002798949)
(-4.147473229e-06 6.008277699e-20 -0.002002971274)
(-4.196179449e-06 6.207026751e-20 -0.002003147999)
(-4.224393119e-06 6.44107623e-20 -0.002003328458)
(-4.22987461e-06 6.689487571e-20 -0.002003511797)
(-4.210246664e-06 6.94863398e-20 -0.002003696967)
(-4.16300037e-06 7.229684018e-20 -0.002003882733)
(-4.085502771e-06 7.531064513e-20 -0.002004067679)
(-3.974973123e-06 7.847474579e-20 -0.002004250228)
(-3.828473731e-06 7.863686529e-20 -0.002004428647)
(-3.642940846e-06 7.916295889e-20 -0.002004601057)
(-3.415180257e-06 8.006263099e-20 -0.002004765422)
(-3.141879169e-06 8.119744824e-20 -0.002004919522)
(-2.819588058e-06 8.263230241e-20 -0.002005060904)
(-2.444767409e-06 8.441082976e-20 -0.002005186806)
(-2.014141157e-06 8.653213817e-20 -0.002005294064)
(-1.524655394e-06 8.557996335e-20 -0.002005379056)
(-9.694577786e-07 8.493564887e-20 -0.002005437458)
(-3.356165018e-07 8.459638026e-20 -0.002005463288)
(-1.560978313e-07 7.344705399e-20 -0.002003016379)
(-4.090477407e-07 1.474849859e-19 -0.002003034829)
(-6.478374432e-07 2.099493134e-19 -0.002003075767)
(-8.92496501e-07 1.797543927e-19 -0.002003135542)
(-1.135692004e-06 1.671980148e-19 -0.002003212665)
(-1.374942347e-06 1.615838721e-19 -0.002003305557)
(-1.610069208e-06 1.123802707e-19 -0.002003412684)
(-1.840975232e-06 7.207968456e-20 -0.002003532591)
(-2.067393174e-06 3.717844497e-20 -0.002003663907)
(-2.288958991e-06 3.770629943e-20 -0.002003805342)
(-2.505219656e-06 3.674649898e-20 -0.002003955692)
(-2.715641448e-06 3.44583716e-20 -0.002004113837)
(-2.919611235e-06 3.066890708e-20 -0.002004278734)
(-3.116452397e-06 3.788798058e-20 -0.002004449416)
(-3.305448979e-06 4.51409358e-20 -0.002004624985)
(-3.485809917e-06 3.387884314e-20 -0.002004804611)
(-3.656662402e-06 3.37331063e-20 -0.002004987527)
(-3.817124664e-06 4.242994869e-20 -0.00200517303)
(-3.966282311e-06 4.974155578e-20 -0.002005360481)
(-4.103176458e-06 5.562141337e-20 -0.0020055493)
(-4.226846233e-06 6.023834121e-20 -0.002005738968)
(-4.336324453e-06 6.426703434e-20 -0.002005929026)
(-4.430644079e-06 7.430397182e-20 -0.002006119074)
(-4.508872722e-06 8.279200644e-20 -0.00200630878)
(-4.570101546e-06 9.106817846e-20 -0.002006497864)
(-4.613445685e-06 9.314059593e-20 -0.002006686108)
(-4.638085462e-06 9.507042923e-20 -0.00200687335)
(-4.643278822e-06 9.716582773e-20 -0.002007059479)
(-4.628356357e-06 9.893710323e-20 -0.002007244431)
(-4.592720521e-06 1.004910146e-19 -0.002007428179)
(-4.53587548e-06 1.022766204e-19 -0.002007610718)
(-4.4574602e-06 1.043313214e-19 -0.002007792044)
(-4.357253527e-06 1.062687554e-19 -0.002007972121)
(-4.235174468e-06 1.081624685e-19 -0.002008150845)
(-4.091308475e-06 1.1028897e-19 -0.002008328)
(-3.92594265e-06 1.127192598e-19 -0.002008503206)
(-3.739577214e-06 1.14993268e-19 -0.002008675879)
(-3.532939976e-06 1.17343313e-19 -0.002008845188)
(-3.307012023e-06 1.198898685e-19 -0.002009010034)
(-3.063057134e-06 1.225879384e-19 -0.002009169063)
(-2.802632322e-06 1.255812625e-19 -0.002009320687)
(-2.527588012e-06 1.250839101e-19 -0.002009463159)
(-2.240094664e-06 1.21369088e-19 -0.002009594654)
(-1.942658525e-06 1.181040824e-19 -0.002009713385)
(-1.638137232e-06 1.151909847e-19 -0.00200981772)
(-1.329738921e-06 1.126238158e-19 -0.002009906317)
(-1.02097757e-06 1.104329489e-19 -0.002009978241)
(-7.158033763e-07 1.087299537e-19 -0.002010033064)
(-4.190608223e-07 1.073452759e-19 -0.002010070993)
(-1.357735091e-07 1.062971016e-19 -0.002010093035)
(-1.856253295e-07 7.487914441e-21 -0.002007843484)
(-4.853707666e-07 -3.928673415e-20 -0.002007861589)
(-7.653812216e-07 6.500341054e-20 -0.002007900069)
(-1.049036326e-06 1.433308901e-19 -0.002007956403)
(-1.326676449e-06 2.092124602e-19 -0.002008029114)
(-1.594508679e-06 1.932136274e-19 -0.002008116572)
(-1.851629906e-06 1.877926434e-19 -0.002008217216)
(-2.09740777e-06 1.867018843e-19 -0.002008329542)
(-2.331122314e-06 1.878257066e-19 -0.002008452095)
(-2.552067804e-06 1.901337758e-19 -0.002008583488)
(-2.759601839e-06 1.944915901e-19 -0.002008722415)
(-2.953147908e-06 1.997775171e-19 -0.00200886765)
(-3.132140677e-06 1.912412566e-19 -0.002009018064)
(-3.296032916e-06 1.843560656e-19 -0.002009172618)
(-3.444330657e-06 1.791381667e-19 -0.002009330377)
(-3.576569418e-06 1.757136321e-19 -0.002009490505)
(-3.692323972e-06 1.721819894e-19 -0.002009652265)
(-3.791205094e-06 1.694633521e-19 -0.002009815017)
(-3.872872695e-06 1.679862759e-19 -0.00200997822)
(-3.937093012e-06 1.676038999e-19 -0.002010141422)
(-3.98370607e-06 1.684210396e-19 -0.002010304258)
(-4.012589816e-06 1.70356075e-19 -0.002010466436)
(-4.02369339e-06 1.659768928e-19 -0.002010627731)
(-4.017079061e-06 1.573310345e-19 -0.002010787966)
(-3.992911968e-06 1.573676386e-19 -0.002010946996)
(-3.951434408e-06 1.527530542e-19 -0.002011104688)
(-3.892996089e-06 1.433846712e-19 -0.002011260892)
(-3.818035608e-06 1.404196339e-19 -0.002011415426)
(-3.727089711e-06 1.380513889e-19 -0.002011568051)
(-3.620815729e-06 1.31600802e-19 -0.002011718447)
(-3.499961708e-06 1.257833403e-19 -0.002011866207)
(-3.365371369e-06 1.246914121e-19 -0.002012010825)
(-3.2180052e-06 1.241974695e-19 -0.002012151707)
(-3.058914737e-06 1.290224966e-19 -0.002012288185)
(-2.889243945e-06 1.29912908e-19 -0.002012419537)
(-2.710232676e-06 1.312520027e-19 -0.002012545021)
(-2.523207105e-06 1.288361899e-19 -0.002012663904)
(-2.329594627e-06 1.228173256e-19 -0.002012775494)
(-2.130888097e-06 1.132730726e-19 -0.002012879171)
(-1.928646594e-06 1.043773124e-19 -0.002012974407)
(-1.724495651e-06 9.870616854e-20 -0.002013060788)
(-1.520109274e-06 9.770378482e-20 -0.00201313802)
(-1.317187061e-06 9.710603177e-20 -0.002013205943)
(-1.117412356e-06 9.665052036e-20 -0.002013264534)
(-9.224350634e-07 9.634679303e-20 -0.002013313906)
(-7.338309614e-07 9.619942668e-20 -0.002013354305)
(-5.530405962e-07 9.621007972e-20 -0.002013386094)
(-3.81386744e-07 9.811792746e-20 -0.002013409737)
(-2.202628703e-07 9.728218406e-20 -0.00201342577)
(-7.092423279e-08 9.663876848e-20 -0.002013434824)
(-1.650641778e-07 2.227906262e-20 -0.002012663517)
(-4.318960901e-07 6.75482186e-22 -0.002012676406)
(-6.810497931e-07 -4.412132607e-20 -0.00201270282)
(-9.319673536e-07 1.497215424e-20 -0.002012741648)
(-1.175405718e-06 5.28587255e-20 -0.00201279188)
(-1.407662182e-06 7.925036784e-20 -0.002012852396)
(-1.627622323e-06 1.539073189e-19 -0.002012922149)
(-1.834499389e-06 2.192374546e-19 -0.002013000136)
(-2.027514638e-06 2.809379305e-19 -0.002013085385)
(-2.205966885e-06 3.075372911e-19 -0.002013176964)
(-2.369315147e-06 3.018911446e-19 -0.00201327399)
(-2.517129038e-06 3.038703346e-19 -0.002013375642)
(-2.649068999e-06 3.120894671e-19 -0.002013481162)
(-2.764875627e-06 2.978791218e-19 -0.002013589855)
(-2.864370498e-06 2.871170509e-19 -0.002013701096)
(-2.947479391e-06 2.849138906e-19 -0.002013814322)
(-3.014217406e-06 2.63753714e-19 -0.002013929032)
(-3.064675537e-06 2.268917366e-19 -0.002014044781)
(-3.099039597e-06 1.941172445e-19 -0.002014161167)
(-3.117584517e-06 1.735080492e-19 -0.002014277831)
(-3.120649764e-06 1.550355104e-19 -0.002014394443)
(-3.108658564e-06 1.382504517e-19 -0.002014510692)
(-3.082117779e-06 1.168717983e-19 -0.00201462627)
(-3.041590875e-06 1.040712834e-19 -0.002014740866)
(-2.987723361e-06 9.184233437e-20 -0.002014854157)
(-2.921249125e-06 8.605695111e-20 -0.002014965806)
(-2.842942298e-06 8.057856103e-20 -0.002015075456)
(-2.753617613e-06 8.13985655e-20 -0.002015182732)
(-2.654164701e-06 8.219486524e-20 -0.002015287245)
(-2.545528281e-06 8.300559619e-20 -0.002015388598)
(-2.428691145e-06 8.390678343e-20 -0.002015486396)
(-2.304672808e-06 7.997571021e-20 -0.002015580253)
(-2.174541707e-06 7.626808208e-20 -0.002015669803)
(-2.039403786e-06 6.803655041e-20 -0.002015754707)
(-1.900361743e-06 6.047408708e-20 -0.002015834665)
(-1.758540738e-06 5.322580406e-20 -0.002015909418)
(-1.615068811e-06 5.07572788e-20 -0.002015978757)
(-1.471055532e-06 4.84755231e-20 -0.002016042525)
(-1.327591186e-06 5.007241479e-20 -0.002016100623)
(-1.185727909e-06 5.122538887e-20 -0.002016153009)
(-1.046470535e-06 4.828977671e-20 -0.002016199701)
(-9.107594313e-07 4.75157925e-20 -0.002016240774)
(-7.794599794e-07 5.226687626e-20 -0.002016276362)
(-6.533597018e-07 5.661603095e-20 -0.00201630665)
(-5.3315875e-07 6.068793661e-20 -0.00201633187)
(-4.194514295e-07 6.461970766e-20 -0.002016352294)
(-3.127190261e-07 6.865240465e-20 -0.002016368226)
(-2.133857737e-07 7.046969095e-20 -0.002016379991)
(-1.219654183e-07 7.12024923e-20 -0.002016387937)
(-3.906625474e-08 7.190630302e-20 -0.002016392439)
(-1.297574823e-07 9.534034258e-20 -0.002017095916)
(-3.389072835e-07 2.104886542e-19 -0.002017104173)
(-5.330740859e-07 1.659001078e-19 -0.002017120456)
(-7.278670552e-07 1.481565159e-19 -0.0020171445)
(-9.158076645e-07 1.429348718e-19 -0.002017175697)
(-1.093814235e-06 1.445134254e-19 -0.002017213381)
(-1.260843747e-06 1.501702177e-19 -0.002017256946)
(-1.416149196e-06 1.582664771e-19 -0.002017305815)
(-1.55905079e-06 1.674307928e-19 -0.00201735943)
(-1.689036993e-06 1.77142489e-19 -0.002017417255)
(-1.805717677e-06 1.885656772e-19 -0.002017478775)
(-1.90879271e-06 1.831324224e-19 -0.002017543507)
(-1.998110166e-06 1.933480766e-19 -0.002017610995)
(-2.073619144e-06 1.908120238e-19 -0.00201768081)
(-2.13535041e-06 1.772577671e-19 -0.002017752544)
(-2.18346493e-06 1.671563952e-19 -0.002017825816)
(-2.218205436e-06 1.597717115e-19 -0.002017900262)
(-2.239880187e-06 1.548615702e-19 -0.00201797553)
(-2.248893694e-06 1.419406892e-19 -0.00201805128)
(-2.245698506e-06 1.309745533e-19 -0.002018127178)
(-2.230811499e-06 1.13053047e-19 -0.002018202895)
(-2.204840823e-06 8.866753386e-20 -0.002018278101)
(-2.168447439e-06 7.261184954e-20 -0.002018352464)
(-2.122320792e-06 5.746510942e-20 -0.002018425658)
(-2.06718118e-06 3.724277355e-20 -0.002018497356)
(-2.003800681e-06 2.988138606e-20 -0.002018567238)
(-1.932981409e-06 2.777868852e-20 -0.002018634996)
(-1.855543269e-06 2.542135578e-20 -0.002018700333)
(-1.77233289e-06 2.312189112e-20 -0.002018762969)
(-1.684200495e-06 2.064614836e-20 -0.002018822647)
(-1.591991747e-06 1.796011242e-20 -0.002018879137)
(-1.496564239e-06 1.525862415e-20 -0.002018932238)
(-1.398755129e-06 1.698880989e-20 -0.00201898178)
(-1.299388914e-06 1.437846159e-20 -0.002019027634)
(-1.199269282e-06 1.48682465e-20 -0.002019069704)
(-1.099158963e-06 1.485540529e-20 -0.002019107933)
(-9.997959512e-07 1.762638875e-20 -0.002019142303)
(-9.018742344e-07 2.316768755e-20 -0.002019172833)
(-8.060393944e-07 3.113823448e-20 -0.002019199579)
(-7.128878237e-07 3.856742929e-20 -0.002019222629)
(-6.229662224e-07 4.557799558e-20 -0.002019242103)
(-5.36768004e-07 4.897339627e-20 -0.00201925815)
(-4.547232079e-07 5.196751668e-20 -0.002019270941)
(-3.772006045e-07 5.168372364e-20 -0.002019280669)
(-3.045183863e-07 5.441341787e-20 -0.002019287546)
(-2.369491645e-07 5.407602323e-20 -0.002019291788)
(-1.746874433e-07 5.368078945e-20 -0.002019293577)
(-1.178394775e-07 5.327435655e-20 -0.002019293094)
(-6.652918584e-08 5.506941472e-20 -0.002019290983)
(-2.11323643e-08 5.669770435e-20 -0.002019288919)
(-9.660022964e-08 4.429084668e-20 -0.002020972138)
(-2.524761673e-07 6.463639449e-20 -0.002020977243)
(-3.973239369e-07 6.726451279e-20 -0.002020986913)
(-5.421234517e-07 6.67725013e-20 -0.002021001238)
(-6.810464231e-07 6.483421089e-20 -0.002021019873)
(-8.117742784e-07 6.166068217e-20 -0.00202104243)
(-9.334605994e-07 5.749245976e-20 -0.002021068564)
(-1.045512322e-06 5.309035036e-20 -0.002021097946)
(-1.147413838e-06 4.963975427e-20 -0.00202113025)
(-1.238815146e-06 7.826076768e-21 -0.002021165157)
(-1.3194747e-06 1.78518459e-21 -0.002021202359)
(-1.389240323e-06 -4.863856707e-21 -0.002021241549)
(-1.448107382e-06 -1.082856191e-20 -0.00202128243)
(-1.496176803e-06 -3.03764991e-20 -0.002021324709)
(-1.533602201e-06 -4.777534759e-20 -0.002021368096)
(-1.560620777e-06 -5.440090704e-20 -0.002021412302)
(-1.577576164e-06 -5.240894399e-20 -0.002021457044)
(-1.584856385e-06 -3.203781061e-20 -0.00202150204)
(-1.582896585e-06 -1.373004348e-20 -0.002021547009)
(-1.572196547e-06 -5.21487575e-21 -0.002021591675)
(-1.553316503e-06 2.883582734e-21 -0.002021635762)
(-1.526852964e-06 2.300716906e-21 -0.002021679001)
(-1.49341885e-06 1.877931406e-21 -0.002021721132)
(-1.453654527e-06 2.789089274e-21 -0.002021761908)
(-1.408220947e-06 3.897696258e-21 -0.002021801092)
(-1.357777867e-06 5.022303036e-21 -0.002021838464)
(-1.303010165e-06 6.258797135e-21 -0.002021873823)
(-1.24460847e-06 8.42307185e-21 -0.002021906987)
(-1.18324384e-06 1.072304448e-20 -0.002021937798)
(-1.119584063e-06 1.318203557e-20 -0.002021966123)
(-1.054279724e-06 1.583620531e-20 -0.002021991853)
(-9.879686669e-07 2.311933093e-20 -0.002022014907)
(-9.21253656e-07 3.035081665e-20 -0.002022035231)
(-8.547157083e-07 4.195744616e-20 -0.002022052796)
(-7.889174279e-07 5.386940847e-20 -0.002022067599)
(-7.243678909e-07 6.18623097e-20 -0.002022079664)
(-6.615500102e-07 6.661610186e-20 -0.002022089033)
(-6.009215987e-07 6.754946801e-20 -0.002022095776)
(-5.428859203e-07 6.602450738e-20 -0.002022099977)
(-4.87802626e-07 6.201895758e-20 -0.00202210174)
(-4.360086924e-07 6.236236577e-20 -0.002022101185)
(-3.877977916e-07 6.027329243e-20 -0.002022098443)
(-3.433931293e-07 5.610576291e-20 -0.002022093662)
(-3.029439449e-07 5.285040244e-20 -0.002022086981)
(-2.666661601e-07 5.011415822e-20 -0.002022078498)
(-2.353820826e-07 4.795187696e-20 -0.002022068365)
(-2.101123564e-07 4.59815052e-20 -0.002022057426)
(-1.850610573e-07 4.500552554e-20 -0.002022047114)
(-1.387579743e-07 4.415895169e-20 -0.002022038563)
(-5.224054068e-08 4.354224902e-20 -0.002022032839)
(-7.042479497e-08 4.500389796e-20 -0.002024520416)
(-1.837449663e-07 6.738370046e-20 -0.002024523569)
(-2.885340867e-07 7.258236681e-20 -0.002024529305)
(-3.930359678e-07 7.470783008e-20 -0.002024537805)
(-4.929354577e-07 7.585869706e-20 -0.00202454886)
(-5.865261949e-07 7.68289141e-20 -0.002024562239)
(-6.731332061e-07 7.978531287e-20 -0.002024577731)
(-7.523104146e-07 8.891401851e-20 -0.002024595128)
(-8.237247645e-07 6.229267118e-20 -0.002024614225)
(-8.871178021e-07 6.002935654e-21 -0.00202463481)
(-9.423705657e-07 -4.19166e-20 -0.002024656678)
(-9.894624538e-07 -7.135686405e-20 -0.002024679617)
(-1.028438429e-06 -1.010607132e-19 -0.002024703414)
(-1.059449938e-06 -1.179920981e-19 -0.002024727857)
(-1.082727055e-06 -1.248785603e-19 -0.002024752737)
(-1.0985413e-06 -1.340555649e-19 -0.00202477784)
(-1.107223154e-06 -1.332408175e-19 -0.002024802954)
(-1.109165521e-06 -1.350748357e-19 -0.002024827873)
(-1.104798569e-06 -1.298524156e-19 -0.002024852392)
(-1.094587392e-06 -1.270190243e-19 -0.002024876312)
(-1.079039683e-06 -1.18254179e-19 -0.002024899442)
(-1.058672367e-06 -1.03844388e-19 -0.002024921603)
(-1.034000139e-06 -9.175134287e-20 -0.002024942625)
(-1.00557552e-06 -7.420297719e-20 -0.002024962354)
(-9.739618118e-07 -5.855080046e-20 -0.002024980647)
(-9.397058891e-07 -5.051580953e-20 -0.002024997379)
(-9.033526195e-07 -4.332541731e-20 -0.002025012439)
(-8.654501594e-07 -3.696061901e-20 -0.002025025738)
(-8.265275331e-07 -3.683866243e-20 -0.002025037202)
(-7.87100365e-07 -3.671196831e-20 -0.002025046776)
(-7.47669241e-07 -3.654644897e-20 -0.002025054426)
(-7.087026281e-07 -3.62755863e-20 -0.002025060133)
(-6.706594313e-07 -4.528796352e-20 -0.002025063898)
(-6.339657621e-07 -5.386687412e-20 -0.002025065735)
(-5.990152016e-07 -5.756379547e-20 -0.002025065675)
(-5.661890078e-07 -6.097220942e-20 -0.002025063765)
(-5.358295914e-07 -6.011244269e-20 -0.002025060063)
(-5.08243916e-07 -5.917929474e-20 -0.002025054638)
(-4.837188719e-07 -5.83279066e-20 -0.002025047571)
(-4.625030655e-07 -5.737434854e-20 -0.002025038952)
(-4.44781123e-07 -5.647515354e-20 -0.002025028882)
(-4.306639331e-07 -5.547475258e-20 -0.002025017452)
(-4.204828827e-07 -5.446036679e-20 -0.002025004696)
(-4.153994824e-07 -5.344763489e-20 -0.002024990706)
(-4.155457147e-07 -5.529462314e-20 -0.002024976493)
(-4.091693036e-07 -5.691077923e-20 -0.002024963657)
(-3.756344552e-07 -5.970271646e-20 -0.0020249536)
(-3.063821173e-07 -6.237118993e-20 -0.002024947508)
(-2.046718605e-07 -6.501852984e-20 -0.002024945824)
(-7.229043215e-08 -6.775856327e-20 -0.002024946534)
(-5.149985716e-08 -9.11778613e-21 -0.002027764183)
(-1.344898393e-07 1.861553546e-19 -0.002027766095)
(-2.11419175e-07 1.559793076e-19 -0.002027769439)
(-2.880350703e-07 1.402776378e-19 -0.002027774371)
(-3.610755955e-07 1.319541828e-19 -0.002027780765)
(-4.292780219e-07 1.281860431e-19 -0.00202778847)
(-4.921697995e-07 1.273459612e-19 -0.002027797347)
(-5.494317604e-07 1.285089504e-19 -0.002027807249)
(-6.008434245e-07 1.051790362e-19 -0.002027818035)
(-6.462582632e-07 1.196445642e-19 -0.002027829558)
(-6.856107913e-07 9.245243113e-20 -0.002027841669)
(-7.189590318e-07 5.130494096e-20 -0.00202785422)
(-7.464074296e-07 1.410105527e-20 -0.00202786706)
(-7.681127829e-07 -1.062868822e-20 -0.002027880041)
(-7.843029167e-07 -3.433264092e-20 -0.002027893015)
(-7.952592139e-07 -5.667373154e-20 -0.00202790584)
(-8.013074464e-07 -6.617842161e-20 -0.002027918376)
(-8.028039155e-07 -8.519876225e-20 -0.002027930488)
(-8.001279041e-07 -9.291799597e-20 -0.002027942048)
(-7.936819169e-07 -1.005312846e-19 -0.002027952936)
(-7.838925863e-07 -8.983831196e-20 -0.002027963039)
(-7.711970511e-07 -7.224267274e-20 -0.002027972259)
(-7.560415281e-07 -5.584871614e-20 -0.002027980505)
(-7.388851161e-07 -5.553171807e-20 -0.002027987698)
(-7.201736269e-07 -5.544546174e-20 -0.002027993771)
(-7.003616736e-07 -6.268259541e-20 -0.002027998669)
(-6.798877154e-07 -7.000617339e-20 -0.002028002352)
(-6.591805489e-07 -8.327380498e-20 -0.00202800479)
(-6.38656824e-07 -9.629170476e-20 -0.002028005968)
(-6.187133544e-07 -1.035645876e-19 -0.002028005879)
(-5.997381386e-07 -1.114059338e-19 -0.00202800453)
(-5.820865912e-07 -1.200021281e-19 -0.00202800194)
(-5.6610955e-07 -1.294198042e-19 -0.002027998134)
(-5.521253201e-07 -1.398639413e-19 -0.002027993149)
(-5.404219839e-07 -1.515465163e-19 -0.002027987027)
(-5.312791157e-07 -1.601938696e-19 -0.00202797982)
(-5.249365211e-07 -1.702249219e-19 -0.002027971584)
(-5.216059709e-07 -1.730960653e-19 -0.002027962383)
(-5.214344265e-07 -1.779266699e-19 -0.002027952289)
(-5.244914719e-07 -1.740625756e-19 -0.002027941358)
(-5.311537229e-07 -1.723991223e-19 -0.002027929574)
(-5.427932427e-07 -1.690647469e-19 -0.002027916981)
(-5.59136372e-07 -1.637747445e-19 -0.002027904756)
(-5.649777439e-07 -1.597754632e-19 -0.002027894722)
(-5.39402353e-07 -1.570153912e-19 -0.002027888532)
(-4.76369059e-07 -1.551835577e-19 -0.002027887517)
(-3.790770435e-07 -1.542029338e-19 -0.002027891604)
(-2.574522264e-07 -1.541219352e-19 -0.002027898684)
(-1.38347272e-07 -1.535351213e-19 -0.002027905881)
(-4.224012333e-08 -1.53898633e-19 -0.002027910893)
(-3.919446288e-08 1.453194048e-19 -0.00203086639)
(-1.022054394e-07 3.396274858e-19 -0.002030867346)
(-1.604188431e-07 3.307191971e-19 -0.002030868898)
(-2.184225318e-07 2.144640333e-19 -0.002030871162)
(-2.737708277e-07 1.363473499e-19 -0.002030874068)
(-3.255052251e-07 7.656011192e-20 -0.002030877522)
(-3.732908966e-07 2.461972024e-20 -0.002030881427)
(-4.169082975e-07 -2.802203646e-20 -0.00203088569)
(-4.5619044e-07 -4.331275034e-20 -0.002030890208)
(-4.910841964e-07 -2.817945988e-20 -0.002030894882)
(-5.215827521e-07 -1.984748525e-20 -0.002030899611)
(-5.477399042e-07 -1.465555062e-20 -0.002030904292)
(-5.696789737e-07 -1.146643909e-20 -0.002030908827)
(-5.875694149e-07 -8.760141928e-21 -0.002030913119)
(-6.016195919e-07 -6.803623033e-21 -0.002030917072)
(-6.120721697e-07 -5.547347272e-21 -0.002030920598)
(-6.192013499e-07 -1.678397327e-20 -0.002030923613)
(-6.233198674e-07 -2.810111058e-20 -0.00203092604)
(-6.247670768e-07 -4.019726585e-20 -0.002030927812)
(-6.238840025e-07 -4.317246794e-20 -0.002030928866)
(-6.210085779e-07 -4.887767682e-20 -0.002030929147)
(-6.165026808e-07 -4.025907837e-20 -0.002030928613)
(-6.107390122e-07 -3.416651313e-20 -0.002030927228)
(-6.040782505e-07 -3.683634751e-20 -0.002030924966)
(-5.968796942e-07 -4.013182395e-20 -0.002030921812)
(-5.894942904e-07 -4.359136277e-20 -0.00203091776)
(-5.822650523e-07 -4.738284649e-20 -0.002030912814)
(-5.755235253e-07 -5.141889752e-20 -0.002030906984)
(-5.695863003e-07 -4.984158627e-20 -0.002030900291)
(-5.647567816e-07 -4.882570607e-20 -0.002030892763)
(-5.61316646e-07 -4.804197148e-20 -0.002030884435)
(-5.59536401e-07 -4.741897826e-20 -0.002030875346)
(-5.59658929e-07 -4.200325253e-20 -0.002030865543)
(-5.619057653e-07 -3.673438927e-20 -0.002030855075)
(-5.664848535e-07 -3.602945549e-20 -0.002030843997)
(-5.735617442e-07 -3.514676312e-20 -0.002030832368)
(-5.83237997e-07 -3.82853547e-20 -0.002030820255)
(-5.955344224e-07 -4.126615776e-20 -0.002030807706)
(-6.108415957e-07 -4.389444069e-20 -0.002030794678)
(-6.306801082e-07 -4.636747592e-20 -0.002030781193)
(-6.545232106e-07 -4.854382895e-20 -0.002030768568)
(-6.650697817e-07 -5.053688004e-20 -0.002030758778)
(-6.408700147e-07 -5.249212665e-20 -0.002030753587)
(-5.77026321e-07 -5.103183682e-20 -0.002030754429)
(-4.777048344e-07 -4.959400563e-20 -0.002030760957)
(-3.58992685e-07 -4.654471442e-20 -0.002030770858)
(-2.471416372e-07 -4.375291806e-20 -0.00203078103)
(-1.549168022e-07 -4.107063249e-20 -0.002030789084)
(-8.128171859e-08 -3.996499652e-20 -0.002030794113)
(-2.46446052e-08 -3.877530093e-20 -0.002030796636)
(-3.163982193e-08 1.943111379e-19 -0.002033843396)
(-8.262217797e-08 2.214468607e-19 -0.002033843545)
(-1.29986782e-07 2.455401947e-19 -0.002033843541)
(-1.77337307e-07 1.456238566e-19 -0.002033843493)
(-2.226812004e-07 7.545534136e-20 -0.002033843377)
(-2.653161816e-07 2.019794599e-20 -0.002033843145)
(-3.050072331e-07 -2.733928958e-20 -0.002033842739)
(-3.416296277e-07 -7.077886951e-20 -0.002033842107)
(-3.750983503e-07 -8.70408983e-20 -0.002033841186)
(-4.05375463e-07 -1.054120015e-19 -0.002033839915)
(-4.324959782e-07 -8.657956353e-20 -0.002033838232)
(-4.565387886e-07 -5.552143317e-20 -0.002033836078)
(-4.776214291e-07 -2.992353321e-20 -0.002033833392)
(-4.959055525e-07 6.621098635e-21 -0.002033830121)
(-5.115897864e-07 3.958992451e-20 -0.002033826212)
(-5.248927832e-07 7.026922305e-20 -0.002033821619)
(-5.360453228e-07 7.552220571e-20 -0.002033816302)
(-5.45296889e-07 8.154240299e-20 -0.002033810223)
(-5.529239461e-07 7.812383345e-20 -0.002033803357)
(-5.592259687e-07 7.573649068e-20 -0.002033795684)
(-5.644827849e-07 5.639539761e-20 -0.002033787192)
(-5.689715714e-07 3.843353826e-20 -0.002033777875)
(-5.729913998e-07 2.179897657e-20 -0.002033767738)
(-5.768180907e-07 1.377420497e-20 -0.002033756791)
(-5.8073319e-07 6.159371735e-21 -0.002033745054)
(-5.850022869e-07 5.841815766e-21 -0.002033732554)
(-5.89880845e-07 5.56407822e-21 -0.002033719324)
(-5.956121368e-07 1.19183993e-20 -0.002033705404)
(-6.024249271e-07 1.809986027e-20 -0.002033690839)
(-6.105316403e-07 1.83684412e-20 -0.00203367568)
(-6.201253723e-07 1.89273493e-20 -0.002033659983)
(-6.313876216e-07 1.995461291e-20 -0.002033643806)
(-6.444726124e-07 2.154579392e-20 -0.002033627212)
(-6.595089361e-07 2.369738743e-20 -0.002033610268)
(-6.765451283e-07 2.637024031e-20 -0.002033593053)
(-6.955509548e-07 2.957345236e-20 -0.00203357562)
(-7.169332869e-07 3.336087029e-20 -0.002033557921)
(-7.42318236e-07 3.372259158e-20 -0.002033539964)
(-7.709802224e-07 3.527975125e-20 -0.002033523223)
(-7.838585355e-07 3.083647212e-20 -0.002033509825)
(-7.587737488e-07 2.758377043e-20 -0.002033501595)
(-6.915380447e-07 2.500183599e-20 -0.002033499966)
(-5.868660835e-07 1.89780517e-20 -0.00203350435)
(-4.644094213e-07 1.678292141e-20 -0.002033512252)
(-3.508055395e-07 1.489341543e-20 -0.002033520452)
(-2.557131111e-07 1.339557397e-20 -0.002033526587)
(-1.773528361e-07 1.065232703e-20 -0.002033530067)
(-1.131638185e-07 9.685111981e-21 -0.002033531386)
(-6.095138263e-08 9.081378575e-21 -0.002033531196)
(-1.861852473e-08 8.783139034e-21 -0.00203353055)
(-2.745598932e-08 -1.956491688e-20 -0.002036768464)
(-7.165125891e-08 -1.192999592e-19 -0.002036767922)
(-1.127396725e-07 -4.201508741e-20 -0.002036766589)
(-1.540261221e-07 -2.356926218e-20 -0.002036764584)
(-1.93888348e-07 -1.908124132e-20 -0.002036761923)
(-2.318013217e-07 -1.627250828e-20 -0.002036758593)
(-2.675985112e-07 -1.298298356e-20 -0.002036754582)
(-3.011984455e-07 -8.737724699e-21 -0.002036749867)
(-3.325871197e-07 -3.08610084e-21 -0.002036744429)
(-3.617724229e-07 3.884510444e-21 -0.002036738242)
(-3.887924411e-07 1.22514369e-20 -0.002036731282)
(-4.137371684e-07 2.165342224e-20 -0.002036723524)
(-4.367285718e-07 3.163494107e-20 -0.002036714945)
(-4.579135349e-07 4.197967396e-20 -0.002036705526)
(-4.774600931e-07 5.23166792e-20 -0.002036695252)
(-4.955548554e-07 6.253662594e-20 -0.002036684113)
(-5.124030606e-07 7.298510128e-20 -0.002036672103)
(-5.282224146e-07 8.318120514e-20 -0.00203665922)
(-5.432294102e-07 9.335371339e-20 -0.002036645468)
(-5.576434194e-07 9.396863524e-20 -0.002036630859)
(-5.716960389e-07 9.629401592e-20 -0.002036615411)
(-5.856096504e-07 8.39148597e-20 -0.002036599147)
(-5.995979859e-07 7.39467157e-20 -0.002036582096)
(-6.138756023e-07 6.54389836e-20 -0.002036564293)
(-6.28643997e-07 5.784938116e-20 -0.002036545778)
(-6.440952979e-07 5.088081955e-20 -0.002036526597)
(-6.604098865e-07 4.417754773e-20 -0.002036506799)
(-6.777495349e-07 3.729410881e-20 -0.00203648644)
(-6.962648764e-07 3.028988936e-20 -0.002036465575)
(-7.160862122e-07 2.300419168e-20 -0.002036444265)
(-7.373329689e-07 1.535745551e-20 -0.002036422573)
(-7.600951572e-07 7.452633555e-21 -0.002036400567)
(-7.843746751e-07 5.311168914e-21 -0.002036378328)
(-8.101010177e-07 7.751597155e-21 -0.002036355909)
(-8.376833622e-07 9.245695987e-21 -0.002036333247)
(-8.688711924e-07 9.852325704e-21 -0.002036310336)
(-9.027737131e-07 9.661213188e-21 -0.002036288822)
(-9.186325876e-07 8.762360201e-21 -0.002036271051)
(-8.93397745e-07 7.204175146e-21 -0.002036258982)
(-8.234625234e-07 4.978661688e-21 -0.002036254085)
(-7.139757761e-07 2.093294943e-21 -0.002036255475)
(-5.867236516e-07 -1.429232011e-21 -0.002036260356)
(-4.689849344e-07 -5.497623198e-21 -0.002036265267)
(-3.691114444e-07 -1.008175621e-20 -0.002036267736)
(-2.851570625e-07 -1.50466156e-20 -0.002036267321)
(-2.146520418e-07 -1.714155832e-20 -0.002036264541)
(-1.554262918e-07 -1.653535109e-20 -0.002036260048)
(-1.046329486e-07 -1.654742096e-20 -0.002036254917)
(-5.952936994e-08 -1.562116266e-20 -0.002036250344)
(-1.828992142e-08 -1.519106386e-20 -0.002036247391)
(-2.558987178e-08 -8.528479049e-20 -0.002039631884)
(-6.688423298e-08 -3.022381501e-19 -0.002039630799)
(-1.055258924e-07 -3.323186775e-19 -0.002039628401)
(-1.446014633e-07 -2.5066303e-19 -0.002039624826)
(-1.826861124e-07 -2.118413918e-19 -0.002039620121)
(-2.193381475e-07 -1.494703852e-19 -0.002039614319)
(-2.544757866e-07 -1.059104811e-19 -0.002039607443)
(-2.880798047e-07 -7.398551814e-20 -0.002039599513)
(-3.201393409e-07 -4.9839745e-20 -0.002039590539)
(-3.506983779e-07 -3.109095004e-20 -0.002039580537)
(-3.798367295e-07 -1.618769587e-20 -0.002039569517)
(-4.076476731e-07 -4.123691658e-21 -0.002039557491)
(-4.342346165e-07 5.73714549e-21 -0.002039544472)
(-4.597210641e-07 1.348862931e-20 -0.002039530475)
(-4.84249608e-07 1.930002982e-20 -0.002039515516)
(-5.079844454e-07 2.361729896e-20 -0.002039499614)
(-5.310996475e-07 3.943981269e-20 -0.002039482792)
(-5.537662606e-07 5.36917672e-20 -0.002039465076)
(-5.761506713e-07 6.670828998e-20 -0.002039446497)
(-5.984224175e-07 7.876630631e-20 -0.002039427091)
(-6.207581491e-07 9.025288654e-20 -0.002039406892)
(-6.43320305e-07 9.185115783e-20 -0.002039385942)
(-6.662688753e-07 9.383310468e-20 -0.002039364285)
(-6.897642903e-07 9.631878284e-20 -0.002039341967)
(-7.139376796e-07 9.929257059e-20 -0.002039319038)