/*--------------------------------*- C++ -*----------------------------------*\
  =========                 |
  \\      /  F ield         | OpenFOAM: The Open Source CFD Toolbox
   \\    /   O peration     | Website:  https://openfoam.org
    \\  /    A nd           | Version:  7
     \\/     M anipulation  |
\*---------------------------------------------------------------------------*/
FoamFile
{
    version     2.0;
    format      ascii;
    class       volScalarField;
    location    "0.0021";
    object      wallHeatFlux;
}
// * * * * * * * * * * * * * * * * * * * * * * * * * * * * * * * * * * * * * //

dimensions      [1 0 -3 0 0 0 0];

internalField   uniform 0;

boundaryField
{
    front_top
    {
        type            wedge;
    }
    front_middle
    {
        type            wedge;
    }
    front_bottom
    {
        type            wedge;
    }
    back_top
    {
        type            wedge;
    }
    back_middle
    {
        type            wedge;
    }
    back_bottom
    {
        type            wedge;
    }
    axis_top
    {
        type            symmetryPlane;
    }
    axis_middle
    {
        type            symmetryPlane;
    }
    axis_bottom
    {
        type            symmetryPlane;
    }
    wall_top
    {
        type            calculated;
        value           nonuniform List<scalar> 
150
(
47280.05984
42093.23135
39140.91194
36908.99737
35208.27061
33924.89638
32400.48822
30670.41094
29114.02131
27909.14043
27281.51111
26968.45286
26649.17421
26185.72053
25694.76976
25238.21678
24812.59453
24412.48241
24034.09036
23674.58282
23331.6739
23002.84597
22686.46624
22381.05809
22085.48132
21799.14358
21521.6627
21252.9159
20992.62175
20740.47304
20496.1413
20259.3191
20029.67757
19806.88177
19590.62233
19380.62447
19176.65816
18978.4986
18785.93499
18598.7662
18416.79524
18239.83369
18067.71735
17900.25713
17737.27955
17578.61613
17424.11256
17273.66148
17127.07775
16984.21863
16844.99417
16709.2696
16576.89635
16447.81782
16321.89825
16199.00683
16079.1305
15962.07978
15847.83522
15736.27592
15627.32718
15520.92626
15416.96248
15315.40838
15216.14428
15119.15196
15024.3245
14931.62915
14840.99136
14752.34529
14665.66732
14580.84201
14497.91471
14416.74082
14337.32999
14259.62003
14183.53324
14109.10802
14036.22193
13964.85908
13895.01561
13826.59994
13759.60633
13694.01224
13629.74443
13566.79125
13505.14212
13444.72544
13385.51654
13327.53549
13270.70123
13214.98826
13160.3988
13106.89917
13054.44387
13003.00894
12952.60913
12903.1917
12854.72671
12807.19354
12760.60086
12714.90598
12670.08005
12626.10343
12582.97056
12540.67119
12499.1637
12458.43016
12418.45296
12379.23176
12340.74252
12302.95408
12265.84882
12229.40807
12193.62265
12158.48247
12123.94855
12090.00019
12056.61497
12023.76851
11991.44606
11959.61417
11928.22521
11897.23581
11866.59229
11836.22672
11806.05567
11775.97488
11745.81064
11715.3495
11684.29639
11652.2398
11618.60403
11582.60358
11543.07944
11498.42824
11446.39806
11383.85356
11306.3774
11207.81033
11079.67424
10910.20729
10683.28402
10376.85796
9960.818931
9393.906493
8618.804624
7552.87533
6065.974787
3910.000393
)
;
    }
    wall_middle
    {
        type            calculated;
        value           nonuniform List<scalar> 
65
(
297738.4637
182540.4826
143215.4929
123560.0566
111262.0587
102568.9113
95974.39105
90739.59873
86449.99821
82851.92986
79779.98571
77120.90122
74794.39664
72741.86203
70919.39944
69293.39004
67837.49233
66531.21784
65358.21344
64305.22617
63361.42017
62517.88214
61767.22584
61103.2867
60520.92711
60015.71496
59583.98094
59222.62027
58928.93198
58700.61341
58535.68559
58432.43627
58389.39425
58405.29287
58479.03331
58609.65291
58796.3071
59038.27189
59334.92058
59685.70816
60090.19501
60547.94252
61058.62106
61621.95113
62237.72738
62905.88243
63626.51733
64400.00544
65227.17448
66109.55646
67049.92078
68052.64396
69125.33771
70279.24116
71534.29684
72918.39042
74482.88498
76298.11674
78495.12859
81270.63754
84958.00458
90258.81864
98075.66768
111453.5643
160869.3895
)
;
    }
    wall_bottom
    {
        type            calculated;
        value           nonuniform List<scalar> 
65
(
156433.2597
131916.5544
122886.0556
117902.0984
114682.8171
112346.0683
110534.5372
109062.4299
107821.667
106748.6491
105799.9492
104946.8155
104168.0559
103448.2937
102775.7221
102141.3121
101537.9643
100960.0976
100403.2716
99863.94735
99339.28784
98827.01502
98325.29539
97832.65188
97347.89431
96870.06545
96398.39673
95932.27159
95471.1961
95014.77528
94562.69624
94114.71369
93670.63643
93230.31644
92793.64023
92360.52197
91930.89792
91504.72215
91081.9628
90662.59875
90246.61723
89834.01173
89424.78013
89018.9211
88616.43882
88217.34708
87821.66227
87429.40124
87040.58136
86655.22158
86273.34345
85894.97207
85520.13747
85148.87719
84781.23952
84417.28739
84057.10313
83700.79641
83348.51376
83000.45075
82656.83265
82317.84694
81983.41586
81654.82156
81357.53988
)
;
    }
    inlet
    {
        type            calculated;
        value           nonuniform List<scalar> 
50
(
-21.89813937
-22.49963345
-23.81949981
-25.85111025
-28.6480752
-32.29820465
-36.92235332
-42.67666097
-49.7565501
-58.40218553
-68.90537264
-81.61796916
-96.96194131
-115.4412351
-137.6556668
-164.3170656
-196.2679277
-234.5028046
-280.1927383
-334.7133649
-399.6766643
-476.9668608
-568.7809674
-677.6742554
-806.6108313
-959.0198841
-1138.858113
-1350.679338
-1599.710744
-1891.934585
-2234.177129
-2634.211382
-3100.866389
-3644.143706
-4275.351026
-5007.235813
-5854.115298
-6832.038063
-7958.964642
-9254.958552
-10742.37333
-12446.06276
-14393.5324
-16615.20648
-19144.73208
-22019.23698
-25279.43555
-28970.00104
-33139.88222
-37842.55969
)
;
    }
    outlet
    {
        type            calculated;
        value           uniform 0;
    }
}


// ************************************************************************* //
