/*--------------------------------*- C++ -*----------------------------------*\
  =========                 |
  \\      /  F ield         | OpenFOAM: The Open Source CFD Toolbox
   \\    /   O peration     | Website:  https://openfoam.org
    \\  /    A nd           | Version:  7
     \\/     M anipulation  |
\*---------------------------------------------------------------------------*/
FoamFile
{
    version     2.0;
    format      ascii;
    class       volVectorField;
    location    "0.0015";
    object      grad(generalizedNewtonian:nu);
}
// * * * * * * * * * * * * * * * * * * * * * * * * * * * * * * * * * * * * * //

dimensions      [0 1 -1 0 0 0 0];

internalField   nonuniform List<vector> 
14000
(
(-10930103.21 0 124222101.8)
(-12141809.8 0 118428380.9)
(-20239322.61 0 117988063.5)
(-30668746.03 0 110102928)
(-34857314.77 0 101695234.2)
(-38233793.48 0 92786423.36)
(-40478559.44 0 83606858.37)
(-41536686.49 0 74547031.6)
(-41657662.59 0 65887139.87)
(-41089247.54 0 57787516.1)
(-40025707.57 0 50324932.05)
(-38620299.51 0 43519119)
(-36992321.49 0 37352721.23)
(-35232013.82 0 31786849.53)
(-33406508.81 0 26771424.23)
(-31565312.37 0 22251808.7)
(-29738998.57 0 18174221.88)
(-27939928.39 0 14489295.25)
(-26177939.49 0 11152926)
(-24470248.1 0 8125876.051)
(-22831975.49 0 5373539.592)
(-21264760.32 0 2866397.149)
(-19765699.42 0 580810.0096)
(-18344859.56 0 -1501861.379)
(-17016630.48 0 -3396451.694)
(-15792867.67 0 -5113740.585)
(-14692931.86 0 -6660941.049)
(-13742145.49 0 -8042762.153)
(-12972961.47 0 -9262013.279)
(-12423077 0 -10320517.2)
(-12129943.13 0 -11220297.1)
(-12140505.8 0 -11964656.43)
(-12508608.27 0 -12558934.53)
(-13278727.81 0 -13011035.5)
(-14483375.64 0 -13331980.53)
(-16143660.75 0 -13535771.55)
(-18257908.49 0 -13638755.21)
(-20791345.99 0 -13659460.37)
(-23674172.41 0 -13618629.84)
(-26795784.99 0 -13539121.51)
(-30003049.02 0 -13445650.08)
(-33115920.88 0 -13365253)
(-35952189.76 0 -13327351.66)
(-38345628.68 0 -13362781.99)
(-40110402.82 0 -13502194.84)
(-41085660.95 0 -13772874.59)
(-41823055.16 0 -14199474.44)
(-43641473.85 0 -14824230.09)
(-39306102.99 0 -15704757.45)
(-27403320.56 0 -16593399.45)
(-2665819.156 0 45421438.28)
(266958.188 0 44554594.57)
(-106880.4444 0 43611996.14)
(-2288867.637 0 41723602.24)
(-2211956.361 -4.214602094e-07 39510676.81)
(-2416429.612 0 37052541.06)
(-2672558.367 0 34432892.52)
(-2839378.293 0 31738945.97)
(-2914454.926 0 29038556.05)
(-2907730.787 0 26380252.05)
(-2824551.535 0 23797748.09)
(-2670990.405 0 21313055.45)
(-2456504.173 0 18939397.53)
(-2189082.4 0 16684232.65)
(-1871246.244 0 14551097.54)
(-1513446.465 0 12540865.68)
(-1135514.054 0 10652969.18)
(-751715.7377 0 8886852.795)
(-377558.6362 0 7242957.544)
(-37707.54292 0 5721890.804)
(240599.153 0 4323716.742)
(425580.7724 0 3048527.232)
(481250.08 0 1896958.442)
(372135.7609 0 869079.3787)
(59698.89795 0 -37107.44219)
(-494397.9449 0 -825730.2224)
(-1318920.509 6.564482471e-08 -1503564.019)
(-2429324.608 0 -2080652.117)
(-3823951.24 0 -2570726.234)
(-5475776.777 0 -2991231.733)
(-7324900.168 6.359647769e-08 -3362343.333)
(-9281787.418 0 -3706784.564)
(-11235001.42 0 -4049459.277)
(-13054319.5 0 -4416218.757)
(-14603153.68 0 -4832954.548)
(-15761702.14 0 -5324835.452)
(-16438340.64 0 -5915905.258)
(-16570797.61 0 -6627552.183)
(-16130866.32 0 -7477230.715)
(-15128893.29 3.131678596e-08 -8478532.384)
(-13597934.05 0 -9639848.639)
(-11568770.29 0 -10963116.01)
(-9062089.487 0 -12443076.91)
(-6085306.539 0 -14068091.22)
(-2640877.637 0 -15820907.03)
(1329269.361 0 -17675152.92)
(6173819.908 3.209385717e-08 -19600288.35)
(12215154.76 0 -21609169.8)
(17177079.76 0 -23753636.16)
(17713312.43 0 -25439784.04)
(-1441962.009 0 4270685.346)
(1624586.05 0 4140326.027)
(2000109.929 7.288630631e-07 4060524.192)
(923375.0214 0 3817191.994)
(1640544.3 0 3523474.201)
(2090445.542 1.800384978e-07 3179359.237)
(2444647.849 0 2787723.313)
(2816350.47 0 2356654.216)
(3204354.334 -1.266262926e-07 1894148.867)
(3593297.599 0 1408349.098)
(3977072.376 0 907465.7962)
(4353912.132 0 399248.7915)
(4715535.922 0 -108979.9081)
(5047907.457 0 -610359.1874)
(5337680.897 8.764841734e-08 -1097865.119)
(5569821.032 0 -1564323.082)
(5724896.913 0 -2003693.447)
(5778807.431 0 -2411010.586)
(5708071.472 0 -2782048.383)
(5496445.821 0 -3114172.003)
(5131038.965 0 -3406801.855)
(4601059.709 -7.16691772e-08 -3661704.15)
(3906365.431 0 -3883485.835)
(3062610.756 0 -4079462.546)
(2100324.606 6.827694449e-08 -4259812.515)
(1062732.003 0 -4437468.892)
(3163.647001 0 -4627150.743)
(-1013126.965 0 -4845122.167)
(-1915845.276 0 -5108328.13)
(-2644175.967 0 -5432631.765)
(-3144202.828 0 -5831540.96)
(-3372014.309 0 -6315304.59)
(-3305420.398 0 -6889959.84)
(-2936535.943 0 -7555840.394)
(-2265618.597 0 -8307806.447)
(-1297049.836 0 -9136306.533)
(-40821.50436 0 -10027677.22)
(1482872.905 0 -10965685.59)
(3264977.954 0 -11932797.26)
(5309778.958 0 -12911136.02)
(7615130.542 6.372947379e-08 -13883612.41)
(10162587.8 6.388731818e-08 -14833728.64)
(12922150.73 0 -15745384.64)
(15857460.35 0 -16602331.95)
(18891429.24 0 -17386715.28)
(21930165.81 0 -18079161.66)
(25057395.17 0 -18658172.5)
(28376017.68 0 -19093702.96)
(28291728.88 -3.296253651e-08 -19358210.65)
(22734985.55 0 -19379869.17)
(-1260834.807 0 -4826299.551)
(1757762.644 -6.001925364e-07 -4879296.799)
(2444900.525 0 -4870416.697)
(1783540.005 0 -4936616.607)
(2697337.325 0 -5011250.307)
(3339883.568 0 -5095984.548)
(3873976.663 0 -5192008.71)
(4397263.959 0 -5296288.697)
(4904504.955 0 -5404853.536)
(5376823.827 0 -5514218.139)
(5804994.616 0 -5621676.957)
(6183251.731 1.032978751e-07 -5724123.338)
(6502767.127 0 -5818309.917)
(6750958.35 0 -5902078.599)
(6915226.812 0 -5973863.157)
(6987030.251 0 -6032918.364)
(6960130.767 0 -6079932.437)
(6831143.161 0 -6116981.932)
(6601926.933 0 -6147913.807)
(6280001.121 0 -6178052.802)
(5880631.343 0 -6213885.513)
(5426132.751 7.278532544e-08 -6263149.824)
(4942601.645 0 -6334224.485)
(4461738.054 -7.034064057e-08 -6435288.503)
(4017680.42 6.93402634e-08 -6573763.806)
(3637781.12 6.846622634e-08 -6755595.504)
(3349723.065 0 -6984605.061)
(3185043.486 0 -7262352.618)
(3163673.782 0 -7587302.086)
(3294395.305 0 -7954951.11)
(3589345.982 0 -8359100.779)
(4062054.458 0 -8791576.049)
(4709640.577 -6.498922023e-08 -9242788.517)
(5522442.5 6.478072627e-08 -9703215.344)
(6503481.776 0 -10162934.96)
(7647429.472 6.452931717e-08 -10612403.97)
(8937659.641 6.447946828e-08 -11042382.67)
(10360208.93 6.447622666e-08 -11443788.74)
(11894514.49 0 -11808217.62)
(13509883.24 0 -12126989.29)
(15166128.34 -6.472197213e-08 -12391114.85)
(16819661.04 0 -12591239.46)
(18425279.1 0 -12718432.91)
(19918408.51 0 -12765006.71)
(21214085.3 0 -12725270.08)
(22273165.3 0 -12595549.4)
(23221933.51 0 -12367535.02)
(24228276.43 0 -12023757.68)
(22207631.22 0 -11566436.36)
(15962032.14 0 -11116611.16)
(-884263.7017 0 -7602691.313)
(1860181.952 0 -7653885.955)
(2491609.107 0 -7589311.658)
(1971911.264 0 -7599885.099)
(2848558.305 0 -7596481.162)
(3485210.12 0 -7584343.739)
(4016602.867 0 -7567462.37)
(4516275.326 0 -7544701.914)
(4976852.363 0 -7514076.426)
(5389927.09 1.201427254e-07 -7474540.865)
(5749197.265 0 -7426166.616)
(6045575.009 0 -7368953.047)
(6276192.572 9.922330522e-08 -7303131.097)
(6438877.513 0 -7230122.265)
(6530973.633 9.039968085e-08 -7152326.719)
(6556884.95 8.693426157e-08 -7072626.605)
(6523329.699 8.394878842e-08 -6994595.824)
(6437750.924 0 -6922493.183)
(6311293.127 -7.911185696e-08 -6860725.549)
(6158815.233 0 -6813787.957)
(5998571.104 0 -6785947.276)
(5847586.429 0 -6780526.797)
(5720054.396 -7.259610334e-08 -6799738.71)
(5631762.628 0 -6844787.653)
(5598968.243 0 -6915243.295)
(5633851.499 0 -7009403.387)
(5747198.489 -6.875981844e-08 -7124966.769)
(5946874.063 0 -7257976.543)
(6233063.44 0 -7403249.794)
(6607986.934 0 -7555463.555)
(7074461.058 6.661427277e-08 -7709083.114)
(7625542.938 0 -7857735.209)
(8254956.839 6.600133733e-08 -7994633.574)
(8953073.789 0 -8114086.457)
(9705956.866 0 -8209948.396)
(10504080.38 -6.553427191e-08 -8275587.151)
(11329366.99 0 -8305697.455)
(12158964.67 -6.548035459e-08 -8294778.887)
(12974829.4 0 -8237313.894)
(13757881.41 6.560567497e-08 -8129311.107)
(14480073.43 0 -7967764.855)
(15107015.82 -6.58927263e-08 -7750008.423)
(15616695.77 0 -7474344.15)
(16006048.13 0 -7142916.097)
(16246783.68 0 -6766940.302)
(16191425.52 0 -6359466.64)
(15684667.91 6.723356492e-08 -5818050.648)
(14984716.79 6.759889514e-08 -4700991.964)
(12853137.79 0 -1923439.203)
(8475101.871 0 1357863.596)
(-727234.1943 0 -7637520.09)
(1507940.682 0 -7685578.509)
(2135090.979 0 -7576702.25)
(1827972.618 0 -7555409.699)
(2580695.872 0 -7507642.318)
(3123205.981 0 -7441972.719)
(3572253.209 0 -7364393.973)
(3982578.154 0 -7274899.639)
(4348884.979 0 -7173971.942)
(4667488.286 0 -7062652.651)
(4936730.899 1.134980504e-07 -6941830.497)
(5152107.934 0 -6813402.686)
(5317186.184 1.007685705e-07 -6679628.062)
(5438869.379 9.592080917e-08 -6542636.044)
(5519174.119 0 -6405248.002)
(5562878.695 0 -6270370.44)
(5579759.412 0 -6140479.352)
(5578288.724 8.262953467e-08 -6017951.013)
(5567349.403 0 -5904820.494)
(5558095.046 7.834823327e-08 -5802603.393)
(5559172.851 7.660141045e-08 -5712033.977)
(5576717.363 0 -5632844.667)
(5618554.626 0 -5564303.579)
(5690914.388 0 -5505282.6)
(5797842.614 -7.151683797e-08 -5453657.537)
(5945626.017 0 -5406650.416)
(6134683.608 0 -5361252.115)
(6360487.931 0 -5313903.875)
(6621890.376 0 -5260801.549)
(6917004.51 0 -5198379.734)
(7238273.97 0 -5122524.672)
(7575933.082 -6.730675541e-08 -5029252.604)
(7926724.341 0 -4915035.073)
(8279808.763 0 -4775965.773)
(8617083.184 0 -4609037.457)
(8934699.454 0 -4411384.803)
(9221207.558 0 -4180028.62)
(9450616.552 0 -3913067.947)
(9614036.776 0 -3609058.181)
(9707498.31 0 -3266749.617)
(9702848.528 0 -2885899.085)
(9569703.195 0 -2468536.35)
(9330154.507 6.712173975e-08 -2012287.997)
(9116204.063 -6.736057449e-08 -1509943.816)
(9020418.809 6.763410031e-08 -965553.7395)
(7205567.305 0 -185104.5242)
(-3635152.984 0 1666015.426)
(-39962014.43 0 4670192.417)
(-78980931.61 0 8086319.092)
(-77197700.42 3.474251253e-08 10594829.89)
(-393962.9981 0 -6258765.274)
(1220564.034 0 -6305179.911)
(1661264.985 0 -6191250.034)
(1461647.749 0 -6156985.036)
(2015796.091 0 -6093608.237)
(2421243.644 0 -6011509.829)
(2754098.16 0 -5916843.237)
(3051633.727 0 -5810793.345)
(3314708.015 1.347005998e-07 -5694708.416)
(3538449.713 0 -5570503.447)
(3724604.214 0 -5439585.23)
(3876286.752 0 -5303816.133)
(3994317.363 1.023379018e-07 -5165542.618)
(4083652 0 -5026395.549)
(4150594.122 0 -4887823.31)
(4199147.812 0 -4751424.29)
(4234095.13 -1.73167843e-07 -4618389.235)
(4261327.406 0 -4489425.907)
(4286264.175 0 -4364952.423)
(4313282.43 0 -4244883.011)
(4344524.895 7.779437162e-08 -4128619.666)
(4382933.371 0 -4015351.601)
(4433606.597 -7.487487825e-08 -3904066.814)
(4496908.779 0 -3793241.48)
(4570023.108 0 -3681228.984)
(4652957.526 0 -3566168.738)
(4744414.74 -7.091817325e-08 -3445719.953)
(4839347.573 0 -3317866.317)
(4933316.103 0 -3180564.834)
(5019947.35 0 -3031710.774)
(5091946.669 0 -2869167.88)
(5143719.827 0 -2691183.32)
(5164333.738 0 -2496178.082)
(5145237.061 0 -2282185.664)
(5079953.996 6.769542619e-08 -2048158.873)
(4954436.901 0 -1793294.795)
(4758521.218 6.753916323e-08 -1516350.102)
(4485134.193 0 -1217294.504)
(4121641.988 6.75785135e-08 -897704.3515)
(3662864.621 0 -557400.6639)
(3125023.089 6.779317443e-08 -180941.7781)
(2441964.015 0 236960.4805)
(1455281.399 0 561840.2484)
(254168.6695 0 923961.4578)
(-4080260.963 -6.868740801e-08 2344290.037)
(-24989822.89 0 5030923.631)
(-61582207.94 0 7812024.65)
(-89310331.53 6.972080884e-08 8579188.77)
(-85535007.51 0 5498918.355)
(-58390242.99 0 1299981.02)
(-258144.4959 0 -4271964.886)
(828432.6977 0 -4301984.871)
(1184585.97 0 -4211042.865)
(1120842.852 0 -4181792.483)
(1528032.038 0 -4130755.427)
(1827434.147 0 -4066290.737)
(2075530.549 0 -3993070.125)
(2296595.435 0 -3912969.536)
(2492129.902 1.367983755e-07 -3827093.657)
(2659795.879 0 -3736855.026)
(2799248.068 0 -3644004.225)
(2915045.54 0 -3549729.611)
(3010296.284 0 -3455253.284)
(3086292.564 0 -3361801.547)
(3146356.677 0 -3270154.995)
(3194334.595 -1.821189738e-07 -3180866.329)
(3233398.916 0 -3094322.825)
(3266038.684 0 -3010654.744)
(3294357.945 0 -2929758.927)
(3320109.056 0 -2851272.614)
(3344681.097 0 -2774645.438)
(3369431.359 0 -2699367.362)
(3394044.819 -7.604095099e-08 -2624611.68)
(3416933.349 0 -2549252.105)
(3436740.306 0 -2472367.64)
(3450237.74 0 -2393016.732)
(3453755.51 0 -2310121.643)
(3443181.588 7.132180875e-08 -2222660.806)
(3413656.8 0 -2129791.118)
(3359351.426 0 -2030627.516)
(3273867.977 0 -1924587.66)
(3151144.474 6.941949927e-08 -1811120.903)
(2982533.25 0 -1689772.2)
(2761143.785 -6.891146e-08 -1560580.179)
(2480808.62 0 -1423466.483)
(2133056.457 -6.864401984e-08 -1279157.955)
(1714715.14 0 -1130059.439)
(1235689.864 0 -975000.5588)
(684854.5554 0 -790620.1988)
(-176444.3718 0 -577167.5755)
(-1454254.282 0 -547232.4134)
(-1045558.353 0 -547346.2277)
(-716975.3617 6.922867601e-08 624494.3489)
(-17462281.07 0 3143162.78)
(-53002512.29 0 5582520.971)
(-76803127.24 7.007379315e-08 6048883.254)
(-59296132.58 0 3593337.409)
(-3214872.024 0 -596906.3839)
(38733681.27 0 -5058035.02)
(38600292.1 -3.583307216e-08 -8293645.666)
(-96390.46149 -3.794787188e-06 -2406424.183)
(645299.2233 1.296813824e-06 -2426164.404)
(898021.3503 0 -2368109.873)
(889914.0657 0 -2346903.259)
(1192930.19 0 -2310789.388)
(1427061.71 0 -2265928.355)
(1628115.925 0 -2215522.402)
(1810774.723 3.062776283e-07 -2160901.147)
(1974088.531 0 -2103150.384)
(2119181.83 2.556072167e-07 -2043215.783)
(2247044.987 1.188837867e-07 -1982189.807)
(2358060.899 0 -1921079.03)
(2454440.154 1.055502645e-07 -1860460.564)
(2538427.099 0 -1800891.277)
(2611615.023 0 -1742836.289)
(2675304.605 -9.24776118e-08 -1686566.688)
(2731027.455 0 -1632154.095)
(2780557.339 -8.655049082e-08 -1579493.791)
(2824842.108 0 -1528370.828)
(2863906.064 -1.641320642e-07 -1478514.589)
(2898105.504 0 -1429561.522)
(2927095.744 0 -1381035.894)
(2949166.561 7.722518305e-08 -1332368.141)
(2962745.962 0 -1283057.579)
(2965701.753 7.491047182e-08 -1232634.151)
(2955243.622 0 -1180601.394)
(2927996.989 0 -1126679.697)
(2880142.815 0 -1070570.431)
(2807447.228 -7.182066412e-08 -1012213.102)
(2705323.841 0 -951596.6681)
(2569160.007 0 -888988.8485)
(2393940.352 0 -824737.1813)
(2174946.246 0 -759493.9883)
(1907572.418 0 -694925.1472)
(1593711.996 0 -634075.1764)
(1250775.959 0 -574412.4073)
(845544.1999 -6.965920166e-08 -486513.272)
(34568.88106 0 -379736.3234)
(-1185024.503 -6.969978713e-08 -519760.0455)
(369809.9904 0 -713380.5266)
(2652528.069 0 369068.3106)
(-14200134.5 -7.009436616e-08 2877900.064)
(-51320022.25 0 5302141.12)
(-71815142.97 0 5778472.361)
(-47300429.69 0 3493374.151)
(4740392.72 0 -445598.9355)
(40634744.72 3.576035158e-08 -4392337.838)
(47108883.35 0 -6716487.418)
(38513528.87 0 -6885604.672)
(29211387.73 -3.639112243e-08 -6125563.534)
(-64338.63935 0 -1155184.929)
(470923.607 1.317009914e-06 -1161501.491)
(685896.669 8.121304784e-07 -1123357.489)
(719488.186 0 -1104093.75)
(960381.3699 0 -1074481.43)
(1150393.905 0 -1038004.915)
(1316406.168 0 -996765.2327)
(1469928.488 0 -951316.1799)
(1610624.746 0 -902386.2378)
(1737188.797 0 -850793.551)
(1850533.227 0 -796990.5531)
(1951917.85 0 -741416.7391)
(2041665.596 0 -684472.1347)
(2120668.857 0 -626392.0859)
(2190311.678 0 -567305.8004)
(2251442.591 0 -507242.391)
(2304170.48 0 -446160.1856)
(2348488.132 0 -383941.5814)
(2384880.836 -8.546703297e-08 -320389.0215)
(2413492.733 0 -255259.9727)
(2433484.417 -8.14858888e-08 -188336.3257)
(2443818.408 0 -119359.2335)
(2443399.448 0 -48135.68514)
(2431020.754 0 25450.56747)
(2404790.547 0 101454.6327)
(2362904.153 0 179793.9403)
(2303218.342 0 260272.5419)
(2223608.596 0 342503.5017)
(2122018.834 0 425964.0634)
(1996184.821 0 509957.7083)
(1843807.55 0 593559.9366)
(1663599.183 0 674650.275)
(1463010.724 0 749638.8809)
(1265041.338 0 822366.8486)
(1014834.811 0 927137.2627)
(301787.2703 0 1047456.945)
(-738255.0461 0 878399.3715)
(1689838.441 0 628219.4592)
(5000659.786 0 1669785.223)
(-12185510.22 0 4150910.691)
(-50103004.98 0 6601979.211)
(-69004882.16 0 7167295.932)
(-41700594.48 0 4963948.174)
(8065060.572 0 1073246.511)
(37869815.73 3.597338968e-08 -2594734.948)
(41202481.31 3.613669669e-08 -4391159.186)
(36494574.36 0 -4403796.038)
(35424008.06 3.651460869e-08 -3510384.342)
(29279047.28 0 605774.0343)
(-16395377.82 0 6855249.062)
(-35616.63448 0 -369829.6474)
(377695.6015 1.337520512e-06 -370377.9928)
(535356.6334 8.247782813e-07 -345643.3665)
(554866.3576 0 -326180.335)
(737450.5241 0 -298300.7758)
(883799.394 0 -264156.4353)
(1011649.995 0 -224933.001)
(1127745.988 0 -181138.6266)
(1233528.079 0 -133133.9064)
(1328488.563 0 -81225.46428)
(1411371.429 0 -25835.4009)
(1482509.843 0 32719.40273)
(1542783.821 0 94198.37105)
(1592521.58 0 158441.5655)
(1631774.027 0 225408.6655)
(1660472.251 9.538046276e-08 295124.3222)
(1678853.661 0 367572.3898)
(1687218.308 0 442677.8825)
(1685235.941 0 520408.0663)
(1672514.553 0 600828.6835)
(1648960.764 0 683904.1182)
(1614188.426 0 769514.3213)
(1567567.136 0 857569.5454)
(1508642.239 0 947780.584)
(1437108.215 0 1039797.952)
(1352659.561 0 1133177.022)
(1255164.5 -7.544026007e-08 1227426.593)
(1144500.988 0 1321943.769)
(1020243.37 0 1415956.533)
(882881.9779 0 1507451.935)
(744669.0605 0 1592929.962)
(632492.5388 0 1677468.591)
(475602.1605 0 1799195.665)
(-176094.6579 0 1940179.473)
(-1089681.574 0 1773659.067)
(1881450.718 0 1502363.34)
(6002326.493 0 2501672.517)
(-10125632.35 0 4938263.039)
(-46427278.23 0 7401031.654)
(-64091393.36 0 8026632.275)
(-37834889.6 0 5861100.504)
(7668144.628 0 1971814.844)
(33161374.85 -3.625686558e-08 -1579988.489)
(35516025.11 0 -3111735.904)
(31814840.99 0 -3012845.434)
(31309305.44 3.669947549e-08 -2187004.765)
(27302052.24 0 1830347.028)
(-29554275.64 0 8293486.791)
(-121910158.9 0 14255770.26)
(-158505779.2 -3.753343139e-08 18924556.55)
(-58745.28935 0 131182.4019)
(281720.7631 0 135171.9087)
(403073.2474 8.3762306e-07 151487.8109)
(400950.3439 0 169312.2385)
(539443.067 0 193037.3268)
(644985.5093 0 221773.0624)
(734717.8241 0 255107.3123)
(815222.7649 0 292521.7438)
(885103.4629 0 333496.4874)
(943796.2707 0 377735.1646)
(992436.6222 0 424993.6204)
(1031161.77 0 474914.6878)
(1059276.704 0 527234.6313)
(1076201.761 0 581737.6793)
(1081870.867 0 638223.9692)
(1076901.765 0 696454.0992)
(1062183.258 0 756105.3797)
(1037819.524 0 816984.2173)
(1003049.176 0 879083.255)
(958004.293 0 942153.3929)
(903450.9979 0 1005765.344)
(838854.0685 0 1069762.474)
(764800.5141 0 1133861.482)
(682679.3763 0 1197596.275)
(592424.1148 0 1260706.805)
(494027.659 0 1322855.744)
(387461.8222 0 1383583.543)
(274110.7638 0 1441343.043)
(167651.0032 0 1493034.068)
(96578.80109 0 1544644.263)
(-16643.28368 0 1636499.592)
(-638336.2086 -7.384602309e-08 1753735.744)
(-1513317.623 -7.354151965e-08 1563753.637)
(1594061.866 0 1246258.693)
(6119044.612 0 2164003.806)
(-8584097.215 0 4531861.982)
(-42592943.91 0 6973252.779)
(-59056644.74 0 7610959.133)
(-34330225.18 0 5492456.233)
(7317627.528 0 1675634.234)
(29580261.07 0 -1782666.191)
(31225445.4 0 -3230836.573)
(28044726.76 0 -3175973.578)
(27977165.95 0 -2504531.013)
(24603320.75 -7.420517157e-08 1354699.133)
(-29114896.97 -3.727101896e-08 7778177.186)
(-117429648.1 0 13697498.13)
(-150634594.4 0 18493647.62)
(-134187782.5 0 19351028.22)
(-117854386.9 0 17157635.84)
(-72886.53786 0 465972.7774)
(231782.0013 0 471118.8269)
(315192.9604 0 479330.2792)
(280373.2125 0 492530.0305)
(386835.4167 -4.995535899e-07 509284.7387)
(462384.1071 0 529352.8588)
(523133.2965 0 552276.4288)
(576884.0845 0 577769.4859)
(623772.4043 0 605535.4423)
(661658.2934 0 634959.5175)
(689995.3964 0 665614.3451)
(709405.4383 0 697313.0463)
(719900.2943 0 729826.8828)
(721472.2826 0 762813.1284)
(714513.6179 0 795854.8502)
(700124.313 0 828560.421)
(678347.9259 0 860726.512)
(647038.5972 0 892357.6481)
(606491.3051 0 923251.0349)
(560070.4382 0 952879.817)
(507091.4028 1.70705153e-07 981068.4747)
(446202.9706 0 1007802.756)
(379857.8659 0 1032725.79)
(307713.6638 0 1055851.119)
(228675.1397 0 1077172.057)
(144714.882 0 1095291.494)
(68320.12964 0 1107395.924)
(27278.78186 0 1119714.775)
(-55425.56413 0 1173606.548)
(-640294.9694 0 1258982.021)
(-1504490.445 0 1047614.099)
(1461678.406 0 679252.7553)
(6094311.434 0 1493841.917)
(-7158616.76 0 3786649.454)
(-39058839.52 0 6202798.313)
(-54679404.66 0 6840791.273)
(-31186781.29 0 4760152.189)
(7666576.785 0 1009406.52)
(27683560.48 0 -2375617.311)
(28856843.82 -7.42390978e-08 -3774741.491)
(25977929.53 0 -3757451.772)
(26015543.7 0 -3273973.281)
(23257254.11 0 212322.6902)
(-26911228.7 0 6583384.866)
(-111452616.3 0 12565620.84)
(-143982675.1 0 17411990.03)
(-129014828.4 0 18293074.76)
(-113576278.8 0 16105391.84)
(-101505513.2 0 14067269.09)
(-91795492.78 0 12468844.64)
(-105848.7626 0 603974.7521)
(193411.3977 -1.400988854e-06 609715.706)
(263613.6409 0 611441.2415)
(206364.0005 0 619704.1047)
(296979.714 0 629443.2245)
(357417.5848 0 640822.066)
(405232.5097 0 653507.8676)
(446298.4232 0 667191.0501)
(481840.2903 0 681777.4053)
(512364.5514 0 697008.7593)
(536279.9984 0 712384.8265)
(552584.8829 -1.205606226e-07 727633.3823)
(561937.8895 1.14029278e-07 742517.2526)
(565422.9135 1.085435723e-07 756795.8607)
(563655.107 0 770255.5416)
(555878.1653 0 782743.8227)
(540028.6185 -9.647551764e-08 794224.6606)
(516357.9362 0 804625.9942)
(488705.2719 0 813633.8516)
(457234.1606 0 821077.5698)
(418614.3479 0 827134.3583)
(374124.6412 0 831855.1478)
(324199.5756 -8.342879964e-08 835222.1271)
(267252.0016 0 836119.7337)
(216745.1098 -8.092814413e-08 831735.6916)
(200359.7389 0 828123.2628)
(144227.1678 0 866835.7209)
(-395581.0726 0 943452.7292)
(-1252180.133 0 740572.2836)
(1440057.077 0 342065.5409)
(6084979.093 0 1043397.303)
(-5603482.294 0 3245899.832)
(-35585476 7.58499712e-08 5643796.247)
(-50931751.44 0 6323094.488)
(-28853328.72 0 4314605.453)
(7865125.466 0 622325.903)
(26483426.51 0 -2701228.703)
(27418481.33 0 -4031414.762)
(24669136.05 7.52988772e-08 -3983733.87)
(24574496.1 0 -3637204.023)
(23089489.36 0 -688704.6235)
(-20693861.46 0 5592429.032)
(-102291724.9 0 11719104.55)
(-138415192.1 -3.811246719e-08 16703364.1)
(-125186652.3 0 17723926.98)
(-109819970.5 3.844094776e-08 15580475.76)
(-98476025.37 3.86330351e-08 13583563.65)
(-89039252.54 0 11990473.46)
(-80240034.08 0 10617388.26)
(-72913007.52 -1.965723836e-08 9438162.229)
(-124896.7959 0 589427.3932)
(189740.2117 0 594747.2967)
(247467.3422 -8.77370148e-07 592310.352)
(165596.4771 0 597731.7284)
(249990.4073 2.576172288e-07 603371.608)
(303945.5498 0 609590.7203)
(346523.0563 0 616548.676)
(384075.4447 -1.680171976e-07 624020.8299)
(416692.75 -1.524266145e-07 631709.9986)
(445254.6779 -1.402205198e-07 639544.8329)
(469451.1154 0 647387.0697)
(488338.3358 0 655016.9003)
(501924.8273 -1.158051258e-07 662265.3672)
(510239.1412 1.102339878e-07 669044.3165)
(513194.489 0 675352.8983)
(510632.1578 0 681226.1811)
(502054.1781 -9.797798999e-08 686591.2218)
(487714.3111 0 691173.7738)
(468890.5729 0 694999.8317)
(444966.7793 0 698574.5777)
(413432.7109 8.803177349e-08 701810.2862)
(374586.3859 0 703308.8686)
(341451.6537 0 700649.6133)
(339752.7642 0 699267.9313)
(302356.1207 0 740663.7088)
(-193211.3346 0 826858.22)
(-1045484.771 0 655325.8774)
(1307685.805 0 250901.2823)
(5959637.616 7.879848606e-08 846598.9873)
(-3884672.403 0 2949927.947)
(-31723839.15 0 5337154.257)
(-47210329.58 -7.735018209e-08 6109525.824)
(-27307561.24 0 4224924.926)
(7211304.29 0 593011.5295)
(25007308.47 0 -2696582.107)
(25967295.67 0 -3973215.028)
(23235819.34 0 -3861965.089)
(22852441.3 0 -3584883.942)
(22842679.26 -7.647155275e-08 -1287414.598)
(-12054259.14 0 4768307.378)
(-89885428.09 7.671446213e-08 11078886.72)
(-132464944.6 -3.845223379e-08 16310118.59)
(-122420655.8 0 17738072.62)
(-107146502.6 0 15679572.71)
(-95957157.41 0 13660091.79)
(-86744125.81 0 12067193.76)
(-78495846.94 0 10711695.29)
(-71043234.86 -1.972394122e-08 9521323.22)
(-64220587.88 0 8477462.675)
(-58787261.82 -1.996337258e-08 7587559.252)
(-153136.3194 0 443796.2068)
(184774.5346 0 449677.012)
(238849.4567 8.910339773e-07 446268.8066)
(137406.8439 0 451359.9538)
(221523.5544 0 456301.2091)
(272029.862 0 461742.8478)
(310152.4826 1.914875664e-07 468024.5929)
(344671.3946 0 475029.3576)
(375856.7416 0 482461.0601)
(403367.2185 0 490167.1785)
(426753.3097 -1.32465413e-07 498170.3905)
(445338.6023 0 506386.3818)
(458967.391 0 514744.7248)
(467571.681 1.119507301e-07 523220.0966)
(470881.5973 0 531798.2188)
(468729.1205 0 540485.9111)
(461542.7734 0 549293.3832)
(448839.3087 0 558104.3602)
(428160.5391 0 566869.3372)
(400584.3324 -9.144149208e-08 574843.4993)
(378831.6027 0 579220.4604)
(384918.1444 0 584723.6956)
(359700.0236 -8.604761049e-08 634271.6714)
(-97431.58889 0 735475.5632)
(-952873.6329 0 601531.8783)
(1033456.858 8.241633638e-08 208748.9385)
(5616628.282 0 718004.1719)
(-2392520.702 0 2716056.882)
(-27916868.67 0 5083908.241)
(-43623833.01 0 5975584.757)
(-26418351.68 0 4267024.801)
(5783530.029 0 731562.1319)
(23233230.79 -7.823088437e-08 -2536128.872)
(24531289.98 0 -3809054.258)
(21779044.42 0 -3656301.69)
(20939414.33 0 -3398160.994)
(21975107.16 7.761726959e-08 -1787763.721)
(-2931036.237 7.761336748e-08 3799340.618)
(-74932956.74 0 10270394.36)
(-125203563.2 0 15794092.28)
(-120297971 0 17875493.9)
(-105097323.8 0 16003958.27)
(-93911325.61 0 13929758.1)
(-84931948.49 0 12309260.43)
(-76973643 -3.946842698e-08 10943848.37)
(-69723443.91 0 9746128.241)
(-63197119.49 -1.99228586e-08 8694418.454)
(-57492506.39 0 7781219.116)
(-52423223.78 0 6992585.62)
(-48414290.88 -2.027427456e-08 6319422.39)
(-176483.5996 0 216855.9208)
(185420.729 0 223245.5832)
(230449.9029 0 220524.8344)
(104349.5012 0 226986.5399)
(185127.4091 2.657037731e-07 233711.4571)
(229295.1037 0 241485.328)
(260487.4408 0 250599.5565)
(289008.6453 0 260884.7281)
(315223.5104 0 272076.7218)
(337999.8531 -1.44622009e-07 284005.7013)
(356684.8242 1.345283774e-07 296711.896)
(370979.1442 0 310136.0828)
(380516.9519 0 324172.0027)
(384960.1794 0 338758.7051)
(383991.9088 0 353906.5804)
(377272.5289 0 369678.6615)
(365286.4546 0 385947.9658)
(348749.3237 9.794016005e-08 401392.9197)
(334146.1293 0 412843.922)
(344032.959 0 425625.8298)
(330416.8348 0 486528.0574)
(-100510.6427 0 606408.1218)
(-970875.8614 0 509536.5592)
(664132.6531 0 146987.6629)
(5056204.723 0 615039.026)
(-1400450.178 0 2527824.517)
(-24563493.39 0 4866263.262)
(-40250505.46 0 5868049.223)
(-25819422.66 0 4349307.261)
(4010519.241 0 935408.4527)
(21318519.08 0 -2320008.438)
(23135992.1 0 -3643060.365)
(20434585.82 0 -3486326.632)
(19120330.7 0 -3203464.461)
(20494396.52 0 -2195307.247)
(5057611.765 0 2648017.685)
(-58311840.49 -7.882605049e-08 9213051.127)
(-115665670.8 0 15029662.77)
(-118318784.9 0 17929613.86)
(-103504759.8 0 16418118.03)
(-92181114.52 0 14274707.92)
(-83356948.52 0 12605600.62)
(-75649933.03 0 11219170.54)
(-68632979.14 0 10006566.33)
(-62269766.58 0 8937473.481)
(-56620553.05 2.013252822e-08 8003555.504)
(-51685361.26 -2.023312938e-08 7195419.646)
(-47383947.51 0 6497010.465)
(-43517154.57 0 5887035.642)
(-40443469.21 0 5358583.111)
(-208222.0513 0 -96254.51462)
(173343.2675 0 -89503.73837)
(209453.6265 0 -90698.8958)
(57915.87304 0 -82389.47784)
(132209.5294 -2.698417427e-07 -73239.46339)
(166126.6204 0 -62502.53203)
(186458.2504 0 -49837.49039)
(205352.3011 0 -35458.44649)
(223170.1849 0 -19802.85164)
(237654.3524 0 -2886.265579)
(247731.2922 0 15516.05232)
(253724.8694 0 35262.2203)
(255519.2598 -1.213003381e-07 56102.68515)
(252255.4461 1.154648371e-07 77887.90672)
(242770.9543 0 100403.5164)
(227932.5247 0 122302.8661)
(218921.0046 0 140438.1063)
(239583.3741 9.946544286e-08 161525.785)
(235056.2591 -9.671412354e-08 239377.336)
(-202361.1413 0 384060.9763)
(-1115171.308 0 321992.8935)
(224980.7995 0 14006.80448)
(4297746.972 8.874862475e-08 512703.2015)
(-1149332.748 0 2385902.472)
(-22153297.67 0 4689149.463)
(-37350007.64 0 5760178.588)
(-25249848.65 0 4400669.663)
(2296520.895 0 1118200.535)
(19410485.87 0 -2122026.518)
(21780191.1 0 -3526183.233)
(19235478.36 0 -3395198.654)
(17540376.15 0 -3063215.1)
(18657929.47 -8.068653343e-08 -2481483.383)
(10826203.49 0 1394522.759)
(-41232208.02 0 7916361.71)
(-103414978.5 0 14003559.37)
(-116037301.6 0 17776695.11)
(-102354260.5 0 16872038.18)
(-90763468.48 4.00501495e-08 14675651.91)
(-82013603.74 0 12940322.06)
(-74519921.73 0 11525506.5)
(-67716642.42 0 10295174.62)
(-61511749.76 0 9207078.193)
(-55950070.94 0 8251022.394)
(-51050930.93 0 7419157.571)
(-46752650.47 0 6698148.59)
(-42957312.96 0 6070236.918)
(-39582899.77 0 5519290.835)
(-36547502.54 0 5031636.539)
(-34166742 0 4606197.732)
(-233904.2939 0 -488547.9915)
(161716.0943 0 -482233.3409)
(181530.0544 0 -482257.4994)
(374.8641918 0 -472979.7327)
(64372.02358 0 -462251.1757)
(84691.31593 0 -449608.455)
(90574.6842 0 -434780.4074)
(97056.03609 0 -418052.5463)
(103234.3672 0 -399455.3499)
(103839.5768 0 -378661.5866)
(99131.94627 0 -355994.61)
(91928.52523 0 -331790.4711)
(82000.6505 0 -306194.6035)
(68931.7302 0 -280674.3349)
(61386.56188 0 -258037.6803)
(81353.33116 0 -224475.8228)
(68585.25094 -1.042255431e-07 -117444.7269)
(-419201.0133 -1.010144801e-07 66967.77977)
(-1410825.318 0 41350.76312)
(-280496.9153 0 -176334.5216)
(3340945.458 0 453321.4176)
(-1809832.494 0 2354981.951)
(-21013888.97 0 4618505.393)
(-35102678.18 0 5692222.241)
(-24502844.87 0 4415087.715)
(1026563.449 0 1232527.926)
(17681507.83 0 -1991592.82)
(20416532.97 0 -3478814.643)
(18104841.75 0 -3390982.832)
(16183796.61 0 -3008110.198)
(16746473.95 -8.270409717e-08 -2663035.128)
(13947015.71 0 170525.3052)
(-25190729.41 0 6426393.51)
(-88493749.68 0 12749304.74)
(-112627406.7 0 17337249.65)
(-101582246.3 0 17326099.64)