/*--------------------------------*- C++ -*----------------------------------*\
  =========                 |
  \\      /  F ield         | OpenFOAM: The Open Source CFD Toolbox
   \\    /   O peration     | Website:  https://openfoam.org
    \\  /    A nd           | Version:  7
     \\/     M anipulation  |
\*---------------------------------------------------------------------------*/
FoamFile
{
    version     2.0;
    format      ascii;
    class       volTensorField;
    location    "0.0015";
    object      grad(U);
}
// * * * * * * * * * * * * * * * * * * * * * * * * * * * * * * * * * * * * * //

dimensions      [0 0 -1 0 0 0 0];

internalField   nonuniform List<tensor> 
14000
(
(-0.002980502598 3.923269036e-17 -0.0001757250274 -2.647378579e-15 -0.004826901449 0 0.0005944225603 -2.957872873e-16 0.008367964102)
(-0.004006389747 -3.173269572e-16 -0.0004605657059 -9.255491727e-16 -0.004247662423 0 0.001558191336 -5.07019079e-16 0.008434539373)
(-0.004042522416 -6.491594578e-16 -0.0007589084433 -3.393573181e-16 -0.00409601384 0 0.002471930378 -6.452411006e-16 0.008586926673)
(-0.004278114987 -7.701229059e-16 -0.001037103057 -5.286169408e-17 -0.004111342787 0 0.003415791364 -5.17575666e-16 0.00880872603)
(-0.004486149607 -8.402708065e-17 -0.001321024723 1.449360987e-16 -0.004165832907 0 0.004364273492 -4.320657478e-16 0.009095533566)
(-0.004711530858 4.241388691e-16 -0.001605486369 2.032135697e-17 -0.004237160133 0 0.005309918224 -4.517771133e-16 0.009442397915)
(-0.004968818541 2.3918786e-16 -0.001889217742 -1.76798909e-17 -0.00432196212 0 0.00625382738 -3.36508974e-16 0.009844331402)
(-0.005253587532 1.435750322e-16 -0.0021734055 -5.514068962e-17 -0.004418381793 0 0.007197126136 -2.363403517e-16 0.01029666229)
(-0.005560168252 9.821974685e-17 -0.002459452126 -7.146299615e-17 -0.004524657866 0 0.008139997155 -1.460207079e-16 0.01079506317)
(-0.00588395607 6.622826322e-17 -0.002748627603 -5.259227727e-17 -0.004639261191 0 0.009082014501 -1.514702203e-16 0.01133553459)
(-0.006220433885 4.201819358e-17 -0.003042165756 -6.1152118e-17 -0.004760831746 0 0.01002221131 -1.471716654e-16 0.01191439614)
(-0.006564870781 3.462140095e-17 -0.003341272138 -4.592268727e-17 -0.004888096793 0 0.01095910971 -1.348555221e-16 0.01252827024)
(-0.006912345328 4.068834617e-17 -0.003647112947 -6.515225406e-17 -0.005019830882 0 0.01189073329 -1.142067758e-16 0.01317405995)
(-0.007257727547 4.334390288e-17 -0.00396079841 -6.201791786e-17 -0.005154835983 0 0.01281466148 -1.444683996e-16 0.01384893832)
(-0.00759564966 3.794922623e-17 -0.004283335992 -5.935846383e-17 -0.005291926705 0 0.01372810357 -1.628807836e-16 0.01455032473)
(-0.007920716211 4.156726959e-17 -0.004615676777 -5.708299158e-17 -0.005429921704 0 0.01462780796 -1.457366191e-16 0.01527586128)
(-0.00822767171 5.549947784e-17 -0.004958837842 -6.430977322e-17 -0.005567660249 0 0.01551007289 -1.511806187e-16 0.01602340479)
(-0.008510534448 5.925030318e-17 -0.005313938758 -7.123253356e-17 -0.005704009449 0 0.01637097082 -1.781552173e-16 0.01679102611)
(-0.008762039421 5.149006264e-17 -0.005682211399 -6.926216636e-17 -0.005837793981 0 0.01720622521 -2.001863344e-16 0.01757701555)
(-0.008974604049 4.595675046e-17 -0.006064897596 -6.754174736e-17 -0.00596777091 0 0.01801114929 -2.172849176e-16 0.01837987662)
(-0.009141156329 4.099833907e-17 -0.006463176935 -6.60358619e-17 -0.006092671505 0 0.01878080624 -2.321692288e-16 0.01919830888)
(-0.00925476601 3.458561824e-17 -0.006878350831 -4.853678358e-17 -0.006211239957 0 0.01951004882 -2.45452865e-16 0.02003120981)
(-0.00930704007 2.007124387e-16 -0.007311918095 -4.766823438e-17 -0.006322225944 0 0.02019354072 -2.74015112e-16 0.02087768963)
(-0.009288341087 3.633577966e-16 -0.007765230553 -4.690654919e-17 -0.006424303168 0 0.02082575589 -3.13300649e-16 0.02173707391)
(-0.009189579504 3.616069425e-16 -0.008239336129 -7.706574866e-17 -0.006516095903 0 0.02140097637 -3.511845516e-16 0.02260886687)
(-0.009000947664 3.614034882e-16 -0.008734945162 -7.609433151e-17 -0.006596230101 0 0.02191336368 -3.718992503e-16 0.02349274282)
(-0.008711663207 1.980423356e-16 -0.009252022986 -9.029848684e-17 -0.006663268996 0 0.02235698949 -3.924476714e-16 0.02438852181)
(-0.008310621495 4.246860065e-17 -0.009789483818 -8.941983633e-17 -0.006715746987 0 0.0227259162 -3.999440945e-16 0.02529610939)
(-0.007785678653 2.119778856e-16 -0.01034484967 -8.866445155e-17 -0.006752154272 0 0.02301416321 -4.066169052e-16 0.02621544919)
(-0.00712483203 3.750504243e-16 -0.01091393673 -7.335108951e-17 -0.006770928166 0 0.02321569148 -4.254650042e-16 0.02714642531)
(-0.006314756629 2.224610926e-16 -0.01149062549 -8.748085975e-17 -0.006770502181 0 0.02332456301 -4.448714964e-16 0.02808876826)
(-0.005339276624 8.971215308e-17 -0.01206634945 -8.703481266e-17 -0.006749224227 0 0.02333490628 -4.531433644e-16 0.02904193154)
(-0.004181931836 1.272065135e-16 -0.01262986639 -1.155679005e-16 -0.006705338431 0 0.02324089231 -4.621269989e-16 0.03000491994)
(-0.002826737899 1.558086364e-16 -0.01316757051 -1.151971434e-16 -0.006637039829 0 0.02303681895 -4.726747977e-16 0.03097611412)
(-0.001255529131 1.702576443e-16 -0.01366385537 -1.149267157e-16 -0.006542485361 0 0.02271720303 -4.846979215e-16 0.03195310936)
(0.0005527054624 1.831210561e-16 -0.01410131983 -1.14750072e-16 -0.006419728643 0 0.02227676319 -4.977143611e-16 0.03293254978)
(0.002620181968 2.036528042e-16 -0.01446127522 -1.146614276e-16 -0.006266713983 0 0.0217104318 -5.11043936e-16 0.03390998032)
(0.004969789598 2.267780408e-16 -0.01472438516 -1.146556632e-16 -0.006081290108 0 0.02101341087 -5.251300288e-16 0.03487976071)
(0.007626312991 2.487132183e-16 -0.01487108744 -1.147282327e-16 -0.005861224427 0 0.0201812635 -5.400301153e-16 0.0358350343)
(0.01061720742 1.389242675e-16 -0.01488154302 -1.00515711e-16 -0.005604171332 0 0.01920993045 -5.561762766e-16 0.03676778825)
(0.01397046968 3.229956453e-17 -0.01473529036 -1.007060803e-16 -0.005307663721 0 0.01809573432 -5.652123774e-16 0.03766896146)
(0.01771445576 6.249157205e-17 -0.01441053774 -1.153777233e-16 -0.004969159663 0 0.01683546383 -5.654478132e-16 0.03852864287)
(0.02187863129 9.207902183e-17 -0.01388261953 -1.157274236e-16 -0.004586036982 0 0.01542643516 -5.578713811e-16 0.03933629236)
(0.0264942381 1.204774164e-16 -0.01312191783 -1.161392086e-16 -0.004155609755 0 0.01386656752 -5.522231428e-16 0.04008096868)
(0.03159274076 1.49820402e-16 -0.01209120899 -1.093226307e-16 -0.003675104119 0 0.01215437691 -5.483534272e-16 0.0407515334)
(0.03718846817 1.807150378e-16 -0.01074336373 -1.098189184e-16 -0.003141719458 0 0.01028910039 -5.459249371e-16 0.04133679473)
(0.04328151574 5.312163023e-17 -0.009021167713 -1.103676776e-16 -0.002553073209 0 0.008271531321 -5.45126114e-16 0.04182560808)
(0.05006817569 -7.680301422e-17 -0.00684917474 -1.072684748e-16 -0.001907116826 0 0.0061042664 -5.366921831e-16 0.04220697008)
(0.05806484524 -4.808020425e-17 -0.004088138228 -1.041755926e-16 -0.001197145994 0 0.003782066707 -5.287776026e-16 0.04246973247)
(0.06465515906 -1.62333239e-17 -0.00126678237 -1.057627592e-16 -0.0004093046442 0 0.001283704629 -5.290183743e-16 0.04260044643)
(-0.007645899736 2.273788246e-15 -0.0005571410893 -5.897591378e-15 -0.01240715553 0 0.0003451434513 7.313590423e-17 0.02173841789)
(-0.01018567265 2.849164576e-15 -0.001325025993 -3.996961142e-15 -0.01090481587 0 0.0009009501705 2.108127521e-16 0.02177222989)
(-0.01004370723 4.493853786e-16 -0.002140175989 -3.42553597e-15 -0.01045263835 0 0.001413396175 -1.149775543e-16 0.02183778033)
(-0.01028497315 -8.412538224e-16 -0.002921694088 -2.147397671e-15 -0.01037874721 0 0.001921602247 -3.814402904e-16 0.02193462447)
(-0.01035231547 -3.650604111e-16 -0.00367525995 -1.520997203e-15 -0.01036573362 5.024197213e-14 0.002404266691 -6.173622849e-16 0.02205900266)
(-0.01036858875 -1.247561094e-15 -0.004392409116 -1.217632204e-15 -0.01036167885 0 0.002851525994 -5.378527013e-16 0.02220704348)
(-0.01037693654 -1.970972329e-15 -0.00507113542 -7.361644596e-16 -0.01036086071 0 0.003259244937 -5.068831624e-16 0.02237522014)
(-0.01037399191 -1.706857612e-15 -0.005711228664 -4.479954361e-16 -0.01036102159 0 0.003624244602 -4.952053843e-16 0.02256006812)
(-0.01035290617 -7.729336902e-16 -0.006313132033 -1.741822401e-16 -0.01036009067 0 0.00394359055 -4.934010317e-16 0.02275813509)
(-0.01030825626 -5.920103379e-17 -0.006877739802 -2.136453166e-16 -0.01035638133 0 0.004214739675 -4.944683208e-16 0.02296605641)
(-0.01023468124 -1.891032822e-16 -0.007406175899 -1.490507461e-16 -0.01034842174 0 0.004435630324 -5.045179001e-16 0.02318060046)
(-0.01012671412 -3.296532224e-16 -0.007899609321 -1.399136086e-16 -0.01033487713 0 0.004604681862 -5.176012416e-16 0.02339869006)
(-0.009978988209 6.17083977e-17 -0.008359276077 -8.822254694e-17 -0.01031448583 0 0.004720632596 -4.929313206e-16 0.02361743521)
(-0.009786829796 4.020750449e-16 -0.00878644529 -1.049729351e-16 -0.01028607214 0 0.004782547697 -4.70566326e-16 0.02383414294)
(-0.009544948794 -3.547899238e-17 -0.009182322562 -1.205657794e-16 -0.01024858184 0 0.004789908882 -4.54077803e-16 0.02404634649)
(-0.009246660099 -1.470435121e-16 -0.009548124917 -1.159439603e-16 -0.01020093223 0 0.004742541599 -4.415942826e-16 0.02425181838)
(-0.008886707971 2.665663578e-16 -0.009885161586 -9.330186984e-17 -0.0101419921 0 0.004640613139 -4.284478237e-16 0.02444856451)
(-0.008460820589 4.266334211e-16 -0.01019493221 -1.265982929e-16 -0.01007077715 0 0.004484596095 -4.169467712e-16 0.02463481597)
(-0.007963549632 3.43598462e-16 -0.01047907241 -1.230964502e-16 -0.009986348608 0 0.004275365094 -4.100475952e-16 0.02480903526)
(-0.00739007371 2.835850348e-16 -0.01073923277 -1.20038829e-16 -0.009887768488 0 0.004014386144 -4.072708868e-16 0.02496988785)
(-0.006736417293 2.548311617e-16 -0.01097723283 -1.676606975e-16 -0.009774192226 0 0.003703580062 -4.079933998e-16 0.02511623802)
(-0.00599852436 4.169659826e-16 -0.01119521784 -1.643089226e-16 -0.009644836111 0 0.003345170057 -4.125168026e-16 0.02524712783)
(-0.005173435094 5.441465029e-16 -0.0113956153 -1.452318034e-16 -0.009498976082 8.262075925e-15 0.002941770763 -3.99291751e-16 0.02536173346)
(-0.004258812876 4.987314201e-16 -0.01158092871 -1.587901791e-16 -0.009336005575 0 0.002496601285 -3.593973417e-16 0.02545932203)
(-0.003251986634 3.029136497e-16 -0.01175375993 -1.878382584e-16 -0.009155391431 0 0.002013428088 -3.441246054e-16 0.02553923297)
(-0.002151599304 1.196321265e-16 -0.01191694118 -2.009264279e-16 -0.008956661479 0 0.001496421797 -3.142139148e-16 0.02560081616)
(-0.0009580785775 1.313778164e-16 -0.01207330241 -1.986936483e-16 -0.008739471866 -7.825472916e-15 0.0009503240823 -2.702479316e-16 0.0256433928)
(0.0003277082021 1.27468484e-16 -0.01222562608 -1.816248529e-16 -0.008503610904 0 0.0003803483207 -2.582341508e-16 0.02566624106)
(0.001704849062 1.050821355e-16 -0.01237640136 -1.500754627e-16 -0.008248972261 7.68386369e-15 -0.0002077739835 -2.48437108e-16 0.02566857616)
(0.003171184891 1.060076444e-16 -0.01252740383 -1.638855485e-16 -0.007975540571 0 -0.0008077169624 -2.149908541e-16 0.02564954954)
(0.004722038803 1.288111487e-16 -0.01267936187 -1.77686506e-16 -0.007683431742 -1.516258185e-14 -0.001412723648 -1.842213738e-16 0.02560827535)
(0.006350890049 1.342829884e-16 -0.01283118562 -1.620488088e-16 -0.007372933549 0 -0.002015465914 -1.786789317e-16 0.02554388665)
(0.008050392834 1.316661694e-16 -0.01297914062 -1.613806019e-16 -0.00704449623 0 -0.002607947214 -1.733769363e-16 0.02545563794)
(0.009811525749 1.490095174e-16 -0.01311621866 -1.608628717e-16 -0.006698717719 0 -0.00318165934 -1.812296508e-16 0.0253430136)
(0.01162216458 1.740632289e-16 -0.01323143167 -1.896643778e-16 -0.006336371889 0 -0.003727599698 -1.770461493e-16 0.02520584351)
(0.01346741242 1.858448815e-16 -0.01330930773 -1.893728615e-16 -0.005958447663 0 -0.004236147396 -1.739354082e-16 0.02504442021)
(0.01533017508 1.877908826e-16 -0.01333003041 -1.89226571e-16 -0.005566149133 0 -0.004697070392 -1.601804394e-16 0.02485960404)
(0.01719043916 1.950163787e-16 -0.01327007406 -1.746618996e-16 -0.005160901037 0 -0.005099500875 -1.358610604e-16 0.02465290172)
(0.0190244591 2.117096277e-16 -0.01310366381 -1.602080783e-16 -0.004744370701 0 -0.005432057342 -1.014987695e-16 0.02442652)
(0.02080511507 2.387399035e-16 -0.01280480748 -1.895791932e-16 -0.004318493849 -7.466503611e-15 -0.00568277832 -6.854991419e-17 0.02418338863)
(0.02250289957 1.076678166e-16 -0.0123498544 -1.68022291e-16 -0.003885472631 0 -0.005839096976 -5.254624622e-17 0.02392718185)
(0.02408507439 -1.774639782e-16 -0.01172024218 -1.684384466e-16 -0.003447760731 0 -0.005887976437 -4.740897882e-17 0.02366233219)
(0.02551481146 -2.996993461e-16 -0.01090497689 -1.689489695e-16 -0.003008086309 0 -0.005815962811 -4.234750069e-17 0.02339407468)
(0.026751399 -2.718042917e-16 -0.00990296886 -1.621783845e-16 -0.002569459322 0 -0.005609335547 -3.695398025e-17 0.02312853227)
(0.02775076152 -2.507463195e-16 -0.008724831281 -1.517344116e-16 -0.002135178887 0 -0.005254106211 -3.106661905e-17 0.02287284397)
(0.02846807312 -2.316336511e-16 -0.007393897736 -1.487055946e-16 -0.001708819672 0 -0.004736260898 -2.473315095e-17 0.02263536156)
(0.02885151638 -2.117128659e-16 -0.005945904062 -1.41976235e-16 -0.001294164747 -7.651771824e-15 -0.004042902298 -1.752446102e-17 0.02242585276)
(0.02881759754 -2.085968238e-16 -0.004430482538 -1.371129205e-16 -0.0008953634166 0 -0.003162092783 -2.310519707e-17 0.02225560527)
(0.02829058082 -8.668224475e-17 -0.002915473596 -1.331921038e-16 -0.0005174820357 0 -0.002071277203 -2.595705118e-17 0.02213801195)
(0.02747385899 2.02705591e-17 -0.00108098343 -1.311731128e-16 -0.0001655840148 0 -0.0007315559917 -2.706641674e-17 0.02209126571)
(-0.009060416442 -1.414587968e-15 -0.0005467239282 -6.039769613e-16 -0.01475409565 0 2.417607712e-05 1.465859043e-16 0.02718495006)
(-0.01199683001 1.785746611e-15 -0.001258334167 1.032002105e-15 -0.01293951368 0 6.155927039e-05 4.156122794e-16 0.02716917034)
(-0.01170138801 3.699255803e-15 -0.002015174245 -1.060635351e-15 -0.01234916751 -8.688724793e-14 8.919509085e-05 7.299268572e-16 0.0271280337)
(-0.01182429262 2.993331256e-15 -0.002754136081 -1.682362607e-15 -0.01219913225 0 0.0001052693325 4.824551615e-16 0.02706870119)
(-0.01169584034 9.206114068e-16 -0.003462226064 -1.893484384e-15 -0.01210889451 0 0.0001044590476 3.461485105e-16 0.02699253021)
(-0.01146544965 -4.390387605e-16 -0.004130435301 -1.509065256e-15 -0.01201634882 -4.292452283e-14 8.335376046e-05 2.588513744e-16 0.02690082894)
(-0.01118960277 -1.247591985e-16 -0.004756583048 -1.203500667e-15 -0.01191531361 0 3.93267759e-05 -8.503788352e-17 0.02679498172)
(-0.01086899586 1.053646892e-17 -0.005339153721 -1.007438764e-15 -0.01180422572 0 -2.955630946e-05 -3.709447726e-16 0.02667626864)
(-0.01049967452 8.03858277e-17 -0.005877290943 -8.549919554e-16 -0.01168168631 3.019006077e-14 -0.0001247282836 -6.213965112e-16 0.02654583286)
(-0.01008105381 1.615640301e-16 -0.006371071553 -8.678901868e-16 -0.01154681558 0 -0.0002471316547 -6.570389603e-16 0.02640469447)
(-0.00961383618 2.383665609e-16 -0.006821185773 -8.073173609e-16 -0.01139920949 0 -0.0003970079486 -7.005144355e-16 0.02625376638)
(-0.009097577366 -8.341925419e-17 -0.007228878175 -7.341449418e-16 -0.01123875201 0 -0.0005740618571 -7.545895011e-16 0.02609390129)
(-0.008530781262 -3.766727477e-16 -0.007595860255 -6.495745596e-16 -0.01106531591 1.146835085e-14 -0.0007775185993 -8.267897197e-16 0.02592591783)
(-0.007913025344 -3.016249548e-16 -0.007924311113 -5.970033621e-16 -0.01087879038 0 -0.00100619902 -7.540894089e-16 0.02575059272)
(-0.00724419608 -2.295415631e-16 -0.00821688578 -5.918098853e-16 -0.01067918605 -1.044850556e-14 -0.001258586355 -7.098495415e-16 0.0255686937)
(-0.006523927521 -2.025354911e-16 -0.008476477059 -4.906234456e-16 -0.01046653234 1.004796817e-14 -0.001532659195 -7.091312677e-16 0.02538098726)
(-0.005752083939 -1.770732517e-16 -0.008706155445 -4.54823603e-16 -0.0102409018 9.702903532e-15 -0.001825915617 -6.40113585e-16 0.02518822183)
(-0.004928893895 -1.136465957e-16 -0.008909327409 -4.408110378e-16 -0.01000239317 0 -0.002135614696 -5.090500507e-16 0.02499112778)
(-0.004056681245 -3.920624495e-17 -0.009089540814 -4.286177383e-16 -0.009751160863 0 -0.00245865717 -3.954696966e-16 0.02479038304)
(-0.003138668203 2.979677522e-17 -0.009250284065 -4.17971203e-16 -0.009487543277 0 -0.00279157092 -3.215318927e-16 0.02458659667)
(-0.002176427263 9.960234052e-17 -0.009394964461 -3.916250958e-16 -0.009211953016 0 -0.003130698228 -2.557524911e-16 0.02438030618)
(-0.001171695782 -5.511200409e-17 -0.00952666294 -3.671091745e-16 -0.008924786781 8.543631697e-15 -0.003472127532 -1.96572085e-16 0.02417192542)
(-0.0001286715723 -3.700463036e-16 -0.009647923432 -3.60539881e-16 -0.008626503639 0 -0.003811713261 -1.085621374e-16 0.02396170245)
(0.0009471331858 -2.320677034e-16 -0.009760610559 -3.54778856e-16 -0.008317704851 0 -0.004145250921 -4.863628349e-17 0.02374969524)
(0.002050864238 -1.457894509e-16 -0.009865476062 -3.656301935e-16 -0.007999094036 -8.139246046e-15 -0.004468373383 9.452560696e-18 0.02353577287)
(0.003177077789 -4.838962226e-16 -0.009961830001 -2.825384939e-16 -0.007671415849 0 -0.004776532923 3.133506068e-17 0.02331959503)
(0.004319540682 -4.432151529e-16 -0.01004757895 -2.793988063e-16 -0.00733551162 0 -0.005065254494 5.141539602e-17 0.02310060552)
(0.005471817284 -2.126437977e-16 -0.01011908361 -2.613089955e-16 -0.006992276465 0 -0.005330168679 5.432806585e-17 0.02287806307)
(0.006625909523 -3.138897475e-16 -0.01017094462 -2.438602884e-16 -0.006642673397 0 -0.005566900765 5.547167334e-17 0.02265104718)
(0.007773511797 -4.13922513e-16 -0.01019622674 -2.269606897e-16 -0.006287768352 0 -0.005771125802 5.521347964e-17 0.02241851963)
(0.008906563143 -2.260224054e-16 -0.01018696179 -2.105293486e-16 -0.005928671764 0 -0.00593869907 5.562703064e-17 0.02217939179)
(0.01001550359 -4.716264318e-17 -0.0101346939 -2.094559023e-16 -0.0055665465 0 -0.006065752669 7.1118766e-17 0.02193260484)
(0.01109030902 1.632245704e-16 -0.01003109601 -2.085922127e-16 -0.00520264092 0 -0.006148675978 8.53711342e-17 0.02167723902)
(0.01212115884 2.015414555e-16 -0.009868702878 -2.079230214e-16 -0.004838243739 0 -0.006184147746 1.129253325e-16 0.02141265789)
(0.01309740958 7.265141754e-17 -0.009641666743 -2.074349177e-16 -0.00447468682 0 -0.00616932538 1.396003569e-16 0.02113864113)
(0.01400797757 -4.988642938e-17 -0.00934612687 -1.997190848e-16 -0.004113350855 0 -0.006101870518 1.665783417e-16 0.02085554642)
(0.01484086183 -3.296774724e-16 -0.008980494885 -1.995648018e-16 -0.003755651036 0 -0.005980036298 1.803747187e-16 0.02056444926)
(0.01558418091 -6.094619752e-16 -0.008545654235 -1.773820168e-16 -0.003403060174 0 -0.005802769089 1.937315906e-16 0.02026725822)
(0.01622673759 -7.257289036e-16 -0.008044831275 -1.55307502e-16 -0.003057056638 0 -0.005569781089 1.96085424e-16 0.01996678554)
(0.01675666059 -5.776238062e-16 -0.007483282579 -1.555063139e-16 -0.002719129317 0 -0.005281686167 1.999711465e-16 0.01966672919)
(0.01716217302 -2.817369384e-16 -0.006867991645 -1.409626568e-16 -0.002390781195 -7.597145294e-15 -0.00494005533 2.160187548e-16 0.01937159143)
(0.01743261662 -9.72753301e-17 -0.006207504164 -1.413117914e-16 -0.002073507643 -7.615961811e-15 -0.004547465207 2.16036039e-16 0.01908649045)
(0.01755964093 -7.706607743e-17 -0.005511735504 -1.305500882e-16 -0.001768770056 0 -0.004107601351 1.912060007e-16 0.01881690926)
(0.01753716844 -6.491876563e-17 -0.004791577759 -1.310146157e-16 -0.001477946616 0 -0.003625308619 1.686704594e-16 0.01856837578)
(0.01736160946 -5.429968316e-17 -0.004058547255 -1.24029667e-16 -0.001202319215 0 -0.003106661067 1.479270361e-16 0.01834610245)
(0.01703413201 -4.92147142e-17 -0.003324375481 -1.208171827e-16 -0.0009430308182 0 -0.002559010156 1.284537504e-16 0.01815460858)
(0.01655831525 2.467658939e-17 -0.002600011487 -1.195236981e-16 -0.0007010199483 0 -0.001990877585 1.095471871e-16 0.01799735373)
(0.01592835401 6.496060441e-17 -0.001894958206 -1.201731597e-16 -0.0004770580155 0 -0.001412161684 9.76634917e-17 0.01787644222)
(0.01513957644 2.003925647e-17 -0.001219377538 -1.175186691e-16 -0.0002719941175 0 -0.0008350102399 8.813120646e-17 0.01779225121)
(0.01441813491 3.790677182e-18 -0.000444035387 -1.170466249e-16 -8.649639606e-05 0 -0.0002717973811 9.007314074e-17 0.01774300908)
(-0.008065529456 -6.461287771e-16 -0.0003891826663 -1.737918689e-15 -0.01311982947 0 -0.000160210364 -2.537462542e-16 0.02647032112)
(-0.010676786 -1.508346499e-15 -0.0008715196027 3.493580364e-17 -0.01151393069 1.430970517e-13 -0.0004200274035 -7.213432556e-16 0.02644214987)
(-0.01037712139 5.611295359e-16 -0.001387008556 7.324642292e-16 -0.0109885084 0 -0.0006662309555 -3.006348486e-16 0.02637866731)
(-0.01040960821 1.982169233e-15 -0.001900982561 -1.582002848e-16 -0.01083774958 0 -0.0009210564613 -2.579960523e-17 0.02628631854)
(-0.01019530587 1.314210955e-15 -0.002394093555 -4.301386487e-16 -0.01072821022 0 -0.001178232162 1.75020562e-16 0.02616759111)
(-0.009872508901 2.214393648e-15 -0.00286067367 -5.321412703e-16 -0.01060825822 0 -0.001435710899 1.267282903e-16 0.02602523561)
(-0.009493020841 2.969199606e-15 -0.003299885652 -9.814985872e-16 -0.01047381572 0 -0.001693886811 9.903625664e-17 0.02586198888)
(-0.009060575523 2.589567713e-15 -0.003710769904 -1.18814891e-15 -0.01032457549 0 -0.001953083703 7.489978088e-17 0.02568050261)
(-0.008574512001 1.489449896e-15 -0.00409264799 -1.317431723e-15 -0.01016025193 0 -0.002213183144 5.258643224e-17 0.02548333855)
(-0.0080378961 6.033846377e-16 -0.004445357773 -1.267021664e-15 -0.009980884034 0 -0.00247362527 2.835759432e-17 0.02527293319)
(-0.007454820823 6.453682929e-16 -0.004769367688 -1.204213748e-15 -0.009787034967 0 -0.002733687035 8.089170002e-18 0.02505155045)
(-0.006828155044 7.668811395e-16 -0.005065723231 -1.178494627e-15 -0.009579401346 -1.23140663e-14 -0.002992577835 3.713830876e-17 0.02482131034)
(-0.006160335309 9.308002378e-18 -0.00533564777 -1.114649946e-15 -0.009358706505 0 -0.003249115411 -1.665147364e-17 0.02458414213)
(-0.005453826525 -6.4482905e-16 -0.00558061042 -1.017719306e-15 -0.00912566808 0 -0.003501881105 -2.475939216e-17 0.02434178556)
(-0.004711991738 -4.355296795e-16 -0.005802374395 -8.911772317e-16 -0.008881013038 0 -0.003749375574 4.154872402e-18 0.02409575346)
(-0.003938702251 -8.117230303e-16 -0.006002642984 -8.570144699e-16 -0.008625552808 0 -0.003989812319 2.457020192e-17 0.02384734202)
(-0.003137423126 -1.645580747e-15 -0.006183069891 -7.313525143e-16 -0.008360128931 0 -0.004221284457 3.503346036e-17 0.02359761378)
(-0.00231210332 -1.93176883e-15 -0.006345161826 -6.155545819e-16 -0.008085579357 0 -0.004441801722 3.899790271e-17 0.0233473936)
(-0.001467378316 -1.491395261e-15 -0.006490042826 -4.897044747e-16 -0.007802795498 0 -0.004649239988 7.044390603e-17 0.02309725303)
(-0.0006073924729 -1.114157748e-15 -0.006618598915 -4.067938374e-16 -0.007512704915 0 -0.004841642468 1.014852768e-16 0.02284753082)
(0.0002635015333 -1.017935288e-15 -0.006731230269 -3.804317618e-16 -0.007216214877 0 -0.005017079247 1.573079168e-16 0.02259833058)
(0.001140064256 -1.12329507e-15 -0.006827549722 -3.219864292e-16 -0.006914266379 -8.676686935e-15 -0.005173468579 2.360420759e-16 0.02234953687)
(0.002017492435 -1.026754724e-15 -0.006906534181 -2.662943932e-16 -0.006607834559 0 -0.00530878228 2.726459276e-16 0.0221008541)
(0.002890645034 -7.826473044e-16 -0.006966710241 -1.801520228e-16 -0.006297873353 8.385257789e-15 -0.00542123377 2.946758882e-16 0.0218518534)
(0.00375303838 -5.732572338e-16 -0.007006164918 -1.937344579e-16 -0.005985376163 -8.266003537e-15 -0.005509243252 3.545091033e-16 0.02160201377)
(0.004599092702 -3.582062773e-16 -0.007022557911 -1.75351391e-16 -0.005671387785 -8.1618102e-15 -0.005571304604 3.614458078e-16 0.02135081199)
(0.005424365229 -1.35547919e-16 -0.007013438366 -1.5763892e-16 -0.005356911691 0 -0.005606131885 3.380343339e-16 0.02109779722)
(0.00622297298 7.558287622e-17 -0.006976336626 -1.561050126e-16 -0.005042921965 0 -0.005612642063 3.336366691e-16 0.0208426478)
(0.006988204323 8.853352933e-17 -0.006908922162 -1.47046982e-16 -0.004730433291 0 -0.00558995705 3.317940719e-16 0.02058525298)
(0.007714176236 9.596467243e-17 -0.006809382056 -1.536635255e-16 -0.004420465818 0 -0.005537533272 3.201485769e-16 0.02032579491)
(0.008395283385 -7.507740881e-17 -0.006676463924 -1.450840351e-16 -0.004114020043 0 -0.005455099588 3.117007525e-16 0.02006478787)
(0.009025207526 -2.401459723e-16 -0.006509415202 -1.443442812e-16 -0.003812081029 0 -0.00534262377 3.16663255e-16 0.01980310238)
(0.009597254536 -4.03304236e-16 -0.006308216478 -1.059203738e-16 -0.003515643687 7.747318773e-15 -0.005200466264 3.102139849e-16 0.01954195324)
(0.01010629195 -5.539150134e-16 -0.006073579705 -1.282049746e-16 -0.003225697166 -7.722464355e-15 -0.005029284242 3.303081682e-16 0.01928287916)
(0.01054746224 -5.371336572e-16 -0.005806863453 -9.028518405e-17 -0.002943165689 0 -0.004830057222 3.297683612e-16 0.01902766772)
(0.01091548447 -3.64371104e-16 -0.005510064486 -9.014641471e-17 -0.002668957212 -7.692494055e-15 -0.004604156126 3.322698417e-16 0.01877827241)
(0.01120643283 -1.928792437e-16 -0.005185748319 -8.257037857e-17 -0.00240393856 -7.686551605e-15 -0.004353268467 3.167242161e-16 0.01853673367)
(0.01141711914 -3.473000583e-17 -0.004837097689 -7.506020677e-17 -0.00214891056 -7.686165173e-15 -0.004079495298 2.83685192e-16 0.01830507665)
(0.01154509557 1.080333529e-16 -0.004467763093 -7.886310071e-17 -0.001904615007 0 -0.003785262298 2.345144459e-16 0.01808522714)
(0.01158905614 -6.596127769e-17 -0.004081815712 -7.896405475e-17 -0.00167171504 0 -0.003473323384 1.891137199e-16 0.01787893995)
(0.01154888784 -1.325108765e-16 -0.003683690356 -6.404434833e-17 -0.001450790598 7.715460316e-15 -0.003146762394 1.534491644e-16 0.01768774198)
(0.01142583142 2.032049162e-16 -0.003278055914 -6.797961804e-17 -0.001242322953 0 -0.002808951651 1.3890397e-16 0.01751288625)
(0.01122197984 4.305921382e-16 -0.002869689352 -7.386779683e-17 -0.0010466892 0 -0.002463515592 1.265411263e-16 0.01735531787)
(0.01094031332 4.081398614e-16 -0.00246330103 -8.173377773e-17 -0.0008641668901 0 -0.002114205754 1.242531674e-16 0.01721565176)
(0.01058547784 3.931238467e-16 -0.002063411959 -8.206566769e-17 -0.0006949291451 0 -0.001764820717 1.139431822e-16 0.01709416709)
(0.01016380515 3.94453543e-16 -0.001674140961 -8.723113768e-17 -0.000539028258 0 -0.001419075335 1.130936747e-16 0.01699077869)
(0.009679918056 2.998727125e-16 -0.001299062476 -9.248389658e-17 -0.0003963945451 0 -0.001080520698 1.122722639e-16 0.0169049581)
(0.009129163942 1.561682813e-16 -0.0009414201569 -9.443934371e-17 -0.0002669138226 -7.934842089e-15 -0.0007526254466 1.149610629e-16 0.01683590569)
(0.008499360274 4.266788334e-17 -0.0006050478593 -9.377410403e-17 -0.0001506103878 0 -0.0004390119755 1.138696482e-16 0.01678393678)
(0.007973183784 -1.354417633e-17 -0.0002207862818 -9.227701693e-17 -4.764366296e-05 0 -0.0001421879906 1.114315268e-16 0.01675207546)
(-0.006321990226 3.497549512e-15 -0.0002493339798 -7.656917466e-15 -0.01031354024 0 -0.0001989353139 -6.294214416e-17 0.02413567915)
(-0.008340850889 8.595555398e-16 -0.000542501771 -5.659040923e-15 -0.009034939336 0 -0.0005213187064 -1.785180751e-16 0.02411309439)
(-0.008069365516 -1.205821091e-15 -0.0008575693864 -2.712942553e-15 -0.008600970338 0 -0.0008243461355 -3.224157405e-16 0.02406450601)
(-0.008056995956 -4.439912956e-16 -0.001179287002 -1.719105176e-15 -0.008464288838 0 -0.001132629883 -1.523431465e-16 0.02399340609)
(-0.007840934143 -6.112913939e-17 -0.001489184483 -1.336208709e-15 -0.008358796458 0 -0.001436247844 -4.155828094e-17 0.02390171593)
(-0.007530384219 1.669628931e-16 -0.001784365842 -1.080857267e-15 -0.008243074224 0 -0.00173117399 3.787584729e-17 0.02379156703)
(-0.007166622157 3.210272098e-16 -0.002064774107 -9.779768217e-16 -0.008113580694 0 -0.002016626582 2.577127332e-16 0.02366498706)
(-0.006754431446 4.145413658e-16 -0.002329945171 -9.217485776e-16 -0.007970097661 0 -0.002292040116 4.478751323e-16 0.02352393753)
(-0.006296902004 4.755693267e-16 -0.002579500873 -8.514220253e-16 -0.007812692692 0 -0.002556648363 6.268172209e-16 0.02337029181)
(-0.005798629243 5.301467062e-16 -0.002813166044 -8.252007885e-16 -0.007642037816 0 -0.002809431269 7.162920991e-16 0.02320582273)
(-0.005262837247 1.559202515e-16 -0.003030995202 -8.066382763e-16 -0.007458957949 0 -0.003049518601 8.085128713e-16 0.02303219987)
(-0.004693826264 1.640132171e-16 -0.003233265393 -7.327641111e-16 -0.007264264635 0 -0.00327610138 8.973590005e-16 0.02285091951)
(-0.004096469503 1.505480022e-16 -0.003420179675 -6.930667806e-16 -0.007058980576 -1.182833972e-14 -0.00348820708 9.931539111e-16 0.02266330873)
(-0.0034744145 -4.999691857e-16 -0.003591885531 -6.377339865e-16 -0.006844127036 0 -0.003684789714 9.965758688e-16 0.02247053651)
(-0.002832440279 -6.725023827e-16 -0.003748554528 -5.682910287e-16 -0.006620678033 -1.077648173e-14 -0.003864886181 1.014815978e-15 0.02227357749)
(-0.002175647845 -4.912583797e-16 -0.003890274926 -5.060240019e-16 -0.006389728157 -1.036337156e-14 -0.004027594936 1.012100207e-15 0.02207322037)
(-0.001507845277 -3.322031065e-16 -0.004016854169 -4.495545601e-16 -0.006152337719 -1.000747543e-14 -0.004171963976 9.374687564e-16 0.02187010263)
(-0.0008335730087 -4.837479817e-16 -0.004127950081 -4.167606613e-16 -0.005909509436 0 -0.004297133105 7.666249334e-16 0.02166469773)
(-0.0001571755943 -6.647448286e-16 -0.004223092061 -3.49973627e-16 -0.005662288926 9.430868264e-15 -0.004402381887 6.148056555e-16 0.0214573506)
(0.0005175361947 -8.480969037e-16 -0.004301592113 -3.233184167e-16 -0.00541164806 0 -0.004487059742 5.270756421e-16 0.02124830935)
(0.00118522279 -1.271539445e-15 -0.004362486586 -2.546440302e-16 -0.005158545925 0 -0.004550528048 4.469522747e-16 0.02103773098)