/*--------------------------------*- C++ -*----------------------------------*\
  =========                 |
  \\      /  F ield         | OpenFOAM: The Open Source CFD Toolbox
   \\    /   O peration     | Website:  https://openfoam.org
    \\  /    A nd           | Version:  7
     \\/     M anipulation  |
\*---------------------------------------------------------------------------*/
FoamFile
{
    version     2.0;
    format      ascii;
    class       volScalarField;
    location    "0.0015";
    object      p;
}
// * * * * * * * * * * * * * * * * * * * * * * * * * * * * * * * * * * * * * //

dimensions      [1 -1 -2 0 0 0 0];

internalField   nonuniform List<scalar> 
14000
(
1117281.324
1146847.515
1145232.126
1147291.437
1152838.659
1159821.54
1167908.226
1177152.384
1187557.58
1199109.992
1211810.743
1225674.132
1240722.082
1256982.058
1274486.607
1293269.172
1313350.251
1334754.655
1357551.308
1381795.553
1407536.964
1434806.924
1463664.288
1494219.746
1526535.43
1560695.46
1596837.88
1635045.667
1675492.292
1718294.224
1763590.855
1811592.599
1862465.201
1916330.43
1973275.506
2033401.217
2096667.211
2162957.691
2231965.411
2303324.576
2376428.568
2450539.529
2524795.653
2598272.022
2670082.81
2739286.867
2804716.551
2865947.84
2926923.775
2990560.092
1263445.147
1299268.278
1297362.686
1299998.07
1306889.837
1315476.871
1325290.02
1336346.35
1348591.147
1361988.243
1376508.943
1392143.247
1408897.561
1426775.893
1445784.2
1466009.101
1487505.815
1510285.089
1534457.006
1560081.324
1587222.567
1615959.707
1646354.79
1678425.963
1712234.193
1747768.681
1784964.207
1823711.381
1863867.634
1905226.375
1947477.023
1990238.217
2033104.743
2075651.346
2117422.371
2157976.733
2196945.445
2234011.406
2268924.567
2301478.15
2331545.778
2359021.657
2383774.724
2405656.568
2424437.652
2439841.523
2451534.776
2458747.834
2459845.931
2454791.411
1291144.363
1328393.875
1325924.062
1327278.353
1332558.89
1339318.052
1347144.534
1356144.05
1366372.282
1377831.73
1390508.337
1404393.446
1419542.81
1435952.8
1453633.283
1472611.558
1492885.367
1514478.809
1537354.962
1561419.019
1586645.35
1612968.864
1640264.526
1668334.189
1697010.186
1726094.106
1755327.852
1784518.725
1813386.543
1841703.496
1869279.293
1895921.87
1921446.297
1945759.6
1968719.103
1990248.763
2010235.737
2028565.546
2045177.903
2059921.519
2072679.054
2083276.287
2091575.257
2097422.962
2100642.999
2101105.637
2098730.737
2093283.346
2084071.367
2071931.413
1487404.95
1520759.673
1518393.133
1519909.291
1525163.669
1531891.8
1539716.76
1548695.771
1558887.384
1570275.946
1582792.433
1596455.37
1611217.388
1627093.734
1644022.341
1661955.627
1680823.351
1700566.712
1721052.36
1742190.338
1763856.893
1785895.128
1808149.01
1830487.53
1852690.893
1874601.174
1896098.731
1917035.373
1937223.86
1956560.562
1974909.95
1992175.984
2008196.337
2022897.989
2036211.499
2047997.071
2058213.577
2066763.478
2073590.713
2078629.502
2081833.807
2083173.093
2082624.645
2080165.739
2075812.098
2069625.208
2061674.55
2051825.379
2039578.821
2025874.235
1544853.409
1574923.475
1573407.062
1575026.916
1579873.696
1586047.018
1593194.971
1601378.659
1610589.681
1620738.082
1631841.823
1643844.848
1656652.459
1670243.102
1684530.889
1699385.32
1714762.724
1730540.182
1746593.979
1762860.201
1779167.652
1795371.599
1811360.103
1827037.64
1842283.484
1856950.212
1870956.765
1884185.671
1896536.136
1907944.765
1918331.859
1927594.17
1935726.309
1942611.202
1948258.948
1952608.453
1955625.395
1957300.948
1957620.275
1956581.202
1954177.457
1950430.04
1945383.334
1939071.998
1931520.089
1922770.804
1913018.974
1902404.238
1890729.982
1878477.163
1681532.875
1705599.309
1704542.241
1706392.27
1710991.154
1716768.889
1723434.113
1730970.931
1739373.466
1748484.971
1758340.659
1768808.67
1779792.662
1791201.674
1803011.889
1815064.88
1827262.38
1839541.558
1851791.881
1863894.97
1875730.374
1887221.254
1898287.603
1908825.597
1918764.808
1928047.057
1936540.236
1944225.133
1951038.26
1956923.015
1961847.418
1965750.187
1968658.881
1970482.533
1971240.033
1970949.216
1969558.393
1967084.159
1963580.804
1959045.633
1953472.029
1946945.217
1939590.232
1931498.493
1922094.83
1909320.353
1896458.839
1915633.982
2007561.767
2107840.438
1710403.485
1730178.587
1729753.262
1731468.331
1735327.98
1740117.581
1745639.498
1751784.952
1758538.822
1765847.003
1773564.875
1781670.602
1790067.888
1798640.524
1807318.603
1816046.321
1824711.128
1833230.475
1841531.118
1849527.94
1857124.805
1864304.283
1870996.291
1877085.722
1882555.181
1887362.401
1891456.479
1894779.654
1897337.29
1899064.809
1899973.444
1900049.115
1899248.79
1897625.86
1895148.222
1891815.435
1887683.367
1882757.284
1877054.534
1870658.054
1863701.965
1856250.05
1847206.424
1834707.097
1827793.987
1868980.941
1957633.046
2043861.44
2116626.895
2180416.694
1782364.168
1797132.317
1796772.973
1798224.131
1801380.211
1805308.07
1809743.137
1814692.991
1820022.818
1825753.985
1831735.069
1837879.456
1844159.99
1850480.295
1856758.621
1862917.14
1868885.506
1874609.001
1880029.233
1885084.662
1889709.366
1893867.408
1897494.812
1900545.809
1903016.07
1904813.434
1905989.259
1906446.965
1906240.694
1905301.94
1903658.726
1901311.405
1898220.323
1894468.15
1890023.103
1884909.595
1879199.59
1872909.18
1866243.99
1859199.028
1850498.359
1838164.33
1833640.648
1885449.932
1975601.31
2063651.549
2137571.335
2175409.136
2145795.814
2101840.522
1787663.362
1799679.016
1799508.911
1800571.918
1802901.087
1805818.888
1809037.73
1812634.437
1816475.442
1820497.563
1824671.363
1828905.959
1833135.633
1837303.736
1841353.943
1845231.45
1848876.569
1852211.405
1855195.504
1857808.168
1860019.641
1861743.634
1862973.108
1863680.786
1863838.011
1863433.451
1862440.941
1860860.39
1858679.328
1855898.099
1852531.154
1848558.439
1844044.602
1838962.79
1833362.237
1827321.972
1820983.57
1814401.241
1806070.185
1793936.587
1790789.116
1848797.543
1941697.802
2031874.455
2103442.796
2123354.915
2094684.337
2058139.365
2022633.623
1988629.907
1817042.193
1826454.145
1826075.435
1826767.659
1828499.951
1830612.934
1832980.633
1835525.901
1838257.118
1841087.89
1843957.908
1846822.981
1849628.48
1852310.84
1854821.652
1857129.553
1859202.017
1860988.782
1862430.206
1863482.913
1864184.754
1864461.103
1864286.788
1863690.78
1862590.11
1861059.642
1859014.358
1856530.161
1853538.36
1850119.401
1846221.944
1841907.374
1837178.57
1832111.754
1826888.467
1821506.168
1814358.27
1803348.052
1802061.974
1865167.502
1960932.845
2053438.617
2125133.823
2137375.782
2110350.591
2078595.952
2049455.947
2022773.023
1998917.847
1979763.479
1805870.724
1814223.488
1813758.733
1814074.028
1815132.407
1816429.39
1817882.039
1819424.906
1821004.26
1822629.361
1824234.738
1825772.948
1827206.745
1828500.671
1829621.691
1830535.571
1831205.468
1831608.51
1831737.839
1831561.854
1831050.601
1830220.515
1829046.016
1827520.515
1825652.225
1823430.608
1820871.723
1817986.397
1814776.009
1811276.487
1807472.632
1803464.708
1799421.202
1795322.869
1789532.662
1779826.159
1780359.606
1846941.443
1944127.299
2037837.506
2110133.009
2120089.42
2095579.858
2067723.692
2042439.461
2019437.094
1999512.858
1986171.035
1983294.974
1988849.55
1808384.685
1815815.479
1815127.527
1815094.471
1815664.997
1816429.713
1817205.366
1818043.047
1818886.497
1819688.196
1820414.797
1821061.245
1821602.826
1822010.288
1822253.532
1822294.225
1822124.106
1821735.539
1821125.737
1820268.931
1819151.408
1817795.066
1816164.242
1814273.277
1812159.283
1809774.277
1807192.931
1804342.588
1801323.439
1798105.377
1794976.956
1791812.595
1787018.469
1778305.126
1779965.876
1848074.957
1945689.542
2039959.584
2112595.698
2121016.976
2097778.67
2071903.26
2048433.451
2027069.117
2008638.621
1996411.444
1993898.075
2000178.841
2010814.246
2022257.463
1788452.185
1795894.836
1795027.068
1794675.229
1794878.895
1795153.739
1795425.272
1795630.639
1795828.992
1795975.746
1796036.059
1795991.229
1795823.744
1795517.006
1795056.486
1794431.23
1793642.517
1792698.204
1791542.694
1790172.612
1788634.933
1786894.587
1784933.637
1782820.603
1780484.397
1777985.518
1775304.354
1772493.229
1769761.205
1767028.531
1762680.228
1754468.604
1756333.369
1823684.948
1921070.574
2015723.5
2088578.024
2095327.163
2072235.168
2046974.889
2023828.422
2002500.403
1983868.391
1971321.21
1968640.599
1974884.913
1984947.982
1995292.322
2005076.227
2013979.005
1776709.068
1784114.818
1783022.168
1782487.237
1782461.233
1782448.678
1782412.607
1782317.026
1782133.508
1781884.066
1781565.542
1781142.507
1780597.623
1779921.139
1779109.5
1778171.117
1777086.495
1775831.858
1774376.278
1772783.03
1771033.952
1769086.788
1766989.242
1764728.375
1762275.54
1759720.615
1757225.926
1754743.188
1750682.307
1742841.726
1744398.641
1809192.565
1906031.964
2001228.672
2074695.141
2080766.797
2057669.424
2032584.453
2009452.958
1987810.314
1968563.143
1955077.502
1951523.267
1957411.664
1967548.904
1977993.663
1987482.632
1995592.128
2002284.23
2007813.403
1752379.473
1760230.91
1759031.791
1758336.694
1758098.553
1757882.95
1757569.977
1757219.14
1756753.018
1756194.046
1755544.05
1754791.159
1753925.697
1752940.324
1751825.752
1750574.41
1749181.214
1747635.37
1745926.455
1744078.863
1742081.16
1739921.556
1737595.8
1735162.9
1732807.281
1730446.078
1726616.032
1719112.225
1720065.212
1780924.928
1876696.964
1972306.729
2046778.687
2053971.324
2031271.096
2006323.384
1983304.905
1961620.239
1941899.547
1927359.292
1922710.165
1928180.121
1938593.654
1949526.968
1959542.38
1968202.828
1975217.091
1980621.315
1984961.032
1988755.292
1732087.667
1740284.131
1738934.505
1738101.607
1737742.68
1737404.234
1736947.01
1736411.587
1735774.949
1735035.671
1734194.654
1733243.441
1732174.41
1730981.972
1729661.024
1728204.877
1726608.254
1724873.943
1723005.342
1720969.573
1718781.49
1716520.059
1714300.22
1712082.748
1708535.536
1701430.589
1701763.606
1758208.707
1852549.562
1948270.954
2023877.204
2034014.725
2012251.217
1987523.358
1964567.329
1943038.079
1923209.285
1907669.963
1901491.791
1906210.481
1916889.283
1928467.229
1939154.7
1948511.186
1956264.923
1962360.167
1967079.813
1970939.468
1974523.103
1978036.43
1704124.393
1712797.648
1711332.257
1710379.018
1709922.295
1709447.795
1708849.465
1708139.378
1707323.834
1706402.789
1705370.212
1704221.381
1702950.958
1701552.473
1700022.076
1698356.698
1696552.718
1694617.175
1692575.05
1690421.038
1688299.189
1686219.91
1682907.626
1676169.662
1676006.908
1728445.784
1821015.202
1916313.301
1992881.798
2007013.383
1986539.215
1962097.567
1939189.936
1917754.359
1897848.473
1881494.81
1873545.239
1876959.967
1887687.811
1899968.845
1911430.144
1921566.823
1930119.036
1936989.103
1942396.104
1946774.254
1950565.162
1954088.675
1957563.838
1960969.721
1677758.419
1686751.914
1685156.248
1684105.203
1683586.85
1683014.903
1682321.048
1681485.513
1680552.332
1679514.662
1678357.459
1677076.393
1675669.409
1674134.035
1672465.728
1670658.337
1668716.71
1666702.025
1664775.437
1662882.496
1659771.247
1653359.659
1653059.914
1703013.729
1793744.787
1888051.457
1965153.494
1983338.592
1964458.974
1940479.04
1917778.266
1896347.513
1876369.837
1859277.242
1849520.905
1851133.016
1861411.601
1874287.643
1886566.269
1897553.259
1906980.508
1914693.782
1920836.336
1925820.131
1930100.92
1933991.522
1937607.857
1941005.277
1944316.053
1947536.237
1646503.497
1655866.132
1654180.654
1653031.262
1652433.516
1651771.041
1650968.739
1649993.562
1648945.695
1647782.072
1646468.472
1645019.562
1643451.189
1641764.67
1639971.475
1638128.786
1636352.833
1634559.058
1631526.185
1625323.88
1625378.047
1675411.127
1764348.112
1856931.521
1933803.534
1955151.063
1937527.679
1914290.177
1891997.29
1870549
1850447.407
1832689.165
1821074.787
1820496.071
1829919.739
1843177.786
1856195.386
1868001.755
1878326.665
1886957.518
1893929.055
1899583.886
1904392.247
1908722.325
1912742.853
1916483.705
1919935.75
1923136.414
1926234.35
1929236.488
1616238.528
1625780.44
1624047.867
1622830.576
1622136.059
1621422.791
1620500.789
1619463.82
1618316.381
1616998.322
1615553.026
1613997.789
1612349.921
1610665.154
1609041.47
1607358.48
1604329.523
1598115.167
1599232.899
1653160.214
1740577.082
1830566.709
1906089.699
1928721.83
1911959.977
1889287.31
1867537.923
1846429.51
1826140.092
1807768.152
1794338.177
1791182.999
1799177.984
1812570.668
1826287.533
1838866.02
1850037.404
1859577
1867413.994
1873797.807
1879180.29
1883974.25
1888406.423
1892536.149
1896365.486
1899892.246
1903125.134
1906111.139
1909009.626
1911845.064
1583056.008
1592679.639
1590889.132
1589635.497
1588860.718
1588026.161
1587007.532
1585859.832
1584548.897
1583124.358
1581627.776
1580065.621
1578503.169
1576808.841
1573536.919
1566957.155
1570165.51
1633205.346
1719471.992
1805717.003
1878316.004
1899191.092
1882756.43
1860710.003
1839382.514
1818510.535
1798259.014
1779359.413
1764379.155
1758609.908
1764665.697
1777810.641
1792129.317
1805449.822
1817440.062
1827875.916
1836607.634
1843772.166
1849762.679
1855016.277
1859835.323
1864333.221
1868515.788
1872381.051
1875941.673
1879209.796
1882201.541
1884982.63
1887723.022
1890438.279
1551116.272
1560673.776
1558802.234
1557452.554
1556621.356
1555698.68
1554616.999
1553388.041
1552036.159
1550560.359
1548974.03
1546928.338
1542979.77
1537900.675
1552410.135
1623441.143
1706628.737
1787829.657
1855693.614
1870578.243
1853698.344
1832460.673
1811680.159
1791082.018
1770954.166
1751877.658
1735595.257
1727112.627
1730687.878
1743169.93
1757984.461
1771982.832
1784679.961
1795919.057
1805511.996
1813477.113
1820125.162
1825882.342
1831093.543
1835930.212
1840431.286
1844600.358
1848446.848
1851988.061
1855242.976
1858239.417
1861009.48
1863621.705
1866232.8
1868842.757
1516472.295
1526109.122
1524327.408
1523038.977
1522230.201
1521264.973
1520009.016
1518493.95
1516704.717
1513826.416
1508449.395
1509284.594
1552592.48
1624072.151
1699905.01
1774761.043
1835917.743
1839389.52
1821140.949
1801056.872
1781114.988
1760974.876
1741123.148
1722106.45
1705107.039
1694437.398
1695328.982
1706511.973
1721464.768
1736035.985
1749390.009
1761384.744
1771807.732
1780570.442
1787879.883
1794144.019
1799753.505
1804936.661
1809759.491
1814230.721
1818358.088
1822158.584
1825649.889
1828858.85
1831824.171
1834584.852
1837169.738
1839627.171
1842093.59
1844564.654
1490604.266
1498788.352
1496063.903
1493579.545
1491241.186
1488745.174
1485449.557
1480338.641
1479876.709
1512268.857
1572310.11
1638000.068
1704500.996
1769830.704
1814782.12
1807278.159
1788541.279
1769818.412
1750839.143
1731351.657
1711983.391
1693245.579
1675920.787
1663567.471
1661866.839
1671405.246
1686188.572
1701180.545
1715062.618
1727699.219
1738890.648
1748453.698
1756462.596
1763257.511
1769246.365
1774728.264
1779823.187
1784555.035
1788932.4
1792965.517
1796672.398
1800074.244
1803205.518
1806109.093
1808825.707
1811380.714
1813784.734
1816075.527
1818382.899
1820704.115
1426766.037
1437601.808
1435882.488
1433735.835
1434959.863
1456109.8
1498459.682
1547661.059
1600031.75
1655140.24
1713244.931
1765325.271
1778805.385
1766880.402
1750835.762
1734201.023
1716645.514
1698410.313
1680139.349
1662257.612
1645265.284
1632046.663
1628429.667
1636419.383
1650877.761
1666208.313
1680543.321
1693705.34
1705532.788
1715815.476
1724525.512
1731900.947
1738318.851
1744119.111
1749486.257
1754471.565
1759084.619
1763336.849
1767246.991
1770833.002
1774123.101
1777157.563
1779980.632
1782628.644
1785123.614
1787477.069
1789696.25
1791816.237
1793958.593
1796118.025
1499917.724
1516329.263
1531201.748
1553324.449
1582123.8
1616016.241
1654877.298
1698567.059
1740490.583
1754955.694
1745986.498
1732761.736
1718918.256
1703606.549
1686945.223
1669590.836
1652133.902
1634864.527
1618070.238
1604314.236
1599132.878
1605419.341
1619067.047
1634315.958
1648795.455
1662217.274
1674443.822
1685250.458
1694514.859
1702361.716
1709119.946
1715162.036
1720736.995
1725924.307
1730734.342
1735174.462
1739261.782
1743015.176
1746455.757
1749617.761
1752543.949
1755275.132
1757840.518
1760258.201
1762542.081
1764702.725
1766746.097
1768703.862
1770686.359
1772692.626
1673116.451
1676436.301
1690420.652
1711043.654
1734032.411
1743489.307
1737356.573
1727692.385
1717331.096
1705811.146
1692586.441
1677951.005
1661989.887
1645172.99
1628259.523
1611452.703
1594906.83
1580843.571
1574487.665
1579063.801
1591384.125
1605959.633
1620033.694
1633239.316
1645472.857
1656490.029
1666092.169
1674290.64
1681328.827
1687547.552
1693231.611
1698518.443
1703440.279
1708002.214
1712214.217
1716092.356
1719651.511
1722917.642
1725929.082
1728728.812
1731351.949
1733819.941
1736147.323
1738347.715
1740433.779
1742414.304
1744292.799
1746098.846
1747938.277
1749805.481
1727637.959
1713535.015
1712695.059
1709757.273
1704557.671
1697996.113
1689904.76
1680094.385
1668527.14
1655119.736
1640482.982
1624884.956
1608405.279
1592158.985
1576318.044
1562621.401
1555858.196
1559059.941
1569705.526
1582858.377
1595899.273
1608352.233
1620100.748
1630893.36
1640477.725
1648760.39
1655876.049
1662113.965
1667774.408
1673045.329
1677980.335
1682580.544
1686847.464
1690791.737
1694426.002
1697765.791
1700840.429
1703689.079
1706350.15
1708851.278
1711208.756
1713435.007
1715542.846
1717542.585
1719444.459
1721254.939
1722979.329
1724643.685
1726347.006
1728081.436
1708899.73
1690035.093
1688492.123
1683886.166
1676164.699
1666229.898
1654624.669
1641364.151
1626955.348
1611574.036
1596022.08
1579670.136
1563911.034
1551047.645
1544531.382
1546591.28
1555055.852
1566036.974
1577287.682
1588335.843
1599033.879
1609100.867
1618229.404
1626228.539
1633135.895
1639171.347
1644619.697
1649700.016
1654490.934
1658995.406
1663205.459
1667122.048
1670751.975
1674101.467
1677188.634
1680044.96
1682708.311
1685210.307
1687569.998
1689799.392
1691909.341
1693910.918
1695814.091
1697627.326
1699359.476
1701016.965
1702600.531
1704131.546
1705703.219
1707310.036
1664548.327
1643473.248
1641007.817
1635311.731
1626909.913
1616325.071
1604340.111
1591701.559
1577775.154
1563751.377
1550010.953
1539244.226
1534746.058
1536839.189
1543483.876
1552269.391
1561620.009
1571118.948
1580592.872
1589734.861
1598187.026
1605727.801
1612320.379
1618099.423
1623293.515
1628119.303
1632694.648
1637039.039
1641137.417
1644979.319
1648563.466
1651891.589
1654968.851
1657815.404
1660463.357
1662946.446
1665288.986
1667502.914
1669597.667
1671584.331
1673471.81
1675268.802
1676981.86
1678621.183
1680194.147
1681703.845
1683150.69
1684557.824
1686008.397
1687495.763
1617230.79
1596604.952
1594311.77
1588673.436
1580444.405
1570774.967
1559699.655
1548498.691
1538260.945
1531277.01
1528802.391
1531062.453
1536029.287
1542448.869
1549767.903
1557546.325
1565571.412
1573527.039
1581056.654
1587932.915
1594047.822
1599436.817
1604264.14
1608738.57
1613007.757
1617104.032
1621012.674
1624709.629
1628184.698
1631434.265
1634454.793
1637254.802
1639857.153
1642293.184
1644590.372
1646765.13
1648826.356
1650781.528
1652639.635
1654408.29
1656094.108
1657701.842
1659239.759
1660714.969
1662132.642
1663496.396
1664810.601
1666098.583
1667434.935
1668807.884
1567587.505
1548564.591
1546805.553
1542401.094
1535975.732
1529663.456
1524675.234
1521843.08
1521830.173
1523826.02
1527615.154
1532446.506
1538195.767
1544610.444
1551424.773
1558352.898
1565055.942
1571321.874
1577000.03
1582043.014
1586551.817
1590737.052
1594744.497
1598617.508
1602343.168
1605896.564
1609261.212
1612427.893
1615390.065
1618143.873
1620699.984
1623082.485
1625323.485
1627445.722
1629459.431
1631370.651
1633186.501
1634915.246
1636563.34
1638134.818
1639636.697
1641075.528
1642456.14
1643780.739
1645056.397
1646289.533
1647483.252
1648656.714
1649881.497
1651144.813
1522280.195
1508420.917
1509199.992
1509314.284
1509020.484
1509292.769
1510684.413
1513141.582
1516464.372
1520788.117
1525824.2
1531520.495
1537592.749
1543838.944
1549948.044
1555757.574
1561109.04
1565894.541
1570214.528
1574219.625
1578032.182
1581720.997
1585288.984
1588704.564
1591957.801
1595042.71
1597943.633
1600650.191
1603165.358
1605506.163
1607699.315
1609770.108
1611734.546
1613600.174
1615371.512
1617054.051
1618654.999
1620181.092
1621636.571
1623028.315
1624361.631
1625642.524
1626874.852
1628064.266
1629215.249
1630331.584
1631416.662
1632487.933
1633607.44
1634764.192
1498621.554
1490928.667
1492963.846
1494999.836
1497184.583
1500099.594
1503697.472
1507929.013
1512816.636
1518157.887
1523804.626
1529597.221
1535314.281
1540791.86
1545914.029
1550545.464
1554772.053
1558691.57
1562395.262
1565952.974
1569418.513
1572764.726
1575960.599
1578992.442
1581852.242
1584531.435
1587019.199
1589326.271
1591477.029
1593499.694
1595416.72
1597239.532
1598971.012
1600615.552
1602180.226
1603670.501
1605090.599
1606443.599
1607736.06
1608973.897
1610160.782
1611301.369
1612402.986
1613474.194
1614518.517
1615534.688
1616525.086
1617505.46
1618530.888
1619588.159
1490303.616
1486302.743
1488535.896
1491209.318
1494315.974
1498002.556
1502225.16
1506907.21
1511920.105
1517061.58
1522251.705
1527270.92
1532060.226
1536482.758
1540581.798
1544408.437
1548009.33
1551497.504
1554896.919
1558181.096
1561324.045
1564301.456
1567119.15
1569780.642
1572267.668
1574577.076
1576722.316
1578727.642
1580616.802
1582403.666
1584098.703
1585707.858
1587237.135
1588691.906
1590077.869
1591400.201
1592663.438
1593872.033
1595028.887
1596134.129
1597196.562
1598223.459
1599220.711
1600193.176
1601146.324
1602079.375
1602989.544
1603891.244
1604835.062
1605808.028
1489929.431
1487707.198
1489758.483
1492322.326
1495337.022
1498833.768
1502745.46
1506969.301
1511309.829
1515668.298
1519920.165
1523979.106
1527822.232
1531477.091
1534940.492
1538332.446
1541644.534
1544841.41
1547905.905
1550854.986
1553664.766
1556318.436
1558804.225
1561108.257
1563244.58
1565234.37
1567106.555
1568879.231
1570560.863
1572156.468
1573669.607
1575104.859
1576468.587
1577767.069
1579003.843
1580184.724
1581314.464
1582398.514
1583439.116
1584439.634
1585404.623
1586342.208
1587257.277
1588153.559
1589033.445
1589897.869
1590741.703
1591578.73
1592454.065
1593354.064
1491780.102
1490308.875
1492082.409
1494315.035
1496915.179
1499890.522
1503180.683
1506644.977
1510143.869
1513647.264
1517036.248
1520368.369
1523595.632
1526793.115
1529941.212
1532987.816
1535962.103
1538841.462
1541591.582
1544185.752
1546635.1
1548943.004
1551095.041
1553095.199
1554959.548
1556710.09
1558368.75
1559943.912
1561440.228
1562864.817
1564221.306
1565512.413
1566739.865
1567906.563
1569021.227
1570088.197
1571109.911
1572089.943
1573035.98
1573955.351
1574846.916
1575716.713
1576569.401
1577406.919
1578230.304
1579038.735
1579830.141
1580614.534
1581431.456
1582268.407
1493839.342
1492585.867
1494044.01
1495856.194
1497926.408
1500298.295
1502911.822
1505626.27
1508426.212
1511264.585
1514122.524
1516990.652
1519873.142
1522693.271
1525496.901
1528230.975
1530844.464
1533358.353
1535771.79
1538051
1540170.522
1542143.012
1543988.143
1545732.701
1547386.098
1548954.851
1550438.906
1551847.841
1553188.805
1554466.039
1555684.164
1556848.254
1557961.111
1559023.89
1560039.105
1561011.258
1561945.658
1562848.446
1563725.37
1564581.157
1565418.265
1566238.088
1567043.548
1567835.761
1568615.011
1569380.135
1570128.818
1570867.851
1571635.07
1572420.126
1495130.406
1493879.755
1495034.159
1496433.303
1498049.201
1499939.781
1502010.163
1504219.609
1506582.029
1508994.379
1511509.582
1514021.58
1516555.568
1519058.495
1521491.516
1523882.56
1526186.585
1528365.519
1530427.631
1532383.076
1534216.605
1535928.158
1537544.032
1539082.803
1540554.017
1541960.699
1543298.811
1544568.999
1545779.657
1546935.852
1548039.83
1549096.563
1550111.767
1551088.506
1552021.412
1552918.595
1553787.598
1554633.384
1555459.54
1556269.592
1557065.468
1557847.286
1558616.205
1559373.282
1560118.077
1560846.724
1561557.32
1562257.612
1562982.933
1563721.838
1495435.272
1494117.295
1495064.348
1496211.686
1497562.431
1499118.913
1500843.954
1502767.134
1504793.869
1506916.733
1509091.288
1511298.789
1513484.376
1515676.437
1517801.339
1519851.95
1521840.311
1523722.078
1525484.952
1527149.397
1528741.271
1530259.584
1531700.778
1533076.699
1534391.698
1535650.125
1536860.415
1538017.235
1539118.622
1540171.947
1541182.937
1542154.547
1543089.017
1543988.913
1544857.737
1545699.337
1546519.891
1547323.416
1548112.694
1548888.734
1549651.878
1550403.13
1551143.286
1551871.861
1552585.892
1553280.448
1553957.811
1554624.514
1555312.625
1556011.092
1495106.152
1493754.358
1494612.252
1495634.889
1496789.133
1498101.126
1499616.54
1501289.014
1503039.961
1504899.07
1506776.846
1508702.398
1510604.72
1512485.492
1514330.662
1516088.031
1517769.559
1519384.976
1520912.119
1522366.622
1523766.137
1525121.281
1526419.563
1527656.9
1528843.368
1529982.879
1531078.735
1532134.797
1533145.184
1534114.927
1535049.063
1535948.817
1536816.294
1537657.156
1538476.615
1539276.135
1540060.458
1540832.381
1541592.812
1542341.545
1543077.244
1543803.638
1544518.919
1545219.717
1545902.617
1546567.978
1547215.498
1547850.902
1548504.855
1549168.652
1494531.116
1493156.089
1493937.645
1494835.205
1495816.942
1496968.422
1498302.139
1499740.816
1501279.36
1502885.767
1504525.922
1506180.932
1507832.301
1509438.686
1511011.819
1512518.334
1513958.508
1515353.548
1516704.468
1518000.995
1519251.444
1520460.721
1521632.55
1522754.96
1523833.851
1524873.293
1525874.547
1526841.546
1527776.162
1528675.952
1529543.404
1530382.654
1531198.8
1531995.612
1532775.499
1533542.51
1534298.783
1535044.996
1535780.688
1536504.041
1537217.783
1537921.403
1538610.895
1539283.516
1539937.037
1540575.154
1541194.457
1541800.496
1542420.899
1543052.411
1493800.212
1492386.578
1493095.915
1493878.276
1494730.096
1495758.763
1496922.397
1498163.878
1499508.665
1500890.075
1502315.777
1503730.895
1505147.221
1506516.791
1507852.123
1509159.97
1510421.47
1511651.509
1512859.549
1514023.613
1515147.908
1516238.052
1517298.255
1518323.284
1519310.405
1520263.647
1521186.36
1522080.946
1522948.928
1523785.961
1524597.909
1525390.241
1526166.33
1526928.068
1527676.935
1528417.801
1529150.349
1529873.805
1530586.703
1531287.1
1531979.515
1532658.332
1533320.965
1533965.52
1534592.258
1535203.402
1535794.996
1536370.604
1536960.802
1537561.947
1492954.198
1491504.146
1492145.914
1492835.115
1493597.067
1494491.908
1495492.082
1496577.81
1497737.58
1498921.083
1500137.427
1501342.463
1502545.304
1503725.576
1504886.07
1506039.137
1507162.471
1508261.809
1509341.015
1510391.177
1511410.259
1512401.554
1513366.54
1514305.594
1515213.027
1516093.809
1516950.475
1517782.717
1518589.077
1519374.05
1520142.482
1520897.385
1521640.753
1522373.381
1523097.332
1523815.502
1524526.035
1525227.654
1525918.392
1526597.54
1527265.156
1527918.087
1528554.053
1529169.574
1529771.084
1530355.805
1530918.584
1531464.682
1532027.485
1532598.175
1492024.282
1490539.278
1491117.92
1491739.2
1492407.142
1493174.377
1494022.933
1494960.137
1495947.182
1496956.604
1497990.581
1499023.291
1500059.725
1501099.599
1502129.423
1503154.964
1504162.577
1505149.985
1506119.854
1507074.603
1508003.996
1508910.42
1509794.481
1510656.904
1511496.392
1512315.231
1513112.842
1513888.495
1514644.65
1515388.321
1516121.394
1516845.766
1517562.013
1518268.343
1518970.915
1519667.78
1520357.475
1521038.095
1521704.25
1522359.853
1523002.407
1523628.933
1524235.477
1524825.953
1525402.089
1525958.844
1526492.167
1527013.024
1527547.468
1528086.342
1491013.946
1489503.363
1490035.022
1490590.84
1491161.708
1491811.476
1492531.234
1493324.15
1494156.206
1495022.821
1495911.958
1496816.892
1497730.54
1498655.846
1499575.6
1500491.209
1501397.945
1502291.647
1503173.148
1504041.695
1504891.413
1505723.245
1506537.805
1507334.685
1508115.072
1508877.145
1509621.923
1510351.925
1511067.327
1511776.68
1512480.593
1513179.029
1513870.206
1514553.866
1515235.412
1515911.867
1516580.462
1517235.584
1517877.693
1518508.998
1519125.587
1519723.05
1520302.577
1520869.168
1521418.011
1521945.356
1522452.677
1522948.716
1523454.218
1523961.428
1489918.492
1488402.622
1488893.031
1489377.96
1489858.491
1490404.55
1491015.332
1491690.23
1492404.327
1493159.185
1493938.002
1494742.056
1495556.535
1496381.704
1497205.425
1498028.157
1498849.514
1499662.954
1500467.232
1501259.54
1502039.386
1502807.201
1503562.334
1504301.356
1505026.586
1505738.991
1506440.532
1507130.52
1507813.985
1508495.8
1509174.924
1509849.316
1510515.6
1511179.731
1511841.591
1512497.258
1513140.541
1513768.796
1514388.312
1514994.484
1515582.75
1516152.314
1516708.276
1517248.061
1517768.158
1518268.466
1518752.162
1519221.941
1519697.597
1520177.937
1488750.943
1487242.477
1487688.025
1488111.771
1488518.809
1488982.246
1489510.786
1490096.538
1490723.492
1491389.263
1492080.862
1492795.914
1493523.647
1494261.396
1495005.28
1495752.032
1496497.456
1497239.711
1497975.639
1498701.411
1499421.299
1500133.988
1500835.184
1501519.837
1502197.96
1502870.353
1503535.379
1504190.43
1504848.525
1505506.844
1506162.657
1506812.484
1507457.485
1508103.43
1508745.177
1509376.094
1509991.194
1510597.069
1511191.92
1511770.469
1512329.913
1512875.168
1513405.72
1513917.747
1514410.298
1514887.007
1515345.528
1515787.05
1516237.075
1516692.926
1487532.619
1486040.26
1486449.552
1486826.101
1487177.885
1487580.309
1488046.513
1488562.988
1489119.411
1489710.539
1490327.758
1490965.158
1491619.607
1492285.748
1492961.592
1493641.716
1494319.951
1494999.546
1495676.043
1496344.708
1497012.683
1497673.602
1498321.2
1498963.093
1499604.063
1500241.933
1500873.942
1501504.269
1502139.615
1502775.757
1503408.375
1504034.208
1504662.313
1505288.893
1505906.304
1506507.846
1507099.716
1507682.665
1508250.731
1508799.878
1509334.415
1509855.639
1510359.311
1510843.34
1511312.007
1511764.596
1512195.681
1512613
1513040.006
1513467.678
1486300.367
1484835.311
1485216.142
1485556.752
1485867.422
1486224.528
1486637.121
1487095.315
1487591.764
1488117.928
1488672.171
1489246.776
1489840.219
1490443.806
1491058.882
1491677.793
1492299.442