/*--------------------------------*- C++ -*----------------------------------*\
  =========                 |
  \\      /  F ield         | OpenFOAM: The Open Source CFD Toolbox
   \\    /   O peration     | Website:  https://openfoam.org
    \\  /    A nd           | Version:  7
     \\/     M anipulation  |
\*---------------------------------------------------------------------------*/
FoamFile
{
    version     2.0;
    format      ascii;
    class       volVectorField;
    location    "0.0015";
    object      U;
}
// * * * * * * * * * * * * * * * * * * * * * * * * * * * * * * * * * * * * * //

dimensions      [0 1 -1 0 0 0 0];

internalField   nonuniform List<vector> 
14000
(
(-6.072857281e-08 3.335161709e-20 -0.002000023234)
(-1.593329716e-07 3.475547904e-20 -0.002000029053)
(-2.538642441e-07 2.103031524e-20 -0.002000043687)
(-3.535454691e-07 3.928966777e-21 -0.002000064794)
(-4.564175865e-07 -1.527060831e-20 -0.002000092261)
(-5.622497073e-07 -2.501570031e-21 -0.002000125866)
(-6.716293484e-07 4.536511746e-21 -0.002000165327)
(-7.850704082e-07 8.437652719e-21 -0.002000210398)
(-9.029116717e-07 1.09508022e-20 -0.002000260876)
(-1.025365741e-06 1.273294493e-20 -0.002000316596)
(-1.152536065e-06 1.380366498e-20 -0.002000377422)
(-1.284419551e-06 1.450767255e-20 -0.002000443246)
(-1.420909862e-06 1.522782007e-20 -0.002000513985)
(-1.561801311e-06 1.614320378e-20 -0.00200058958)
(-1.706791631e-06 1.694639495e-20 -0.002000669989)
(-1.855484822e-06 1.762155461e-20 -0.002000755185)
(-2.007401868e-06 1.852518119e-20 -0.002000845157)
(-2.161989568e-06 1.968850078e-20 -0.002000939908)
(-2.318599111e-06 2.070137677e-20 -0.002001039457)
(-2.47647557e-06 2.154592854e-20 -0.002001143839)
(-2.634773801e-06 2.23266168e-20 -0.002001253102)
(-2.792577437e-06 2.297094669e-20 -0.002001367306)
(-2.94890025e-06 2.350734521e-20 -0.002001486529)
(-3.102650816e-06 2.954542005e-20 -0.00200161086)
(-3.252643012e-06 3.539800312e-20 -0.002001740398)
(-3.397621912e-06 4.115810614e-20 -0.002001875247)
(-3.536233256e-06 4.678956375e-20 -0.002002015504)
(-3.667040521e-06 4.738099413e-20 -0.002002161248)
(-3.788517546e-06 4.807874212e-20 -0.002002312521)
(-3.89904364e-06 5.360908723e-20 -0.002002469309)
(-3.996932082e-06 5.904746099e-20 -0.002002631517)
(-4.080383767e-06 6.007043485e-20 -0.002002798949)
(-4.147473229e-06 6.156764085e-20 -0.002002971274)
(-4.196179449e-06 6.357987772e-20 -0.002003147999)
(-4.224393119e-06 6.579325035e-20 -0.002003328458)
(-4.22987461e-06 6.811285375e-20 -0.002003511797)
(-4.210246664e-06 7.057792192e-20 -0.002003696967)
(-4.16300037e-06 7.333345085e-20 -0.002003882733)
(-4.085502771e-06 7.628490233e-20 -0.002004067679)
(-3.974973123e-06 7.94759135e-20 -0.002004250228)
(-3.828473731e-06 7.969973366e-20 -0.002004428647)
(-3.642940846e-06 8.024051759e-20 -0.002004601057)
(-3.415180257e-06 8.115503297e-20 -0.002004765422)
(-3.141879169e-06 8.234806604e-20 -0.002004919522)
(-2.819588058e-06 8.386178136e-20 -0.002005060904)
(-2.444767409e-06 8.565340548e-20 -0.002005186806)
(-2.014141157e-06 8.777494875e-20 -0.002005294064)
(-1.524655394e-06 8.682632595e-20 -0.002005379056)
(-9.694577786e-07 8.616738859e-20 -0.002005437458)
(-3.356165018e-07 8.583657642e-20 -0.002005463288)
(-1.560978313e-07 7.45901988e-20 -0.002003016379)
(-4.090477407e-07 1.499275606e-19 -0.002003034829)
(-6.478374432e-07 2.136444213e-19 -0.002003075767)
(-8.924965011e-07 1.841155224e-19 -0.002003135542)
(-1.135692004e-06 1.719636347e-19 -0.002003212665)
(-1.374942347e-06 1.665493176e-19 -0.002003305557)
(-1.610069208e-06 1.177534524e-19 -0.002003412684)
(-1.840975232e-06 7.753057748e-20 -0.002003532591)
(-2.067393174e-06 4.225189341e-20 -0.002003663907)
(-2.288958992e-06 4.247651786e-20 -0.002003805342)
(-2.505219656e-06 3.986097565e-20 -0.002003955692)
(-2.715641448e-06 3.469452263e-20 -0.002004113837)
(-2.919611235e-06 2.648596385e-20 -0.002004278734)
(-3.116452397e-06 3.657548312e-20 -0.002004449416)
(-3.305448979e-06 4.247201354e-20 -0.002004624985)
(-3.485809917e-06 3.55806508e-20 -0.002004804611)
(-3.656662402e-06 3.666816004e-20 -0.002004987527)
(-3.817124664e-06 4.531977897e-20 -0.00200517303)
(-3.966282311e-06 5.232378369e-20 -0.002005360481)
(-4.103176458e-06 5.770267393e-20 -0.0020055493)
(-4.226846233e-06 6.233967869e-20 -0.002005738968)
(-4.336324453e-06 6.65304411e-20 -0.002005929026)
(-4.430644079e-06 7.637582482e-20 -0.002006119074)
(-4.508872722e-06 8.469890719e-20 -0.00200630878)
(-4.570101546e-06 9.269588651e-20 -0.002006497864)
(-4.613445685e-06 9.454706144e-20 -0.002006686108)
(-4.638085462e-06 9.646551329e-20 -0.00200687335)
(-4.643278822e-06 9.860550951e-20 -0.002007059479)
(-4.628356357e-06 1.003423906e-19 -0.002007244431)
(-4.592720521e-06 1.017425094e-19 -0.002007428179)
(-4.53587548e-06 1.034358093e-19 -0.002007610718)
(-4.4574602e-06 1.054330661e-19 -0.002007792044)
(-4.357253527e-06 1.072216887e-19 -0.002007972121)
(-4.235174468e-06 1.09071285e-19 -0.002008150845)
(-4.091308475e-06 1.112586702e-19 -0.002008328)
(-3.92594265e-06 1.137022274e-19 -0.002008503206)
(-3.739577214e-06 1.161162816e-19 -0.002008675879)
(-3.532939976e-06 1.185190977e-19 -0.002008845188)
(-3.307012023e-06 1.210246393e-19 -0.002009010034)
(-3.063057134e-06 1.237468711e-19 -0.002009169063)
(-2.802632322e-06 1.268084976e-19 -0.002009320687)
(-2.527588012e-06 1.263614277e-19 -0.002009463159)
(-2.240094664e-06 1.227090047e-19 -0.002009594654)
(-1.942658525e-06 1.194829784e-19 -0.002009713385)
(-1.638137232e-06 1.165869893e-19 -0.00200981772)
(-1.329738921e-06 1.139408082e-19 -0.002009906317)
(-1.02097757e-06 1.115616646e-19 -0.002009978241)
(-7.158033763e-07 1.094325244e-19 -0.002010033064)
(-4.190608223e-07 1.072067699e-19 -0.002010070993)
(-1.357735091e-07 1.076199578e-19 -0.002010093035)
(-1.856253295e-07 7.828274188e-21 -0.002007843484)
(-4.853707666e-07 -3.887173344e-20 -0.002007861589)
(-7.653812216e-07 6.510295634e-20 -0.002007900069)
(-1.049036326e-06 1.43107285e-19 -0.002007956403)
(-1.326676449e-06 2.083897145e-19 -0.002008029114)
(-1.594508679e-06 1.924440437e-19 -0.002008116572)
(-1.851629906e-06 1.875498605e-19 -0.002008217216)
(-2.09740777e-06 1.865976399e-19 -0.002008329542)
(-2.331122314e-06 1.878863347e-19 -0.002008452095)
(-2.552067804e-06 1.900266733e-19 -0.002008583488)
(-2.759601839e-06 1.946349148e-19 -0.002008722415)
(-2.953147908e-06 1.999279196e-19 -0.00200886765)
(-3.132140677e-06 1.916888094e-19 -0.002009018064)
(-3.296032916e-06 1.847460309e-19 -0.002009172618)
(-3.444330657e-06 1.797305065e-19 -0.002009330377)
(-3.576569418e-06 1.758255611e-19 -0.002009490505)
(-3.692323972e-06 1.720304208e-19 -0.002009652265)
(-3.791205094e-06 1.691952139e-19 -0.002009815017)
(-3.872872695e-06 1.678319313e-19 -0.00200997822)
(-3.937093012e-06 1.677534226e-19 -0.002010141422)
(-3.98370607e-06 1.688511875e-19 -0.002010304258)
(-4.012589816e-06 1.711685222e-19 -0.002010466436)
(-4.02369339e-06 1.671175173e-19 -0.002010627731)
(-4.017079061e-06 1.589231211e-19 -0.002010787966)
(-3.992911968e-06 1.593470284e-19 -0.002010946996)
(-3.951434408e-06 1.543492606e-19 -0.002011104688)
(-3.892996089e-06 1.442006001e-19 -0.002011260892)
(-3.818035609e-06 1.405188178e-19 -0.002011415426)
(-3.727089711e-06 1.377292153e-19 -0.002011568051)
(-3.620815729e-06 1.312347788e-19 -0.002011718447)
(-3.499961708e-06 1.256113621e-19 -0.002011866207)
(-3.365371369e-06 1.246673372e-19 -0.002012010825)
(-3.2180052e-06 1.242728496e-19 -0.002012151707)
(-3.058914737e-06 1.290909732e-19 -0.002012288185)
(-2.889243945e-06 1.298077939e-19 -0.002012419537)
(-2.710232676e-06 1.310167981e-19 -0.002012545021)
(-2.523207105e-06 1.285618691e-19 -0.002012663904)
(-2.329594627e-06 1.226146049e-19 -0.002012775494)
(-2.130888097e-06 1.132701691e-19 -0.002012879171)
(-1.928646594e-06 1.046704318e-19 -0.002012974407)
(-1.724495651e-06 9.921441328e-20 -0.002013060788)
(-1.520109274e-06 9.790273284e-20 -0.00201313802)
(-1.317187061e-06 9.693696425e-20 -0.002013205943)
(-1.117412356e-06 9.613344244e-20 -0.002013264534)
(-9.224350634e-07 9.5474028e-20 -0.002013313906)
(-7.338309614e-07 9.493254941e-20 -0.002013354305)
(-5.530405962e-07 9.44070185e-20 -0.002013386094)
(-3.81386744e-07 9.543614162e-20 -0.002013409737)
(-2.202628703e-07 9.577309127e-20 -0.00201342577)
(-7.092423279e-08 9.585043264e-20 -0.002013434824)
(-1.650641778e-07 2.194653929e-20 -0.002012663517)
(-4.318960901e-07 6.75482186e-22 -0.002012676406)
(-6.810497932e-07 -4.567626267e-20 -0.00201270282)
(-9.319673536e-07 1.359122739e-20 -0.002012741648)
(-1.175405718e-06 5.06276754e-20 -0.00201279188)
(-1.407662182e-06 7.579250981e-20 -0.002012852396)
(-1.627622323e-06 1.487692305e-19 -0.002012922149)
(-1.834499389e-06 2.098295638e-19 -0.002013000136)
(-2.027514638e-06 2.633080448e-19 -0.002013085385)
(-2.205966885e-06 2.761138828e-19 -0.002013176964)
(-2.369315147e-06 2.889189014e-19 -0.00201327399)
(-2.517129038e-06 3.029552483e-19 -0.002013375642)
(-2.649068999e-06 3.201717984e-19 -0.002013481162)
(-2.764875627e-06 3.043984472e-19 -0.002013589855)
(-2.864370498e-06 2.945486789e-19 -0.002013701096)
(-2.947479391e-06 2.874506155e-19 -0.002013814322)
(-3.014217406e-06 2.641588355e-19 -0.002013929032)
(-3.064675537e-06 2.26480372e-19 -0.002014044781)
(-3.099039597e-06 1.933583592e-19 -0.002014161167)
(-3.117584517e-06 1.726169741e-19 -0.002014277831)
(-3.120649764e-06 1.540352181e-19 -0.002014394443)
(-3.108658564e-06 1.373578602e-19 -0.002014510692)
(-3.082117779e-06 1.159972298e-19 -0.00201462627)
(-3.041590875e-06 1.029642725e-19 -0.002014740866)
(-2.987723361e-06 9.038967083e-20 -0.002014854157)
(-2.921249125e-06 8.44291584e-20 -0.002014965806)
(-2.842942298e-06 7.909171129e-20 -0.002015075456)
(-2.753617613e-06 8.011637265e-20 -0.002015182732)
(-2.654164701e-06 8.138149169e-20 -0.002015287245)
(-2.545528281e-06 8.275147134e-20 -0.002015388598)
(-2.428691145e-06 8.418677424e-20 -0.002015486396)
(-2.304672808e-06 8.068371485e-20 -0.002015580253)
(-2.174541707e-06 7.741992218e-20 -0.002015669803)
(-2.039403786e-06 6.961189462e-20 -0.002015754707)
(-1.900361743e-06 6.23831823e-20 -0.002015834665)
(-1.758540738e-06 5.530757441e-20 -0.002015909418)
(-1.615068811e-06 5.278860236e-20 -0.002015978757)
(-1.471055532e-06 5.035978081e-20 -0.002016042525)
(-1.327591186e-06 5.185470859e-20 -0.002016100623)
(-1.185727909e-06 5.303497229e-20 -0.002016153009)
(-1.046470535e-06 5.031489545e-20 -0.002016199701)
(-9.107594313e-07 4.984844008e-20 -0.002016240774)
(-7.794599794e-07 5.498099373e-20 -0.002016276362)
(-6.533597018e-07 5.972801536e-20 -0.00201630665)
(-5.3315875e-07 6.417107101e-20 -0.00201633187)
(-4.194514295e-07 6.841463651e-20 -0.002016352294)
(-3.127190261e-07 7.272181921e-20 -0.002016368226)
(-2.133857737e-07 7.482592553e-20 -0.002016379991)
(-1.219654183e-07 7.599624123e-20 -0.002016387937)
(-3.906625474e-08 7.57204314e-20 -0.002016392439)
(-1.297574823e-07 9.603065881e-20 -0.002017095916)
(-3.389072835e-07 2.118586987e-19 -0.002017104173)
(-5.330740859e-07 1.676478399e-19 -0.002017120456)
(-7.278670552e-07 1.500671316e-19 -0.0020171445)
(-9.158076645e-07 1.452832572e-19 -0.002017175697)
(-1.093814235e-06 1.467124959e-19 -0.002017213381)
(-1.260843747e-06 1.526142177e-19 -0.002017256946)
(-1.416149196e-06 1.609818333e-19 -0.002017305815)
(-1.55905079e-06 1.708083203e-19 -0.00201735943)
(-1.689036993e-06 1.815138777e-19 -0.002017417255)
(-1.805717677e-06 1.93275841e-19 -0.002017478775)
(-1.90879271e-06 1.886302064e-19 -0.002017543507)
(-1.998110166e-06 1.994333005e-19 -0.002017610995)
(-2.073619144e-06 1.951661342e-19 -0.00201768081)
(-2.13535041e-06 1.800505282e-19 -0.002017752544)
(-2.18346493e-06 1.690180162e-19 -0.002017825816)
(-2.218205436e-06 1.612957853e-19 -0.002017900262)
(-2.239880187e-06 1.565514213e-19 -0.00201797553)
(-2.248893694e-06 1.43796776e-19 -0.00201805128)
(-2.245698506e-06 1.326382363e-19 -0.002018127178)
(-2.230811499e-06 1.140775235e-19 -0.002018202895)
(-2.204840823e-06 8.880336497e-20 -0.002018278101)
(-2.168447439e-06 7.179429931e-20 -0.002018352464)
(-2.122320792e-06 5.588687062e-20 -0.002018425658)
(-2.06718118e-06 3.536472843e-20 -0.002018497356)
(-2.003800681e-06 2.794632464e-20 -0.002018567238)
(-1.932981409e-06 2.598960214e-20 -0.002018634996)
(-1.855543269e-06 2.390460519e-20 -0.002018700333)
(-1.77233289e-06 2.18163634e-20 -0.002018762969)
(-1.684200495e-06 1.94805726e-20 -0.002018822647)
(-1.591991747e-06 1.689454716e-20 -0.002018879137)
(-1.496564239e-06 1.419065949e-20 -0.002018932238)
(-1.398755129e-06 1.598844011e-20 -0.00201898178)
(-1.299388914e-06 1.364533599e-20 -0.002019027634)
(-1.199269282e-06 1.442749037e-20 -0.002019069704)
(-1.099158963e-06 1.464206948e-20 -0.002019107933)
(-9.997959512e-07 1.757656557e-20 -0.002019142303)
(-9.018742344e-07 2.313945558e-20 -0.002019172833)
(-8.060393944e-07 3.101107337e-20 -0.002019199579)
(-7.128878237e-07 3.830389944e-20 -0.002019222629)
(-6.229662224e-07 4.525645659e-20 -0.002019242103)
(-5.36768004e-07 4.900122315e-20 -0.00201925815)
(-4.547232079e-07 5.241571987e-20 -0.002019270941)
(-3.772006045e-07 5.249069519e-20 -0.002019280669)
(-3.045183863e-07 5.548448787e-20 -0.002019287546)
(-2.369491645e-07 5.531095158e-20 -0.002019291788)
(-1.746874433e-07 5.514435148e-20 -0.002019293577)
(-1.178394775e-07 5.52576249e-20 -0.002019293094)
(-6.652918584e-08 5.598579938e-20 -0.002019290983)
(-2.11323643e-08 5.690313778e-20 -0.002019288919)
(-9.660022964e-08 4.457295399e-20 -0.002020972138)
(-2.524761673e-07 6.486539855e-20 -0.002020977243)
(-3.973239369e-07 6.76769255e-20 -0.002020986913)
(-5.421234517e-07 6.769861089e-20 -0.002021001238)
(-6.810464231e-07 6.626902651e-20 -0.002021019873)
(-8.117742784e-07 6.394809458e-20 -0.00202104243)
(-9.334605994e-07 6.083698913e-20 -0.002021068564)
(-1.045512322e-06 5.616181156e-20 -0.002021097946)
(-1.147413838e-06 4.787495212e-20 -0.00202113025)
(-1.238815146e-06 3.009944497e-20 -0.002021165157)
(-1.3194747e-06 1.140151042e-20 -0.002021202359)
(-1.389240323e-06 -5.18338014e-21 -0.002021241549)
(-1.448107382e-06 -2.077217448e-20 -0.00202128243)
(-1.496176803e-06 -3.753772207e-20 -0.002021324709)
(-1.533602201e-06 -5.369596523e-20 -0.002021368096)
(-1.560620777e-06 -5.992684661e-20 -0.002021412302)
(-1.577576164e-06 -5.749844369e-20 -0.002021457044)
(-1.584856385e-06 -3.634076124e-20 -0.00202150204)
(-1.582896585e-06 -1.731513796e-20 -0.002021547009)
(-1.572196547e-06 -7.955641928e-21 -0.002021591675)
(-1.553316503e-06 8.192243337e-22 -0.002021635762)
(-1.526852964e-06 8.655758368e-22 -0.002021679001)
(-1.49341885e-06 9.245496485e-22 -0.002021721132)
(-1.453654527e-06 2.20515771e-21 -0.002021761908)
(-1.408220947e-06 3.554890959e-21 -0.002021801092)
(-1.357777867e-06 4.756989127e-21 -0.002021838464)
(-1.303010165e-06 5.993398289e-21 -0.002021873823)
(-1.24460847e-06 8.030876447e-21 -0.002021906987)
(-1.18324384e-06 1.012392578e-20 -0.002021937798)
(-1.119584063e-06 1.230803371e-20 -0.002021966123)
(-1.054279724e-06 1.459088026e-20 -0.002021991853)
(-9.879686669e-07 2.146405044e-20 -0.002022014907)
(-9.21253656e-07 2.834135958e-20 -0.002022035231)
(-8.547157083e-07 3.958822149e-20 -0.002022052796)
(-7.889174279e-07 5.117145758e-20 -0.002022067599)
(-7.243678909e-07 5.890721682e-20 -0.002022079664)
(-6.615500102e-07 6.356477094e-20 -0.002022089033)
(-6.009215987e-07 6.447457165e-20 -0.002022095776)
(-5.428859203e-07 6.283428884e-20 -0.002022099977)
(-4.87802626e-07 5.851429155e-20 -0.00202210174)
(-4.360086924e-07 5.826439475e-20 -0.002022101185)
(-3.877977916e-07 5.537880161e-20 -0.002022098443)
(-3.433931293e-07 5.029528468e-20 -0.002022093662)
(-3.029439449e-07 4.613014382e-20 -0.002022086981)
(-2.666661601e-07 4.273509912e-20 -0.002022078498)
(-2.353820826e-07 4.063647307e-20 -0.002022068365)
(-2.101123564e-07 3.898922568e-20 -0.002022057426)
(-1.850610573e-07 3.841786187e-20 -0.002022047114)
(-1.387579743e-07 3.795623885e-20 -0.002022038563)
(-5.224054068e-08 3.767574815e-20 -0.002022032839)
(-7.042479497e-08 4.281666875e-20 -0.002024520416)
(-1.837449663e-07 6.087657536e-20 -0.002024523569)
(-2.885340867e-07 6.191989306e-20 -0.002024529305)
(-3.930359678e-07 5.910981113e-20 -0.002024537805)
(-4.929354577e-07 5.414551928e-20 -0.00202454886)
(-5.865261949e-07 4.743660248e-20 -0.002024562239)
(-6.731332061e-07 3.900825867e-20 -0.002024577731)
(-7.523104146e-07 2.834821662e-20 -0.002024595128)
(-8.237247645e-07 1.50987377e-20 -0.002024614225)
(-8.871178021e-07 -2.25582346e-20 -0.00202463481)
(-9.423705657e-07 -6.126813609e-20 -0.002024656678)
(-9.894624538e-07 -8.587105664e-20 -0.002024679617)
(-1.028438429e-06 -1.123532931e-19 -0.002024703414)
(-1.059449938e-06 -1.256964719e-19 -0.002024727857)
(-1.082727055e-06 -1.298667334e-19 -0.002024752737)
(-1.0985413e-06 -1.370876607e-19 -0.00202477784)
(-1.107223154e-06 -1.352259014e-19 -0.002024802954)
(-1.109165521e-06 -1.366596604e-19 -0.002024827873)
(-1.104798569e-06 -1.315091062e-19 -0.002024852392)
(-1.094587392e-06 -1.287831462e-19 -0.002024876312)
(-1.079039683e-06 -1.197688807e-19 -0.002024899442)
(-1.058672367e-06 -1.050078939e-19 -0.002024921603)
(-1.034000139e-06 -9.250360987e-20 -0.002024942625)
(-1.00557552e-06 -7.446431434e-20 -0.002024962354)
(-9.739618118e-07 -5.83652857e-20 -0.002024980647)
(-9.397058891e-07 -4.99992669e-20 -0.002024997379)
(-9.033526195e-07 -4.266195079e-20 -0.002025012439)
(-8.654501594e-07 -3.63004547e-20 -0.002025025738)
(-8.265275331e-07 -3.629935078e-20 -0.002025037202)
(-7.87100365e-07 -3.634003886e-20 -0.002025046776)
(-7.47669241e-07 -3.63355326e-20 -0.002025054426)
(-7.087026281e-07 -3.619273898e-20 -0.002025060133)
(-6.706594313e-07 -4.533833064e-20 -0.002025063898)
(-6.339657622e-07 -5.401450061e-20 -0.002025065735)
(-5.990152016e-07 -5.778727313e-20 -0.002025065675)
(-5.661890078e-07 -6.12751797e-20 -0.002025063765)
(-5.358295914e-07 -6.049412796e-20 -0.002025060063)
(-5.08243916e-07 -5.962933308e-20 -0.002025054638)
(-4.83718872e-07 -5.879878554e-20 -0.002025047571)
(-4.625030656e-07 -5.784313684e-20 -0.002025038952)
(-4.44781123e-07 -5.691065399e-20 -0.002025028882)
(-4.306639331e-07 -5.587659737e-20 -0.002025017452)
(-4.204828827e-07 -5.481742414e-20 -0.002025004696)
(-4.153994824e-07 -5.376795818e-20 -0.002024990706)
(-4.155457147e-07 -5.551179325e-20 -0.002024976493)
(-4.091693036e-07 -5.680799603e-20 -0.002024963657)
(-3.756344552e-07 -6.025016647e-20 -0.0020249536)
(-3.063821173e-07 -6.337352512e-20 -0.002024947508)
(-2.046718605e-07 -6.640825551e-20 -0.002024945824)
(-7.229043216e-08 -6.94765104e-20 -0.002024946534)
(-5.149985715e-08 -1.007419726e-20 -0.002027764183)
(-1.344898393e-07 1.845777669e-19 -0.002027766095)
(-2.11419175e-07 1.533855615e-19 -0.002027769439)
(-2.880350703e-07 1.367804889e-19 -0.002027774371)
(-3.610755954e-07 1.277485158e-19 -0.002027780765)
(-4.292780218e-07 1.238881416e-19 -0.00202778847)
(-4.921697995e-07 1.24547065e-19 -0.002027797347)
(-5.494317604e-07 1.304190589e-19 -0.002027807249)
(-6.008434245e-07 1.188725785e-19 -0.002027818035)
(-6.462582632e-07 1.237344549e-19 -0.002027829558)
(-6.856107913e-07 9.553099099e-20 -0.002027841669)
(-7.189590318e-07 5.685242135e-20 -0.00202785422)
(-7.464074296e-07 2.485451255e-20 -0.00202786706)
(-7.681127829e-07 -3.779089145e-21 -0.002027880041)
(-7.843029167e-07 -2.868874655e-20 -0.002027893015)
(-7.952592139e-07 -5.127041075e-20 -0.00202790584)
(-8.013074464e-07 -6.096877758e-20 -0.002027918376)
(-8.028039155e-07 -8.04301889e-20 -0.002027930488)
(-8.001279041e-07 -8.868621767e-20 -0.002027942048)
(-7.936819169e-07 -9.684722092e-20 -0.002027952936)
(-7.838925863e-07 -8.660734402e-20 -0.002027963039)
(-7.711970511e-07 -6.938465866e-20 -0.002027972259)
(-7.560415281e-07 -5.33165859e-20 -0.002027980505)
(-7.388851161e-07 -5.317415317e-20 -0.002027987698)
(-7.201736269e-07 -5.313719487e-20 -0.002027993771)
(-7.003616736e-07 -6.040626294e-20 -0.002027998669)
(-6.798877154e-07 -6.771668346e-20 -0.002028002352)
(-6.591805489e-07 -8.097927919e-20 -0.00202800479)
(-6.38656824e-07 -9.413302687e-20 -0.002028005968)
(-6.187133544e-07 -1.018408989e-19 -0.002028005879)
(-5.997381386e-07 -1.102140554e-19 -0.00202800453)
(-5.820865912e-07 -1.19285413e-19 -0.00202800194)
(-5.6610955e-07 -1.290331406e-19 -0.002027998134)
(-5.521253201e-07 -1.397267887e-19 -0.002027993149)
(-5.404219839e-07 -1.515113876e-19 -0.002027987027)
(-5.312791157e-07 -1.600800868e-19 -0.00202797982)
(-5.249365211e-07 -1.697728718e-19 -0.002027971584)
(-5.216059709e-07 -1.718976455e-19 -0.002027962383)
(-5.214344265e-07 -1.752772721e-19 -0.002027952289)
(-5.244914719e-07 -1.724558192e-19 -0.002027941358)
(-5.311537229e-07 -1.710442037e-19 -0.002027929574)
(-5.427932427e-07 -1.675107042e-19 -0.002027916981)
(-5.59136372e-07 -1.618003641e-19 -0.002027904756)
(-5.649777439e-07 -1.573707371e-19 -0.002027894722)
(-5.39402353e-07 -1.543478837e-19 -0.002027888532)
(-4.76369059e-07 -1.529341218e-19 -0.002027887517)
(-3.790770435e-07 -1.525845443e-19 -0.002027891604)
(-2.574522264e-07 -1.531150482e-19 -0.002027898684)
(-1.38347272e-07 -1.530468276e-19 -0.002027905881)
(-4.224012334e-08 -1.538110768e-19 -0.002027910893)
(-3.919446287e-08 1.536530214e-19 -0.00203086639)
(-1.022054394e-07 3.602071059e-19 -0.002030867346)
(-1.604188431e-07 3.582177768e-19 -0.002030868898)
(-2.184225318e-07 2.433546313e-19 -0.002030871162)
(-2.737708277e-07 1.65682953e-19 -0.002030874068)
(-3.255052251e-07 1.088340512e-19 -0.002030877522)
(-3.732908966e-07 6.483595034e-20 -0.002030881427)
(-4.169082975e-07 2.936600345e-20 -0.00203088569)
(-4.5619044e-07 6.479010023e-22 -0.002030890208)
(-4.910841964e-07 -2.776624177e-21 -0.002030894882)
(-5.215827521e-07 -3.887325933e-21 -0.002030899611)
(-5.477399042e-07 -4.00253206e-21 -0.002030904292)
(-5.696789737e-07 -3.977508101e-21 -0.002030908827)
(-5.875694149e-07 -3.238072264e-21 -0.002030913119)
(-6.016195919e-07 -2.607142083e-21 -0.002030917072)
(-6.120721697e-07 -2.237768025e-21 -0.002030920598)
(-6.192013499e-07 -1.390929579e-20 -0.002030923613)
(-6.233198674e-07 -2.528748877e-20 -0.00203092604)
(-6.247670768e-07 -3.691090342e-20 -0.002030927812)
(-6.238840025e-07 -3.852053721e-20 -0.002030928866)
(-6.210085779e-07 -4.140161069e-20 -0.002030929147)
(-6.165026808e-07 -3.594811085e-20 -0.002030928613)
(-6.107390122e-07 -3.147794632e-20 -0.002030927228)
(-6.040782505e-07 -3.507228473e-20 -0.002030924966)
(-5.968796942e-07 -3.907977459e-20 -0.002030921812)
(-5.894942904e-07 -4.306812532e-20 -0.00203091776)
(-5.822650523e-07 -4.721248773e-20 -0.002030912814)
(-5.755235253e-07 -5.145191913e-20 -0.002030906984)
(-5.695863003e-07 -5.006375619e-20 -0.002030900291)
(-5.647567816e-07 -4.909449814e-20 -0.002030892763)
(-5.61316646e-07 -4.831106913e-20 -0.002030884435)
(-5.59536401e-07 -4.77050415e-20 -0.002030875346)
(-5.59658929e-07 -4.233024096e-20 -0.002030865543)
(-5.619057653e-07 -3.713967715e-20 -0.002030855075)
(-5.664848535e-07 -3.652789135e-20 -0.002030843997)
(-5.735617442e-07 -3.575490216e-20 -0.002030832368)
(-5.83237997e-07 -3.899162914e-20 -0.002030820255)
(-5.955344224e-07 -4.205721947e-20 -0.002030807706)
(-6.108415957e-07 -4.485155191e-20 -0.002030794678)
(-6.306801082e-07 -4.754735696e-20 -0.002030781193)
(-6.545232106e-07 -4.999314905e-20 -0.002030768568)
(-6.650697817e-07 -5.225166449e-20 -0.002030758778)
(-6.408700147e-07 -5.453758889e-20 -0.002030753587)
(-5.77026321e-07 -5.338771536e-20 -0.002030754429)
(-4.777048344e-07 -5.224455783e-20 -0.002030760957)
(-3.58992685e-07 -4.956156995e-20 -0.002030770858)
(-2.471416372e-07 -4.593787341e-20 -0.00203078103)
(-1.549168022e-07 -4.262518593e-20 -0.002030789084)
(-8.128171859e-08 -4.101958321e-20 -0.002030794113)
(-2.46446052e-08 -3.942792427e-20 -0.002030796636)
(-3.163982191e-08 1.962309596e-19 -0.002033843396)
(-8.262217794e-08 2.263202735e-19 -0.002033843545)
(-1.29986782e-07 2.515635738e-19 -0.002033843541)
(-1.77337307e-07 1.505705632e-19 -0.002033843493)
(-2.226812004e-07 7.950363228e-20 -0.002033843377)
(-2.653161815e-07 2.297337297e-20 -0.002033843145)
(-3.050072331e-07 -2.584352298e-20 -0.002033842739)
(-3.416296277e-07 -7.055103355e-20 -0.002033842107)
(-3.750983503e-07 -8.828942994e-20 -0.002033841186)
(-4.05375463e-07 -1.078674424e-19 -0.002033839915)
(-4.324959782e-07 -8.972139929e-20 -0.002033838232)
(-4.565387886e-07 -5.88212784e-20 -0.002033836078)
(-4.776214291e-07 -3.307062803e-20 -0.002033833392)
(-4.959055524e-07 3.713357049e-21 -0.002033830121)
(-5.115897864e-07 3.70026979e-20 -0.002033826212)
(-5.248927832e-07 6.801921971e-20 -0.002033821619)
(-5.360453228e-07 7.355478295e-20 -0.002033816302)
(-5.45296889e-07 7.983278356e-20 -0.002033810223)
(-5.529239461e-07 7.658707967e-20 -0.002033803357)
(-5.592259687e-07 7.429356342e-20 -0.002033795684)
(-5.644827849e-07 5.491185729e-20 -0.002033787192)
(-5.689715714e-07 3.691669672e-20 -0.002033777875)
(-5.729913998e-07 2.026159218e-20 -0.002033767738)
(-5.768180907e-07 1.221259452e-20 -0.002033756791)
(-5.8073319e-07 4.500373047e-21 -0.002033745054)
(-5.850022869e-07 4.070475077e-21 -0.002033732554)
(-5.89880845e-07 3.708630773e-21 -0.002033719324)
(-5.956121368e-07 1.002604188e-20 -0.002033705404)
(-6.024249271e-07 1.634022314e-20 -0.002033690839)
(-6.105316403e-07 1.704343133e-20 -0.00203367568)
(-6.201253723e-07 1.818865674e-20 -0.002033659983)
(-6.313876216e-07 1.98013055e-20 -0.002033643806)
(-6.444726124e-07 2.188596942e-20 -0.002033627212)
(-6.595089361e-07 2.441255467e-20 -0.002033610268)
(-6.765451282e-07 2.734267983e-20 -0.002033593053)
(-6.955509548e-07 3.062194217e-20 -0.00203357562)
(-7.169332869e-07 3.4247515e-20 -0.002033557921)
(-7.42318236e-07 3.404502863e-20 -0.002033539964)
(-7.709802224e-07 3.431163818e-20 -0.002033523223)
(-7.838585355e-07 3.112768703e-20 -0.002033509825)
(-7.587737488e-07 2.842483081e-20 -0.002033501595)
(-6.915380447e-07 2.606545001e-20 -0.002033499966)
(-5.868660835e-07 2.0178343e-20 -0.00203350435)
(-4.644094213e-07 1.818848381e-20 -0.002033512252)
(-3.508055395e-07 1.666641906e-20 -0.002033520452)
(-2.557131111e-07 1.586235425e-20 -0.002033526587)
(-1.773528361e-07 1.273870065e-20 -0.002033530067)
(-1.131638185e-07 1.169067381e-20 -0.002033531386)
(-6.095138263e-08 1.114631264e-20 -0.002033531196)
(-1.861852473e-08 1.094675795e-20 -0.00203353055)
(-2.745598931e-08 -3.660071036e-20 -0.002036768464)
(-7.165125888e-08 -1.625387816e-19 -0.002036767922)
(-1.127396724e-07 -9.799176789e-20 -0.002036766589)
(-1.540261221e-07 -6.567967728e-20 -0.002036764584)
(-1.93888348e-07 -4.547171789e-20 -0.002036761923)
(-2.318013217e-07 -3.154439767e-20 -0.002036758593)
(-2.675985112e-07 -2.145230696e-20 -0.002036754582)
(-3.011984455e-07 -1.338334756e-20 -0.002036749867)
(-3.325871196e-07 -5.71607078e-21 -0.002036744429)
(-3.617724229e-07 2.188240052e-21 -0.002036738242)
(-3.887924411e-07 1.097596373e-20 -0.002036731282)
(-4.137371684e-07 2.04288552e-20 -0.002036723524)
(-4.367285718e-07 3.033339571e-20 -0.002036714945)
(-4.579135349e-07 4.053096092e-20 -0.002036705526)
(-4.774600931e-07 5.074432874e-20 -0.002036695252)
(-4.955548553e-07 6.076473511e-20 -0.002036684113)
(-5.124030606e-07 7.081228554e-20 -0.002036672103)
(-5.282224146e-07 8.053475266e-20 -0.00203665922)
(-5.432294102e-07 8.996798967e-20 -0.002036645468)
(-5.576434194e-07 8.909689951e-20 -0.002036630859)
(-5.716960389e-07 8.854948857e-20 -0.002036615411)
(-5.856096504e-07 7.941771673e-20 -0.002036599147)
(-5.995979858e-07 7.110553405e-20 -0.002036582096)
(-6.138756023e-07 6.355240245e-20 -0.002036564293)
(-6.28643997e-07 5.663435062e-20 -0.002036545778)
(-6.440952979e-07 5.019139627e-20 -0.002036526597)
(-6.604098865e-07 4.394306297e-20 -0.002036506799)
(-6.777495349e-07 3.752441732e-20 -0.00203648644)
(-6.962648764e-07 3.108804935e-20 -0.002036465575)
(-7.160862122e-07 2.444836019e-20 -0.002036444265)
(-7.373329689e-07 1.752019545e-20 -0.002036422573)
(-7.600951572e-07 1.01925405e-20 -0.002036400567)
(-7.843746751e-07 7.799934479e-21 -0.002036378328)
(-8.101010177e-07 9.88926001e-21 -0.002036355909)
(-8.376833622e-07 1.114636956e-20 -0.002036333247)
(-8.688711924e-07 1.165492857e-20 -0.002036310336)
(-9.027737131e-07 1.145616771e-20 -0.002036288822)
(-9.186325876e-07 1.0565092e-20 -0.002036271051)
(-8.93397745e-07 9.031563908e-21 -0.002036258982)
(-8.234625234e-07 6.839551999e-21 -0.002036254085)
(-7.139757761e-07 3.991312603e-21 -0.002036255475)
(-5.867236516e-07 5.227020651e-22 -0.002036260356)
(-4.689849344e-07 -3.463005706e-21 -0.002036265267)
(-3.691114444e-07 -7.962865777e-21 -0.002036267736)
(-2.851570625e-07 -1.287503567e-20 -0.002036267321)
(-2.146520418e-07 -1.492973504e-20 -0.002036264541)
(-1.554262918e-07 -1.427049021e-20 -0.002036260048)
(-1.046329486e-07 -1.424184371e-20 -0.002036254917)
(-5.952936994e-08 -1.328570163e-20 -0.002036250344)
(-1.828992142e-08 -1.282354987e-20 -0.002036247391)
(-2.558987177e-08 -8.599549708e-20 -0.002039631884)
(-6.688423296e-08 -3.029187193e-19 -0.002039630799)
(-1.055258924e-07 -3.314020276e-19 -0.002039628401)
(-1.446014633e-07 -2.482731966e-19 -0.002039624826)
(-1.826861123e-07 -2.08244212e-19 -0.002039620121)
(-2.193381475e-07 -1.455647975e-19 -0.002039614319)
(-2.544757866e-07 -1.026436293e-19 -0.002039607443)
(-2.880798047e-07 -7.166394404e-20 -0.002039599513)
(-3.201393409e-07 -4.849478841e-20 -0.002039590539)
(-3.506983779e-07 -3.055116755e-20 -0.002039580537)
(-3.798367295e-07 -1.636787115e-20 -0.002039569517)
(-4.076476731e-07 -4.867099861e-21 -0.002039557491)
(-4.342346165e-07 4.524446948e-21 -0.002039544472)
(-4.59721064e-07 1.189245713e-20 -0.002039530475)
(-4.84249608e-07 1.742427345e-20 -0.002039515516)
(-5.079844454e-07 2.15491388e-20 -0.002039499614)
(-5.310996475e-07 3.724933806e-20 -0.002039482792)
(-5.537662606e-07 5.151215873e-20 -0.002039465076)
(-5.761506713e-07 6.46380582e-20 -0.002039446497)
(-5.984224174e-07 7.680849493e-20 -0.002039427091)
(-6.207581491e-07 8.839549912e-20 -0.002039406892)
(-6.43320305e-07 9.017759772e-20 -0.002039385942)
(-6.662688752e-07 9.239845503e-20 -0.002039364285)
(-6.897642903e-07 9.506928184e-20 -0.002039341967)
(-7.139376796e-07 9.815382989e-20 -0.002039319038)