/*--------------------------------*- C++ -*----------------------------------*\
  =========                 |
  \\      /  F ield         | OpenFOAM: The Open Source CFD Toolbox
   \\    /   O peration     | Website:  https://openfoam.org
    \\  /    A nd           | Version:  7
     \\/     M anipulation  |
\*---------------------------------------------------------------------------*/
FoamFile
{
    version     2.0;
    format      ascii;
    class       volScalarField;
    location    "0.0015";
    object      wallHeatFlux;
}
// * * * * * * * * * * * * * * * * * * * * * * * * * * * * * * * * * * * * * //

dimensions      [1 0 -3 0 0 0 0];

internalField   uniform 0;

boundaryField
{
    front_top
    {
        type            wedge;
    }
    front_middle
    {
        type            wedge;
    }
    front_bottom
    {
        type            wedge;
    }
    back_top
    {
        type            wedge;
    }
    back_middle
    {
        type            wedge;
    }
    back_bottom
    {
        type            wedge;
    }
    axis_top
    {
        type            symmetryPlane;
    }
    axis_middle
    {
        type            symmetryPlane;
    }
    axis_bottom
    {
        type            symmetryPlane;
    }
    wall_top
    {
        type            calculated;
        value           nonuniform List<scalar> 
150
(
47280.05984
42093.23135
39140.91194
36908.99737
35208.27061
33924.89638
32400.48822
30670.41094
29114.02131
27909.14043
27281.51111
26968.45286
26649.17421
26185.72053
25694.76976
25238.21678
24812.59453
24412.48241
24034.09036
23674.58282
23331.6739
23002.84597
22686.46624
22381.05809
22085.48132
21799.14358
21521.6627
21252.9159
20992.62175
20740.47304
20496.1413
20259.3191
20029.67757
19806.88177
19590.62233
19380.62447
19176.65816
18978.4986
18785.93499
18598.7662
18416.79524
18239.83369
18067.71735
17900.25713
17737.27955
17578.61613
17424.11256
17273.66148
17127.07775
16984.21863
16844.99417
16709.2696
16576.89635
16447.81782
16321.89825
16199.00683
16079.1305
15962.07978
15847.83522
15736.27592
15627.32718
15520.92626
15416.96248
15315.40838
15216.14428
15119.15196
15024.3245
14931.62915
14840.99136
14752.34529
14665.66732
14580.84201
14497.91471
14416.74082
14337.32999
14259.62003
14183.53324
14109.10802
14036.22193
13964.85908
13895.01561
13826.59994
13759.60633
13694.01224
13629.74443
13566.79125
13505.14212
13444.72544
13385.51654
13327.53549
13270.70123
13214.98826
13160.3988
13106.89917
13054.44387
13003.00894
12952.60913
12903.1917
12854.72671
12807.19354
12760.60086
12714.90598
12670.08005
12626.10343
12582.97056
12540.67119
12499.1637
12458.43016
12418.45296
12379.23176
12340.74252
12302.95408
12265.84882
12229.40807
12193.62265
12158.48247
12123.94855
12090.00019
12056.61497
12023.76851
11991.44606
11959.61417
11928.22521
11897.23581
11866.59229
11836.22672
11806.05567
11775.97488
11745.81064
11715.3495
11684.29639
11652.2398
11618.60403
11582.60358
11543.07944
11498.42824
11446.39806
11383.85356
11306.3774
11207.81033
11079.67424
10910.2073
10683.28402
10376.85796
9960.818935
9393.906497
8618.804628
7552.875335
6065.974791
3910.000396
)
;
    }
    wall_middle
    {
        type            calculated;
        value           nonuniform List<scalar> 
65
(
297738.464
182540.4828
143215.493
123560.0567
111262.0588
102568.9114
95974.39112
90739.59879
86449.99826
82851.9299
79779.98574
77120.90124
74794.39664
72741.86202
70919.3994
69293.38998
67837.49224
66531.21773
65358.21329
64305.22598
63361.41995
62517.88187
61767.22552
61103.28632
60520.92667
60015.71446
59583.98036
59222.61961
58928.93125
58700.61259
58535.68468
58432.43527
58389.39315
58405.29168
58479.03203
58609.65155
58796.30567
59038.27041
59334.91909
59685.70669
60090.19361
60547.94126
61058.62003
61621.95045
62237.7272
62905.88292
63626.51874
64400.00803
65227.17858
66109.56247
67049.92916
68052.65526
69125.35254
70279.26019
71534.32071
72918.41967
74482.91983
76298.15683
78495.17259
81270.68222
84958.04468
90258.84322
98075.66275
111453.4941
160869.1141
)
;
    }
    wall_bottom
    {
        type            calculated;
        value           nonuniform List<scalar> 
65
(
156432.9162
131916.1938
122885.6765
117901.7009
114682.4042
112345.6416
110534.0986
109061.9807
107821.2082
106748.1817
105799.4738
104946.333
104167.567
103447.7991
102775.2224
102140.8081
101537.4565
100959.5866
100402.758
99863.43145
99338.77016
98826.49593
98324.77527
97832.13103
97347.37303
96869.544
96397.87536
95931.75052
95470.67553
95014.25538
94562.1772
94114.19566
93670.11955
93229.80086
92793.1261
92360.00941
91930.38707
91504.21314
91081.45575
90662.0938
90246.1145
89833.51136
89424.28226
89018.42585
88615.94634
88216.85753
87821.1758
87428.91801
87040.10153
86654.74532
86272.87092
85894.50344
85519.67293
85148.41689
84780.78365
84416.83611
84056.65662
83700.35486
83348.07733
83000.01961
82656.40694
82317.42679
81983.00139
81654.41298
81357.13777
)
;
    }
    inlet
    {
        type            calculated;
        value           nonuniform List<scalar> 
50
(
-21.89813937
-22.49963345
-23.81949981
-25.85111025
-28.6480752
-32.29820465
-36.92235332
-42.67666097
-49.7565501
-58.40218553
-68.90537264
-81.61796916
-96.96194131
-115.4412351
-137.6556668
-164.3170656
-196.2679277
-234.5028046
-280.1927383
-334.7133649
-399.6766643
-476.9668608
-568.7809674
-677.6742554
-806.6108313
-959.0198841
-1138.858113
-1350.679338
-1599.710744
-1891.934585
-2234.177129
-2634.211382
-3100.866389
-3644.143706
-4275.351026
-5007.235813
-5854.115298
-6832.038063
-7958.964642
-9254.958552
-10742.37333
-12446.06276
-14393.5324
-16615.20648
-19144.73208
-22019.23698
-25279.43555
-28970.00104
-33139.88222
-37842.55969
)
;
    }
    outlet
    {
        type            calculated;
        value           uniform 0;
    }
}


// ************************************************************************* //
