/*--------------------------------*- C++ -*----------------------------------*\
  =========                 |
  \\      /  F ield         | OpenFOAM: The Open Source CFD Toolbox
   \\    /   O peration     | Website:  https://openfoam.org
    \\  /    A nd           | Version:  7
     \\/     M anipulation  |
\*---------------------------------------------------------------------------*/
FoamFile
{
    version     2.0;
    format      ascii;
    class       volScalarField;
    location    "0.0003";
    object      p;
}
// * * * * * * * * * * * * * * * * * * * * * * * * * * * * * * * * * * * * * //

dimensions      [1 -1 -2 0 0 0 0];

internalField   nonuniform List<scalar> 
1167
(
334668.3121
336354.4014
336298.9877
336544.468
337004.7552
337583.6945
338269.7605
339061.2655
339955.3118
340940.6591
341993.9478
343088.3739
344193.5543
345278.6551
346314.35
347278.3264
348156.6139
324536.9444
326145.668
326091.7962
326322.6216
326767.1758
327320.6005
327985.9048
328751.9454
329617.6942
330572.3704
331595.0158
332659.4611
333735.2812
334791.1216
335798.9076
336736.7981
337591.3928
338360.2642
339042.9567
339643.4167
340170.5499
340631.3485
341033.1845
341383.8769
341689.0202
341954.7007
342185.3225
342384.84
342556.9785
342704.5237
342830.3245
342936.5718
343025.2143
343098.2088
343157.1424
343203.4197
343238.3348
343263.1009
343278.7754
343286.3035
343286.534
343280.2251
343268.048
343250.6081
343228.4833
343202.2491
343172.3051
343138.2017
343098.8541
343059.9922
314428.0839
315953.1483
315898.4575
316121.7016
316547.824
317076.8876
317714.0504
318456.0721
319293.6071
320217.9941
321209.3711
322241.8872
323285.7177
324310.3083
325288.1233
326197.5121
327027.9526
327774.6454
328437.0825
329020.0348
329531.4338
329977.7316
330367.0326
330706.2612
331001.0286
331257.4226
331479.6436
331671.9206
331837.6622
331979.6583
332100.7406
332203.0449
332288.4747
332358.9342
332415.9448
332460.8363
332494.9094
332519.2921
332534.9868
332542.8892
332543.8019
332538.4377
332527.4228
332511.3375
332490.7283
332466.136
332437.9377
332405.6977
332368.3754
332331.4363
304341.5833
305774.7316
305721.865
305938.3282
306341.2814
306849.0289
307456.7951
308172.5689
308982.4343
309875.6809
310834.4079
311833.607
312843.9882
313835.4028
314780.5299
315660.84
316465.4137
317188.1359
317828.8184
318393.5592
318888.4399
319319.8049
319696.178
320023.6334
320308.1723
320555.3903
320769.4328
320954.6521
321114.2043
321250.9329
321367.5415
321466.0939
321548.5431
321616.6609
321671.9138
321715.574
321748.915
321773.0006
321788.7822
321797.1083
321798.7338
321794.3234
321784.4817
321769.7605
321750.6695
321727.7118
321701.2472
321670.8577
321635.547
321600.5188
294270.5198
295612.4227
295568.5479
295773.6812
296150.9159
296638.3184
297218.7825
297902.2568
298683.5589
299545.9892
300470.9183
301435.1308
302409.8649
303365.1779
304276.8543
305127.2845
305903.5801
306600.5103
307218.8613
307764.1345
308241.499
308657.8603
309020.8218
309336.2369
309610.5443
309848.6438
310054.7048
310232.9621
310386.4466
310518.1339
310630.4682
310725.4447
310805.0833
310871.007
310924.6268
310967.1754
310999.8716
311023.7291
311039.6509
311048.4393
311050.8029
311047.3646
311038.712
311025.3633
311007.7935
310986.4743
310961.744
310933.2029
310899.9032
310866.7867
284223.0894
285472.3948
285435.5717
285627.0745
285981.523
286443.0924
286996.4891
287647.5454
288395.7213
289225.4838
290116.2179
291043.8349
291980.8681
292899.8803
293777.7705
294595.715
295341.9497
296011.5604
296607.0352
297131.7198
297590.6914
297991.7122
298340.9918
298644.3497
298908.1935
299137.0156
299335.2558
299506.685
299654.2628
299781.0277
299889.2332
299980.8167
300057.7577
300121.591
300173.6474
300215.1746
300247.3005
300270.9881
300287.0945
300296.3753
300299.4922
300297.0531
300289.6098
300277.6466
300261.6081
300241.937
300218.9507
300192.2678
300160.9893
300129.795
274208.0885
275354.9251
275321.2079
275495.1675
275829.7361
276261.1169
276789.0763
277409.1865
278122.0341
278915.5856
279769.9163
280659.8426
281558.6717
282440.7157
283282.1659
284065.6159
284779.9975
285421.9076
285993.2168
286496.347
286936.5696
287321.5106
287656.5293
287947.8287
288201.0808
288420.5911
288611.0193
288775.6846
288917.4904
289039.3905
289143.5375
289231.8389
289306.17
289367.992
289418.5582
289459.1231
289490.7271
289514.2833
289530.604
289540.4
289544.2903
289542.8679
289536.6498
289526.0871
289511.5952
289493.5882
289472.3622
289447.5561
289418.3221
289389.0734
264219.6531
265257.1987
265225.4963
265384.0432
265697.2117
266097.5214
266596.23
267185.3957
267863.5299
268619.6193
269434.9526
270285.48
271144.5962
271986.584
272789.4845
273536.7388
274217.8666
274831.4845
275377.2405
275857.6106
276278.9133
276647.2016
276967.5489
277246.5962
277489.1457
277699.4124
277881.8912
278039.6922
278175.8328
278292.9338
278393.0407
278478.143
278549.9267
278609.7924
278658.9417
278698.5765
278729.6859
278753.1344
278769.6854
278780.001
278784.6889
278784.3038
278779.3286
278770.1849
278757.2605
278740.9408
278721.4995
278698.5982
278671.4413
278644.1702
254260.0358
255179.7759
255147.7384
255297.0398
255584.1948
255954.3093
256417.1038
256975.5486
257617.8933
258335.3309
259110.285
259919.1319
260736.0167
261536.3265
262299.019
263008.0113
263655.9638
264239.8568
264759.0171
265215.9569
265617.6393
265968.7717
266274.3101
266540.652
266772.1286
266973.1575
267147.6502
267298.5563
267429.0341
267541.3561
267637.4669
267719.3925
267788.6499
267846.5589
267894.3193
267933.0451
267963.6743
267987.0248
268003.8127
268014.6541
268020.1489
268020.8134
268017.0967
268009.3912
267998.0581
267983.4545
267965.8315
267944.8736
267919.8391
267894.5901
244323.6766
245116.5798
245091.7715
245229.7021
245485.6101
245828.3938
246255.0541
246777.7962
247384.7711
248062.1873
248794.6858
249559.8849
250332.7808
251089.551
251809.6721
252479.9948
253093.8608
253646.5379
254137.7764
254571.4415
254952.6224
255285.7735
255576.4426
255829.8217
256050.0122
256241.672
256408.1039
256552.1466
256676.8583
256784.3658
256876.5134
256955.2355
257021.9528
257077.8889
257124.2605
257162.0753
257192.2194
257215.4627
257232.4744
257243.8521
257250.1603
257251.8822
257249.4369
257243.1896
257233.4753
257220.6231
257204.8626
257185.8987
257163.0412
257139.8675
234409.131
235075.0009
235062.2266
235184.0538
235407.4863
235721.456
236112.982
236594.5887
237162.8479
237800.4755
238488.8976
239208.2542
239934.681
240645.112
241322.0092
241953.4766
242531.2551
243051.5119
243513.9995
243923.7168
244283.7924
244598.5105
244873.902
245114.0324
245322.8587
245504.8385
245662.9753
245800.1215
245918.9947
246021.5788
246109.7493
246185.2391
246249.3886
246303.3476
246348.2977
246385.1724
246414.8054
246437.9161
246455.1248
246467.0262
246474.1424
246476.923
246475.7584
246470.9885
246462.9225
246451.8614
246438.0131
246421.1021
246400.4923
246379.4634
224526.1769
225061.0677
225053.8326
225155.6292
225351.3295
225629.1094
225986.8907
226428.3347
226952.2235
227546.0864
228189.5522
228861.3449
229539.3435
230203.1035
230836.5895
231427.1497
231967.4486
232453.9934
232888.0049
233272.6708
233610.8584
233907.1035
234166.5626
234392.8928
234590.2767
234762.3937
234912.0352
235042.1918
235155.1337
235252.7021
235336.8338
235409.0292
235470.5441
235522.4924
235565.9728
235601.8613
235630.9394
235653.8789
235671.2611
235683.6623
235691.5692
235695.4014
235695.5227
235692.2485
235685.8631
235676.6395
235664.7625
235649.9761
235631.6969
235612.8943
214676.459
215067.9893
215065.0742
215144.6883
215313.4423
215552.1511
215876.2567
216277.5328
216756.2053
217301.9679
217897.3614
218519.8542
219148.5275
219764.8692
220352.7038
220900.7127
221402.2975
221854.3787
222259.1947
222618.0386
222933.6138
223211.049
223454.1979
223666.3964
223852.075
224014.1143
224155.1399
224278.0887
224384.9543
224477.4427
224557.4061
224626.199
224684.9645
224734.834
224776.7766
224811.6119
224840.0668
224862.7584
224880.2683
224893.1276
224901.7915
224906.6531
224908.0529
224906.2843
224901.6082
224894.2698
224884.4303
224871.8535
224856.0105
224839.5399
204855.1135
205094.1434
205093.3252
205157.1515
205296.1424
205496.0552
205779.6924
206140.7961
206574.0649
207071.0795
207615.1326
208185.9461
208763.3616
209329.4305
209869.775
210373.8961
210835.3561
211253.1841
211627.5656
211959.7418
212252.3774
212510.3497
212736.7116
212934.6141
213108.1049
213259.7116
213391.9917
213507.5149
213608.0936
213695.3919
213771.0578
213836.3339
213892.2589
213939.9516
213980.2664
214013.9641
214041.7169
214064.09
214081.6642
214094.927
214104.304
214110.1646
214112.8296
214112.5733
214109.636
214104.2364
214096.5118
214086.2454
214072.9604
214058.9452
195060.8781
195136.302
195139.0954
195190.4129
195294.7834
195458.5745
195697.5911
196017.5252
196403.5613
196849.5574
197340.54
197857.3762
198381.209
198895.5288
199387.0248
199845.6214
200266.7911
200649.5113
200992.5396
201297.1259
201566.7876
201804.6961
202013.6115
202197.034
202358.0293
202498.8638
202622.2142
202730.1039
202824.1631
202906.1212
202977.3332
203038.9447
203091.9163
203137.2877
203175.8416
203208.2732
203235.1971
203257.157
203274.6927
203288.2623
203298.2674
203305.0584
203308.9408
203310.1753
203308.9861
203305.5692
203300.0401
203292.2048
203281.6419
203270.2515
185282.8432
185191.3665
185207.386
185242.2767
185308.2137
185438.3829
185633.2844
185904.7446
186244.2358
186637.494
187072.8886
187533.5214
188001.9971
188462.9329
188903.6708
189316.0984
189696.9223
190043.1721
190353.9775
190630.4582
190876.5063
191093.8143
191284.8647
191453.3788
191601.5293
191731.3446
191845.4489
191945.4654
192032.8416
192109.2648
192175.8508
192233.6084
192283.5168
192326.4569
192363.1427
192394.2034
192420.1886
192441.6446
192459.0572
192472.8537
192483.4139
192491.0738
192496.1292
192498.8342
192499.4045
192498.0201
192494.7791
192489.5122
192481.851
192473.2771
175526.148
175267.4936
175298.0474
175314.3936
175343.7652
175436.7871
175587.2921
175806.2063
176094.1819
176434.6969
176812.8814
177215.1165
177626.0843
178031.1471
178420.0855
178786.4454
179125.4592
179434.1884
179711.7377
179960.2159
180181.771
180377.7814
180550.8037
180703.8022
180838.596
180957.1439
181061.6144
181153.412
181233.8684
181304.4612
181366.1543
181419.8125
181466.4232
181506.7041
181541.2985
181570.7722
181595.6172
181616.3642
181633.453
181647.2826
181658.2143
181666.5745
181672.6571
181676.72
181678.9839
181679.6269
181678.7454
181676.215
181671.7341
181666.2835
165802.4728
165369.9729
165409.4267
165401.7386
165401.0298
165449.5996
165558.0012
165725.7644
165955.0205
166237.3807
166556.6547
166898.6092
167249.8503
167598.4927
167935.5436
168254.4765
168550.3732
168820.6532
169064.3881
169284.2035
169480.6334
169654.7368
169809.4382
169946.5657
170067.6198
170174.7134
170269.3388
170352.6801
170426.1178
170490.7722
170547.4865
170597.0208
170640.2622
170677.8353
170710.2982
170738.1401
170761.8328
170781.8438
170798.5743
170812.3939
170823.6453
170832.6466
170839.6951
170845.0629
170848.9911
170851.676
170853.2324
170853.5972
170852.5455
170850.5256
156125.1176
155509.9735
155556.1724
155522.6404
155490.0231
155490.8445
155554.286
155668.8224
155838.7261
156057.6304
156314.0005
156593.3729
156883.5752
157174.8839
157458.2356
157727.6616
157978.9006
158209.1527
158418.8436
158608.5685
158778.72
158930.0989
159065.4384
159185.7971
159292.3569
159387.1519
159471.1764
159545.3803
159611.1181
159669.1788
159720.2553
159765.09
159804.393
159838.7019
159868.4914
159894.1717
159916.206
159934.9894
159950.8822
159964.2249
159975.3424
159984.5476
159992.1479
159998.4428
160003.7175
160008.2235
160012.1534
160015.6013
160018.5034
160020.5693
146477.649
145711.2511
145761.0545
145707.6924
145629.8726
145574.5627
145575.0356
145629.3278
145733.2141
145883.629
146070.7008
146282.7507
146508.7884
146739.3281
146966.5924
147185.1904
147390.6739
147580.8682
147756.2541
147915.7221
148059.4409
148188.7534
148304.9723
148408.8343
148501.5302
148584.4792
148658.4146
148724.1183
148782.698
148834.7459
148880.7783
148921.5268
148957.495
148989.1287
149016.8203
149040.9066
149061.8012
149079.8361
149095.3221
149108.5601
149119.8461
149129.4779
149137.766
149145.0378
149151.6349
149157.8938
149164.1313
149170.6603
149177.6706
149184.2274
137337.8112
136180.6409
136164.5427
136068.2217
135932.6961
135823.3147
135758.5563
135748.9986
135781.8162
135856.1121
135965.3805
136100.1464
136251.2168
136410.6365
136571.7365
136729.4871
136879.7568
137021.773
137154.0512
137275.364
137385.4709
137486.0226
137576.9452
137658.6042
137732.3086
137798.6346
137857.9998
137911.2125
137958.9024
138001.4785
138039.2947
138072.959
138102.8187
138129.1958
138152.3678
138172.6472
138190.3408
138205.7139
138219.0209
138230.5147
138240.4523
138249.1046
138256.7722
138263.8002
138270.5878
138277.5935
138285.3993
138294.888
138306.9306
138319.435
126374.1244
125892.3913
126070.5602
125969.4995
125778.1455
125614.3502
125489.2687
125418.9981
125399.5107
125420.6944
125478.5511
125564.9583
125671.2337
125789.6724
125913.5381
126037.4568
126159.1982
126276.4475
126386.9512
126489.3088
126583.8115
126670.9514
126750.4234
126822.3807
126888.0448
126947.5887
127001.237
127049.8859
127093.8256
127133.3569
127168.8589
127200.781
127229.4027
127254.9735
127277.6931
127297.8778
127315.7459
127331.5088
127345.3708
127357.536
127368.214
127377.6316
127386.0537
127393.8081
127401.3095
127409.0861
127417.9197
127429.2306
127444.8481
127462.6038
125569.8323
123137.0586
122470.7106
121772.9803
121021.3101
120308.9759
119650.3591
119060.2078
118547.4662
118106.3706
117732.0721
117420.2697
117164.9724
116958.1967
116792.9604
116663.3782
116564.1084
116488.7939
116432.663
116391.3301
116363.1495
116344.881
116333.7971
116328.608
116328.0351
116330.6628
116335.4783
116342.1033
116349.7856
116357.9314
116366.3822
116374.8558
116383.1323
116391.0364
116398.4363
116405.3413
116411.7113
116417.5388
116422.8397
116427.6531
116432.0416
116436.0963
116439.9551
116443.8226
116447.9874
116452.8729
116459.4417
116470.33
116489.7224
116514.3736
103110.33
103232.5035
103575.8762
103655.6353
103687.796
103743.9314
103823.7714
103921.1309
104031.6318
104150.0327
104268.1552
104383.142
104493.3046
104596.4518
104692.1002
104780.9198
104862.2027
104936.0562
105002.932
105063.1276
105117.9945
105167.6964
105212.444
105253.2386
105290.3131
105323.9521
105354.5229
105382.4453
105407.8833
105430.9772
105452.0431
105471.2129
105488.6182
105504.3664
105518.563
105531.3363
105542.7709
105552.9487
105561.9479
105569.8457
105576.7203
105582.6549
105587.7483
105592.1271
105595.9504
105599.422
105603.0759
105608.9253
105621.5435
105641.7904
)
;

boundaryField
{
    front_top
    {
        type            wedge;
    }
    front_middle
    {
        type            wedge;
    }
    front_bottom
    {
        type            wedge;
    }
    back_top
    {
        type            wedge;
    }
    back_middle
    {
        type            wedge;
    }
    back_bottom
    {
        type            wedge;
    }
    axis_top
    {
        type            symmetryPlane;
    }
    axis_middle
    {
        type            symmetryPlane;
    }
    axis_bottom
    {
        type            symmetryPlane;
    }
    wall_top
    {
        type            fixedFluxPressure;
        gradient        nonuniform 0();
        value           nonuniform 0();
    }
    wall_middle
    {
        type            fixedFluxPressure;
        gradient        nonuniform 0();
        value           nonuniform 0();
    }
    wall_bottom
    {
        type            fixedFluxPressure;
        gradient        uniform 0;
        value           nonuniform List<scalar> 
23
(
343059.9922
332331.4363
321600.5188
310866.7867
300129.795
289389.0734
278644.1702
267894.5901
257139.8675
246379.4634
235612.8943
224839.5399
214058.9452
203270.2515
192473.2771
181666.2835
170850.5256
160020.5693
149184.2274
138319.435
127462.6038
116514.3736
105641.7904
)
;
    }
    inlet
    {
        type            zeroGradient;
    }
    outlet
    {
        type            fixedValue;
        value           uniform 100000;
    }
    procBoundary0to1
    {
        type            processor;
        value           nonuniform List<scalar> 
51
(
344823.4161
346579.3078
346521.9612
346781.4909
347258.0512
347861.4311
348567.8935
349385.3713
350309.8743
351323.5807
352405.7098
353529.3128
354663.0115
355774.3462
356835.1881
357822.7778
358722.9206
348945.2719
348945.2719
349646.4412
350264.0064
350805.693
351280.1393
351694.3871
352056.4976
352372.2203
352647.2064
352886.3658
353093.4516
353272.3135
353425.7898
353556.567
353667.0275
353759.1601
353834.9117
353895.9602
353943.7771
353979.6706
354004.9283
354020.6639
354027.8752
354027.4604
354020.2253
354006.8882
353988.0923
353964.4439
353936.5477
353904.8332
353868.8413
353827.4419
353786.6326
)
;
    }
}


// ************************************************************************* //
