/*--------------------------------*- C++ -*----------------------------------*\
  =========                 |
  \\      /  F ield         | OpenFOAM: The Open Source CFD Toolbox
   \\    /   O peration     | Website:  https://openfoam.org
    \\  /    A nd           | Version:  7
     \\/     M anipulation  |
\*---------------------------------------------------------------------------*/
FoamFile
{
    version     2.0;
    format      ascii;
    class       volScalarField;
    location    "0.0003";
    object      T;
}
// * * * * * * * * * * * * * * * * * * * * * * * * * * * * * * * * * * * * * //

dimensions      [0 0 0 1 0 0 0];

internalField   nonuniform List<scalar> 
1167
(
459.413409
459.52469
459.7632312
460.1156943
460.5740212
461.1318565
461.7823058
462.5196038
463.3377401
464.2309192
465.1936085
466.2203004
467.30566
468.4445173
469.6318356
470.8626918
472.1322528
459.5940475
459.7052809
459.9437157
460.2958498
460.7538971
461.3112297
461.9612364
462.697807
463.5150748
464.4072484
465.3687422
466.3940326
467.477768
468.614758
469.7999467
471.0283933
472.2950996
473.5952453
474.9243724
476.2778626
477.651103
479.0400754
480.4404095
481.8481824
483.2595952
484.6708017
486.0786489
487.4795662
488.8707047
490.2492349
491.6123657
492.9578956
494.28355
495.5873697
496.8678438
498.1234747
499.3527132
500.5547844
501.7288099
502.8741357
503.9902934
505.0770307
506.1341784
507.1617939
508.1600923
509.1295292
510.0704729
510.9836511
511.8696919
512.729473
459.7745409
459.8857208
460.1240363
460.4757847
460.9335646
461.4903449
462.1398934
462.8756948
463.6920477
464.5831643
465.5434066
466.5672359
467.6492857
468.7843455
469.9673411
471.1932723
472.4570896
473.7541745
475.0799373
476.4296106
477.798892
479.1835781
480.5793033
481.982325
483.3886306
484.7946723
486.1971355
487.5925172
488.9780813
490.3508691
491.7083178
493.0481358
494.3680134
495.6661766
496.9410465
498.1910981
499.4148653
500.6115839
501.7803639
502.9205567
504.0317019
505.1135507
506.165918
507.1888843
508.1826794
509.1477563
510.0844399
510.9934816
511.8755037
512.7313828
459.9548815
460.0660017
460.3040159
460.6555282
461.1130155
461.6692131
462.3180908
463.0532576
463.8686488
464.7586569
465.7175919
466.7399013
467.8202047
468.9532724
470.1340128
471.3572483
472.6182397
473.912211
475.234483
476.5803813
477.9456738
479.3259499
480.717147
482.115414
483.5166188
484.917509
486.3145466
487.7044904
489.0845143
490.4516007
491.8034118
493.1375659
494.4517178
495.7442761
497.013594
498.2580918
499.4764655
500.6678814
501.8314644
502.9665711
504.0727489
505.1497528
506.1973668
507.2157408
508.2050718
509.1658091
510.0982864
511.0032272
511.8812653
512.7332761
460.1350616
460.2460106
460.4837871
460.8350714
461.2920853
461.847826
462.4959849
463.2303978
464.0448692
464.9337167
465.891289
466.9120201
467.9905164
469.1215295
470.2998077
471.5204415
472.7785504
474.069357
475.3880283
476.7301807
478.0914546
479.4672988
480.853954
482.2473671
483.6435734
485.0393264
486.430962
487.8154969
489.1899788
490.5514419
491.8976574
493.2261254
494.5346737
495.821676
497.0854919
498.3244868
499.5375168
500.7236788
501.8821123
503.0121792
504.1134346
505.1856012
506.2285398
507.2423623
508.2272683
509.1837017
510.1120119
511.0128876
511.8869766
512.7351528
460.3148923
460.4257527
460.6633698
461.014406
461.4708812
462.0261745
462.6735764
463.4070889
464.2206297
465.1083351
466.0644894
467.0835843
468.1602032
469.2889739
470.464856
471.682849
472.9380215
474.2255393
475.5406421
476.8790105
478.2361523
479.6076383
480.9897378
482.3782603
483.7695079
485.1601278
486.5463938
487.9255473
489.2944633
490.6504045
491.9910657
493.313883
494.6168874
495.8983822
497.1567384
498.3902866
499.5980214
500.7789775
501.9323085
503.0573812
504.1537549
505.221131
506.2594364
507.2687478
508.2492682
509.2014357
510.1256156
511.0224623
511.892637
512.7370128
460.4945302
460.605312
460.842756
461.1934764
461.6494354
462.2041927
462.8508572
463.5834279
464.3958866
465.2823647
466.2370926
467.2544776
468.3291061
469.4557128
470.6291705
471.8444682
473.0966529
474.3807557
475.6923275
477.0268761
478.3798045
479.7469785
481.1245104
482.5081404
483.8944351
485.2798284
486.6608543
488.0346544
489.3980392
490.7484972
492.0836459
493.4008576
494.6983646
495.9743993
497.2272819
498.4554939
499.6579812
500.8337784
501.982053
503.1021768
504.1936781
505.2563417
506.2900555
507.2948963
508.2710705
509.2190103
510.139097
511.0319507
511.8982465
512.738856
460.6739835
460.7846802
461.0219369
461.372174
461.8277402
462.3817998
463.0278191
463.7594061
464.570736
465.455892
466.4090931
467.4247338
468.4973859
469.6217709
470.7927478
472.0052959
473.2543415
474.5350905
475.843091
477.1737643
478.5224791
479.8853262
481.2581801
482.6370187
484.018367
485.3985486
486.7743553
488.1428292
489.5007167
490.8457287
492.1753796
493.4870556
494.7791102
496.0497311
497.2971878
498.5201105
499.7173972
500.8880818
502.0313459
503.1465655
504.2332385
505.2912323
506.3203961
507.3208068
508.2926741
509.2364247
510.152453
511.0413525
511.9038047
512.7406823
460.853244
460.963849
461.2008489
461.5506394
462.0057871
462.5591168
463.2043942
463.9350156
464.7451698
465.6289533
466.5805742
467.5944165
468.6650372
469.7871446
470.9555858
472.1653158
473.4111406
474.6885484
475.9929413
477.3195907
478.664182
480.0226887
481.3908346
482.7649056
484.1413146
485.5162996
486.8869078
488.2499844
489.6025049
490.9421068
492.2662328
493.5724826
494.8591288
496.1243811
497.3664582
498.584138
499.7762701
500.941888
502.0801865
503.1905055
504.272435
505.3258014
506.3504568
507.3464781
508.314078
509.2536778
510.1656749
511.050667
511.9093112
512.7424917
461.0323032
461.1428097
461.3793999
461.7288648
462.1835322
462.7361345
463.3805009
464.1102493
464.9191809
465.8015417
466.7515302
467.7635205
468.8320553
469.9518308
471.1176836
472.3243963
473.5671055
474.8411321
476.141882
477.4644781
478.8049225
480.1590653
481.5225072
482.8918112
484.2631822
485.6330916
486.9985217
488.356221
489.703412
491.0376389
492.3562791
493.6571436
494.9384241
496.1983051
497.4350951
498.6475773
499.8346001
500.9951963
502.1285741
503.2340335
504.311266
505.3600476
506.3802362
507.3719086
508.3352808
509.2707686
510.1787722
511.0598937
511.9147657
512.7442839
461.2110853
461.3213666
461.5577226
461.9068422
462.3608519
462.9128457
463.5562649
464.2849641
465.0927622
465.9736512
466.9219558
467.9320412
468.9984368
470.1158275
471.2789124
472.4826884
473.7222373
474.9928418
476.2897727
477.6084349
478.9447078
480.2943449
481.6532102
483.0177462
484.3840791
485.7489347
487.1092064
488.4615544
489.803446
491.1323317
492.445524
493.7410428
495.0169995
496.271528
497.5030995
498.7104286
499.8923866
501.0480054
502.1764806
503.277152
504.3497303
505.3939694
506.4097326
507.3970969
508.3562812
509.287696
510.1917441
511.0690318
511.9201679
512.7460589
461.3895211
461.4996926
461.7358092
462.0845634
462.5378896
463.089243
463.7316789
464.4592483
465.2657859
466.1452756
467.0918455
468.0999736
469.1641622
470.2790043
471.4393709
472.6401941
473.8765389
475.1436825
476.4367556
477.7514668
479.0835476
480.4286678
481.7829515
483.1427202
484.504023
485.8638381
487.2189033
488.5659927
489.9026138
491.2261203
492.5339725
493.8241842
495.0948575
496.3440762
497.5704722
498.7726916
499.9496287
501.1003139
502.2239099
503.3198591
504.3878259
505.4275647
506.4389441
507.4220411
508.3770776
509.3044585
510.2045894
511.0780807
511.9255172
512.7478165
461.567732
461.6777877
461.9136517
462.261903
462.7146365
463.2651929
463.9067363
464.6331346
465.438307
466.3162343
467.2610784
468.2671932
469.3290942
470.4414556
471.599091
472.7969152
474.030014
475.2935242
476.5828453
477.8935815
479.2213859
480.5620397
481.9117358
483.2666269
484.6230251
485.9778117
487.3276494
488.6695434
490.0009218
491.3190651
492.6216283
493.9065702
495.1719789
496.4159512
497.6372135
498.8343661
500.0063253
501.1521183
502.2708814
503.3621516
504.42555
505.4608307
506.4678682
507.4467389
508.3976679
509.3210545
510.2173068
511.0870393
511.930813
512.7495566
461.7457107
461.8556443
462.0912421
462.4389021
462.8910853
463.440748
464.0814302
464.8066165
465.6103789
466.4866911
467.4297062
468.4337678
469.4933826
470.6032149
471.7580727
472.952854
474.1826341
475.4425028
476.7280483
478.0347863
479.3582353
480.694468
482.0395721
483.3895826
484.7410922
486.090863
487.4354918
488.772213
490.0983756
491.4111868
492.7084946
493.9882022
495.2483335
496.4871546
497.7033237
498.8954511
500.0624749
501.2033712
502.3173921
503.4040264
504.462899
505.4937641
506.4965015
507.4711874
508.4180495
509.3374817
510.2298946
511.0959064
511.9360548
512.7512788
461.9234493
462.0332546
462.2684486
462.6156219
463.0672288
463.6159679
464.2556476
464.9796875
465.7819962
466.6566469
467.597786
468.5997464
469.6570263
470.764282
471.9163169
473.1080128
474.3343174
475.5906288
476.8723692
478.1750607
479.4941637
480.8259625
482.1664533
483.5116019
484.8582298
486.2029493
487.5424383
488.874008
490.1949363
491.5024895
492.7945743
494.069083
495.3239755
496.5576848
497.768801
498.9559446
500.1180747
501.2541171
502.3634385
503.4454795
504.4998688
505.5263608
506.5248402
507.4953829
508.4382193
509.3537375
510.2423506
511.1046805
511.9412414
512.7529829
462.1009401
462.2105473
462.4453262
462.7920542
463.2429583
463.7908462
464.4294196
465.1523393
465.953154
466.8260981
467.7653145
468.7651264
469.8200241
470.9246564
472.0738227
473.2622821
474.4851873
475.7379057
477.0158094
478.3143186
479.6291824
480.9565332
482.2922967
483.6326921
484.9744442
486.3140721
487.6484953
488.9749337
490.290603
491.5929765
492.8798699
494.1492139
495.3989047
496.6275404
497.8336432
499.0158432
500.1730976
501.3043517
502.4090156
503.4865056
504.5364542
505.5586156
506.5528793
507.5193209
508.4581731
509.3698185
510.2546722
511.1133597
511.9463718
512.7546685
462.2780409
462.3874561
462.6219288
462.9681915
463.4182785
463.9653763
464.6028085
465.3243915
466.1238475
466.9950408
467.9322888
468.9299058
469.9823747
471.0843379
472.230508
473.415735
474.6352472
475.884339
477.1583696
478.4526853
479.7632958
481.0861874
482.4172187
483.7528609
485.0897433
486.4242926
487.7536667
489.0749943
490.3854291
491.6826501
492.9643826
494.2285185
495.4731197
496.6967187
497.8978464
499.0751426
500.2275299
501.354069
502.4541171
503.5270982
504.5726484
505.5905217
506.5806123
507.5429953
508.4779056
509.3857201
510.2668556
511.1219412
511.9514444
512.7563351
462.4548272
462.5640956
462.7982488
463.1440269
463.593273
464.1395517
464.7758085
465.4960167
466.293922
467.1634573
468.0987065
469.0940829
470.1440776
471.2432349
472.3863813
473.5684167
474.7845015
476.0299368
477.2999397
478.5901648
479.8965082
481.2148701
482.541226
483.8721153
485.2040805
486.5336158
487.857956
489.1741702
490.4794175
491.7715121
493.0481128
494.3070722
495.5466184
496.7652161
497.961406
499.133837
500.2813974
501.4032618
502.4987352
503.5672491
504.6084432
505.6220709
506.6080314
507.5663987
508.4974101
509.4014364
510.2788963
511.1304218
511.9564571
512.757982
462.6313425
462.7404579
462.9742781
463.3193683
463.7679362
464.3132025
464.9484136
465.6672092
466.4634949
467.3311973
468.264447
469.2575477
470.3049789
471.4013794
472.5415251
473.7203309
474.932954
476.1746778
477.4406529
478.7267651
480.0288262
481.3425895
482.664325
483.9904616
485.3174565
486.642046
487.9613656
489.2724178
490.5725713
491.8595634
493.1310597
494.3848734
495.6193966
496.8330272
498.0243146
499.19188
500.3346922
501.4519209
502.5428598
503.6069475
504.6438272
505.653252
506.6351254
507.5895208
508.5166773
509.4169596
510.2907879
511.1387968
511.9614072
512.7596083
462.8075792
462.9165355
463.1500098
463.4943881
463.9422611
464.4864761
465.1206184
465.8379645
466.6325909
467.4984197
468.4295746
469.4203534
470.465229
471.5588382
472.6959432
473.8714816
475.0806082
476.31847
477.5805184
478.8624955
480.1602478
481.4694141
482.7865239
484.1079075
485.4299371
486.7495898
488.063902
489.3698108
490.6648915
491.9468041
493.2131653
494.4619228
495.6914531
496.9001488
498.086568
499.2492902
500.3874071
501.5000384
502.5864821
503.646184
504.6787907
505.6840549
506.6618845
507.6123519
508.5356982
509.4322817
510.3025238
511.1470613
511.9662917
512.7612129
462.9835293
463.0923203
463.3252454
463.669087
464.1162417
464.6593776
465.2922699
466.0082796
466.8012083
467.6651239
468.5941428
469.5825581
470.6248372
471.7156154
472.8496414
474.0218766
475.2274008
476.4614471
477.7195449
478.9973655
480.2906724
481.5953586
482.907836
484.2243957
485.5415344
486.8562582
488.1655602
489.4663578
490.7563851
492.0332403
493.2944756
494.5382229
495.7627893
496.966581
498.1481648
499.306079
500.4395366
501.5476077
502.6295945
503.6849502
504.7133246
505.7144702
506.6882991
507.6348829
508.5544642
509.4473953
510.314098
511.1552053
511.9711081
512.7627952
463.1591751
463.267677
463.5001712
463.8434593
464.2897336
464.8319034
465.4634844
466.1781245
466.9693487
467.8313129
468.7581568
469.7441692
470.783813
471.8717224
473.0026336
474.1715107
475.3733589
476.6036291
477.8577542
479.1314003
480.4202507
481.7204493
483.0282902
484.3399878
485.6522795
486.9620837
488.2663052
489.5620923
490.8470864
492.1189076
493.3750442
494.6138099
495.8334432
497.0323634
498.2090864
499.362289
500.4911246
501.5946738
502.6722427
503.7232914
504.747473
505.7445392
506.7144063
507.6571451
508.5730001
509.4623177
510.3255213
511.1632371
511.9758586
512.7643555
463.3343599
463.4426868
463.6748026
464.0175209
464.4628598
465.0040716
465.6343119
466.3474025
467.1370349
467.9970117
468.9216438
469.9052168
470.9421895
472.0271962
473.1549564
474.3203266
475.5186023
476.7450785
477.9952196
479.2645796
480.549074
481.8447929
483.1480106
484.454866
485.7623366
487.0672529
488.3664324
489.657252
490.9372606
492.2040444
493.4551921
494.6890321
495.9037881
497.0978914
498.2698033
499.4183426
500.5425958
501.6416542
502.7148265
503.7615786
504.7815664
505.7745424
506.7404294
507.6793012
508.5914097
509.4771018
510.3368077
511.1711511
511.9805289
512.7658874
463.5527132
463.660818
463.8924524
464.2343609
464.6785983
465.218519
465.8471303
466.5582551
467.3456659
468.2032797
469.1251694
470.1056593
471.1392589
472.2205272
473.3442073
474.5053422
475.6991091
476.9207968
478.1658908
479.4298312
480.7088323
481.9988735
483.2960844
484.5969342
485.8982596
487.1968861
488.4896592
489.7741
491.0476884
492.3079314
493.5526578
494.7801003
495.9885056
497.1762978
498.3419548
499.484395
500.602659
501.6958609
502.7633246
503.8045376
504.8191764
505.8070133
506.7679988
507.7022309
508.6099881
509.4916328
510.3476106
511.1785395
511.9847991
512.7672697
)
;

boundaryField
{
    front_top
    {
        type            wedge;
    }
    front_middle
    {
        type            wedge;
    }
    front_bottom
    {
        type            wedge;
    }
    back_top
    {
        type            wedge;
    }
    back_middle
    {
        type            wedge;
    }
    back_bottom
    {
        type            wedge;
    }
    axis_top
    {
        type            symmetryPlane;
    }
    axis_middle
    {
        type            symmetryPlane;
    }
    axis_bottom
    {
        type            symmetryPlane;
    }
    wall_top
    {
        type            convectiveRadiativeHeatFlux;
        mode            convectiveRadiative;
        kappaMethod     fluidThermo;
        kappa           none;
        alphaAni        Anialpha;
        h               nonuniform 0();
        Ta              constant 513.15;
        emissivityNozzle 0.95;
        emissivityFilament 0.95;
        dNozzle         2;
        dFilament       1.65;
        refValue        nonuniform 0();
        refGradient     nonuniform 0();
        valueFraction   nonuniform 0();
        value           nonuniform 0();
    }
    wall_middle
    {
        type            fixedValue;
        value           nonuniform 0();
    }
    wall_bottom
    {
        type            fixedValue;
        value           uniform 513.15;
    }
    inlet
    {
        type            fixedValue;
        value           nonuniform 0();
    }
    outlet
    {
        type            zeroGradient;
    }
    procBoundary0to1
    {
        type            processor;
        value           nonuniform List<scalar> 
51
(
459.2326329
459.3439557
459.5825907
459.935204
460.393945
460.9520771
461.6031114
462.3410947
463.1600541
464.0540922
465.0178778
466.0459399
467.1329531
468.2736323
469.4630144
470.6962155
471.9684185
473.4354221
473.4354221
474.7678636
476.1251052
477.5022976
478.8954989
480.3004552
481.7129731
483.1294792
484.5458842
485.9590934
487.3656213
488.7623693
490.1466806
491.5155427
492.8668342
494.198318
495.5078474
496.7939792
498.0552014
499.2900057
500.4974805
501.6768011
502.8273075
503.9485233
505.0401929
506.1021478
507.1344535
508.1372986
509.1111457
510.0563861
510.9737363
511.8638301
512.7275468
)
;
    }
}


// ************************************************************************* //
