/*--------------------------------*- C++ -*----------------------------------*\
  =========                 |
  \\      /  F ield         | OpenFOAM: The Open Source CFD Toolbox
   \\    /   O peration     | Website:  https://openfoam.org
    \\  /    A nd           | Version:  7
     \\/     M anipulation  |
\*---------------------------------------------------------------------------*/
FoamFile
{
    version     2.0;
    format      ascii;
    class       volScalarField;
    location    "0.0003";
    object      thermo:alpha;
}
// * * * * * * * * * * * * * * * * * * * * * * * * * * * * * * * * * * * * * //

dimensions      [1 -1 -1 0 0 0 0];

internalField   nonuniform List<scalar> 
1167
(
0.0001187882044
0.0001187758194
0.0001187492776
0.0001187100763
0.0001186591297
0.000118597166
0.0001185190805
0.0001184304633
0.0001183304883
0.0001182150679
0.0001180908263
0.0001179585087
0.0001178173904
0.0001176604924
0.0001174971829
0.0001173215667
0.0001171357957
0.0001187681013
0.0001187557248
0.0001187292015
0.0001186900467
0.000118639144
0.000118575748
0.0001184975661
0.0001184090584
0.0001183075609
0.0001181922989
0.0001180682421
0.0001179361373
0.0001177936635
0.0001176370601
0.0001174740819
0.0001172973015
0.0001171119905
0.0001169180091
0.000116711991
0.0001165014063
0.0001162813061
0.0001160508367
0.000115818875
0.0001155768895
0.0001153337434
0.0001150791609
0.0001148256771
0.0001145617506
0.0001142995208
0.0001140301127
0.0001137616927
0.0001134972301
0.0001132268164
0.0001129556303
0.0001126820264
0.0001124141953
0.0001121505965
0.0001118841384
0.000111624318
0.0001113646862
0.0001111083382
0.0001108591207
0.0001106170418
0.0001103729149
0.0001101358487
0.0001098972827
0.000109666028
0.0001094418787
0.0001092246553
0.0001090089016
0.0001187480194
0.000118735652
0.0001187091487
0.0001186700467
0.0001186191865
0.0001185541972
0.00011847609
0.0001183876968
0.0001182846859
0.0001181695889
0.0001180457239
0.0001179138394
0.0001177700236
0.0001176137232
0.0001174510848
0.0001172731623
0.0001170883159
0.0001168933547
0.0001166879029
0.0001164765529
0.0001162585092
0.0001160264105
0.0001157949792
0.000115553856
0.0001153104448
0.0001150568381
0.0001148039338
0.0001145404406
0.0001142793011
0.0001140100822
0.0001137428172
0.0001134795109
0.0001132094922
0.0001129387775
0.0001126663994
0.000112399784
0.0001121368088
0.0001118715586
0.0001116129183
0.0001113540169
0.0001110988354
0.0001108507521
0.000110609635
0.00011036648
0.0001101302867
0.0001098928002
0.0001096625975
0.0001094394672
0.0001092232313
0.000109008417
0.0001187279597
0.000118715602
0.0001186891389
0.000118650073
0.0001185992581
0.0001185326815
0.0001184546744
0.0001183663794
0.0001182618647
0.0001181469391
0.0001180232729
0.000117891616
0.0001177464718
0.0001175904827
0.0001174281923
0.0001172491608
0.0001170647694
0.0001168688441
0.0001166639777
0.0001164518646
0.0001162358722
0.0001160031861
0.0001157712687
0.0001155310076
0.0001152873393
0.0001150347055
0.0001147817433
0.0001145193184
0.0001142592621
0.0001139902323
0.000113724113
0.0001134619529
0.0001131923256
0.0001129220778
0.0001126509137
0.0001123855082
0.0001121231447
0.0001118590911
0.0001116016196
0.0001113434418
0.0001110894161
0.0001108424567
0.0001106021548
0.0001103601009
0.0001101247729
0.0001098883607
0.0001096591968
0.0001094370766
0.0001092218196
0.0001090079366
0.0001187079228
0.0001186955873
0.0001186691573
0.0001186301265
0.0001185780517
0.0001185112018
0.0001184333007
0.0001183443693
0.0001182390982
0.0001181243507
0.0001180008903
0.0001178694684
0.0001177230093
0.0001175673398
0.0001174040369
0.0001172252792
0.0001170413507
0.000116844477
0.0001166402125
0.0001164273405
0.0001162133941
0.0001159801331
0.000115747741
0.0001155083583
0.0001152644245
0.0001150127603
0.0001147597445
0.0001144983817
0.0001142390425
0.0001139705605
0.0001137055781
0.0001134438735
0.0001131753145
0.0001129055294
0.0001126355683
0.0001123713612
0.0001121096035
0.0001118467352
0.0001115904217
0.0001113329606
0.0001110800802
0.0001108342429
0.0001105947404
0.0001103537778
0.0001101193074
0.0001098839607
0.0001096558258
0.0001094347069
0.0001092204203
0.0001090074604
0.0001186879299
0.0001186756073
0.0001186492017
0.0001186102083
0.0001185565388
0.0001184897594
0.0001184119686
0.0001183215216
0.0001182163968
0.0001181018247
0.0001179785771
0.0001178473974
0.0001176996384
0.000117544314
0.0001173798484
0.0001172015181
0.0001170180599
0.0001168202645
0.0001166165965
0.0001164029801
0.0001161894993
0.0001159572491
0.0001157243936
0.000115485895
0.0001152416977
0.0001149910017
0.0001147379351
0.0001144776285
0.0001142184203
0.0001139510645
0.0001136872102
0.0001134258476
0.0001131584575
0.000112889131
0.0001126203633
0.0001123573424
0.0001120961846
0.0001118344907
0.0001115793245
0.0001113225735
0.0001110708286
0.0001108261024
0.0001105873921
0.000110347511
0.0001101138905
0.0001098795999
0.0001096524847
0.0001094323582
0.0001092190334
0.0001090069885
0.0001186679634
0.0001186556527
0.0001186292729
0.0001185899188
0.0001185350602
0.000118468362
0.0001183906791
0.0001182987251
0.0001181937659
0.0001180793802
0.0001179563462
0.0001178244475
0.000117676381
0.0001175213906
0.000117355773
0.0001171778776
0.0001169948968
0.0001167962071
0.000116593129
0.0001163787826
0.0001161647105
0.0001159345326
0.0001157012245
0.0001154636097
0.0001152191566
0.0001149694449
0.0001147163126
0.0001144570563
0.0001141979803
0.0001139317425
0.0001136690075
0.0001134079846
0.0001131417534
0.0001128728817
0.0001126053099
0.000112343451
0.0001120828877
0.0001118223573
0.0001115683279
0.0001113122803
0.0001110616687
0.0001108180353
0.0001105801101
0.0001103413007
0.0001101085225
0.0001098752783
0.0001096491738
0.0001094300308
0.0001092176591
0.0001090065208
0.0001186480224
0.0001186357242
0.0001186093719
0.0001185684147
0.0001185136171
0.0001184470193
0.0001183694331
0.0001182759809
0.0001181711932
0.0001180570058
0.0001179341982
0.0001178009742
0.0001176532149
0.0001174985661
0.000117331811
0.0001171543581
0.0001169709113
0.0001167722913
0.0001165698091
0.0001163549691
0.0001161400953
0.0001159119821
0.0001156782492
0.0001154415001
0.000115196799
0.0001149480682
0.0001146948747
0.0001144366629
0.0001141777205
0.0001139125928
0.0001136509735
0.0001133902833
0.0001131252011
0.0001128567805
0.0001125903939
0.0001123296867
0.0001120697124
0.000111810335
0.0001115574319
0.0001113020813
0.0001110525925
0.0001108100421
0.0001105728946
0.0001103351471
0.0001101032035
0.0001098709962
0.0001096458937
0.0001094277246
0.0001092162973
0.0001090060574
0.0001186281079
0.000118615823
0.0001185890315
0.0001185469439
0.0001184922102
0.0001184257167
0.0001183477322
0.0001182532899
0.0001181486796
0.000118034697
0.0001179121224
0.0001177775854
0.0001176301406
0.0001174758409
0.0001173079627
0.000117130962
0.0001169465758
0.0001167485166
0.0001165466353
0.00011633246
0.0001161156525
0.0001158895965
0.0001156554525
0.0001154195645
0.0001151746226
0.0001149268695
0.0001146736193
0.0001144164647
0.0001141576389
0.0001138936136
0.0001136331148
0.0001133727423
0.0001131087996
0.0001128408267
0.000112575615
0.000112316049
0.0001120566586
0.0001117984236
0.0001115466366
0.000111291986
0.0001110436003
0.0001108021228
0.000110565746
0.0001103290506
0.0001100979338
0.0001098667539
0.0001096426467
0.0001094254399
0.0001092149482
0.0001090055984
0.0001186082207
0.0001185959498
0.0001185675452
0.0001185255073
0.000118470845
0.0001184044554
0.0001183249593
0.000118230653
0.0001181262261
0.0001180124545
0.0001178901195
0.000117754282
0.0001176071589
0.0001174532154
0.0001172842282
0.0001171077084
0.0001169223749
0.0001167248823
0.0001165236069
0.0001163101003
0.0001160913805
0.0001158672923
0.0001156328288
0.0001153978011
0.0001151526448
0.0001149058468
0.0001146525444
0.0001143964426
0.000114137734
0.0001138748034
0.0001136154169
0.0001133553607
0.0001130925481
0.0001128250296
0.0001125609725
0.0001123025379
0.0001120437262
0.0001117866233
0.0001115359421
0.0001112819859
0.0001110346924
0.0001107942779
0.0001105586645
0.0001103230115
0.0001100927138
0.0001098625516
0.0001096394303
0.0001094231767
0.0001092136118
0.0001090051436
0.0001185877995
0.0001185745282
0.0001185460918
0.0001185041059
0.0001184495363
0.0001183832362
0.0001183022363
0.0001182080886
0.0001181038334
0.000117990279
0.0001178681901
0.0001177310644
0.00011758427
0.0001174306898
0.0001172606263
0.0001170845752
0.0001168983086
0.0001167013884
0.0001164994555
0.0001162878887
0.0001160672778
0.0001158440093
0.0001156103757
0.0001153762078
0.0001151308457
0.0001148849983
0.0001146316481
0.0001143765936
0.000114118004
0.000113856161
0.0001135978787
0.0001133381374
0.000113076446
0.000112809384
0.0001125464664
0.0001122891531
0.0001120309153
0.0001117749343
0.0001115251145
0.0001112720805
0.0001110258691
0.0001107865076
0.0001105516506
0.0001103170301
0.0001100875438
0.0001098583896
0.0001096362447
0.0001094209353
0.0001092122883
0.0001090046933
0.0001185663275
0.0001185530726
0.0001185246721
0.0001184827406
0.0001184282667
0.0001183620598
0.0001182795641
0.0001181855854
0.0001180815181
0.0001179681713
0.0001178463348
0.0001177079332
0.0001175614767
0.0001174070861
0.0001172371424
0.0001170615619
0.0001168743762
0.0001166780339
0.0001164753828
0.0001162658242
0.0001160433428
0.0001158208952
0.0001155880919
0.0001153547831
0.0001151092221
0.0001148643221
0.0001146109414
0.0001143569162
0.0001140984475
0.000113837699
0.0001135804991
0.0001133210716
0.0001130604925
0.000112793884
0.0001125320964
0.0001122758947
0.0001120182261
0.000111763357
0.0001115142031
0.0001112622702
0.0001110171308
0.0001107788125
0.0001105447048
0.0001103111068
0.0001100824241
0.0001098542682
0.0001096330903
0.0001094187158
0.0001092109777
0.0001090042473
0.0001185448878
0.0001185316502
0.0001185032871
0.0001184614265
0.0001184070372
0.0001183398695
0.0001182569436
0.000118163139
0.000118059273
0.0001179461547
0.0001178235374
0.0001176849056
0.0001175387978
0.0001173832775
0.0001172137717
0.0001170386683
0.000116850577
0.0001166548389
0.0001164514612
0.0001162439054
0.0001160202426
0.0001157979491
0.0001155659763
0.0001153324737
0.0001150877717
0.0001148438166
0.0001145904174
0.0001143374087
0.0001140790632
0.0001138194054
0.0001135632774
0.0001133041629
0.0001130444915
0.0001127785294
0.0001125178623
0.0001122627628
0.0001120056589
0.0001117518921
0.0001115033978
0.0001112525557
0.0001110084782
0.0001107711932
0.0001105378276
0.0001103052423
0.0001100773554
0.0001098501878
0.0001096299673
0.0001094165184
0.0001092096803
0.0001090038058
0.0001185234814
0.0001185102618
0.0001184819378
0.0001184401585
0.0001183858488
0.0001183171698
0.0001182343755
0.0001181407502
0.0001180370911
0.0001179242079
0.0001178002887
0.0001176619722
0.0001175162125
0.0001173595756
0.0001171905142
0.0001170158938
0.0001168269155
0.0001166317823
0.0001164276895
0.0001162221313
0.0001159979202
0.0001157751694
0.0001155440274
0.0001153102729
0.0001150664933
0.0001148234801
0.0001145700668
0.00011431807
0.00011405985
0.0001138012761
0.0001135462128
0.0001132874107
0.0001130281538
0.0001127633197
0.0001125037641
0.0001122497574
0.0001119932138
0.00011174055
0.0001114926991
0.0001112429376
0.000110999912
0.0001107636504
0.0001105310197
0.0001102994371
0.0001100723381
0.000109846149
0.0001096268763
0.0001094143436
0.0001092083961
0.0001090033689
0.0001185021092
0.0001184889083
0.0001184606398
0.0001184189294
0.0001183647023
0.0001182945191
0.0001182118745
0.0001181184199
0.0001180149731
0.0001179023308
0.0001177771211
0.0001176391261
0.000117493721
0.0001173359805
0.0001171673698
0.0001169932382
0.0001168034041
0.0001166088624
0.0001164040671
0.0001162000429
0.0001159757521
0.0001157525545
0.0001155222464
0.0001152882449
0.0001150453859
0.0001148028349
0.0001145498884
0.0001142988987
0.0001140408153
0.0001137833103
0.0001135293047
0.0001132708146
0.0001130119702
0.0001127482553
0.0001124898021
0.0001122368791
0.0001119808915
0.0001117293209
0.0001114821079
0.000111233417
0.0001109914333
0.000110756185
0.0001105242822
0.0001102936922
0.0001100673731
0.0001098421525
0.0001096238176
0.0001094121916
0.0001092071254
0.0001090029365
0.0001184807721
0.0001184675983
0.0001184393867
0.0001183977401
0.0001183427449
0.000118271918
0.0001181894364
0.000118096149
0.0001179929197
0.0001178805239
0.0001177540348
0.0001176163677
0.0001174713234
0.000117312492
0.0001171443384
0.0001169696788
0.0001167800238
0.0001165860785
0.0001163805934
0.0001161760102
0.0001159537365
0.0001157301026
0.0001155006472
0.0001152663883
0.0001150244483
0.000114781833
0.0001145298807
0.0001142798938
0.0001140219594
0.0001137655072
0.0001135125526
0.0001132543741
0.0001129959408
0.0001127333365
0.0001124759768
0.0001122241284
0.000111968698
0.0001117182057
0.0001114716253
0.000111223995
0.0001109830431
0.0001107487983
0.0001105176162
0.0001102880087
0.0001100624614
0.000109838199
0.000109620792
0.0001094100628
0.0001092058685
0.0001090025088
0.0001184594871
0.0001184463396
0.0001184181719
0.0001183765914
0.0001183200749
0.0001182493674
0.0001181670533
0.0001180739608
0.0001179709313
0.0001178587875
0.0001177310302
0.0001175936971
0.0001174490197
0.0001172891103
0.0001171214319
0.0001169458628
0.0001167567738
0.0001165634298
0.0001163573456
0.000116152136
0.0001159318726
0.0001157078123
0.00011547921
0.0001152447017
0.0001150036788
0.0001147610047
0.0001145100429
0.0001142610544
0.0001140032716
0.0001137478662
0.0001134959562
0.000113238105
0.0001129800658
0.0001127185637
0.0001124622889
0.0001122115064
0.0001119566362
0.0001117072057
0.0001114612527
0.000111214673
0.0001109747431
0.0001107414917
0.0001105110232
0.0001102823879
0.0001100576044
0.0001098342897
0.0001096178003
0.0001094079581
0.0001092046258
0.000109002086
0.0001184382453
0.0001184251187
0.0001183969962
0.0001183554841
0.0001182974525
0.0001182268682
0.0001181447257
0.000118051833
0.0001179490278
0.0001178369989
0.0001177081077
0.0001175711146
0.00011742681
0.0001172658486
0.0001170986492
0.0001169221715
0.0001167336535
0.0001165409148
0.000116335493
0.0001161284194
0.0001159101596
0.0001156856929
0.0001154579333
0.0001152231836
0.0001149830858
0.0001147403492
0.0001144903744
0.0001142421629
0.0001139847512
0.0001137303871
0.0001134795154
0.0001132219916
0.0001129643457
0.0001127039376
0.0001124487394
0.0001121990141
0.0001119447006
0.0001116963225
0.0001114509919
0.000111205453
0.000110966535
0.0001107342672
0.000110504505
0.0001102768316
0.0001100528035
0.000109830426
0.0001096148438
0.0001094058781
0.0001092033977
0.0001090016681
0.0001184170412
0.0001184039362
0.0001183758607
0.0001183328639
0.0001182748786
0.0001182044422
0.0001181224546
0.0001180297662
0.0001179271942
0.0001178138695
0.0001176852837
0.0001175486351
0.000117403279
0.0001172427021
0.0001170759779
0.0001168986043
0.0001167106621
0.0001165183091
0.0001163137768
0.0001161048589
0.0001158885964
0.000115663743
0.0001154368161
0.0001152018328
0.0001149626692
0.0001147198654
0.0001144708746
0.0001142227712
0.0001139663977
0.0001137130696
0.0001134632302
0.0001132060343
0.0001129487812
0.0001126894595
0.0001124353298
0.0001121862809
0.0001119328926
0.0001116855581
0.0001114408453
0.0001111963374
0.0001109584216
0.0001107271272
0.0001104980644
0.0001102713423
0.0001100480612
0.0001098266099
0.0001096119239
0.0001094038241
0.000109202185
0.0001090012555
0.0001183958758
0.0001183827932
0.000118354766
0.0001183102352
0.0001182523538
0.0001181820703
0.0001181002404
0.0001180077611
0.0001179054271
0.0001177908168
0.0001176625494
0.0001175262514
0.0001173797938
0.0001172196611
0.0001170534176
0.0001168751605
0.000116687799
0.0001164947551
0.0001162921957
0.0001160814528
0.0001158670888
0.0001156419507
0.0001154158569
0.000115180648
0.000114942417
0.0001146995521
0.0001144515422
0.0001142035507
0.0001139482108
0.0001136959136
0.0001134465358
0.0001131902329
0.0001129333725
0.0001126751299
0.0001124220611
0.0001121735423
0.000111921214
0.0001116749142
0.0001114308147
0.0001111873283
0.0001109504049
0.0001107200742
0.0001104917036
0.0001102659222
0.0001100433797
0.0001098228433
0.0001096090423
0.0001094017972
0.0001092009884
0.0001090008484
0.00011837475
0.0001183616905
0.000118332104
0.0001182876534
0.000118229879
0.0001181597518
0.0001180781029
0.0001179858179
0.0001178837266
0.0001177678409
0.0001176398973
0.0001175039554
0.0001173564078
0.0001171967248
0.0001170309672
0.0001168518387
0.000116665074
0.0001164713393
0.0001162707481
0.0001160581995
0.0001158446413
0.0001156203134
0.0001153950532
0.0001151596392
0.0001149223269
0.0001146794071
0.000114432378
0.0001141844997
0.0001139301889
0.0001136789177
0.0001134298338
0.0001131745868
0.0001129181194
0.0001126609487
0.0001124089334
0.0001121609425
0.0001119096659
0.0001116643923
0.000111420902
0.0001111784277
0.0001109424871
0.0001107131102
0.000110485425
0.0001102605735
0.000110038761
0.0001098191281
0.0001096062005
0.0001093997998
0.0001091998085
0.0001090004469
0.0001183535805
0.0001183395483
0.0001183094876
0.0001182651194
0.0001182074727
0.0001181374872
0.000118056027
0.0001179639405
0.0001178620927
0.0001177449413
0.0001176173267
0.000117481746
0.0001173331197
0.0001171738916
0.0001170086247
0.0001168286398
0.0001166424827
0.0001164480583
0.0001162494308
0.0001160350944
0.0001158223435
0.0001155988265
0.0001153744001
0.0001151387955
0.0001149023933
0.0001146594242
0.0001144133886
0.0001141656115
0.0001139123254
0.0001136620751
0.000113413286
0.0001131590885
0.0001129030137
0.0001126469076
0.0001123959507
0.0001121484722
0.0001118982386
0.0001116539823
0.0001114110965
0.0001111696251
0.0001109346581
0.0001107062258
0.0001104792196
0.0001102552889
0.000110034199
0.0001098154599
0.0001096033957
0.00010939783
0.0001091986447
0.000109000051
0.0001183309254
0.0001183169192
0.0001182869147
0.0001182426311
0.0001181851191
0.0001181152742
0.0001180340063
0.0001179421413
0.0001178405223
0.0001177221146
0.0001175948337
0.000117459619
0.0001173099245
0.0001171511558
0.0001169863389
0.0001168055725
0.0001166200067
0.0001164249018
0.0001162282322
0.0001160131965
0.0001158001796
0.0001155774716
0.0001153538762
0.0001151180837
0.0001148825865
0.0001146395682
0.0001143945183
0.0001141468392
0.0001138945678
0.0001136453387
0.0001133968264
0.0001131436666
0.0001128879754
0.000112632922
0.0001123830127
0.0001121360375
0.000111886838
0.0001116435919
0.0001114013065
0.0001111608354
0.000110926842
0.0001106993567
0.0001104730344
0.0001102500295
0.0001100296683
0.0001098118258
0.0001096006246
0.0001093958891
0.0001091975006
0.0001089996624
0.0001183026954
0.0001182887222
0.0001182587891
0.0001182146234
0.0001181572711
0.0001180876137
0.0001180065801
0.0001179149954
0.0001178118747
0.0001176937064
0.0001175668392
0.0001174320863
0.0001172810696
0.0001171228909
0.0001169569633
0.0001167769007
0.00011659208
0.0001163961415
0.0001162016256
0.0001159862433
0.0001157726988
0.0001155510148
0.0001153271545
0.0001150924743
0.0001148581288
0.0001146150972
0.0001143712981
0.0001141237917
0.0001138728249
0.000113624919
0.0001133768128
0.0001131249981
0.0001128698665
0.0001126161894
0.0001123676395
0.0001121213859
0.0001118735352
0.0001116316042
0.0001113901574
0.0001111509737
0.0001109182202
0.000110691923
0.000110466482
0.0001102445867
0.0001100250961
0.000109808254
0.0001095979723
0.0001093940772
0.0001091964545
0.0001089993117
)
;

boundaryField
{
    front_top
    {
        type            wedge;
    }
    front_middle
    {
        type            wedge;
    }
    front_bottom
    {
        type            wedge;
    }
    back_top
    {
        type            wedge;
    }
    back_middle
    {
        type            wedge;
    }
    back_bottom
    {
        type            wedge;
    }
    axis_top
    {
        type            symmetryPlane;
    }
    axis_middle
    {
        type            symmetryPlane;
    }
    axis_bottom
    {
        type            symmetryPlane;
    }
    wall_top
    {
        type            calculated;
        value           nonuniform 0();
    }
    wall_middle
    {
        type            calculated;
        value           nonuniform 0();
    }
    wall_bottom
    {
        type            calculated;
        value           uniform 0.0001089022317;
    }
    inlet
    {
        type            calculated;
        value           nonuniform 0();
    }
    outlet
    {
        type            calculated;
        value           nonuniform List<scalar> 
50
(
0.0001183026954
0.0001182887222
0.0001182587891
0.0001182146234
0.0001181572711
0.0001180876137
0.0001180065801
0.0001179149954
0.0001178118747
0.0001176937064
0.0001175668392
0.0001174320863
0.0001172810696
0.0001171228909
0.0001169569633
0.0001167769007
0.00011659208
0.0001163961415
0.0001162016256
0.0001159862433
0.0001157726988
0.0001155510148
0.0001153271545
0.0001150924743
0.0001148581288
0.0001146150972
0.0001143712981
0.0001141237917
0.0001138728249
0.000113624919
0.0001133768128
0.0001131249981
0.0001128698665
0.0001126161894
0.0001123676395
0.0001121213859
0.0001118735352
0.0001116316042
0.0001113901574
0.0001111509737
0.0001109182202
0.000110691923
0.000110466482
0.0001102445867
0.0001100250961
0.000109808254
0.0001095979723
0.0001093940772
0.0001091964545
0.0001089993117
)
;
    }
    procBoundary0to1
    {
        type            processor;
        value           nonuniform List<scalar> 
51
(
0.0001188083279
0.0001187959351
0.0001187693762
0.0001187301482
0.0001186791427
0.0001186171304
0.0001185406321
0.0001184519102
0.0001183534669
0.0001182379068
0.0001181134931
0.0001179809665
0.0001178410473
0.000117684019
0.0001175203869
0.0001173459511
0.0001171597506
0.0001169428077
0.0001169428077
0.0001167362305
0.0001165262006
0.0001163042646
0.0001160757622
0.0001158429577
0.0001156001106
0.0001153570529
0.0001151016761
0.000114847184
0.0001145832515
0.000114319924
0.0001140503275
0.000113780742
0.0001135151127
0.0001132443003
0.000112972638
0.0001126977963
0.0001124287465
0.0001121645086
0.0001118968308
0.0001116358191
0.0001113754497
0.0001111179245
0.0001108675626
0.0001106243714
0.0001103794095
0.000110141347
0.0001099018037
0.0001096694879
0.0001094443109
0.0001092260915
0.0001090093903
)
;
    }
}


// ************************************************************************* //
