/*--------------------------------*- C++ -*----------------------------------*\
  =========                 |
  \\      /  F ield         | OpenFOAM: The Open Source CFD Toolbox
   \\    /   O peration     | Website:  https://openfoam.org
    \\  /    A nd           | Version:  7
     \\/     M anipulation  |
\*---------------------------------------------------------------------------*/
FoamFile
{
    version     2.0;
    format      ascii;
    class       volScalarField;
    location    "0.0003";
    object      thermo:mu;
}
// * * * * * * * * * * * * * * * * * * * * * * * * * * * * * * * * * * * * * //

dimensions      [1 -1 -1 0 0 0 0];

internalField   nonuniform List<scalar> 
1167
(
45951.19825
45579.20392
44793.71372
43662.15703
42240.84313
40584.06631
38748.30538
36784.96396
34742.64411
32664.54189
30587.67603
28543.16514
26555.95902
24645.23103
22824.97768
21104.67922
19489.99281
45349.15197
44983.0578
44210.00958
43096.83711
41698.0202
40067.73603
38260.65976
36328.25388
34317.85648
32271.9081
30226.9112
28213.4817
26256.17695
24373.8859
22580.40765
20885.10014
19293.7393
17808.81989
16430.03733
15155.43867
13981.65347
12903.84885
11916.89431
11014.99733
10192.21245
9442.695454
8760.447133
8139.992429
7575.885113
7063.095803
6596.995616
6173.176015
5787.679169
5436.852074
5117.310099
4826.03393
4560.342849
4317.693048
4095.853926
3892.808823
3706.741615
3536.011611
3379.155426
3234.846115
3101.888588
2979.194647
2865.810915
2760.849942
2663.534853
2573.148095
44756.87088
44396.58585
43635.78771
42540.82327
41164.03995
39559.88447
37780.99095
35879.03593
33900.06028
31885.76259
29872.13589
27889.29924
25961.42201
24107.11405
22339.98062
20669.31418
19100.85873
17636.84574
16277.1678
15020.06221
13861.95503
12798.29279
11824.04725
10933.43096
10120.7601
9380.143875
8705.798911
8092.328679
7534.350663
7026.987832
6565.620155
6145.958558
5764.128749
5416.492669
5099.747177
4810.93175
4547.392388
4306.625212
4086.437978
3884.843883
3700.052154
3530.444714
3374.580431
3231.146015
3098.959428
2976.945972
2864.168609
2759.746241
2662.910732
2572.951606
44174.19442
43819.62905
43071.41783
41993.8457
40638.75616
39060.31566
37309.63171
35437.1872
33489.14063
31505.99816
29523.24929
27570.52308
25671.60631
23844.83396
22103.62029
20457.34669
18911.26245
17467.80631
16126.98595
14886.99325
13744.29
12694.59451
11732.76326
10853.22495
10050.48515
9318.609249
8652.053962
8045.41163
7493.454104
6991.422074
6534.704607
6119.129807
5740.905403
5396.407998
5082.414309
4796.027333
4534.60147
4295.6896
4077.131147
3876.96853
3693.435782
3524.936962
3370.054918
3227.483035
3096.058913
2974.720877
2862.541613
2758.6526
2662.292178
2572.756835
43600.96497
43252.36065
42516.29271
41455.75861
40122.47174
38568.89204
36846.00513
35002.8005
33084.98184
31132.5075
29180.15128
27257.06001
25386.64403
23586.96821
21871.4583
20248.96479
18724.88356
17301.64029
15979.41924
14756.1816
13628.61452
12592.64069
11643.00493
10774.40406
9981.359906
9258.067407
8599.161563
7999.225311
7453.195662
6956.386755
6504.239852
6092.703036
5718.002511
5376.593102
5065.307798
4781.311959
4521.968118
4284.884815
4067.932468
3869.182111
3686.892063
3519.493489
3365.576476
3223.85718
3093.187074
2972.517561
2860.929974
2757.569058
2661.679216
2572.563788
43037.58976
42694.57085
41970.17265
40926.41549
39614.70025
38085.48085
36389.95736
34575.7879
32687.62825
30765.18392
28842.74233
26948.81729
25106.46578
23333.64202
21643.22715
20044.09981
18541.65732
17138.36624
15834.35021
14627.58173
13514.95458
12492.38918
11554.73569
10696.89835
9913.357475
9198.500356
8547.102808
7953.754267
7413.570441
6921.870527
6474.216434
6066.652887
5695.414625
5357.043611
5048.42583
4766.783125
4509.490509
4274.209565
4058.841052
3861.484038
3680.421208
3514.108619
3361.145012
3220.268434
3090.343939
2970.33577
2859.333736
2756.495652
2661.071871
2572.372477
42483.38703
42145.81728
41432.91036
40405.80925
39115.18501
37610.10094
35941.36107
34155.76938
32297.03813
30404.20835
28511.10021
26645.89452
24831.23197
23084.60038
21418.82954
19842.68383
18361.52071
16977.92801
15691.72673
14501.1462
13403.2422
12393.80132
11467.9209
10620.65731
9846.451923
9139.93343
8495.859115
7908.982614
7374.542372
6887.863311
6444.625822
6040.969216
5673.136645
5337.755528
5031.778338
4752.438548
4497.16698
4263.662672
4049.856097
3853.873789
3674.027886
3508.782152
3356.760457
3216.716794
3087.529539
2968.175548
2857.752947
2755.432423
2660.47017
2572.182909
41938.1563
41605.95261
40904.36193
39894.07751
38623.78805
37142.80401
35500.09117
33742.62765
31912.86282
30049.27197
28185.11597
26348.12186
24560.58061
22839.71987
21198.19241
19644.65159
18184.52703
16820.18248
15551.49501
14376.84445
13293.38802
12296.84166
11382.59274
10545.65236
9780.61848
9082.291858
8445.412573
7864.895353
7336.099276
6854.355322
6415.4683
6015.645772
5651.163712
5318.725114
5015.347665
4738.276116
4484.996001
4253.243065
4040.976881
3846.350906
3667.706184
3503.513951
3352.422765
3213.202268
3084.743912
2966.036948
2856.187934
2754.379411
2659.87414
2571.995094
41401.7512
41074.83173
40384.54388
39390.64511
38140.376
36683.11367
35066.17008
33336.24572
31534.99285
29700.18052
27864.51829
26055.28468
24294.42829
22598.92202
20981.24311
19449.95478
18010.55316
16665.07205
15413.60072
14254.70586
13185.35277
12201.47547
11298.66894
10471.8562
9715.833463
9025.555394
8395.746062
7821.517682
7298.229539
6821.33716
6386.749082
5990.676646
5629.491221
5299.948845
4999.131159
4724.29387
4472.976167
4242.949768
4032.202756
3838.921878
3661.455881
3498.303917
3348.131918
3209.724886
3081.987113
2963.920031
2854.639683
2753.336664
2659.28381
2571.809044
40874.02819
40552.31246
39873.54674
38895.37408
37664.91084
36230.90521
34639.64738
32936.50687
31163.31885
29356.83089
27549.20991
25767.29281
24032.69171
22362.12898
20767.90892
19258.68389
17839.47833
16512.54238
15277.99523
14134.58687
13079.09557
12107.6742
11216.10374
10399.24237
9652.129286
8969.704681
8346.843282
7778.798538
7260.922059
6788.799861
6358.439523
5966.056202
5608.114801
5281.4351
4983.12634
4710.489998
4461.106189
4232.781902
4023.533153
3831.579952
3655.276798
3493.151984
3343.887923
3206.2847
3079.259213
2961.824872
2853.107042
2752.304235
2658.699214
2571.624768
40355.03967
40038.78924
39370.81969
38408.12979
37197.56022
35786.05165
34220.07265
32543.60018
30797.73306
29019.12112
27239.09505
25484.05698
23775.28791
22129.26367
20558.28383
19070.58977
17671.2441
16362.54309
15144.76063
14016.44253
12974.57828
12015.48487
11134.86571
10327.7846
9589.431405
8914.721011
8298.68858
7736.72214
7224.166234
6756.734858
6330.532808
5941.779082
5587.030317
5263.17495
4967.330902
4696.862858
4449.384966
4222.738806
4014.972347
3824.324161
3649.168753
3488.058102
3339.690809
3202.881781
3076.560303
2959.751563
2851.59009
2751.282184
2658.120391
2571.442281
39844.81057
39533.59036
38876.22605
37928.77927
36737.78823
35348.42822
33807.32759
32157.19035
30438.37873
28686.95085
26934.07979
25205.49024
23522.15945
21900.42899
20352.16547
18885.60735
17505.79177
16215.02017
15013.7239
13900.23127
12871.76173
11924.78356
11054.92692
10257.45812
9527.714301
8860.586374
8251.295939
7695.276086
7187.951918
6725.157757
6303.022466
5917.840224
5566.233879
5245.159244
4951.7427
4683.410933
4437.811466
4212.819806
4006.518898
3817.154299
3643.13167
3483.022288
3335.540656
3199.51624
3073.890504
2957.700218
2850.088925
2750.270584
2657.547385
2571.261597
39342.82413
39036.55536
38389.63153
37457.50155
36285.47008
34918.21855
33401.29379
31777.07662
30085.01581
28360.553
26634.27555
24931.70212
23273.42675
21675.41204
20149.4434
18703.67301
17343.06312
16070.05096
14884.83037
13785.91084
12770.65583
11835.53996
10976.26197
10188.30302
9466.956335
8807.283024
8204.637982
7654.448433
7152.269435
6694.041987
6275.902427
5894.234995
5545.727492
5227.385116
4936.359674
4670.132778
4426.384698
4203.024616
3998.168649
3810.070348
3637.165617
3478.044675
3331.43763
3196.188259
3071.249991
2955.670994
2848.603676
2749.26953
2656.980253
2571.082736
38848.94348
38547.54914
37910.9038
36994.02654
35840.48074
34495.14514
33001.85614
31403.1497
29737.41624
28039.49994
26339.48505
24662.48499
23028.77644
21454.09067
19950.05061
18524.72464
17183.03498
15927.45549
14758.03399
13673.44051
12671.21993
11747.72339
10898.84359
10120.23517
9407.138727
8754.79455
8158.683642
7614.227818
7117.109595
6663.374725
6249.167036
5870.959161
5525.515946
5209.84979
4921.179865
4657.027057
4415.103799
4193.36128
3989.921416
3803.072334
3631.27075
3473.125484
3327.381985
3192.898093
3068.639004
2953.664098
2847.134509
2748.279144
2656.419069
2570.905722
38363.03445
38066.43877
37440.23968
36538.0434
35402.69557
34078.92559
32609.1387
31035.30174
29395.4773
27723.6839
26049.50909
24397.66912
22788.12932
21236.39203
19753.92066
18348.70142
17025.73921
15787.17859
14633.29151
13562.80238
12573.37497
11661.30247
10822.65481
10053.22865
9348.243739
8703.128103
8113.419332
7574.603233
7082.479228
6633.148932
6222.8107
5848.008197
5505.581822
5192.551206
4906.201735
4644.09273
4403.968152
4183.820449
3981.777169
3796.160416
3625.447344
3468.26506
3323.374089
3189.646101
3066.057869
2951.67981
2845.681645
2747.299582
2655.863926
2570.730584
37884.96537
37593.26179
36977.33305
36089.42792
34972.23973
33669.44158
32222.93663
30673.43105
29059.09731
27413.0085
25764.25797
24137.17149
22551.40833
21022.24575
19560.99079
18175.66847
16870.99561
15649.173
14510.56344
13454.02955
12477.08444
11576.24632
10747.72366
9987.262078
9290.253625
8652.270333
8068.832297
7535.564212
7048.371614
6603.357903
6196.828149
5825.378056
5485.922225
5175.487404
4891.423981
4631.329003
4392.982025
4174.402053
3973.736068
3789.334917
3619.695828
3463.463883
3319.414433
3186.432755
3063.507011
2949.71849
2844.24537
2746.33105
2655.314944
2570.557363
37414.96041
37128.03512
36521.89332
35648.05695
34548.95448
33266.57717
31842.98364
30317.79087
28728.17608
27107.37926
25483.64342
23880.9102
22318.53778
20811.58217
19371.2972
18005.48564
16718.75211
15513.3909
14389.81172
13346.99071
12382.31772
11492.52667
10673.96012
9922.314348
9233.15027
8602.181158
8024.91105
7497.101126
7014.760828
6573.995402
6171.214557
5803.086545
5466.534619
5158.656698
4876.845593
4618.73539
4382.146946
4165.106325
3965.798571
3782.596444
3614.016898
3458.722685
3315.503741
3183.258731
3060.987032
2947.780644
2842.826079
2745.373826
2654.772287
2570.386111
36952.66054
36670.30366
36073.79578
35213.80765
34132.49824
32870.21933
31469.17092
29967.90217
28402.90071
26806.72838
25207.57836
23628.80439
22089.44287
20604.45206
19184.76568
17838.04839
16568.95685
15379.78313
14271.09183
13241.6516
12289.04489
11410.1556
10601.34076
9858.365251
9176.942568
8552.846724
7981.644569
7459.213404
6981.639317
6545.055555
6145.965473
5781.108809
5447.416738
5142.057646
4862.465793
4606.311643
4371.456628
4155.933717
3957.96535
3775.945818
3608.411457
3454.042399
3311.642926
3180.124884
3058.498694
2945.866915
2841.424278
2744.428271
2654.236169
2570.216898
36497.80338
36219.94359
35632.91956
34787.00732
33722.75277
32480.61973
31101.39151
29623.66393
28082.93461
26511.22119
24936.16966
23380.93835
21864.26405
20400.74375
19001.23647
17673.30002
16421.5597
15248.32855
14154.25534
13137.97555
12197.23526
11329.10449
10529.84285
9795.395419
9121.616241
8504.2539
7939.022499
7421.909709
6948.999684
6516.532793
6121.076826
5759.44181
5428.566795
5125.689354
4848.284472
4594.066107
4360.9115
4146.885073
3950.237525
3769.384328
3602.880884
3449.42442
3307.833338
3177.032463
3056.0431
2943.978224
2840.040685
2743.494889
2653.706879
2570.049815
36050.26559
35776.83222
35199.14269
34367.09085
33319.60388
32097.31574
30739.53936
29284.97486
27768.12744
26220.47664
24669.21947
23137.1474
21642.7147
20200.30527
18820.64773
17511.18508
16276.5123
15119.06914
14039.26038
13035.926
12106.86462
11249.30785
10459.4433
9733.385215
9067.125642
8456.388782
7897.033028
7385.154199
6916.835258
6488.421951
6096.561707
5738.081913
5409.982365
5109.550305
4834.300768
4581.993377
4350.511861
4137.960979
3942.615929
3762.912992
3597.426313
3444.869936
3304.076162
3173.9826
3053.621285
2942.115468
2838.676024
2742.574206
2653.184735
2569.884966
35609.92643
35340.85023
34772.8083
33953.9238
32922.93798
31720.1739
30383.8144
28951.73306
27458.38139
25934.40307
24406.55413
22897.26515
21424.71149
20003.06825
18642.93625
17351.6456
16133.83177
14991.84497
13926.06663
12935.46717
12017.97638
11170.7353
10390.11649
9672.349263
9013.452332
8409.235736
7855.669218
7348.936286
6885.137575
6460.716043
6072.402071
5717.025125
5391.660379
5093.638303
4820.513227
4570.08964
4340.257687
4129.16179
3935.101212
3756.532681
3592.048765
3440.380053
3300.372527
3170.976387
3051.234244
2940.279498
2837.330962
2741.667315
2652.669995
2569.722432
35176.69128
34912.18931
34353.31873
33547.38942
32532.95267
31349.08275
30033.85517
28623.88993
27153.59562
25652.90451
24148.08261
22661.20529
21210.17362
19808.95744
18468.03182
17194.63843
15993.44729
14866.60121
13814.62429
12836.55237
11930.44291
11093.3502
10321.82871
9612.240174
8960.568985
8362.770229
7814.936369
7313.236272
6853.888838
6433.398824
6048.578051
5696.258182
5373.588446
5077.941715
4806.924224
4558.344608
4330.139268
4120.478334
3927.684764
3750.235419
3586.741007
3435.948404
3296.71705
3168.009509
3048.87876
2938.468135
2836.004208
2740.773297
2652.16243
2569.562165
34750.80148
34490.50692
33940.50627
33147.32402
32149.24088
30983.88755
29689.44843
28301.52293
26853.63327
25375.85093
23893.6816
22428.85104
20998.99065
19617.86817
18295.84013
17040.17517
15855.20246
14743.2478
13704.84399
12739.16975
11844.18028
11017.06786
10254.49385
9552.949678
8908.386331
8316.901195
7774.707343
7277.959503
6822.992788
6406.390202
6024.991571
5675.682961
5355.669137
5062.364741
4793.427622
4546.669174
4320.072653
4111.833083
3920.296699
3743.960045
3581.451448
3431.533471
3293.078324
3165.060166
3046.54154
2936.674945
2834.694123
2739.892728
2651.663534
2569.404822
34228.4912
33973.34704
33434.20676
32656.82417
31678.57452
30536.05113
29266.92525
27905.99912
26485.91388
25035.9272
23581.42676
22143.61748
20739.70976
19383.3149
18084.57304
16850.45109
15685.38635
14591.71769
13570.00197
12619.56938
11738.2454
10923.41912
10171.94514
9480.237105
8844.446947
8260.781719
7725.542196
7234.925444
6785.388119
6373.620421
5996.459865
5650.894936
5334.185624
5043.803279
4777.449659
4532.958172
4308.361976
4101.885799
3911.903381
3736.934342
3575.627461
3426.763324
3289.228802
3162.011433
3044.185152
2934.913758
2833.440852
2739.070973
2651.207492
2569.262865
)
;

boundaryField
{
    front_top
    {
        type            wedge;
    }
    front_middle
    {
        type            wedge;
    }
    front_bottom
    {
        type            wedge;
    }
    back_top
    {
        type            wedge;
    }
    back_middle
    {
        type            wedge;
    }
    back_bottom
    {
        type            wedge;
    }
    axis_top
    {
        type            symmetryPlane;
    }
    axis_middle
    {
        type            symmetryPlane;
    }
    axis_bottom
    {
        type            symmetryPlane;
    }
    wall_top
    {
        type            calculated;
        value           nonuniform 0();
    }
    wall_middle
    {
        type            calculated;
        value           nonuniform 0();
    }
    wall_bottom
    {
        type            calculated;
        value           uniform 2530.329233;
    }
    inlet
    {
        type            calculated;
        value           nonuniform 0();
    }
    outlet
    {
        type            calculated;
        value           nonuniform List<scalar> 
50
(
34228.4912
33973.34704
33434.20676
32656.82417
31678.57452
30536.05113
29266.92525
27905.99912
26485.91388
25035.9272
23581.42676
22143.61748
20739.70976
19383.3149
18084.57304
16850.45109
15685.38635
14591.71769
13570.00197
12619.56938
11738.2454
10923.41912
10171.94514
9480.237105
8844.446947
8260.781719
7725.542196
7234.925444
6785.388119
6373.620421
5996.459865
5650.894936
5334.185624
5043.803279
4777.449659
4532.958172
4308.361976
4101.885799
3911.903381
3736.934342
3575.627461
3426.763324
3289.228802
3162.011433
3044.185152
2934.913758
2833.440852
2739.070973
2651.207492
2569.262865
)
;
    }
    procBoundary0to1
    {
        type            processor;
        value           nonuniform List<scalar> 
51
(
46563.17316
46185.18592
45387.05826
44237.33482
42792.6571
41109.48087
39244.05939
37249.29176
35174.53909
33063.98893
30954.82167
28878.6558
26860.88799
24921.23045
23073.76737
21328.06749
19689.85032
17983.79055
17983.79055
16585.57512
15293.19822
14103.4331
13011.25667
12011.34087
11097.95699
10264.88176
9506.287884
8816.010473
8188.421424
7618.072942
7099.759874
6628.841335
6200.790469
5811.563211
5457.491311
5135.10697
4841.340316
4573.454979
4328.894623
4105.380033
3900.864043
3713.504608
3541.63793
3383.780149
3238.585684
3104.848009
2981.464752
2867.468501
2761.963678
2664.164524
2573.346294
)
;
    }
}


// ************************************************************************* //
