/*--------------------------------*- C++ -*----------------------------------*\
  =========                 |
  \\      /  F ield         | OpenFOAM: The Open Source CFD Toolbox
   \\    /   O peration     | Website:  https://openfoam.org
    \\  /    A nd           | Version:  7
     \\/     M anipulation  |
\*---------------------------------------------------------------------------*/
FoamFile
{
    version     2.0;
    format      ascii;
    class       volVectorField;
    location    "0.0003";
    object      U;
}
// * * * * * * * * * * * * * * * * * * * * * * * * * * * * * * * * * * * * * //

dimensions      [0 1 -1 0 0 0 0];

internalField   nonuniform List<vector> 
1167
(
(-1.630247104e-06 4.200968326e-18 -0.05049159792)
(-4.256555835e-06 -2.103326338e-18 -0.05049014205)
(-6.742792834e-06 -4.340476338e-18 -0.05048719368)
(-9.324568417e-06 -5.281641422e-18 -0.05048283253)
(-1.191521848e-05 -5.370565745e-18 -0.05047701183)
(-1.450115164e-05 -8.949806004e-18 -0.05046964573)
(-1.708782897e-05 -1.143903368e-17 -0.05046059784)
(-1.968040563e-05 -1.100311419e-17 -0.05044967547)
(-2.228144982e-05 -1.077205322e-17 -0.05043661378)
(-2.489084275e-05 -1.335761793e-17 -0.05042105735)
(-2.750723148e-05 -1.399017496e-17 -0.05040253738)
(-3.012836199e-05 -1.447114551e-17 -0.05038044344)
(-3.275017219e-05 -1.421836135e-17 -0.05035399215)
(-3.536634227e-05 -1.505161442e-17 -0.05032219423)
(-3.796859379e-05 -1.676923051e-17 -0.05028382156)
(-4.054731315e-05 -1.824153286e-17 -0.05023737401)
(-4.309181195e-05 -1.880219197e-17 -0.0501810463)
(-1.531563762e-06 -1.964977358e-18 -0.05050679198)
(-3.999284878e-06 -2.571303013e-18 -0.05050535497)
(-6.337654874e-06 -7.026219661e-19 -0.05050244799)
(-8.770008045e-06 -3.363515884e-18 -0.05049814733)
(-1.121497169e-05 -9.66027012e-18 -0.05049240456)
(-1.36610737e-05 -1.08451783e-17 -0.05048513072)
(-1.611408606e-05 -1.255630093e-17 -0.05047618625)
(-1.857867284e-05 -1.149434226e-17 -0.05046537393)
(-2.105818045e-05 -1.051961655e-17 -0.05045242501)
(-2.355274682e-05 -1.433488133e-17 -0.05043697958)
(-2.606072181e-05 -1.605135389e-17 -0.05041856327)
(-2.857891509e-05 -1.643438208e-17 -0.05039655972)
(-3.110211845e-05 -1.55946635e-17 -0.05037017967)
(-3.362312533e-05 -1.480378463e-17 -0.05033842809)
(-3.61329521e-05 -1.540831759e-17 -0.05030007076)
(-3.862129289e-05 -1.56954297e-17 -0.05025360108)
(-4.107685516e-05 -1.553209614e-17 -0.05019720658)
(-4.348530142e-05 -1.720772132e-17 -0.05012873539)
(-4.582918286e-05 -1.834747319e-17 -0.0500456594)
(-4.809009875e-05 -1.913502089e-17 -0.0499450344)
(-5.024594097e-05 -1.961933663e-17 -0.04982346049)
(-5.227046845e-05 -1.992374509e-17 -0.04967704176)
(-5.413545178e-05 -2.015866155e-17 -0.04950134549)
(-5.580906449e-05 -2.025644331e-17 -0.04929136669)
(-5.725732868e-05 -2.030701179e-17 -0.04904149515)
(-5.844470929e-05 -2.039302639e-17 -0.04874548999)
(-5.933467406e-05 -2.053116672e-17 -0.04839646162)
(-5.989225947e-05 -2.033393649e-17 -0.04798686223)
(-6.00840001e-05 -2.016907819e-17 -0.04750848817)
(-5.988009398e-05 -1.924490236e-17 -0.04695249027)
(-5.925533487e-05 -1.865566678e-17 -0.0463093987)
(-5.81905079e-05 -1.844727072e-17 -0.04556915792)
(-5.667471267e-05 -1.803058165e-17 -0.0447211716)
(-5.470514658e-05 -1.743571048e-17 -0.04375436008)
(-5.228832798e-05 -1.697071555e-17 -0.04265722355)
(-4.944156319e-05 -1.637020077e-17 -0.04141791502)
(-4.619334348e-05 -1.565144384e-17 -0.04002432556)
(-4.258317125e-05 -1.483298297e-17 -0.03846416813)
(-3.866191295e-05 -1.338668622e-17 -0.03672506138)
(-3.44918273e-05 -1.312879139e-17 -0.03479462173)
(-3.014630501e-05 -1.160256145e-17 -0.03266055294)
(-2.570947989e-05 -1.094139597e-17 -0.03031073267)
(-2.12757954e-05 -9.598037374e-18 -0.02773329566)
(-1.694931573e-05 -8.407226482e-18 -0.0249167109)
(-1.284254518e-05 -7.896881009e-18 -0.02184984841)
(-9.074351339e-06 -5.168484384e-18 -0.01852203543)
(-5.768867178e-06 -4.86277168e-18 -0.0149231044)
(-3.067243259e-06 -3.574594389e-18 -0.01104341679)
(-1.158819912e-06 -2.200923263e-18 -0.006873834315)
(-2.078266563e-07 -7.553034686e-19 -0.00240554978)
(-1.429131837e-06 -1.036117953e-17 -0.05052142304)
(-3.732375517e-06 -1.075047712e-17 -0.05052000641)
(-5.917954377e-06 -1.333886497e-17 -0.050517144)
(-8.194965786e-06 -1.176307901e-17 -0.05051290865)
(-1.0487951e-05 -1.305743937e-17 -0.05050725028)
(-1.278794088e-05 -1.158284154e-17 -0.05050007609)
(-1.510169296e-05 -1.151998875e-17 -0.05049124375)
(-1.743322962e-05 -1.215428908e-17 -0.05048055108)
(-1.978549074e-05 -1.343338236e-17 -0.05046772468)
(-2.215920867e-05 -1.254433481e-17 -0.05045239959)
(-2.455251044e-05 -1.359808146e-17 -0.05043409578)
(-2.696161808e-05 -1.483184791e-17 -0.0504121907)
(-2.93806045e-05 -1.608307739e-17 -0.05038588867)
(-3.180147434e-05 -1.589057281e-17 -0.05035418827)
(-3.421452828e-05 -1.584203332e-17 -0.05031584897)
(-3.660912718e-05 -1.565761324e-17 -0.05026935759)
(-3.897271347e-05 -1.664984687e-17 -0.05021289515)
(-4.128976993e-05 -1.737426731e-17 -0.05014430261)
(-4.354334682e-05 -1.792440896e-17 -0.05006104253)
(-4.57150884e-05 -1.828946116e-17 -0.04996016026)
(-4.778292042e-05 -1.84308407e-17 -0.0498382452)
(-4.972202868e-05 -1.8271668e-17 -0.04969138913)
(-5.150524453e-05 -1.879014681e-17 -0.04951514707)
(-5.310198241e-05 -1.906552454e-17 -0.04930450235)
(-5.448057813e-05 -1.917607943e-17 -0.04905383422)
(-5.560766288e-05 -1.916641741e-17 -0.0487568937)
(-5.644930959e-05 -1.906196005e-17 -0.04840678516)
(-5.69727044e-05 -1.891076751e-17 -0.04799595862)
(-5.714652369e-05 -1.867076122e-17 -0.04751621216)
(-5.694344864e-05 -1.845754725e-17 -0.04695870316)
(-5.634023825e-05 -1.817878112e-17 -0.04631397342)
(-5.531923274e-05 -1.784893559e-17 -0.04557198344)
(-5.387062922e-05 -1.744641397e-17 -0.04472215925)
(-5.199214074e-05 -1.696903536e-17 -0.04375344861)
(-4.96902232e-05 -1.642461201e-17 -0.04265438331)
(-4.6981676e-05 -1.579969975e-17 -0.04141315399)
(-4.389336532e-05 -1.508500019e-17 -0.04001769396)
(-4.046260066e-05 -1.427188931e-17 -0.03845576153)
(-3.673744346e-05 -1.334277739e-17 -0.03671502421)
(-3.277668834e-05 -1.253269082e-17 -0.03478315074)
(-2.864964992e-05 -1.157514524e-17 -0.03264789986)
(-2.443585987e-05 -1.043959712e-17 -0.03029720622)
(-2.022477523e-05 -9.158493255e-18 -0.02771926334)
(-1.611490181e-05 -8.250481171e-18 -0.02490259985)
(-1.221291452e-05 -7.209978101e-18 -0.02183614493)
(-8.631630022e-06 -6.160311358e-18 -0.01850928447)
(-5.488989915e-06 -5.122239944e-18 -0.01491191022)
(-2.91944036e-06 -4.051975805e-18 -0.01103444328)
(-1.103554742e-06 -2.463899795e-18 -0.006867804211)
(-1.980818664e-07 -8.408004993e-19 -0.002403245676)
(-1.323333195e-06 -3.312866985e-18 -0.05053547088)
(-3.456962563e-06 -6.376296863e-18 -0.05053407589)
(-5.484783704e-06 -8.747317404e-18 -0.0505312611)
(-7.60074572e-06 -1.103976538e-17 -0.0505270963)
(-9.73665185e-06 -7.670408035e-18 -0.05052152856)
(-1.188540486e-05 -8.392205006e-18 -0.05051446121)
(-1.405425879e-05 -8.227142508e-18 -0.05050574888)
(-1.624755194e-05 -1.041825201e-17 -0.05049518525)
(-1.846734474e-05 -1.22620376e-17 -0.05048249103)
(-2.071461686e-05 -1.166703194e-17 -0.05046729576)
(-2.298761948e-05 -1.102918683e-17 -0.05044911335)
(-2.528211466e-05 -1.189634102e-17 -0.05042731472)
(-2.759151621e-05 -1.404475399e-17 -0.0504010975)
(-2.990721506e-05 -1.592735332e-17 -0.05036945361)
(-3.221930625e-05 -1.62985521e-17 -0.05033113587)
(-3.451631176e-05 -1.706648874e-17 -0.05028462489)
(-3.678418935e-05 -1.856007304e-17 -0.05022809586)
(-3.900722851e-05 -1.809797546e-17 -0.05015938226)
(-4.116926487e-05 -1.802832957e-17 -0.05007593815)
(-4.325161702e-05 -1.810177184e-17 -0.04997479986)
(-4.523222606e-05 -1.820662063e-17 -0.04985254656)
(-4.708789009e-05 -1.829974232e-17 -0.04970525904)
(-4.87924588e-05 -1.840151419e-17 -0.04952848177)
(-5.031687143e-05 -1.844524668e-17 -0.04931718714)
(-5.163126024e-05 -1.83908866e-17 -0.04906574492)
(-5.270407638e-05 -1.820945906e-17 -0.04876789884)
(-5.350399436e-05 -1.7857957e-17 -0.04841674826)
(-5.400025859e-05 -1.771217098e-17 -0.04800474171)
(-5.416366263e-05 -1.736421921e-17 -0.04752367872)
(-5.3968909e-05 -1.75755086e-17 -0.04696472311)
(-5.339446477e-05 -1.741373005e-17 -0.04631842777)
(-5.242434146e-05 -1.715736156e-17 -0.04557476845)
(-5.104946235e-05 -1.681534641e-17 -0.04472319225)
(-4.926783742e-05 -1.639299505e-17 -0.04375267259)
(-4.708585919e-05 -1.589425613e-17 -0.04265177098)
(-4.45196539e-05 -1.532214025e-17 -0.0414087137)
(-4.159455114e-05 -1.467801116e-17 -0.04001147364)
(-3.834569349e-05 -1.396265703e-17 -0.03844785133)
(-3.481835297e-05 -1.317825945e-17 -0.03670556058)
(-3.106790783e-05 -1.233587821e-17 -0.03477231965)
(-2.715970009e-05 -1.142958999e-17 -0.03263593934)
(-2.31688907e-05 -1.046209196e-17 -0.03028440846)
(-1.917990582e-05 -9.327063712e-18 -0.02770597671)
(-1.528581741e-05 -8.245237586e-18 -0.02488922933)
(-1.158753719e-05 -7.117803828e-18 -0.02182315169)
(-8.192004363e-06 -5.071082929e-18 -0.01849718664)
(-5.211097796e-06 -4.739621641e-18 -0.01490128285)
(-2.772687105e-06 -3.475263444e-18 -0.01102591853)
(-1.048672537e-06 -2.134654343e-18 -0.006862071771)
(-1.884012894e-07 -7.314988258e-19 -0.002401053523)
(-1.215032593e-06 -1.728993284e-18 -0.05054891665)
(-3.174674675e-06 -2.776484897e-18 -0.05054754473)
(-5.039426011e-06 -4.545257405e-18 -0.05054478103)
(-6.989052751e-06 -6.009194555e-18 -0.05054069159)
(-8.963413268e-06 -6.67213319e-18 -0.05053522021)
(-1.095633149e-05 -7.531726729e-18 -0.05052826703)
(-1.29748192e-05 -8.723009979e-18 -0.0505196825)
(-1.502471006e-05 -9.781709707e-18 -0.05050925643)
(-1.71075801e-05 -1.065940033e-17 -0.05049670378)
(-1.922349045e-05 -1.12527936e-17 -0.05048164759)
(-2.13709022e-05 -1.194289348e-17 -0.05046359526)
(-2.354545623e-05 -1.25201085e-17 -0.05044191097)
(-2.574010457e-05 -1.320089902e-17 -0.05041578533)
(-2.794607763e-05 -1.389367024e-17 -0.05038420331)
(-3.015288248e-05 -1.465394173e-17 -0.0503459114)
(-3.234754699e-05 -1.538803163e-17 -0.05029938464)
(-3.451556894e-05 -1.597712805e-17 -0.05024279199)
(-3.66419284e-05 -1.640490395e-17 -0.05017395978)
(-3.871045237e-05 -1.68216517e-17 -0.05009033438)
(-4.070217006e-05 -1.718520522e-17 -0.04998894428)
(-4.259588229e-05 -1.747816671e-17 -0.04986635903)
(-4.436924309e-05 -1.769500106e-17 -0.04971864946)
(-4.599704358e-05 -1.784007404e-17 -0.04954135057)
(-4.745235276e-05 -1.791098274e-17 -0.04932942516)
(-4.870670718e-05 -1.790505553e-17 -0.04907723474)
(-4.973014471e-05 -1.782739804e-17 -0.048778516)
(-5.049364416e-05 -1.768785431e-17 -0.04842636394)
(-5.096852871e-05 -1.751784501e-17 -0.04801322605)
(-5.112787697e-05 -1.73322723e-17 -0.04753090366)
(-5.09479163e-05 -1.692160587e-17 -0.04697056683)
(-5.04085206e-05 -1.689600249e-17 -0.04632277863)
(-4.949537003e-05 -1.658954315e-17 -0.04557752975)
(-4.819997334e-05 -1.623543517e-17 -0.04472428708)
(-4.652051878e-05 -1.581982327e-17 -0.04375204741)
(-4.446329717e-05 -1.53427094e-17 -0.04264940054)
(-4.204359939e-05 -1.481142188e-17 -0.04140460624)
(-3.928525323e-05 -1.421420904e-17 -0.0400056745)
(-3.622125785e-05 -1.354182498e-17 -0.0384404454)
(-3.289411288e-05 -1.277566167e-17 -0.03669667638)
(-2.935582841e-05 -1.192896355e-17 -0.0347621324)
(-2.566786093e-05 -1.100932861e-17 -0.03262467358)
(-2.190105617e-05 -1.002415617e-17 -0.03027234061)
(-1.81348199e-05 -8.96906469e-18 -0.02769343612)
(-1.445689762e-05 -7.836963334e-18 -0.02487659841)
(-1.096248869e-05 -6.596598098e-18 -0.02181086712)
(-7.752691367e-06 -5.170295571e-18 -0.01848573982)
(-4.933443283e-06 -4.237108353e-18 -0.01489121987)
(-2.626064678e-06 -3.135436877e-18 -0.01101784054)
(-9.938439352e-07 -1.934611495e-18 -0.00685663566)
(-1.787330428e-07 -6.645964309e-19 -0.002398972824)
(-1.104185093e-06 1.245389102e-18 -0.05056174414)
(-2.885404346e-06 5.261385389e-18 -0.05056039728)
(-4.582767811e-06 -1.263417761e-18 -0.05055768835)
(-6.36215281e-06 -4.020750589e-18 -0.05055367882)
(-8.170499723e-06 -5.207253018e-18 -0.05054830928)
(-1.000313325e-05 -5.571744827e-18 -0.05054147708)
(-1.186702971e-05 -9.612409678e-18 -0.05053302765)
(-1.376854921e-05 -9.937077542e-18 -0.05052274661)
(-1.57097285e-05 -1.041203156e-17 -0.05051034378)
(-1.769000024e-05 -1.061772614e-17 -0.05049543537)
(-1.97072544e-05 -1.345378542e-17 -0.05047752145)
(-2.175704463e-05 -1.273077487e-17 -0.05045595898)
(-2.383234479e-05 -1.245712717e-17 -0.05042993142)
(-2.592384135e-05 -1.214771199e-17 -0.05039841698)
(-2.801988369e-05 -1.328888603e-17 -0.05036015633)
(-3.010705528e-05 -1.404484577e-17 -0.05031361869)
(-3.217123324e-05 -1.401025617e-17 -0.05025696663)
(-3.419788812e-05 -1.443776401e-17 -0.05018801995)
(-3.617037081e-05 -1.552418821e-17 -0.05010421842)
(-3.806956669e-05 -1.624494488e-17 -0.05000258305)
(-3.987583043e-05 -1.673753074e-17 -0.04987967485)
(-4.156730415e-05 -1.707219627e-17 -0.04973155594)
(-4.311952532e-05 -1.72828001e-17 -0.04955375226)
(-4.450755103e-05 -1.739316747e-17 -0.0493412181)
(-4.570451481e-05 -1.741777831e-17 -0.04908830785)
(-4.668249844e-05 -1.73614474e-17 -0.04878875179)
(-4.741413339e-05 -1.722778779e-17 -0.04843564115)
(-4.787240203e-05 -1.700937899e-17 -0.0480214225)
(-4.803268765e-05 -1.66719474e-17 -0.04753789942)
(-4.787276591e-05 -1.614316402e-17 -0.04697624798)
(-4.737382902e-05 -1.617165562e-17 -0.04632704043)
(-4.652281854e-05 -1.599548193e-17 -0.04558028185)
(-4.531189284e-05 -1.568646011e-17 -0.04472545766)
(-4.373943494e-05 -1.526306359e-17 -0.04375158641)
(-4.181165727e-05 -1.471221949e-17 -0.04264728456)
(-3.954275742e-05 -1.432845257e-17 -0.04140084323)
(-3.695497865e-05 -1.388949061e-17 -0.04000030694)
(-3.407921443e-05 -1.344822399e-17 -0.03843355292)
(-3.095522448e-05 -1.251978379e-17 -0.03668837961)
(-2.763170939e-05 -1.156228977e-17 -0.03475259595)
(-2.416638741e-05 -1.05197442e-17 -0.03261410869)
(-2.062559423e-05 -9.553366621e-18 -0.03026100753)
(-1.708385447e-05 -8.582238416e-18 -0.02768164506)
(-1.362355515e-05 -7.504205367e-18 -0.02486470995)
(-1.033425091e-05 -6.300367578e-18 -0.02179929356)
(-7.311215552e-06 -4.887363973e-18 -0.01847494591)
(-4.654457225e-06 -4.011568043e-18 -0.01488172276)
(-2.478736379e-06 -2.965981596e-18 -0.01101021042)
(-9.387333295e-07 -1.827944469e-18 -0.006851496654)
(-1.690083183e-07 -6.288303013e-19 -0.002397003891)
(-9.906539771e-07 -2.236150349e-18 -0.05057394038)
(-2.589342521e-06 -4.880676309e-18 -0.05057262012)
(-4.115976803e-06 -8.76756149e-18 -0.05056996884)
(-5.722112651e-06 -6.67758118e-18 -0.05056604322)
(-7.360822851e-06 -6.481052344e-18 -0.05056078095)
(-9.029443697e-06 -7.359292397e-18 -0.05055407586)
(-1.073511653e-05 -8.387340097e-18 -0.05054576862)
(-1.248369671e-05 -9.705418865e-18 -0.05053563972)
(-1.427823394e-05 -1.149011811e-17 -0.05052339372)
(-1.61182664e-05 -1.119762305e-17 -0.05050864034)
(-1.800104317e-05 -1.123419661e-17 -0.05049087221)
(-1.992160035e-05 -1.149729515e-17 -0.05046943856)
(-2.187259318e-05 -1.18580137e-17 -0.05044351565)
(-2.384400716e-05 -1.243042952e-17 -0.05041207526)
(-2.58238164e-05 -1.335450373e-17 -0.05037385188)
(-2.779886766e-05 -1.425760356e-17 -0.05032730869)
(-2.975543466e-05 -1.492247694e-17 -0.0502706024)
(-3.167887537e-05 -1.544587502e-17 -0.05020154696)
(-3.355209266e-05 -1.586628255e-17 -0.05011757648)
(-3.535663309e-05 -1.623711076e-17 -0.05001570469)
(-3.70739284e-05 -1.655747613e-17 -0.04989248492)
(-3.868274435e-05 -1.681019135e-17 -0.04974397178)
(-4.015999947e-05 -1.693932246e-17 -0.04956568284)
(-4.148208043e-05 -1.699002315e-17 -0.04935256467)
(-4.262345658e-05 -1.698375562e-17 -0.0490989652)
(-4.355853597e-05 -1.693449585e-17 -0.04879860945)
(-4.426149936e-05 -1.685100985e-17 -0.04844458559)
(-4.470687976e-05 -1.674488202e-17 -0.04802933888)
(-4.487203525e-05 -1.663564626e-17 -0.0475446753)
(-4.473635131e-05 -1.656008768e-17 -0.04698177681)
(-4.428244357e-05 -1.659236632e-17 -0.04633122437)
(-4.349817789e-05 -1.610297157e-17 -0.04558303645)
(-4.237624651e-05 -1.571731822e-17 -0.04472671572)
(-4.091522867e-05 -1.544328092e-17 -0.04375130109)
(-3.912117906e-05 -1.460763002e-17 -0.04264543447)
(-3.700717738e-05 -1.414388942e-17 -0.04139743603)
(-3.459386244e-05 -1.332086345e-17 -0.03999538171)
(-3.191001569e-05 -1.248747617e-17 -0.03842718392)
(-2.899266988e-05 -1.189362601e-17 -0.03668067957)
(-2.588723926e-05 -1.125558553e-17 -0.03474371896)
(-2.264769798e-05 -9.924964095e-18 -0.03260425312)
(-1.93358641e-05 -1.017500638e-17 -0.03025041752)
(-1.60213605e-05 -8.466967946e-18 -0.0276706111)
(-1.278120639e-05 -7.330288877e-18 -0.02485357072)
(-9.699294452e-06 -6.104438957e-18 -0.02178843706)
(-6.865047347e-06 -5.015286434e-18 -0.01846481011)
(-4.372521847e-06 -3.970414493e-18 -0.01487279586)
(-2.329869692e-06 -2.868423304e-18 -0.01100303153)
(-8.830707228e-07 -1.710254827e-18 -0.006846656912)
(-1.591956254e-07 -4.961908356e-19 -0.002395147511)
(-8.751887771e-07 2.860150898e-18 -0.05058549394)
(-2.288307857e-06 -6.215754397e-18 -0.05058420142)
(-3.641650015e-06 -2.185605115e-18 -0.05058161021)
(-5.071499047e-06 -4.389312531e-18 -0.05057777195)
(-6.537172635e-06 -4.318252202e-18 -0.05057262203)
(-8.038239942e-06 -7.883709283e-18 -0.05056604978)
(-9.582331711e-06 -6.400787021e-18 -0.05055789161)
(-1.117458161e-05 -7.907120598e-18 -0.05054792185)
(-1.281828048e-05 -9.049586111e-18 -0.05053583933)
(-1.451329817e-05 -1.097840728e-17 -0.05052124733)
(-1.625673471e-05 -8.587663376e-18 -0.05050363125)
(-1.804306982e-05 -9.900281972e-18 -0.05048233274)
(-1.986431762e-05 -1.048011283e-17 -0.05045652076)
(-2.171029164e-05 -1.232386856e-17 -0.0504251604)
(-2.356904811e-05 -1.370716561e-17 -0.0503869799)
(-2.542754189e-05 -1.526056774e-17 -0.05034043671)
(-2.727243981e-05 -1.609261103e-17 -0.05028368203)
(-2.908861119e-05 -1.646730089e-17 -0.05021452497)
(-3.085888038e-05 -1.614985041e-17 -0.05013039404)
(-3.256633264e-05 -1.617625565e-17 -0.05002829645)
(-3.419279329e-05 -1.64372472e-17 -0.04990477865)
(-3.571748989e-05 -1.694030358e-17 -0.04975588833)
(-3.711931381e-05 -1.666037849e-17 -0.04957713578)
(-3.837577041e-05 -1.649562993e-17 -0.049363461)
(-3.946253293e-05 -1.637561529e-17 -0.04910920559)
(-4.035601134e-05 -1.626244549e-17 -0.04880808994)
(-4.103216918e-05 -1.613245524e-17 -0.04845319977)
(-4.146754661e-05 -1.597238554e-17 -0.04803697936)
(-4.16408492e-05 -1.578288108e-17 -0.04755123705)
(-4.15327549e-05 -1.528211334e-17 -0.0469871603)
(-4.112762084e-05 -1.528127396e-17 -0.04633533845)
(-4.041401479e-05 -1.472433021e-17 -0.04558580252)
(-3.938500871e-05 -1.436920767e-17 -0.04472807101)
(-3.803943044e-05 -1.394160962e-17 -0.04375120189)
(-3.638297561e-05 -1.36564458e-17 -0.04264386082)
(-3.442775164e-05 -1.301258748e-17 -0.04139439496)
(-3.219282545e-05 -1.229762978e-17 -0.03999090938)
(-2.970481408e-05 -1.149413385e-17 -0.03842134926)
(-2.699802637e-05 -1.112690266e-17 -0.03667358746)
(-2.411470798e-05 -1.047388328e-17 -0.03473551291)
(-2.110483016e-05 -9.770175015e-18 -0.03259511809)
(-1.802576954e-05 -8.99709238e-18 -0.03024058124)
(-1.494216409e-05 -8.081585087e-18 -0.02766034478)
(-1.192564831e-05 -7.050175782e-18 -0.02484319102)
(-9.054390378e-06 -6.028231843e-18 -0.02177830733)
(-6.411880626e-06 -4.95039105e-18 -0.01845534127)
(-4.086164664e-06 -3.889262282e-18 -0.01486444682)
(-2.178646383e-06 -2.816738881e-18 -0.01099630996)
(-8.265075109e-07 -1.717373972e-18 -0.006842120477)
(-1.492169691e-07 -5.829257839e-19 -0.002393405204)
(-7.582385715e-07 -3.053758777e-18 -0.05059639527)
(-1.983534139e-06 -5.842542088e-18 -0.05059513162)
(-3.161838573e-06 -6.887883175e-18 -0.05059260267)
(-4.412688245e-06 -7.574977613e-18 -0.05058885544)
(-5.702346349e-06 -8.480408291e-18 -0.05058382244)
(-7.032762852e-06 -8.808261321e-18 -0.05057738803)
(-8.412258031e-06 -8.593855621e-18 -0.05056938457)
(-9.845291801e-06 -8.153011792e-18 -0.05055958032)
(-1.13344686e-05 -7.187057514e-18 -0.0505476675)
(-1.288023927e-05 -7.897763452e-18 -0.05053324273)
(-1.447957391e-05 -9.423722986e-18 -0.05051578422)
(-1.612661167e-05 -1.056022814e-17 -0.05049462617)
(-1.781307657e-05 -1.149428103e-17 -0.05046893032)
(-1.952862769e-05 -1.225641076e-17 -0.05043765503)
(-2.126138289e-05 -1.273539907e-17 -0.05039952259)
(-2.299887707e-05 -1.312163158e-17 -0.05035298486)
(-2.472752271e-05 -1.347021909e-17 -0.05029618828)
(-2.643169086e-05 -1.389262488e-17 -0.05022693765)
(-2.80951257e-05 -1.422660291e-17 -0.05014265589)
(-2.970216394e-05 -1.449656665e-17 -0.05004034435)
(-3.123503786e-05 -1.471105117e-17 -0.04991654395)
(-3.267365636e-05 -1.487121696e-17 -0.0497672956)
(-3.399848638e-05 -1.503458778e-17 -0.04958810305)
(-3.518835495e-05 -1.513861845e-17 -0.04937390075)
(-3.622074845e-05 -1.518268417e-17 -0.04911902458)
(-3.707347445e-05 -1.515480908e-17 -0.0488171908)
(-3.772393803e-05 -1.503671582e-17 -0.04846148288)
(-3.815093289e-05 -1.478520019e-17 -0.04804434478)
(-3.833447595e-05 -1.439292287e-17 -0.04755758726)
(-3.825644146e-05 -1.383151403e-17 -0.04699240231)
(-3.790279677e-05 -1.323973438e-17 -0.04633938777)
(-3.726282551e-05 -1.312612228e-17 -0.04558858642)
(-3.632998474e-05 -1.284473501e-17 -0.04472953083)
(-3.510342463e-05 -1.240499719e-17 -0.043751297)
(-3.358830012e-05 -1.211847484e-17 -0.04264257263)
(-3.179568012e-05 -1.169728656e-17 -0.04139172978)
(-2.974310344e-05 -1.116710078e-17 -0.0399869004)
(-2.745504315e-05 -1.054600631e-17 -0.03841606002)
(-2.496309583e-05 -9.850368264e-18 -0.03666711492)
(-2.23063349e-05 -9.376676778e-18 -0.03472799049)
(-1.953067185e-05 -8.855602312e-18 -0.03258671734)
(-1.668898275e-05 -7.916994558e-18 -0.03023151268)
(-1.384085395e-05 -6.901744276e-18 -0.02765086004)
(-1.105245384e-05 -5.975106022e-18 -0.02483358449)
(-8.396121315e-06 -4.923307615e-18 -0.02176891736)
(-5.94928748e-06 -4.03969592e-18 -0.01844655126)
(-3.793841934e-06 -3.269144315e-18 -0.01485668602)
(-2.024294282e-06 -2.413207019e-18 -0.01099005403)
(-7.688008808e-07 -1.490095282e-18 -0.006837892814)
(-1.39047897e-07 -5.122475966e-19 -0.002391778978)
(-6.404442633e-07 -1.067814327e-17 -0.05060663651)
(-1.67677482e-06 -1.128848065e-17 -0.05060540256)
(-2.678241521e-06 -1.284698188e-17 -0.05060293799)
(-3.747652117e-06 -1.145552643e-17 -0.05059928534)
(-4.859567591e-06 -1.506322084e-17 -0.05059437313)
(-6.017276369e-06 -1.207820698e-17 -0.05058808103)
(-7.229062826e-06 -1.195458259e-17 -0.05058023679)
(-8.499955861e-06 -1.043266931e-17 -0.05057060336)
(-9.831549967e-06 -1.00837995e-17 -0.05055886557)
(-1.122412525e-05 -1.047966611e-17 -0.0505446129)
(-1.267495257e-05 -1.088162865e-17 -0.05052731645)
(-1.417798226e-05 -1.150781592e-17 -0.05050630309)
(-1.572469759e-05 -1.241326369e-17 -0.05048072753)
(-1.730472333e-05 -1.173876222e-17 -0.05044954164)
(-1.890667725e-05 -1.127478582e-17 -0.05041146176)
(-2.051828034e-05 -1.037101819e-17 -0.05036493486)
(-2.212528578e-05 -1.002058309e-17 -0.05030810351)
(-2.371244976e-05 -1.149209128e-17 -0.05023876786)
(-2.526510159e-05 -1.236154278e-17 -0.05015434577)
(-2.676787051e-05 -1.28350049e-17 -0.05005183347)
(-2.820335132e-05 -1.299670543e-17 -0.04992776701)
(-2.9553376e-05 -1.283538824e-17 -0.04977818127)
(-3.079927683e-05 -1.339002783e-17 -0.04959857414)
(-3.192084931e-05 -1.374952091e-17 -0.04938387493)
(-3.289785795e-05 -1.398796095e-17 -0.04912841484)
(-3.370946206e-05 -1.415725411e-17 -0.04882590677)
(-3.433441886e-05 -1.429662023e-17 -0.04846943167)
(-3.475346768e-05 -1.397270768e-17 -0.04805143356)
(-3.494818591e-05 -1.361770207e-17 -0.04756372572)
(-3.490181926e-05 -1.287476406e-17 -0.04699750432)
(-3.460150911e-05 -1.263504202e-17 -0.04634337515)
(-3.40373601e-05 -1.238151776e-17 -0.04559139186)
(-3.32033194e-05 -1.208074085e-17 -0.04473110001)
(-3.209882444e-05 -1.172331031e-17 -0.04375159268)
(-3.072838596e-05 -1.131550755e-17 -0.04264157773)
(-2.910200351e-05 -1.084394157e-17 -0.04138944955)
(-2.723571681e-05 -1.030016961e-17 -0.03998336515)
(-2.515189682e-05 -9.676671855e-18 -0.0384113281)
(-2.287951314e-05 -8.9666971e-18 -0.03666127548)
(-2.045423096e-05 -8.426918975e-18 -0.03472116628)
(-1.791797385e-05 -7.827267216e-18 -0.03257906617)
(-1.531902699e-05 -7.145997674e-18 -0.03022322817)
(-1.271185963e-05 -6.416960196e-18 -0.027642174)
(-1.015705176e-05 -5.751150208e-18 -0.02482476851)
(-7.720954946e-06 -5.047763663e-18 -0.0217602842)
(-5.474752111e-06 -4.199040302e-18 -0.01843845607)
(-3.493933463e-06 -3.324922084e-18 -0.01484952737)
(-1.865914559e-06 -2.420623788e-18 -0.01098427467)
(-7.095559894e-07 -1.48251291e-18 -0.006833981232)
(-1.285955666e-07 -5.077139887e-19 -0.002390271614)
(-5.225054208e-07 -2.478150209e-18 -0.05061621205)
(-1.369221719e-06 -3.53856834e-18 -0.05061500881)
(-2.192255077e-06 -1.93657208e-18 -0.05061261113)
(-3.078795072e-06 -5.617255875e-18 -0.05060905587)
(-4.011703264e-06 -7.308910349e-18 -0.05060426744)
(-4.995024846e-06 -8.046644186e-18 -0.05059812153)
(-6.036560744e-06 -8.608644745e-18 -0.05059044012)
(-7.142404607e-06 -9.244483049e-18 -0.05058098102)
(-8.313833935e-06 -1.00450687e-17 -0.05056942231)
(-9.549971804e-06 -1.124099295e-17 -0.0505553456)
(-1.084810201e-05 -1.105578058e-17 -0.05053821452)
(-1.220246199e-05 -1.131943398e-17 -0.05051734888)
(-1.360452417e-05 -1.170881891e-17 -0.05049189656)
(-1.504428379e-05 -1.19617472e-17 -0.05046080315)
(-1.651052768e-05 -1.204875803e-17 -0.05042277969)
(-1.799039626e-05 -1.212919528e-17 -0.05037626912)
(-1.946991214e-05 -1.229242675e-17 -0.05031940999)
(-2.093502735e-05 -1.242665852e-17 -0.05024999791)
(-2.237221399e-05 -1.255952709e-17 -0.05016544635)
(-2.376628567e-05 -1.266078702e-17 -0.05006274756)
(-2.510036773e-05 -1.27230473e-17 -0.04993843255)
(-2.635829884e-05 -1.275950568e-17 -0.04978853114)
(-2.752231008e-05 -1.282061909e-17 -0.04960853652)
(-2.857322765e-05 -1.285346898e-17 -0.04939337284)
(-2.949274193e-05 -1.283114967e-17 -0.04913736725)
(-3.026163124e-05 -1.273472787e-17 -0.04883422997)
(-3.086046315e-05 -1.255066811e-17 -0.04847703982)
(-3.127140346e-05 -1.237255316e-17 -0.04805824101)
(-3.147741079e-05 -1.20759713e-17 -0.04756964917)
(-3.146347849e-05 -1.177169539e-17 -0.04700246454)
(-3.121770585e-05 -1.168001035e-17 -0.04634730033)
(-3.073089433e-05 -1.148966278e-17 -0.04559422012)
(-2.999760786e-05 -1.12271069e-17 -0.04473278148)
(-2.90174611e-05 -1.090409777e-17 -0.04375209335)
(-2.779446155e-05 -1.052702088e-17 -0.04264088206)
(-2.633760237e-05 -1.009879187e-17 -0.041387562)
(-2.466140402e-05 -9.618731482e-18 -0.03998031323)
(-2.278614879e-05 -9.089184495e-18 -0.03840716501)
(-2.073824331e-05 -8.513346049e-18 -0.03665608287)
(-1.854983305e-05 -7.8944669e-18 -0.03471505626)
(-1.625880856e-05 -7.21022576e-18 -0.03257218223)
(-1.390878138e-05 -6.658006499e-18 -0.0302157468)
(-1.154899838e-05 -6.050317945e-18 -0.02763430676)
(-9.234296375e-06 -5.407912057e-18 -0.02481676366)
(-7.024834394e-06 -4.741036975e-18 -0.02175242815)
(-4.98530158e-06 -3.959318859e-18 -0.01843107478)
(-3.184518928e-06 -3.139536296e-18 -0.01484298764)
(-1.702510886e-06 -2.286332074e-18 -0.01097898521)
(-6.484559121e-07 -1.400179395e-18 -0.006830394535)
(-1.178285493e-07 -4.79552232e-19 -0.002388886368)
(-4.043957489e-07 -2.079851534e-18 -0.05062512064)
(-1.060898617e-06 -3.323650918e-18 -0.05062394927)
(-1.705059966e-06 -3.754941168e-18 -0.05062162022)
(-2.408886164e-06 -4.081651807e-18 -0.05061816429)
(-3.161868015e-06 -2.617262454e-18 -0.05061350189)
(-3.96952643e-06 -4.556571953e-18 -0.0506075047)
(-4.839417237e-06 -4.910274303e-18 -0.05059998852)
(-5.777317919e-06 -7.084219954e-18 -0.05059070551)
(-6.785300629e-06 -8.186077733e-18 -0.05057932761)
(-7.862072955e-06 -8.04420297e-18 -0.05056542889)
(-9.004071662e-06 -9.386496485e-18 -0.05054846503)
(-1.020554318e-05 -1.032650149e-17 -0.05052774868)
(-1.145842415e-05 -1.12470476e-17 -0.05050242118)
(-1.275284189e-05 -1.243120364e-17 -0.05047142244)
(-1.407727279e-05 -1.242537167e-17 -0.05043345908)
(-1.541912634e-05 -1.292168841e-17 -0.05038697002)
(-1.676546741e-05 -1.403995908e-17 -0.0503300897)
(-1.810346816e-05 -1.312077839e-17 -0.0502606098)
(-1.941988417e-05 -1.263398824e-17 -0.05017594009)
(-2.069984165e-05 -1.237364471e-17 -0.05007306948)
(-2.19281102e-05 -1.222527865e-17 -0.04994852438)
(-2.30896247e-05 -1.212112886e-17 -0.04979833008)
(-2.416766423e-05 -1.202208917e-17 -0.04961797581)
(-2.514498806e-05 -1.18932355e-17 -0.04940238122)
(-2.600451944e-05 -1.170338101e-17 -0.04914586987)
(-2.672835747e-05 -1.142680219e-17 -0.04884214961)
(-2.729934085e-05 -1.104399013e-17 -0.0484842978)
(-2.770096054e-05 -1.101303765e-17 -0.04806475905)
(-2.791744325e-05 -1.09075158e-17 -0.04757535084)
(-2.79356495e-05 -1.112163319e-17 -0.04700727777)
(-2.774461043e-05 -1.087988452e-17 -0.04635115997)
(-2.733581609e-05 -1.061726981e-17 -0.04559706964)
(-2.670456054e-05 -1.033374608e-17 -0.04473457558)
(-2.585051919e-05 -1.002218369e-17 -0.0437528013)
(-2.477726716e-05 -9.677633139e-18 -0.04264048983)
(-2.349288827e-05 -9.296091404e-18 -0.04138607368)
(-2.201042483e-05 -8.874275595e-18 -0.0399777538)
(-2.034811251e-05 -8.412098136e-18 -0.03840358269)
(-1.852971627e-05 -7.910744101e-18 -0.03665155182)
(-1.658391992e-05 -7.370813882e-18 -0.03470967782)
(-1.454452641e-05 -6.794948224e-18 -0.0325660855)
(-1.245039522e-05 -6.187728113e-18 -0.03020909088)
(-1.034540853e-05 -5.542071895e-18 -0.02762728249)
(-8.2784554e-06 -4.852181965e-18 -0.02480959522)
(-6.303236753e-06 -4.110902175e-18 -0.02174537458)
(-4.47762883e-06 -3.30504621e-18 -0.01842443161)
(-2.863422599e-06 -2.65410975e-18 -0.01483708851)
(-1.532850377e-06 -1.949216062e-18 -0.01097420326)
(-5.849636876e-07 -1.199963125e-18 -0.006827144653)
(-1.066214989e-07 -4.120518591e-19 -0.002387627827)
(-2.863951861e-07 -1.842926015e-18 -0.05063336386)
(-7.531103724e-07 -2.786682908e-18 -0.05063222487)
(-1.219046942e-06 -3.315554698e-18 -0.05062996505)
(-1.740612352e-06 -3.794216974e-18 -0.05062660919)
(-2.313453404e-06 -4.159067743e-18 -0.0506220742)
(-2.94473001e-06 -4.901475032e-18 -0.0506162268)
(-3.641817934e-06 -5.702040601e-18 -0.05060887719)
(-4.409620651e-06 -6.623002216e-18 -0.05059977085)
(-5.250953376e-06 -7.387178709e-18 -0.05058857332)
(-6.164728739e-06 -7.938994983e-18 -0.05057485189)