/*--------------------------------*- C++ -*----------------------------------*\
  =========                 |
  \\      /  F ield         | OpenFOAM: The Open Source CFD Toolbox
   \\    /   O peration     | Website:  https://openfoam.org
    \\  /    A nd           | Version:  7
     \\/     M anipulation  |
\*---------------------------------------------------------------------------*/
FoamFile
{
    version     2.0;
    format      ascii;
    class       volScalarField;
    location    "0.0003";
    object      generalizedNewtonian:nu;
}
// * * * * * * * * * * * * * * * * * * * * * * * * * * * * * * * * * * * * * //

dimensions      [0 2 -1 0 0 0 0];

internalField   nonuniform List<scalar> 
14000
(
28076.25036
27714.29729
27470.46783
26795.91718
26024.93076
25177.63763
24279.06424
23360.72723
22447.53778
21556.93816
20700.75266
19886.54649
19118.66634
18399.1032
17728.17908
17105.04962
16528.08113
15995.32253
15504.79098
15054.31928
14641.46854
14263.72173
13918.77935
13604.42267
13318.21547
13057.6717
12820.20001
12602.9492
12402.81495
12216.27188
12039.44508
11868.11663
11697.52107
11522.43646
11337.43736
11137.03168
10915.86293
10669.10713
10392.88244
10084.61828
9743.526257
9370.929078
8970.28459
8546.901727
8107.562661
7661.058079
7216.854632
6771.211916
6305.770619
5963.919323
13606.72705
13518.44911
13589.31924
13530.73684
13479.94414
13427.77504
13369.78158
13307.96737
13244.68258
13181.83258
13121.09363
13063.94399
13011.63184
12965.099
12925.14196
12892.49482
12867.46961
12849.9873
12839.80356
12836.29028
12838.36836
12844.54674
12852.7999
12860.62145
12865.06987
12862.70368
12849.72886
12822.22247
12776.36383
12708.73042
12616.7209
12499.00066
12355.75301
12188.83793
12001.91062
11800.21744
11590.10475
11378.56997
11172.81871
10979.77615
10805.61681
10655.73508
10534.91102
10447.45505
10397.4193
10388.53356
10425.58561
10519.1056
10679.74808
10870.75319
11610.36582
11562.61666
11660.71234
11670.94983
11702.41152
11746.40975
11797.58649
11855.81546
11921.39529
11994.17468
12073.76535
12159.76746
12251.7512
12349.02429
12450.65124
12555.49954
12662.16842
12768.93403
12873.68233
12974.05235
13067.6028
13151.79921
13224.11834
13282.31189
13324.64977
13350.10715
13358.49678
13350.54246
13328.03957
13293.70329
13250.89343
13203.56321
13155.92984
13112.1257
13076.1247
13051.60113
13041.9772
13050.25973
13078.97944
13130.5723
13207.35782
13311.41367
13444.33764
13607.26041
13800.75248
14024.09577
14275.76308
14556.83133
14867.92579
15137.2729
12072.15187
12030.40157
12129.79274
12157.9557
12211.85803
12282.3451
12363.94218
12455.77222
12557.33793
12667.64609
12785.44994
12909.4699
13038.35001
13170.59088
13304.48892
13438.22294
13569.95168
13697.82201
13820.07235
13935.11982
14041.65992
14138.80713
14226.15025
14303.76272
14372.30566
14432.92893
14487.07723
14536.62648
14583.80965
14630.88497
14680.09982
14733.81026
14794.38788
14863.84528
14944.03269
15036.80887
15143.66368
15265.81683
15404.22744
15559.45672
15731.60206
15920.19743
16124.30466
16342.46376
16572.38603
16810.91109
17055.15936
17304.93611
17561.04324
17760.88614
13290.84009
13261.56092
13356.60129
13390.07218
13447.76214
13521.55423
13606.50095
13701.41247
13805.19823
13916.48557
14033.93476
14156.05513
14281.27648
14408.1456
14535.17186
14660.95348
14784.32123
14904.26896
15020.02166
15131.07634
15237.25816
15338.74092
15435.93912
15529.47625
15620.23266
15709.27866
15797.77746
15887.01186
15978.25163
16072.64401
16171.38246
16275.56114
16386.04424
16503.62961
16628.81833
16761.94768
16903.20643
17052.42475
17209.19506
17372.91489
17542.75284
17717.50384
17895.63027
18075.55707
18255.83752
18434.44198
18606.94074
18768.33354
18920.01841
19032.33032
14686.51878
14662.44028
14739.72237
14771.5814
14824.38573
14890.78677
14966.67982
15050.79533
15141.94868
15238.78382
15340.0767
15444.54402
15550.90508
15658.14626
15765.38642
15871.7946
15976.75988
16079.89604
16180.9612
16279.92381
16376.95361
16472.31622
16566.36863
16659.60432
16752.54113
16845.74677
16939.87619
17035.44543
17132.90324
17232.67349
17335.09777
17440.33683
17548.4221
17659.40427
17773.01464
17888.82416
18006.49138
18125.3367
18244.41434
18362.90485
18479.86508
18593.90701
18703.5034
18807.92427
18908.72369
19007.21573
19065.51412
18932.51697
18238.61608
17316.72107
15879.89532
15866.85319
15925.02145
15951.31177
15992.87115
16044.47617
16103.20685
16167.86975
16237.53482
16311.17963
16387.76484
16466.44055
16546.40023
16626.91318
16707.44653
16787.58438
16866.99851
16945.49126
17022.98011
17099.47904
17175.06561
17249.8253
17323.92595
17397.61002
17471.0384
17544.3399
17617.65848
17691.06885
17764.54936
17838.03753
17911.33078
17984.16962
18056.21924
18126.95268
18195.84818
18262.26786
18325.39069
18384.39978
18438.39352
18486.34575
18527.34132
18560.85451
18584.55034
18594.44417
18590.4908
18505.46893
18053.83649
17200.67384
16190.8594
15443.93016
16776.79421
16768.24886
16807.52213
16827.95105
16859.60067
16898.59436
16942.88252
16991.58892
17043.9791
17099.33601
17156.90407
17216.02316
17276.19667
17336.95526
17397.90273
17458.74376
17519.26615
17579.32106
17638.80771
17697.66709
17755.8698
17813.4105
17870.30845
17926.54899
17982.09953
18036.90523
18090.83838
18143.7408
18195.37772
18245.4688
18293.64003
18339.46539
18382.44788
18421.9782
18457.43697
18488.12597
18513.28461
18532.22093
18544.5114
18549.27374
18540.45376
18514.92857
18515.66861
18498.75862
18127.74006
17333.99577
16463.78424
16065.78618
16386.79688
16857.66235
17286.37065
17283.18047
17311.41025
17328.07041
17352.83431
17383.22398
17417.8557
17456.15243
17497.5473
17541.48309
17587.49558
17635.12528
17683.96896
17733.69986
17784.04187
17834.7613
17885.65818
17936.57829
17987.40541
18038.03433
18088.36176
18138.30568
18187.76227
18236.60306
18284.68578
18331.82959
18377.82297
18422.40406
18465.27309
18506.07565
18544.41665
18579.85445
18611.90329
18640.04742
18663.73785
18682.5726
18696.51519
18704.36873
18697.62424
18675.3429
18705.82767
18738.48053
18379.84556
17568.32058
16763.58124
16515.68295
16858.09057
17377.82323
17842.62508
18169.0891
17557.32536
17555.1949
17575.65786
17589.21479
17609.1578
17633.60912
17661.55734
17692.55766
17726.22684
17762.15394
17799.93869
17839.24728
17879.76996
17921.2185
17963.34804
18005.95142
18048.83979
18091.8308
18134.75463
18177.46484
18219.81434
18261.64405
18302.78863
18343.07106
18382.30625
18420.27813
18456.76798
18491.52019
18524.27958
18554.7611
18582.67633
18607.7105
18629.57612
18648.20001
18663.94091
18675.29214
18672.0603
18656.55452
18713.50574
18780.02021
18424.40515
17594.54566
16811.6822
16629.70601
16985.48896
17464.40773
17879.57329
18241.62246
18619.10614
18843.79422
17656.00756
17654.82662
17670.87444
17681.39134
17696.71302
17715.47219
17736.95497
17760.76149
17786.55801
17814.04827
17842.91213
17872.83109
17903.52993
17934.75701
17966.27769
17997.86805
18029.31527
18060.42765
18091.02586
18120.92756
18149.95994
18177.95811
18204.7564
18230.18892
18254.09542
18276.32067
18296.715
18315.13897
18331.45873
18345.54111
18357.28482
18366.9204
18375.09965
18380.0992
18370.54259
18351.22902
18418.34487
18504.93858
18170.04685
17365.03316
16614.97036
16455.72419
16786.91711
17214.6558
17586.93726
17917.91388
18265.41044
18500.35043
17662.92054
16012.72487
17674.31271
17672.36437
17685.05534
17692.50211
17703.68977
17717.41821
17733.04968
17750.29833
17768.89393
17788.52289
17808.91761
17829.84327
17851.06562
17872.34692
17893.45512
17914.17527
17934.32328
17953.74014
17972.26616
17989.73398
18006.0073
18020.96437
18034.46787
18046.43099
18056.77783
18065.43165
18072.32768
18077.39972
18080.63472
18082.37643
18083.4285
18081.90379
18065.66365
18040.19537
18107.37573
18202.72062
17889.65758
17117.52495
16402.08521
16260.52618
16572.70906
16963.401
17302.88158
17606.89511
17932.13395
18151.77389
17315.72102
15664.53575
14167.96836
12911.01266
17616.44811
17614.03013
17625.02056
17630.02245
17638.00314
17647.87082
17659.03922
17671.26913
17684.38719
17698.1878
17712.42656
17726.89583
17741.40195
17755.75971
17769.79588
17783.36015
17796.33909
17808.60096
17819.96905
17830.33763
17839.66609
17847.83823
17854.77569
17860.45663
17864.8018
17867.76055
17869.32535
17869.83204
17870.09857
17868.16389
17851.58326
17825.11441
17891.14196
17993.00436
17703.48531
16960.43741
16273.65007
16151.63209
16459.97685
16834.60535
17160.46573
17453.3621
17767.84834
17987.93758
17176.95104
15537.94589
14053.50466
12789.89423
11679.65269
10707.59955
17533.18528
17529.6746
17539.85576
17543.27653
17549.35237
17556.9579
17565.59452
17575.06343
17585.18552
17595.83441
17606.87192
17618.12014
17629.41461
17640.62187
17651.6367
17662.36338
17672.68037
17682.42778
17691.50691
17699.91042
17707.55647
17714.32777
17720.1956
17725.07013
17728.87745
17731.96286
17735.11141
17736.38315
17723.29823
17699.21307
17763.77554
17873.05317
17612.37316
16897.14015
16229.8697
16119.82063
16428.70439
16798.11861
17119.63812
17408.09425
17715.24744
17958.55851
17245.77241
15626.23309
14129.10256
12858.00759
11746.18783
10761.02666
9885.333062
9115.027754
17436.11644
17431.97396
17442.43311
17444.95031
17450.00123
17456.4452
17463.7963
17471.90797
17480.63484
17489.8493
17499.45732
17509.33265
17519.35265
17529.40448
17539.37952
17549.17368
17558.68423
17567.80047
17576.44026
17584.55019
17592.03641
17598.76769
17604.67179
17610.05736
17615.6809
17619.69919
17609.77069
17587.51195
17647.84904
17764.00322
17540.37262
16861.69991
16210.33853
16097.81345
16399.1127
16762.61754
17078.42688
17359.08554
17653.44223
17923.79115
17373.38989
15799.46042
14278.02217
12989.13247
11864.44191
10867.89591
9982.443223
9196.401374
8497.692486
7879.07539
17359.67515
17354.59693
17365.48947
17367.3058
17371.71009
17377.47141
17384.04475
17391.29785
17399.13909
17407.46297
17416.1725
17425.1549
17434.29582
17443.48797
17452.6264
17461.60508
17470.32414
17478.70477
17486.641
17493.97708
17500.65673
17506.97158
17513.60054
17518.86972
17510.57664
17488.44237
17541.56287
17660.80409
17474.6259
16837.4321
16199.23449
16070.44058
16354.99307
16711.36954
17021.20225
17291.82717
17568.24588
17855.23267
17504.24132
16020.91034
14468.85657
13153.99364
12011.09788
10998.8283
10098.18621
9297.283751
8585.468721
7951.589681
7383.980536
6876.334813
17307.47849
17301.62716
17313.07071
17314.10835
17317.72298
17322.58538
17328.11089
17334.18687
17340.75398
17347.72887
17355.01088
17362.49825
17370.08874
17377.67686
17385.15818
17392.4266
17399.37652
17405.93123
17412.02255
17417.81007
17424.00904
17429.13406
17420.76062
17396.97354
17440.9539
17557.71883
17402.07973
16806.45879
16180.94893
16028.66601
16290.75685
16638.82575
16943.01034
17204.29727
17461.7016
17749.41276
17600.73735
16272.12808
14692.61078
13344.97968
12179.68582
11148.8354
10230.67837
9412.813903
8684.863994
8036.320146
7456.475806
6935.817442
6466.289993
6043.284825
17297.56836
17290.6669
17302.33919
17302.31218
17304.79857
17308.34308
17312.31736
17316.6374
17321.28683
17326.20856
17331.294
17336.44725
17341.58415
17346.61465
17351.43074
17355.90842
17359.98368
17363.95253
17368.6086
17372.29064
17361.68204
17333.96527
17367.83028
17475.48209
17335.22143
16772.6605
16159.29733
15983.41071
16221.22422
16559.72024
16858.63586
17112.38732
17352.76952
17627.45158
17650.52941
16547.68457
14955.5248
13567.96135
12375.62014
11323.08767
10384.90715
9547.809736
8801.592654
8136.234371
7541.467883
7007.791621
6527.216409
6093.169073
5700.077438
5343.620359
17334.06206
17326.31185
17338.09752
17336.80381
17337.85282
17339.70478
17341.67889
17343.72259
17345.89919
17348.12992
17350.25104
17352.20034
17353.94534
17355.42239
17356.58666
17357.70775
17359.55969
17360.19568
17344.5311
17309.88261
17333.16028
17423.79626
17276.76658
16731.79783
16129.66641
15936.88842
16153.93312
16481.51094
16774.19596
17021.59934
17247.67449
17501.58504
17642.32952
16821.31466
15253.67573
13820.00907
12595.43151
11518.58404
10558.42353
9699.966861
8933.288053
8249.017255
7637.382085
7088.8663
6595.285905
6149.871499
5746.917071
5381.458977
5049.29889
4746.133131
17431.80185
17423.15507
17434.84691
17432.25898
17431.78551
17431.8421
17431.72475
17431.42832
17430.94588
17430.12984
17428.9595
17427.43166
17425.50276
17423.48643
17422.04769
17417.27131
17391.90617
17345.13454
17356.54448
17419.51638
17236.26227
16687.38251
16096.00164
15898.40102
16102.33888
16420.74556
16706.82466
16947.68659
17162.21204
17394.04338
17596.96953
17071.50465
15589.98482
14109.05638
12846.06064
11741.22804
10756.97601
9875.701775
9086.849942
8381.522283
7750.739253
7185.374705
6676.986048
6218.527281
5804.101355
5428.583701
5087.491234
4776.997506
4493.962113
4233.964614
17594.15116
17584.81894
17596.2226
17592.41212
17590.36435
17588.47097
17586.11983
17583.28013
17579.91893
17575.95061
17571.35512
17566.63852
17561.75731
17547.15573
17505.60994
17439.36468
17434.76552
17452.60599
17196.77407
16622.57323
16047.62842
15865.80532
16067.30687
16377.88373
16658.83437
16894.54744
17099.6227
17311.53023
17535.24048
17270.02617
15951.44133
14433.9791
13127.72705
11991.91746
10981.81558
10076.36011
9264.202675
8536.648629
7885.261237
7301.290959
6776.419672
6303.402746
5876.114482
5489.274031
5138.23146
4818.952101
4527.88128
4262.04709
4019.058638
3794.248847
17825.26795
17814.95891
17825.15454
17819.31159
17814.82244
17809.99373
17803.9927
17796.69369
17788.51704
17779.55203
17763.06114
17725.56278
17655.90362
17571.49797
17544.91812
17472.41239
17110.43124
16504.40346
15964.99169
15830.71338
16044.77053
16348.17117
16623.74725
16855.24552
17053.14376
17249.06097
17471.18482
17402.20687
16314.18118
14788.2931
13437.4034
12269.64177
11234.04465
10304.91778
9469.489534
8719.292383
8046.552075
7443.151896
6900.868512
6412.317472
5971.161878
5571.96361
5209.941313
4880.909237
4581.203451
4307.610811
4057.293032
3827.845364
3617.418091
3421.204286
18093.2451
18083.02653
18092.40355
18084.77168
18077.96871
18070.28822
18056.81977
18029.25652
17978.26729
17894.0519
17774.19008
17670.15374
17592.39198
17366.3965
16895.64601
16282.48659
15818.34092
15775.39602
16021.09034
16318.46555
16587.92953
16815.90158
17009.47666
17194.96162
17407.4704
17464.09637
16639.27513
15154.5024
13765.54822
12567.75018
11509.16911
10559.22451
9703.069097
8931.848998
8238.353027
7615.338836
7055.102477
6550.323326
6094.55836
5682.170548
5308.287899
4968.593332
4659.319945
4377.153077
4119.177036
3882.758851
3665.529269
3465.53346
3281.352102
3108.224408
18507.68471
18484.90873
18466.73166
18415.74159
18345.02112
18249.32922
18121.84564
17955.8584
17786.58595
17641.86961
17416.62995
17022.45767
16499.6608
15963.71218
15656.10574
15727.55963
16000.95698
16293.9193
16558.087
16783.19041
16974.94206
17155.63249
17359.80441
17487.1581
16909.0498
15521.6046
14110.1598
12886.95478
11809.16497
10841.7325
9967.487784
9177.222921
8464.189466
7821.939619
7243.53536
6721.924531
6250.642225
5824.035277
5437.174455
5085.674165
4765.678264
4473.785187
4207.010632
3962.685383
3738.380103
3531.883127
3341.216109
3164.820921
3001.647572
2847.074856
18130.0287
18077.50213
18001.03143
17855.74256
17684.67545
17519.00745
17330.29929
17068.44826
16721.66615
16309.45245
15879.75627
15557.49868
15506.84286
15697.18995
15982.66201
16274.46993
16538.22106
16763.99839
16958.2514
17140.74126
17342.63183
17507.24301
17124.10842
15875.33076
14465.4279
13224.48665
12132.24271
11151.23505
10262.02972
9454.85349
8723.398445
8062.263371
7465.510713
6926.497664
6438.901698
5997.070315
5596.07789
5231.55103
4899.58179
4596.723469
4319.920248
4066.462553
3833.893459
3619.970569
3422.65544
3240.105064
3070.704015
2913.209022
2766.826791
2627.196014
16333.93633
16301.18527
16248.37493
16153.68293
16017.01711
15840.41301
15641.44733
15436.41214
15279.92753
15281.03794
15452.69446
15715.4624
16007.30261
16292.97899
16552.66502
16777.66209
16975.04987
17162.40192
17366.43854
17548.56036
17294.31197
16193.47913
14812.20058
13564.7882
12464.80711
11475.55216
10575.939
9755.550922
9008.464519
8329.993453
7715.225822
7158.500582
6653.952181
6196.075042
5779.97746
5401.334074
5056.248244
4741.260872
4453.280108
4189.567026
3947.642705
3725.22956
3520.250215
3330.81899
3155.255868
2992.049888
2839.85776
2697.692126
2564.974138
2437.611268
15253.90073
15239.666
15217.5872
15182.86569
15158.35947
15195.26151
15316.71695
15501.59746
15732.56958
15993.40253
16261.2558
16517.76236
16750.73742
16957.83176
17145.30073
17327.89961
17527.32395
17705.15526
17504.92061
16513.90783
15174.64544
13929.42291
12824.85041
11828.80713
10919.7262
10086.69721
9324.132179
8628.127182
7994.798596
7419.484837
6896.830287
6421.59417
5988.994351
5594.792977
5235.165091
4906.643469
4606.128334
4330.839246
4078.283094
3846.17172
3632.39292
3435.012976
3252.285738
3082.658749
2924.738491
2777.258257
2639.121085
2509.534599
2388.112919
2270.997167
15798.40241
15817.1182
15898.85477
15993.27015
16126.07436
16290.79238
16478.34793
16678.97535
16881.84947
17075.54462
17254.72419
17421.4379
17580.95524
17743.6417
17923.81838
18066.35309
17835.77702
16882.52865
15579.13803
14339.71551
13230.05416
12225.20878
11304.63626
10457.23606
9677.836268
8963.124069
8309.967359
7714.564746
7172.193232
6677.957139
6227.226551
5815.844108
5440.062272
5096.440539
4781.882231
4493.579949
4229.015784
3985.884147
3762.043566
3555.521348
3364.511468
3187.397086
3022.730511
2869.202322
2725.651655
2591.029516
2464.424187
2345.208881
2233.09204
2124.511368
17159.98055
17167.26286
17263.3073
17343.12478
17448.67091
17566.17956
17688.48368
17813.49911
17939.59861
18066.06835
18196.18019
18338.95359
18492.45724
18561.77123
18216.25008
17233.42098
15963.55893
14744.53013
13639.84568
12632.35144
11704.46456
10846.49435
10053.524
9322.729928
8651.651377
8037.301707
7475.80187
6962.726584
6493.711047
6064.72432
5672.139934
5312.627552
4983.115878
4680.81779
4403.195457
4147.94595
3912.929019
3696.147
3495.756644
3310.078215
3137.609338
2976.999574
2827.024425
2686.616559
2554.805089
2430.71431
2313.56298
2202.847035
2098.386325
1996.90244
18312.44033
18302.81951
18389.96016
18439.72882
18511.61659
18597.66426
18693.08687
18796.30415
18910.94781
19036.0321
19137.76054
19056.98219
18509.15999
17462.05763
16240.78162
15069.44562
13992.40446
12999.46254
12078.14487
11220.85313
10423.68182
9684.651017
9002.147221
8374.127029
7797.657903
7268.93476
6783.975013
6339.00166
5930.644641
5555.788668
5211.501553
4895.094545
4604.084088
4336.201924
4089.34048
3861.51675
3650.881667
3455.725777
3274.505418
3105.832889
2948.447314
2801.218952
2663.141179
2533.317365
2410.946336
2295.286654
2185.714947
2081.853748
1983.554374
1887.832653
19332.688
19318.02934
19401.99262
19445.54409
19510.79678
19588.73743
19671.77962
19727.11556
19657.04361
19283.16015
18496.29267
17424.64943
16292.1442
15207.91097
14193.45362
13244.85981
12355.04885
11519.66423
10736.5081
10004.80603
9324.233149
8693.932468
8111.823706
7574.915699
7079.942338
6623.719928
6203.280123
5815.873564
5458.888935
5129.845295
4826.436759
4546.507561
4288.059141
4049.191625
3828.099238
3623.097669
3432.632815
3255.312438
3089.863509
2935.114825
2790.035828
2653.686419
2525.241433
2403.954932
2289.161823
2180.271203
2076.778074
1978.367099
1884.976448
1793.91325
20241.8587
20217.98201
20262.24222
20235.32827
20156.3873
19948.92837
19528.25539
18852.67938
17972.80778
17001.63586
16021.90403
15073.07718
14165.2893
13300.23112
12475.54538
11691.01785
10946.87523
10244.10247
9584.061907
8967.051049
8392.299447
7858.099357
7362.163456
6902.099308
6475.583849
6080.49467
5714.652877
5375.974287
5062.473342
4772.240952
4503.464115
4254.402643
4023.375414
3808.782579
3609.122468
3423.015102
3249.20608
3086.547054
2933.9871
2790.588029
2655.497024
2527.973762
2407.321346
2292.924728
2184.255212
2080.830134
1982.230197
1888.208913
1798.722407
1711.440154
19500.62331
19372.96607
19153.98685
18766.03799
18250.8005
17626.14728
16921.60409
16172.02428
15404.76025
14636.63289
13877.79121
13134.22581
12408.81817
11704.76753
11025.69651
10374.66884
9754.901004
9168.280478
8615.576373
8096.608818
7610.507058
7155.677537
6730.655556
6334.048597
5964.42202
5620.270051
5300.043223
5002.213172
4725.259057
4467.699491
4228.057974
4004.883273
3796.760249
3602.377607
3420.534058
3250.119841
3090.10577
2939.565565
2797.654159
2663.610071
2536.749207
2416.452589
2302.179742
2193.466721
2089.864409
1990.97123
1896.446432
1806.090385
1719.881625
1635.803758
16562.5552
16442.87209
16219.84183
15883.18475
15466.55692
14986.78891
14460.48839
13901.83626
13322.18282
12729.23091
12131.34145
11534.09082
10944.34781
10367.21037
9807.674931
9269.312881
8754.4792
8264.858141
7800.602753
7361.417139
6946.917273
6556.602407
6189.853644
5845.951881
5523.825053
5222.43419
4940.676489
4677.399174
4431.405233
4201.461797
3986.345077
3784.876544
3595.942758
3418.511464
3251.623071
3094.387679
2945.98064
2805.642356
2672.704625
2546.55276
2426.641013
2312.490457
2203.677839
2099.818468
2000.58094
1905.63692
1814.695896
1727.600888
1644.345726
1563.21492
14110.67908
14027.21799
13863.13416
13620.07029
13314.69204
12956.60022
12555.99355
12122.34877
11663.53639
11188.39495
10703.91744
10216.99728
9733.628921
9258.733077
8795.933331
8348.520245
7917.774857
7504.710386
7110.073036
6734.473499
6377.977976
6040.551743
5721.910339
5421.576544
5138.954413
4873.310576
4623.854657
4389.625349
4169.605923
3962.797594
3768.230997
3584.99293
3412.216877
3249.077586
3094.804748
2948.698424
2810.10531
2678.454114
2553.194514
2433.839224
2319.974512
2211.223801
2107.248737
2007.752404
1912.461859
1821.145598
1733.557985
1649.572687
1569.200606
1490.986717
12316.17227
12251.99742
12121.96588
11930.27246
11686.7941
11399.25815
11075.13405
10721.60735
10346.12852
9955.556695
9555.922538
9153.097067
8751.318043
8354.846955
7966.146819
7587.259958
7220.152091
6866.059593
6525.952263
6200.570808
5890.358456
5595.542329
5315.936729
5051.285462
4801.168756
4565.014832
4342.123023
4131.724472
3933.036884
3745.307691
3567.768028
3399.693755
3240.386213
3089.204442
2945.545335
2808.854182
2678.625922
2554.395328
2435.75846
2322.373137
2213.877234
2109.984317
2010.435004
1914.994711
1823.453695
1735.62612
1651.339689
1570.485124
1493.077442
1417.86556
10954.29977
10901.3866
10792.76594
10633.18581
10430.32905
10190.17475
9919.012354
9622.888265
9307.836358
8979.423622
8642.506215
8301.404174
7959.725515
7620.14352
7285.602818
6957.927929
6638.867527
6329.943146
6032.292688
5746.500079
5473.024607
5212.092782
4963.725539
4727.81703
4503.923169
4291.5349
4090.083925
3898.977745
3717.618851
3545.413272
3381.776135
3226.143138
3077.966242
2936.72143
2801.946054
2673.20336
2550.099038
2432.287553
2319.463125
2211.344735
2107.693891
2008.260256
1912.847291
1821.275096
1733.380631
1649.016442
1568.066337
1490.423096
1416.109635
1344.044339
9891.11268
9846.090814
9753.256549
9616.89372
9443.37997
9238.092635
9005.93411
8752.008147
8481.569311
8198.40323
7907.178168
7610.721903
7312.617195
7015.380116
6721.292027
6432.669131
6150.931444
5877.331664
5612.840517
5358.297264
5114.014342
4880.210893
4656.88967
4443.861116
4240.828009
4047.406166
3863.124064
3687.538076
3520.184481
3360.588746
3208.283791
3062.830672
2923.807279
2790.832407
2663.507321
2541.507311
2424.542034
2312.343495
2204.667732
2101.307254
2002.091096
1906.824707
1815.348296
1727.525639
1643.228298
1562.344883
1484.770511
1410.424016
1339.337274
1270.540124
9039.647572
9000.5021
8919.795599
8801.037043
8650.067346
8470.859931
8267.791272
8045.550277
7807.682019
7558.253681
7300.559662
7037.941705
6772.959219
6508.521028
6246.403678
5988.407874
5736.191274
5490.718682
5252.869823
5023.262969
4802.394431
4590.330318
4387.017254
4192.300498
4005.952606
3827.692899
3657.246282
3494.214601
3338.22154
3188.905789
3045.905246
2908.870834
2777.479523
2651.428716
2530.449334
2414.279169
2302.688561
2195.473582
2092.454574
1993.467533
1898.389218
1807.073836
1719.391763
1635.235714
1554.501133
1477.088416
1402.918164
1331.925904
1264.135013
1198.654426
8338.851295
8304.152061
8232.907456
8127.725941
7993.537001
7834.067394
7653.332699
7454.889452
7242.169912
7018.906325
6787.812566
6552.096117
6314.019334
6075.83673
5839.540647
5606.540213
5378.174703
5155.598051
4939.452272
4730.251656
4528.287624
4333.751609
4146.577211
3966.667377
3793.879668
3628.013918
3468.82908
3316.078447
3169.452768
3028.660607
2893.428811
2763.488429
2638.586528
2518.500896
2403.059111
2292.036252
2185.260586
2082.57928
1983.854065
1888.962097
1797.812322
1710.292724
1626.298342
1545.735533
1468.508072
1394.552193
1323.78457
1256.146579
1191.656483
1129.498656
7744.93621
7713.701968
7649.725084
7554.945549
7434.09027
7290.520103
7127.64176
6948.485618
6756.563588
6554.692123
6345.771304
6132.199986
5916.373132
5700.04065
5485.085187
5272.848832
5064.421224
4860.759977
4662.528624
4470.07625
4283.665461
4103.451191
3929.544253
3761.858063
3600.300919
3444.724535
3294.947554
3150.788897
3012.051426
2878.496205
2749.908414
2626.092781
2506.871486
2392.081061
2281.578172
2175.220092
2072.861737
1974.389756
1879.70046
1788.699679
1701.325163
1617.480589
1537.071975
1460.016585
1386.241002
1315.701375
1248.28765
1183.955397
1122.717816
1063.810286
7229.127925
7200.672841
7142.831416
7056.882953
6947.320122
6817.253617
6669.351333
6506.654079
6332.279176
6148.557993
5958.339104
5763.542853
5566.464487
5368.701506
5171.769587
4977.059247
4785.419396
4597.60412
4414.264916
4235.742349
4062.301401
3894.125346
3731.330249
3573.942308
3421.863549
3275.009707
3133.262786
2996.479703
2864.547013
2737.281233
2614.530098
2496.159905
2382.038973
2272.03819
2166.072528
2064.031628
1965.806446
1871.310676
1780.466178
1693.2003
1609.482049
1529.197146
1452.276305
1378.651807
1308.267019
1241.055512
1176.921221
1115.809481
1057.731876
1001.965713
6774.471297
6748.438308
6695.985235
6617.696487
6518.002015
6399.334652
6264.348232
6115.900884
5956.467434
5788.439637
5614.171029
5435.6055
5254.594081
5072.762754
4891.324753
4711.474931
4534.020149
4359.614838
4188.833183
4022.122683
3859.723487
3701.829651
3548.556089
3399.991077
3256.087292
3116.792693
2982.037509
2851.735223
2725.801874
2604.147503
2486.6575
2373.232361
2263.778223
2158.215063
2056.486333
1958.510381
1864.205078
1773.508383
1686.357962
1602.714548
1522.518417
1445.689336
1372.166198
1301.884237
1234.802332
1170.826837
1109.86443
1051.856338
996.837831
944.0735611
6369.621138
6345.682783
6297.922213
6226.303871
6135.017836
6026.276806
5902.5232
5766.400086
5619.982783
5465.626022
5305.260848
5140.798134
4973.738793
4805.627605
4637.464327
4470.283355
4304.943905
4142.023174
3982.05811
3825.541274
3672.690339
3523.706061
3378.722051
3237.860814
3101.128265
2968.505415
2839.959848
2715.446645
2594.939082
2478.396556
2365.724983
2256.865107
2151.76195
2050.360323
1952.646087
1858.537325
1767.984908
1680.941028
1597.361056
1517.217868
1440.440115
1366.971911
1296.749719
1229.722252
1165.835844
1104.982612
1047.071723
992.0660872
939.9556665
890.0510403
6006.08824
5983.981455
5940.351901
5874.543349
5790.603922
5690.618055
5576.8235
5451.458359
5316.480706
5174.082854
5025.869886
4873.645315
4718.655773
4562.297736
4405.533669
4249.286874
4094.426257
3941.48388
3790.96536
3643.326396
3498.822429
3357.66065
3219.99859
3085.963803
2955.626139
2828.978384
2706.0341
2586.794102
2471.272633
2359.438502
2251.244007
2146.659591
2045.653991
1948.210843
1854.319443
1763.920857
1676.982794
1593.468408
1513.345718
1436.589502
1363.136086
1292.927485
1225.904016
1162.042645
1101.2299
1043.378075
988.4047988
936.2686608
886.9221699
839.7279497
5677.670292
5657.182164
5617.222041
5556.490834
5479.077895
5386.826033
5281.799931
5165.919551
5041.011747
4909.014318
4771.340463
4629.656691
4485.084886
4338.892274
4192.038072
4045.352681
3899.661547
3755.468854
3613.251415
3473.437513
3336.330769
3202.124681
3070.993173
2943.096609
2818.519263
2697.300255
2579.486939
2465.108682
2354.203247
2246.763665
2142.772937
2042.226097
1945.117226
1851.464452
1761.240012
1674.416779
1590.967922
1510.860073
1434.105546
1360.637074
1290.405211
1223.3538
1159.455976
1098.623519
1040.768107
985.7982713
933.6512476
884.2355261
837.5127256
792.8936978
5379.64362
5360.583748
5323.807067
5267.588136
5195.942297
5110.491308
5013.125647
4905.508231
4789.346748
4666.327792
4537.800702
4405.247445
4269.76012
4132.484183
3994.348541
3856.093988
3718.491298
3582.031052
3447.171773
3314.346604
3183.846126
3055.880344
2930.639447
2808.305234
2688.991241
2572.765442
2459.693766
2349.822866
2243.245621
2139.938165
2039.923871
1943.218198
1849.843159
1759.826031
1673.136852
1589.762463
1509.681914
1432.90641
1359.403879
1289.121399
1222.0098
1158.036373
1097.136237
1039.221036
984.2037435
932.012482
882.5459833
835.7152605
791.483692
749.3088401
5108.001359
5090.181425
5056.20791
5003.942352
4937.317721
4857.769449
4767.022376
4666.550068
4557.956309
4442.757156
4322.2249
4197.702956
4070.233443
3940.848238
3810.419084
3679.631565
3549.211017
3419.646739
3291.374878
3164.818277
3040.272045
2917.950285
2798.064646
2680.839246
2566.378622
2454.772603
2346.10732
2240.482984
2137.96292
2038.568296
1942.338091
1849.307758
1759.533716
1673.009638
1589.729567
1509.686943
1432.893167
1359.347018
1288.995662
1221.799361
1157.721534
1096.717817
1038.700421
983.586736
931.3031801
881.7599106
834.8403194
790.4611919
748.6101657
708.7285935
4859.062862
4842.33369
4810.781532
4761.938742
4699.662763
4625.24581
4540.243013
4446.02281
4344.070305
4235.768933
4122.309011
4004.9183
3884.554216
3762.175733
3638.588963
3514.450627
3390.473624
3267.093678
3144.744391
3023.864288
2904.714429
2787.544558
2672.586388
2560.082569
2450.112947
2342.806085
2238.277261
2136.655173
2037.979675
1942.309723
1849.702433
1760.220656
1673.905483
1590.750663
1510.76636
1433.966807
1360.37938
1289.952329
1222.656271
1158.454387
1097.320518
1039.168432
983.9201302
931.5015915
881.8372696
834.8074832
790.3063096
748.2812962
708.6563704
670.9328998
4629.563082
4613.79128
4584.336385
4538.489474
4480.028508
4410.1245
4330.207584
4241.541371
4145.492613
4043.337103
3936.16073
3825.114858
3711.072754
3594.945616