/*--------------------------------*- C++ -*----------------------------------*\
  =========                 |
  \\      /  F ield         | OpenFOAM: The Open Source CFD Toolbox
   \\    /   O peration     | Website:  https://openfoam.org
    \\  /    A nd           | Version:  7
     \\/     M anipulation  |
\*---------------------------------------------------------------------------*/
FoamFile
{
    version     2.0;
    format      ascii;
    class       volTensorField;
    location    "0.0003";
    object      grad(U);
}
// * * * * * * * * * * * * * * * * * * * * * * * * * * * * * * * * * * * * * //

dimensions      [0 0 -1 0 0 0 0];

internalField   nonuniform List<tensor> 
14000
(
(-0.002980558475 -1.123487003e-17 -0.000175727958 -2.598578974e-15 -0.004826992334 0 0.0005944357397 -2.910350322e-16 0.00836811527)
(-0.00400646446 -3.808086343e-16 -0.0004605734002 -8.505046452e-16 -0.004247742187 0 0.001558225783 -4.952997525e-16 0.008434690835)
(-0.004042597226 -6.948730738e-16 -0.0007589207908 -2.673724324e-16 -0.004096090451 0 0.002471984783 -6.293781961e-16 0.00858707987)
(-0.004278193581 -7.932498971e-16 -0.001037119415 1.510334117e-17 -0.004111419394 0 0.0034158662 -4.996081595e-16 0.00880888197)
(-0.004486231284 -8.24701499e-17 -0.001321045036 1.811701234e-16 -0.004165910222 0 0.004364368636 -4.125067805e-16 0.009095693073)
(-0.004711615688 4.510686361e-16 -0.001605510399 5.080339243e-17 -0.004237238424 0 0.005310033344 -4.325944482e-16 0.009442561622)
(-0.004968906807 2.816696681e-16 -0.001889245154 0 -0.004322041575 0 0.00625396213 -3.203436784e-16 0.009844499745)
(-0.005253679367 1.826996901e-16 -0.00217343592 -3.15089655e-17 -0.004418462547 0 0.007197280143 -2.241822715e-16 0.01029683551)
(-0.005560263615 1.269724367e-16 -0.002459485142 -4.287779769e-17 -0.004524740008 0 0.008140170004 -1.359419987e-16 0.01079524131)
(-0.00588405477 9.226760362e-17 -0.002748662755 -6.574034658e-17 -0.004639344766 0 0.009082205716 -1.43022443e-16 0.0113357175)
(-0.006220535586 6.614461513e-17 -0.003042202531 -6.1152118e-17 -0.00476091676 0 0.01002242034 -1.436323944e-16 0.01191458349)
(-0.006564975003 4.751473356e-17 -0.003341309968 -4.592268727e-17 -0.004888183217 0 0.01095933595 -1.391221238e-16 0.01252846153)
(-0.006912451451 4.018994839e-17 -0.003647151199 -4.343483604e-17 -0.005019918651 0 0.01189097602 -1.298032378e-16 0.01317425448)
(-0.007257834816 4.043681298e-17 -0.003960836391 -6.201791786e-17 -0.005154924999 0 0.01281491989 -1.484465894e-16 0.01384913524)
(-0.007595757194 3.893466947e-17 -0.004283372944 -5.935846383e-17 -0.005292016841 0 0.01372837678 -1.609536918e-16 0.01455052303)
(-0.007920823008 3.264805215e-17 -0.004615711885 -5.708299158e-17 -0.005430012803 0 0.01462809496 -1.420014489e-16 0.01527605981)
(-0.008227776663 2.555165097e-17 -0.004958870237 -3.674844184e-17 -0.005567752129 0 0.0155103726 -1.468571002e-16 0.01602360225)
(-0.008510636354 2.613830516e-17 -0.005313967534 -3.561626678e-17 -0.005704101903 0 0.01637128206 -1.721435822e-16 0.0167912211)
(-0.008762136996 3.321066766e-17 -0.005682235627 -5.194662477e-17 -0.005837886778 0 0.0172065467 -1.932606063e-16 0.01757720654)
(-0.008974695946 2.801597382e-17 -0.006064916355 -5.065631052e-17 -0.005967863801 0 0.01801147967 -2.106461875e-16 0.01838006203)
(-0.009141241161 1.064054415e-18 -0.006463189333 -6.60358619e-17 -0.006092764224 0 0.01878114409 -2.249221496e-16 0.01919848706)
(-0.009254842365 -4.679881281e-17 -0.006878356044 -6.471571143e-17 -0.006211332225 0 0.01951039262 -2.35992885e-16 0.02003137907)
(-0.00930710654 2.06624417e-16 -0.007311915406 -1.588941146e-17 -0.00632231747 0 0.02019388892 -2.597128188e-16 0.02087784827)
(-0.009288396289 4.518114553e-16 -0.007765219396 -4.690654919e-17 -0.006424393655 0 0.02082610688 -3.05052452e-16 0.02173722026)
(-0.009189622111 4.068529661e-16 -0.00823931613 -7.706574866e-17 -0.006516185049 0 0.02140132852 -3.465713294e-16 0.02260899931)
(-0.009000976429 3.886904399e-16 -0.008734916173 -7.609433151e-17 -0.006596317605 0 0.02191371533 -3.687917371e-16 0.0234928598)
(-0.00871167699 2.198086213e-16 -0.009251985115 -9.029848684e-17 -0.006663354558 0 0.02235733899 -3.900548158e-16 0.0243886219)
(-0.00831061929 5.895829378e-17 -0.009789437429 -8.941983633e-17 -0.006715830317 0 0.02272626191 -3.974277416e-16 0.0252961913)
(-0.007785659613 2.218631638e-16 -0.01034479537 -8.866445155e-17 -0.006752235088 0 0.02301450351 -4.038834101e-16 0.02621551179)
(-0.007124795488 3.818124778e-16 -0.01091387533 -8.802130741e-17 -0.006771006202 0 0.0232160248 -4.227929998e-16 0.02714646767)
(-0.006314702118 2.322286495e-16 -0.01149055791 -8.748085975e-17 -0.006770577186 0 0.02332488784 -4.423029882e-16 0.02808878966)
(-0.005339203887 9.02929518e-17 -0.01206627667 -8.703481266e-17 -0.006749295973 0 0.02333522117 -4.506530873e-16 0.02904193149)
(-0.004181840832 1.158641561e-16 -0.0126297893 -7.222993779e-17 -0.006705406711 0 0.02324119588 -4.590487206e-16 0.03000489819)
(-0.002826628799 1.543602348e-16 -0.01316748986 -1.151971434e-16 -0.006637104461 0 0.02303710995 -4.695519239e-16 0.03097607065)
(-0.001255402313 1.826173167e-16 -0.01366377168 -1.149267157e-16 -0.006542546189 0 0.02271748027 -4.823498899e-16 0.03195304438)
(0.0005528494321 2.011488079e-16 -0.01410123339 -1.14750072e-16 -0.006419785539 0 0.02227702564 -4.958835754e-16 0.0329324637)
(0.002620342356 2.167957584e-16 -0.0144611861 -1.146614276e-16 -0.006266766846 0 0.02171067849 -5.101213332e-16 0.03390987375)
(0.004969965529 2.307529198e-16 -0.01472429334 -1.003237053e-16 -0.006081338863 0 0.021013641 -5.246150683e-16 0.03487963444)
(0.007626503479 2.509960189e-16 -0.01487099287 -1.003872036e-16 -0.005861269026 0 0.02018147636 -5.395243856e-16 0.03583488925)
(0.0106174114 1.413502186e-16 -0.01488144579 -1.00515711e-16 -0.005604211752 0 0.01921012545 -5.557139495e-16 0.03676762544)
(0.01397068599 3.530613556e-17 -0.01473519082 -1.007060803e-16 -0.005307699964 0 0.01809591102 -5.647246514e-16 0.03766878201)
(0.01771468324 6.68858408e-17 -0.0144104366 -1.153777233e-16 -0.004969191748 0 0.01683562188 -5.650497008e-16 0.03852844799)
(0.0218788687 9.56248694e-17 -0.01388251792 -1.012614956e-16 -0.004586064952 0 0.01542657434 -5.574907571e-16 0.03933608333)
(0.02649448419 1.21299691e-16 -0.01312181736 -1.088805081e-16 -0.004155633667 0 0.0138666877 -5.516777733e-16 0.04008074683)
(0.03159299428 1.501905047e-16 -0.01209111175 -1.16610806e-16 -0.003675124049 0 0.01215447807 -5.474416785e-16 0.04075130015)
(0.03718872778 1.831602247e-16 -0.01074327236 -1.098189184e-16 -0.003141735495 0 0.0102891826 -5.447525085e-16 0.04133655154)
(0.04328177968 5.589519296e-17 -0.009021085433 -1.103676776e-16 -0.002553085457 0 0.008271594746 -5.436556128e-16 0.04182535651)
(0.05006844255 -7.30318569e-17 -0.006849105374 -1.072684748e-16 -0.00190712541 0 0.006104311287 -5.349127164e-16 0.04220671175)
(0.05806511282 -4.240853503e-17 -0.004088086889 -1.041755926e-16 -0.001197151044 0 0.003782093348 -5.268919509e-16 0.04246946913)
(0.06465542983 -1.325184333e-17 -0.001266762023 -1.038908519e-16 -0.0004093063243 0 0.001283713411 -5.272945867e-16 0.04260017996)
(-0.007646078195 2.246975733e-15 -0.0005571414174 -5.848031787e-15 -0.01240744651 0 0.0003451549148 6.257661723e-17 0.02173889987)
(-0.01018590906 2.831665963e-15 -0.001325035818 -3.96308859e-15 -0.01090507086 0 0.0009009800249 1.832087329e-16 0.02177270942)
(-0.01004393831 4.493649808e-16 -0.00214019857 -3.42553597e-15 -0.01045288174 0 0.001413442911 -1.585813757e-16 0.02183825733)
(-0.01028520769 -8.464665344e-16 -0.002921726913 -2.116720561e-15 -0.01037898786 0 0.001921665733 -4.302620943e-16 0.02193509879)
(-0.01035254901 -3.748110075e-16 -0.003675300876 -1.520997203e-15 -0.01036597289 5.024197213e-14 0.002404346129 -6.664193366e-16 0.02205947388)
(-0.01036881964 -1.245807685e-15 -0.004392455828 -1.238270038e-15 -0.01036191685 0 0.002851620294 -5.771858452e-16 0.02220751099)
(-0.0103771641 -1.955542052e-15 -0.005071185444 -7.361644596e-16 -0.01036109741 0 0.003259352906 -5.413377874e-16 0.02237568313)
(-0.01037421536 -1.696045222e-15 -0.005711279413 -4.479954361e-16 -0.01036125688 0 0.003624364975 -5.207788003e-16 0.02256052563)
(-0.01035312455 -7.702404427e-16 -0.006313180825 -1.741822401e-16 -0.01036032439 0 0.003943722001 -5.125623107e-16 0.022758586)
(-0.01030846849 -2.777493435e-17 -0.006877783884 -1.869396521e-16 -0.01035661326 0 0.004214880833 -5.087564331e-16 0.02296649945)
(-0.01023488615 -1.011623716e-16 -0.007406212467 -1.490507461e-16 -0.01034865165 0 0.004435779793 -5.135384053e-16 0.02318103422)
(-0.01012691044 -1.71407834e-16 -0.007899635544 -1.165946738e-16 -0.01033510474 0 0.004604838233 -5.248195045e-16 0.02339911303)
(-0.00997917462 5.279137269e-17 -0.008359289125 -1.323338204e-16 -0.01031471086 0 0.004720794467 -4.99291975e-16 0.02361784577)
(-0.009787004912 2.451282054e-16 -0.00878644236 -1.259675221e-16 -0.01028629427 0 0.004782713684 -4.763373202e-16 0.0238345394)
(-0.009545111193 -1.077321174e-16 -0.00918230092 -1.205657794e-16 -0.01024880075 0 0.004790077633 -4.57522949e-16 0.02404672714)
(-0.009246808347 -1.608948902e-16 -0.009548081934 -9.661996689e-17 -0.01020114758 0 0.004742711809 -4.46872641e-16 0.02425218144)
(-0.008886840645 2.735639981e-16 -0.009885094781 -9.330186984e-17 -0.01014220355 0 0.004640783558 -4.381324376e-16 0.02444890822)
(-0.008460936299 4.335920884e-16 -0.0101948393 -1.265982929e-16 -0.01007098436 0 0.004484765542 -4.292136164e-16 0.02463513861)
(-0.007963647041 3.555852536e-16 -0.01047895136 -1.230964502e-16 -0.00998655123 0 0.004275532466 -4.255124154e-16 0.02480933514)
(-0.00739015156 2.97752564e-16 -0.01073908182 -1.20038829e-16 -0.009887966188 0 0.004014550427 -4.252310663e-16 0.02497016337)
(-0.006736474422 2.641638373e-16 -0.0109770506 -1.676606975e-16 -0.009774384674 0 0.003703740334 -4.296382905e-16 0.02511648769)
(-0.00599855973 4.210737057e-16 -0.01119500331 -1.643089226e-16 -0.009645022991 0 0.003345325499 -4.39246536e-16 0.02524735029)
(-0.005173447805 5.540429409e-16 -0.0113953679 -1.290949363e-16 -0.009499157094 8.262075925e-15 0.00294192066 -4.357053456e-16 0.02536192749)
(-0.004258802187 5.186732336e-16 -0.01158064832 -1.90548215e-16 -0.009336180435 0 0.00249674503 -3.835372479e-16 0.02545948661)
(-0.003251951974 3.16059882e-16 -0.01175344694 -2.034914465e-16 -0.00915555988 0 0.002013565184 -3.613186649e-16 0.02553936722)
(-0.002151540282 1.182435124e-16 -0.01191659649 -1.854705489e-16 -0.00895682328 0 0.001496551855 -3.275827291e-16 0.02560091945)
(-0.0009579949925 1.167504294e-16 -0.01207292747 -1.986936483e-16 -0.008739626809 -7.825472916e-15 0.0009504468192 -2.808437765e-16 0.02564346469)
(0.0003278163523 1.071302843e-16 -0.01222522288 -1.816248529e-16 -0.008503758807 0 0.0003804635555 -2.66436014e-16 0.02566628133)
(0.001704981585 9.347473643e-17 -0.01237597246 -1.500754627e-16 -0.008249112972 7.68386369e-15 -0.0002076663363 -2.54205531e-16 0.0256685848)
(0.003171341401 1.01351805e-16 -0.01252695239 -1.787842348e-16 -0.007975673967 0 -0.0008076169002 -2.188373672e-16 0.02564952679)
(0.004722218735 1.214364646e-16 -0.01267889159 -1.77686506e-16 -0.007683557732 -7.581290923e-15 -0.00141263109 -1.858546684e-16 0.02560822164)
(0.006351092668 1.270322249e-16 -0.01283070078 -1.620488088e-16 -0.007373052072 0 -0.002015380709 -1.778480213e-16 0.02554380263)
(0.008050617246 1.346462089e-16 -0.01297864596 -1.613806019e-16 -0.007044607256 0 -0.002607869155 -1.716721724e-16 0.02545552445)
(0.009811770907 1.604201561e-16 -0.01311571932 -1.462389743e-16 -0.006698821248 0 -0.003181588174 -1.806368806e-16 0.02534287167)
(0.01162242929 1.79448831e-16 -0.01323093302 -1.896643778e-16 -0.006336467947 0 -0.003727535136 -1.772599047e-16 0.02520567435)
(0.01346769538 1.879929661e-16 -0.0133088152 -1.893728615e-16 -0.005958536307 0 -0.004236089124 -1.746827996e-16 0.0250442252)
(0.01533047486 1.93377274e-16 -0.0133295493 -1.746706809e-16 -0.005566230446 0 -0.004697018084 -1.610798847e-16 0.0248593847)
(0.01719075422 1.970347698e-16 -0.01326960934 -1.746618996e-16 -0.005160975126 0 -0.005099454197 -1.37077325e-16 0.02465265973)
(0.01902478782 2.102588798e-16 -0.01310321996 -1.747724491e-16 -0.004744437697 0 -0.005432015961 -1.030013874e-16 0.02442625713)
(0.02080545575 2.366037197e-16 -0.01280438843 -1.822876858e-16 -0.004318553903 -7.466503611e-15 -0.005682741911 -7.018617121e-17 0.02418310677)
(0.02250325047 1.0574161e-16 -0.01234946347 -1.68022291e-16 -0.003885525917 0 -0.005839065223 -5.434733719e-17 0.02392688294)
(0.02408543376 -1.801530431e-16 -0.01171988214 -1.611150359e-16 -0.00344780744 0 -0.005887949036 -4.928212154e-17 0.02366201819)
(0.02551517758 -3.055600504e-16 -0.01090465005 -1.689489695e-16 -0.003008126648 0 -0.005815939477 -4.42461356e-17 0.02339374756)
(0.02675177019 -2.812421407e-16 -0.009902677144 -1.621783845e-16 -0.002569493509 0 -0.00560931601 -3.896867022e-17 0.02312819396)
(0.02775113614 -2.614079172e-16 -0.008724576357 -1.480335723e-16 -0.002135207152 0 -0.005254090218 -3.3340306e-17 0.02287249635)
(0.02846844967 -2.434146485e-16 -0.007393681088 -1.487055946e-16 -0.001708842253 0 -0.004736248215 -2.728613255e-17 0.02263500641)
(0.02885189356 -2.24804219e-16 -0.005945727088 -1.41976235e-16 -0.001294181886 -7.651771824e-15 -0.004042892714 -2.065502347e-17 0.02242549173)
(0.02881797443 -2.19481189e-16 -0.004430346658 -1.371129205e-16 -0.0008953753568 0 -0.003162086135 -2.81502265e-17 0.02225523988)
(0.02829095707 -9.121718201e-17 -0.002915380195 -1.313028541e-16 -0.0005174890125 0 -0.002071273331 -2.84348134e-17 0.02213764356)
(0.02747422953 2.021548096e-17 -0.001080947615 -1.306978479e-16 -0.0001655862503 0 -0.0007315548549 -2.832123329e-17 0.02209089546)
(-0.009060673008 -1.280501937e-15 -0.0005467003481 -8.304683218e-16 -0.01475451546 0 2.418231088e-05 1.443166554e-16 0.02718564673)
(-0.0119971678 1.967623544e-15 -0.001258304763 8.256016838e-16 -0.01293988077 0 6.157548736e-05 4.110600847e-16 0.02716986142)
(-0.01170171456 3.800844783e-15 -0.002015147995 -1.251549714e-15 -0.01234951637 -8.688724793e-14 8.922036226e-05 7.197614226e-16 0.02712871689)
(-0.01182461965 3.007995947e-15 -0.002754108791 -1.838136923e-15 -0.0121994754 0 0.0001053033835 4.704296052e-16 0.02706937441)
(-0.01169616032 8.431679344e-16 -0.003462194001 -1.993141457e-15 -0.01210923361 0 0.0001045011782 3.328222592e-16 0.02699319128)
(-0.01146575926 -5.240219276e-16 -0.004130394923 -1.550983735e-15 -0.01201668371 -4.292452283e-14 8.34030737e-05 2.47305286e-16 0.02690147568)
(-0.01118990035 -1.940302921e-16 -0.004756530788 -1.239970384e-15 -0.01191564395 0 3.938229562e-05 -9.116307348e-17 0.02679561196)
(-0.0108692798 -7.381875517e-17 -0.005339085974 -1.104932837e-15 -0.01180455112 0 -2.949560893e-05 -3.713020581e-16 0.02667688025)
(-0.01049994317 1.612323192e-17 -0.005877204082 -9.43439399e-16 -0.01168200636 3.019006077e-14 -0.0001246634579 -6.18102376e-16 0.02654642377)
(-0.0100813056 1.022091135e-16 -0.006370961969 -8.678901868e-16 -0.01154712984 0 -0.0002470637674 -6.501700751e-16 0.0264052627)
(-0.009614069633 2.039481541e-16 -0.006821049915 -7.820886934e-16 -0.01139951753 0 -0.0003969380502 -6.864258098e-16 0.02625431001)
(-0.009097791085 -9.121306863e-17 -0.007228712611 -7.815091316e-16 -0.01123905343 0 -0.0005739909669 -7.294739802e-16 0.02609441851)
(-0.008530973948 -3.901253459e-16 -0.007595661729 -6.495745596e-16 -0.0110656103 1.146835085e-14 -0.0007774476886 -7.778000522e-16 0.02592640695)
(-0.007913195803 -3.338571396e-16 -0.007924076601 -5.970033621e-16 -0.01087907736 0 -0.001006128998 -7.30196657e-16 0.02575105215)
(-0.007244343237 -2.331287728e-16 -0.008216612551 -5.714026479e-16 -0.01067946528 -1.044850556e-14 -0.001258518058 -6.988064326e-16 0.02556912202)
(-0.006524050432 -1.521315981e-16 -0.008476162729 -5.298733213e-16 -0.01046680349 1.004796817e-14 -0.001532593372 -7.02167534e-16 0.02538138318)
(-0.005752181801 -1.399485712e-16 -0.008705798039 -4.54823603e-16 -0.01024116455 9.702903532e-15 -0.001825852928 -6.313163486e-16 0.02518858425)
(-0.00492896606 -8.946799546e-17 -0.008908925415 -4.591781643e-16 -0.01000264726 0 -0.002135555703 -4.940629472e-16 0.02499145578)
(-0.004056727234 -4.534530109e-19 -0.009089093233 -4.286177383e-16 -0.009751406054 0 -0.002458602334 -3.693764495e-16 0.02479067589)
(-0.00313868771 7.534230263e-17 -0.009249790461 -4.17971203e-16 -0.009487779357 0 -0.0027915206 -3.063559956e-16 0.02458685383)
(-0.002176420163 1.514487675e-16 -0.009394425014 -4.086522739e-16 -0.009212179808 0 -0.00313065268 -2.474000809e-16 0.02438052734)
(-0.001171662132 2.141252909e-17 -0.009526078489 -3.504223938e-16 -0.008925004145 8.543631697e-15 -0.003472086914 -1.914595318e-16 0.02417211049)
(-0.0001286116187 -3.96837131e-16 -0.009647295509 -3.60539881e-16 -0.008626711469 0 -0.003811677633 -1.056195023e-16 0.02396185155)
(0.0009472190128 -3.535819813e-16 -0.009759941418 -3.386525444e-16 -0.008317903076 0 -0.004145220256 -4.574969197e-17 0.02374980873)
(0.00205097533 -2.203685715e-16 -0.009864768692 -3.497332285e-16 -0.007999282621 -8.139246046e-15 -0.004468347568 1.174270704e-17 0.02353585129)
(0.003177213367 -5.317217489e-16 -0.009961088118 -2.825384939e-16 -0.007671594792 0 -0.004776511775 3.312698495e-17 0.02331963916)
(0.004319699812 -4.817476922e-16 -0.01004680696 -2.793988063e-16 -0.007335680955 0 -0.005065237762 5.21925133e-17 0.02310061631)
(0.005471998893 -2.536234368e-16 -0.01011828657 -2.613089955e-16 -0.006992436259 0 -0.005330156061 5.394207011e-17 0.02287804166)
(0.006626112415 -3.56517669e-16 -0.01017012809 -2.286190204e-16 -0.006642823745 0 -0.005566891915 5.486946019e-17 0.02265099485)
(0.007773734685 -4.579848031e-16 -0.01019539671 -2.269606897e-16 -0.00628790938 0 -0.005771120342 5.522633945e-17 0.0224184378)
(0.008906804675 -2.748218631e-16 -0.01018612454 -2.105293486e-16 -0.005928803624 0 -0.005938696602 5.62403359e-17 0.02217928197)
(0.01001576236 -8.874408138e-17 -0.01013385583 -1.944947664e-16 -0.005566669366 0 -0.006065752784 7.218544169e-17 0.02193246861)
(0.01109058362 1.556147959e-16 -0.01003026353 -1.936927689e-16 -0.005202754989 0 -0.006148678265 8.723055157e-17 0.021677078)
(0.01212144784 2.254723278e-16 -0.009867882268 -2.079230214e-16 -0.004838349223 0 -0.0061841518 1.161361075e-16 0.02141247373)
(0.01309771161 1.028348187e-16 -0.009640864083 -2.074349177e-16 -0.004474783948 0 -0.006169330811 1.440948811e-16 0.02113843545)
(0.01400829126 -2.279779483e-17 -0.009345347955 -2.071160879e-16 -0.004113439866 0 -0.006101876958 1.716908115e-16 0.02085532082)
(0.01484118591 -3.100732334e-16 -0.008979745171 -1.995648018e-16 -0.003755732179 0 -0.005980043404 1.865048666e-16 0.0205642053)
(0.01558451412 -5.969392783e-16 -0.008544938798 -1.773820168e-16 -0.003403133703 0 -0.00580277655 2.009432892e-16 0.02026699741)
(0.01622707873 -7.174594146e-16 -0.008044154769 -1.55307502e-16 -0.003057122812 0 -0.005569788629 2.03987762e-16 0.01996650934)
(0.01675700854 -5.708768107e-16 -0.007482649206 -1.555063139e-16 -0.002719188397 0 -0.005281693545 2.084195806e-16 0.01966643904)
(0.01716252668 -2.752814631e-16 -0.006867405124 -1.409626568e-16 -0.002390833442 -7.597145294e-15 -0.004940062348 2.247454939e-16 0.01937128869)
(0.01743297494 -9.14866018e-17 -0.006206967712 -1.375930601e-16 -0.002073553319 -7.615961811e-15 -0.004547471703 2.248829612e-16 0.01908617648)
(0.01756000288 -7.143829043e-17 -0.005511251818 -1.305500882e-16 -0.001768809421 0 -0.004107607203 2.000111536e-16 0.01881658537)
(0.01753753304 -5.826567968e-17 -0.004791149026 -1.27271341e-16 -0.001477979928 0 -0.003625313739 1.773450042e-16 0.01856804323)
(0.01736197576 -4.536963523e-17 -0.004058175171 -1.24029667e-16 -0.001202346728 0 -0.0031066654 1.565834454e-16 0.01834576248)
(0.01703449909 -3.2774168e-17 -0.003324061292 -1.208171827e-16 -0.0009430527846 0 -0.002559013675 1.3764027e-16 0.01815426237)
(0.01655868235 6.939422297e-17 -0.002599756072 -1.195236981e-16 -0.0007010366158 0 -0.001990880288 1.204636411e-16 0.01799700244)
(0.01592872036 5.627249031e-17 -0.001894762156 -1.211269149e-16 -0.000477069625 0 -0.001412163581 1.052064134e-16 0.01787608692)
(0.01513994183 -4.026026215e-17 -0.001219241072 -1.184780051e-16 -0.0002720009061 0 -0.0008350113369 9.386083278e-17 0.01779189292)
(0.01441849584 -1.472275732e-17 -0.0004439822026 -1.170466249e-16 -8.649858044e-05 0 -0.0002717976885 9.509152311e-17 0.01774264877)
(-0.008065815379 -6.460289426e-16 -0.0003891232182 -1.737918689e-15 -0.0131202969 0 -0.0001602087948 -2.47528311e-16 0.02647109516)
(-0.0106771623 -1.460207418e-15 -0.0008714268429 3.493580364e-17 -0.01151433964 1.430970517e-13 -0.0004200233492 -7.019778255e-16 0.02644291655)
(-0.01037748393 6.135986819e-16 -0.001386898008 6.893780981e-16 -0.01098889699 0 -0.0006662247255 -2.695510374e-16 0.02637942301)
(-0.01040996886 2.000368445e-15 -0.001900848735 -1.582002848e-16 -0.01083813124 0 -0.0009210482424 6.528976017e-18 0.02628706005)
(-0.01019565561 1.297902849e-15 -0.002393931916 -4.807431956e-16 -0.01072858644 0 -0.001178222285 2.064950346e-16 0.02616831523)
(-0.009872843625 2.157562623e-15 -0.002860480555 -5.959982227e-16 -0.01060862858 0 -0.001435699763 1.473639706e-16 0.02602593929)
(-0.009493338375 2.895449768e-15 -0.003299657693 -9.814985872e-16 -0.01047417967 0 -0.001693874847 1.152760336e-16 0.02586266923)
(-0.009060873883 2.524590819e-15 -0.003710503922 -1.171646842e-15 -0.01032493247 0 -0.001953071358 8.293763469e-17 0.02568115697)
(-0.008574789312 1.432344424e-15 -0.004092340965 -1.257548462e-15 -0.01016060136 0 -0.002213170869 5.602749392e-17 0.02548396448)
(-0.008038150695 5.427018746e-16 -0.00444500686 -1.184389817e-15 -0.009981225392 0 -0.002473613505 3.25997679e-17 0.0252735285)
(-0.007455051262 5.760849679e-16 -0.004768970252 -1.15297061e-15 -0.009787367747 0 -0.002733676195 9.621786101e-18 0.0250521132)
(-0.006828360108 6.183244886e-16 -0.005065276898 -1.106341894e-15 -0.009579725093 -1.23140663e-14 -0.002992568303 4.188016797e-17 0.02482183885)
(-0.006160513994 2.519158639e-17 -0.005335150484 -1.06915403e-15 -0.00935902081 0 -0.003249107526 -8.593129854e-18 0.02458463498)
(-0.005453978047 -4.643048288e-16 -0.005580060504 -1.017719306e-15 -0.009125972586 0 -0.003501875155 -1.910400577e-17 0.02434224162)
(-0.004712115535 -3.550177103e-16 -0.005801770613 -8.911772317e-16 -0.008881307438 0 -0.003749371792 6.236211575e-18 0.02409617182)
(-0.003938797976 -8.052611661e-16 -0.006001984593 -8.171533318e-16 -0.008625836845 0 -0.003989810876 3.062604e-17 0.02384772207)
(-0.003137490641 -1.714990822e-15 -0.006182356703 -6.928602767e-16 -0.008360402396 0 -0.004221285465 4.50166397e-17 0.02359795516)
(-0.002312142696 -2.09221523e-15 -0.006344394256 -5.782482436e-16 -0.008085842093 0 -0.004441805229 5.248853429e-17 0.02334769619)
(-0.001467389829 -1.475631481e-15 -0.006489221937 -4.534300691e-16 -0.007803047393 0 -0.004649245983 8.754902073e-17 0.02309751699)
(-0.0006073765915 -9.232313264e-16 -0.006617726452 -4.067938374e-16 -0.007512945905 0 -0.004841650882 1.234661974e-16 0.02284775651)
(0.0002635441631 -9.06379348e-16 -0.006730308682 -3.285547034e-16 -0.007216444941 0 -0.005017089963 1.81685323e-16 0.0225985186)
(0.001140132825 -1.062260636e-15 -0.006826582168 -3.050397751e-16 -0.006914485541 -8.676686935e-15 -0.00517348143 2.615050689e-16 0.02234968804)
(0.002017585988 -9.943943645e-16 -0.00690552452 -2.662943932e-16 -0.00660804288 0 -0.005308797062 3.003179418e-16 0.02210096939)
(0.002890762492 -7.577452536e-16 -0.006965662996 -1.965294794e-16 -0.006298070931 8.385257789e-15 -0.005421250248 3.130488408e-16 0.02185193396)
(0.003753178562 -5.494818788e-16 -0.007005085223 -1.775899197e-16 -0.005985563132 -8.266003537e-15 -0.005509261169 3.666454504e-16 0.0216020609)
(0.004599254352 -3.43354961e-16 -0.007021451436 -1.75351391e-16 -0.005671564307 -8.1618102e-15 -0.005571323687 3.687049373e-16 0.02135082708)
(0.00542454704 -1.257416698e-16 -0.007012311229 -1.5763892e-16 -0.005357077957 0 -0.005606151855 3.416046932e-16 0.02109778173)
(0.006223173619 7.075032846e-17 -0.006975195293 -1.561050126e-16 -0.005043078188 0 -0.005612662642 3.341689925e-16 0.02084260328)
(0.00698842246 7.155843057e-17 -0.006907773352 -1.547862968e-16 -0.004730579704 0 -0.005589977969 3.290464007e-16 0.02058518097)
(0.007714410554 7.615648359e-17 -0.006808232633 -1.459803492e-16 -0.00442060267 0 -0.005537554277 3.141370196e-16 0.02032569698)
(0.008395532587 -9.59869295e-17 -0.006675320799 -1.450840351e-16 -0.004114147594 0 -0.005455120441 3.021048175e-16 0.02006466556)
(0.009025470362 -2.636123047e-16 -0.006508285239 -1.367472138e-16 -0.003812199552 0 -0.005342644257 3.035264444e-16 0.0198029572)
(0.009597529808 -4.279298363e-16 -0.006307106416 -1.059203738e-16 -0.003515753458 7.747318773e-15 -0.005200486194 2.948532647e-16 0.01954178668)
(0.01010657851 -5.764657735e-16 -0.006072496072 -1.206635055e-16 -0.003225798467 -7.722464355e-15 -0.00502930345 3.166546833e-16 0.01928269266)
(0.010547759 -5.563398316e-16 -0.005805812497 -9.780894939e-17 -0.002943258802 0 -0.004830075569 3.183545145e-16 0.01902746266)
(0.0109157904 -3.839805902e-16 -0.005509052114 -9.014641471e-17 -0.00266904242 -7.692494055e-15 -0.004604173495 3.229171658e-16 0.01877805013)
(0.01120674693 -2.15918901e-16 -0.005184780043 -8.257037857e-17 -0.002404016146 -7.686551605e-15 -0.004353284765 3.092773839e-16 0.01853649546)
(0.01141744048 -5.728471835e-17 -0.004836178582 -7.506020677e-17 -0.002148980802 -7.686165173e-15 -0.004079510454 2.779921602e-16 0.01830482375)
(0.01154542326 8.909505993e-17 -0.004466897756 -7.135232921e-17 -0.001904678181 0 -0.003785276258 2.29214559e-16 0.01808496076)
(0.01158938932 -7.985269413e-17 -0.004081008247 -6.76834755e-17 -0.001671771416 0 -0.00347333611 1.844947331e-16 0.01787866123)
(0.0115492257 -1.401926664e-16 -0.003682944358 -6.404434833e-17 -0.001450840442 7.715460316e-15 -0.003146773866 1.496155877e-16 0.01768745204)
(0.01142617318 1.994946571e-16 -0.003277374468 -6.42029726e-17 -0.001242366526 0 -0.002808961857 1.358614973e-16 0.01751258616)
(0.01122232475 4.275661037e-16 -0.002869075047 -7.007970469e-17 -0.001046726757 0 -0.002463524533 1.242693831e-16 0.01735500867)
(0.01094066062 4.012587951e-16 -0.002462755989 -7.603142114e-17 -0.0008641986793 0 -0.002114213438 1.226515585e-16 0.01721533448)
(0.01058582681 3.744823858e-16 -0.002062937879 -8.015716379e-17 -0.0006949554103 0 -0.00176482716 1.127934465e-16 0.01709384273)
(0.01016415506 3.461161994e-16 -0.001673739162 -8.339680196e-17 -0.0005390492375 0 -0.001419080556 1.121234032e-16 0.01699044824)
(0.009680268228 3.160421535e-16 -0.001298733975 -8.670365304e-17 -0.0003964104714 0 -0.001080524717 1.11928804e-16 0.01690462255)
(0.009129513608 2.324244569e-16 -0.0009411657365 -9.05649091e-17 -0.0002669249223 0 -0.000752628278 1.178196266e-16 0.016835566)
(0.008499709052 8.039350225e-17 -0.0006048679573 -9.085127482e-17 -0.0001506168847 0 -0.0004390136402 1.118771635e-16 0.01678359395)
(0.00797352971 -1.599364218e-18 -0.0002207151998 -8.970355431e-17 -4.764576567e-05 0 -0.0001421884932 1.071470937e-16 0.0167517305)
(-0.00632227329 3.491846366e-15 -0.0002492328184 -7.708828771e-15 -0.01031400403 0 -0.0001989369705 -6.43590258e-17 0.02413644866)
(-0.00834122251 8.617730324e-16 -0.0005423340973 -5.659040923e-15 -0.009035344543 0 -0.0005213230629 -1.813510824e-16 0.02411385596)
(-0.008069722389 -1.188002022e-15 -0.0008573578081 -2.691063984e-15 -0.008601354653 0 -0.0008243530544 -3.233087553e-16 0.02406525555)
(-0.008057349928 -4.307176849e-16 -0.001179024964 -1.751237983e-15 -0.008464665721 0 -0.001132639438 -1.572815865e-16 0.02399414)
(-0.007841276064 -4.479290386e-17 -0.001488867101 -1.336208709e-15 -0.008359167386 0 -0.001436260039 -5.269298627e-17 0.0239024307)
(-0.007530709841 1.945754186e-16 -0.001783989929 -1.124091558e-15 -0.008243438761 0 -0.001731188796 1.428363232e-17 0.02379225937)
(-0.007166929192 3.505788306e-16 -0.00206433723 -1.015591315e-15 -0.008113938248 0 -0.002016643961 2.139261534e-16 0.02366565393)
(-0.006754717878 4.297129022e-16 -0.002329445407 -9.217485776e-16 -0.007970447641 0 -0.002292060024 3.74304539e-16 0.02352457618)
(-0.006297165996 4.397865581e-16 -0.002578936714 -8.818299548e-16 -0.007813034519 0 -0.002556670737 5.048165008e-16 0.02337089982)
(-0.005798869234 4.875317291e-16 -0.002812536368 -8.391872425e-16 -0.007642370949 0 -0.00280945603 6.387433625e-16 0.02320639801)
(-0.005263051966 1.149581515e-16 -0.003030299275 -7.936279815e-16 -0.007459281899 0 -0.003049545646 7.510012993e-16 0.02303274066)
(-0.004694014722 9.872756041e-17 -0.003232502894 -7.327641111e-16 -0.007264578972 0 -0.003276130587 8.487524258e-16 0.02285142436)
(-0.004096630978 1.312811066e-16 -0.003419350728 -7.046178936e-16 -0.00705928493 -1.182833972e-14 -0.003488238298 9.375337658e-16 0.02266377656)
(-0.003474548527 -4.760670465e-16 -0.003590990742 -6.487294e-16 -0.006844421101 0 -0.003684822771 9.622405232e-16 0.02247096652)
(-0.002832546647 -6.803747592e-16 -0.003747595022 -5.893388446e-16 -0.006620961562 -1.077648173e-14 -0.003864920882 9.911333104e-16 0.02227396922)
(-0.002175726579 -5.136538951e-16 -0.003889252377 -5.060240019e-16 -0.006390000961 -1.036337156e-14 -0.004027631064 9.9166894e-16 0.02207357365)
(-0.001507896622 -3.656830105e-16 -0.004015770829 -4.495545601e-16 -0.006152599668 -1.000747543e-14 -0.004172001298 9.131137791e-16 0.02187041754)
(-0.0008335974094 -5.299786676e-16 -0.004126808793 -4.167606613e-16 -0.005909760454 0 -0.004297171372 7.290395035e-16 0.02166497464)
(-0.0001571736746 -7.087073874e-16 -0.004221896261 -3.591834593e-16 -0.005662528986 1.886173653e-14 -0.004402420839 5.567448912e-16 0.02145759008)
(0.0005175636548 -8.712862997e-16 -0.004300345825 -3.233184167e-16 -0.005411877184 0 -0.004487099116 4.896141244e-16 0.02124851219)
(0.001185274871 -1.253428986e-15 -0.004361194398 -2.546440302e-16 -0.005158764176 0 -0.004550567582 4.199035472e-16 0.02103789814)
(0.001840622938 -1.197664407e-15 -0.004403375533 -1.893163232e-16 -0.00490420593 0 -0.004592327014 3.790566073e-16 0.02082587067)