/*--------------------------------*- C++ -*----------------------------------*\
  =========                 |
  \\      /  F ield         | OpenFOAM: The Open Source CFD Toolbox
   \\    /   O peration     | Website:  https://openfoam.org
    \\  /    A nd           | Version:  7
     \\/     M anipulation  |
\*---------------------------------------------------------------------------*/
FoamFile
{
    version     2.0;
    format      ascii;
    class       volVectorField;
    location    "0.0003";
    object      grad(generalizedNewtonian:nu);
}
// * * * * * * * * * * * * * * * * * * * * * * * * * * * * * * * * * * * * * //

dimensions      [0 1 -1 0 0 0 0];

internalField   nonuniform List<vector> 
14000
(
(-10929909.28 0 124220435.9)
(-12141579.79 0 118426807.5)
(-20238989.76 0 117986519.7)
(-30668272.51 0 110101512.9)
(-34856771.2 0 101693952.9)
(-38233185.59 0 92785278.43)
(-40477899.61 0 83605848.09)
(-41535989.43 0 74546148.69)
(-41656941.11 0 65886373.69)
(-41088512.07 0 57786854.4)
(-40024966.35 0 50324362.09)
(-38619558.8 0 43518628.26)
(-36991585.8 0 37352297.84)
(-35231286.2 0 31786482.37)
(-33405791.05 0 26771103.09)
(-31564605.22 0 22251524.26)
(-29738302.05 0 18173965.65)
(-27939242.15 0 14489059.48)
(-26177262.82 0 11152703.61)
(-24469579.69 0 8125660.581)
(-22831313.55 0 5373325.216)
(-21264102.92 0 2866178.675)
(-19765044.73 0 580582.8976)
(-18344205.74 0 -1502100.95)
(-17015975.79 0 -3396706.701)
(-15792210.91 0 -5114013.036)
(-14692272.66 0 -6661231.844)
(-13741484.75 0 -8043070.951)
(-12972301.86 0 -9262338.412)
(-12422423.43 0 -10320855.65)
(-12129303.35 0 -11220644.62)
(-12139890.52 0 -11965007.72)
(-12508030.94 0 -12559283.57)
(-13278204.11 0 -13011375.93)
(-14482922.4 0 -13332306.08)
(-16143294.22 0 -13536076.41)
(-18257642.11 0 -13639034.33)
(-20791188.09 0 -13659709.67)
(-23674124.32 0 -13618846.38)
(-26795839.71 0 -13539303.56)
(-30003191.03 0 -13445797.17)
(-33116127.7 0 -13365365.91)
(-35952434.94 0 -13327432.35)
(-38345885.59 0 -13362833.47)
(-40110647.29 0 -13502221)
(-41085873.08 0 -13772879.9)
(-41823226.52 0 -14199463.71)
(-43641603.06 0 -14824208.41)
(-39306187.7 0 -15704730.24)
(-27403382.36 0 -16593373.93)
(-2665732.074 0 45421003.95)
(267028.6454 0 44554170.74)
(-106789.4941 0 43611583.28)
(-2288725.445 0 41723210.07)
(-2211793.61 -2.107301047e-07 39510308.46)
(-2416239.914 0 37052198.76)
(-2672339.097 0 34432577.43)
(-2839128.836 0 31738657.99)
(-2914174.721 0 29038293.97)
(-2907419.104 0 26380013.77)
(-2824207.413 0 23797530.75)
(-2670612.592 0 21312855.57)
(-2456091.051 0 18939211.21)
(-2188632.088 0 16684055.63)
(-1870756.821 0 14550925.35)
(-1512915.841 0 12540693.73)
(-1134939.882 0 10652792.96)
(-751095.8053 0 8886667.936)
(-376891.2011 0 7242760.006)
(-36991.59285 0 5721677.067)
(241363.3855 0 4323484.035)
(426391.1768 0 3048273.759)
(482101.8758 0 1896683.565)
(373020.5934 0 868783.7684)
(60604.10728 0 -37421.70905)
(-493489.875 0 -826059.6817)
(-1318032.14 6.564482471e-08 -1503903.967)
(-2428483.049 0 -2080996.875)
(-3823186.756 -6.445692042e-08 -2571069.522)
(-5475120.258 0 -2991567.104)
(-7324379.802 6.359647769e-08 -3362664.611)
(-9281425.221 0 -3707086.291)
(-11234810.05 0 -4049737.049)
(-13054300.01 0 -4416469.444)
(-14603295.07 0 -4833176.407)
(-15761983.22 0 -5325028.138)
(-16438733.26 0 -5916069.708)
(-16571270.39 0 -6627690.399)
(-16131388.24 0 -7477345.46)
(-15129436.82 3.131678596e-08 -8478626.896)
(-13598476.7 0 -9639926.334)
(-11569294.57 0 -10963180.25)
(-9062581.978 0 -12443130.86)
(-6085756.379 0 -14068137.91)
(-2641275.134 0 -15820949.53)
(1328934.39 0 -17675194.58)
(6173562.497 3.209385717e-08 -19600333.02)
(12214997.4 0 -21609222.95)
(17177076.5 0 -23753704.52)
(17713505.91 0 -25439871.93)
(-1441883.062 0 4270826.353)
(1624653.134 0 4140465.861)
(2000194.701 3.644315315e-07 4060659.733)
(923505.6976 0 3817324.24)
(1640697.858 0 3523601.741)
(2090630.04 3.600769956e-07 3179480.56)
(2444868.55 0 2787836.759)
(2816611.154 0 2356757.857)
(3204659.06 -1.266262926e-07 1894240.52)
(3593650.961 0 1408426.336)
(3977479.244 0 907525.9816)
(4354377.385 0 399289.144)
(4716064.432 -9.620349965e-08 -108962.2164)
(5048503.943 0 -610366.9132)
(5338349.441 8.764841734e-08 -1097900.825)
(5570564.547 -8.428846614e-08 -1564388.983)
(5725716.587 -8.139385419e-08 -2003791.212)
(5779702.036 0 -2411141.139)
(5709036.466 0 -2782211.728)
(5497472.469 0 -3114367.083)
(5132113.698 0 -3407026.456)
(4602163.801 0 -3661954.886)
(3907475.203 0 -3883758.233)
(3063698.357 0 -4079751.253)
(2101359.464 6.827694449e-08 -4260111.631)
(1063683.086 0 -4437772.352)
(4002.037315 0 -4627452.745)
(-1012425.483 0 -4845417.623)
(-1915298.161 0 -5108613.055)
(-2643792.93 0 -5432903.549)
(-3143985.369 0 -5831798.452)
(-3371956.293 0 -6315548.038)
(-3305510.007 0 -6890190.673)
(-2936757.386 0 -7556060.818)
(-2265953.523 0 -8308019.031)
(-1297478.612 0 -9136513.87)
(-41324.21313 0 -10027881.64)
(1482315.67 0 -10965889.03)
(3264385.481 0 -11933001.32)
(5309171.138 0 -12911342.14)
(7614528.228 6.372947379e-08 -13883822.03)
(10162013.31 6.388731818e-08 -14833943.49)
(12921628.71 0 -15745606.9)
(15857019.28 0 -16602564.46)
(18891101.7 0 -17386961.52)
(21929988.47 0 -18079425.68)
(25057417.07 0 -18658458.8)
(28376295.29 0 -19094016.86)
(28292252.53 -3.296253651e-08 -19358557.9)
(22735679.96 0 -19380243.21)
(-1260735.375 0 -4825969.301)
(1757877.452 -6.001925364e-07 -4878970.409)
(2445045.789 0 -4870101.751)
(1783742.451 0 -4936312.787)
(2697583.382 0 -5010961.199)
(3340182.513 0 -5095713.507)
(3874335.461 0 -5191758.894)
(4397688.539 0 -5296063.249)
(4905001.274 0 -5404655.548)
(5377397.918 0 -5514050.54)
(5805652.128 0 -5621542.387)
(6183997.402 1.032978751e-07 -5724024.058)
(6503604.321 0 -5818247.681)
(6751888.571 0 -5902054.499)
(6916248.994 0 -5973877.489)
(6988139.983 0 -6032970.522)
(6961319.695 0 -6080020.837)
(6832398.513 0 -6117103.994)
(6603231.45 0 -6148066.016)
(6281333.344 0 -6178230.853)
(5881966.133 0 -6214084.525)
(5427442.375 7.278532544e-08 -6263364.647)
(4943857.443 0 -6334450.035)
(4462912.353 0 -6435520.093)
(4018748.12 6.93402634e-08 -6573997.456)
(3638720.846 0 -6755828.185)
(3350518.408 0 -6984834.779)
(3185683.9 0 -7262578.408)
(3164154.531 0 -7587523.89)
(3294716.959 0 -7955169.572)
(3589514.032 0 -8359317.055)
(4062078.961 0 -8791791.569)
(4709534.793 -6.498922023e-08 -9243004.809)
(5522221.999 6.478072627e-08 -9703433.981)
(6503164.906 0 -10163157.5)
(7647036.539 6.452931717e-08 -10612631.97)
(8937212.21 6.447946828e-08 -11042617.74)
(10359730.37 6.447622666e-08 -11444032.6)
(11894029.98 0 -11808472.18)
(13509419.66 0 -12127256.63)
(15165714.27 -6.472197213e-08 -12391397.26)
(16819327.09 0 -12591539.3)
(18425058.19 0 -12718752.56)
(19918334.85 0 -12765348.4)
(21214191.93 0 -12725635.71)
(22273484.53 0 -12595940.1)
(23222507.25 0 -12367950.6)
(24229154.64 6.656227983e-08 -12024197.33)
(22208667.75 0 -11566900.98)
(15962978.66 0 -11117094.25)
(-884144.025 0 -7602369.241)
(1860370.616 0 -7653567.309)
(2491856.716 0 -7589008.362)
(1972234.482 0 -7599595.266)
(2848959.171 0 -7596209.244)
(3485695.748 0 -7584093.417)
(4017179.06 0 -7567236.698)
(4516947.372 0 -7544503.541)
(4977624.601 0 -7513907.527)
(5390802.405 1.201427254e-07 -7474403.022)
(5750176.872 0 -7426060.693)
(6046657.977 0 -7368879.116)
(6277375.121 9.922330522e-08 -7303088.394)
(6440152.625 0 -7230109.152)
(6532330.79 9.039968085e-08 -7152340.703)
(6558309.907 8.693426157e-08 -7072664.43)
(6524804.639 8.394878842e-08 -6994653.605)
(6439254.956 0 -6922566.601)
(6312802.938 -7.911185696e-08 -6860810.091)
(6160305.891 0 -6813879.159)
(6000017.248 0 -6786040.976)
(5848963.562 0 -6780619.388)
(5721339.837 -7.259610334e-08 -6799827.334)
(5632936.556 0 -6844870.279)
(5600014.734 0 -6915318.721)
(5634758.714 0 -7009471.228)
(5747958.739 -6.875981844e-08 -7125027.398)
(5947484.165 0 -7258030.928)
(6233524.376 0 -7403299.364)
(6608303.722 0 -7555510.079)
(7074642.523 6.661427277e-08 -7709128.593)
(7625600.956 0 -7857781.793)
(8254906.41 6.600133733e-08 -7994683.463)
(8952932.503 0 -8114141.941)
(9705744.406 0 -8210011.804)
(10503818.8 -6.553427191e-08 -8275660.76)
(11329080.05 0 -8305783.577)
(12158677.49 -6.548035459e-08 -8294879.8)
(12974568.51 0 -8237431.723)
(13757674.33 6.560567497e-08 -8129447.821)
(14479947.86 0 -7967922.197)
(15106998.35 -6.58927263e-08 -7750187.701)
(15616811.73 0 -7474545.921)
(16006321.66 0 -7143140.122)
(16247232.45 0 -6767187.455)
(16192054.72 0 -6359742.128)
(15685495.78 6.723356492e-08 -5818344.18)
(14985818.08 0 -4701224.12)
(12854402.87 0 -1923477.214)
(8476117.447 0 1358000.499)
(-727099.1361 0 -7637403.774)
(1508206.153 0 -7685463.107)
(2135439.93 0 -7576598.18)
(1828405.902 0 -7555313.326)
(2581235.935 0 -7507556.271)
(3123854.411 0 -7441898.647)
(3573011.394 0 -7364332.776)
(3983447.047 0 -7274851.654)
(4349863.651 0 -7173936.881)
(4668573.474 0 -7062629.587)
(4937916.755 1.134980504e-07 -6941817.861)
(5153385.99 0 -6813398.269)
(5318545.175 1.007685705e-07 -6679629.112)
(5440295.161 9.592080917e-08 -6542639.389)
(5520650.041 0 -6405250.183)
(5564386.013 0 -6270367.888)
(5581277.691 0 -6140468.59)
(5579796.554 8.262953467e-08 -6017928.839)
(5568825.118 0 -5904784.147)
(5559517.459 7.834823327e-08 -5802550.713)
(5560522.255 7.660141045e-08 -5711963.516)
(5577976.352 0 -5632755.745)
(5619708.331 0 -5564196.274)
(5691950.643 0 -5505157.721)
(5798752.658 -7.151683797e-08 -5453516.552)
(5946404.977 0 -5406495.324)
(6135330.046 0 -5361085.391)
(6361003.779 0 -5313728.369)
(6622281.088 0 -5260620.356)
(6917278.716 0 -5198196.138)
(7238443.379 0 -5122342.029)
(7576012.017 -6.730675541e-08 -5029074.296)
(7926729.81 0 -4914864.45)
(8279760.09 0 -4775806.046)
(8617000.804 0 -4608891.707)
(8934605.759 0 -4411255.885)
(9221126.482 0 -4179919.066)
(9450571.389 0 -3912979.936)
(9614050.806 0 -3608993.458)
(9707595.316 0 -3266709.347)
(9703049.714 0 -2885883.592)
(9570023.544 0 -2468545.192)
(9330605.019 6.712173975e-08 -2012322.002)
(9116824.434 -6.736057449e-08 -1510008.238)
(9021327.35 1.352682006e-07 -965635.8117)
(7206619.479 0 -185141.5998)
(-3635288.345 0 1666108.333)
(-39965340.3 0 4670444.165)
(-78986035.18 0 8086718.338)
(-77201699.81 3.474251253e-08 10595331.38)
(-393833.7967 0 -6259006.872)
(1220853.418 0 -6305418.057)
(1661643.338 0 -6191486.726)
(1462102.214 0 -6157216.688)
(2016360.929 0 -6093833.589)
(2421914.808 0 -6011727.096)
(2754872.549 0 -5917050.312)
(3052507.983 0 -5810987.857)
(3315676.698 1.347005998e-07 -5694887.777)
(3539505.211 0 -5570664.871)
(3725736.664 0 -5439725.829)
(3877484.345 0 -5303933.021)
(3995566.702 1.023379018e-07 -5165633.009)
(4084938.155 0 -5026456.892)
(4151900.966 0 -4887853.425)
(4200458.608 0 -4751421.461)
(4235392.989 -8.658392149e-08 -4618352.316)
(4262595.755 0 -4489354.398)
(4287487.368 0 -4364846.505)
(4314446.314 0 -4244743.573)
(4345617.192 7.779437162e-08 -4128448.31)
(4383943.873 0 -4015150.563)
(4434527.424 -7.487487825e-08 -3903838.863)
(4497734.715 0 -3792989.885)
(4570751.519 0 -3680957.439)
(4653588.644 0 -3565881.233)
(4744951.886 -7.091817325e-08 -3445420.662)
(4839796.591 0 -3317559.534)
(4933685.342 0 -3180254.867)
(5020247.499 0 -3031401.861)
(5092190.595 0 -2868864.11)
(5143922.336 0 -2690888.534)
(5164510.814 0 -2495895.84)
(5145406.039 0 -2281919.107)
(5080133.097 6.769542619e-08 -2047910.683)
(4954644.032 0 -1793067.18)
(4758774.01 6.753916323e-08 -1516144.644)
(4485449.757 0 -1217112.127)
(4122035.111 1.35157027e-07 -897545.1223)
(3663344.727 0 -557263.5226)
(3125596.11 6.779317443e-08 -180826.5643)
(2442664.204 0 237046.3671)
(1456218.537 0 561899.5828)
(255162.8729 0 924036.1012)
(-4080234.871 -6.868740801e-08 2344447.783)
(-24991919.27 0 5031207.461)
(-61585964.86 0 7812421.42)
(-89314227.43 3.486040442e-08 8579573.762)
(-85537926.46 0 5499102.489)
(-58392033.78 0 1299967.304)
(-258044.0346 0 -4272642.699)
(828667.3467 0 -4302655.349)
(1184887.496 0 -4211697.868)
(1121196.468 0 -4182429.865)
(1528469.291 0 -4131370.248)
(1827949.673 0 -4066878.324)
(2076120.265 0 -3993626.085)
(2297255.335 3.015809248e-07 -3913489.656)
(2492854.35 1.367983755e-07 -3827573.972)
(2660577.608 0 -3737291.895)
(2800078.627 0 -3644394.401)
(2915915.417 0 -3550070.352)
(3011195.126 0 -3455542.396)
(3087209.516 0 -3362037.428)
(3147280.586 0 -3270336.698)
(3195254.337 -9.105948692e-08 -3180993.593)
(3234303.781 0 -3094396.084)
(3266918.589 0 -3010675.115)
(3295203.776 0 -2929728.172)
(3320913.233 0 -2851193.069)
(3345437.557 0 -2774519.963)
(3370135.326 0 -2699199.266)
(3394693.405 -7.604095099e-08 -2624404.635)
(3417525.911 0 -2549010.087)
(3437278.086 0 -2472094.814)
(3450723.768 0 -2392717.404)
(3454194.768 0 -2309800.144)
(3443580.847 7.132180875e-08 -2222321.406)
(3414024.369 0 -2129437.975)
(3359697.017 0 -2030264.584)
(3274202.271 0 -1924218.65)
(3151479.057 6.941949927e-08 -1810749.181)
(2982880.046 0 -1689400.762)
(2761514.483 -6.891146e-08 -1560211.611)
(2481214.816 0 -1423102.897)
(2133508.952 -6.864401984e-08 -1278801.011)
(1715223.199 0 -1129710.079)
(1236258.118 0 -974658.3643)
(685480.2102 0 -790285.3092)
(-175740.7124 0 -576852.0162)
(-1453333.036 0 -546950.1428)
(-1044440.939 0 -547088.2561)
(-716363.8153 6.922867601e-08 624760.3673)
(-17463116.87 0 3143478.38)
(-53004761.6 0 5582890.74)
(-76805770.55 7.007379315e-08 6049227.429)
(-59297870.56 0 3593550.088)
(-3214794.79 0 -596855.8465)
(38735050.27 0 -5058129.998)
(38601773.27 -3.583307216e-08 -8293834.792)
(-96333.88703 -3.794787188e-06 -2407487.803)
(645422.5271 1.296813824e-06 -2427218.263)
(898172.9559 0 -2369140.243)
(890087.5487 0 -2347909.814)
(1193142.161 0 -2311765.533)
(1427309.058 0 -2266868.191)
(1628396.088 0 -2216420.565)
(1811084.939 3.062776283e-07 -2161752.621)
(1974425.17 0 -2103950.523)
(2119540.408 2.556072167e-07 -2043960.428)
(2247420.469 1.188837867e-07 -1982875.334)
(2358447.854 0 -1921702.377)
(2454832.735 1.055502645e-07 -1861019.272)
(2538819.295 0 -1801383.503)
(2612000.96 0 -1743260.809)
(2675678.774 -9.24776118e-08 -1686922.894)
(2731384.841 0 -1632441.97)
(2780893.452 -8.655049082e-08 -1579713.881)
(2825153.074 0 -1528524.226)
(2864189.044 -1.641320642e-07 -1478602.873)
(2898358.954 0 -1429586.659)
(2927319.203 0 -1381000.217)
(2949360.964 7.722518305e-08 -1332274.331)
(2962913.593 0 -1282908.555)
(2965846.183 7.491047182e-08 -1232433.013)
(2955369.831 0 -1180351.379)
(2928111.095 0 -1126384.126)
(2880252.052 0 -1070232.653)
(2807559.736 -7.182066412e-08 -1011836.45)
(2705448.528 0 -951184.4226)
(2569306.142 0 -888544.1838)
(2394117.381 0 -824263.1563)
(2175163.623 0 -758993.5314)
(1907839.242 0 -694401.1289)
(1594037.203 0 -633530.1443)
(1251164.467 0 -573847.45)
(845988.2505 -6.965920166e-08 -485929.5317)
(35075.70168 0 -379150.7369)
(-1184274.029 -1.393995743e-07 -519205.8715)
(371003.5846 0 -712893.7635)
(2653893.228 0 369463.8257)
(-14199207.77 -7.009436616e-08 2878238.86)
(-51319917.9 0 5302475.13)
(-71815680.55 0 5778793.177)
(-47300843.55 0 3493637.963)
(4740672.295 0 -445410.153)
(40635523.81 3.576035158e-08 -4392213.677)
(47109847.08 0 -6716380.998)
(38514476.13 0 -6885459.049)
(29212174.79 -3.639112243e-08 -6125364.385)
(-64333.4554 0 -1156434.248)
(470917.0017 1.317009914e-06 -1162740.327)
(685880.8963 8.121304784e-07 -1124571.787)
(719467.782 0 -1105284.243)
(960352.4011 0 -1075641.732)
(1150355.757 0 -1039129.369)
(1316357.641 0 -997848.6492)
(1469867.705 0 -952353.6711)
(1610549.537 0 -903373.2577)
(1737096.901 0 -851725.9385)
(1850422.147 0 -797864.5877)
(1951784.995 0 -742229.1555)
(2041508.441 0 -685220.1499)
(2120485.005 0 -627073.4205)
(2190098.963 0 -567918.679)
(2251199.179 0 -507785.5204)
(2303895.074 0 -446632.7239)
(2348180.226 0 -384343.1242)
(2384540.727 -8.546703297e-08 -320719.6037)
(2413121.32 0 -255520.0619)
(2433083.512 -8.14858888e-08 -188526.743)
(2443391.123 0 -119481.118)
(2442949.942 0 -48190.49054)
(2430554.185 0 25461.16149)
(2404313.193 0 101528.7058)
(2362423.32 0 179929.4024)
(2302742.359 0 260467.1536)
(2223146.634 0 342754.9117)
(2121580.774 0 426269.8413)
(1995780.999 0 510315.3662)
(1843448.548 0 593966.9181)
(1663296.106 0 675103.8292)
(1462775.614 0 750136.3341)
(1264883.602 0 822907.0068)
(1014746.519 0 927719.4587)
(301763.6351 0 1048062.797)
(-738002.7668 0 878982.0611)
(1690789.254 0 628704.0256)
(5002578.152 0 1670097.05)
(-12182694.52 0 4151076.851)
(-50100088.59 0 6602101.167)
(-69002933.12 0 7167445.437)
(-41699737.34 0 4964152.263)
(8065239.461 0 1073500.47)
(37869516.93 3.597338968e-08 -2594442.889)
(41201948.31 7.227339338e-08 -4390815.443)
(36494107.64 0 -4403387.246)
(35423757.02 3.651460869e-08 -3509915.601)
(29278954.63 0 606285.4618)
(-16395575.51 0 6855766.585)
(-35660.89537 0 -371065.861)
(377568.9751 1.337520512e-06 -371604.2877)
(535189.6295 8.247782813e-07 -346847.2553)
(554672.9734 0 -327362.5886)
(737207.8749 0 -299455.7627)
(883508.8817 0 -265279.2101)
(1011311.23 0 -226019.0502)
(1127357.863 0 -182183.6892)
(1233089.464 0 -134134.0491)
(1327998.464 0 -82177.12329)
(1410829.12 0 -26735.3888)
(1481914.856 0 31873.87532)
(1542136.008 0 93409.68693)
(1591821.196 0 157711.6925)
(1631021.693 0 224739.1586)
(1659668.932 9.538046276e-08 294516.3327)
(1678000.85 0 367026.6739)
(1686318.325 0 442194.8156)
(1684292.096 0 519987.692)
(1671530.824 0 600470.751)
(1647941.772 0 683608.0645)
(1613139.879 0 769279.3224)
(1566495.586 0 857394.5889)
(1507555.195 0 947664.4607)
(1436014.181 0 1039739.305)
(1351567.794 0 1133174.382)
(1254085.014 -7.544026007e-08 1227478.406)
(1143444.37 0 1322048.444)
(1019220.687 0 1416112.4)
(881905.0843 0 1507657.152)
(743751.8187 0 1593182.687)
(631647.5017 0 1677768.524)
(474822.6744 0 1799543.648)
(-176821.3732 0 1940558.619)
(-1090138.868 0 1774015.812)
(1881835.976 0 1502598.469)
(6004276.458 0 2501680.485)
(-10121703.99 0 4938065.968)
(-46422442.62 0 7400768.006)
(-64087720.45 0 8026447.728)
(-37833293.66 0 5861100.141)
(7667970.56 0 1972010.526)
(33160051.95 -3.625686558e-08 -1579646.658)
(35514265.47 0 -3111287.265)
(31813141.44 0 -3012323.419)
(31307868.02 3.669947549e-08 -2186443.696)
(27300956.58 0 1830902.932)
(-29554880.25 0 8293992.477)
(-121909972.1 0 14256224.61)
(-158505094.9 -3.753343139e-08 18924968.86)
(-58834.07267 0 130016.6485)
(281487.5759 0 134015.2655)
(402771.7386 1.67524612e-06 150351.8193)
(400602.8709 0 168196.1732)
(539010.9992 0 191946.3202)
(644472.5591 0 220711.5577)
(734124.715 0 254079.2814)
(814549.1942 0 291530.8498)
(884349.8627 0 332546.1024)
(942963.5674 0 376828.2832)
(991525.9906 0 424132.8248)
(1030174.801 0 474102.1609)
(1058215.49 0 526472.1735)
(1075068.888 0 581026.7217)
(1080669.396 0 637565.5871)
(1075635.282 0 695849.0091)
(1060856.034 0 755553.9466)
(1036436.423 0 816486.4911)
(1001615.449 0 878639.0358)
(956525.9285 0 941762.2648)
(901934.8796 0 1005426.653)
(837307.5305 0 1069475.396)
(763231.5895 0 1133625.067)
(681096.9213 0 1197409.434)
(590837.4626 0 1260568.406)
(492446.7294 0 1322764.611)
(385896.9382 0 1383538.444)
(272573.1091 0 1441342.569)
(166153.9953 0 1493076.771)
(95135.59195 0 1544730.155)
(-18037.952 0 1636630.389)
(-639700.2799 -7.384602309e-08 1753897.15)
(-1514449.642 -7.354151965e-08 1563889.645)
(1593805.045 0 1246257.122)
(6120652.547 0 2163742.792)
(-8579941.557 0 4531356.804)
(-42587426.41 0 6972661.69)
(-59052317.37 0 7610482.51)
(-34328447.8 0 5492263.449)
(7317057.667 0 1675753.953)
(29578183.8 0 -1782315.709)
(31222813.36 0 -3230342.147)
(28042125.05 0 -3175405.86)
(27974830.11 0 -2503942.556)
(24601423.27 -7.420517157e-08 1355247.661)
(-29115921.42 -3.727101896e-08 7778626.937)
(-117429305.3 0 13697847.33)
(-150633337.3 0 18493912.26)
(-134186455.1 0 19351235.23)
(-117853259.8 0 17157825.63)
(-73015.77906 0 464795.0376)
(231449.9388 0 469949.217)
(314766.7814 0 478181.02)
(279883.6418 0 491400.0242)
(386228.7746 -4.995535899e-07 508179.0726)
(461666.6437 0 528275.8633)
(522307.4653 0 551231.9784)
(575950.7451 0 576761.1127)
(622733.1361 0 604566.3531)
(660515.9016 0 634032.6135)
(688753.3842 0 664732.1641)
(708067.6414 0 696477.7347)
(718470.9406 0 729040.2108)
(719956.0893 0 762076.5124)
(712915.8812 0 795169.3671)
(698450.9338 0 827926.8191)
(676605.2767 0 860145.2315)
(645233.3141 0 891828.8692)
(604630.4233 0 922774.6896)
(558161.791 0 952455.5721)
(505143.2777 8.535257652e-08 980695.7926)
(444223.9301 0 1007480.936)
(377857.194 0 1032453.946)
(305700.9456 0 1055628.25)
(226660.1872 0 1076997.019)
(142708.4526 0 1095162.869)
(66335.12406 0 1107312.11)
(25328.60908 0 1119675.336)
(-57343.92248 0 1173613.266)
(-642202.6176 0 1259023.949)
(-1506218.715 0 1047636.468)
(1460779.156 0 679138.6266)
(6095354.063 0 1493462.19)
(-7154829.465 0 3786007.736)
(-39053472.76 0 6202055.267)
(-54675121.19 0 6840178.202)
(-31185155.35 0 4759877.664)
(7665631.459 0 1009511.95)
(27680948.52 0 -2375229.669)
(28853603.03 0 -3774186.135)
(25974661.95 0 -3756821.163)
(26012496.18 0 -3273329.905)
(23254665.15 0 212907.2504)
(-26912724.07 0 6583836.513)
(-111452383 0 12565933.31)
(-143981288.4 0 17412184.19)
(-129013239.3 0 18293199.58)
(-113574773.7 0 16105506.59)
(-101504198 0 14067390.97)
(-91794376.01 0 12468974.66)
(-106012.2391 0 602680.0788)
(192983.253 0 608428.1497)
(263063.4581 0 610174.6356)
(205733.9101 0 618456.223)
(296199.5104 0 628219.2003)
(356496.1026 0 639626.2742)
(404173.4829 0 652344.2406)
(445104.0182 0 666063.3064)
(480513.3857 0 680688.9653)
(510909.0403 0 695962.7621)
(534700.8705 0 711384.1523)
(550887.8973 -1.205606226e-07 726680.6135)
(560129.3069 1.14029278e-07 741614.65)
(563509.4879 1.085435723e-07 755945.3597)
(561644.1432 0 769458.7552)
(553777.5192 0 782002.0583)
(537846.5334 -9.647551764e-08 793538.9309)
(514103.002 0 803997.0176)
(486386.7416 0 813062.032)
(454861.877 0 820563.013)
(416198.3804 0 826676.9212)
(371675.5301 0 831454.4141)
(321728.2897 -8.342879964e-08 834877.3974)
(264770.1206 0 835829.938)
(214266.3524 -8.092814413e-08 831499.3315)
(197898.9867 0 827939.5868)
(141785.7188 0 866706.5993)
(-398025.3801 0 943372.1215)
(-1254505.737 0 740491.7256)
(1438455.29 0 341873.5624)
(6085241.647 0 1042970.512)
(-5600507.907 0 3245227.661)
(-35580816.6 7.58499712e-08 5643021.312)
(-50927935.2 0 6322452.687)
(-28852030.27 0 4314321.779)
(7863835.656 0 622452.4655)
(26480425.17 0 -2700792.107)
(27414810.13 0 -4030794.471)
(24665373.49 7.52988772e-08 -3983032.073)
(24570879.78 0 -3636485.626)
(23086289.85 7.553806162e-08 -688045.4194)
(-20695891.58 0 5592937.446)
(-102291789.3 0 11719445.87)
(-138413865.8 -3.811246719e-08 16703559.52)
(-125185003.7 0 17724039.16)
(-109818355.7 3.844094776e-08 15580578.1)
(-98474548.99 0 13583677.72)
(-89037952.48 0 11990603.66)
(-80238931.89 0 10617533.7)
(-72912039.37 -1.965723836e-08 9438317.89)
(-125090.412 0 588024.1143)
(189216.8621 0 593349.3197)
(246796.7825 0 590932.1749)
(164834.9172 0 596369.2906)
(249046.7904 2.576172288e-07 602029.4376)
(302831.0691 0 608272.6725)
(345242.1182 0 615258.2189)
(382630.2776 -1.680171976e-07 622761.3873)
(415086.8928 -1.524266145e-07 630484.9274)
(443492.8058 -1.402205198e-07 638357.333)
(467538.9173 0 646240.1881)
(486282.4711 0 653913.533)
(499732.7608 -1.158051258e-07 661208.2313)
(507919.0643 1.102339878e-07 668035.9251)
(510755.2578 0 674395.5428)
(508083.2584 0 680321.9199)
(499405.7167 -9.797798999e-08 685741.8697)
(484977.0673 0 690380.8668)
(466076.0113 0 694264.615)
(442086.8715 0 697898.0404)
(410499.9348 8.803177349e-08 701193.1153)
(371614.0373 0 702751.3122)
(338454.9053 0 700151.4339)
(336748.7441 0 698829.1915)
(299352.0601 0 740287.3849)
(-196236.2913 0 826545.0865)
(-1048465.898 0 655039.7067)
(1305261.509 0 250549.3736)
(5958843.996 7.879848606e-08 846085.5044)
(-3883034.732 0 2949235.458)
(-31720563.37 0 5336384.289)
(-47207522.69 -7.735018209e-08 6108884.229)
(-27306832.15 0 4224628.324)
(7209671.752 0 593122.4931)
(25004030.6 0 -2696152.722)
(25963324 0 -3972593.196)
(23231678.82 0 -3861254.39)
(22848343.23 0 -3584143.932)
(22838881.99 0 -1286713.514)
(-12056969.94 0 4768864.665)
(-89886056.7 3.835723106e-08 11079268.27)
(-132463930.9 -3.845223379e-08 16310340.32)
(-122419154.6 0 17738201.96)
(-107144941.5 0 15679694.8)
(-95955664.27 0 13660232.13)
(-86742765.67 0 12067357.41)
(-78494649.59 0 10711881.03)
(-71042178.91 -1.972394122e-08 9521525.561)
(-64219644.04 0 8477673.09)
(-58786358.63 -1.996337258e-08 7587771.134)
(-153347.0945 0 442503.7938)
(184175.3143 0 448386.3803)
(238085.2419 8.910339773e-07 444992.0216)
(136549.9522 0 450091.1028)
(220460.2558 0 455042.8234)
(270773.2928 0 460496.9907)
(308707.0606 1.914875664e-07 466793.1959)
(343038.1624 0 473814.5107)
(374038.2558 0 481265.0574)
(401367.6591 0 488992.4519)
(424577.992 -1.32465413e-07 497019.4618)
(442993.8831 0 505261.8485)
(456460.605 0 513649.2428)
(464911.0926 1.119507301e-07 522156.3572)
(468076.3743 0 530768.9229)
(465789.3038 0 539493.7399)
(458479.3304 0 548340.9718)
(445664.1265 0 557194.2565)
(424886.1969 0 566003.9701)
(397224.3314 -9.144149208e-08 574025.1199)
(375401.4771 0 578450.9648)
(381435.7992 0 584004.9878)
(356177.6093 -8.604761049e-08 633608.7778)
(-101011.9416 0 734876.9515)
(-956505.246 0 600978.4141)
(1030156.956 8.241633638e-08 208180.4511)
(5614562.094 0 717378.6552)
(-2392756.524 0 2715367.638)
(-27915822.99 0 5083196.942)
(-43622836.88 0 5974985.131)
(-26418598.39 0 4266708.673)
(5781546.503 0 731595.9074)
(23229854.49 -7.823088437e-08 -2535806.804)
(24527210.44 0 -3808552.065)
(21774682.68 0 -3655714.273)
(20934953.02 0 -3397537.217)
(21970751.24 7.761726959e-08 -1787151.649)
(-2934589.982 7.761336748e-08 3799840.914)
(-74934537.59 0 10270734.62)
(-125203305.4 0 15794276.7)
(-120297009.9 0 17875584.25)
(-105096161.4 0 16004049.14)
(-93910110.53 0 13929879.54)
(-84930766.42 0 12309417.42)
(-76972548.18 -3.946842698e-08 10944039.35)
(-69722445.3 0 9746347.323)
(-63196178.34 -1.99228586e-08 8694656.061)
(-57491554.2 0 7781464.222)
(-52422258.91 0 6992828.332)
(-48413306.37 -2.027427456e-08 6319659.164)
(-176692.9736 0 216142.6772)
(184788.7736 0 222528.9323)
(229652.6138 0 219809.604)
(103473.2441 0 226266.4238)
(184038.8086 2.657037731e-07 232985.4898)
(228007.7172 0 240752.5133)
(259004.331 0 249859.1435)
(287328.5853 0 260136.3816)
(313346.6091 0 271320.5734)
(335927.9702 -1.44622009e-07 283242.3275)
(354421.1326 1.345283774e-07 295942.2715)
(368527.9085 0 309361.5735)
(377883.4443 0 323394.3597)
(382150.6799 0 337980.0462)
(381013.7128 0 353129.3678)
(374133.9495 0 368905.6782)
(361996.9342 0 385182.2811)
(345319.5654 9.794016005e-08 400637.8098)
(330588.2994 0 412102.6537)
(340361.7787 0 424901.6449)
(326646.1053 0 485827.3998)
(-104396.1672 0 605745.4977)
(-974920.3506 0 508910.5698)
(660159.5092 0 146377.8487)
(5052931.56 0 614470.9132)
(-1402813.097 0 2527317.134)
(-24565334.45 0 4865795.88)
(-40252089.4 0 5867654.443)
(-25821078.2 0 4349070.384)
(4008223.538 0 935379.6657)
(21315370.94 0 -2319847.642)
(23132209.04 0 -3642774.201)
(20430389.66 0 -3485985.313)
(19115859.97 0 -3203103.195)
(20489795.36 0 -2194950.245)
(5053369.295 0 2648299.921)
(-58314580 0 9213206.84)
(-115666642 0 15029680.76)
(-118318866.6 0 17929537.2)
(-103504467.8 3.948647112e-08 16418043.78)
(-92180603.63 0 14274672.71)
(-83356321.31 0 12605610.18)
(-75649267.83 0 11219224.02)
(-68632313.78 0 10006658.58)
(-62269088.17 0 8937595.314)
(-56619816.14 2.013252822e-08 8003695.687)
(-51684518.09 -2.023312938e-08 7195567.92)
(-47382961.7 0 6497159.377)
(-43516092.62 0 5887180.467)
(-40442378.17 0 5358723.484)
(-208403.6203 0 -95727.18348)
(172749.8589 0 -88985.8827)
(208714.2718 0 -90198.26364)
(57123.44397 0 -81909.28183)
(131223.6166 -2.698417427e-07 -72784.97796)
(164959.4426 0 -62078.37828)
(185110.4562 0 -49447.69407)
(203819.539 0 -35106.44153)
(221449.1223 0 -19491.42113)
(235743.3992 0 -2617.570047)
(245630.0194 0 15740.48365)
(251433.6636 0 35441.53501)
(253039.3395 -1.213003381e-07 56236.71026)
(249588.9292 1.154648371e-07 77977.13259)
(239920.8778 0 100449.0785)
(224902.9285 0 122306.5378)
(215717.4344 0 140402.113)
(236214.3576 9.946544286e-08 161452.2432)
(231532.6812 -9.671412354e-08 239270.9188)
(-206053.95 0 383937.3544)
(-1119114.111 0 321863.8206)
(220868.7513 0 13886.73679)
(4293770.759 8.874862475e-08 512667.6214)
(-1153425.605 0 2385987.012)
(-22157832.21 0 4689288.57)
(-37354196.35 0 5760314.364)
(-25252949.9 0 4400779.704)
(2294095.422 0 1118292.226)
(19407996.57 0 -2121922.802)
(21777282.01 0 -3526061.439)
(19232085.15 0 -3395084.518)
(17536559.12 0 -3063127.136)
(18653776.05 -8.068653343e-08 -2481429.355)
(10821958.18 0 1394511.708)
(-41235719.43 0 7916253.549)
(-103417242.9 0 14003334.35)
(-116038708.9 0 17776369.03)
(-102355164.2 0 16871693.39)
(-90763984.48 4.00501495e-08 14675331.14)
(-82013836.71 0 12940034.12)
(-74519967.23 4.017736749e-08 11525254.08)
(-67716564.95 0 10294956.39)
(-61511565.07 0 9206888.696)
(-55949756.55 0 8250853.349)
(-51050456 2.035366581e-08 7419000.75)
(-46751999.96 0 6697998.262)
(-42956488.29 0 6070090.532)
(-39581899.33 0 5519148.036)
(-36546417.95 0 5031497.976)
(-34165642.41 0 4606064.244)
(-234033.3282 0 -486076.1487)
(161248.4911 0 -479776.9772)
(180954.1751 0 -479841.732)
(-225.3810343 0 -470600.111)
(63623.07595 0 -459917.3909)
(83802.28832 0 -447328.6915)
(89543.51181 0 -432561.9323)
(95875.55142 0 -415902.0646)
(101898.135 0 -397379.0167)
(102342.587 0 -376664.9214)
(97469.68506 0 -354082.3879)
(90096.77489 0 -329966.7159)
(79995.78707 0 -304462.5915)
(66750.85752 0 -279036.4728)
(59027.4522 0 -256495.7548)
(78815.69696 0 -223032.5487)
(65875.13179 -1.042255431e-07 -116102.8722)
(-422093.1642 -1.010144801e-07 68218.05508)
(-1413996.101 0 42525.96646)
(-283991.0903 0 -175206.1592)
(3337140.748 0 454471.4711)
(-1814504.171 0 2356167.563)
(-21019653.57 0 4619652.091)
(-35108133.28 0 5693245.372)
(-24506573.04 0 4415887.198)
(1024434.071 0 1233058.588)
(17680044.34 0 -1991263.926)
(20414989.12 0 -3478605.944)
(18102890.15 0 -3390864.209)
(16181396.35 0 -3008080.642)
(16743654.47 -8.270409717e-08 -2663097.364)
(13943829.49 0 170363.3117)
(-25193919.24 0 6426131.93)
(-88496541.9 0 12748932.2)
(-112629743.6 0 17336759.76)
(-101584132.4 0 17325540.63)