/*--------------------------------*- C++ -*----------------------------------*\
  =========                 |
  \\      /  F ield         | OpenFOAM: The Open Source CFD Toolbox
   \\    /   O peration     | Website:  https://openfoam.org
    \\  /    A nd           | Version:  7
     \\/     M anipulation  |
\*---------------------------------------------------------------------------*/
FoamFile
{
    version     2.0;
    format      ascii;
    class       volScalarField;
    location    "0.0003";
    object      p;
}
// * * * * * * * * * * * * * * * * * * * * * * * * * * * * * * * * * * * * * //

dimensions      [1 -1 -2 0 0 0 0];

internalField   nonuniform List<scalar> 
14000
(
1108076.18
1137642.515
1136027.089
1138086.364
1143633.553
1150616.396
1158703.039
1167947.151
1178352.297
1189904.656
1202605.351
1216468.68
1231516.567
1247776.477
1265280.956
1284063.447
1304144.45
1325548.773
1348345.341
1372589.499
1398330.818
1425600.684
1454457.953
1485013.315
1517328.905
1551488.843
1587631.177
1625838.887
1666285.447
1709087.333
1754383.939
1802385.685
1853258.32
1907123.617
1964068.797
2024194.646
2087460.808
2153751.474
2222759.384
2294118.726
2367222.863
2441333.918
2515590.072
2589066.398
2660877.072
2730080.951
2795510.403
2856741.413
2917717.04
2981353.067
1254240.172
1290063.524
1288157.882
1290793.222
1297684.95
1306271.933
1316085.018
1327141.268
1339385.97
1352782.956
1367303.532
1382937.696
1399691.858
1417570.025
1436578.156
1456802.875
1478299.4
1501078.485
1525250.216
1550874.358
1578015.441
1606752.444
1637147.421
1669218.53
1703026.742
1738561.269
1775756.895
1814504.233
1854660.712
1896019.734
1938270.705
1981032.248
2023899.126
2066446.06
2108217.375
2148771.966
2187740.834
2224806.873
2259720.036
2292273.553
2322341.06
2349816.778
2374569.663
2396451.32
2415232.231
2430635.959
2442329.12
2449542.163
2450640.351
2445586.011
1281938.019
1319187.813
1316717.892
1318072.065
1323352.477
1330111.487
1337937.789
1346937.099
1357165.102
1368624.299
1381300.637
1395185.463
1410334.533
1426744.225
1444424.411
1463402.396
1483675.932
1505269.124
1528145.059
1552208.94
1577435.143
1603758.585
1631054.233
1659123.944
1687800.047
1716884.125
1746118.071
1775309.173
1804177.233
1832494.427
1860070.448
1886713.22
1912237.804
1936551.22
1959510.791
1981040.475
2001027.435
2019357.195
2035969.48
2050713.009
2063470.453
2074067.604
2082366.511
2088214.185
2091434.231
2091896.927
2089522.141
2084074.926
2074863.178
2062723.471
1478197.113
1511552.19
1509185.482
1510701.457
1515955.642
1522683.539
1530508.226
1539486.931
1549678.208
1561066.41
1573582.521
1587245.07
1602006.699
1617882.661
1634810.9
1652743.841
1671611.254
1691354.345
1711839.772
1732977.581
1754644.023
1776682.2
1798936.077
1821274.64
1843478.084
1865388.474
1886886.16
1907822.936
1928011.555
1947348.377
1965697.866
1982963.978
1998984.382
2013686.059
2026999.569
2038785.12
2049001.588
2057551.442
2064378.627
2069417.37
2072621.639
2073960.906
2073412.461
2070953.58
2066599.988
2060413.168
2052462.597
2042613.524
2030367.059
2016662.547
1535640.942
1565711.479
1564194.843
1565814.459
1570660.99
1576834.017
1583981.628
1592164.934
1601375.545
1611523.513
1622626.805
1634629.376
1647436.537
1661026.744
1675314.116
1690168.162
1705545.218
1721322.369
1737375.904
1753641.909
1769949.188
1786153.003
1802141.413
1817818.887
1833064.69
1847731.394
1861737.933
1874966.829
1887317.28
1898725.891
1909112.956
1918375.229
1926507.32
1933392.155
1939039.837
1943389.273
1946406.145
1948081.63
1948400.893
1947361.763
1944957.968
1941210.511
1936163.771
1929852.405
1922300.468
1913551.15
1903799.276
1893184.482
1881510.152
1869257.254
1672312.998
1696380.017
1695322.693
1697172.457
1701771.075
1707548.498
1714213.362
1721749.784
1730151.893
1739262.955
1749118.189
1759585.742
1770569.284
1781977.86
1793787.66
1805840.261
1818037.402
1830316.252
1842566.283
1854669.112
1866504.287
1877994.968
1889061.143
1899598.985
1909538.061
1918820.189
1927313.256
1934998.05
1941811.076
1947695.735
1952620.043
1956522.718
1959431.32
1961254.882
1962012.292
1961721.389
1960330.482
1957856.165
1954352.728
1949817.475
1944243.786
1937716.884
1930361.8
1922269.948
1912866.139
1900091.468
1887229.827
1906405.267
1998333.549
2098612.31
1701172.481
1720948.235
1720522.667
1722237.496
1726096.913
1730886.245
1736407.854
1742552.97
1749306.482
1756614.289
1764331.78
1772437.125
1780834.035
1789406.307
1798084.037
1806811.427
1815475.927
1823994.992
1832295.377
1840291.966
1847888.621
1855067.912
1861759.753
1867849.036
1873318.363
1878125.466
1882219.439
1885542.52
1888100.071
1889827.513
1890736.077
1890811.682
1890011.294
1888388.304
1885910.605
1882577.754
1878445.618
1873519.461
1867816.625
1861420.045
1854463.843
1847011.793
1837967.977
1825468.398
1818555.191
1859742.726
1948395.532
2034624.112
2107389.26
2171178.601
1773120.09
1787888.824
1787529.298
1788980.288
1792136.216
1796063.901
1800498.772
1805448.41
1810778.009
1816508.941
1822489.786
1828633.937
1834914.241
1841234.325
1847512.442
1853670.767
1859638.954
1865362.287
1870782.376
1875837.678
1880462.272
1884620.219
1888247.544
1891298.476
1893768.683
1895566.004
1896741.794
1897199.473
1896993.181
1896054.408
1894411.176
1892063.838
1888972.733
1885220.532
1880775.45
1875661.893
1869951.827
1863661.338
1856996.055
1849950.977
1841250.133
1828915.857
1824392.069
1876201.926
1966353.965
2054404.519
2128324.28
2166161.915
2136548.593
2092593.406
1778404.804
1790420.793
1790250.592
1791313.514
1793642.609
1796560.327
1799779.076
1803375.681
1807216.581
1811238.594
1815412.288
1819646.781
1823876.356
1828044.369
1832094.495
1835971.93
1839616.987
1842951.774
1845935.835
1848548.473
1850759.932
1852483.921
1853713.402
1854421.095
1854578.345
1854173.816
1853181.343
1851600.834
1849419.816
1846638.631
1843271.729
1839299.053
1834785.249
1829703.461
1824102.92
1818062.653
1811724.238
1805141.883
1796810.751
1784676.989
1781529.382
1839538.06
1932438.631
2022615.542
2094184.008
2114096.033
2085425.441
2048880.49
2013374.737
1979370.972
1807769.784
1817181.648
1816802.929
1817495.135
1819227.4
1821340.353
1823708.019
1826253.253
1828984.436
1831815.177
1834685.164
1837550.212
1840355.689
1843038.033
1845548.837
1847856.737
1849929.208
1851715.99
1853157.44
1854210.184
1854912.072
1855188.479
1855014.232
1854418.302
1853317.72
1851787.349
1849742.17
1847258.084
1844266.401
1840847.562
1836950.228
1832635.779
1827907.093
1822840.388
1817617.208
1812235.017
1805087.198
1794076.963
1792790.718
1855895.964
1951661.071
2044166.936
2115862.363
2128104.298
2101079.056
2069324.342
2040184.274
2013501.31
1989646.131
1970491.781
1796585.141
1804937.345
1804472.668
1804788.005
1805846.391
1807143.38
1808596.04
1810138.923
1811718.297
1813343.424
1814948.831
1816487.079
1817920.919
1819214.896
1820335.974
1821249.921
1821919.895
1822323.024
1822452.45
1822276.574
1821765.441
1820935.487
1819761.132
1818235.788
1816367.666
1814146.228
1811587.532
1808702.404
1805492.22
1801992.909
1798189.266
1794181.553
1790138.261
1786040.153
1780250.166
1770543.782
1771077.034
1837658.108
1934843.267
2028553.432
2100849.23
2110805.671
2086295.994
2058439.64
2033155.262
2010152.801
1990228.524
1976886.809
1974011.111
1979566.195
1799087.698
1806517.475
1805829.679
1805796.723
1806367.292
1807132.052
1807907.765
1808745.519
1809589.052
1810390.846
1811117.551
1811764.116
1812305.824
1812713.426
1812956.821
1812997.677
1812827.733
1812439.355
1811829.754
1810973.163
1809855.869
1808499.768
1806869.198
1804978.501
1802864.785
1800480.069
1797899.02
1795048.984
1792030.147
1788812.397
1785684.294
1782520.27
1777726.492
1769013.396
1770673.978
1838782.066
1936395.753
2030665.731
2103302.218
2111723.565
2088485.089
2062609.411
2039139.401
2017774.943
1999344.392
1987117.399
1984604.66
1990886.373
2001522.717
2012966.713
1779145.326
1786586.54
1785719.002
1785367.314
1785571.051
1785845.974
1786117.61
1786323.099
1786521.594
1786668.508
1786728.998
1786684.363
1786517.091
1786210.583
1785750.312
1785125.32
1784336.891
1783392.878
1782237.685
1780867.937
1779330.608
1777590.628
1775630.059
1773517.42
1771181.621
1768683.161
1766002.423
1763191.73
1760460.147
1757727.938
1753380.124
1745168.892
1747033.598
1814384.203
1911768.96
2006421.903
2079276.898
2086026.149
2062933.954
2037673.371
2014526.699
1993198.577
1974566.542
1962019.648
1959339.937
1965585.605
1975649.991
1985995.398
1995780.195
2004683.754
1767395.022
1774798.881
1773706.52
1773171.774
1773145.849
1773133.378
1773097.423
1773001.981
1772818.625
1772569.37
1772251.058
1771828.257
1771283.633
1770607.433
1769796.101
1768858.05
1767773.786
1766519.531
1765064.356
1763471.535
1761722.91
1759776.22
1757679.169
1755418.817
1752966.515
1750412.135
1747918.009
1745435.867
1741375.62
1733535.596
1735092.632
1799885.782
1896724.493
1991921.359
2065388.405
2071460.237
2048362.671
2023277.406
2000145.747
1978503.074
1959255.96
1945770.709
1942217.599
1948107.723
1958246.692
1968692.867
1978182.985
1986293.466
1992986.469
1998516.466
1743061.063
1750910.122
1749711.341
1749016.438
1748778.344
1748562.788
1748249.891
1747899.156
1747433.157
1746874.334
1746224.515
1745471.829
1744606.6
1743621.493
1742507.217
1741256.204
1739863.371
1738317.923
1736609.437
1734762.308
1732765.102
1730606.029
1728280.835
1725848.525
1723493.528
1721132.991
1717303.667
1709800.538
1710753.84
1771613.127
1867384.799
1962994.9
2037467.517
2044660.374
2021959.95
1997011.954
1973993.358
1952308.748
1932588.201
1918048.405
1913400.549
1918872.562
1929288.245
1940223.364
1950240.26
1958901.984
1965917.375
1971322.613
1975663.272
1979458.397
1722768.615
1730962.201
1729612.938
1728780.21
1728421.257
1728082.77
1727625.526
1727090.1
1726453.473
1725714.227
1724873.266
1723922.135
1722853.217
1721660.924
1720340.156
1718884.228
1717287.861
1715553.848
1713685.59
1711650.206
1709462.552
1707201.594
1704982.274
1702765.377
1699218.808
1692114.499
1692447.929
1748893.05
1843234.046
1938956.005
2014562.927
2024700.6
2002936.787
1978208.555
1955252.355
1933723.145
1913894.496
1898355.577
1892178.645
1896899.561
1907580.861
1919160.976
1929850.252
1939208.309
1946963.462
1953059.992
1957780.801
1961641.508
1965226.12
1968740.351
1694808.037
1703478.033
1702012.999
1701059.874
1700603.02
1700128.351
1699529.853
1698819.597
1698003.886
1697082.681
1696049.956
1694900.995
1693630.464
1692231.898
1690701.449
1689036.054
1687232.096
1685296.618
1683254.604
1681100.75
1678979.11
1676900.098
1673588.147
1666850.537
1666688.095
1719127.447
1811697.669
1906996.612
1983565.702
1997697.204
1977222.461
1952780.194
1929872.159
1908436.418
1888530.499
1872176.99
1864228.324
1867645.081
1878375.469
1890658.83
1902122.098
1912260.512
1920814.314
1927685.857
1933094.228
1937473.637
1941265.687
1944790.234
1948266.37
1951673.169
1668447.528
1677437.691
1675842.327
1674791.309
1674272.712
1673700.453
1673006.263
1672170.369
1671236.81
1670198.749
1669041.147
1667759.681
1666352.302
1664816.543
1663147.868
1661340.129
1659398.183
1657383.213
1655456.38
1653563.235
1650451.824
1644040.096
1643740.352
1693694.941
1784427.391
1878735.11
1955837.549
1974022.224
1955141.653
1931160.76
1908459.22
1887027.926
1867049.857
1849956.995
1840200.937
1841814.386
1852095.03
1864973.119
1877253.523
1888242.103
1897670.836
1905385.521
1911529.419
1916514.484
1920796.458
1924688.149
1928305.479
1931703.811
1935015.464
1938236.49
1637199.278
1646559.046
1644873.759
1643724.292
1643126.207
1642463.308
1641660.535
1640684.838
1639636.409
1638472.189
1637157.957
1635708.392
1634139.347
1632452.145
1630658.264
1628814.893
1627038.267
1625243.827
1622210.29
1616007.33
1616061.098
1666094.914
1755033.363
1847617.67
1924489.74
1945836.549
1928211.945
1904973.245
1882679.31
1861230.12
1841127.745
1823368.803
1811754.011
1811175.613
1820600.312
1833859.588
1846878.318
1858685.726
1869011.639
1877643.481
1884615.996
1890271.781
1895081.061
1899412.006
1903433.348
1907174.956
1910627.703
1913829.021
1916927.601
1919930.369
1606941.063
1616481.278
1614748.728
1613531.263
1612836.378
1612122.657
1611200.133
1610162.581
1609014.498
1607695.741
1606249.695
1604693.665
1603044.966
1601359.337
1599734.762
1598050.851
1595020.943
1588805.638
1589922.65
1643850.108
1731267.538
1821257.239
1896779.716
1919411.017
1902648.042
1879974.291
1858223.882
1837114.486
1816824.121
1798451.257
1785020.413
1781864.627
1789859.394
1803252.105
1816969.078
1829547.719
1840719.304
1850259.148
1858096.431
1864480.564
1869863.383
1874657.684
1879090.192
1883220.244
1887049.895
1890576.958
1893810.133
1896796.415
1899695.186
1902530.912
1573765.001
1583388.864
1581598.158
1580344.273
1579569.196
1578734.273
1577715.208
1576567.006
1575255.505
1573830.337
1572333.067
1570770.164
1569206.905
1567511.718
1564238.92
1557658.307
1560865.728
1623904.094
1710169.224
1796412.769
1869010.489
1889884.916
1873449.718
1851402.773
1830074.731
1809202.113
1788949.864
1770049.463
1755068.301
1749297.99
1755352.582
1768496.35
1782814
1796133.643
1808123.148
1818558.363
1827289.521
1834453.558
1840443.631
1845696.84
1850515.539
1855013.127
1859195.419
1863060.437
1866620.839
1869888.768
1872880.342
1875661.283
1878401.546
1881116.693
1541832.248
1551392.546
1549520.56
1548170.595
1547339.268
1546416.438
1545334.543
1544105.312
1542753.101
1541276.912
1539690.139
1537643.981
1533695.003
1528615.439
1543123.17
1614149.697
1697332.956
1778530.627
1846392.579
1861277.081
1844397.597
1823160.295
1802380.025
1781781.953
1761653.96
1742577.113
1726294.164
1717810.574
1721384.25
1733864.332
1748676.92
1762673.546
1775369.101
1786606.74
1796198.316
1804162.145
1810808.977
1816565.011
1821775.139
1826610.808
1831110.951
1835279.159
1839124.846
1842665.316
1845919.541
1848915.348
1851684.834
1854296.536
1856907.138
1859516.625
1507197.608
1516840.036
1515057.592
1513768.832
1512960.117
1511994.992
1510739.118
1509224.132
1507434.993
1504556.897
1499180.263
1500014.809
1543317.11
1614788.974
1690615.324
1765466.85
1826621.124
1830093.754
1811846.59
1791763.73
1771822.9
1751683.656
1731832.52
1712816.1
1695816.661
1685146.522
1686036.781
1697217.661
1712168.076
1726737.006
1740088.889
1752081.594
1762502.635
1771263.462
1778571.078
1784833.453
1790441.255
1795622.814
1800444.135
1804913.947
1809039.979
1812839.222
1816329.354
1819537.219
1822501.52
1825261.261
1827845.289
1830301.941
1832767.611
1835237.947
1481340.741
1489533.407
1486808.191
1484323.762
1481986.025
1479490.765
1476196.066
1471086.344
1470624.415
1503010.457
1563041.557
1628722.324
1695216.352
1760541.356
1805490.794
1797988.595
1779253.679
1760532.482
1741554.78
1722068.75
1702701.69
1683964.713
1666640.375
1654287.093
1652585.76
1662122.542
1676903.665
1691893.294
1705773.051
1718407.392
1729596.611
1739157.487
1747164.241
1753957.046
1759943.839
1765423.75
1770516.769
1775246.804
1779622.448
1783653.936
1787359.278
1790759.674
1793889.587
1796791.891
1799507.326
1802061.246
1804464.273
1806754.158
1809060.648
1811380.991
1417524.488
1428370.092
1426649.901
1424503.453
1425727.57
1446872.708
1489213.073
1538404.424
1590766.008
1645866.746
1703965.11
1756041.127
1769521.164
1757598.007
1741555.057
1724921.865
1707367.983
1689134.454
1670865.018
1652984.469
1635992.929
1622774.76
1619157.762
1627146.719
1641603.615
1656932.269
1671265.206
1684425.099
1696250.411
1706530.961
1715238.854
1722612.139
1729027.899
1734826.046
1740191.133
1745174.454
1749785.6
1754036.006
1757944.411
1761528.774
1764817.314
1767850.309
1770672.007
1773318.742
1775812.53
1778164.892
1780383.071
1782502.134
1784643.582
1786802.101
1490671.764
1507091.63
1521959
1544075.93
1572869.204
1606755.175
1645609.609
1689292.973
1731211.309
1745675.175
1736707.336
1723483.929
1709641.579
1694331.177
1677671.458
1660318.873
1642863.72
1625595.864
1608802.723
1595047.614
1589866.997
1596153.792
1609801.143
1625049.06
1639527.143
1652947.333
1665172.153
1675977.002
1685239.567
1693084.535
1699840.828
1705880.957
1711453.96
1716639.347
1721447.506
1725885.811
1729971.386
1733723.109
1737162.099
1740322.595
1743247.362
1745977.217
1748541.366
1750957.899
1753240.713
1755400.369
1757442.827
1759399.744
1761381.389
1763386.785
1663841.739
1667171.948
1681152.01
1701770.308
1724754.93
1734210.164
1728078.081
1718414.743
1708054.03
1696534.607
1683310.692
1668676.443
1652716.953
1635901.979
1618990.481
1602185.428
1585641.013
1571579.074
1565224.62
1569802.18
1582123.416
1596699.086
1610772.673
1623977.425
1636209.884
1647225.848
1656826.683
1665023.754
1672060.445
1678277.592
1683960.018
1689245.196
1694165.382
1698725.692
1702936.112
1706812.72
1710370.406
1713635.132
1716645.242
1719443.721
1722065.691
1724532.597
1726858.973
1729058.43
1731143.625
1733123.34
1735001.081
1736806.417
1738645.118
1740511.557
1718352.954
1704262.35
1703420.755
1700482.036
1695282.213
1688720.547
1680629.181
1670819.04
1659252.395
1645846.051
1631210.74
1615614.457
1599136.669
1582892.04
1567052.508
1553357.351
1546596.06
1549800.058
1560447.625
1573601.732
1586643.126
1599096.052
1610844.218
1621636.29
1631219.974
1639501.834
1646616.56
1652853.416
1658512.692
1663782.371
1668716.092
1673315
1677580.627
1681523.632
1685156.665
1688495.269
1691568.777
1694416.36
1697076.435
1699576.639
1701933.264
1704158.728
1706265.843
1708264.91
1710166.158
1711976.049
1713699.882
1715363.702
1717066.452
1718800.265
1699614.601
1680762.016
1679217.505
1674610.83
1666889.526
1656955.255
1645350.79
1632091.314
1617683.784
1602303.919
1586753.394
1570402.853
1554645.02
1541783.131
1535269.083
1537331.795
1545799.107
1556782.329
1568034.373
1579083.282
1589781.687
1599848.801
1608977.291
1616976.23
1623883.241
1629918.196
1635365.903
1640445.459
1645235.527
1649739.095
1653948.215
1657863.865
1661492.865
1664841.455
1667927.755
1670783.26
1673445.845
1675947.136
1678306.184
1680534.995
1682644.418
1684645.519
1686548.26
1688361.097
1690092.875
1691750.009
1693333.23
1694863.897
1696435.175
1698041.541
1655267.015
1634202.892
1631736.337
1626039.906
1617638.478
1607054.327
1595070.164
1582432.418
1568506.89
1554483.945
1540744.57
1529979.441
1525483.672
1527579.854
1534227.615
1543015.67
1552368.176
1561868.461
1571343.351
1580486.046
1588938.728
1596479.857
1603072.627
1608851.699
1614045.656
1618871.161
1623446.104
1627790.003
1631887.831
1635729.149
1639312.698
1642640.226
1645716.909
1648562.912
1651210.353
1653692.976
1656035.104
1658248.672
1660343.117
1662329.519
1664216.778
1666013.584
1667726.483
1669365.664
1670938.494
1672448.056
1673894.755
1675301.72
1676752.071
1678239.155
1607954.633
1587337.714
1585043.57
1579404.897
1571176.08
1561506.998
1550432.16
1539231.848
1528995.215
1522013.09
1519541.035
1521804.053
1526773.845
1533196.018
1540517.153
1548297.259
1556323.71
1564280.464
1571811.018
1578688.054
1584803.577
1590193.025
1595020.637
1599495.198
1603764.381
1607860.541
1611768.988
1615465.693
1618940.476
1622189.742
1625209.967
1628009.685
1630611.767
1633047.563
1635344.557
1637519.168
1639580.291
1641535.405
1643393.495
1645162.169
1646848.033
1648455.834
1649993.829
1651469.118
1652886.862
1654250.669
1655564.902
1656852.874
1658189.157
1659561.976
1558316.252
1539299.973
1537540.33
1533135.77
1526710.9
1520399.504
1515412.624
1512582.332
1512571.69
1514570.03
1518361.611
1523195.211
1528946.444
1535362.839
1542178.669
1549108.116
1555812.329
1562079.286
1567758.326
1572802.048
1577311.437
1581497.109
1585504.858
1589378.063
1593103.828
1596657.261
1600021.897
1603188.537
1606150.651
1608904.4
1611460.461
1613842.932
1616083.931
1618206.203
1620219.988
1622131.323
1623947.327
1625676.262
1627324.577
1628896.3
1630398.44
1631837.541
1633218.422
1634543.279
1635819.173
1637052.517
1638246.403
1639419.986
1640644.827
1641908.14
1513015.466
1499160.647
1499940.08
1500055.167
1499762.635
1500036.481
1501429.867
1503888.882
1507213.527
1511539.055
1516576.822
1522274.682
1528348.388
1534595.923
1540706.255
1546516.907
1551869.382
1556655.767
1560976.51
1564982.236
1568795.306
1572484.533
1576052.846
1579468.684
1582722.123
1585807.198
1588708.263
1591414.951
1593930.246
1596271.189
1598464.498
1600535.476
1602500.13
1604366.01
1606137.637
1607820.499
1609421.8
1610948.274
1612404.155
1613796.315
1615130.054
1616411.368
1617644.105
1618833.91
1619985.253
1621101.91
1622187.262
1623258.751
1624378.415
1625535.264
1489366.384
1481675.808
1483711.77
1485748.747
1487934.672
1490850.96
1494450.167
1498683.057
1503572.02
1508914.582
1514562.588
1520356.394
1526074.602
1531553.254
1536676.414
1541308.744
1545536.128
1549456.342
1553160.639
1556718.872
1560184.86
1563531.464
1566727.681
1569759.831
1572619.911
1575299.368
1577787.387
1580094.716
1582245.741
1584268.692
1586186.03
1588009.186
1589741.044
1591385.993
1592951.108
1594441.854
1595862.448
1597215.964
1598508.954
1599747.325
1600934.742
1602075.852
1603177.974
1604249.658
1605294.424
1606310.992
1607301.734
1608282.393
1609308.046
1610365.486
1481058.014
1477057.816
1479291.69
1481965.895
1485073.396
1488760.874
1492984.41
1497667.409
1502681.258
1507823.677
1513014.723
1518034.823
1522824.966
1527248.276
1531348.028
1535175.313
1538776.788
1542265.488
1545665.38
1548949.994
1552093.343
1555071.125
1557889.167
1560550.992
1563038.345
1565348.081
1567493.655
1569499.328
1571388.858
1573176.117
1574871.579
1576481.188
1578010.952
1579466.239
1580852.745
1582175.644
1583439.467
1584648.662
1585806.123
1586911.97
1587974.999
1589002.477
1590000.285
1590973.275
1591926.906
1592860.394
1593770.944
1594672.965
1595617.047
1596590.224
1480691.815
1478469.207
1480521.088
1483085.502
1486100.752
1489598.076
1493510.372
1497734.836
1502075.994
1506435.086
1510687.563
1514747.087
1518590.764
1522246.142
1525710.026
1529102.435
1532414.955
1535612.239
1538677.12
1541626.573
1544436.714
1547090.738
1549576.879
1551881.26
1554017.938
1556008.096
1557880.667
1559653.754
1561335.825
1562931.896
1564445.533
1565881.311
1567245.593
1568544.655
1569782.031
1570963.532
1572093.905
1573178.595
1574219.837
1575220.991
1576186.6
1577124.784
1578040.424
1578937.241
1579817.619
1580682.486
1581526.709
1582364.066
1583239.677
1584139.902
1482548.421
1481076.263
1482850.295
1485083.343
1487683.844
1490659.548
1493950.087
1497414.77
1500914.051
1504417.832
1507807.193
1511139.683
1514367.304
1517565.139
1520713.581
1523760.523
1526735.144
1529614.835
1532365.287
1534959.786
1537409.466
1539717.708
1541870.091
1543870.609
1545735.333
1547486.271
1549145.352
1550720.963
1552217.756
1553642.85
1554999.875
1556291.544
1557519.582
1558686.887
1559802.174
1560869.781
1561892.139
1562872.814
1563819.491
1564739.49
1565631.666
1566502.049
1567355.291
1568193.326
1569017.184
1569826.04
1570617.818
1571402.526
1572219.715
1573056.887
1484611.876
1483357.262
1484815.819
1486628.323
1488698.769
1491070.881
1493684.642
1496399.33
1499199.513
1502038.131
1504896.319
1507764.7
1510647.449
1513467.84
1516271.74
1519006.09
1521619.858
1524134.035
1526547.769
1528827.286
1530947.122
1532919.939
1534765.412
1536510.334
1538164.119
1539733.285
1541217.78
1542627.181
1543968.639
1545246.393
1546465.063
1547629.721
1548743.166
1549806.55
1550822.381
1551795.156
1552730.181
1553633.59
1554511.126
1555367.508
1556205.192
1557025.563
1557831.538
1558624.228
1559403.914
1560169.428
1560918.45
1561657.769
1562425.23
1563210.485
1485905.878
1484654.107
1485808.858
1487208.25
1488824.312
1490715.046
1492785.591
1494995.205
1497357.803
1499770.337
1502285.737
1504797.939
1507332.143
1509835.296
1512268.551
1514659.843
1516964.125
1519143.328
1521205.717
1523161.457
1524995.294
1526707.173
1528323.391
1529862.53
1531334.136
1532741.237
1534079.792
1535350.448
1536561.598
1537718.308
1538822.821
1539880.107
1540895.879
1541873.198
1542806.69
1543704.461
1544574.05
1545420.413
1546247.135
1547057.734
1547854.133
1548636.447
1549405.829
1550163.334
1550908.516
1551637.507
1552348.4
1553048.943
1553774.473
1554513.548
1486212.849
1484893.905
1485841.247
1486988.791
1488339.675
1489896.292
1491621.472
1493544.803
1495571.699
1497694.735
1499869.473
1502077.168
1504262.959
1506455.239
1508580.368
1510631.218
1512619.832
1514501.863
1516265.013
1517929.748
1519521.931
1521040.573
1522482.114
1523858.404
1525173.794
1526432.635
1527643.362
1528800.639
1529902.504
1530956.323
1531967.825
1532939.958
1533874.962
1534775.398
1535644.765
1536486.906
1537307.994
1538112.043
1538901.83
1539678.36
1540441.97
1541193.66
1541934.223
1542663.171
1543377.537
1544072.388
1544750.005
1545416.92
1546105.205
1546803.811
1485885.353
1484532.809
1485390.949
1486413.775
1487568.155
1488880.283
1490395.842
1492068.474
1493819.587
1495678.875
1497556.84
1499482.595
1501385.128
1503266.124
1505111.529
1506869.142
1508550.926
1510166.612
1511694.036
1513148.835
1514548.662
1515904.136
1517202.767
1518440.47
1519627.323
1520767.237
1521863.514
1522920.014
1523930.854
1524901.064
1525835.678
1526735.918
1527603.886
1528445.242
1529265.194
1530065.202
1530850.004
1531622.394
1532383.276
1533132.44
1533868.546
1534595.321
1535310.954
1536012.072
1536695.258
1537360.87
1538008.602
1538644.181
1539298.275
1539962.181
1485311.703
1483936.158
1484717.928
1485615.663
1486597.542
1487749.165
1489083.041
1490521.89
1492060.616
1493667.217
1495307.577
1496962.802
1498614.398
1500221.018
1501794.397
1503301.166
1504741.605
1506136.922
1507488.131
1508784.959
1510035.723
1511245.329
1512417.503
1513540.272
1514619.537
1515659.367
1516661.022
1517628.434
1518563.475
1519463.698
1520331.592
1521171.287
1521987.879
1522785.137
1523565.467
1524332.913
1525089.613
1525836.237
1526572.325
1527296.055
1528010.15
1528714.099
1529403.893
1530076.788
1530730.55
1531368.878
1531988.357
1532594.539
1533215.053
1533846.647
1484582.083
1483168.145
1483877.666
1484660.192
1485512.16
1486540.984
1487704.79
1488946.456
1490291.441
1491673.06
1493098.983
1494514.33
1495930.897
1497300.715
1498636.304
1499944.417
1501206.191
1502436.513
1503644.847
1504809.215
1505933.825
1507024.294
1508084.834
1509110.212
1510097.692
1511051.303
1511974.394
1512869.367
1513737.744
1514575.176
1515387.527
1516180.264
1516956.758
1517718.897
1518468.161
1519209.414
1519942.339
1520666.158
1521379.403
1522080.129
1522772.851
1523451.952
1524114.844
1524759.633
1525386.576
1525997.896
1526589.637
1527165.36
1527755.646
1528356.851
1483737.318
1482287.141
1482929.069
1483618.425
1484380.529
1485275.537
1486275.895
1487361.818
1488521.798
1489705.522
1490922.099
1492127.375
1493330.467
1494510.996
1495671.755
1496825.094
1497948.709
1499048.333
1500127.835
1501178.3
1502197.693
1503189.306
1504154.619
1505094.008
1506001.784
1506882.914
1507739.937
1508572.539
1509379.264
1510164.605
1510933.406
1511688.679
1512432.413
1513165.403
1513889.708
1514608.225
1515319.093
1516021.034
1516712.078
1517391.515
1518059.399
1518712.578
1519348.769
1519964.491
1520566.175
1521151.046
1521713.947
1522260.14
1522823.011
1523393.744
1482808.646
1481323.655
1481902.435
1482523.859
1483191.958
1483959.366
1484808.11
1485745.517
1486732.779
1487742.428
1488776.644
1489809.6
1490846.29
1491886.426
1492916.519
1493942.335
1494950.229
1495937.924
1496908.085
1497863.132
1498792.83
1499699.562
1500583.938
1501446.682
1502286.495
1503105.665
1503903.61
1504679.6
1505436.094
1506180.104
1506913.518
1507638.226
1508354.808
1509061.466
1509764.36
1510461.537
1511151.533
1511832.441
1512498.869
1513154.729
1513797.521
1514424.265
1515031.007
1515621.658
1516197.946
1516754.829
1517288.255
1517809.191
1518343.689
1518882.595
1481799.558
1480289.079
1480820.859
1481376.815
1481947.838
1482597.779
1483317.726
1484110.847
1484943.121
1485809.965
1486699.342
1487604.524
1488518.427
1489443.995
1490364.018
1491279.9
1492186.915
1493080.899
1493962.686
1494831.525
1495681.538
1496513.668
1497328.531
1498125.718
1498906.414
1499668.8
1500413.892
1501144.211
1501859.929
1502569.598
1503273.827
1503972.574
1504664.059
1505348.021
1506029.861
1506706.601
1507375.47
1508030.853
1508673.21
1509304.746
1509921.55
1510519.209
1511098.912
1511665.659
1512214.636
1512742.093
1513249.504
1513745.61
1514251.156
1514758.389
1480705.344
1479189.635
1479680.153
1480165.212
1480645.895
1481192.124
1481803.093
1482478.192
1483192.503
1483947.588
1484726.642
1485530.94
1486345.672
1487171.099
1487995.084
1488818.084
1489639.712
1490453.427
1491257.984
1492050.574
1492830.706
1493598.809
1494354.232
1495093.548
1495819.074
1496531.776
1497233.616
1497923.902
1498607.666
1499289.778
1499969.198
1500643.881
1501310.452
1501974.863
1502636.997
1503292.928
1503936.464
1504564.96
1505184.703
1505791.087
1506379.551
1506949.293
1507505.415
1508045.341
1508565.56
1509065.969
1509549.744
1510019.582
1510495.275
1510975.633
1479539.024
1478030.745
1478476.393
1478900.261
1479307.446
1479771.048
1480299.768
1480885.716
1481512.878
1482178.869
1482870.697
1483585.988
1484313.966
1485051.965
1485796.105
1486543.117
1487288.805
1488031.327
1488767.525
1489493.57
1490213.734
1490926.701
1491628.177
1492313.112
1492991.517
1493664.195
1494329.506
1494984.842
1495643.221
1496301.822
1496957.915
1497608.018
1498253.289
1498899.499
1499541.503
1500172.668
1500788.006
1501394.106
1501989.169
1502567.917
1503127.544
1503672.964
1504203.665
1504715.823
1505208.486
1505685.286
1506143.881
1506585.455
1507035.513
1507491.38
1478321.909
1476829.739
1477239.123
1477615.789
1477967.712
1478370.294
1478836.67
1479353.332
1479909.954
1480501.293
1481118.733
1481756.361
1482411.047
1483077.429
1483753.52
1484433.895
1485112.385
1485792.238
1486468.996
1487137.925
1487806.166
1488467.354
1489115.223
1489757.387
1490398.63
1491036.775
1491669.058
1492299.658
1492935.277
1493571.691
1494204.576
1494830.673
1495459.036
1496085.868
1496703.524
1497305.301
1497897.396
1498480.56
1499048.827
1499598.161
1500132.87
1500654.251
1501158.063
1501642.214
1502110.986
1502563.661
1502994.814
1503412.183
1503839.219
1504266.905
1477090.837
1475625.957
1476006.875
1476347.594
1476658.396
1477015.65
1477428.406
1477886.778
1478383.416
1478909.781
1479464.234
1480039.058
1480632.727
1481236.546
1481851.859
1482471.011
1483092.906