/*--------------------------------*- C++ -*----------------------------------*\
  =========                 |
  \\      /  F ield         | OpenFOAM: The Open Source CFD Toolbox
   \\    /   O peration     | Website:  https://openfoam.org
    \\  /    A nd           | Version:  7
     \\/     M anipulation  |
\*---------------------------------------------------------------------------*/
FoamFile
{
    version     2.0;
    format      ascii;
    class       surfaceScalarField;
    location    "0.0003";
    object      phi;
}
// * * * * * * * * * * * * * * * * * * * * * * * * * * * * * * * * * * * * * //

dimensions      [1 0 -1 0 0 0 0];

internalField   nonuniform List<scalar> 
27670
(
-3.322294037e-14
4.528078173e-11
-1.310166508e-13
1.325029649e-10
-2.921917037e-13
2.148790409e-10
-5.168671621e-13
2.926186535e-10
-8.061839208e-13
3.65922948e-10
-1.162019024e-12
4.349848819e-10
-1.586718937e-12
4.999895479e-10
-2.082871513e-12
5.611144953e-10
-2.653107615e-12
6.185300535e-10
-3.299925845e-12
6.723995902e-10
-4.025539087e-12
7.228798329e-10
-4.831738729e-12
7.701211099e-10
-5.719773518e-12
8.142675997e-10
-6.6902402e-12
8.554575874e-10
-7.742983468e-12
8.938236918e-10
-8.87700091e-12
9.294930713e-10
-1.009041929e-11
9.625877317e-10
-1.138045642e-11
9.932246568e-10
-1.274311212e-11
1.02151579e-09
-1.417322115e-11
1.047568517e-09
-1.56643794e-11
1.071485765e-09
-1.720904498e-11
1.093366335e-09
-1.879842366e-11
1.113304817e-09
-2.042204532e-11
1.131391489e-09
-2.206816647e-11
1.147713234e-09
-2.372365989e-11
1.162353253e-09
-2.537352304e-11
1.175390729e-09
-2.700161903e-11
1.186902286e-09
-2.858973611e-11
1.196960358e-09
-3.011826577e-11
1.205634981e-09
-3.156601688e-11
1.212993047e-09
-3.29095796e-11
1.21909794e-09
-3.412368449e-11
1.224010674e-09
-3.518120334e-11
1.227789606e-09
-3.60532212e-11
1.23049066e-09
-3.670817309e-11
1.232166442e-09
-3.711258878e-11
1.232867983e-09
-3.723028894e-11
1.232643231e-09
-3.702329574e-11
1.231538924e-09
-3.645044574e-11
1.229598303e-09
-3.546852101e-11
1.22686378e-09
-3.403177099e-11
1.223375355e-09
-3.209213736e-11
1.219171386e-09
-2.959954895e-11
1.21428884e-09
-2.650169749e-11
1.20876267e-09
-2.274448254e-11
1.202626732e-09
-1.827263782e-11
1.195913839e-09
-1.302974152e-11
1.188655446e-09
-6.958593152e-12
1.180881814e-09
1.17262069e-09
-8.395814917e-14
4.536473988e-11
-3.301152955e-13
1.32749122e-10
-7.297741744e-13
2.152786997e-10
-1.274637746e-12
2.931635171e-10
-1.956759276e-12
3.666050695e-10
-2.768363014e-12
4.357964856e-10
-3.701699829e-12
5.009228847e-10
-4.748903536e-12
5.62161699e-10
-5.901956783e-12
6.196831068e-10
-7.152398558e-12
6.73650032e-10
-8.491288962e-12
7.242187233e-10
-9.909117842e-12
7.715389388e-10
-1.13957269e-11
8.157542087e-10
-1.294030618e-11
8.570021666e-10
-1.453151779e-11
8.954149034e-10
-1.615703657e-11
9.311185901e-10
-1.780375228e-11
9.642344474e-10
-1.945820929e-11
9.948791138e-10
-2.110590213e-11
1.023163483e-09
-2.27318344e-11
1.04919445e-09
-2.432047351e-11
1.073074404e-09
-2.585575068e-11
1.094901612e-09
-2.732114737e-11
1.114770213e-09
-2.870015119e-11
1.132770493e-09
-2.997579959e-11
1.148988883e-09
-3.113120271e-11
1.163508656e-09
-3.21497118e-11
1.176409238e-09
-3.301506879e-11
1.187767643e-09
-3.371141246e-11
1.197656701e-09
-3.422345313e-11
1.206147022e-09
-3.453689717e-11
1.213306491e-09
-3.463872648e-11
1.21919977e-09
-3.451728784e-11
1.223889235e-09
-3.416247729e-11
1.227434795e-09
-3.356622046e-11
1.229894404e-09
-3.272286519e-11
1.231323086e-09
-3.162926539e-11
1.231774383e-09
-3.028529058e-11
1.231299257e-09
-2.869404979e-11
1.229947683e-09
-2.68624956e-11
1.227766749e-09
-2.480138514e-11
1.22480267e-09
-2.252561747e-11
1.221099588e-09
-2.005476269e-11
1.216700531e-09
-1.741305544e-11
1.211647133e-09
-1.462993305e-11
1.205979547e-09
-1.174013191e-11
1.19973693e-09
-8.783560531e-12
1.192957268e-09
-5.805864309e-12
1.185677749e-09
-2.858447863e-12
1.177934397e-09
1.169762242e-09
-9.825064701e-14
4.546299053e-11
-3.846385629e-13
1.330355099e-10
-8.463569931e-13
2.157404182e-10
-1.470005602e-12
2.937871657e-10
-2.241569359e-12
3.673766333e-10
-3.146555846e-12
4.367014721e-10
-4.170167105e-12
5.019464959e-10
-5.297330702e-12
5.632888626e-10
-6.512698947e-12
6.20898475e-10
-7.800734107e-12
6.749380672e-10
-9.145822768e-12
7.255638119e-10
-1.053243266e-11
7.729255487e-10
-1.194477126e-11
8.171665473e-10
-1.336724106e-11
8.584246364e-10
-1.478437295e-11
8.968320353e-10
-1.618076246e-11
9.325149797e-10
-1.7541399e-11
9.65595084e-10
-1.885142442e-11
9.961891392e-10
-2.009648506e-11
1.024408543e-09
-2.126317637e-11
1.050361141e-09
-2.23384778e-11
1.074149705e-09
-2.331007351e-11
1.095873208e-09
-2.416650642e-11
1.115626646e-09
-2.489763678e-11
1.133501624e-09
-2.549428344e-11
1.14958553e-09
-2.59483725e-11
1.163962745e-09
-2.625345895e-11
1.176714324e-09
-2.640401042e-11
1.187918195e-09
-2.639635202e-11
1.197649043e-09
-2.622828738e-11
1.205978957e-09
-2.589910115e-11
1.212977305e-09
-2.540973653e-11
1.218710405e-09
-2.476310226e-11
1.223242601e-09
-2.396340128e-11
1.226635094e-09
-2.301693757e-11
1.22894794e-09
-2.193145664e-11
1.230237605e-09
-2.071657562e-11
1.230559502e-09
-1.938380143e-11
1.229966482e-09
-1.794582326e-11
1.228509705e-09
-1.641728467e-11
1.22623821e-09
-1.481398653e-11
1.223199372e-09
-1.315326828e-11
1.219438869e-09
-1.145325972e-11
1.215000522e-09
-9.732674559e-12
1.209926548e-09
-8.010602662e-12
1.204257475e-09
-6.305914609e-12
1.198032242e-09
-4.63674638e-12
1.1912881e-09
-3.019844433e-12
1.184060847e-09
-1.470009629e-12
1.176384562e-09
1.168292232e-09
-8.596829812e-14
4.554895883e-11
-3.369485214e-13
1.332864902e-10
-7.406893585e-13
2.16144159e-10
-1.283581039e-12
2.943300574e-10
-1.951080817e-12
3.680441331e-10
-2.727958934e-12
4.374783502e-10
-3.598512066e-12
5.028170491e-10
-4.546881424e-12
5.64237232e-10
-5.556986165e-12
6.219085798e-10
-6.612757445e-12
6.759938385e-10
-7.698588232e-12
7.266496427e-10
-8.798949197e-12
7.740259097e-10
-9.898997335e-12
8.182665954e-10
-1.098415287e-11
8.59509792e-10
-1.204068001e-11
8.978885624e-10
-1.305552308e-11
9.335298227e-10
-1.401656434e-11
9.665561252e-10
-1.491241147e-11
9.970849863e-10
-1.573295705e-11
1.025229089e-09
-1.646896838e-11
1.051097152e-09
-1.711232116e-11
1.074793058e-09
-1.765612217e-11
1.096417009e-09
-1.809474354e-11
1.116065268e-09
-1.842350722e-11
1.133830387e-09
-1.863937913e-11
1.149801401e-09
-1.874051131e-11
1.164063877e-09
-1.872612346e-11
1.176699937e-09
-1.859663559e-11
1.187788707e-09
-1.835404931e-11
1.197406457e-09
-1.800128247e-11
1.20562619e-09
-1.754264173e-11
1.212518664e-09
-1.698330579e-11
1.218151069e-09
-1.632997343e-11
1.222589268e-09
-1.559012684e-11
1.225895247e-09
-1.477195632e-11
1.228129769e-09
-1.388490637e-11
1.229350555e-09
-1.293868508e-11
1.229613281e-09
-1.19437956e-11
1.228971593e-09
-1.091096542e-11
1.227476874e-09
-9.851205839e-12
1.225178451e-09
-8.775529765e-12
1.222123696e-09
-7.694774602e-12
1.218358114e-09
-6.619438787e-12
1.213925187e-09
-5.559630605e-12
1.208866739e-09
-4.524817678e-12
1.203222662e-09
-3.523694065e-12
1.197031119e-09
-2.564120542e-12
1.190328526e-09
-1.653099508e-12
1.183149826e-09
-7.968899209e-13
1.175528353e-09
1.167495342e-09
-6.648881371e-14
4.561544764e-11
-2.598100136e-13
1.334798114e-10
-5.698448141e-13
2.164541938e-10
-9.852913094e-13
2.947455038e-10
-1.493869866e-12
3.685527116e-10
-2.082609231e-12
4.380670896e-10
-2.738145808e-12
5.034725856e-10
-3.446886637e-12
5.649459728e-10
-4.195212005e-12
6.226569051e-10
-4.969923278e-12
6.767685497e-10
-5.757896956e-12
7.274376164e-10
-6.546524718e-12
7.748145375e-10
-7.324000007e-12
8.190440707e-10
-8.079007698e-12
8.602647997e-10
-8.80107492e-12
8.986106297e-10
-9.480884645e-12
9.342096325e-10
-1.010975389e-11
9.671849945e-10
-1.068013411e-11
9.976553666e-10
-1.118562515e-11
1.02573458e-09
-1.162052954e-11
1.051532057e-09
-1.198053672e-11
1.075153065e-09
-1.226244671e-11
1.096698919e-09
-1.246408829e-11
1.116266909e-09
-1.258421997e-11
1.133950519e-09
-1.262260054e-11
1.149839782e-09
-1.25802024e-11
1.164021479e-09
-1.245871284e-11
1.176578447e-09
-1.226084168e-11
1.187590836e-09
-1.199016251e-11
1.197135778e-09
-1.165088173e-11
1.20528691e-09
-1.12478555e-11
1.212115638e-09
-1.078684074e-11
1.217690054e-09
-1.027359111e-11
1.222076019e-09
-9.714846255e-12
1.225336503e-09
-9.117175411e-12
1.227532099e-09
-8.487604753e-12
1.228720985e-09
-7.833267925e-12
1.228958944e-09
-7.161253546e-12
1.228299578e-09
-6.478626492e-12
1.226794247e-09
-5.792266241e-12
1.22449209e-09
-5.108898367e-12
1.221440328e-09
-4.434929211e-12
1.217684145e-09
-3.7763271e-12
1.213266584e-09
-3.138667409e-12
1.20822908e-09
-2.527120869e-12
1.202611116e-09
-1.946570119e-12
1.196450568e-09
-1.400968364e-12
1.189782925e-09
-8.931761938e-13
1.182642034e-09
-4.251878164e-13
1.175060364e-09
1.167070155e-09
-4.868555239e-14
4.566413319e-11
-1.905332448e-13
1.336216591e-10
-4.177829727e-13
2.166814435e-10
-7.214746114e-13
2.950491955e-10
-1.091892404e-12
3.689231294e-10
-1.518793888e-12
4.38493991e-10
-1.991564376e-12
5.039453561e-10
-2.499584028e-12
5.654539925e-10
-3.032126058e-12
6.231894472e-10
-3.579126182e-12
6.773155499e-10
-4.130438205e-12
7.279889284e-10
-4.676722094e-12
7.753608213e-10
-5.20922411e-12
8.195765727e-10
-5.720018317e-12
8.607755939e-10
-6.20159742e-12
8.990922088e-10
-6.647611372e-12
9.346556464e-10
-7.052534701e-12
9.675899178e-10
-7.411566069e-12
9.980143979e-10
-7.720868084e-12
1.026043882e-09
-7.977523334e-12
1.051788712e-09
-8.179605989e-12
1.075355148e-09
-8.325949242e-12
1.096845262e-09
-8.416146784e-12
1.116357107e-09
-8.450673664e-12
1.133985046e-09
-8.430704745e-12
1.149819813e-09
-8.357917839e-12
1.163948692e-09
-8.235038098e-12
1.176455567e-09
-8.06501868e-12
1.187420816e-09
-7.851419608e-12
1.196922179e-09
-7.598267208e-12
1.205033757e-09
-7.309823708e-12
1.211827194e-09
-6.990909093e-12
1.21737114e-09
-6.646104556e-12
1.221731214e-09
-6.280651708e-12
1.22497105e-09
-5.899630526e-12
1.227151077e-09
-5.508010327e-12
1.228329365e-09
-5.111024082e-12
1.228561958e-09
-4.713744614e-12
1.227902299e-09
-4.320907701e-12
1.22640141e-09
-3.937181601e-12
1.224108364e-09
-3.567180691e-12
1.221070327e-09
-3.215049203e-12
1.217332014e-09
-2.884642097e-12
1.212936177e-09
-2.579603691e-12
1.207924041e-09
-2.302555108e-12
1.202334067e-09
-2.055298952e-12
1.196203312e-09
-1.839712556e-12
1.189567338e-09
-1.576925465e-12
1.182379247e-09
-9.570504117e-13
1.174440489e-09
1.166113104e-09
-3.490929407e-14
4.569904249e-11
-1.362386747e-13
1.337229884e-10
-2.981954139e-13
2.168434003e-10
-5.141270811e-13
2.952651272e-10
-7.767520263e-13
3.691857544e-10
-1.078453064e-12
4.387956921e-10
-1.411194217e-12
5.042780973e-10
-1.767143623e-12
5.658099419e-10
-2.138493936e-12
6.235607975e-10
-2.517608906e-12
6.776946648e-10
-2.897495341e-12
7.283688149e-10
-3.271396298e-12
7.757347223e-10
-3.633185615e-12
8.199383621e-10
-3.977459449e-12
8.611198677e-10
-4.299439844e-12
8.994141892e-10
-4.594916521e-12
9.349511231e-10
-4.860532089e-12
9.678555334e-10
-5.09362111e-12
9.98247487e-10
-5.292208793e-12
1.026242469e-09
-5.455016612e-12
1.05195152e-09
-5.581599654e-12
1.075481731e-09
-5.671895075e-12
1.096935557e-09
-5.726455947e-12
1.116411668e-09
-5.74669441e-12
1.134005284e-09
-5.734300198e-12
1.149807419e-09
-5.691463374e-12
1.163905855e-09
-5.62078101e-12
1.176384885e-09
-5.525372049e-12
1.187325408e-09
-5.408386295e-12
1.196805193e-09
-5.273528582e-12
1.2048989e-09
-5.124493582e-12
1.211678159e-09
-4.965113826e-12
1.21721176e-09
-4.799585259e-12
1.221565686e-09
-4.631777146e-12
1.224803242e-09
-4.465816592e-12
1.226985117e-09
-4.305845876e-12
1.228169394e-09
-4.155713237e-12
1.228411825e-09
-4.019273987e-12
1.22776586e-09
-3.900287282e-12
1.226282424e-09
-3.802194827e-12
1.224010272e-09
-3.728373777e-12
1.220996506e-09
-3.681542769e-12
1.217285183e-09
-3.663828551e-12
1.212918463e-09
-3.676850802e-12
1.207937064e-09
-3.722429722e-12
1.202379646e-09
-3.615714921e-12
1.196096597e-09
-3.164853579e-12
1.189116477e-09
-2.391741134e-12
1.181606135e-09
-1.327470831e-12
1.173376219e-09
1.164785633e-09
-2.510480685e-14
4.572414729e-11
-9.816881155e-14
1.337960524e-10
-2.14962662e-13
2.169601941e-10
-3.70530451e-13
2.954206949e-10
-5.594511313e-13
3.69374675e-10
-7.759776775e-13
4.390122186e-10
-1.01433747e-12
5.045164571e-10
-1.268593743e-12
5.660641982e-10
-1.533247355e-12
6.238254511e-10
-1.802696295e-12
6.779641138e-10
-2.071943217e-12
7.286380618e-10
-2.336425746e-12
7.759992048e-10
-2.591888419e-12
8.201938247e-10
-2.834699623e-12
8.613626789e-10
-3.061770475e-12
8.9964126e-10
-3.270596518e-12
9.351599491e-10
-3.459256644e-12
9.680441935e-10
-3.626353366e-12
9.984145837e-10
-3.771034075e-12
1.02638715e-09
-3.892972726e-12
1.052073458e-09
-3.992418998e-12
1.075581177e-09
-4.070001917e-12
1.09701314e-09
-4.126880875e-12
1.116468547e-09
-4.164678034e-12
1.134043081e-09
-4.185122854e-12
1.149827864e-09
-4.190727959e-12
1.163911461e-09
-4.1836978e-12
1.176377855e-09
-4.167074996e-12
1.187308785e-09
-4.143537603e-12
1.196781655e-09
-4.116364492e-12
1.204871726e-09
-4.088696261e-12
1.211650491e-09
-4.063723084e-12
1.217186787e-09
-4.04499678e-12
1.221546959e-09
-4.035581997e-12
1.224793827e-09
-4.038849971e-12
1.226988385e-09
-4.058065536e-12
1.228188609e-09
-4.096094629e-12
1.228449855e-09
-4.156039098e-12
1.227825804e-09
-4.240485192e-12
1.22636687e-09
-4.35176477e-12
1.224121551e-09
-4.49135601e-12
1.221136097e-09
-4.660318489e-12
1.217454145e-09
-4.860599281e-12
1.213118744e-09
-4.855691078e-12
1.207932155e-09
-4.513697072e-12
1.202037652e-09
-3.856869057e-12
1.195439769e-09
-2.91338774e-12
1.188172995e-09
-1.788969993e-12
1.180481717e-09
-8.159856252e-13
1.172403235e-09
1.163969648e-09
-1.879203814e-14
4.574293933e-11
-7.330944787e-14
1.338505699e-10
-1.603682762e-13
2.17047253e-10
-2.763383108e-13
2.95536665e-10
-4.172407896e-13
3.695155775e-10
-5.787830141e-13
4.391737609e-10
-7.568524933e-13
5.046945266e-10
-9.470575337e-13
5.662544032e-10
-1.145384401e-12
6.24023778e-10
-1.348018161e-12
6.781667475e-10
-1.551331628e-12
7.288413752e-10
-1.752140175e-12
7.762000134e-10
-1.947633841e-12
8.203893184e-10
-2.135409562e-12
8.615504546e-10
-2.313494039e-12
8.998193445e-10
-2.480351097e-12
9.353268062e-10
-2.634880241e-12
9.681987227e-10
-2.776519559e-12
9.98556223e-10
-2.9050962e-12
1.026515727e-09
-3.020780964e-12
1.052189143e-09
-3.124028889e-12
1.075684425e-09
-3.215897209e-12
1.097105009e-09
-3.297596435e-12
1.116550246e-09
-3.370654008e-12
1.134116139e-09
-3.436877218e-12
1.149894087e-09
-3.49822887e-12
1.163972812e-09
-3.556933378e-12
1.176436559e-09
-3.615288305e-12
1.18736714e-09
-3.675749892e-12
1.196842117e-09
-3.740859908e-12
1.204936836e-09
-3.813101794e-12
1.211722733e-09
-3.895209322e-12
1.217268894e-09
-3.989540931e-12
1.221641291e-09
-4.09871914e-12
1.224903005e-09
-4.225098806e-12
1.227114764e-09
-4.370835075e-12
1.228334346e-09
-4.538159675e-12
1.228617179e-09
-4.728464981e-12
1.22801611e-09
-4.942948757e-12
1.226581354e-09
-5.182101327e-12
1.224360704e-09
-5.447453473e-12
1.221401449e-09
-5.480160546e-12
1.217486852e-09
-5.175767281e-12
1.212814351e-09
-4.5553811e-12
1.207311769e-09
-3.644452752e-12
1.201126724e-09
-2.65120681e-12
1.194446523e-09
-1.790416067e-12
1.187312205e-09
-1.066613206e-12
1.179757914e-09
-4.739632411e-13
1.171810585e-09
1.163495684e-09
-1.492113397e-14
4.575786047e-11
-5.8371094e-14
1.338940198e-10
-1.279479642e-13
2.171168298e-10
-2.208904637e-13
2.956296075e-10
-3.341303094e-13
3.696288174e-10
-4.645923928e-13
4.393042229e-10
-6.090762867e-13
5.048390105e-10
-7.645796345e-13
5.664099065e-10
-9.280776724e-13
6.24187276e-10
-1.096841394e-12
6.783355112e-10
-1.268383323e-12
7.290129172e-10
-1.440478718e-12
7.763721088e-10
-1.611220763e-12
8.205600604e-10
-1.779072671e-12
8.617183065e-10
-1.942844011e-12
8.999831158e-10
-2.101653355e-12
9.354856155e-10
-2.254929159e-12
9.683519985e-10
-2.402458352e-12
9.987037522e-10
-2.544394961e-12
1.026657663e-09
-2.681305445e-12
1.052326054e-09
-2.813690876e-12
1.075816811e-09
-2.94256445e-12
1.097233882e-09
-3.069184902e-12
1.116676866e-09
-3.194699637e-12
1.134241654e-09
-3.320916241e-12
1.150020304e-09
-3.449173982e-12
1.16410107e-09
-3.58152741e-12
1.176568913e-09
-3.719509695e-12
1.187505122e-09
-3.865272753e-12
1.19698788e-09
-4.020431557e-12
1.205091995e-09
-4.187071145e-12
1.211889373e-09
-4.366875467e-12
1.217448699e-09
-4.561617484e-12
1.221836033e-09
-4.772862508e-12
1.22511425e-09
-5.002038564e-12
1.227343941e-09
-5.250018379e-12
1.228582326e-09
-5.517530738e-12
1.228884691e-09
-5.804279796e-12
1.228302859e-09
-6.111781348e-12
1.226888855e-09
-6.166784464e-12
1.224415707e-09
-5.881158721e-12
1.221115824e-09
-5.274575936e-12
1.216880269e-09
-4.369875541e-12
1.21190965e-09
-3.424256905e-12
1.20636615e-09
-2.592020526e-12
1.200294488e-09
-1.877518139e-12
1.193732021e-09
-1.274795677e-12
1.186709482e-09
-7.720974412e-13
1.179255216e-09
-3.536697684e-13
1.171392157e-09
1.163142015e-09
-1.273842044e-14
4.577059889e-11
-4.978324701e-14
1.339310646e-10
-1.092256218e-13
2.171762722e-10
-1.889259038e-13
2.957093078e-10
-2.866314925e-13
3.69726523e-10
-4.000702013e-13
4.394176617e-10
-5.268851508e-13
5.049658254e-10
-6.64861774e-13
5.665478832e-10
-8.119780683e-13
6.243343923e-10
-9.66242536e-13
6.784897757e-10
-1.125952498e-12
7.291726271e-10
-1.289634988e-12
7.765357913e-10
-1.456065188e-12
8.207264906e-10
-1.624279979e-12
8.618865213e-10
-1.7935772e-12
9.001524131e-10
-1.963519095e-12
9.356555574e-10
-2.133949079e-12
9.685224284e-10
-2.30495635e-12
9.988747595e-10
-2.476791895e-12
1.026829499e-09
-2.649954434e-12
1.052499216e-09
-2.825209538e-12
1.075992066e-09
-3.003336495e-12
1.097412009e-09
-3.185355832e-12
1.116858886e-09
-3.372398269e-12
1.134428696e-09
-3.565624984e-12
1.15021353e-09
-3.766340023e-12
1.164301785e-09
-3.975824593e-12
1.176778397e-09
-4.195358626e-12
1.187724656e-09
-4.426297088e-12
1.197218818e-09
-4.669776888e-12
1.205335475e-09
-4.927090553e-12
1.212146686e-09
-5.199179066e-12
1.217720787e-09
-5.48693593e-12
1.22212379e-09
-5.790807717e-12
1.225418122e-09
-6.110861359e-12
1.227663994e-09
-6.446697517e-12
1.228918162e-09
-6.799342063e-12
1.229237336e-09
-6.885128397e-12
1.228388645e-09
-6.627583203e-12
1.22663131e-09
-6.044807645e-12
1.223832932e-09
-5.157496775e-12
1.220228513e-09
-4.243266568e-12
1.215966039e-09
-3.427872356e-12
1.211094256e-09
-2.716024041e-12
1.205654302e-09
-2.102225381e-12
1.199680689e-09
-1.575301843e-12
1.193205097e-09
-1.119991773e-12
1.186254172e-09
-7.172915433e-13
1.178852516e-09
-3.492426488e-13
1.171024108e-09
1.162792772e-09
-1.167944024e-14
4.578227833e-11
-4.578453311e-14
1.339651697e-10
-1.007143839e-13
2.17231202e-10
-1.7476673e-13
2.957833601e-10
-2.662225273e-13
3.698179788e-10
-3.732551659e-13
4.395246943e-10
-4.942413692e-13
5.050868116e-10
-6.274730342e-13
5.666811148e-10
-7.714544587e-13
6.244783737e-10
-9.248499286e-13
6.786431712e-10
-1.086520638e-12
7.293342978e-10
-1.255452095e-12
7.767047227e-10
-1.43082925e-12
8.209018678e-10
-1.612043308e-12
8.620677354e-10
-1.798687464e-12
9.003390572e-10
-1.990616573e-12
9.358474865e-10
-2.187827744e-12
9.687196396e-10
-2.390487394e-12
9.990774191e-10
-2.598869064e-12
1.027037881e-09
-2.813442512e-12
1.05271379e-09
-3.034848393e-12
1.076213472e-09
-3.263674954e-12
1.097640836e-09
-3.500772336e-12
1.117095983e-09
-3.747004907e-12
1.134674929e-09
-4.003064948e-12
1.15046959e-09
-4.270049783e-12
1.16456877e-09
-4.548551343e-12
1.177056899e-09
-4.839745581e-12
1.18801585e-09
-5.144068148e-12
1.197523141e-09
-5.462585633e-12
1.205653992e-09
-5.795404368e-12
1.212479505e-09
-6.142994331e-12
1.218068377e-09
-6.504962071e-12
1.222485758e-09
-6.880823136e-12
1.225793983e-09
-7.27156022e-12
1.228054731e-09
-7.390257615e-12
1.229036859e-09
-7.165993359e-12
1.229013072e-09
-6.615232828e-12
1.227837884e-09
-5.756714552e-12
1.225772792e-09
-4.880503314e-12
1.22295672e-09
-4.094833231e-12
1.219442843e-09
-3.405009676e-12
1.215276216e-09
-2.806582824e-12
1.210495829e-09
-2.289353099e-12
1.205137072e-09
-1.83892175e-12
1.199230258e-09
-1.437146115e-12
1.192803322e-09
-1.066324547e-12
1.185883351e-09
-7.108092938e-13
1.178497e-09
-3.581160399e-13
1.170671415e-09
1.162434656e-09
-1.14218765e-14
4.57937002e-11
-4.475033227e-14
1.339984982e-10
-9.858449828e-14
2.172850362e-10
-1.71524956e-13
2.958563006e-10
-2.621102662e-13
3.699085641e-10
-3.689928085e-13
4.396315768e-10
-4.907891674e-13
5.05208608e-10
-6.263706871e-13
5.668166964e-10
-7.745309876e-13
6.24626534e-10
-9.34272459e-13
6.788029127e-10
-1.104748932e-12
7.295047743e-10
-1.285259616e-12
7.768852334e-10
-1.475259598e-12
8.210918678e-10
-1.67435787e-12
8.622668337e-10
-1.88231e-12
9.005470093e-10
-2.099011293e-12
9.360641878e-10
-2.324473769e-12
9.689451021e-10
-2.558726926e-12
9.993116723e-10
-2.802097033e-12
1.027281251e-09
-3.055012548e-12
1.052966705e-09
-3.317758911e-12
1.076476218e-09
-3.590832989e-12
1.09791391e-09
-3.874908877e-12
1.117380059e-09
-4.170289842e-12
1.13497031e-09
-4.477780866e-12
1.150777081e-09
-4.797789432e-12
1.164888778e-09
-5.130882105e-12
1.177389992e-09
-5.477574337e-12
1.188362542e-09
-5.838021963e-12
1.197883589e-09
-6.212369558e-12
1.20602834e-09
-6.600322131e-12
1.212867458e-09
-7.001178197e-12
1.218469233e-09
-7.416157556e-12
1.222900737e-09
-7.565396031e-12
1.225943221e-09
-7.375015228e-12
1.22786435e-09
-6.859680517e-12
1.228521524e-09
-6.035905836e-12
1.228189297e-09
-5.202759473e-12
1.227004738e-09
-4.455486943e-12
1.225025519e-09
-3.79975031e-12
1.222300984e-09
-3.232650166e-12
1.218875742e-09
-2.745147216e-12
1.214788713e-09
-2.323936558e-12
1.210074619e-09
-1.95183656e-12
1.204764972e-09
-1.611935919e-12
1.198890357e-09
-1.289249561e-12
1.192480635e-09
-9.718679313e-13
1.185565969e-09
-6.522871942e-13
1.17817742e-09
-3.277730255e-13
1.170346901e-09
1.162106883e-09
-1.164297434e-14
4.580534318e-11
-4.571487588e-14
1.340325701e-10
-1.009157243e-13
2.173402371e-10
-1.759411152e-13
2.95931326e-10
-2.695188529e-13
3.700021418e-10
-3.805216829e-13
4.397425797e-10
-5.077775705e-13
5.053358639e-10
-6.502738914e-13
5.669591927e-10
-8.071495813e-13
6.247834097e-10
-9.775785252e-13
6.789733416e-10
-1.160823461e-12
7.296880193e-10
-1.356319869e-12
7.770807298e-10
-1.563622524e-12
8.212991704e-10
-1.782401197e-12
8.624856123e-10
-2.012434382e-12
9.007770425e-10
-2.25354108e-12
9.363052945e-10
-2.505683712e-12
9.691972447e-10
-2.768922242e-12
9.995749108e-10
-3.043558481e-12
1.027555887e-09
-3.329670943e-12
1.053252818e-09
-3.627467634e-12
1.076774015e-09
-3.937395761e-12
1.098223838e-09
-4.259693359e-12
1.117702356e-09
-4.594679706e-12
1.135305296e-09
-4.942819873e-12
1.151125221e-09
-5.304321751e-12
1.16525028e-09
-5.67933467e-12
1.177765004e-09
-6.067797325e-12
1.188751005e-09
-6.46954635e-12
1.198285338e-09
-6.883754378e-12
1.206442548e-09
-7.311854725e-12
1.213295558e-09
-7.490522273e-12
1.218647901e-09
-7.335506048e-12
1.222745721e-09
-6.859294463e-12
1.22546701e-09
-6.075728419e-12
1.227080784e-09
-5.285652294e-12
1.227731448e-09
-4.577499957e-12
1.227481145e-09
-3.95734071e-12
1.226384579e-09
-3.423191276e-12
1.22449137e-09
-2.967705999e-12
1.221845498e-09
-2.578683142e-12
1.21848672e-09
-2.240042695e-12
1.214450072e-09
-1.935425553e-12
1.209770001e-09
-1.650386285e-12
1.204479933e-09
-1.373328988e-12
1.1986133e-09
-1.096925004e-12
1.192204231e-09
-8.183689616e-13
1.185287413e-09
-5.392163366e-13
1.177898267e-09
-2.643670142e-13
1.170072051e-09
1.161842516e-09
-1.212819955e-14
4.581747138e-11
-4.760685765e-14
1.340680488e-10
-1.0513972e-13
2.173977699e-10
-1.834806612e-13
2.960096669e-10
-2.815061556e-13
3.701001673e-10
-3.981080923e-13
4.398591816e-10
-5.323414642e-13
5.054700972e-10
-6.831940061e-13
5.671100452e-10
-8.499470832e-13
6.249501628e-10
-1.031879224e-12
6.791552737e-10
-1.228364001e-12
7.29884504e-10
-1.438878877e-12
7.772912447e-10
-1.662997952e-12
8.215232895e-10
-1.900385382e-12
8.627229998e-10
-2.15080076e-12
9.010274579e-10
-2.414092425e-12
9.365685862e-10
-2.690182116e-12
9.694733344e-10
-2.979073104e-12
9.998638018e-10
-3.280881637e-12
1.027857696e-09
-3.595658376e-12
1.053567594e-09
-3.923556669e-12
1.077101913e-09
-4.264771582e-12
1.098565053e-09
-4.61952251e-12
1.118057107e-09
-4.987987998e-12
1.135673762e-09
-5.370072281e-12
1.151507306e-09
-5.76579936e-12
1.165646007e-09
-6.174910474e-12
1.178174116e-09
-6.596674854e-12
1.189172769e-09
-7.032571333e-12
1.198721234e-09
-7.242083914e-12
1.206652061e-09
-7.12646674e-12
1.213179941e-09
-6.695650972e-12
1.218217085e-09
-5.960381214e-12
1.222010451e-09
-5.212901333e-12
1.22471953e-09
-4.543034776e-12
1.226410918e-09
-3.957490483e-12
1.227145904e-09
-3.454885828e-12
1.22697854e-09
-3.02906319e-12
1.225958756e-09
-2.669555251e-12
1.224131862e-09
-2.361678306e-12
1.221537621e-09
-2.089087006e-12
1.218214128e-09
-1.83765632e-12
1.214198642e-09
-1.595763695e-12
1.209528109e-09
-1.355798896e-12
1.204239968e-09
-1.114506149e-12
1.198372007e-09
-8.727444756e-13
1.19196247e-09
-6.348343774e-13
1.185049503e-09
-4.069272617e-13
1.17767036e-09
-1.942533727e-13
1.169859377e-09
1.161648263e-09
-1.267744851e-14
4.583014883e-11
-4.980281364e-14
1.341051741e-10
-1.10068781e-13
2.174580359e-10
-1.922533125e-13
2.960918514e-10
-2.952650775e-13
3.702031791e-10
-4.180265159e-13
4.39981943e-10
-5.5963599e-13
5.056117067e-10
-7.191988049e-13
5.67269608e-10
-8.959822906e-13
6.251269463e-10
-1.089325386e-12
6.793486168e-10
-1.298641794e-12
7.300938204e-10
-1.523439692e-12
7.775160426e-10
-1.763313913e-12
8.217631637e-10
-2.017940655e-12
8.629776265e-10
-2.287072088e-12
9.012965893e-10
-2.570536703e-12
9.368520508e-10
-2.868235607e-12
9.697710333e-10
-3.180121851e-12
1.000175688e-09
-3.506149982e-12
1.028183724e-09
-3.84643667e-12
1.053907881e-09
-4.201074497e-12
1.077456551e-09
-4.569980879e-12
1.098933959e-09
-4.953119464e-12
1.118440246e-09
-5.350445514e-12
1.136071088e-09
-5.761566582e-12
1.151918427e-09
-6.185951622e-12
1.166070392e-09
-6.625031909e-12
1.178613196e-09
-6.863536152e-12
1.189411274e-09
-6.788191983e-12
1.19864589e-09
-6.406131983e-12
1.206270001e-09
-5.725323285e-12
1.212499132e-09
-5.018492636e-12
1.217510254e-09
-4.384431543e-12
1.22137639e-09
-3.830428729e-12
1.224165527e-09
-3.356622545e-12
1.225937112e-09
-2.957182746e-12
1.226746464e-09
-2.622850291e-12
1.226644208e-09
-2.341029672e-12
1.225676936e-09
-2.096365524e-12
1.223887198e-09
-1.874425214e-12
1.221315681e-09
-1.663476379e-12
1.218003179e-09
-1.455466204e-12
1.213990631e-09
-1.24649455e-12
1.209319137e-09
-1.036702625e-12
1.204030176e-09
-8.297160315e-13
1.19816502e-09
-6.311821479e-13
1.191763936e-09
-4.464989714e-13
1.18486482e-09
-2.791739442e-13
1.177503035e-09
-1.304073663e-13
1.169710611e-09
1.161517855e-09
-1.319298942e-14
4.584334182e-11
-5.181847962e-14
1.341437996e-10
-1.145540029e-13
2.175207714e-10
-2.001935263e-13
2.961774909e-10
-3.076422115e-13
3.703106277e-10
-4.358970338e-13
4.401101979e-10
-5.840561855e-13
5.057598658e-10
-7.513142729e-13
5.674368661e-10
-9.369587275e-13
6.253125907e-10
-1.140355007e-12
6.795520131e-10
-1.360956759e-12
7.303144222e-10
-1.59829783e-12
7.777533837e-10
-1.851991444e-12
8.220168573e-10
-2.121731957e-12
8.63247367e-10
-2.407283546e-12
9.015821409e-10
-2.70847177e-12
9.37153239e-10
-3.025183464e-12
9.70087745e-10
-3.357345481e-12
1.00050785e-09
-3.704775727e-12
1.028531154e-09
-4.06747539e-12
1.054270581e-09
-4.445330338e-12
1.077834406e-09
-4.838106298e-12
1.099326735e-09
-5.245462238e-12
1.118847602e-09
-5.667000868e-12
1.136492626e-09
-6.104092836e-12
1.152355519e-09
-6.364908211e-12
1.166331208e-09
-6.326222037e-12
1.17857451e-09
-5.992131628e-12
1.189077183e-09
-5.367773145e-12
1.198021532e-09
-4.699548665e-12
1.205601776e-09
-4.098762086e-12
1.211898346e-09
-3.573340532e-12
1.216984833e-09
-3.125182005e-12
1.220928231e-09
-2.749116871e-12
1.223789462e-09
-2.437075652e-12
1.22562507e-09
-2.177590253e-12
1.226486979e-09
-1.957118296e-12
1.226423736e-09
-1.761672043e-12
1.225481489e-09
-1.578970493e-12
1.223704496e-09
-1.40046759e-12
1.221137178e-09
-1.221545657e-12
1.217824258e-09
-1.041538246e-12
1.213810624e-09
-8.633364024e-13
1.209140935e-09
-6.921500081e-13
1.20385899e-09
-5.334282839e-13
1.198006299e-09
-3.910975031e-13
1.191621605e-09
-2.668142061e-13
1.184740536e-09
-1.604685373e-13
1.177396689e-09
-7.162085029e-14
1.169621763e-09
1.161446234e-09
-1.359505833e-14
4.585693687e-11
-5.342699627e-14
1.341836315e-10
-1.181698232e-13
2.175855142e-10
-2.066297703e-13
2.962659509e-10
-3.177005249e-13
3.704216985e-10
-4.504570293e-13
4.402429544e-10
-6.039921854e-13
5.05913401e-10
-7.775954234e-13
5.676104694e-10
-9.705572268e-13
6.255055525e-10
-1.18227271e-12
6.797637286e-10
-1.412236087e-12
7.305443856e-10
-1.660017263e-12
7.780011648e-10
-1.925258327e-12
8.222820984e-10
-2.207668626e-12
8.635297773e-10
-2.507022965e-12
9.018814953e-10
-2.82315381e-12
9.374693699e-10
-3.155916518e-12
9.704205077e-10
-3.50511997e-12
1.000857053e-09
-3.870388844e-12
1.028896423e-09
-4.251476103e-12
1.054651668e-09
-4.648231535e-12
1.078231161e-09
-5.060323173e-12
1.099738827e-09
-5.489145303e-12
1.119276424e-09
-5.760528e-12
1.136764009e-09
-5.750045636e-12
1.152345036e-09
-5.458606496e-12
1.166039769e-09
-4.888248479e-12
1.178004152e-09
-4.257341181e-12
1.188446276e-09
-3.687413564e-12
1.197451604e-09
-3.187736204e-12
1.205102099e-09
-2.761420403e-12
1.21147203e-09
-2.405268564e-12
1.216628681e-09
-2.111898463e-12
1.220634861e-09
-1.871200055e-12
1.223548764e-09
-1.670819131e-12
1.22542469e-09
-1.497953873e-12
1.226314113e-09
-1.340694782e-12
1.226266477e-09
-1.18960185e-12
1.225330396e-09
-1.039159614e-12
1.223554054e-09
-8.877006551e-13
1.220985719e-09
-7.372529793e-13
1.21767381e-09
-5.925280149e-13
1.213665899e-09
-4.59026224e-13
1.209007434e-09
-3.410202306e-13
1.203740984e-09
-2.406585761e-13
1.197905937e-09
-1.582394957e-13
1.191539186e-09
-9.335343981e-14
1.18467565e-09
-4.549744687e-14
1.177348833e-09
-1.442820457e-14
1.169590694e-09
1.161431806e-09
-1.383989147e-14
4.587077677e-11
-5.437743972e-14
1.342241691e-10
-1.202958506e-13
2.176514327e-10
-2.104351283e-13