/*--------------------------------*- C++ -*----------------------------------*\
  =========                 |
  \\      /  F ield         | OpenFOAM: The Open Source CFD Toolbox
   \\    /   O peration     | Website:  https://openfoam.org
    \\  /    A nd           | Version:  7
     \\/     M anipulation  |
\*---------------------------------------------------------------------------*/
FoamFile
{
    version     2.0;
    format      ascii;
    class       volScalarField;
    location    "0.0003";
    object      rho;
}
// * * * * * * * * * * * * * * * * * * * * * * * * * * * * * * * * * * * * * //

dimensions      [1 -3 0 0 0 0 0];

internalField   nonuniform List<scalar> 
14000
(
1024.470538
1024.470416
1024.470148
1024.469735
1024.469168
1024.468427
1024.467488
1024.46632
1024.464883
1024.463128
1024.460997
1024.458416
1024.455302
1024.451551
1024.447043
1024.441632
1024.435147
1024.427387
1024.418114
1024.407049
1024.393865
1024.37818
1024.359548
1024.337452
1024.311289
1024.280365
1024.243878
1024.200905
1024.150388
1024.091359
1024.022522
1023.942074
1023.848244
1023.739247
1023.613391
1023.467499
1023.299605
1023.106283
1022.884879
1022.631304
1022.341951
1022.012894
1021.63942
1021.216892
1020.739808
1020.202412
1019.599157
1018.923421
1018.168309
1017.326899
1024.416848
1024.415478
1024.41249
1024.407932
1024.401735
1024.393775
1024.383878
1024.371822
1024.357341
1024.340116
1024.319777
1024.2959
1024.268002
1024.235539
1024.197897
1024.154395
1024.10441
1024.047312
1023.981915
1023.907222
1023.822152
1023.725858
1023.617297
1023.494686
1023.357022
1023.203125
1023.030997
1022.839984
1022.627876
1022.393484
1022.135559
1021.852252
1021.542275
1021.204361
1020.837292
1020.439933
1020.011251
1019.550386
1019.057274
1018.531008
1017.972062
1017.380374
1016.756914
1016.102894
1015.419785
1014.709797
1013.975712
1013.221088
1012.450093
1011.667505
1024.256991
1024.252674
1024.243288
1024.229074
1024.209935
1024.185641
1024.155854
1024.120146
1024.078338
1024.02954
1023.973074
1023.908188
1023.834054
1023.749907
1023.655276
1023.548605
1023.428817
1023.295684
1023.14738
1022.983142
1022.801964
1022.602694
1022.384188
1022.145953
1021.886495
1021.605082
1021.301071
1020.97389
1020.622746
1020.247183
1019.847075
1019.422176
1018.972346
1018.497648
1017.99893
1017.476125
1016.930383
1016.362165
1015.772979
1015.163846
1014.536181
1013.891635
1013.231998
1012.559185
1011.875228
1011.18216
1010.48209
1009.77716
1009.069422
1008.360833
1023.933722
1023.924864
1023.905672
1023.876775
1023.838179
1023.789673
1023.73117
1023.662167
1023.58188
1023.489619
1023.384832
1023.267164
1023.135151
1022.988391
1022.826094
1022.647152
1022.451167
1022.237121
1022.004104
1021.75218
1021.480113
1021.18749
1020.873955
1020.539229
1020.183096
1019.805443
1019.406265
1018.985643
1018.543769
1018.081206
1017.598484
1017.09586
1016.574655
1016.035101
1015.478808
1014.906328
1014.319005
1013.71831
1013.105295
1012.481405
1011.848108
1011.206996
1010.559503
1009.907069
1009.251218
1008.593427
1007.935145
1007.277761
1006.622622
1005.970993
1023.416859
1023.402625
1023.371939
1023.325953
1023.264923
1023.18883
1023.097467
1022.990992
1022.868851
1022.730227
1022.575445
1022.403246
1022.21374
1022.005788
1021.779834
1021.534689
1021.270124
1020.986195
1020.682498
1020.358793
1020.015045
1019.651307
1019.267696
1018.864403
1018.441906
1018.000602
1017.540789
1017.063085
1016.568542
1016.057406
1015.531049
1014.989855
1014.435414
1013.86829
1013.289755
1012.701119
1012.103332
1011.497626
1010.885424
1010.267875
1009.646168
1009.021543
1008.395222
1007.768566
1007.142741
1006.518783
1005.897778
1005.280765
1004.668674
1004.061806
1022.710338
1022.690746
1022.648571
1022.585594
1022.502428
1022.399365
1022.277016
1022.135278
1021.973852
1021.793373
1021.593029
1021.373242
1021.133768
1020.874348
1020.595096
1020.296326
1019.977777
1019.639636
1019.282121
1018.905499
1018.510105
1018.096505
1017.665174
1017.216494
1016.751065
1016.269981
1015.773583
1015.262875
1014.738734
1014.202045
1013.653761
1013.095028
1012.526614
1011.949907
1011.365826
1010.775356
1010.179753
1009.580226
1008.977682
1008.373207
1007.768031
1007.163289
1006.55982
1005.9586
1005.360669
1004.767086
1004.177738
1003.592413
1003.011289
1002.434907
1021.841495
1021.817154
1021.764742
1021.686692
1021.584395
1021.458515
1021.309255
1021.137884
1020.943902
1020.728626
1020.491616
1020.233314
1019.9545
1019.655128
1019.335585
1018.996292
1018.6377
1018.260294
1017.864582
1017.451111
1017.020742
1016.573985
1016.111439
1015.634023
1015.14264
1014.637819
1014.120979
1013.59248
1013.053825
1012.505539
1011.948931
1011.384938
1010.814417
1010.238776
1009.658815
1009.075514
1008.490174
1007.903727
1007.317045
1006.731217
1006.147439
1005.566311
1004.988687
1004.41553
1003.8463
1003.28093
1002.720023
1002.02704
1000.80884
999.6213432
1020.84774
1020.819632
1020.759179
1020.669336
1020.551668
1020.407555
1020.237351
1020.042784
1019.82384
1019.581646
1019.316958
1019.030207
1018.722128
1018.393427
1018.044803
1017.676944
1017.290549
1016.886349
1016.465078
1016.027526
1015.574813
1015.10744
1014.626303
1014.132677
1013.627031
1013.110765
1012.584438
1012.04949
1011.506466
1010.956846
1010.401292
1009.840948
1009.277012
1008.710205
1008.141787
1007.57273
1007.003805
1006.436262
1005.870924
1005.308463
1004.750071
1004.195687
1003.645147
1003.098848
1002.556953
1001.70807
1000.536285
999.3959488
998.2994203
997.2516519
1019.767851
1019.736881
1019.670329
1019.571568
1019.442717
1019.284928
1019.099538
1018.887733
1018.650774
1018.389413
1018.104741
1017.797835
1017.469627
1017.120951
1016.752745
1016.365999
1015.96168
1015.540634
1015.103777
1014.652026
1014.18672
1013.708489
1013.218372
1012.717621
1012.206876
1011.687655
1011.160466
1010.626825
1010.087338
1009.543345
1008.995743
1008.445424
1007.89376
1007.34129
1006.789301
1006.238606
1005.68989
1005.144549
1004.602641
1004.064658
1003.53035
1002.999906
1002.474057
1001.558841
1000.423068
999.3177465
998.25538
997.238971
996.2684143
995.3430393
1018.63508
1018.602065
1018.531164
1018.426328
1018.289548
1018.12218
1017.926353
1017.702931
1017.453438
1017.179391
1016.881748
1016.561749
1016.220568
1015.859347
1015.479206
1015.081232
1014.666489
1014.236269
1013.791542
1013.333259
1012.862622
1012.380832
1011.888657
1011.387586
1010.878268
1010.362096
1009.83984
1009.31286
1008.781804
1008.248158
1007.712388
1007.175978
1006.639459
1006.103969
1005.570338
1005.039248
1004.511575
1003.986963
1003.465828
1002.947991
1002.43447
1001.497357
1000.387187
999.3059415
998.265649
997.2690771
996.3161536
995.4060466
994.5315618
993.6854152
1017.475952
1017.441579
1017.368072
1017.259254
1017.11714
1016.944018
1016.741113
1016.510602
1016.253557
1015.971531
1015.665986
1015.338324
1014.989868
1014.621901
1014.23569
1013.832443
1013.413343
1012.979561
1012.532343
1012.073023
1011.602449
1011.121913
1010.632602
1010.135319
1009.631655
1009.122108
1008.608277
1008.090645
1007.570768
1007.049007
1006.526982
1006.004896
1005.484251
1004.965275
1004.448974
1003.934963
1003.423586
1002.914872
1002.409664
1001.45939
1000.364519
999.2966476
998.2675773
997.2799679
996.3339592
995.4285728
994.5575242
993.7133858
992.8884183
992.0748402
1016.310767
1016.275717
1016.200508
1016.089186
1015.944285
1015.767616
1015.561128
1015.32636
1015.06534
1014.779409
1014.470115
1014.138978
1013.78744
1013.416898
1013.028703
1012.624163
1012.204595
1011.771458
1011.32574
1010.868606
1010.401506
1009.925433
1009.44141
1008.950942
1008.454598
1007.953891
1007.44947
1006.942606
1006.43404
1005.924841
1005.415752
1004.907672
1004.401013
1003.895839
1003.392249
1002.890512
1002.391341
1001.430397
1000.345226
999.2850828
998.2618083
997.2779709
996.3339903
995.4290675
994.5571063
993.7107746
992.8823546
992.0640205
991.2495982
990.4349745
1015.153628
1015.118169
1015.042101
1014.929784
1014.783567
1014.605326
1014.397307
1014.161137
1013.898524
1013.611257
1013.301064
1012.969363
1012.617684
1012.24751
1011.860275
1011.457485
1011.040342
1010.610122
1010.168052
1009.715649
1009.253914
1008.783876
1008.307073
1007.824226
1007.336519
1006.84511
1006.350657
1005.854625
1005.357297
1004.860122
1004.363037
1003.866508
1003.370471
1002.875407
1002.381965
1001.420454
1000.344177
999.2909764
998.2726176
997.2920421
996.3498634
995.4452845
994.5729747
993.7254795
992.8951796
992.0742684
991.2565506
990.4378884
989.6162548
988.7916498
1014.014081
1013.978512
1013.902387
1013.789958
1013.643425
1013.465245
1013.257021
1013.021128
1012.758998
1012.472449
1012.163205
1011.832905
1011.483124
1011.115376
1010.731108
1010.331714
1009.918552
1009.492935
1009.056297
1008.609849
1008.154628
1007.691929
1007.223011
1006.748626
1006.270194
1005.788479
1005.304398
1004.819136
1004.33274
1003.845885
1003.35842
1002.870997
1002.384273
1001.438474
1000.373064
999.3286345
998.3165013
997.3407664
996.4020372
995.4990517
994.6285825
993.7825318
992.9535091
992.1337924
991.317169
990.4994571
989.6785624
988.8544211
988.0293118
987.2068541
1012.898492
1012.863149
1012.787359
1012.6753
1012.529409
1012.352092
1012.145054
1011.910369
1011.649982
1011.365498
1011.058677
1010.73119
1010.384645
1010.020588
1009.640508
1009.24582
1008.83789
1008.418053
1007.987887
1007.548341
1007.100587
1006.646022
1006.185718
1005.720501
1005.251782
1004.78025
1004.306365
1003.830824
1003.353542
1002.875284
1002.396756
1001.482076
1000.430291
999.3970468
998.3928103
997.4235965
996.4898066
995.5900659
994.7219172
993.8789409
993.0530457
992.2366091
991.4233511
990.6089712
989.7911961
988.9697796
988.1465103
987.3249245
986.508851
985.7008159
1011.810935
1011.775849
1011.700619
1011.589405
1011.444813
1011.268936
1011.063813
1010.831225
1010.573433
1010.291919
1009.98846
1009.664764
1009.322456
1008.96309
1008.58817
1008.199137
1007.797371
1007.38423
1006.961265
1006.529457
1006.089967
1005.644096
1005.193099
1004.737627
1004.278498
1003.816251
1003.351068
1002.883764
1002.415119
1001.542256
1000.507102
999.4876936
998.493276
997.5323266
996.6049079
995.710142
994.8450045
994.0052274
993.1836483
992.371757
991.5631718
990.7534215
989.9399815
989.1223415
988.3019755
987.4819077
986.6659965
985.8574517
985.0572172
984.265473
1010.753586
1010.718867
1010.644429
1010.534403
1010.391453
1010.21754
1010.014828
1009.785049
1009.530453
1009.25259
1008.953205
1008.634022
1008.29668
1007.942753
1007.573753
1007.191126
1006.796268
1006.39051
1005.975336
1005.551931
1005.121347
1004.684617
1004.242773
1003.796145
1003.345232
1002.89091
1002.434032
1001.607828
1000.592665
999.5902038
998.6092131
997.6577007
996.7384867
995.8502423
994.9904104
994.1547144
993.3372385
992.5308566
991.7282595
990.9244429
990.1165913
989.3038848
988.4874321
987.6700176
986.8553038
986.0465735
985.2453966
984.4522993
983.6673011
982.8906839
1009.727798
1009.693532
1009.620072
1009.511505
1009.370443
1009.198916
1008.998991
1008.772466
1008.521614
1008.247897
1007.953122
1007.63901
1007.307208
1006.959304
1006.596815
1006.221188
1005.833812
1005.436025
1005.029092
1004.614309
1004.192451
1003.764063
1003.329869
1002.890839
1002.44786
1001.666526
1000.675497
999.6937515
998.729874
997.7905617
996.8817585
996.0021511
995.1494572
994.3200115
993.5084748
992.7081055
991.9122154
991.1156338
990.3148694
989.5085027
988.6972524
987.8836291
987.0711422
986.2632522
985.4620035
984.6680502
983.8815619
983.1028325
982.3322774
981.5703109
1008.734323
1008.700581
1008.628245
1008.521349
1008.382328
1008.213525
1008.016658
1007.793872
1007.547064
1007.277872
1006.988103
1006.679484
1006.353661
1006.012212
1005.65666
1005.288455
1004.908948
1004.519303
1004.120454
1003.713239
1003.298508
1002.877375
1002.450697
1001.705803
1000.74375
999.7871877
998.8444959
997.9225891
997.0257795
996.1575312
995.3143545
994.4932539
993.6895439
992.8970974
992.1094355
991.3212723
990.5289789
989.7307105
988.9264244
988.1180281
987.3089825
986.5029945
985.7026201
984.9087723
984.1217085
983.3416985
982.5691712
981.8045397
981.0483083
980.3010511
1007.773545
1007.74025
1007.669144
1007.564102
1007.427357
1007.261423
1007.067859
1006.849107
1006.606593
1006.342194
1006.057863
1005.755197
1005.43575
1005.101089
1004.752663
1004.391733
1004.019373
1003.636591
1003.244517
1002.844073
1002.436386
1001.712606
1000.785254
999.859035
998.9423773
998.0422936
997.1635245
996.3082716
995.4770981
994.6669615
993.8734003
993.0909853
992.313517
991.5356379
990.7535157
989.9649536
989.1695126
988.3685544
987.5649283
986.7622847
985.9638069
985.1710882
984.3844136
983.604004
982.8303018
982.0637795
981.3049237
980.5543351
979.8126611
979.0804965
1006.845451
1006.81278
1006.742748
1006.639564
1006.50545
1006.342298
1006.152556
1005.93771
1005.699705
1005.440635
1005.161901
1004.865182
1004.552026
1004.223802
1003.88174
1003.527017
1003.160787
1002.784215
1002.398533
1001.673443
1000.787097
999.8973075
999.012392
998.1394177
997.28349
996.4473501
995.6313992
994.8343045
994.0530115
993.2831255
992.518202
991.7528119
990.9829635
990.2061311
989.4214837
988.6298822
987.8338203
987.0367312
986.2419946
985.4516469
984.666441
983.8866731
983.112756
982.3452159
981.5845458
980.831386
980.0863517
979.3501396
978.6232578
977.9059786
1005.949464
1005.917456
1005.848849
1005.747484
1005.615854
1005.45601
1005.269763
1005.059139
1004.825996
1004.571822
1004.298299
1004.007036
1003.699333
1003.376496
1003.039844
1002.690682
1002.330358
1001.574004
1000.735781
999.8893661
999.0427691
998.2030838
997.3756904
996.5638311
995.7686024
994.9893613
994.2238619
993.4683098
992.7175701
991.9664723
991.2109072
990.4480516
989.6765735
988.8966623
988.1102799
987.3207196
986.53156
985.7454257
984.9633795
984.1858332
983.4131748
982.6459497
981.8846972
981.1300208
980.3826058
979.643192
978.9124127
978.1906687
977.4782022
976.7751699
1005.085146
1005.053681
1004.986292
1004.887103
1004.758008
1004.601125
1004.418499
1004.211754
1003.982547
1003.732787
1003.463744
1003.176949
1002.873869
1002.555945
1002.16128
1001.399293
1000.616926
999.8214032
999.0204449
998.2209946
997.4285849
996.6468881
995.877652
995.1209394
994.375334
993.6379082
992.9044098
992.1701589
991.4311403
990.6844335
989.9284034
989.1628437
988.3891148
987.6099083
986.8286928
986.0486233
985.2713572
984.4975621
983.7277055
982.9622379
982.2017725
981.4468912
980.6983098
979.9567825
979.2230576
978.4976826
977.78099
977.073206
976.3745173
975.6851293
1004.250766
1004.219925
1004.15382
1004.056158
1003.929197
1003.774981
1003.595109
1003.391561
1003.165868
1002.919599
1002.654464
1002.37203
1001.826108
1001.132886
1000.414743
999.6785291
998.9314018
998.1800322
997.4299636
996.6852063
995.9480895
995.2193836
994.4985091
993.7834444
993.0708901
992.356776
991.6372982
990.9095301
990.171604
989.4229621
988.6644564
987.8983837
987.1279449
986.3564629
985.5862074
984.8181803
984.0528768
983.290825
982.5326768
981.7790533
981.0306681
980.2882946
979.552764
978.8247719
978.104774
977.3930803
976.6899168
975.9955302
975.31015
974.6339229
1003.442668
1003.412234
1003.347003
1003.25075
1003.125659
1002.973427
1002.796198
1002.595332
1002.37291
1001.951869
1001.372445
1000.757117
1000.112541
999.4448934
998.76066
998.0661296
997.3667012
996.6666065
995.9686526
995.2742964
994.5837785
993.8960046
993.2086863
992.5184947
991.8219789
991.1162796
990.3993743
989.6705452
988.9302025
988.1801501
987.4232089
986.6628904
985.9020752
985.1420872
984.3835626
983.6270154
982.8731273
982.1226048
981.3761423
980.6345496
979.898675
979.1693423
978.4471712
977.7325752
977.0258606
976.3272969
975.6371641
974.9556953
974.2830721
973.619529
1002.657098
1002.627019
1002.562717
1002.467772
1002.344207
1002.093487
1001.705099
1001.266303
1000.780893
1000.255712
999.695334
999.1056758
998.4929391
997.8644712
997.2248427
996.5780403
995.9272025
995.2744191
994.6207008
993.9658733
993.3087109
992.6470728
991.9769952
991.296352
990.6035127
989.8976336
989.1788267
988.4484126
987.7088122
986.9631779
986.2145962
985.4650542
984.7155421
983.9666662
983.2190994
982.473608
981.7309113
980.9918308
980.2572349
979.5280476
978.8050512
978.0887876
977.3796565
976.6779702
975.9840591
975.2982308
974.6207039
973.9517489
973.291583
972.6404327
1001.42135
1001.355699
1001.215046
1001.007405
1000.737685
1000.412027
1000.033406
999.6096559
999.1440168
998.6436251
998.1147598
997.5616899
996.9896204
996.4051833
995.8104137
995.2073897
994.5978145
993.9824015
993.3614654
992.7327227
992.0933872
991.4418896
990.7768714
990.0974777
989.4036137
988.6961831
987.9772288
987.2496115
986.5165176
985.7804758
985.042803
984.3042623
983.5655251
982.8273986
982.0906986
981.3562328
980.6249111
979.8976778
979.1754525
978.4589548
977.7486994
977.0450898
976.3484852
975.6592508
974.9777036
974.3040976
973.6387427
972.9818637
972.3338201
971.6947175
999.7706502
999.7070816
999.5710706
999.3707463
999.1127615
998.8019727
998.4430392
998.0436449
997.6072923
997.1402719
996.6486543
996.1346591
995.6034945
995.0594589
994.5023463
993.9336905
993.3547988
992.7648989
992.1614732
991.5437126
990.910696
990.2616952
989.5965075
988.915686
988.2211102
987.5153544
986.8014745
986.0822923
985.3595242
984.6341762
983.9069948
983.1788155
982.4505345
981.7229889
980.997114
980.2738818
979.5543146
978.8393012
978.1294987
977.4254166
976.7274711
976.0360843
975.3516527
974.6744867
974.0049264
973.3432717
972.6898138
972.0448059
971.4084605
970.7810241
998.1970682
998.1373035
998.0095462
997.8216644
997.5813374
997.2919791
996.9584312
996.5886414
996.1840549
995.7522414
995.2953599
994.8161757
994.3207952
993.8071374
993.2770662
992.7323654
992.1706615
991.5917762
990.9954048
990.3810399
989.7484278
989.0984344
988.4325504
987.7529493
987.0623997
986.3637926
985.6593406
984.9503712
984.2377989
983.5224708
982.8053343
982.0873314
981.3693904
980.6525309
979.937798
979.2262245
978.5186544
977.8157235
977.1179506
976.4257941
975.7397173
975.0601406
974.3873911
973.7219012
973.0639955
972.4139876
971.7721109
971.1386458
970.5138666
969.8979629
996.7310526
996.6760021
996.5583173
996.3852334
996.1632116
995.8969575
995.588682
995.2468399
994.8713361
994.4694098
994.0400559
993.5902163
993.1172284
992.6236817
992.1101224
991.5758039
991.0212324
990.44621
989.8508692
989.2360913
988.60314
987.9538889
987.290828
986.6168553
985.9345793
985.2456665
984.5511869
983.8519934
983.1491034
982.4435578
981.7363278
981.0284703
980.3210704
979.6152535
978.9120319
978.2121998
977.5163962
976.8251589
976.1390109
975.4584512
974.7839003
974.1157702
973.454461
972.8003314
972.1537306
971.5149282
970.8842736
970.2621498
969.6486285
969.0438655
995.383706
995.3331931
995.2251269
995.0659784
994.8597283
994.6128459
994.3273377
994.0056971
993.6543636
993.2719054
992.863733
992.4287085
991.9692657
991.4855509
990.9782633
990.4478359
989.8946052
989.3196597
988.7241492
988.1096988
987.4787222
986.8341287
986.1784627
985.5135743
984.8408043
984.1612424
983.4759402
982.7860053
982.0925243
981.3965594
980.6992511
980.0017528
979.3052237
978.6106504
977.9188073
977.2303469
976.5458382
975.865892
975.1910371
974.5216775
973.8583086
973.2013297
972.5511641
971.9081493
971.2726213
970.6449262
970.025353
969.4140774
968.8113956
968.2173418
994.1476516
994.1000425
993.9988284
993.8505819
993.6579352
993.4238715
993.1526731
992.8467221
992.5073734
992.1378668
991.7386042
991.3114643
990.8570807
990.3766835
989.8705865
989.3402886
988.786941
988.2120645
987.6180742
987.0074695
986.3827522
985.7460821
985.0990575
984.4429521
983.7788894
983.1081495
982.4318045
981.7509728
981.0668445
980.3806269
979.6935551
979.0067758
978.3212372
977.6377243
976.9569132
976.2794401
975.6059192
974.9368997
974.27287
973.6143479
972.9617641
972.3156373
971.6763126
971.0441443
970.4195094
969.8026727
969.1938489
968.593212
968.0008509
967.4169541
993.0020121
992.9568361
992.8600014
992.7169344
992.5309008
992.3052988
992.0417067
991.7424274
991.4096179
991.0446835
990.6488885
990.2237508
989.7702014
989.2895116
988.7832301
988.2527915
987.7005102
987.1286298
986.539554
985.9356263
985.3188981
984.6905584
984.0518182
983.4039536
982.7482437
982.0859284
981.4182159
980.746375
980.0716725
979.3953997
978.7187077
978.042566
977.3677177
976.6948635
976.0247068
975.3579019
974.6950068
974.0365928
973.3831831
972.7352737
972.0933241
971.4577292
970.8289148
970.2073692
969.5933377
968.9870201
968.3885744
967.7981104
967.2156947
966.6413677
991.9184388
991.8741983
991.7793865
991.6392575
991.4565929
991.233814
990.972974
990.6759781
990.3447831
989.9803034
989.5847254
989.158801
988.7046265
988.2235823
987.717887
987.1896361
986.6410773
986.0749425
985.4929473
984.8965382
984.2871582
983.6661551
983.0348945
982.3948962
981.7472654
981.0933157
980.4343808
979.7718098
979.1068864
978.4407195
977.7742512
977.1083094
976.4436545
975.781027
975.1211208
974.4645842
973.812009
973.1639145
972.520861
971.8833051
971.2517069
970.6265255
970.0081547
969.396875
968.7930482
968.1968558
967.6083402
967.0275711
966.4545999
965.8894366
990.8770052
990.8330583
990.7387663
990.599224
990.417185
990.1946141
989.9337126
989.6365208
989.3041757
988.9389114
988.5421242
988.1156968
987.6616751
987.1821639
986.6792066
986.155713
985.6131806
985.0532989
984.4776811
983.8880414
983.2855912
982.6717345
982.047863
981.4153402
980.7755659
980.1299229
979.4799213
978.8267897
978.1715753
977.5152354
976.8586254
976.2025745
975.5478662
974.8952077
974.245253
973.5986631
972.9560131
972.3179582
971.6849766
971.0575359
970.4361295
969.8211381
969.2128829
968.611643
968.0176029
967.4310642
966.8520032
966.280447
965.7164314
965.1599708
989.8644344
989.820383
989.7258487
989.5858345
989.4028118
989.1793009
988.9173529
988.6186906
988.2853449
987.9193131
987.522398
987.0970698
986.6451065
986.1693243
985.6713326
985.1528671
984.6159825
984.0620791
983.4925722
982.9090079
982.3128984
981.7058794
981.0892041
980.4643204
979.8326926
979.1957372
978.5547211
977.9107475
977.2648051
976.617877
975.9707741
975.3243073
974.6791976
974.0361806
973.3959286
972.7590815
972.1262396
971.4979256
970.8747075
970.2572318
969.6457597
969.040653
968.4421853
967.8505659
967.2659595
966.6885625
966.1184893
965.5556808
965.0001396
964.4518611
988.8736797
988.829316
988.7341165
988.5931962
988.4092998
988.1847321
987.9218192
987.62254
987.2891022
986.9237971
986.5287007
986.1061116
985.6581483
985.1863739
984.6931805
984.1798313
983.6479409
983.0992869
982.5355929
981.9581303
981.3684306
980.7680272
980.1584381
979.5413684
978.9180618
978.2897596
977.6575834
977.0225513
976.3856279
975.7477343
975.1097381
974.4724734
973.8366933
973.2030565
972.5722668
971.9449295
971.3216314
970.7029586
970.0894461
969.4815412
968.8797214
968.2841506
967.6950639
967.1126359
966.5370086
965.9683238
965.4067934
964.8522361
964.304702
963.7642688
987.9019989
987.8574578
987.7618935
987.6204737
987.4360013
987.2113406
986.9485583
986.6498838
986.318162
985.9548521
985.5629777
985.1436943
984.6995616
984.2320815
983.7429014
983.2342327
982.7073845
982.1639643
981.605584
981.0341235
980.4508886
979.8574657
979.2553989
978.6461066
978.0309162
977.4110137
976.7873434
976.1609395
975.5327674
974.9037124
974.2746011
973.6462595
973.0194589
972.3950052
971.7734302
971.1553835
970.5414878
969.9322753
969.3281843
968.7296345
968.1370764
967.5506516
966.970519
966.3968432
965.8297424
965.2693812
964.7158842
964.1691614
963.62931
963.0963884
986.9501654
986.9056077
986.8100414
986.6687499
986.4850558
986.261214
985.9995941
985.7031192
985.373479
985.0131674
984.6240582
984.208334
983.7674875
983.3040317
982.8191822
982.3147365
981.7927865
981.2546318
980.7019422
980.136359
979.5597805
978.9735524
978.3790521
977.7775692
977.1702926
976.558334
975.9429175
975.3249058
974.7052032
974.0847181
973.4642934
972.8447218
972.2267695
971.6111589
970.9986225
970.3897396
969.7850429
969.1850132
968.5900744
968.0005547
967.4168669
966.8391635
966.2675609
965.7022054
965.1432109
964.5907021
964.0448699
963.5056696
962.9731671
962.4474212
986.0201567
985.9757911
985.8808631
985.740619
985.5579594
985.3354492
985.0758628
984.7814395
984.4541381
984.0966409
983.7103822
983.2979269
982.8607726
982.4009079
981.920318
981.4204543
980.9031536
980.370398
979.8236156
979.26448
978.6945576
978.1154795
977.5283853
976.9344703
976.3349197
975.7308495
975.1233195
974.513414
973.9019766
973.2898615
972.677927
972.0669517
971.4576572
970.8507703
970.2471398
969.6471977
969.0514471
968.4603185
967.8741705
967.2933105
966.7181113
966.1487189
965.5852331
965.0277683
964.4764115
963.9314593
963.3929904
962.8609787
962.3355179
961.8168124
985.1136493
985.0696788
984.975405
984.83606
984.6545873
984.4336978
984.1760746
983.8835947
983.5588872
983.2038545
982.8207115
982.4112978
981.9778052
981.5217329
981.0453158
980.5501817
980.0380121
979.5107482
978.970122
978.4175221
977.8544132
977.2821764
976.7022705
976.1157353
975.5237373
974.92736
974.3276193
973.7255615
973.1221888
972.5182929
971.914667
971.312097
970.71135
970.11314
969.5181495
968.9269216
968.3398266
967.7572547
967.1795323
966.6069403
966.0398612
965.4783867
964.922582
964.3725828
963.8285619
963.2908992
962.7594619
962.2343602
961.7156918
961.2037074
984.2300932
984.1864029
984.092731
983.9542795
983.773977
983.5548758
983.298953
983.0085246
982.6863001
982.333799
981.9537452
981.5475263
981.1176543
980.6656895
980.1935414
979.7033811
979.1966845
978.6751701
978.1406871
977.5945456
977.0380961
976.4726953
975.8997115
975.3204095
974.7357697
974.1468944
973.5548185
972.9605043
972.3650411
971.7691769
971.1737128
970.5794573
969.9871342
969.3973583
968.8108389
968.2280297
967.6492654
967.0748934
966.5052239
965.9405113
965.3812103
964.8272156
964.2787097
963.7358886
963.1990013
962.6682367
962.1435802
961.6251246
961.1130126
960.607498
983.3683058
983.3248933
983.2318197
983.094259
982.9154186
982.6977686
982.443576
982.1554241
981.8354688
981.4857625
981.1086442
980.7059387
980.2797407
979.8320987
979.364683
978.8796368
978.3785194
977.8628789
977.3343714
976.7945433
976.2446267
975.6859575
975.1198094
974.5475342
973.9701232
973.3886237
972.804069
972.2174347
971.6296906
971.041752
970.4543751
969.8682968
969.2841789
968.7026444
968.1243292
967.5496304
966.9788464
966.4123178
965.8503253
965.2932254
964.7412092
964.1943496
963.6528667
963.1169359
962.5869142
962.0628023
961.5446491
961.032546
960.5268949
960.0275094
982.5273666
982.4842352
982.3917691
982.2552488
982.077693
981.8615113
981.6090781
981.323201
981.0056418
980.6588776
980.2848748
979.8858803
979.4636759
979.0206104
978.5581553
978.0782509
977.5826878
977.0728302
976.5502302
976.0166195
975.4731387
974.9210789
974.3616782
973.7962999
973.2259848
972.6517572
972.0746145
971.4954992
970.9154303
970.3353566
969.7559165
969.1778201
968.6017093
968.028126
967.4577543
966.8908221
966.3276776
965.7686353
965.2139813
964.6640933
964.1190522
963.5790641
963.044321
962.5150944
961.9916417
961.4738948
960.9619833
960.4561982
959.9565995
959.4631134
981.7063997
981.6635546
981.5717546
981.4363013
981.2599828
981.0453535
980.7949491
980.511307
980.1963227
979.8526797
979.4820825
979.08704
978.6691206
978.2306623
977.7731812
977.2984156
976.8083113
976.3041614
975.7874882
975.2599588
974.7227838
974.1772133
973.6244953
973.0659106
972.5026256
971.9355496
971.3656949
970.7940393
970.2216246
969.6492533
969.0775773
968.5072597
967.9388821
967.3730235
966.8102356
966.2507454
965.6949025
965.1430096
964.5953772
964.0523481
963.5140312
962.9806367
962.4523652
961.9297024
961.4124808
960.9008661
960.3950564
959.8953279
959.4015247
958.9137344
980.9047133
980.8621962
980.771186
980.636732
980.4617494
980.2488002
980.0005689
979.7193519
979.4072467
979.0669017
978.6999388
978.3089414
977.8954029
977.4615291
977.008965
976.5393321
976.0546191
975.5561158
975.0453
974.523745
973.9928078
973.4536493
972.9075097
972.3557011
971.7993144
971.2393016
970.6766885
970.1124372
969.5475337
968.9827137
968.4185934
967.8557958
967.2948778
966.7364816
966.1809425
965.6285731
965.0796952
964.5345695
963.9937619
963.4573122
962.9254464
962.3983882
961.8765801
961.3600191
960.848822
960.3431455
959.8433492
959.3493152
958.8611091
958.378933
980.1219052
980.0797823
979.9895055
979.8561575
979.6826565
979.471577
979.2256899
978.9471056
978.6380994
978.3011213
977.9379347
977.5509535
977.1417726
976.7124599
976.264783
975.8002756
975.320901
974.8279582
974.322892
973.807308
973.2825181
972.7497037
972.2100869
971.6649541
971.1154098
970.5624245
970.0069838
969.4499647
968.8924722
968.3349896
967.7781808
967.2226363
966.6689372
966.117675
965.5690804
965.0234974
964.4812323
963.9427998
963.4084354
962.8782984
962.3526451
961.831862
961.3161134
960.8054706
960.3000982
959.8003113
959.3061459
958.8176126
958.3348587
957.8581671
979.3577517
979.3160061
979.2265443
979.0944173
978.9225352
978.7134699
978.4700303
978.1941958
977.8883408
977.5547886
977.1953725
976.8123952
976.4075472
975.9828063
975.5399804
975.0805587
974.606445
974.1190056
973.6196507
973.1099715
972.5912935
972.0647488
971.5315473
970.9930822
970.4503528
969.9043098
969.3558866
968.8060805
968.255712
967.7053357
967.1555774
966.6070126
966.0603307
965.515841
964.9738598
964.4347386
963.8989536
963.3669147
962.838728
962.3146818
961.7951216
961.2803552
960.7704196
960.265491
959.7658528
959.271669
958.7829097
958.299682
957.8223965
957.3507813
978.6120863
978.5707441
978.4821504
978.3513146
978.1811272
977.9741739
977.7331847
977.4601459
977.157431
976.8272997
976.471634
976.0926831
975.6921383
975.2719679
974.8339229
974.3794961
973.9106538
973.4286571
972.934942
972.4311747
971.9185147
971.3981626
970.8713578
970.3395579
969.8035433
969.2643057
968.7227793
968.1800012
967.6365373
967.0930124
966.5500451
966.0082839
965.468258
964.9302125
964.3945445
963.8617033
963.3322536
962.8062604
962.2840445
961.7659245
961.2523283
960.7432709
960.2389426
959.7396081
959.245534
958.7566643
958.273111
957.7952922
957.3229993
956.8562972
977.8846729
977.843745
977.7560407
977.6265224
977.4580556
977.2532079
977.0146596
976.7444145
976.4448247
976.1181336
975.7661897
975.3912657
974.9949803
974.5793195