/*--------------------------------*- C++ -*----------------------------------*\
  =========                 |
  \\      /  F ield         | OpenFOAM: The Open Source CFD Toolbox
   \\    /   O peration     | Website:  https://openfoam.org
    \\  /    A nd           | Version:  7
     \\/     M anipulation  |
\*---------------------------------------------------------------------------*/
FoamFile
{
    version     2.0;
    format      ascii;
    class       volScalarField;
    location    "0.0003";
    object      T;
}
// * * * * * * * * * * * * * * * * * * * * * * * * * * * * * * * * * * * * * //

dimensions      [0 0 0 1 0 0 0];

internalField   nonuniform List<scalar> 
14000
(
298.1625368
298.1628812
298.1636368
298.1647999
298.1664012
298.1684909
298.1711383
298.1744327
298.1784859
298.1834356
298.1894488
298.1967268
298.2055113
298.2160908
298.2288087
298.2440725
298.2623646
298.2842543
298.3104121
298.3416255
298.3788174
298.4230665
298.4756306
298.5379727
298.6117897
298.6990448
298.8020033
298.9232723
299.0658443
299.2324579
299.4267766
299.6539083
299.9188659
300.2267148
300.5822593
300.9945132
301.4690897
302.0157321
302.6420317
303.3596719
304.1790019
305.1113199
306.1702121
307.3691199
308.7240203
310.2517224
311.9685665
313.8941044
316.0488484
318.4536157
298.3139847
298.317847
298.3262778
298.3391365
298.3566173
298.3790731
298.406994
298.4410033
298.4818585
298.5304566
298.5878407
298.6552096
298.7339274
298.8255349
298.9317611
299.0545355
299.1956194
299.3567936
299.5414209
299.7523187
299.9925537
300.2645334
300.5712218
300.9176818
301.306774
301.7418708
302.2286687
302.7690647
303.3693752
304.033047
304.763703
305.5666854
306.4457698
307.4046901
308.4470657
309.5763027
310.7955404
312.1074554
313.5124821
315.0134716
316.6093712
318.3006647
320.084908
321.958961
323.9189443
325.9588476
328.0709854
330.2454117
332.470356
334.7322258
298.7650003
298.7771821
298.8036667
298.8437791
298.8977894
298.9663505
299.0504167
299.1512011
299.2692128
299.4069666
299.5663812
299.7495913
299.9589408
300.1966021
300.4639219
300.7653135
301.10384
301.4801744
301.8995071
302.3640366
302.8766502
303.4406625
304.0593748
304.7342503
305.4696067
306.2676086
307.1301864
308.0590796
309.0566659
310.1243863
311.2627556
312.4726352
313.7546025
315.1086726
316.5326192
318.0268348
319.5882465
321.2157482
322.905227
324.653967
326.4581042
328.3130917
330.2139515
332.1553334
334.1315148
336.1367486
338.1650346
340.2102422
342.2664718
344.3280683
299.6774919
299.7025021
299.7566953
299.8382947
299.9472905
300.0842854
300.2495274
300.4444558
300.6712924
300.9319997
301.2281641
301.560804
301.9340902
302.3491868
302.8083689
303.3148097
303.8696932
304.4759511
305.1362334
305.8504281
306.622123
307.4525845
308.3429212
309.2940365
310.3066651
311.3812558
312.5179588
313.7166928
314.9770563
316.2976067
317.6769868
319.1146289
320.606917
322.1533541
323.7494919
325.3938959
327.0828684
328.8123188
330.5793504
332.3799316
334.2099296
336.0648435
337.9406127
339.8331235
341.7380162
343.6510299
345.5679707
347.4847981
349.3975712
351.3025684
301.1376399
301.1778706
301.2646084
301.3946035
301.5671405
301.7822949
302.0406645
302.3418302
302.6873838
303.0796706
303.5178047
304.0053997
304.5421894
305.1314586
305.7720137
306.4672899
307.2180219
308.0241326
308.8868633
309.8069996
310.784747
311.820069
312.9127591
314.062398
315.2677593
316.5278426
317.8419385
319.2084214
320.6244277
322.0893922
323.5995246
325.1538573
326.7479547
328.3803221
330.0474139
331.7455703
333.4721497
335.2236801
336.9961271
338.7862321
340.5906028
342.4056818
344.2279481
346.0534538
347.8788071
349.700974
351.5167594
353.3230987
355.1172168
356.898186
303.1359614
303.1914147
303.3107952
303.4890728
303.7245384
304.0163914
304.3629349
304.7644988
305.2219779
305.7336247
306.3017978
306.9253671
307.6050968
308.3418043
309.1352479
309.9846294
310.8907908
311.8533026
312.871656
313.9452061
315.0731232
316.2539096
317.4863421
318.7694521
320.1016567
321.479955
322.9034953
324.3695256
325.8756492
327.4194458
328.9982807
330.6089644
332.2493811
333.9156114
335.6050867
337.3150237
339.041853
340.7821165
342.5332212
344.2920398
346.055013
347.8188366
349.5810619
351.3388212
353.0890498
354.8286114
356.557796
358.2771882
359.9862246
361.6832717
305.5971833
305.666197
305.8148077
306.0361419
306.3262888
306.6834027
307.1069599
307.5934118
308.1442472
308.7557915
309.4293784
310.163831
310.9570255
311.8091909
312.7193231
313.686332
314.7090457
315.7861949
316.9164477
318.0983669
319.3296084
320.6088371
321.9344599
323.3039656
324.7148838
326.1658073
327.6527748
329.174852
330.7278135
332.3102366
333.918433
335.5497738
337.2018468
338.8706371
340.553875
342.2487599
343.9515424
345.659526
347.3701835
349.0803401
350.7864951
352.4868703
354.1789432
355.8598541
357.53115
359.1929874
360.8435568
362.4808722
364.0989757
365.6800932
308.4173878
308.4972363
308.6689828
308.9242668
309.2586801
309.6683564
310.1523499
310.7058214
311.3288898
312.0184317
312.7723939
313.5896417
314.4681908
315.4061306
316.4015811
317.4526967
318.5575944
319.7143063
320.9208481
322.175078
323.4739054
324.8160066
326.1989235
327.6191009
329.0752959
330.5635748
332.0824179
333.6277604
335.1981021
336.789236
338.3993098
340.0250573
341.6630518
343.3112292
344.9659536
346.6244074
348.2843503
349.9421309
351.5953307
353.2419632
354.8785051
356.5051013
358.1222004
359.7285932
361.3237672
362.9041714
364.4615429
365.9806236
367.4446195
368.8465229
311.4882646
311.5764302
311.7659075
312.0471337
312.414122
312.8636574
313.3920041
313.9958683
314.6717449
315.4175874
316.23039
317.1071818
318.0454185
319.0428265
320.0968475
321.204759
322.3639179
323.5720104
324.826531
326.1249563
327.4635505
328.8406095
330.2532443
331.6979362
333.1729367
334.6739428
336.1995592
337.745468
339.3099749
340.8892385
342.4807029
344.0818009
345.6885686
347.2994502
348.9106919
350.5199176
352.1251153
353.7221738
355.3108992
356.8898118
358.4596146
360.0197214
361.5679417
363.1023026
364.6122086
366.0849264
367.5034856
368.8635077
370.1647666
371.4078119
314.7165202
314.8107155
315.0130263
315.3122215
315.7026723
316.1805826
316.7399565
317.3784183
318.0917117
318.8756072
319.7274771
320.64389
321.6215955
322.6574475
323.7483474
324.891303
326.0833675
327.3209494
328.6013679
329.921989
331.2794543
332.6703977
334.0926893
335.5421082
337.0168576
338.5129716
340.0282734
341.5588741
343.1029288
344.6561529
346.2172158
347.7818054
349.3483814
350.9136185
352.4750822
354.0307551
355.5780485
357.1179779
358.6492961
360.1724976
361.6845589
363.1839526
364.6599644
366.1006728
367.4897591
368.8231839
370.1007014
371.3231015
372.4997637
373.6402668
318.0273298
318.1256258
318.3358512
318.6471213
319.053733
319.5492178
320.1301566
320.7904158
321.5270311
322.335666
323.2122399
324.1528492
325.1538193
326.2115819
327.3226182
328.4835618
329.6911268
330.942048
332.2328372
333.5597431
334.9204099
336.3111912
337.7287241
339.1707633
340.6327515
342.1133011
343.6078156
345.1149248
346.6301287
348.1523969
349.6770151
351.2033933
352.7271352
354.247568
355.7617195
357.2707054
358.7734883
360.2699706
361.7576398
363.2343768
364.6901363
366.11307
367.4871817
368.8085974
370.0768083
371.2928188
372.4648002
373.6025348
374.7162999
375.8165027
321.3630547
321.4635154
321.6791018
321.9982657
322.4138105
322.9206158
323.5131865
324.1872066
324.9369606
325.7587148
326.6481329
327.6009664
328.6131836
329.6808805
330.8002801
331.9677281
333.1795291
334.4315754
335.7211075
337.0448493
338.3986884
339.7798225
341.1853566
342.6109819
344.0550973
345.5133474
346.9838816
348.4630204
349.9486257
351.4375824
352.9277271
354.4164208
355.9024533
357.3856226
358.8656305
360.3416681
361.8116245
363.2728856
364.7158173
366.1284968
367.494893
368.8112721
370.0767666
371.2921537
372.465363
373.6060573
374.7244932
375.8311464
376.9343235
378.0395886
324.6833192
324.785186
325.0037335
325.3264854
325.7467624
326.2592491
326.8575829
327.5371868
328.2932532
329.1207484
330.014809
330.9714698
331.9864324
333.0555369
334.1747487
335.3398319
336.5474064
337.7938845
339.0757987
340.3888398
341.7301811
343.0969025
344.4845966
345.8912195
347.3133683
348.7477056
350.1923437
351.6430215
353.0989257
354.5558218
356.0138989
357.4717854
358.929666
360.3861261
361.8392468
363.2860928
364.7172138
366.1206351
367.4804446
368.7924266
370.0554676
371.2703536
372.4439941
373.5862212
374.7071643
375.8172766
376.9248985
378.0356317
379.1522443
380.2747607
327.9605135
328.0629245
328.2821291
328.6059294
329.0280617
329.5415282
330.1417984
330.8221347
331.5785096
332.405796
333.2991271
334.2538879
335.2656405
336.3301198
337.4432437
338.6010818
339.7997947
341.0356707
342.3046329
343.603241
344.9285504
346.2768604
347.6445557
349.0294931
350.427567
351.8365784
353.2538716
354.6759903
356.1028136
357.5323693
358.9651052
360.3991072
361.8324486
363.2621572
364.6787627
366.0704038
367.4217899
368.7271741
369.9854635
371.1980805
372.3691158
373.509267
374.6283556
375.736721
376.8427266
377.9520337
379.0675025
380.1892458
381.3141814
382.4373733
331.1759516
331.2779357
331.4966543
331.8201022
332.2413113
332.7534116
333.3515791
334.0299163
334.7829117
335.6060353
336.4943095
337.4430059
338.4475821
339.5036661
340.6070429
341.7537046
342.9397814
344.1614823
345.4142952
346.6955294
348.0018399
349.3292101
350.6745601
352.035522
353.4080016
354.7900124
356.1802225
357.5766157
358.9794489
360.3864912
361.795669
363.2042471
364.6025951
365.9791596
367.3198079
368.6162611
369.8677155
371.0757582
372.2434555
373.3792467
374.4938937
375.5975991
376.6988145
377.8033609
378.9143413
380.0321183
381.1542813
382.2760151
383.3920725
384.4989574
334.3174183
334.4188778
334.6364497
334.9581456
335.3764996
335.8855324
336.4794363
337.1531491
337.9002315
338.7164963
339.5969025
340.5366031
341.5309883
342.5756554
343.6663296
344.7989168
345.9694927
347.1741828
348.4085449
349.6697818
350.9545716
352.2591603
353.5799237
354.9149993
356.2620173
357.6194268
358.9867223
360.3615312
361.7415697
363.1243267
364.5003761
365.8582797
367.1855658
368.4706949
369.7133317
370.9144113
372.077774
373.2089711
374.3175063
375.4147733
376.5093579
377.6073102
378.712074
379.8243731
380.9422304
382.0615376
383.1770179
384.2842488
385.381889
386.4696402
337.3781081
337.4787177
337.6944486
338.0133747
338.4278395
338.9322386
339.5203821
340.1873408
340.9266896
341.7340296
342.6044021
343.5329005
344.5148594
345.5458032
346.6214258
347.7376015
348.8903456
350.0758546
351.2898623
352.5289738
353.7901622
355.0704602
356.3668807
357.678498
359.0038867
360.3404965
361.6858515
363.0372568
364.3865283
365.721606
367.0306844
368.3028853
369.5342088
370.7262068
371.8821034
373.0074694
374.1101319
375.1996097
376.2857333
377.3752705
378.4720594
379.5772471
380.6893591
381.804623
382.9180406
384.0251006
385.1236129
386.2128081
387.29261
388.3625808
340.3535653
340.4530622
340.6663921
340.9817296
341.3915491
341.8900328
342.4712579
343.1300946
343.8600329
344.656915
345.5155914
346.4311477
347.3988836
348.4142711
349.4729695
350.5708487
351.7039239
352.8683575
354.0605226
355.2766756
356.5146049
357.7727589
359.049065
360.3407059
361.6451145
362.9593249
364.276333
365.5835774
366.8695307
368.1251006
369.3421415
370.5221993
371.6681419
372.784727
373.8790077
374.9599827
376.0366378
377.1159599
378.2026994
379.2988195
380.4033822
381.5129979
382.6228892
383.7283143
384.8264422
385.9163345
386.9977136
388.0701292
389.1329614
390.1855881
343.2410617
343.3392324
343.5497089
343.8608035
344.2654872
344.7570134
345.330468
345.9796916
346.6992532
347.4844757
348.3301909
349.2314578
350.1835641
351.1819937
352.2223846
353.300572
354.412682
355.5553782
356.7259817
357.9220987
359.1412925
360.3803352
361.6367581
362.9071828
364.1855457
365.4590519
366.7164784
367.9484783
369.1491253
370.3135941
371.4463822
372.5513575
373.6346985
374.7045741
375.769684
376.8371658
377.9119537
378.9965873
380.0911682
381.1931384
382.2978005
383.4000895
384.4964849
385.5857
386.6673419
387.7409981
388.8060348
389.8618365
390.9076582
391.9426541
346.0389405
346.135995
346.343289
346.6495693
347.0483817
347.5324717
348.0973679
348.7360361
349.4444041
350.2170834
351.0484671
351.9339771
352.8691638
353.8495254
354.8709061
355.9296872
357.022797
358.1473454
359.3000837
360.4783619
361.6789181
362.8981512
364.1303449
365.3633144
366.5858072
367.7883813
368.9645723
370.11128
371.2275905
372.3174428
373.3867193
374.44265
375.493554
376.5466628
377.6071832
378.6781322
379.7601535
380.8514394
381.9481394
383.0452815
384.1385018
385.2255901
386.3061207
387.3797539
388.4458427
389.5036947
390.5525942
391.591664
392.6199566
393.6365929
348.7467126
348.8421227
349.0466609
349.3480763
349.7399361
350.2167796
350.7715313
351.3999337
352.0963887
352.8548579
353.6713342
354.5409881
355.4593774
356.4225691
357.42704
358.4694133
359.5463768
360.654569
361.7904346
362.9501417
364.1278941
365.3123212
366.4923535
367.6585124
368.8038818
369.924672
371.0202149
372.0921758
373.1445544
374.1831874
375.2167216
376.252482
377.2958893
378.3504071
379.4172144
380.4951924
381.5809867
382.6699368
383.7574256
384.8406482
385.9185458
386.9906808
388.0564529
389.1151019
390.1659087
391.2079463
392.2403176
393.2620072
394.2722567
395.2706323
351.3655492
351.4591879
351.6599218
351.9565494
352.341834
352.809835
353.355328
353.9724624
354.6558776
355.4013045
356.2038974
357.0590273
357.9629608
358.9119513
359.9022023
360.9299519
361.9913059
363.0821689
364.1961447
365.3229015
366.4518107
367.573395
368.680408
369.7684239
370.8358722
371.8835152
372.9142825
373.933213
374.9471897
375.963186
376.9867788
378.0218325
379.0702082
380.1317066
381.2037092
382.2817619
383.3609917
384.4378025
385.5107189
386.5791522
387.6425427
388.70011
389.7510782
390.7945772
391.8296193
392.8551352
393.8701979
394.8741989
395.8667484
396.8475744
353.8962462
353.9884576
354.1859637
354.4767234
354.855231
355.3153481
355.8511431
356.4579374
357.1309487
357.8646586
358.6554224
359.4988325
360.3906551
361.3267373
362.302806
363.3142006
364.3542503
365.4134567
366.4816049
367.5494511
368.6095823
369.657033
370.6893919
371.7065008
372.7101945
373.7043588
374.6946933
375.6875105
376.6882591
377.7009353
378.727812
379.7692318
380.8234038
381.886708
382.9544393
384.0222925
385.0879899
386.1505998
387.20946
388.2639281
389.3131329
390.3562415
391.3922305
392.4200176
393.4385224
394.4469378
395.4447525
396.4316008
397.407171
398.3711243
356.3434178
356.4339495
356.6280155
356.9147721
357.28764
357.7406808
358.2692643
358.8676526
359.5314292
360.2560579
361.0365978
361.8685206
362.7474946
363.66817
364.6232882
365.6038661
366.600457
367.6042113
368.6077359
369.605649
370.594794
371.5740925
372.5442786
373.5080362
374.4697909
375.4350366
376.4089381
377.3955003
378.3973136
379.4152017
380.4480731
381.4928588
382.5452344
383.6006823
384.6561007
385.7101095
386.762017
387.8110822
388.8563883
389.8970558
390.9320722
391.9603356
392.9806582
393.9920332
394.993783
395.9854295
396.9666096
397.9369299
398.8960198
399.8436233
358.7173877
358.8068675
358.9986777
359.2817502
359.6497147
360.097643
360.6192915
361.2107357
361.8659279
362.5806055
363.3498648
364.1677647
365.0256226
365.9153516
366.828418
367.7565053
368.6924441
369.6305899
370.5671799
371.5002455
372.4294453
373.3562362
374.2836954
375.2163243
376.1588148
377.1150829
378.0879314
379.0784053
380.0860208
381.108391
382.1417258
383.1812672
384.2230927
385.265392
386.307289
387.3480706
388.3867878
389.422452
390.4540848
391.4805426
392.5006217
393.5131451
394.5172134
395.5122098
396.4976637
397.4731537
398.4382425
399.3925562
400.3357918
401.2675711
361.0288412
361.1174174
361.3067915
361.5864547
361.9504984
362.3927251
362.9081154
363.4908782
364.1361429
364.8349821
365.5814669
366.3678598
367.1860151
368.0262193
368.8824317
369.7493647
370.622843
371.5000803
372.3797276
373.2620277
374.1486431
375.042483
375.9489395
376.8709434
377.8107694
378.7696368
379.7474715
380.7425529
381.7516491
382.7705088
383.7949455
384.822256
385.8510892
386.8806145
387.9099044
388.9378965
389.9635875
390.9858259
392.0033893
393.0149699
394.0194502
395.0160407
396.0041463
396.9832906
397.9529697
398.9127098
399.8621592
400.8008925
401.7285572
402.6447869
363.2849033
363.3721107
363.5589863
363.8349585
364.1936115
364.6269036
365.1310189
365.6956734
366.3166985
366.9847189
367.6914796
368.4313882
369.1975786
369.9812418
370.7797041
371.590222
372.4105444
373.2397434
374.0774255
374.9267069
375.7914004
376.6736904
377.5754873
378.498029
379.4415275
380.404837
381.3852517
382.3789337
383.3815774
384.3897532
385.4016746
386.416306
387.4327318
388.4498434
389.4665138
390.4816205
391.4938924
392.5020036
393.5046548
394.5008169
395.4897412
396.4708299
397.4435441
398.4073338
399.3617142
400.3062862
401.2405712
402.1642078
403.0766439
403.9776832
365.4810897
365.56581
365.7471133
366.0142365
366.3584051
366.7732538
367.2526886
367.786573
368.3703497
368.9957213
369.6546636
370.3442953
371.0577115
371.7892045
372.5391097
373.3054198
374.0864248
374.8832184
375.6992618
376.5357201
377.3939172
378.2749234
379.1791024
380.1057917
381.0525182
382.0158477
382.9916679
383.9761647
384.9670181
385.9628709
386.9627147
387.9654126
388.9697373
389.9745356
390.9785119
391.9803117
392.9785031
393.9718308
394.959356
395.9403394
396.9141687
397.8802201
398.837902
399.7867415
400.7262209
401.6558776
402.5752587
403.4839634
404.3816466
405.2679143
367.5814368
367.6613386
367.8321744
368.0834876
368.4050902
368.7925116
369.2393773
369.7351472
370.2779901
370.8578506
371.4719216
372.1165745
372.7836697
373.47608
374.1913664
374.92719
375.6868287
376.4706039
377.2790117
378.1128287
378.9724924
379.8569214
380.7641783
381.6913859
382.6348388
383.5906445
384.5558187
385.5285763
386.5076894
387.4920162
388.4802698
389.4711631
390.4634208
391.4556334
392.4463477
393.4341195
394.4177583
395.3963576
396.3691686
397.335523
398.2947421
399.2462042
400.1894148
401.1237297
402.0486529
402.963702
403.8685056
404.7626248
405.6456274
406.5171996
369.5441765
369.617992
369.7758191
370.00801
370.3059686
370.6634633
371.0776183
371.5371685
372.0423354
372.5834712
373.1620178
373.7687048
374.4072041
375.0741052
375.7687524
376.4922426
377.2439814
378.0243309
378.8332093
379.6695183
380.5316361
381.417103
382.322606
383.244258
384.1785481
385.1232395
386.0769025
387.0383988
388.0063569
388.9793649
389.9560995
390.9351107
391.9149016
392.8939101
393.870723
394.8442219
395.8134988
396.7777822
397.7363164
398.6883761
399.6333416
400.5706025
401.4995618
402.4196784
403.3304215
404.2313711
405.1219923
406.0017004
406.8703499
407.7276754
371.3531375
371.4210519
371.5663694
371.7804353
372.0579581
372.3903057
372.7748561
373.2083379
373.6821581
374.1983352
374.7496555
375.3377444
375.9594033
376.6145265
377.3022628
378.0221236
378.7737532
379.5557759
380.3667293
381.2044993
382.0658868
382.9470011
383.8444325
384.7557065
385.6790349
386.6129664
387.556094
388.5069258
389.463991
390.4258441
391.3909228
392.3576385
393.3243853
394.2897877
395.2527587
396.2123749
397.1678244
398.1182325
399.0628347
400.0010372
400.9321155
401.8554761
402.7704889
403.6766422
404.5734237
405.4603053
406.3368368
407.2027274
408.0575143
408.9011056
373.016989
373.0811584
373.2175988
373.417491
373.6773403
373.9931903
374.3593366
374.7726427
375.2313636
375.7312078
376.2717225
376.8504593
377.4666565
378.118746
378.806405
379.5277019
380.2811751
381.0648572
381.875554
382.7099436
383.5646873
384.4368996
385.3244521
386.2256527
387.139007
388.0627978
388.9955856
389.9358594
390.8820004
391.8323577
392.7852316
393.7390366
394.6924539
395.6443852
396.5938778
397.5400296
398.4819645
399.4188925
400.3501048
401.274848
402.192487
403.1022601
404.0036464
404.8961099
405.7790803
406.6521436
407.514955
408.3672272
409.2087925
410.039341
374.5628319
374.6238623
374.7546993
374.9480494
375.1995505
375.5046713
375.8613486
376.2665454
376.7174263
377.2121773
377.7491789
378.3264698
378.9428874
379.5968085
380.2862316
381.009308
381.762985
382.5442969
383.3500485
384.1771143
385.0227566
385.8854096
386.7634709
387.6552403
388.5590059
389.4731008
390.3958936
391.3256601
392.2606697
393.1991482
394.1395066
395.0803999
396.0207914
396.9596981
397.8961273
398.8291502
399.7579678
400.681758
401.5997625
402.5112571
403.4155656
404.3121
405.2002253
406.0792155
406.9486859
407.8083147
408.6578384
409.4970615
410.3258492
411.1441048
376.0282133
376.0881103
376.2164937
376.4062854
376.6537684
376.9557235
377.3094393
377.7124116
378.1620713
378.6572689
379.1951309
379.7747353
380.3933331
381.0491482
381.7392593
382.4609066
383.2111145
383.9862344
384.7839981
385.6024974
386.4398223
387.2941855
388.1637669
389.0465256
389.9409838
390.8453671
391.7578652
392.6766361
393.5999191
394.5261872
395.4541375
396.382619
397.3105691
398.2369471
399.1607719
400.0811211
400.9971469
401.9080989
402.8131655
403.7116768
404.6029552
405.4863207
406.3611831
407.2271102
408.0835526
408.9302147
409.766998
410.5937656
411.410406
412.2168672
377.4396268
377.4992515
377.6271994
377.8165937
378.0637472
378.3660539
378.7205962
379.1246816
379.5768519
380.0741606
380.6148043
381.1963185
381.8160148
382.4711206
383.1589426
383.8755943
384.619113
385.387267
386.1779216
386.9887957
387.8182911
388.6645381
389.5256751
390.3998714
391.2852368
392.1798956
393.0817855
393.9892248
394.9007754
395.8151172
396.7310647
397.6474627
398.5632141
399.4773227
400.3888616
401.296889
402.2005793
403.0989899
403.9914229
404.8771921
405.7555715
406.6259914
407.4879637
408.3410585
409.1849783
410.0192582
410.8438949
411.6588133
412.463926
413.2591763
378.8147713
378.8746601
379.0031996
379.1936236
379.4426221
379.7468288
380.1035248
380.5104455
380.964912
381.4642944
382.0062296
382.5874429
383.2056024
383.8569517
384.5393794
385.2505968
385.9878704
386.7493581
387.5331912
388.3373144
389.1597106
389.998184
390.8510581
391.7163788
392.5921603
393.476473
394.3675857
395.263986
396.1643136
397.0672088
397.9715455
398.8761916
399.7801347
400.6823371
401.5818443
402.4777424
403.3691691
404.2553665
405.1355097
406.0086583
406.8744133
407.7322314
408.5816923
409.4224651
410.254282
411.0768284
411.889906
412.6935641
413.4877642
414.2724786
380.163014
380.2234482
380.3531518
380.5451932
380.7958832
381.1021433
381.4608747
381.8694584
382.3249682
382.8243653
383.3649054
383.9435383
384.5574568
385.2046111
385.8818098
386.5874051
387.3192622
388.0750149
388.8523637
389.6496253
390.46475
391.2956773
392.1403585
392.9964762
393.8623424
394.736265
395.6167099
396.5022792
397.3916431
398.2835256
399.1767185
400.0700551
400.9624755
401.8530477
402.7407708
403.6247781
404.5042246
405.3782618
406.2461097
407.1071088
407.9605534
408.8061809
409.6436257
410.4726076
411.2928915
412.1042422
412.9063235
413.6993608
414.4832496
415.2578456
381.4879269
381.5487224
381.6791794
381.872281
382.1242521
382.4312434
382.7905041
383.1990668
383.6531256
384.1507726
384.6879574
385.2631878
385.8730442
386.5155545
387.1885434
387.8890539
388.6153647
389.3653379
390.1368226
390.9272888
391.734992
392.5577911
393.3935942
394.2404751
395.0966244
395.9604217
396.8305755
397.7056627
398.5843486
399.465404
400.3476764
401.2300073
402.1113098
402.9904422
403.8666439
404.7389841
405.6065652
406.4686134
407.3244848
408.1735581
409.015166
409.8490777
410.6750372
411.4927789
412.3021031
413.1027431
413.8944887
414.6774366
415.4514159
416.2163112
382.7883071
382.8492425
382.979954
383.1732529
383.4246449
383.7311071
384.0894677
384.4958018
384.9478777
385.4423631
385.9767764
386.5482103
387.1547038
387.7928883
388.4611763
389.1571749
389.8780776
390.6221647
391.3871987
392.1709733
392.9709167
393.7852139
394.6119981
395.4495164
396.296148
397.1503722
398.0105036
398.8753545
399.7436728
400.6141946
401.4857411
402.3571987
403.2274849
404.095574
404.9604207
405.821191
406.6771131
407.527485
408.3716822
409.2092135
410.039465
410.8621912
411.6771975
412.4842454
413.2831426
414.0736805
414.8555554
415.6288001
416.3932896
417.148909
384.0612953
384.1220826
384.252166
384.4443935
384.6948406
385.0000528
385.3562957
385.7605744
386.2102825
386.7018211
387.2333066
387.8012992
388.4038253
389.0382316
389.7018645
390.3928014
391.1085822
391.8465373
392.6047562
393.3809809
394.1730932
394.9788763
395.7967881
396.6252027
397.4625002
398.3071503
399.1576935
400.0126292
400.8707871
401.7309761
402.5919936
403.4527429
404.3122026
405.1693385
406.022939
406.8723766
407.7169205
408.5559392
409.3889005
410.2153433
411.0347104
411.8467667
412.6513421
413.4482449
414.2373224
415.018121
415.790498
416.5544613
417.3098467
418.0563304
385.3044285
385.3647853
385.4942099
385.6855563
385.934833
386.2383778
386.5925739
386.9949182
387.4418757
387.9309138
388.4590686
389.0238923
389.6224484
390.2527528
390.9118
391.5974178
392.3073539
393.0389884
393.7899827
394.5584675
395.3424607
396.1400876
396.9493579
397.7688576
398.5969892
399.4322637
400.2732802
401.1185878
401.9667912
402.816784
403.6674522
404.5176869
405.3664002
406.2125738
407.0552291
407.8935809
408.7270853
409.5551677
410.3773422
411.1931852
412.0021266
412.8040092
413.5987133
414.3860185
415.1656498
415.9370345
416.7003343
417.4553624
418.2019497
418.9397061
386.5182911
386.5783711
386.7072002
386.8976606
387.1457737
387.4473999
387.7998868
388.2001212
388.6444501
389.1308625
389.6556859
390.2170904
390.8116904
391.4374115
392.0916914
392.771599
393.4751598
394.2000563
394.943781
395.7045685
396.4805898
397.2700006
398.070932
398.8816517
399.7008187
400.5269141
401.3585069
402.1942615
403.0326564
403.8726445
404.7130982
405.5528743
406.3909434
407.2264263
408.0583046
408.8859192
409.7087763
410.5263623
411.3382146
412.1439477
412.9428885
413.7351629
414.5204845
415.2985469
416.0689666
416.8314453
417.5859758
418.3323975
419.070477
419.7998196
387.7043485
387.7641511
387.8923817
388.0819481
388.3284796
388.6286313
388.9793456
389.3771337
389.8190995
390.3024908
390.8241594
391.3816658
391.9721941
392.5929878
393.2418096
393.9157594
394.6127413
395.3306684
396.0672964
396.8205258
397.5886884
398.369964
399.1626118
399.9647739
400.7750903
401.5921159
402.4144187
403.2406411
404.0694269
404.899491
405.7297662
406.5592083
407.3868739
408.2118704
409.033283
409.8505316
410.6631747
411.4707085
412.2727126
413.0686561
413.8582434
414.6413461
415.4176253
416.1868043
416.9483447
417.7022192
418.4483306
419.1865207
419.9161825
420.6375576
388.8637187
388.9232358
389.0508475
389.2393019
389.4844806
389.7831158
390.1319957
390.5273139
390.9667132
391.4468478
391.965078
392.5183736
393.1043459
393.7198146
394.3628121
395.0307141
395.7210969
396.4321249
397.1616933
397.9074394
398.6678179
399.4410673
400.2254926
401.0192159
401.8208039
402.6288409
403.4419419
404.2587929
405.077966
405.8981252
406.7183683
407.5376865
408.3551637
409.1700209
409.9812739
410.7885832
411.5914367
412.389368
413.1819492
413.9686197
414.7492416
415.5234975
416.2910885
417.0516008
417.8046389
418.5502752
419.2882976
420.0182602
420.7400497
421.4537459
389.9974699
390.0566908
390.183595
390.370889
390.6147654
390.9117501
391.2584013
391.6512796
392.087837
392.5644345
393.0787897
393.6275013
394.208471
394.8185265
395.4556328
396.117441
396.8013057
397.5054853
398.2279119
398.9663078
399.719026
400.4843583
401.2605918
402.0459604
402.8388511
403.6380066
404.4420178
405.2495185
406.0590448
406.8694655
407.6798573
408.4892767
409.2968918
410.1018702
410.9034152
411.7011888
412.4946771
413.2834311
414.0669881
414.8448377
415.6168029
416.3825604
417.1417998
417.893799
418.6387743
419.3764628
420.1065539
420.8286228
421.5428692
422.2491404
391.1064263
391.1652899
391.2913079
391.4775235
391.7199468
392.0150861
392.3592871
392.7494372
393.1827028
393.6554856
394.1656129
394.7095722
395.2853642
395.889994
396.5212421
397.1769168
397.8543071
398.5516717
399.2670001
399.9981409
400.7432386
401.5007055
402.268836
403.0458162
403.8301361
404.6204751
405.415402
406.2135697
407.0135906
407.814426
408.6152015
409.4150297
410.2131129
411.0085279
411.8007853
412.5894263
413.3739766
414.1540473
414.9288107
415.6981901
416.4618417
417.2194232
417.9702762
418.7143818
419.4515483
420.1815261
420.9037711
421.6184289
422.3253795
423.0243054
392.1910193
392.2494303
392.3746324
392.5596107
392.8003641
393.0933771
393.4348682
393.8219767
394.251616
394.7204566
395.2261229
395.7653322
396.3359385
396.9351326
397.5605193
398.2100238
398.8809655
399.5715856
400.2799156
401.0037541
401.7413045
402.4909469
403.2509974
404.0196743
404.7954454
405.5769607
406.3628432
407.1518633
407.9424624
408.7339578
409.5254067
410.3159668
411.1048048
411.8910694
412.6744205
413.4543545
414.2304198
415.0018642
415.7683324
416.5295775
417.2852125
418.0346612
418.7776648
419.514099
420.2437032
420.9659995
421.6809116
422.3883998
423.0882272
423.7799584
393.2514384
393.3094166
393.4336818
393.6172519
393.8561297
394.146797
394.4854122
394.869291
395.2952024
395.759987
396.2611662
396.7956059
397.3610215
397.9547242
398.5742565
399.2176018
399.8821567
400.5660644
401.2674005
401.9839791
402.7139807
403.4558507
404.2079194
404.9682504
405.7354567
406.5082135
407.2852152
408.0650591
408.8465877
409.6290165
410.4114556
411.1930833
411.9729112
412.7504898
413.5253576
414.2970003
415.0647232
415.8279234
416.5864321
417.3398174
418.0875641
418.8292089
419.5646773
420.2936937
421.015827
421.730817
422.4386837
423.1392489
423.8318932
424.516987
394.2877979
394.3453033
394.4685501
394.6506029
394.8874845
395.1756512
395.511364
395.8919241
396.3140949
396.7747995
397.2714864
397.8010894
398.3613182
398.9494911
399.5632257
400.2004955
400.8586043
401.5358387
402.2302338
402.9394939
403.6620289
404.3961849
405.1402467
405.892183
406.6509131
407.4150521
408.1832908
408.9541676
409.7268848
410.5005573
411.274305
412.0472009
412.8184844
413.587798
414.3545648
415.1181309
415.8776735
416.6330848
417.3838881
418.1296085
418.8696112
419.6038551
420.3320456
421.0537797
421.76865
422.4767152
423.1777911
423.8712481
424.5573658
425.2360269
395.3003128
395.3573267
395.4795177
395.6600047
395.8948388
396.1804952
396.5132974
396.8905169
397.3089407
397.7655087
398.2577108
398.7824418