/*--------------------------------*- C++ -*----------------------------------*\
  =========                 |
  \\      /  F ield         | OpenFOAM: The Open Source CFD Toolbox
   \\    /   O peration     | Website:  https://openfoam.org
    \\  /    A nd           | Version:  7
     \\/     M anipulation  |
\*---------------------------------------------------------------------------*/
FoamFile
{
    version     2.0;
    format      ascii;
    class       volScalarField;
    location    "0.0003";
    object      thermo:mu;
}
// * * * * * * * * * * * * * * * * * * * * * * * * * * * * * * * * * * * * * //

dimensions      [1 -1 -1 0 0 0 0];

internalField   nonuniform List<scalar> 
14000
(
7.187379921e+10
7.187379921e+10
7.187379921e+10
7.187379921e+10
7.187379921e+10
7.187379921e+10
7.187379921e+10
7.187379921e+10
7.187379921e+10
7.187379921e+10
7.187379921e+10
7.187379921e+10
7.187379921e+10
7.187379921e+10
7.187379921e+10
7.187379921e+10
7.187379921e+10
7.187379921e+10
7.187379921e+10
7.187379921e+10
7.187379921e+10
7.187379921e+10
7.187379921e+10
7.187379921e+10
7.187379921e+10
7.187379921e+10
7.187379921e+10
7.187379921e+10
7.187379921e+10
7.187379921e+10
7.187379921e+10
7.187379921e+10
7.187379921e+10
7.187379921e+10
7.187379921e+10
7.187379921e+10
7.187379921e+10
7.187379921e+10
7.187379921e+10
7.187379921e+10
7.187379921e+10
7.187379921e+10
7.187379921e+10
7.187379921e+10
7.187379921e+10
7.187379921e+10
7.187379921e+10
7.187379921e+10
7.187379921e+10
7.187379921e+10
7.187379921e+10
7.187379921e+10
7.187379921e+10
7.187379921e+10
7.187379921e+10
7.187379921e+10
7.187379921e+10
7.187379921e+10
7.187379921e+10
7.187379921e+10
7.187379921e+10
7.187379921e+10
7.187379921e+10
7.187379921e+10
7.187379921e+10
7.187379921e+10
7.187379921e+10
7.187379921e+10
7.187379921e+10
7.187379921e+10
7.187379921e+10
7.187379921e+10
7.187379921e+10
7.187379921e+10
7.187379921e+10
7.187379921e+10
7.187379921e+10
7.187379921e+10
7.187379921e+10
7.187379921e+10
7.187379921e+10
7.187379921e+10
7.187379921e+10
7.187379921e+10
7.187379921e+10
7.187379921e+10
7.187379921e+10
7.187379921e+10
7.187379921e+10
7.187379921e+10
7.187379921e+10
7.187379921e+10
7.187379921e+10
7.187379921e+10
7.187379921e+10
7.187379921e+10
7.187379921e+10
7.187379921e+10
7.187379921e+10
7.187379921e+10
7.187379921e+10
7.187379921e+10
7.187379921e+10
7.187379921e+10
7.187379921e+10
7.187379921e+10
7.187379921e+10
7.187379921e+10
7.187379921e+10
7.187379921e+10
7.187379921e+10
7.187379921e+10
7.187379921e+10
7.187379921e+10
7.187379921e+10
7.187379921e+10
7.187379921e+10
7.187379921e+10
7.187379921e+10
7.187379921e+10
7.187379921e+10
7.187379921e+10
7.187379921e+10
7.187379921e+10
7.187379921e+10
7.187379921e+10
7.187379921e+10
7.187379921e+10
7.187379921e+10
7.187379921e+10
7.187379921e+10
7.187379921e+10
7.187379921e+10
7.187379921e+10
7.187379921e+10
7.187379921e+10
7.187379921e+10
7.187379921e+10
7.187379921e+10
7.187379921e+10
7.187379921e+10
7.187379921e+10
7.187379921e+10
7.187379921e+10
7.187379921e+10
7.187379921e+10
7.187379921e+10
7.187379921e+10
7.187379921e+10
7.187379921e+10
7.187379921e+10
7.187379921e+10
7.187379921e+10
7.187379921e+10
7.187379921e+10
7.187379921e+10
7.187379921e+10
7.187379921e+10
7.187379921e+10
7.187379921e+10
7.187379921e+10
7.187379921e+10
7.187379921e+10
7.187379921e+10
7.187379921e+10
7.187379921e+10
7.187379921e+10
7.187379921e+10
7.187379921e+10
7.187379921e+10
7.187379921e+10
7.187379921e+10
7.187379921e+10
7.187379921e+10
7.187379921e+10
7.187379921e+10
7.187379921e+10
7.187379921e+10
7.187379921e+10
7.187379921e+10
7.187379921e+10
7.187379921e+10
7.187379921e+10
7.187379921e+10
7.187379921e+10
7.187379921e+10
7.187379921e+10
7.187379921e+10
7.187379921e+10
7.187379921e+10
7.187379921e+10
7.187379921e+10
7.187379921e+10
7.187379921e+10
7.187379921e+10
7.187379921e+10
7.187379921e+10
7.187379921e+10
7.187379921e+10
7.187379921e+10
7.187379921e+10
7.187379921e+10
7.187379921e+10
7.187379921e+10
7.187379921e+10
7.187379921e+10
7.187379921e+10
7.187379921e+10
7.187379921e+10
7.187379921e+10
7.187379921e+10
7.187379921e+10
7.187379921e+10
7.187379921e+10
7.187379921e+10
7.187379921e+10
7.187379921e+10
7.187379921e+10
7.187379921e+10
7.187379921e+10
7.187379921e+10
7.187379921e+10
7.187379921e+10
7.187379921e+10
7.187379921e+10
7.187379921e+10
7.187379921e+10
7.187379921e+10
7.187379921e+10
7.187379921e+10
7.187379921e+10
7.187379921e+10
7.187379921e+10
7.187379921e+10
7.187379921e+10
7.187379921e+10
7.187379921e+10
7.187379921e+10
7.187379921e+10
7.187379921e+10
7.187379921e+10
7.187379921e+10
7.187379921e+10
7.187379921e+10
7.187379921e+10
7.187379921e+10
7.187379921e+10
7.187379921e+10
7.187379921e+10
7.187379921e+10
7.187379921e+10
7.187379921e+10
7.187379921e+10
7.187379921e+10
7.187379921e+10
7.187379921e+10
7.187379921e+10
7.187379921e+10
7.187379921e+10
7.187379921e+10
7.187379921e+10
7.187379921e+10
7.187379921e+10
7.187379921e+10
7.187379921e+10
7.187379921e+10
7.187379921e+10
7.187379921e+10
7.187379921e+10
7.187379921e+10
7.187379921e+10
7.187379921e+10
7.187379921e+10
7.187379921e+10
7.187379921e+10
7.187379921e+10
7.187379921e+10
7.187379921e+10
7.187379921e+10
7.187379921e+10
7.187379921e+10
7.187379921e+10
7.187379921e+10
7.187379921e+10
7.187379921e+10
7.187379921e+10
7.187379921e+10
7.187379921e+10
7.187379921e+10
7.187379921e+10
7.187379921e+10
7.187379921e+10
7.187379921e+10
7.187379921e+10
7.187379921e+10
7.187379921e+10
7.187379921e+10
7.187379922e+10
7.187379928e+10
7.187380013e+10
7.187379921e+10
7.187379921e+10
7.187379921e+10
7.187379921e+10
7.187379921e+10
7.187379921e+10
7.187379921e+10
7.187379921e+10
7.187379921e+10
7.187379921e+10
7.187379921e+10
7.187379921e+10
7.187379921e+10
7.187379921e+10
7.187379921e+10
7.187379921e+10
7.187379921e+10
7.187379921e+10
7.187379921e+10
7.187379921e+10
7.187379921e+10
7.187379921e+10
7.187379921e+10
7.187379921e+10
7.187379921e+10
7.187379921e+10
7.187379921e+10
7.187379921e+10
7.187379921e+10
7.187379921e+10
7.187379921e+10
7.187379921e+10
7.187379921e+10
7.187379921e+10
7.187379921e+10
7.187379921e+10
7.187379921e+10
7.187379921e+10
7.187379921e+10
7.187379921e+10
7.187379921e+10
7.187379921e+10
7.187379921e+10
7.187379921e+10
7.187379921e+10
7.187379923e+10
7.187379947e+10
7.187380225e+10
7.187383303e+10
7.187414708e+10
7.187379921e+10
7.187379921e+10
7.187379921e+10
7.187379921e+10
7.187379921e+10
7.187379921e+10
7.187379921e+10
7.187379921e+10
7.187379921e+10
7.187379921e+10
7.187379921e+10
7.187379921e+10
7.187379921e+10
7.187379921e+10
7.187379921e+10
7.187379921e+10
7.187379921e+10
7.187379921e+10
7.187379921e+10
7.187379921e+10
7.187379921e+10
7.187379921e+10
7.187379921e+10
7.187379921e+10
7.187379921e+10
7.187379921e+10
7.187379921e+10
7.187379921e+10
7.187379921e+10
7.187379921e+10
7.187379921e+10
7.187379921e+10
7.187379921e+10
7.187379921e+10
7.187379921e+10
7.187379921e+10
7.187379921e+10
7.187379921e+10
7.187379921e+10
7.187379921e+10
7.187379921e+10
7.187379921e+10
7.187379921e+10
7.187379926e+10
7.187379975e+10
7.187380493e+10
7.187385706e+10
7.18743391e+10
7.187829708e+10
7.19065463e+10
7.187379921e+10
7.187379921e+10
7.187379921e+10
7.187379921e+10
7.187379921e+10
7.187379921e+10
7.187379921e+10
7.187379921e+10
7.187379921e+10
7.187379921e+10
7.187379921e+10
7.187379921e+10
7.187379921e+10
7.187379921e+10
7.187379921e+10
7.187379921e+10
7.187379921e+10
7.187379921e+10
7.187379921e+10
7.187379921e+10
7.187379921e+10
7.187379921e+10
7.187379921e+10
7.187379921e+10
7.187379921e+10
7.187379921e+10
7.187379921e+10
7.187379921e+10
7.187379921e+10
7.187379921e+10
7.187379921e+10
7.187379921e+10
7.187379921e+10
7.187379921e+10
7.187379921e+10
7.187379921e+10
7.187379921e+10
7.187379921e+10
7.187379921e+10
7.187379921e+10
7.187379922e+10
7.187379929e+10
7.187379998e+10
7.187380689e+10
7.18738715e+10
7.187442788e+10
7.187869308e+10
7.19073313e+10
7.207223587e+10
7.28468234e+10
7.187379921e+10
7.187379921e+10
7.187379921e+10
7.187379921e+10
7.187379921e+10
7.187379921e+10
7.187379921e+10
7.187379921e+10
7.187379921e+10
7.187379921e+10
7.187379921e+10
7.187379921e+10
7.187379921e+10
7.187379921e+10
7.187379921e+10
7.187379921e+10
7.187379921e+10
7.187379921e+10
7.187379921e+10
7.187379921e+10
7.187379921e+10
7.187379921e+10
7.187379921e+10
7.187379921e+10
7.187379921e+10
7.187379921e+10
7.187379921e+10
7.187379921e+10
7.187379921e+10
7.187379921e+10
7.187379921e+10
7.187379921e+10
7.187379921e+10
7.187379921e+10
7.187379921e+10
7.187379921e+10
7.187379921e+10
7.187379921e+10
7.187379922e+10
7.18737993e+10
7.187380013e+10
7.187380789e+10
7.187387678e+10
7.187444249e+10
7.187859776e+10
7.190549699e+10
7.20559795e+10
7.275170171e+10
7.50422327e+10
7.634207152e+10
7.187379921e+10
7.187379921e+10
7.187379921e+10
7.187379921e+10
7.187379921e+10
7.187379921e+10
7.187379921e+10
7.187379921e+10
7.187379921e+10
7.187379921e+10
7.187379921e+10
7.187379921e+10
7.187379921e+10
7.187379921e+10
7.187379921e+10
7.187379921e+10
7.187379921e+10
7.187379921e+10
7.187379921e+10
7.187379921e+10
7.187379921e+10
7.187379921e+10
7.187379921e+10
7.187379921e+10
7.187379921e+10
7.187379921e+10
7.187379921e+10
7.187379921e+10
7.187379921e+10
7.187379921e+10
7.187379921e+10
7.187379921e+10
7.187379921e+10
7.187379921e+10
7.187379921e+10
7.187379921e+10
7.187379922e+10
7.187379932e+10
7.187380024e+10
7.187380856e+10
7.187388032e+10
7.187445422e+10
7.187858007e+10
7.190485803e+10
7.205025201e+10
7.271978699e+10
7.494409391e+10
7.648122045e+10
6.167181819e+10
4.016776851e+10
7.187379921e+10
7.187379921e+10
7.187379921e+10
7.187379921e+10
7.187379921e+10
7.187379921e+10
7.187379921e+10
7.187379921e+10
7.187379921e+10
7.187379921e+10
7.187379921e+10
7.187379921e+10
7.187379921e+10
7.187379921e+10
7.187379921e+10
7.187379921e+10
7.187379921e+10
7.187379921e+10
7.187379921e+10
7.187379921e+10
7.187379921e+10
7.187379921e+10
7.187379921e+10
7.187379921e+10
7.187379921e+10
7.187379921e+10
7.187379921e+10
7.187379921e+10
7.187379921e+10
7.187379921e+10
7.187379921e+10
7.187379921e+10
7.187379921e+10
7.187379921e+10
7.187379922e+10
7.187379933e+10
7.187380032e+10
7.187380912e+10
7.187388345e+10
7.187446913e+10
7.18786332e+10
7.190497424e+10
7.205024217e+10
7.271909806e+10
7.494566423e+10
7.646919965e+10
6.150060971e+10
3.993265331e+10
2.614937071e+10
1.7661244e+10
7.187379921e+10
7.187379921e+10
7.187379921e+10
7.187379921e+10
7.187379921e+10
7.187379921e+10
7.187379921e+10
7.187379921e+10
7.187379921e+10
7.187379921e+10
7.187379921e+10
7.187379921e+10
7.187379921e+10
7.187379921e+10
7.187379921e+10
7.187379921e+10
7.187379921e+10
7.187379921e+10
7.187379921e+10
7.187379921e+10
7.187379921e+10
7.187379921e+10
7.187379921e+10
7.187379921e+10
7.187379921e+10
7.187379921e+10
7.187379921e+10
7.187379921e+10
7.187379921e+10
7.187379921e+10
7.187379921e+10
7.187379921e+10
7.187379922e+10
7.187379934e+10
7.187380037e+10
7.187380931e+10
7.187388362e+10
7.187446149e+10
7.187853413e+10
7.190416444e+10
7.204528368e+10
7.269679451e+10
7.488626726e+10
7.653434706e+10
6.186234652e+10
4.015530247e+10
2.624002214e+10
1.768538979e+10
1.212373422e+10
8406625305
7.187379921e+10
7.187379921e+10
7.187379921e+10
7.187379921e+10
7.187379921e+10
7.187379921e+10
7.187379921e+10
7.187379921e+10
7.187379921e+10
7.187379921e+10
7.187379921e+10
7.187379921e+10
7.187379921e+10
7.187379921e+10
7.187379921e+10
7.187379921e+10
7.187379921e+10
7.187379921e+10
7.187379921e+10
7.187379921e+10
7.187379921e+10
7.187379921e+10
7.187379921e+10
7.187379921e+10
7.187379921e+10
7.187379921e+10
7.187379921e+10
7.187379921e+10
7.187379921e+10
7.187379921e+10
7.187379923e+10
7.187379934e+10
7.187380036e+10
7.187380896e+10
7.187387896e+10
7.18744147e+10
7.187815219e+10
7.190151699e+10
7.202991708e+10
7.26266295e+10
7.468226442e+10
7.67308715e+10
6.348640608e+10
4.147671969e+10
2.704653248e+10
1.820431046e+10
1.246986297e+10
8640781275
6051514826
4286616088
7.187379921e+10
7.187379921e+10
7.187379921e+10
7.187379921e+10
7.187379921e+10
7.187379921e+10
7.187379921e+10
7.187379921e+10
7.187379921e+10
7.187379921e+10
7.187379921e+10
7.187379921e+10
7.187379921e+10
7.187379921e+10
7.187379921e+10
7.187379921e+10
7.187379921e+10
7.187379921e+10
7.187379921e+10
7.187379921e+10
7.187379921e+10
7.187379921e+10
7.187379921e+10
7.187379921e+10
7.187379921e+10
7.187379921e+10
7.187379921e+10
7.187379921e+10
7.187379923e+10
7.187379934e+10
7.18738003e+10
7.187380815e+10
7.187387048e+10
7.187433795e+10
7.187755932e+10
7.189752796e+10
7.200702653e+10
7.252024965e+10
7.435697038e+10
7.688160023e+10
6.614534684e+10
4.387351454e+10
2.853216403e+10
1.917017187e+10
1.312326949e+10
9089753790
6361481201
4501408825
3223608300
2337260941
7.187379921e+10
7.187379921e+10
7.187379921e+10
7.187379921e+10
7.187379921e+10
7.187379921e+10
7.187379921e+10
7.187379921e+10
7.187379921e+10
7.187379921e+10
7.187379921e+10
7.187379921e+10
7.187379921e+10
7.187379921e+10
7.187379921e+10
7.187379921e+10
7.187379921e+10
7.187379921e+10
7.187379921e+10
7.187379921e+10
7.187379921e+10
7.187379921e+10
7.187379921e+10
7.187379921e+10
7.187379921e+10
7.187379921e+10
7.187379923e+10
7.187379934e+10
7.187380021e+10
7.187380715e+10
7.187386048e+10
7.187425072e+10
7.187689917e+10
7.18931387e+10
7.198189459e+10
7.240115924e+10
7.396615402e+10
7.680494854e+10
6.931566333e+10
4.724208386e+10
3.064193572e+10
2.053405751e+10
1.404449727e+10
9722805467
6799480489
4805249757
3435173743
2485857782
1820487174
1348498913
7.187379921e+10
7.187379921e+10
7.187379921e+10
7.187379921e+10
7.187379921e+10
7.187379921e+10
7.187379921e+10
7.187379921e+10
7.187379921e+10
7.187379921e+10
7.187379921e+10
7.187379921e+10
7.187379921e+10
7.187379921e+10
7.187379921e+10
7.187379921e+10
7.187379921e+10
7.187379921e+10
7.187379921e+10
7.187379921e+10
7.187379921e+10
7.187379921e+10
7.187379921e+10
7.187379921e+10
7.187379923e+10
7.187379933e+10
7.187380013e+10
7.187380618e+10
7.187385099e+10
7.187416889e+10
7.187627904e+10
7.1889064e+10
7.195848481e+10
7.2288256e+10
7.35646543e+10
7.644254773e+10
7.240706979e+10
5.149839581e+10
3.338297372e+10
2.229442884e+10
1.523129063e+10
1.053916521e+10
7365171505
5198927961
3710255893
2679089627
1957378692
1446431948
1080477701
815537548.4
7.187379921e+10
7.187379921e+10
7.187379921e+10
7.187379921e+10
7.187379921e+10
7.187379921e+10
7.187379921e+10
7.187379921e+10
7.187379921e+10
7.187379921e+10
7.187379921e+10
7.187379921e+10
7.187379921e+10
7.187379921e+10
7.187379921e+10
7.187379921e+10
7.187379921e+10
7.187379921e+10
7.187379921e+10
7.187379921e+10
7.187379921e+10
7.187379921e+10
7.187379923e+10
7.187379933e+10
7.187380008e+10
7.187380542e+10
7.187384319e+10
7.187410121e+10
7.187576415e+10
7.188566898e+10
7.193887542e+10
7.219184071e+10
7.319882177e+10
7.586037095e+10
7.487926672e+10
5.65090765e+10
3.679716659e+10
2.447310317e+10
1.669731621e+10
1.15496147e+10
8067342333
5688823656
4053360966
2920742736
2128951171
1569258316
1169147674
880060716.9
669074905
513586457.2
7.187379921e+10
7.187379921e+10
7.187379921e+10
7.187379921e+10
7.187379921e+10
7.187379921e+10
7.187379921e+10
7.187379921e+10
7.187379921e+10
7.187379921e+10
7.187379921e+10
7.187379921e+10
7.187379921e+10
7.187379921e+10
7.187379921e+10
7.187379921e+10
7.187379921e+10
7.187379921e+10
7.187379921e+10
7.187379921e+10
7.187379923e+10
7.187379934e+10
7.187380007e+10
7.187380495e+10
7.187383766e+10
7.187405079e+10
7.187537378e+10
7.188303634e+10
7.192366124e+10
7.211556947e+10
7.289311318e+10
7.518892182e+10
7.636406393e+10
6.191629127e+10
4.093014964e+10
2.710217885e+10
1.845916561e+10
1.276784895e+10
8918114047
6284599445
4471736700
3216001005
2338915966
1719841175
1278051819
959442199.5
727373328.2
556706698.3
430039494.7
335197287
7.187379921e+10
7.187379921e+10
7.187379921e+10
7.187379921e+10
7.187379921e+10
7.187379921e+10
7.187379921e+10
7.187379921e+10
7.187379921e+10
7.187379921e+10
7.187379921e+10
7.187379921e+10
7.187379921e+10
7.187379921e+10
7.187379921e+10
7.187379921e+10
7.187379921e+10
7.187379921e+10
7.187379924e+10
7.187379936e+10
7.187380012e+10
7.187380487e+10
7.187383464e+10
7.18740178e+10
7.187510207e+10
7.188115315e+10
7.191239886e+10
7.205857225e+10
7.265459138e+10
7.454571741e+10
7.687843907e+10
6.710914813e+10
4.576067882e+10
3.021186382e+10
2.053497619e+10
1.420595074e+10
9928100920
6996952433
4974861667
3572216627
2592587820
1902029954
1409979258
1055704454
798129139.5
609091423
469088547.1
364498716.1
285707479.1
225861744.8
7.187379921e+10
7.187379921e+10
7.187379921e+10
7.187379921e+10
7.187379921e+10
7.187379921e+10
7.187379921e+10
7.187379921e+10
7.187379921e+10
7.187379921e+10
7.187379921e+10
7.187379921e+10
7.187379921e+10
7.187379921e+10
7.187379921e+10
7.187379922e+10
7.187379925e+10
7.187379941e+10
7.187380029e+10
7.187380533e+10
7.187383451e+10
7.187400203e+10
7.18749368e+10
7.18799086e+10
7.190465417e+10
7.201766067e+10
7.247668646e+10
7.399829838e+10
7.671446833e+10
7.140687635e+10
5.114977481e+10
3.381573911e+10
2.29363399e+10
1.587488988e+10
1.110756418e+10
7834286399
5570279017
3996428830
2896018919
2120385647
1568301026
1171357295
883212031.4
672123772.1
516100128.7
399794097.2
312372092.2
246133726
195541380.2
156586078.7
7.187379921e+10
7.187379921e+10
7.187379921e+10
7.187379921e+10
7.187379921e+10
7.187379921e+10
7.187379921e+10
7.187379921e+10
7.187379921e+10
7.187379921e+10
7.187379921e+10
7.187379921e+10
7.187379921e+10
7.187379922e+10
7.187379927e+10
7.187379951e+10
7.187380067e+10
7.187380666e+10
7.187383827e+10
7.18740052e+10
7.187487173e+10
7.187920836e+10
7.189976047e+10
7.199028352e+10
7.235091956e+10
7.356731737e+10
7.621361747e+10
7.439539561e+10
5.678101081e+10
3.788335015e+10
2.565162506e+10
1.776988811e+10
1.245864556e+10
8802326343
6263859693
4493560774
3253286769
2378572881
1756143446
1308966300
984687726.6
747439482.7
572358724.5
442073767.4
344340604.7
270452047.1
214154971.1
170922833.6
137463730.4
111370376.2
7.187379921e+10
7.187379921e+10
7.187379921e+10
7.187379921e+10
7.187379921e+10
7.187379921e+10
7.187379921e+10
7.187379921e+10
7.187379921e+10
7.187379921e+10
7.187379922e+10
7.187379924e+10
7.187379934e+10
7.187379975e+10
7.187380154e+10
7.187380974e+10
7.187384857e+10
7.187403451e+10
7.187491918e+10
7.18790261e+10
7.189730666e+10
7.197392966e+10
7.226902287e+10
7.32590303e+10
7.564729578e+10
7.605119782e+10
6.21217606e+10
4.230787167e+10
2.864496574e+10
1.986938892e+10
1.397032181e+10
9898794933
7059184615
5069458496
3670184107
2681271152
1977125843
1471305636
1104709907
836704485.1
639151469.5
492343956.7
382395243.3
299423858.6
236341589.3
188016623
150713202.5
121700723.5
98971590.7
81040195.67
7.187379921e+10
7.187379921e+10
7.187379921e+10
7.187379921e+10
7.187379921e+10
7.187379921e+10
7.187379922e+10
7.187379922e+10
7.187379925e+10
7.187379932e+10
7.187379956e+10
7.187380042e+10
7.187380373e+10
7.187381705e+10
7.187387269e+10
7.187411032e+10
7.187513005e+10
7.18794522e+10
7.189724584e+10
7.196716051e+10
7.222340583e+10
7.306060268e+10
7.516868255e+10
7.673332131e+10
6.660258424e+10
4.685683526e+10
3.183735902e+10
2.213419821e+10
1.562322385e+10
1.111492244e+10
7952967576
5724463070
4149272575
3031888364
2234653458
1661403657
1245750224
941903600.3
718042226.4
551828530
427488849
333791349.3
262678562.6
208316051.5
166451115.9
133973231
108595559.2
88628248.26
72812240.08
60201811.71
7.187379922e+10
7.187379922e+10
7.187379923e+10
7.187379923e+10
7.187379925e+10
7.187379929e+10
7.18737994e+10
7.187379966e+10
7.187380042e+10
7.187380273e+10
7.187381032e+10
7.187383666e+10
7.187393223e+10
7.187429e+10
7.187565073e+10
7.188082625e+10
7.190020179e+10
7.197038856e+10
7.221106273e+10
7.296102785e+10
7.484610922e+10
7.688751593e+10
6.987110184e+10
5.115785247e+10
3.50721257e+10
2.4480885e+10
1.736920777e+10
1.242472962e+10
8932934557
6453599023
4689113727
3430849703
2530046927
1880892930
1409529272
1064638694
810433825.1
621713000
480601214.1
374353906
293808853.1
232331691.2
185079940.3
148503673.2
119991606.9
97613249.57
79932786.75
65873666.71
54623559.55
45567033.74
7.187379955e+10
7.18737996e+10
7.187379973e+10
7.18738e+10
7.187380058e+10
7.187380187e+10
7.187380496e+10
7.187381291e+10
7.187383494e+10
7.187389965e+10
7.187410027e+10
7.187474852e+10
7.187690117e+10
7.188411533e+10
7.190822769e+10
7.198731219e+10
7.223638221e+10
7.296081353e+10
7.471075392e+10
7.685662098e+10
7.189244885e+10
5.476253904e+10
3.809841674e+10
2.67662777e+10
1.912069173e+10
1.377528568e+10
9969198446
7242051167
5284389874
3877626138
2864489831
2131482426
1597792390
1206540711
917767125.7
703214747.8
542740899.4
421931336.8
330395015.6
260596744.4
207026430.9
165633152.1
133431749.6
108212854.6
88334327.66
72566264.19
59980616.76
49875178.92
41713736.09
35085140.83
7.187380929e+10
7.187381069e+10
7.187381438e+10
7.187382207e+10
7.187383812e+10
7.187387308e+10
7.187395456e+10
7.187415511e+10
7.187468043e+10
7.187611989e+10
7.188020326e+10
7.189209745e+10
7.192711615e+10
7.202903426e+10
7.231778671e+10
7.308338126e+10
7.47942993e+10
7.683764875e+10
7.282153668e+10
5.721675274e+10
4.057449793e+10
2.880154697e+10
2.076574502e+10
1.509767863e+10
1.101909426e+10
8063591100
5919054311
4363090967
3233596746
2411590610
1810440094
1368223199
1040948224
797302992
614832473.5
477352213.7
373154590.4
293713602.9
232784120.3
185760563.3
149235619.8
120682604
98220233.91
80440664.49
66282607.12
54941306.59
45804689.72
38402677.4
32374367.57
27437893.28
7.187405906e+10
7.187409344e+10
7.187418295e+10
7.187436626e+10
7.187473555e+10
7.187550869e+10
7.187721349e+10
7.188113421e+10
7.189058898e+10
7.191410701e+10
7.197360727e+10
7.21255762e+10
7.250578542e+10
7.339671778e+10
7.515392485e+10
7.688127001e+10
7.270958414e+10
5.814256231e+10
4.210773951e+10
3.033724907e+10
2.21466894e+10
1.628939609e+10
1.201623911e+10
8876155727
6567719345
4872819693
3629685834
2717385724
2045825911
1549246669
1180189183
904507446.9
697513943.5
541261283.7
422682835.2
332210763.4
262809933.2
209271979.8
167725095
135287693.1
109808465.8
89676136.5
73676012.72
60886272.56
50605620.39
42296432.51
35544743.78
30029837.53
25501987
21766198.32
7.187927097e+10
7.187993332e+10
7.188162689e+10
7.188498886e+10
7.189143184e+10
7.190416805e+10
7.193028397e+10
7.198514377e+10
7.210444259e+10
7.236450641e+10
7.292483186e+10
7.405356164e+10
7.585738153e+10
7.678970911e+10
7.12886552e+10
5.720647331e+10
4.231951462e+10
3.109665983e+10
2.307558332e+10
1.722091931e+10
1.287086665e+10
9620527061
7192639762
5383474718
4038817665
3040823186
2299551218
1747422456
1334617449
1024702630
791050486.6
614111351
479496916.8
376603038.3
297576777.6
236580554.6
189251050.3
152320715.4
123340677.1
100470297.3
82321178.65
67839385.08
56220213.62
46849138.24
39251486.84
33060059.05
27988839.22
23814879.69
20363113.32
17495060.03
7.195964636e+10
7.196874469e+10
7.199145667e+10
7.203471481e+10
7.211314385e+10
7.225598749e+10
7.25217578e+10
7.300985935e+10
7.388856866e+10
7.528109897e+10
7.674173691e+10
7.568615883e+10
6.775656815e+10
5.409781444e+10
4.094548543e+10
3.08417511e+10
2.336775503e+10
1.775455572e+10
1.348455095e+10
1.022592549e+10
7743815912
5860716636
4438210174
3367442372
2562772498
1957584543
1501379983
1156454098
894861294.7
695800202.3
543755441.9
427172566.3
337417168.1
268024053.7
214129421.4
172064467.3
139062398.4
113033708
92397304.05
75950997.06
62775568.5
52166379.6
43580577.5
36597645.86
30890663.57
26203777.09
22336885.52
19132333.43
16463900.88
14231871
7.278442671e+10
7.286249743e+10
7.30498286e+10
7.338159888e+10
7.392250604e+10
7.473929741e+10
7.583241687e+10
7.680420008e+10
7.615994632e+10
7.118695537e+10
6.097299643e+10
4.873225292e+10
3.794031412e+10
2.944821034e+10
2.288401328e+10
1.776810114e+10
1.375625267e+10
1.061354739e+10
8162482480
6262312561
4798871131
3678334375
2823475574
2172167230
1675793874
1297017240
1007455066
785616911.8
615224169.2
483958645.3
382515726.2
303850378.8
242623154.3
194771397.1
157203095
127568047.1
104077300.9
85368044.45
70394685.43
58351742.98
48619750.42
40717466.06
34270903.75
28987170.25
24636635.66
21038490.16
18049402.57
15555123.58
13465068.83
11705909.53
7.64642479e+10
7.660038e+10
7.681484889e+10
7.685874989e+10
7.618241305e+10
7.379145312e+10
6.860343801e+10
6.048888941e+10
5.085272886e+10
4.156893171e+10
3.356449443e+10
2.696938073e+10
2.158111071e+10
1.718588464e+10
1.360630296e+10
1.071166862e+10
8389342116
6542329274
5086843386
3948701671
3064061511
2379188744
1850000098
1441353607
1125707748
881748504.1
692923316.2
546508180.9
432738123.8
344115885.9
274890672.4
220643266.5
177975002.3
144277316.1
117549720.9
96257542.71
79220422.86
65526683.47
54470157.33
45503216.79
38198075.86
32221059.43
27308659.86
23253512.97
19891757.6
17092749.45
14752279.32
12786943.02
11129618.12
9726525.535
6.48029686e+10
6.357777894e+10
6.086693417e+10
5.676273114e+10
5.149960418e+10
4.55552242e+10
3.945272566e+10
3.363187298e+10
2.833457357e+10
2.363677796e+10
1.953649957e+10
1.600505338e+10
1.299869358e+10
1.04718946e+10
8375744837
6657481823
5265974083
4150445469
3263807074
2563833497
2013853456
1582712791
1245261204
981391378.6
775118563.2
613811076.9
487547520.8
388582411.8
310875131.5
249728055.2
201482067
163292832
132952233.5
108754564
89380824.73
73807067.41
61235792.34
51046198.36
42752517.48
35973743.47
30409961.7
25824132.2
22028874.84
18875551.5
16244488.2
14039987.34
12185252.94
10618412.88
9289449.431
8157809.537
3.691984017e+10
3.605820398e+10
3.429186887e+10
3.186970325e+10
2.901735009e+10
2.594492744e+10
2.282525997e+10
1.978961821e+10
1.693178553e+10
1.430620822e+10
1.19525851e+10
9881074900
8093306118
6574672541
5304597924
4256233324
3400644321
2709456874
2154768583
1711821571
1359487664
1080024223
858812585.3
683973077.4
545809802.2
436623440.2
350286945.4
281946041.4
227762850.4
184708599.2
150403638.7
122985310
100998155.1
83305351.28
69016878.52
57434808.4
48010627.72
40312177.76
33999265.11
28801950.42
24506314.35
20942189.79
17973440.99
15490698.16
13406533.48
11649980.74
10163480.63
8900590.726
7823576.972
6901625.188
2.178930387e+10
2.13331005e+10
2.039075838e+10
1.908189311e+10
1.751462027e+10
1.579044373e+10
1.400427698e+10
1.223514542e+10
1.05405294e+10
8967185213
7541581994
6278352253
5180747052
4243119569
3453633256
2797977885
2258354450
1817750247
1460324039
1171950334
940119582.2
754313662.7
605725129.9
487069193.7
392393082.9
316863248.3
256594748.2
208448647.2
169917691.2
139013509
114162453
94123081.28
77915227.06
64764072.17
54057170.51
45310525.97
38139750.87
32240585.62
27369418.28
23332165.98
19973898.84
17169902.61
14819821.05
12842736.25
11173067.76
9758017.141
8553974.465
7525616.645
6644122.443
5885837.52
1.356817167e+10
1.329862309e+10
1.273973644e+10
1.195855512e+10
1.101512944e+10
9971286075
8882645681
7796281788
6751099683
5775429553
4887174972
4096837835
3406200673
2813201633
2310384861
1888719892
1538611691
1250017054
1013582957
820902249.9
664536777.1
538080343.8
436017354.4
353776432.2
287572292
234292840.2
191394540.8
156815203.4
128895725.1
106310061.2
87995286.19
73105667.39
60966330.53
51040433.01
42899300.95
36200686.47
30670862.83
26090287.62
22283324.53
19109125.57
16452438.61
14220951.99
12339783.03
10748127.23
9396524.733
8244765.223
7259832.839
6414431.696
5686266.372
5056957.128
8714024762
8546287309
8198034838
7710451613
7120859762
6466252179
5781564101
5096371472
4435031737
3815593073
3249533326
2743249977
2298474749
1913275199
1584287165
1306038866
1072834139
878937938
718783186.5
587120341.4
479339922.5
391404946.7
319840468.6
261716561.7
214537586.7
176246115.3
145151126.9
119873194
99294285.4
82511169.3
68795380.37
57560553.35
48334318.85
40736278.32
34461487.18
29263804.8
24945047.41
21345440.73
18335650.14
15810679.09
13685572.14
11890393.71
10368634.57
9074132.358
7969134.454
7022720.462
6209569.295
5508298.082
4901572.514
4375037.501
5733227801
5626196144
5403789979
5091956984
4714157875
4294568739
3854467903
3412801574
2985670777
2583411900
2214457774
1882056746
1588127855
1331767575
1110898804
922802708.1
763930659.3
630757743.4
519840094.5
427987280.2
352206138.7
289896631.1
238792580
196945840.5
162708628.1
134700503.4
111772994.6
92988691.36
77579640.67
64918828.53
54496150.77
45898048.09
38788679.62
32896265.81
27998340.31
23915867.19
20503430.89
17642493
15236369.93
13206379.61
11488463.82
10029514.14
8786268.854
7723327.707
6811539.08
6026956.412
5349724.273
4763162.958
4253627.731
3809698.338
3857004985
3787304771
3642375765
3439009864
3192821873
2918360943
2629611053
2339373381
2056932684
1789968451
1543321304
1320005909
1120991926
946422639.3
794967823.4
664965526.1
554451315.9
461140554.5
382859094.9
317532440.5
263272950.8
218334571.6
181198919.9
150555977
125289828.8
104460833.2
87288900.13
73118083.98
61410263.08
51723854.17
43696184.91
37030211.14
31483153.1
26856510.3
22988337.89
19745560.76
17019446.75
14721042.21
12777471.86
11128851.61
9726331.364
8529221.312
7504076.972
6623429.625
5864547.702
5208618.258
4640070.238
4145699.208
3714591.795
3337597.526
2651143209
2604921381
2508933686
2374082340
2210120359
2026810387
1833573825
1638320914
1447432799
1266183195
1097700077
944330565.9
806862694.2
685421664
579467911.9
487919708.9
409535143
342954828.6
286725597.4
239485703.1
199960450.5
167001427.4
139568314.7
116766600.6
97831163.24
82111567.83
69059728.85
58218019.01
49202064.81
41694497.1
35433511.97
30202686.54
25823653.53
22149909.08
19061591.04
16458182.71
14257683.51
12392541.77
10807070.96
9455364.194
8299732.881
7308636.614
6455984.526
5720217.602
5083411.411
4530849.082
4050001.076
3630307.108
3263006.136
2940782.536
1860411369
1829221484
1764248287
1672762687
1561269939
1436341704
1304209070
1170025419
1038424254
912723566.6
795401554.6
687934036.3
591145237.6
505108169.4
429605605.4
363996240.1
307471106.5
259150267.7
218097668.3
183379604.3
154133311
129570743.5
108992930.3
91774056.03
77379690.32
65351292.53
55299183.34
46895705.51
39865427.8
33976344.02
29035975.22
24884711.93
21390230.85
18442738.23
15951298.03
13840237.11
12046604.22
10518588.43
9213255.068
8095022.083
7134583.762
6307152.459
5592155.652
4972574.595
4434234.636
3965425.039
3555881.428