/*--------------------------------*- C++ -*----------------------------------*\
  =========                 |
  \\      /  F ield         | OpenFOAM: The Open Source CFD Toolbox
   \\    /   O peration     | Website:  https://openfoam.org
    \\  /    A nd           | Version:  7
     \\/     M anipulation  |
\*---------------------------------------------------------------------------*/
FoamFile
{
    version     2.0;
    format      ascii;
    class       volVectorField;
    location    "0.0003";
    object      U;
}
// * * * * * * * * * * * * * * * * * * * * * * * * * * * * * * * * * * * * * //

dimensions      [0 1 -1 0 0 0 0];

internalField   nonuniform List<vector> 
14000
(
(-6.072971626e-08 3.246813363e-20 -0.002000023232)
(-1.593359637e-07 3.220201034e-20 -0.002000029052)
(-2.538689923e-07 1.705184347e-20 -0.002000043686)
(-3.535520567e-07 -9.042985049e-22 -0.002000064793)
(-4.564260573e-07 -2.039917331e-20 -0.00200009226)
(-5.622600961e-07 -7.310722932e-21 -0.002000125866)
(-6.716416955e-07 6.048764658e-22 -0.002000165328)
(-7.850847568e-07 5.52906916e-21 -0.002000210399)
(-9.029280635e-07 8.759209781e-21 -0.002000260878)
(-1.025384213e-06 1.107694768e-20 -0.002000316599)
(-1.152556646e-06 1.2717244e-20 -0.002000377425)
(-1.284442261e-06 1.386250111e-20 -0.00200044325)
(-1.420934706e-06 1.468136319e-20 -0.00200051399)
(-1.561828281e-06 1.54841346e-20 -0.002000589586)
(-1.706820703e-06 1.628191501e-20 -0.002000669995)
(-1.855515952e-06 1.699863148e-20 -0.002000755192)
(-2.007434995e-06 1.753295434e-20 -0.002000845165)
(-2.162024611e-06 1.795869822e-20 -0.002000939917)
(-2.318635967e-06 1.849119926e-20 -0.002001039466)
(-2.476514118e-06 1.915263284e-20 -0.002001143848)
(-2.634813897e-06 1.948968626e-20 -0.002001253111)
(-2.792618921e-06 1.920751009e-20 -0.002001367316)
(-2.948942941e-06 1.792549093e-20 -0.002001486538)
(-3.102694517e-06 2.590029153e-20 -0.002001610869)
(-3.252687511e-06 3.272973497e-20 -0.002001740407)
(-3.397666984e-06 3.897475719e-20 -0.002001875256)
(-3.536278665e-06 4.498290015e-20 -0.002002015512)
(-3.667086022e-06 4.587099318e-20 -0.002002161255)
(-3.78856289e-06 4.677390049e-20 -0.002002312528)
(-3.899088577e-06 5.239606468e-20 -0.002002469314)
(-3.996976361e-06 5.793969887e-20 -0.002002631522)
(-4.080427143e-06 5.91379901e-20 -0.002002798953)
(-4.147515463e-06 6.048194969e-20 -0.002002971277)
(-4.196220311e-06 6.233390326e-20 -0.002003148001)
(-4.224432395e-06 6.466238887e-20 -0.002003328459)
(-4.229912098e-06 6.719419385e-20 -0.002003511796)
(-4.21028218e-06 6.991742399e-20 -0.002003696966)
(-4.163033746e-06 7.275462007e-20 -0.002003882731)
(-4.085533859e-06 7.572586375e-20 -0.002004067676)
(-3.975001793e-06 7.895351043e-20 -0.002004250223)
(-3.828499873e-06 7.919932636e-20 -0.002004428641)
(-3.642964368e-06 7.978915207e-20 -0.00200460105)
(-3.415201085e-06 8.075745736e-20 -0.002004765413)
(-3.141897248e-06 8.197839782e-20 -0.002004919512)
(-2.819603348e-06 8.348327663e-20 -0.002005060894)
(-2.444779888e-06 8.529165308e-20 -0.002005186794)
(-2.014150819e-06 8.744935534e-20 -0.002005294051)
(-1.524662257e-06 8.652357698e-20 -0.002005379042)
(-9.694618676e-07 8.592003734e-20 -0.002005437444)
(-3.356178794e-07 8.565004375e-20 -0.002005463273)
(-1.561014922e-07 7.37341082e-20 -0.002003016436)
(-4.090573055e-07 1.481853959e-19 -0.002003034886)
(-6.478525279e-07 2.118004539e-19 -0.002003075824)
(-8.925171951e-07 1.823488459e-19 -0.0020031356)
(-1.135718219e-06 1.699097087e-19 -0.002003212723)
(-1.37497393e-06 1.643175511e-19 -0.002003305616)
(-1.610105991e-06 1.157535379e-19 -0.002003412744)
(-1.841017039e-06 7.597872598e-20 -0.002003532653)
(-2.067439813e-06 4.074927629e-20 -0.00200366397)
(-2.289010253e-06 4.103887565e-20 -0.002003805406)
(-2.505275313e-06 3.964526819e-20 -0.002003955757)
(-2.715701255e-06 3.687943647e-20 -0.002004113903)
(-2.91967493e-06 3.268869874e-20 -0.0020042788)
(-3.116519697e-06 3.866932995e-20 -0.002004449482)
(-3.305519582e-06 4.242638125e-20 -0.00200462505)
(-3.485883505e-06 3.483740228e-20 -0.002004804676)
(-3.656738639e-06 3.607486303e-20 -0.002004987591)
(-3.817203201e-06 4.483962069e-20 -0.002005173093)
(-3.966362787e-06 5.198463401e-20 -0.002005360542)
(-4.103258499e-06 5.764807247e-20 -0.002005549359)
(-4.226929457e-06 6.250095569e-20 -0.002005739024)
(-4.336408474e-06 6.680028757e-20 -0.002005929078)
(-4.430728509e-06 7.667746867e-20 -0.002006119123)
(-4.508957172e-06 8.529238118e-20 -0.002006308824)
(-4.57018563e-06 9.364770825e-20 -0.002006497903)
(-4.613529027e-06 9.556827581e-20 -0.002006686142)
(-4.638167691e-06 9.737538339e-20 -0.002006873378)
(-4.643359583e-06 9.917841185e-20 -0.002007059501)
(-4.628435307e-06 1.006344134e-19 -0.002007244447)
(-4.592797337e-06 1.019664546e-19 -0.002007428189)
(-4.535949857e-06 1.035936981e-19 -0.002007610721)
(-4.457531856e-06 1.054467398e-19 -0.00200779204)
(-4.3573222e-06 1.071726958e-19 -0.00200797211)
(-4.235239922e-06 1.091639204e-19 -0.002008150827)
(-4.091370499e-06 1.115193816e-19 -0.002008327975)
(-3.926001057e-06 1.139418557e-19 -0.002008503176)
(-3.739631844e-06 1.164315602e-19 -0.002008675842)
(-3.532990694e-06 1.189020178e-19 -0.002008845145)
(-3.307058721e-06 1.213914234e-19 -0.002009009986)
(-3.06309973e-06 1.240933453e-19 -0.002009169008)
(-2.802670758e-06 1.271240884e-19 -0.002009320628)
(-2.527622255e-06 1.266612766e-19 -0.002009463095)
(-2.240124704e-06 1.229622404e-19 -0.002009594586)
(-1.942684373e-06 1.196488989e-19 -0.002009713314)
(-1.638158918e-06 1.166285412e-19 -0.002009817646)
(-1.329756493e-06 1.138711854e-19 -0.002009906241)
(-1.020991091e-06 1.113481769e-19 -0.002009978163)
(-7.15812922e-07 1.090843259e-19 -0.002010032984)
(-4.190664721e-07 1.067654566e-19 -0.002010070912)
(-1.357753421e-07 1.071775478e-19 -0.002010092953)
(-1.856306113e-07 1.072154806e-20 -0.002007843655)
(-4.853845363e-07 -3.15406847e-20 -0.00200786176)
(-7.654028428e-07 7.675133172e-20 -0.002007900239)
(-1.049065835e-06 1.557812769e-19 -0.002007956573)
(-1.326713601e-06 2.208526623e-19 -0.002008029282)
(-1.594553118e-06 2.017411992e-19 -0.00200811674)
(-1.851681241e-06 1.959699187e-19 -0.002008217383)
(-2.097465588e-06 1.928557294e-19 -0.002008329707)
(-2.331186181e-06 1.92557991e-19 -0.002008452259)
(-2.552137261e-06 1.934839084e-19 -0.00200858365)
(-2.759676413e-06 1.967878659e-19 -0.002008722574)
(-2.953227109e-06 2.019076276e-19 -0.002008867806)
(-3.132224007e-06 1.935206226e-19 -0.002009018216)
(-3.296119866e-06 1.861930684e-19 -0.002009172767)
(-3.444420716e-06 1.803076104e-19 -0.00200933052)
(-3.576662071e-06 1.770885019e-19 -0.002009490642)
(-3.692418707e-06 1.745078378e-19 -0.002009652396)
(-3.791301403e-06 1.718715888e-19 -0.002009815141)
(-3.872970078e-06 1.711811577e-19 -0.002009978337)
(-3.937190979e-06 1.718191224e-19 -0.002010141531)
(-3.983804146e-06 1.73801136e-19 -0.002010304357)
(-4.012687543e-06 1.77026339e-19 -0.002010466526)
(-4.023790329e-06 1.746485462e-19 -0.002010627811)
(-4.017174795e-06 1.639761899e-19 -0.002010788034)
(-3.993006104e-06 1.628834168e-19 -0.002010947054)
(-3.951526579e-06 1.569961667e-19 -0.002011104734)
(-3.893085957e-06 1.462250055e-19 -0.002011260926)
(-3.818122862e-06 1.419740052e-19 -0.002011415448)
(-3.727174069e-06 1.38511833e-19 -0.002011568061)
(-3.62089694e-06 1.314194274e-19 -0.002011718445)
(-3.50003955e-06 1.251071266e-19 -0.002011866193)
(-3.365445651e-06 1.234522409e-19 -0.002012010798)
(-3.218075755e-06 1.225933782e-19 -0.002012151669)
(-3.058981428e-06 1.276535325e-19 -0.002012288136)
(-2.889306659e-06 1.287747177e-19 -0.002012419477)
(-2.710291325e-06 1.303831913e-19 -0.00201254495)
(-2.52326162e-06 1.282380048e-19 -0.002012663823)
(-2.329644962e-06 1.224854974e-19 -0.002012775404)
(-2.130934223e-06 1.132627118e-19 -0.002012879072)
(-1.928688499e-06 1.047465304e-19 -0.002012974301)
(-1.724533337e-06 9.937064663e-20 -0.002013060674)
(-1.52014276e-06 9.813278253e-20 -0.0020131379)
(-1.317216376e-06 9.7228381e-20 -0.002013205817)
(-1.117437541e-06 9.649250465e-20 -0.002013264403)
(-9.224561716e-07 9.591510761e-20 -0.00201331377)
(-7.338480548e-07 9.548830428e-20 -0.002013354165)
(-5.530537454e-07 9.520273303e-20 -0.002013385951)
(-3.813960253e-07 9.693695886e-20 -0.002013409592)
(-2.202683678e-07 9.640889233e-20 -0.002013425623)
(-7.092602391e-08 9.61087385e-20 -0.002013434676)
(-1.650700587e-07 2.194705509e-20 -0.002012663821)
(-4.319114302e-07 6.754979097e-22 -0.002012676707)
(-6.810738774e-07 -4.373359402e-20 -0.002012703119)
(-9.320001738e-07 1.628076675e-20 -0.002012741944)
(-1.175446937e-06 5.34891705e-20 -0.002012792173)
(-1.407711327e-06 7.780346467e-20 -0.002012852685)
(-1.627678881e-06 1.490860752e-19 -0.002012922434)
(-1.834562817e-06 2.085232934e-19 -0.002013000415)
(-2.027584369e-06 2.60740087e-19 -0.002013085658)
(-2.206042332e-06 2.723324409e-19 -0.00201317723)
(-2.369395708e-06 2.837782407e-19 -0.002013274248)
(-2.517214107e-06 2.962926442e-19 -0.002013375891)
(-2.649157966e-06 3.090559107e-19 -0.002013481401)
(-2.764967886e-06 2.980685993e-19 -0.002013590084)
(-2.86446545e-06 2.906237916e-19 -0.002013701314)
(-2.947576451e-06 2.842858692e-19 -0.002013814528)
(-3.014316003e-06 2.605147014e-19 -0.002013929225)
(-3.064775122e-06 2.207709456e-19 -0.00201404496)
(-3.099139642e-06 1.838870949e-19 -0.002014161332)
(-3.117684521e-06 1.672814004e-19 -0.002014277981)
(-3.120749256e-06 1.513286469e-19 -0.002014394577)
(-3.108757099e-06 1.359130236e-19 -0.00201451081)
(-3.082214947e-06 1.153734928e-19 -0.002014626372)
(-3.041686297e-06 1.026096271e-19 -0.00201474095)
(-2.98781669e-06 9.057465678e-20 -0.002014854224)
(-2.921340049e-06 8.484428053e-20 -0.002014965856)
(-2.843030536e-06 7.974501256e-20 -0.002015075488)
(-2.753702917e-06 8.083873213e-20 -0.002015182747)
(-2.654246851e-06 8.189310552e-20 -0.002015287243)
(-2.545607087e-06 8.297028535e-20 -0.002015388579)
(-2.428766444e-06 8.411853556e-20 -0.00201548636)
(-2.304744463e-06 8.030291824e-20 -0.002015580201)
(-2.174609604e-06 7.669113681e-20 -0.002015669735)
(-2.039467832e-06 6.855039976e-20 -0.002015754624)
(-1.900421865e-06 6.104131774e-20 -0.002015834567)
(-1.758596881e-06 5.37334678e-20 -0.002015909307)
(-1.615120937e-06 5.09353628e-20 -0.002015978633)
(-1.471103617e-06 4.819526655e-20 -0.002016042389)
(-1.327635221e-06 4.943296415e-20 -0.002016100476)
(-1.185767896e-06 5.040220433e-20 -0.002016152852)
(-1.046506488e-06 4.755494206e-20 -0.002016199534)
(-9.107913752e-07 4.703179595e-20 -0.002016240599)
(-7.794879475e-07 5.213410116e-20 -0.00201627618)
(-6.533837363e-07 5.684217718e-20 -0.002016306461)
(-5.33178901e-07 6.117041564e-20 -0.002016331675)
(-4.19467755e-07 6.511959266e-20 -0.002016352094)
(-3.127315906e-07 6.867960401e-20 -0.002016368022)
(-2.133946474e-07 7.184985929e-20 -0.002016379785)
(-1.219706796e-07 7.355377091e-20 -0.002016387728)
(-3.906797889e-08 7.352155533e-20 -0.002016392229)
(-1.297633174e-07 9.672351645e-20 -0.002017096358)
(-3.389224831e-07 2.123624127e-19 -0.002017104612)
(-5.330979051e-07 1.683691458e-19 -0.00201712089)
(-7.278994644e-07 1.513781586e-19 -0.002017144928)
(-9.158483042e-07 1.466852734e-19 -0.002017176119)
(-1.093862607e-06 1.487425481e-19 -0.002017213794)
(-1.260899311e-06 1.552789124e-19 -0.00201725735)
(-1.416211381e-06 1.64336819e-19 -0.002017306209)
(-1.559119002e-06 1.74175779e-19 -0.002017359812)
(-1.689110622e-06 1.83389146e-19 -0.002017417625)
(-1.805796101e-06 1.947855152e-19 -0.002017479131)
(-1.908875306e-06 1.888331584e-19 -0.002017543848)
(-1.998196316e-06 1.982723526e-19 -0.00201761132)
(-2.073708239e-06 1.945329236e-19 -0.002017681117)
(-2.135441856e-06 1.798368957e-19 -0.002017752833)
(-2.183558151e-06 1.681132124e-19 -0.002017826087)
(-2.218299881e-06 1.602176869e-19 -0.002017900513)
(-2.239975331e-06 1.544213586e-19 -0.002017975761)
(-2.248989039e-06 1.410182468e-19 -0.002018051489)
(-2.245793586e-06 1.289379398e-19 -0.002018127365)
(-2.230905881e-06 1.104572557e-19 -0.00201820306)
(-2.204934107e-06 8.571996743e-20 -0.002018278243)
(-2.168539255e-06 6.960507425e-20 -0.002018352584)
(-2.122410808e-06 5.448623745e-20 -0.002018425755)
(-2.067269091e-06 3.464147548e-20 -0.00201849743)
(-2.003886216e-06 2.804192164e-20 -0.00201856729)
(-1.933064327e-06 2.675496875e-20 -0.002018635025)
(-1.855623356e-06 2.516397299e-20 -0.00201870034)
(-1.77240996e-06 2.354757346e-20 -0.002018762954)
(-1.684274385e-06 2.175023774e-20 -0.002018822611)
(-1.59206232e-06 1.972436428e-20 -0.00201887908)
(-1.496631376e-06 1.754351352e-20 -0.002018932161)
(-1.398818732e-06 1.964983885e-20 -0.002018981684)
(-1.299448904e-06 1.694797241e-20 -0.00201902752)
(-1.199325595e-06 1.734740192e-20 -0.002019069572)
(-1.099211551e-06 1.723705745e-20 -0.002019107784)
(-9.998447784e-07 1.981141915e-20 -0.002019142139)
(-9.019192797e-07 2.495318015e-20 -0.002019172655)
(-8.060806479e-07 3.280431611e-20 -0.002019199387)
(-7.129252861e-07 3.994008035e-20 -0.002019222425)
(-6.229999048e-07 4.669725402e-20 -0.002019241888)
(-5.367979271e-07 5.023952226e-20 -0.002019257925)
(-4.547494017e-07 5.344673259e-20 -0.002019270706)
(-3.772231077e-07 5.335535141e-20 -0.002019280426)
(-3.045372458e-07 5.627145716e-20 -0.002019287297)
(-2.369644356e-07 5.614409444e-20 -0.002019291533)
(-1.746991899e-07 5.598497121e-20 -0.002019293317)
(-1.178477707e-07 5.569859017e-20 -0.00201929283)
(-6.65341025e-08 5.726528491e-20 -0.002019290716)
(-2.113398011e-08 5.860937981e-20 -0.002019288651)
(-9.660554425e-08 4.506785291e-20 -0.002020972706)
(-2.524900177e-07 6.584041267e-20 -0.002020977807)
(-3.973456547e-07 6.990576701e-20 -0.00202098747)
(-5.421530034e-07 7.205314365e-20 -0.002021001788)
(-6.810834698e-07 7.290986567e-20 -0.002021020412)
(-8.118183567e-07 7.401443735e-20 -0.002021042958)
(-9.335112079e-07 7.613989902e-20 -0.002021069078)
(-1.045568934e-06 8.004624405e-20 -0.002021098445)
(-1.147475906e-06 8.705274492e-20 -0.002021130732)
(-1.238882111e-06 5.288222946e-20 -0.002021165621)
(-1.319545995e-06 2.599901968e-20 -0.002021202803)
(-1.389315383e-06 4.855050927e-21 -0.002021241972)
(-1.448185647e-06 -1.274500691e-20 -0.002021282831)
(-1.496257727e-06 -3.205708869e-20 -0.002021325086)
(-1.533685251e-06 -4.947796299e-20 -0.002021368449)
(-1.560705442e-06 -5.608108536e-20 -0.00202141263)
(-1.577661955e-06 -5.278770306e-20 -0.002021457346)
(-1.584942836e-06 -2.916249743e-20 -0.002021502315)
(-1.582983259e-06 -6.860071291e-21 -0.002021547257)
(-1.572283032e-06 -4.756448971e-22 -0.002021591895)
(-1.553402418e-06 7.333894711e-21 -0.002021635954)
(-1.526937954e-06 5.722175569e-21 -0.002021679164)
(-1.49350259e-06 4.543922558e-21 -0.002021721267)
(-1.453736717e-06 5.184633488e-21 -0.002021762015)
(-1.408301316e-06 6.110468279e-21 -0.002021801172)
(-1.357856168e-06 7.010082069e-21 -0.002021838517)
(-1.303086176e-06 8.19422564e-21 -0.002021873848)
(-1.244681993e-06 1.044239512e-20 -0.002021906986)
(-1.183314697e-06 1.283547549e-20 -0.002021937771)
(-1.119652096e-06 1.539234508e-20 -0.002021966071)
(-1.054344797e-06 1.81133786e-20 -0.002021991777)
(-9.880306595e-07 2.533355394e-20 -0.002022014808)
(-9.21312466e-07 3.250941686e-20 -0.002022035109)
(-8.547712488e-07 4.399525681e-20 -0.002022052653)
(-7.889696272e-07 5.570397683e-20 -0.002022067436)
(-7.244166914e-07 6.358331916e-20 -0.002022079481)
(-6.615953674e-07 6.850038657e-20 -0.002022088833)
(-6.009634808e-07 7.022552402e-20 -0.002022095558)
(-5.429243081e-07 6.92942904e-20 -0.002022099744)
(-4.878375116e-07 6.537626353e-20 -0.002022101493)
(-4.360400792e-07 6.528493787e-20 -0.002022100924)
(-3.878256941e-07 6.236252208e-20 -0.002022098171)
(-3.434175721e-07 5.708529984e-20 -0.002022093379)
(-3.029649634e-07 5.254825161e-20 -0.002022086689)
(-2.666838027e-07 4.836821006e-20 -0.002022078198)
(-2.353964079e-07 4.754800635e-20 -0.002022068059)
(-2.101234094e-07 4.717376535e-20 -0.002022057114)
(-1.850688618e-07 4.596525926e-20 -0.002022046798)
(-1.387626216e-07 4.522088749e-20 -0.002022038244)
(-5.224211855e-08 4.480650227e-20 -0.002022032518)
(-7.042925338e-08 4.354681187e-20 -0.002024521095)
(-1.837565756e-07 6.286787664e-20 -0.002024524243)
(-2.885522819e-07 6.521710519e-20 -0.002024529971)
(-3.930607336e-07 6.370063238e-20 -0.002024538459)
(-4.929665265e-07 6.035389128e-20 -0.002024549502)
(-5.865631994e-07 5.510940593e-20 -0.002024562865)
(-6.731757491e-07 4.829540465e-20 -0.00202457834)
(-7.523580796e-07 4.04322708e-20 -0.002024595718)
(-8.237771189e-07 3.344790835e-20 -0.002024614794)
(-8.871744025e-07 -1.285614483e-20 -0.002024635356)
(-9.424309638e-07 -5.531571071e-20 -0.002024657199)
(-9.895262008e-07 -8.106225866e-20 -0.002024680112)
(-1.02850508e-06 -1.079397152e-19 -0.002024703882)
(-1.059519055e-06 -1.228463086e-19 -0.002024728297)
(-1.082798213e-06 -1.279319101e-19 -0.002024753147)
(-1.098614083e-06 -1.354772351e-19 -0.002024778219)
(-1.107297165e-06 -1.332857122e-19 -0.002024803302)
(-1.109240377e-06 -1.340556361e-19 -0.002024828189)
(-1.104873905e-06 -1.280546082e-19 -0.002024852676)
(-1.094662864e-06 -1.247186556e-19 -0.002024876563)
(-1.079114962e-06 -1.158989386e-19 -0.00202489966)
(-1.058747146e-06 -1.02193196e-19 -0.002024921788)
(-1.034074129e-06 -9.22735624e-20 -0.002024942778)
(-1.005648451e-06 -7.199466906e-20 -0.002024962474)
(-9.740334331e-07 -5.504255178e-20 -0.002024980734)
(-9.397759668e-07 -4.64474593e-20 -0.002024997435)
(-9.034209378e-07 -3.931298391e-20 -0.002025012464)
(-8.655165195e-07 -3.263828124e-20 -0.002025025732)
(-8.265917528e-07 -3.251719286e-20 -0.002025037166)
(-7.87162278e-07 -3.238916865e-20 -0.002025046713)
(-7.477286964e-07 -3.218237535e-20 -0.002025054335)
(-7.087594901e-07 -3.179306789e-20 -0.002025060015)
(-6.707135784e-07 -4.066611727e-20 -0.002025063754)
(-6.340170876e-07 -4.909892237e-20 -0.002025065567)
(-5.990636121e-07 -5.269342708e-20 -0.002025065484)
(-5.662344237e-07 -5.603446713e-20 -0.002025063553)
(-5.358719464e-07 -5.519989647e-20 -0.00202505983)
(-5.082831567e-07 -5.432842543e-20 -0.002025054386)
(-4.837549578e-07 -5.354497094e-20 -0.002025047301)
(-4.625359684e-07 -5.271895798e-20 -0.002025038666)
(-4.448108262e-07 -5.189612456e-20 -0.002025028581)
(-4.306904326e-07 -5.097347938e-20 -0.002025017138)
(-4.205061913e-07 -5.008750595e-20 -0.00202500437)
(-4.154196239e-07 -4.929583262e-20 -0.00202499037)
(-4.155626959e-07 -5.137864934e-20 -0.002024976148)
(-4.091831036e-07 -5.293883714e-20 -0.002024963304)
(-3.756451027e-07 -5.571102819e-20 -0.002024953241)
(-3.063896677e-07 -5.84296223e-20 -0.002024947144)
(-2.046763536e-07 -6.119637166e-20 -0.002024945457)
(-7.229193934e-08 -6.406555858e-20 -0.002024946164)
(-5.150310506e-08 -1.071200553e-20 -0.002027764948)
(-1.344983012e-07 1.825380383e-19 -0.002027766853)
(-2.114324574e-07 1.502347293e-19 -0.002027770188)
(-2.880531805e-07 1.327261302e-19 -0.002027775108)
(-3.610983596e-07 1.223196559e-19 -0.002027781487)
(-4.293051992e-07 1.160814276e-19 -0.002027789175)
(-4.922011305e-07 1.126592271e-19 -0.002027798032)
(-5.494669727e-07 1.112277113e-19 -0.002027807912)
(-6.008822348e-07 8.618724939e-20 -0.002027818674)
(-6.463003796e-07 1.06170645e-19 -0.002027830172)
(-6.856559166e-07 8.53354012e-20 -0.002027842255)
(-7.190068659e-07 5.065985197e-20 -0.002027854775)
(-7.464576719e-07 2.090492158e-20 -0.002027867585)
(-7.681651344e-07 -6.517615087e-21 -0.002027880533)
(-7.843570811e-07 -3.079598818e-20 -0.002027893474)
(-7.953148999e-07 -5.273803045e-20 -0.002027906265)
(-8.013643683e-07 -6.151763671e-20 -0.002027918765)
(-8.028617947e-07 -8.024302585e-20 -0.002027930841)
(-8.001864694e-07 -8.803965e-20 -0.002027942365)
(-7.937409056e-07 -9.606040199e-20 -0.002027953216)
(-7.839517447e-07 -8.571249395e-20 -0.002027963282)
(-7.712561348e-07 -6.739125491e-20 -0.002027972466)
(-7.561003026e-07 -5.027879621e-20 -0.002027980675)
(-7.38943357e-07 -4.957594891e-20 -0.002027987832)
(-7.202311199e-07 -4.928428023e-20 -0.002027993868)
(-7.004182149e-07 -5.640989458e-20 -0.002027998732)
(-6.799431123e-07 -6.361622497e-20 -0.00202800238)
(-6.592346192e-07 -7.677553283e-20 -0.002028004784)
(-6.387093969e-07 -8.981346307e-20 -0.002028005928)
(-6.187642703e-07 -9.742594228e-20 -0.002028005807)
(-5.997872495e-07 -1.056988337e-19 -0.002028004428)
(-5.821337604e-07 -1.145162534e-19 -0.002028001808)
(-5.661546527e-07 -1.243181787e-19 -0.002027997974)
(-5.521682437e-07 -1.348037562e-19 -0.002027992961)
(-5.404626277e-07 -1.463474634e-19 -0.002027986814)
(-5.313173912e-07 -1.546771795e-19 -0.002027979582)
(-5.249723522e-07 -1.642833408e-19 -0.002027971323)
(-5.216392937e-07 -1.669018615e-19 -0.0020279621)
(-5.214651886e-07 -1.707156101e-19 -0.002027951986)
(-5.245196325e-07 -1.680974683e-19 -0.002027941038)
(-5.311792601e-07 -1.667316986e-19 -0.002027929236)
(-5.42816147e-07 -1.631264517e-19 -0.002027916629)
(-5.591566145e-07 -1.571994987e-19 -0.002027904391)
(-5.649952577e-07 -1.52247092e-19 -0.002027894345)
(-5.394171108e-07 -1.481934458e-19 -0.002027888144)
(-4.763810682e-07 -1.478397555e-19 -0.00202788712)
(-3.790862932e-07 -1.480423786e-19 -0.002027891199)
(-2.574587357e-07 -1.488569844e-19 -0.002027898273)
(-1.383511254e-07 -1.489572915e-19 -0.002027905466)
(-4.224138321e-08 -1.498132698e-19 -0.002027910475)
(-3.919609147e-08 1.443459217e-19 -0.00203086721)
(-1.022096798e-07 3.395032089e-19 -0.00203086816)
(-1.604255029e-07 3.338881378e-19 -0.002030869701)
(-2.184316298e-07 2.211331006e-19 -0.002030871953)
(-2.737822961e-07 1.47289562e-19 -0.002030874843)
(-3.255189668e-07 9.343523215e-20 -0.002030878278)
(-3.73306807e-07 5.099625241e-20 -0.002030882163)
(-4.169262666e-07 1.477725857e-20 -0.002030886402)
(-4.562103523e-07 -1.843121322e-20 -0.002030890894)
(-4.911059314e-07 -1.244044575e-20 -0.002030895541)
(-5.216061849e-07 -7.716007667e-21 -0.00203090024)
(-5.47764906e-07 -4.916493182e-21 -0.00203090489)
(-5.697054127e-07 -3.114060532e-21 -0.002030909391)
(-5.875971566e-07 -1.171766285e-21 -0.002030913648)
(-6.016484997e-07 2.708934828e-22 -0.002030917566)
(-6.121021055e-07 1.077609285e-21 -0.002030921056)
(-6.192321742e-07 -1.036206085e-20 -0.002030924033)
(-6.233514407e-07 -2.163135858e-20 -0.002030926422)
(-6.24799259e-07 -3.326118508e-20 -0.002030928154)
(-6.239166541e-07 -3.502976188e-20 -0.002030929169)
(-6.210415603e-07 -3.756856662e-20 -0.002030929411)
(-6.165358568e-07 -3.113451121e-20 -0.002030928837)
(-6.107722464e-07 -2.433056778e-20 -0.002030927413)
(-6.041114099e-07 -3.033218542e-20 -0.002030925112)
(-5.969126491e-07 -3.493643874e-20 -0.00203092192)
(-5.895269139e-07 -3.938906606e-20 -0.00203091783)
(-5.822972219e-07 -4.35183413e-20 -0.002030912846)
(-5.755551225e-07 -4.772196647e-20 -0.00203090698)
(-5.696172116e-07 -4.629573496e-20 -0.002030900252)
(-5.64786899e-07 -4.540877158e-20 -0.002030892689)
(-5.613458678e-07 -4.47642891e-20 -0.002030884327)
(-5.595646316e-07 -4.431141668e-20 -0.002030875206)
(-5.596860797e-07 -3.90740147e-20 -0.002030865372)
(-5.619317545e-07 -3.396984776e-20 -0.002030854875)
(-5.665096078e-07 -3.340202063e-20 -0.002030843768)
(-5.735851983e-07 -3.263017639e-20 -0.002030832113)
(-5.832600923e-07 -3.571538375e-20 -0.002030819975)
(-5.955551071e-07 -3.870645415e-20 -0.002030807402)
(-6.108608335e-07 -4.122789951e-20 -0.002030794353)
(-6.306978776e-07 -4.364618232e-20 -0.002030780848)
(-6.545394733e-07 -4.571308015e-20 -0.002030768205)
(-6.650844377e-07 -4.764838087e-20 -0.002030758398)
(-6.408829782e-07 -4.938237332e-20 -0.002030753193)
(-5.770375474e-07 -4.767622809e-20 -0.002030754021)
(-4.777142738e-07 -4.599298049e-20 -0.002030760537)
(-3.590003385e-07 -4.308038423e-20 -0.002030770427)
(-2.471475499e-07 -4.03974438e-20 -0.00203078059)
(-1.549209973e-07 -3.774729743e-20 -0.002030788637)
(-8.128421641e-08 -3.66548048e-20 -0.002030793661)
(-2.464542489e-08 -3.547121449e-20 -0.002030796181)
(-3.163951403e-08 1.943422862e-19 -0.002033844232)
(-8.262137623e-08 2.224160684e-19 -0.002033844373)
(-1.299855315e-07 2.456459011e-19 -0.00203384436)
(-1.773356212e-07 1.478344344e-19 -0.002033844299)
(-2.226791153e-07 7.820499921e-20 -0.002033844167)
(-2.653137426e-07 2.348365706e-20 -0.002033843916)
(-3.050044906e-07 -2.35998379e-20 -0.00203384349)
(-3.416266346e-07 -6.678839057e-20 -0.002033842834)
(-3.750951611e-07 -8.310990826e-20 -0.002033841887)
(-4.053721329e-07 -1.014998612e-19 -0.002033840588)
(-4.324925618e-07 -8.262837558e-20 -0.002033838876)
(-4.56535339e-07 -5.131561827e-20 -0.002033836689)
(-4.776179972e-07 -2.527566842e-20 -0.00203383397)
(-4.959021861e-07 1.175753151e-20 -0.002033830664)
(-5.115865298e-07 4.512203407e-20 -0.002033826719)
(-5.248896767e-07 7.601452197e-20 -0.002033822089)
(-5.360424022e-07 8.084455522e-20 -0.002033816733)
(-5.452941856e-07 8.613175055e-20 -0.002033810616)
(-5.529214866e-07 8.221642706e-20 -0.00203380371)
(-5.592237749e-07 7.885090424e-20 -0.002033795997)
(-5.644808736e-07 5.887013745e-20 -0.002033787465)
(-5.689699551e-07 4.038524301e-20 -0.002033778108)
(-5.729900862e-07 2.338288825e-20 -0.00203376793)
(-5.768170833e-07 1.504984614e-20 -0.002033756944)
(-5.807324882e-07 7.129751323e-21 -0.002033745168)
(-5.850018863e-07 6.522696268e-21 -0.002033732629)
(-5.898807379e-07 6.110887195e-21 -0.002033719361)
(-5.956123126e-07 1.264849598e-20 -0.002033705403)
(-6.024253726e-07 1.92517615e-20 -0.002033690801)
(-6.105323404e-07 2.020715622e-20 -0.002033675607)
(-6.201263099e-07 2.151100297e-20 -0.002033659875)
(-6.313887788e-07 2.317269249e-20 -0.002033643665)
(-6.444739706e-07 2.524462505e-20 -0.002033627039)
(-6.595104767e-07 2.772506934e-20 -0.002033610065)
(-6.765468313e-07 3.0582552e-20 -0.00203359282)
(-6.95552797e-07 3.382161067e-20 -0.002033575359)
(-7.169352514e-07 3.746194466e-20 -0.002033557634)
(-7.423203215e-07 3.733993495e-20 -0.002033539654)
(-7.709824159e-07 3.778836901e-20 -0.00203352289)
(-7.838607315e-07 3.495872577e-20 -0.002033509472)
(-7.587758171e-07 3.280640761e-20 -0.002033501223)
(-6.915399093e-07 3.128220836e-20 -0.002033499576)
(-5.868676934e-07 2.673357181e-20 -0.002033503942)
(-4.644107823e-07 2.348313902e-20 -0.00203351183)
(-3.508066713e-07 2.111623513e-20 -0.002033520016)
(-2.557140124e-07 1.947497458e-20 -0.00203352614)
(-1.773535174e-07 1.679365035e-20 -0.00203352961)
(-1.131642954e-07 1.593534663e-20 -0.002033530922)
(-6.095166522e-08 1.556012611e-20 -0.002033530726)
(-1.861861748e-08 1.544141891e-20 -0.002033530077)
(-2.745372528e-08 -3.033317695e-20 -0.002036769273)
(-7.164536134e-08 -1.458627204e-19 -0.002036768725)
(-1.127304181e-07 -7.933806625e-20 -0.002036767381)
(-1.54013512e-07 -4.914216919e-20 -0.002036765364)
(-1.938725139e-07 -3.336280336e-20 -0.002036762688)
(-2.317824431e-07 -2.343955922e-20 -0.002036759341)
(-2.675767834e-07 -1.620083521e-20 -0.00203675531)
(-3.011740743e-07 -9.818300794e-21 -0.002036750572)
(-3.325603202e-07 -3.057199827e-21 -0.002036745109)
(-3.61743417e-07 4.491741104e-21 -0.002036738896)
(-3.887614547e-07 1.309014041e-20 -0.002036731907)
(-4.137044296e-07 2.266988853e-20 -0.002036724118)
(-4.366943086e-07 3.276003699e-20 -0.002036715507)
(-4.578779736e-07 4.313104228e-20 -0.002036706055)
(-4.774234566e-07 5.360528446e-20 -0.002036695746)
(-4.955173619e-07 6.382479041e-20 -0.002036684571)
(-5.123649225e-07 7.418560008e-20 -0.002036672524)
(-5.281838372e-07 8.417411891e-20 -0.002036659603)
(-5.43190591e-07 9.383162388e-20 -0.002036645813)
(-5.576045476e-07 9.321079263e-20 -0.002036631166)
(-5.716572941e-07 9.285441032e-20 -0.002036615679)
(-5.855712029e-07 8.38586198e-20 -0.002036599376)
(-5.995599962e-07 7.560534404e-20 -0.002036582286)
(-6.138382205e-07 6.801607397e-20 -0.002036564445)
(-6.286073631e-07 6.096276351e-20 -0.002036545891)
(-6.440595415e-07 5.437446799e-20 -0.002036526673)
(-6.60375127e-07 4.803324065e-20 -0.002036506837)
(-6.777158816e-07 4.154103328e-20 -0.002036486441)
(-6.962324287e-07 3.499905546e-20 -0.00203646554)
(-7.160550597e-07 2.825439219e-20 -0.002036444196)
(-7.373031924e-07 2.128692188e-20 -0.00203642247)
(-7.60066829e-07 1.399497858e-20 -0.002036400432)
(-7.843478568e-07 1.169228849e-20 -0.002036378161)
(-8.100757568e-07 1.391978543e-20 -0.002036355712)
(-8.376597013e-07 1.535910932e-20 -0.002036333022)
(-8.688491886e-07 1.604885949e-20 -0.002036310084)
(-9.027534176e-07 1.602243516e-20 -0.002036288544)
(-9.186139311e-07 1.533890607e-20 -0.00203627075)
(-8.933805905e-07 1.402716879e-20 -0.002036258659)
(-8.234467971e-07 1.203158787e-20 -0.00203625374)
(-7.139614617e-07 9.348113943e-21 -0.00203625511)
(-5.86710788e-07 5.984137399e-21 -0.002036259973)
(-4.68973544e-07 2.053251938e-21 -0.002036264866)
(-3.69101535e-07 -2.385871209e-21 -0.00203626732)
(-2.851486646e-07 -7.232659725e-21 -0.002036266893)
(-2.146451893e-07 -9.19508691e-21 -0.002036264102)
(-1.554210051e-07 -8.459231373e-21 -0.0020362596)
(-1.046292086e-07 -8.334077199e-21 -0.002036254463)
(-5.952713501e-08 -7.256897514e-21 -0.002036249884)
(-1.828914761e-08 -6.667474388e-21 -0.002036246928)
(-2.558579709e-08 -8.361911585e-20 -0.002039632628)
(-6.687361969e-08 -2.975588166e-19 -0.002039631536)
(-1.055092339e-07 -3.26476386e-19 -0.002039629129)
(-1.445787498e-07 -2.4235342e-19 -0.002039625543)
(-1.82657567e-07 -2.036676059e-19 -0.002039620825)
(-2.193040761e-07 -1.421023882e-19 -0.002039615007)
(-2.544365217e-07 -9.990688486e-20 -0.002039608113)
(-2.880356969e-07 -6.949509017e-20 -0.002039600162)
(-3.200907566e-07 -4.66673459e-20 -0.002039591166)
(-3.50645696e-07 -2.889218525e-20 -0.002039581139)
(-3.797803375e-07 -1.468754618e-20 -0.002039570093)
(-4.075879628e-07 -3.149374632e-21 -0.002039558039)
(-4.34171982e-07 6.410987538e-21 -0.002039544992)
(-4.596558981e-07 1.393841767e-20 -0.002039530964)
(-4.841822997e-07 1.968539968e-20 -0.002039515973)
(-5.079153781e-07 2.414089178e-20 -0.002039500038)
(-5.310291967e-07 4.031421452e-20 -0.002039483182)
(-5.536947921e-07 5.517245963e-20 -0.002039465431)
(-5.760785397e-07 6.912926734e-20 -0.002039446818)
(-5.983499646e-07 8.238164096e-20 -0.002039427376)
(-6.206857034e-07 9.492599998e-20 -0.002039407141)
(-6.432481802e-07 9.635462424e-20 -0.002039386156)
(-6.661973698e-07 9.815939647e-20 -0.002039364463)
(-6.896936868e-07 1.007466334e-19 -0.002039342109)