/*--------------------------------*- C++ -*----------------------------------*\
  =========                 |
  \\      /  F ield         | OpenFOAM: The Open Source CFD Toolbox
   \\    /   O peration     | Website:  https://openfoam.org
    \\  /    A nd           | Version:  7
     \\/     M anipulation  |
\*---------------------------------------------------------------------------*/
FoamFile
{
    version     2.0;
    format      ascii;
    class       volScalarField;
    location    "0.0003";
    object      wallHeatFlux;
}
// * * * * * * * * * * * * * * * * * * * * * * * * * * * * * * * * * * * * * //

dimensions      [1 0 -3 0 0 0 0];

internalField   uniform 0;

boundaryField
{
    front_top
    {
        type            wedge;
    }
    front_middle
    {
        type            wedge;
    }
    front_bottom
    {
        type            wedge;
    }
    back_top
    {
        type            wedge;
    }
    back_middle
    {
        type            wedge;
    }
    back_bottom
    {
        type            wedge;
    }
    axis_top
    {
        type            symmetryPlane;
    }
    axis_middle
    {
        type            symmetryPlane;
    }
    axis_bottom
    {
        type            symmetryPlane;
    }
    wall_top
    {
        type            calculated;
        value           nonuniform List<scalar> 
150
(
47280.05979
42093.23117
39140.9116
36908.99684
35208.27005
33924.89559
32400.48691
30670.40935
29114.01974
27909.13946
27281.51062
26968.45253
26649.17375
26185.72003
25694.76939
25238.2166
24812.59454
24412.48264
24034.09078
23674.58339
23331.67453
23002.84653
22686.46661
22381.05812
22085.48092
21799.14266
21521.66123
21252.91389
20992.61924
20740.47011
20496.13805
20259.31562
20029.67395
19806.8781
19590.61867
19380.62087
19176.65465
18978.4952
18785.9317
18598.76302
18416.79217
18239.83071
18067.71445
17900.25431
17737.27678
17578.61342
17424.1099
17273.65887
17127.07518
16984.21611
16844.99168
16709.26716
16576.89394
16447.81545
16321.89592
16199.00455
16079.12826
15962.07759
15847.83307
15736.27381
15627.32512
15520.92424
15416.9605
15315.40644
15216.14238
15119.15011
15024.32268
14931.62737
14840.98961
14752.34359
14665.66564
14580.84036
14497.91308
14416.73921
14337.3284
14259.61845
14183.53167
14109.10645
14036.22036
13964.8575
13895.01403
13826.59833
13759.60471
13694.01059
13629.74274
13566.78952
13505.14034
13444.72362
13385.51466
13327.53354
13270.6992
13214.98616
13160.39661
13106.89689
13054.44149
13003.00646
12952.60655
12903.189
12854.72388
12807.19059
12760.59778
12714.90277
12670.07671
12626.09994
12582.96692
12540.66741
12499.15977
12458.42607
12418.44872
12379.22737
12340.73798
12302.94938
12265.84397
12229.40307
12193.61751
12158.47719
12123.94313
12089.99463
12056.60928
12023.76268
11991.4401
11959.60808
11928.21898
11897.22943
11866.58576
11836.22004
11806.04882
11775.96785
11745.80341
11715.34204
11684.28868
11652.23178
11618.59565
11582.59477
11543.0701
11498.41824
11446.38724
11383.84172
11306.36429
11207.79566
11079.65765
10910.18843
10683.26252
10376.83355
9960.791504
9393.87629
8618.772464
7552.842947
6065.945351
3909.979386
)
;
    }
    wall_middle
    {
        type            calculated;
        value           nonuniform List<scalar> 
65
(
297736.7598
182539.4818
143214.7292
123559.4207
111261.5113
102568.4342
95973.97427
90739.23594
86449.68491
82851.6625
79779.76112
77120.71634
74794.24837
72741.74714
70919.31448
69293.33132
67837.45591
66531.19951
65358.20871
64305.23029
63361.42813
62517.88867
61767.22545
61103.2737
60520.89564
60015.65906
59583.89459
59222.49754
58928.76708
58700.40091
58535.42058
58432.11465
58389.01304
58404.85064
58478.53067
58609.09318
58795.69709
59037.62293
59334.2497
59685.03958
60089.562
60547.38951
61058.20632
61621.74981
62237.83522
62906.41986
63627.63422
64401.88614
65230.04306
66113.68131
67055.61788
68060.27706
69135.31234
70291.98797
71550.23695
72937.86835
74506.06273
76324.7642
78524.40248
81300.44123
84984.88781
90275.55973
98072.98701
111407.892
160688.3356
)
;
    }
    wall_bottom
    {
        type            calculated;
        value           nonuniform List<scalar> 
65
(
156206.7888
131678.6735
122635.7708
117639.5713
114409.9611
112063.9359
110244.4023
108765.0747
107517.8137
106438.8354
105484.6881
104626.5767
103843.2987
103119.4641
102443.2518
101805.6069
101199.403
100619.0305
100060.0209
99518.80706
98992.5254
98478.87301
97975.99336
97482.3886
96996.85054
96518.40613
96046.27224
95579.81897
95118.54053
94662.03316
94209.97759
93762.12303
93318.27378
92878.27835
92442.02095
92009.41451
91580.39533
91154.91838
90732.95327
90314.48099
89899.49137
89487.98067
89079.94737
88675.39651
88274.34256
87876.80443
87482.8017
87092.35422
86705.4828
86322.20987
85942.56002
85566.56096
85194.24534
84825.65319
84460.83497
84099.85458
83742.79436
83389.76325
83040.90577
82696.41277
82356.49899
82021.33128
81690.81241
81366.29883
81073.4979
)
;
    }
    inlet
    {
        type            calculated;
        value           nonuniform List<scalar> 
50
(
-21.89813989
-22.49963401
-23.81950046
-25.85111104
-28.64807618
-32.29820587
-36.92235485
-42.67666289
-49.75655249
-58.40218851
-68.90537633
-81.61797372
-96.96194691
-115.4412419
-137.6556751
-164.3170758
-196.2679399
-234.5028192
-280.1927558
-334.7133858
-399.6766891
-476.9668901
-568.7810018
-677.6742956
-806.6108781
-959.0199383
-1138.858175
-1350.67941
-1599.710825
-1891.934677
-2234.177233
-2634.211498
-3100.866519
-3644.143849
-4275.351184
-5007.235985
-5854.115485
-6832.038264
-7958.964858
-9254.958782
-10742.37358
-12446.06301
-14393.53267
-16615.20675
-19144.73236
-22019.23726
-25279.43583
-28970.00133
-33139.8825
-37842.55997
)
;
    }
    outlet
    {
        type            calculated;
        value           uniform 0;
    }
}


// ************************************************************************* //
