/*--------------------------------*- C++ -*----------------------------------*\
  =========                 |
  \\      /  F ield         | OpenFOAM: The Open Source CFD Toolbox
   \\    /   O peration     | Website:  https://openfoam.org
    \\  /    A nd           | Version:  7
     \\/     M anipulation  |
\*---------------------------------------------------------------------------*/
FoamFile
{
    version     2.0;
    format      ascii;
    class       volScalarField;
    location    "0.0003";
    object      rho;
}
// * * * * * * * * * * * * * * * * * * * * * * * * * * * * * * * * * * * * * //

dimensions      [1 -3 0 0 0 0 0];

internalField   nonuniform List<scalar> 
1166
(
1024.470538
1024.470416
1024.470148
1024.469735
1024.469168
1024.468427
1024.467488
1024.46632
1024.464883
1024.463128
1024.460997
1024.458416
1024.455302
1024.451551
1024.447043
1024.441632
1024.435147
1024.427387
1024.418114
1024.407049
1024.393865
1024.37818
1024.359548
1024.337452
1024.311289
1024.280365
1024.243878
1024.200905
1024.150388
1024.091359
1024.022522
1023.942074
1023.848244
1023.739247
1023.613391
1023.467499
1023.299605
1023.106283
1022.884879
1022.631304
1022.341951
1022.012894
1021.63942
1021.216892
1020.739808
1020.202412
1019.599157
1018.923421
1018.168309
1017.326899
1024.416848
1024.415478
1024.41249
1024.407932
1024.401735
1024.393775
1024.383878
1024.371822
1024.357341
1024.340116
1024.319777
1024.2959
1024.268002
1024.235539
1024.197897
1024.154395
1024.10441
1024.047312
1023.981915
1023.907222
1023.822152
1023.725858
1023.617297
1023.494686
1023.357022
1023.203125
1023.030997
1022.839984
1022.627876
1022.393484
1022.135559
1021.852252
1021.542275
1021.204361
1020.837292
1020.439933
1020.011251
1019.550386
1019.057274
1018.531008
1017.972062
1017.380374
1016.756914
1016.102894
1015.419785
1014.709797
1013.975712
1013.221088
1012.450093
1011.667505
1024.256991
1024.252674
1024.243288
1024.229074
1024.209935
1024.185641
1024.155854
1024.120146
1024.078338
1024.02954
1023.973074
1023.908188
1023.834054
1023.749907
1023.655276
1023.548605
1023.428817
1023.295684
1023.14738
1022.983142
1022.801964
1022.602694
1022.384188
1022.145953
1021.886495
1021.605082
1021.301071
1020.97389
1020.622746
1020.247183
1019.847075
1019.422176
1018.972346
1018.497648
1017.99893
1017.476125
1016.930383
1016.362165
1015.772979
1015.163846
1014.536181
1013.891635
1013.231998
1012.559185
1011.875228
1011.18216
1010.48209
1009.77716
1009.069422
1008.360833
1023.933722
1023.924864
1023.905672
1023.876775
1023.838179
1023.789673
1023.73117
1023.662167
1023.58188
1023.489619
1023.384832
1023.267164
1023.135151
1022.988391
1022.826094
1022.647152
1022.451167
1022.237121
1022.004104
1021.75218
1021.480113
1021.18749
1020.873955
1020.539229
1020.183096
1019.805443
1019.406265
1018.985643
1018.543769
1018.081206
1017.598484
1017.09586
1016.574655
1016.035101
1015.478808
1014.906328
1014.319005
1013.71831
1013.105295
1012.481405
1011.848108
1011.206996
1010.559503
1009.907069
1009.251218
1008.593427
1007.935145
1007.277761
1006.622622
1005.970993
1023.416859
1023.402625
1023.371939
1023.325953
1023.264923
1023.18883
1023.097467
1022.990992
1022.868851
1022.730227
1022.575445
1022.403246
1022.21374
1022.005788
1021.779834
1021.534689
1021.270124
1020.986195
1020.682498
1020.358793
1020.015045
1019.651307
1019.267696
1018.864403
1018.441906
1018.000602
1017.540789
1017.063085
1016.568542
1016.057406
1015.531049
1014.989855
1014.435414
1013.86829
1013.289755
1012.701119
1012.103332
1011.497626
1010.885424
1010.267875
1009.646168
1009.021543
1008.395222
1007.768566
1007.142741
1006.518783
1005.897778
1005.280765
1004.668674
1004.061806
1022.710338
1022.690746
1022.648571
1022.585594
1022.502428
1022.399365
1022.277016
1022.135278
1021.973852
1021.793373
1021.593029
1021.373242
1021.133768
1020.874348
1020.595096
1020.296326
1019.977777
1019.639636
1019.282121
1018.905499
1018.510105
1018.096505
1017.665174
1017.216494
1016.751065
1016.269981
1015.773583
1015.262875
1014.738734
1014.202045
1013.653761
1013.095028
1012.526614
1011.949907
1011.365826
1010.775356
1010.179753
1009.580226
1008.977682
1008.373207
1007.768031
1007.163289
1006.55982
1005.9586
1005.360669
1004.767086
1004.177738
1003.592413
1003.011289
1002.434907
1021.841495
1021.817154
1021.764742
1021.686692
1021.584395
1021.458515
1021.309255
1021.137884
1020.943902
1020.728626
1020.491616
1020.233314
1019.9545
1019.655128
1019.335585
1018.996292
1018.6377
1018.260294
1017.864582
1017.451111
1017.020742
1016.573985
1016.111439
1015.634023
1015.14264
1014.637819
1014.120979
1013.59248
1013.053825
1012.505539
1011.948931
1011.384938
1010.814417
1010.238776
1009.658815
1009.075514
1008.490174
1007.903727
1007.317045
1006.731217
1006.147439
1005.566311
1004.988687
1004.41553
1003.8463
1003.28093
1002.720023
1002.02704
1000.80884
999.6213432
1020.84774
1020.819632
1020.759179
1020.669336
1020.551668
1020.407555
1020.237351
1020.042784
1019.82384
1019.581646
1019.316958
1019.030207
1018.722128
1018.393427
1018.044803
1017.676944
1017.290549
1016.886349
1016.465078
1016.027526
1015.574813
1015.10744
1014.626303
1014.132677
1013.627031
1013.110765
1012.584438
1012.04949
1011.506466
1010.956846
1010.401292
1009.840948
1009.277012
1008.710205
1008.141787
1007.57273
1007.003805
1006.436262
1005.870924
1005.308463
1004.750071
1004.195687
1003.645147
1003.098848
1002.556953
1001.70807
1000.536285
999.3959488
998.2994203
997.2516519
1019.767851
1019.736881
1019.670329
1019.571568
1019.442717
1019.284928
1019.099538
1018.887733
1018.650774
1018.389413
1018.104741
1017.797835
1017.469627
1017.120951
1016.752745
1016.365999
1015.96168
1015.540634
1015.103777
1014.652026
1014.18672
1013.708489
1013.218372
1012.717621
1012.206876
1011.687655
1011.160466
1010.626825
1010.087338
1009.543345
1008.995743
1008.445424
1007.89376
1007.34129
1006.789301
1006.238606
1005.68989
1005.144549
1004.602641
1004.064658
1003.53035
1002.999906
1002.474057
1001.558841
1000.423068
999.3177465
998.25538
997.238971
996.2684143
995.3430393
1018.63508
1018.602065
1018.531164
1018.426328
1018.289548
1018.12218
1017.926353
1017.702931
1017.453438
1017.179391
1016.881748
1016.561749
1016.220568
1015.859347
1015.479206
1015.081232
1014.666489
1014.236269
1013.791542
1013.333259
1012.862622
1012.380832
1011.888657
1011.387586
1010.878268
1010.362096
1009.83984
1009.31286
1008.781804
1008.248158
1007.712388
1007.175978
1006.639459
1006.103969
1005.570338
1005.039248
1004.511575
1003.986963
1003.465828
1002.947991
1002.43447
1001.497357
1000.387187
999.3059415
998.265649
997.2690771
996.3161536
995.4060466
994.5315618
993.6854152
1017.475952
1017.441579
1017.368072
1017.259254
1017.11714
1016.944018
1016.741113
1016.510602
1016.253557
1015.971531
1015.665986
1015.338324
1014.989868
1014.621901
1014.23569
1013.832443
1013.413343
1012.979561
1012.532343
1012.073023
1011.602449
1011.121913
1010.632602
1010.135319
1009.631655
1009.122108
1008.608277
1008.090645
1007.570768
1007.049007
1006.526982
1006.004896
1005.484251
1004.965275
1004.448974
1003.934963
1003.423586
1002.914872
1002.409664
1001.45939
1000.364519
999.2966476
998.2675773
997.2799679
996.3339592
995.4285728
994.5575242
993.7133858
992.8884183
992.0748402
1016.310767
1016.275717
1016.200508
1016.089186
1015.944285
1015.767616
1015.561128
1015.32636
1015.06534
1014.779409
1014.470115
1014.138978
1013.78744
1013.416898
1013.028703
1012.624163
1012.204595
1011.771458
1011.32574
1010.868606
1010.401506
1009.925433
1009.44141
1008.950942
1008.454598
1007.953891
1007.44947
1006.942606
1006.43404
1005.924841
1005.415752
1004.907672
1004.401013
1003.895839
1003.392249
1002.890512
1002.391341
1001.430397
1000.345226
999.2850828
998.2618083
997.2779709
996.3339903
995.4290675
994.5571063
993.7107746
992.8823546
992.0640205
991.2495982
990.4349745
1015.153628
1015.118169
1015.042101
1014.929784
1014.783567
1014.605326
1014.397307
1014.161137
1013.898524
1013.611257
1013.301064
1012.969363
1012.617684
1012.24751
1011.860275
1011.457485
1011.040342
1010.610122
1010.168052
1009.715649
1009.253914
1008.783876
1008.307073
1007.824226
1007.336519
1006.84511
1006.350657
1005.854625
1005.357297
1004.860122
1004.363037
1003.866508
1003.370471
1002.875407
1002.381965
1001.420454
1000.344177
999.2909764
998.2726176
997.2920421
996.3498634
995.4452845
994.5729747
993.7254795
992.8951796
992.0742684
991.2565506
990.4378884
989.6162548
988.7916498
1014.014081
1013.978512
1013.902387
1013.789958
1013.643425
1013.465245
1013.257021
1013.021128
1012.758998
1012.472449
1012.163205
1011.832905
1011.483124
1011.115376
1010.731108
1010.331714
1009.918552
1009.492935
1009.056297
1008.609849
1008.154628
1007.691929
1007.223011
1006.748626
1006.270194
1005.788479
1005.304398
1004.819136
1004.33274
1003.845885
1003.35842
1002.870997
1002.384273
1001.438474
1000.373064
999.3286345
998.3165013
997.3407664
996.4020372
995.4990517
994.6285825
993.7825318
992.9535091
992.1337924
991.317169
990.4994571
989.6785624
988.8544211
988.0293118
987.2068541
1012.898492
1012.863149
1012.787359
1012.6753
1012.529409
1012.352092
1012.145054
1011.910369
1011.649982
1011.365498
1011.058677
1010.73119
1010.384645
1010.020588
1009.640508
1009.24582
1008.83789
1008.418053
1007.987887
1007.548341
1007.100587
1006.646022
1006.185718
1005.720501
1005.251782
1004.78025
1004.306365
1003.830824
1003.353542
1002.875284
1002.396756
1001.482076
1000.430291
999.3970468
998.3928103
997.4235965
996.4898066
995.5900659
994.7219172
993.8789409
993.0530457
992.2366091
991.4233511
990.6089712
989.7911961
988.9697796
988.1465103
987.3249245
986.508851
985.7008159
1011.810935
1011.775849
1011.700619
1011.589405
1011.444813
1011.268936
1011.063813
1010.831225
1010.573433
1010.291919
1009.98846
1009.664764
1009.322456
1008.96309
1008.58817
1008.199137
1007.797371
1007.38423
1006.961265
1006.529457
1006.089967
1005.644096
1005.193099
1004.737627
1004.278498
1003.816251
1003.351068
1002.883764
1002.415119
1001.542256
1000.507102
999.4876936
998.493276
997.5323266
996.6049079
995.710142
994.8450045
994.0052274
993.1836483
992.371757
991.5631718
990.7534215
989.9399815
989.1223415
988.3019755
987.4819077
986.6659965
985.8574517
985.0572172
984.265473
1010.753586
1010.718867
1010.644429
1010.534403
1010.391453
1010.21754
1010.014828
1009.785049
1009.530453
1009.25259
1008.953205
1008.634022
1008.29668
1007.942753
1007.573753
1007.191126
1006.796268
1006.39051
1005.975336
1005.551931
1005.121347
1004.684617
1004.242773
1003.796145
1003.345232
1002.89091
1002.434032
1001.607828
1000.592665
999.5902038
998.6092131
997.6577007
996.7384867
995.8502423
994.9904104
994.1547144
993.3372385
992.5308566
991.7282595
990.9244429
990.1165913
989.3038848
988.4874321
987.6700176
986.8553038
986.0465735
985.2453966
984.4522993
983.6673011
982.8906839
1009.727798
1009.693532
1009.620072
1009.511505
1009.370443
1009.198916
1008.998991
1008.772466
1008.521614
1008.247897
1007.953122
1007.63901
1007.307208
1006.959304
1006.596815
1006.221188
1005.833812
1005.436025
1005.029092
1004.614309
1004.192451
1003.764063
1003.329869
1002.890839
1002.44786
1001.666526
1000.675497
999.6937515
998.729874
997.7905617
996.8817585
996.0021511
995.1494572
994.3200115
993.5084748
992.7081055
991.9122154
991.1156338
990.3148694
989.5085027
988.6972524
987.8836291
987.0711422
986.2632522
985.4620035
984.6680502
983.8815619
983.1028325
982.3322774
981.5703109
1008.734323
1008.700581
1008.628245
1008.521349
1008.382328
1008.213525
1008.016658
1007.793872
1007.547064
1007.277872
1006.988103
1006.679484
1006.353661
1006.012212
1005.65666
1005.288455
1004.908948
1004.519303
1004.120454
1003.713239
1003.298508
1002.877375
1002.450697
1001.705803
1000.74375
999.7871877
998.8444959
997.9225891
997.0257795
996.1575312
995.3143545
994.4932539
993.6895439
992.8970974
992.1094355
991.3212723
990.5289789
989.7307105
988.9264244
988.1180281
987.3089825
986.5029945
985.7026201
984.9087723
984.1217085
983.3416985
982.5691712
981.8045397
981.0483083
980.3010511
1007.773545
1007.74025
1007.669144
1007.564102
1007.427357
1007.261423
1007.067859
1006.849107
1006.606593
1006.342194
1006.057863
1005.755197
1005.43575
1005.101089
1004.752663
1004.391733
1004.019373
1003.636591
1003.244517
1002.844073
1002.436386
1001.712606
1000.785254
999.859035
998.9423773
998.0422936
997.1635245
996.3082716
995.4770981
994.6669615
993.8734003
993.0909853
992.313517
991.5356379
990.7535157
989.9649536
989.1695126
988.3685544
987.5649283
986.7622847
985.9638069
985.1710882
984.3844136
983.604004
982.8303018
982.0637795
981.3049237
980.5543351
979.8126611
979.0804965
1006.845451
1006.81278
1006.742748
1006.639564
1006.50545
1006.342298
1006.152556
1005.93771
1005.699705
1005.440635
1005.161901
1004.865182
1004.552026
1004.223802
1003.88174
1003.527017
1003.160787
1002.784215
1002.398533
1001.673443
1000.787097
999.8973075
999.012392
998.1394177
997.28349
996.4473501
995.6313992
994.8343045
994.0530115
993.2831255
992.518202
991.7528119
990.9829635
990.2061311
989.4214837
988.6298822
987.8338203
987.0367312
986.2419946
985.4516469
984.666441
983.8866731
983.112756
982.3452159
981.5845458
980.831386
980.0863517
979.3501396
978.6232578
977.9059786
1005.949464
1005.917456
1005.848849
1005.747484
1005.615854
1005.45601
1005.269763
1005.059139
1004.825996
1004.571822
1004.298299
1004.007036
1003.699333
1003.376496
1003.039844
1002.690682
1002.330358
1001.574004
1000.735781
999.8893661
999.0427691
998.2030838
997.3756904
996.5638311
995.7686024
994.9893613
994.2238619
993.4683098
992.7175701
991.9664723
991.2109072
990.4480516
989.6765735
988.8966623
988.1102799
987.3207196
986.53156
985.7454257
984.9633795
984.1858332
983.4131748
982.6459497
981.8846972
981.1300208
980.3826058
979.643192
978.9124127
978.1906687
977.4782022
976.7751699
1005.085146
1005.053681
1004.986292
1004.887103
1004.758008
1004.601125
1004.418499
1004.211754
1003.982547
1003.732787
1003.463744
1003.176949
1002.873869
1002.555945
1002.16128
1001.399293
1000.616926
999.8214032
999.0204449
998.2209946
997.4285849
996.6468881
995.877652
995.1209394
994.375334
993.6379082
992.9044098
992.1701589
991.4311403
990.6844335
989.9284034
989.1628437
988.3891148
987.6099083
986.8286928
986.0486233
985.2713572
984.4975621
983.7277055
982.9622379
982.2017725
981.4468912
980.6983098
979.9567825
979.2230576
978.4976826
977.78099
977.073206
976.3745173
975.6851293
985.5862074
984.8181803
984.0528768
983.290825
982.5326768
981.7790533
981.0306681
980.2882946
979.552764
978.8247719
978.104774
977.3930803
976.6899168
975.9955302
975.31015
974.6339229
)
;

boundaryField
{
    front_top
    {
        type            wedge;
    }
    front_middle
    {
        type            wedge;
    }
    front_bottom
    {
        type            wedge;
    }
    back_top
    {
        type            wedge;
    }
    back_middle
    {
        type            wedge;
    }
    back_bottom
    {
        type            wedge;
    }
    axis_top
    {
        type            symmetryPlane;
    }
    axis_middle
    {
        type            symmetryPlane;
    }
    axis_bottom
    {
        type            symmetryPlane;
    }
    wall_top
    {
        type            calculated;
        value           nonuniform List<scalar> 
24
(
1016.854202
1011.269441
1008.003583
1005.644357
1003.758035
1001.988656
999.0417735
996.7461953
994.8926703
993.2677865
991.6675021
990.0234824
988.3757787
986.7950717
985.2976894
983.8705305
982.5035729
981.1908961
979.9292116
978.7163036
977.5494405
976.4256155
975.3424705
974.2977411
)
;
    }
    wall_middle
    {
        type            calculated;
        value           nonuniform 0();
    }
    wall_bottom
    {
        type            calculated;
        value           nonuniform 0();
    }
    inlet
    {
        type            calculated;
        value           uniform 1024.474982;
    }
    outlet
    {
        type            calculated;
        value           nonuniform 0();
    }
    procBoundary11to10
    {
        type            processor;
        value           nonuniform List<scalar> 
51
(
1004.250766
1004.219925
1004.15382
1004.056158
1003.929197
1003.774981
1003.595109
1003.391561
1003.165868
1002.919599
1002.654464
1002.37203
1001.826108
1001.132886
1000.414743
999.6785291
998.9314018
998.1800322
997.4299636
996.6852063
995.9480895
995.2193836
994.4985091
993.7834444
993.0708901
992.356776
991.6372982
990.9095301
990.171604
989.4229621
988.6644564
987.8983837
987.1279449
986.3564629
986.3564629
984.3835626
983.6270154
982.8731273
982.1226048
981.3761423
980.6345496
979.898675
979.1693423
978.4471712
977.7325752
977.0258606
976.3272969
975.6371641
974.9556953
974.2830721
973.619529
)
;
    }
}


// ************************************************************************* //
