/*--------------------------------*- C++ -*----------------------------------*\
  =========                 |
  \\      /  F ield         | OpenFOAM: The Open Source CFD Toolbox
   \\    /   O peration     | Website:  https://openfoam.org
    \\  /    A nd           | Version:  7
     \\/     M anipulation  |
\*---------------------------------------------------------------------------*/
FoamFile
{
    version     2.0;
    format      ascii;
    class       volScalarField;
    location    "0.0003";
    object      T;
}
// * * * * * * * * * * * * * * * * * * * * * * * * * * * * * * * * * * * * * //

dimensions      [0 0 0 1 0 0 0];

internalField   nonuniform List<scalar> 
1166
(
298.1625368
298.1628812
298.1636368
298.1647999
298.1664012
298.1684909
298.1711383
298.1744327
298.1784859
298.1834356
298.1894488
298.1967268
298.2055113
298.2160908
298.2288087
298.2440725
298.2623646
298.2842543
298.3104121
298.3416255
298.3788174
298.4230665
298.4756306
298.5379727
298.6117897
298.6990448
298.8020033
298.9232723
299.0658443
299.2324579
299.4267766
299.6539083
299.9188659
300.2267148
300.5822593
300.9945132
301.4690897
302.0157321
302.6420317
303.3596719
304.1790019
305.1113199
306.1702121
307.3691199
308.7240203
310.2517224
311.9685665
313.8941044
316.0488484
318.4536157
298.3139847
298.317847
298.3262778
298.3391365
298.3566173
298.3790731
298.406994
298.4410033
298.4818585
298.5304566
298.5878407
298.6552096
298.7339274
298.8255349
298.9317611
299.0545355
299.1956194
299.3567936
299.5414209
299.7523187
299.9925537
300.2645334
300.5712218
300.9176818
301.306774
301.7418708
302.2286687
302.7690647
303.3693752
304.033047
304.763703
305.5666854
306.4457698
307.4046901
308.4470657
309.5763027
310.7955404
312.1074554
313.5124821
315.0134716
316.6093712
318.3006647
320.084908
321.958961
323.9189443
325.9588476
328.0709854
330.2454117
332.470356
334.7322258
298.7650003
298.7771821
298.8036667
298.8437791
298.8977894
298.9663505
299.0504167
299.1512011
299.2692128
299.4069666
299.5663812
299.7495913
299.9589408
300.1966021
300.4639219
300.7653135
301.10384
301.4801744
301.8995071
302.3640366
302.8766502
303.4406625
304.0593748
304.7342503
305.4696067
306.2676086
307.1301864
308.0590796
309.0566659
310.1243863
311.2627556
312.4726352
313.7546025
315.1086726
316.5326192
318.0268348
319.5882465
321.2157482
322.905227
324.653967
326.4581042
328.3130917
330.2139515
332.1553334
334.1315148
336.1367486
338.1650346
340.2102422
342.2664718
344.3280683
299.6774919
299.7025021
299.7566953
299.8382947
299.9472905
300.0842854
300.2495274
300.4444558
300.6712924
300.9319997
301.2281641
301.560804
301.9340902
302.3491868
302.8083689
303.3148097
303.8696932
304.4759511
305.1362334
305.8504281
306.622123
307.4525845
308.3429212
309.2940365
310.3066651
311.3812558
312.5179588
313.7166928
314.9770563
316.2976067
317.6769868
319.1146289
320.606917
322.1533541
323.7494919
325.3938959
327.0828684
328.8123188
330.5793504
332.3799316
334.2099296
336.0648435
337.9406127
339.8331235
341.7380162
343.6510299
345.5679707
347.4847981
349.3975712
351.3025684
301.1376399
301.1778706
301.2646084
301.3946035
301.5671405
301.7822949
302.0406645
302.3418302
302.6873838
303.0796706
303.5178047
304.0053997
304.5421894
305.1314586
305.7720137
306.4672899
307.2180219
308.0241326
308.8868633
309.8069996
310.784747
311.820069
312.9127591
314.062398
315.2677593
316.5278426
317.8419385
319.2084214
320.6244277
322.0893922
323.5995246
325.1538573
326.7479547
328.3803221
330.0474139
331.7455703
333.4721497
335.2236801
336.9961271
338.7862321
340.5906028
342.4056818
344.2279481
346.0534538
347.8788071
349.700974
351.5167594
353.3230987
355.1172168
356.898186
303.1359614
303.1914147
303.3107952
303.4890728
303.7245384
304.0163914
304.3629349
304.7644988
305.2219779
305.7336247
306.3017978
306.9253671
307.6050968
308.3418043
309.1352479
309.9846294
310.8907908
311.8533026
312.871656
313.9452061
315.0731232
316.2539096
317.4863421
318.7694521
320.1016567
321.479955
322.9034953
324.3695256
325.8756492
327.4194458
328.9982807
330.6089644
332.2493811
333.9156114
335.6050867
337.3150237
339.041853
340.7821165
342.5332212
344.2920398
346.055013
347.8188366
349.5810619
351.3388212
353.0890498
354.8286114
356.557796
358.2771882
359.9862246
361.6832717
305.5971833
305.666197
305.8148077
306.0361419
306.3262888
306.6834027
307.1069599
307.5934118
308.1442472
308.7557915
309.4293784
310.163831
310.9570255
311.8091909
312.7193231
313.686332
314.7090457
315.7861949
316.9164477
318.0983669
319.3296084
320.6088371
321.9344599
323.3039656
324.7148838
326.1658073
327.6527748
329.174852
330.7278135
332.3102366
333.918433
335.5497738
337.2018468
338.8706371
340.553875
342.2487599
343.9515424
345.659526
347.3701835
349.0803401
350.7864951
352.4868703
354.1789432
355.8598541
357.53115
359.1929874
360.8435568
362.4808722
364.0989757
365.6800932
308.4173878
308.4972363
308.6689828
308.9242668
309.2586801
309.6683564
310.1523499
310.7058214
311.3288898
312.0184317
312.7723939
313.5896417
314.4681908
315.4061306
316.4015811
317.4526967
318.5575944
319.7143063
320.9208481
322.175078
323.4739054
324.8160066
326.1989235
327.6191009
329.0752959
330.5635748
332.0824179
333.6277604
335.1981021
336.789236
338.3993098
340.0250573
341.6630518
343.3112292
344.9659536
346.6244074
348.2843503
349.9421309
351.5953307
353.2419632
354.8785051
356.5051013
358.1222004
359.7285932
361.3237672
362.9041714
364.4615429
365.9806236
367.4446195
368.8465229
311.4882646
311.5764302
311.7659075
312.0471337
312.414122
312.8636574
313.3920041
313.9958683
314.6717449
315.4175874
316.23039
317.1071818
318.0454185
319.0428265
320.0968475
321.204759
322.3639179
323.5720104
324.826531
326.1249563
327.4635505
328.8406095
330.2532443
331.6979362
333.1729367
334.6739428
336.1995592
337.745468
339.3099749
340.8892385
342.4807029
344.0818009
345.6885686
347.2994502
348.9106919
350.5199176
352.1251153
353.7221738
355.3108992
356.8898118
358.4596146
360.0197214
361.5679417
363.1023026
364.6122086
366.0849264
367.5034856
368.8635077
370.1647666
371.4078119
314.7165202
314.8107155
315.0130263
315.3122215
315.7026723
316.1805826
316.7399565
317.3784183
318.0917117
318.8756072
319.7274771
320.64389
321.6215955
322.6574475
323.7483474
324.891303
326.0833675
327.3209494
328.6013679
329.921989
331.2794543
332.6703977
334.0926893
335.5421082
337.0168576
338.5129716
340.0282734
341.5588741
343.1029288
344.6561529
346.2172158
347.7818054
349.3483814
350.9136185
352.4750822
354.0307551
355.5780485
357.1179779
358.6492961
360.1724976
361.6845589
363.1839526
364.6599644
366.1006728
367.4897591
368.8231839
370.1007014
371.3231015
372.4997637
373.6402668
318.0273298
318.1256258
318.3358512
318.6471213
319.053733
319.5492178
320.1301566
320.7904158
321.5270311
322.335666
323.2122399
324.1528492
325.1538193
326.2115819
327.3226182
328.4835618
329.6911268
330.942048
332.2328372
333.5597431
334.9204099
336.3111912
337.7287241
339.1707633
340.6327515
342.1133011
343.6078156
345.1149248
346.6301287
348.1523969
349.6770151
351.2033933
352.7271352
354.247568
355.7617195
357.2707054
358.7734883
360.2699706
361.7576398
363.2343768
364.6901363
366.11307
367.4871817
368.8085974
370.0768083
371.2928188
372.4648002
373.6025348
374.7162999
375.8165027
321.3630547
321.4635154
321.6791018
321.9982657
322.4138105
322.9206158
323.5131865
324.1872066
324.9369606
325.7587148
326.6481329
327.6009664
328.6131836
329.6808805
330.8002801
331.9677281
333.1795291
334.4315754
335.7211075
337.0448493
338.3986884
339.7798225
341.1853566
342.6109819
344.0550973
345.5133474
346.9838816
348.4630204
349.9486257
351.4375824
352.9277271
354.4164208
355.9024533
357.3856226
358.8656305
360.3416681
361.8116245
363.2728856
364.7158173
366.1284968
367.494893
368.8112721
370.0767666
371.2921537
372.465363
373.6060573
374.7244932
375.8311464
376.9343235
378.0395886
324.6833192
324.785186
325.0037335
325.3264854
325.7467624
326.2592491
326.8575829
327.5371868
328.2932532
329.1207484
330.014809
330.9714698
331.9864324
333.0555369
334.1747487
335.3398319
336.5474064
337.7938845
339.0757987
340.3888398
341.7301811
343.0969025
344.4845966
345.8912195
347.3133683
348.7477056
350.1923437
351.6430215
353.0989257
354.5558218
356.0138989
357.4717854
358.929666
360.3861261
361.8392468
363.2860928
364.7172138
366.1206351
367.4804446
368.7924266
370.0554676
371.2703536
372.4439941
373.5862212
374.7071643
375.8172766
376.9248985
378.0356317
379.1522443
380.2747607
327.9605135
328.0629245
328.2821291
328.6059294
329.0280617
329.5415282
330.1417984
330.8221347
331.5785096
332.405796
333.2991271
334.2538879
335.2656405
336.3301198
337.4432437
338.6010818
339.7997947
341.0356707
342.3046329
343.603241
344.9285504
346.2768604
347.6445557
349.0294931
350.427567
351.8365784
353.2538716
354.6759903
356.1028136
357.5323693
358.9651052
360.3991072
361.8324486
363.2621572
364.6787627
366.0704038
367.4217899
368.7271741
369.9854635
371.1980805
372.3691158
373.509267
374.6283556
375.736721
376.8427266
377.9520337
379.0675025
380.1892458
381.3141814
382.4373733
331.1759516
331.2779357
331.4966543
331.8201022
332.2413113
332.7534116
333.3515791
334.0299163
334.7829117
335.6060353
336.4943095
337.4430059
338.4475821
339.5036661
340.6070429
341.7537046
342.9397814
344.1614823
345.4142952
346.6955294
348.0018399
349.3292101
350.6745601
352.035522
353.4080016
354.7900124
356.1802225
357.5766157
358.9794489
360.3864912
361.795669
363.2042471
364.6025951
365.9791596
367.3198079
368.6162611
369.8677155
371.0757582
372.2434555
373.3792467
374.4938937
375.5975991
376.6988145
377.8033609
378.9143413
380.0321183
381.1542813
382.2760151
383.3920725
384.4989574
334.3174183
334.4188778
334.6364497
334.9581456
335.3764996
335.8855324
336.4794363
337.1531491
337.9002315
338.7164963
339.5969025
340.5366031
341.5309883
342.5756554
343.6663296
344.7989168
345.9694927
347.1741828
348.4085449
349.6697818
350.9545716
352.2591603
353.5799237
354.9149993
356.2620173
357.6194268
358.9867223
360.3615312
361.7415697
363.1243267
364.5003761
365.8582797
367.1855658
368.4706949
369.7133317
370.9144113
372.077774
373.2089711
374.3175063
375.4147733
376.5093579
377.6073102
378.712074
379.8243731
380.9422304
382.0615376
383.1770179
384.2842488
385.381889
386.4696402
337.3781081
337.4787177
337.6944486
338.0133747
338.4278395
338.9322386
339.5203821
340.1873408
340.9266896
341.7340296
342.6044021
343.5329005
344.5148594
345.5458032
346.6214258
347.7376015
348.8903456
350.0758546
351.2898623
352.5289738
353.7901622
355.0704602
356.3668807
357.678498
359.0038867
360.3404965
361.6858515
363.0372568
364.3865283
365.721606
367.0306844
368.3028853
369.5342088
370.7262068
371.8821034
373.0074694
374.1101319
375.1996097
376.2857333
377.3752705
378.4720594
379.5772471
380.6893591
381.804623
382.9180406
384.0251006
385.1236129
386.2128081
387.29261
388.3625808
340.3535653
340.4530622
340.6663921
340.9817296
341.3915491
341.8900328
342.4712579
343.1300946
343.8600329
344.656915
345.5155914
346.4311477
347.3988836
348.4142711
349.4729695
350.5708487
351.7039239
352.8683575
354.0605226
355.2766756
356.5146049
357.7727589
359.049065
360.3407059
361.6451145
362.9593249
364.276333
365.5835774
366.8695307
368.1251006
369.3421415
370.5221993
371.6681419
372.784727
373.8790077
374.9599827
376.0366378
377.1159599
378.2026994
379.2988195
380.4033822
381.5129979
382.6228892
383.7283143
384.8264422
385.9163345
386.9977136
388.0701292
389.1329614
390.1855881
343.2410617
343.3392324
343.5497089
343.8608035
344.2654872
344.7570134
345.330468
345.9796916
346.6992532
347.4844757
348.3301909
349.2314578
350.1835641
351.1819937
352.2223846
353.300572
354.412682
355.5553782
356.7259817
357.9220987
359.1412925
360.3803352
361.6367581
362.9071828
364.1855457
365.4590519
366.7164784
367.9484783
369.1491253
370.3135941
371.4463822
372.5513575
373.6346985
374.7045741
375.769684
376.8371658
377.9119537
378.9965873
380.0911682
381.1931384
382.2978005
383.4000895
384.4964849
385.5857
386.6673419
387.7409981
388.8060348
389.8618365
390.9076582
391.9426541
346.0389405
346.135995
346.343289
346.6495693
347.0483817
347.5324717
348.0973679
348.7360361
349.4444041
350.2170834
351.0484671
351.9339771
352.8691638
353.8495254
354.8709061
355.9296872
357.022797
358.1473454
359.3000837
360.4783619
361.6789181
362.8981512
364.1303449
365.3633144
366.5858072
367.7883813
368.9645723
370.11128
371.2275905
372.3174428
373.3867193
374.44265
375.493554
376.5466628
377.6071832
378.6781322
379.7601535
380.8514394
381.9481394
383.0452815
384.1385018
385.2255901
386.3061207
387.3797539
388.4458427
389.5036947
390.5525942
391.591664
392.6199566
393.6365929
348.7467126
348.8421227
349.0466609
349.3480763
349.7399361
350.2167796
350.7715313
351.3999337
352.0963887
352.8548579
353.6713342
354.5409881
355.4593774
356.4225691
357.42704
358.4694133
359.5463768
360.654569
361.7904346
362.9501417
364.1278941
365.3123212
366.4923535
367.6585124
368.8038818
369.924672
371.0202149
372.0921758
373.1445544
374.1831874
375.2167216
376.252482
377.2958893
378.3504071
379.4172144
380.4951924
381.5809867
382.6699368
383.7574256
384.8406482
385.9185458
386.9906808
388.0564529
389.1151019
390.1659087
391.2079463
392.2403176
393.2620072
394.2722567
395.2706323
351.3655492
351.4591879
351.6599218
351.9565494
352.341834
352.809835
353.355328
353.9724624
354.6558776
355.4013045
356.2038974
357.0590273
357.9629608
358.9119513
359.9022023
360.9299519
361.9913059
363.0821689
364.1961447
365.3229015
366.4518107
367.573395
368.680408
369.7684239
370.8358722
371.8835152
372.9142825
373.933213
374.9471897
375.963186
376.9867788
378.0218325
379.0702082
380.1317066
381.2037092
382.2817619
383.3609917
384.4378025
385.5107189
386.5791522
387.6425427
388.70011
389.7510782
390.7945772
391.8296193
392.8551352
393.8701979
394.8741989
395.8667484
396.8475744
353.8962462
353.9884576
354.1859637
354.4767234
354.855231
355.3153481
355.8511431
356.4579374
357.1309487
357.8646586
358.6554224
359.4988325
360.3906551
361.3267373
362.302806
363.3142006
364.3542503
365.4134567
366.4816049
367.5494511
368.6095823
369.657033
370.6893919
371.7065008
372.7101945
373.7043588
374.6946933
375.6875105
376.6882591
377.7009353
378.727812
379.7692318
380.8234038
381.886708
382.9544393
384.0222925
385.0879899
386.1505998
387.20946
388.2639281
389.3131329
390.3562415
391.3922305
392.4200176
393.4385224
394.4469378
395.4447525
396.4316008
397.407171
398.3711243
384.6561007
385.7101095
386.762017
387.8110822
388.8563883
389.8970558
390.9320722
391.9603356
392.9806582
393.9920332
394.993783
395.9854295
396.9666096
397.9369299
398.8960198
399.8436233
)
;

boundaryField
{
    front_top
    {
        type            wedge;
    }
    front_middle
    {
        type            wedge;
    }
    front_bottom
    {
        type            wedge;
    }
    back_top
    {
        type            wedge;
    }
    back_middle
    {
        type            wedge;
    }
    back_bottom
    {
        type            wedge;
    }
    axis_top
    {
        type            symmetryPlane;
    }
    axis_middle
    {
        type            symmetryPlane;
    }
    axis_bottom
    {
        type            symmetryPlane;
    }
    wall_top
    {
        type            convectiveRadiativeHeatFlux;
        mode            convectiveRadiative;
        kappaMethod     fluidThermo;
        kappa           none;
        alphaAni        Anialpha;
        h               uniform 165;
        Ta              constant 513.15;
        emissivityNozzle 0.95;
        emissivityFilament 0.95;
        dNozzle         2;
        dFilament       1.65;
        refValue        uniform 513.15;
        refGradient     nonuniform List<scalar> 
24
(
17315.74721
15934.54205
15070.88378
14366.25658
13814.76469
13400.79912
12569.08311
11484.31087
10698.8123
10291.91997
10258.43237
10427.96117
10590.01805
10590.01924
10492.28067
10397.65595
10301.85659
10198.57786
10082.86673
9956.56353
9832.411505
9711.152059
9593.052258
9477.052852
)
;
        valueFraction   nonuniform List<scalar> 
24
(
0.004685715127
0.004485570045
0.004358450091
0.00424525247
0.004158990027
0.004103252459
0.003906335875
0.003613358109
0.003400985858
0.003301906263
0.003321657964
0.00340946165
0.003497351054
0.003532409416
0.003534146826
0.003535961317
0.003536552034
0.003533788265
0.003525876146
0.003513327395
0.003500565036
0.003487891009
0.003475433507
0.003462843315
)
;
        value           nonuniform List<scalar> 
24
(
319.8063422
335.8840697
345.3685608
352.2583955
357.7904693
362.531797
366.4531384
369.5238725
372.0136238
374.2038961
376.3680248
378.5985841
380.8415872
383.0004284
385.0518582
387.012893
388.896548
390.7103445
392.458262
394.1428541
395.7674401
397.3357761
398.8507621
400.3152076
)
;
    }
    wall_middle
    {
        type            fixedValue;
        value           nonuniform 0();
    }
    wall_bottom
    {
        type            fixedValue;
        value           nonuniform 0();
    }
    inlet
    {
        type            fixedValue;
        value           uniform 298.15;
    }
    outlet
    {
        type            zeroGradient;
    }
    procBoundary11to10
    {
        type            processor;
        value           nonuniform List<scalar> 
51
(
356.3434178
356.4339495
356.6280155
356.9147721
357.28764
357.7406808
358.2692643
358.8676526
359.5314292
360.2560579
361.0365978
361.8685206
362.7474946
363.66817
364.6232882
365.6038661
366.600457
367.6042113
368.6077359
369.605649
370.594794
371.5740925
372.5442786
373.5080362
374.4697909
375.4350366
376.4089381
377.3955003
378.3973136
379.4152017
380.4480731
381.4928588
382.5452344
383.6006823
383.6006823
386.307289
387.3480706
388.3867878
389.422452
390.4540848
391.4805426
392.5006217
393.5131451
394.5172134
395.5122098
396.4976637
397.4731537
398.4382425
399.3925562
400.3357918
401.2675711
)
;
    }
}


// ************************************************************************* //
