/*--------------------------------*- C++ -*----------------------------------*\
  =========                 |
  \\      /  F ield         | OpenFOAM: The Open Source CFD Toolbox
   \\    /   O peration     | Website:  https://openfoam.org
    \\  /    A nd           | Version:  7
     \\/     M anipulation  |
\*---------------------------------------------------------------------------*/
FoamFile
{
    version     2.0;
    format      ascii;
    class       volScalarField;
    location    "0.0003";
    object      thermo:alpha;
}
// * * * * * * * * * * * * * * * * * * * * * * * * * * * * * * * * * * * * * //

dimensions      [1 -1 -1 0 0 0 0];

internalField   nonuniform List<scalar> 
1166
(
0.0001263972484
0.0001263971804
0.0001263970312
0.0001263968016
0.0001263964855
0.000126396073
0.0001263955504
0.0001263949
0.0001263940999
0.0001263931228
0.0001263919357
0.000126390499
0.0001263887648
0.0001263866764
0.0001263841658
0.0001263811527
0.0001263775419
0.0001263732209
0.0001263680576
0.0001263618964
0.0001263545552
0.0001263458214
0.0001263354467
0.0001263231425
0.0001263085743
0.000126291355
0.0001262710381
0.0001262471097
0.0001262189805
0.0001261878004
0.0001261534501
0.0001261133053
0.0001260664829
0.0001260113062
0.0001259448631
0.0001258678427
0.0001257824712
0.0001256860028
0.0001255755218
0.0001254489868
0.0001253045984
0.0001251403978
0.000124964456
0.0001247658519
0.000124547464
0.0001243002484
0.0001240425404
0.0001237539448
0.0001234519948
0.0001231196223
0.0001263673523
0.00012636659
0.0001263649258
0.0001263623877
0.0001263589372
0.0001263545048
0.0001263489937
0.0001263422811
0.0001263342175
0.0001263246259
0.0001263133007
0.0001263000055
0.0001262844714
0.0001262663947
0.0001262454348
0.0001262212116
0.0001261943129
0.0001261658207
0.0001261331863
0.0001260959136
0.0001260534625
0.000126004238
0.0001259469255
0.0001258821953
0.0001258111228
0.0001257343278
0.0001256484348
0.0001255531187
0.0001254472763
0.0001253303137
0.000125201608
0.0001250644948
0.0001249187941
0.0001247599621
0.0001245904585
0.0001244108567
0.0001242159405
0.0001240224466
0.0001238090915
0.0001235922731
0.0001233721701
0.0001231400988
0.0001229108704
0.0001226693096
0.0001224354326
0.0001221947841
0.000121966607
0.0001217428455
0.0001215284165
0.0001213200663
0.0001262783398
0.0001262759359
0.0001262707098
0.0001262627948
0.0001262521377
0.0001262386102
0.0001262220242
0.0001262021657
0.0001261813027
0.0001261569518
0.0001261287747
0.0001260963955
0.0001260594017
0.0001260169344
0.0001259669758
0.0001259106608
0.0001258474212
0.0001257805147
0.0001257065105
0.000125624555
0.0001255341468
0.0001254347104
0.0001253256749
0.0001252067949
0.0001250805902
0.0001249483157
0.0001248054191
0.0001246516317
0.0001244958348
0.0001243202552
0.0001241446835
0.0001239663343
0.0001237741019
0.0001235785288
0.0001233832396
0.0001231767636
0.0001229722459
0.00012276104
0.0001225525852
0.0001223472245
0.0001221415466
0.0001219409644
0.000121746069
0.0001215574601
0.0001213753689
0.0001212008297
0.0001210248323
0.0001208685012
0.0001207126245
0.0001205761972
0.0001261091374
0.0001261047173
0.0001260951401
0.0001260807202
0.0001260614603
0.0001260372548
0.0001260070426
0.0001259706135
0.0001259282274
0.0001258795206
0.000125825
0.0001257662835
0.0001257004082
0.0001256271745
0.0001255461875
0.0001254568951
0.0001253590975
0.000125252288
0.0001251360115
0.0001250174573
0.0001248895757
0.0001247520318
0.0001246066281
0.0001244575304
0.0001242917292
0.000124127531
0.0001239593172
0.00012377958
0.0001235975306
0.0001234171379
0.0001232236169
0.000123031153
0.0001228417402
0.0001226453245
0.0001224545946
0.0001222585873
0.0001220773778
0.000121889754
0.0001217086337
0.0001215367526
0.0001213681485
0.000121206715
0.0001210431756
0.0001208954767
0.000120753355
0.0001206226998
0.0001205003003
0.0001203864657
0.0001202889112
0.0001201934142
0.0001258411079
0.0001258338788
0.0001258185663
0.000125795619
0.0001257651651
0.0001257271941
0.0001256816038
0.0001256284722
0.0001255675234
0.0001254983494
0.0001254211131
0.0001253351851
0.000125240621
0.0001251368522
0.0001250304555
0.0001249152285
0.0001247908729
0.0001246574158
0.000124522188
0.0001243727169
0.0001242176135
0.0001240640265
0.0001238982024
0.0001237296299
0.0001235567626
0.0001233839286
0.0001232015243
0.0001230191974
0.0001228393995
0.000122653216
0.000122471555
0.0001222857037
0.000122111773
0.0001219340669
0.000121763134
0.0001215952477
0.0001214360974
0.0001212755843
0.0001211219601
0.0001209740729
0.0001208413008
0.0001207040875
0.0001205823286
0.0001204706003
0.0001203663602
0.0001202734489
0.0001201846666
0.0001201109458
0.0001200475305
0.0001199928981
0.0001254884249
0.0001254786484
0.0001254576028
0.0001254261774
0.0001253846772
0.0001253332484
0.0001252721956
0.0001252014679
0.0001251216513
0.0001250368193
0.0001249426502
0.0001248393423
0.0001247267807
0.0001246068015
0.00012448364
0.0001243433546
0.0001242011772
0.0001240592177
0.0001239045644
0.0001237465614
0.000123583661
0.0001234234413
0.0001232491536
0.0001230773461
0.000122908801
0.0001227284251
0.0001225527987
0.0001223822621
0.0001222041786
0.000122040087
0.0001218706826
0.0001217056001
0.0001215487887
0.0001213952509
0.0001212443522
0.0001210943234
0.0001209531918
0.0001208276079
0.0001206962669
0.0001205784036
0.0001204705049
0.0001203694201
0.0001202795596
0.0001201919335
0.0001201204927
0.0001200563899
0.0001200033347
0.000119961954
0.0001199351619
0.000119907252
0.0001250594386
0.0001250479972
0.0001250233617
0.0001249866754
0.0001249385919
0.0001248794237
0.0001248092658
0.0001247287153
0.0001246375363
0.0001245425323
0.00012443515
0.0001243138772
0.0001241909116
0.0001240656005
0.0001239281441
0.0001237839673
0.0001236362294
0.0001234872184
0.000123327888
0.000123167185
0.0001230042157
0.0001228414835
0.0001226723328
0.0001225049862
0.0001223397217
0.0001221715775
0.0001220137686
0.0001218525766
0.0001216934262
0.000121543178
0.000121394991
0.000121248881
0.000121103579
0.0001209671776
0.000120843927
0.0001207137107
0.0001206012593
0.0001204946985
0.0001203923153
0.0001203050818
0.0001202181534
0.0001201450629
0.0001200763393
0.0001200247416
0.0001199773236
0.000119943529
0.0001199191693
0.0001198857565
0.0001201087015
0.0001215471763
0.0001245950662
0.0001245826694
0.0001245560074
0.0001245163828
0.0001244633773
0.0001243956373
0.0001243156575
0.0001242298475
0.0001241351106
0.0001240353259
0.0001239199289
0.0001237979403
0.0001236710131
0.0001235381987
0.0001234021399
0.0001232536608
0.0001231057032
0.0001229566659
0.00012279978
0.0001226426443
0.0001224857632
0.0001223272675
0.0001221681748
0.0001220175666
0.000121862785
0.0001217102497
0.0001215641835
0.0001214217629
0.000121277679
0.0001211409756
0.0001210056866
0.0001208817467
0.0001207594676
0.0001206469486
0.000120537143
0.0001204356842
0.0001203456718
0.000120261161
0.000120181458
0.0001201142552
0.0001200548582
0.0001200049506
0.0001199651464
0.0001199378789
0.000119911038
0.0001198645548
0.0001203717922
0.0001219012129
0.0001240048828
0.0001261745703
0.0001241120431
0.0001240992832
0.0001240718636
0.0001240311735
0.0001239753938
0.0001239058024
0.0001238265043
0.0001237392417
0.0001236416159
0.0001235366618
0.0001234268342
0.0001233003878
0.0001231742751
0.000123040761
0.0001229093952
0.0001227623967
0.0001226193478
0.0001224746669
0.0001223259714
0.0001221760292
0.0001220351119
0.0001218868525
0.000121742043
0.0001215996411
0.0001214636644
0.0001213254309
0.0001211951879
0.0001210591281
0.0001209329093
0.0001208199497
0.0001206994872
0.0001205919671
0.0001204929216
0.0001203959255
0.0001203137308
0.0001202317288
0.0001201598281
0.0001200946708
0.000120041586
0.0001199931549
0.000119958197
0.0001199348087
0.0001199084665
0.0001198546357
0.0001204923206
0.0001220240484
0.000124096372
0.0001262007441
0.0001280379979
0.0001292836295
0.00012363515
0.0001236215482
0.0001235923374
0.0001235507974
0.0001234984206
0.0001234340195
0.0001233533378
0.0001232636115
0.0001231680762
0.0001230631388
0.0001229550382
0.0001228367979
0.0001227109428
0.0001225831421
0.000122454724
0.0001223179947
0.0001221807247
0.0001220511982
0.0001219113911
0.0001217759875
0.000121638245
0.0001215099768
0.000121378944
0.0001212495087
0.0001211200549
0.0001209963989
0.0001208815166
0.0001207679627
0.0001206613413
0.0001205561083
0.0001204605842
0.0001203713095
0.0001202914184
0.0001202116805
0.000120145544
0.0001200820894
0.0001200333879
0.0001199861605
0.0001199542909
0.0001199329721
0.0001199072385
0.00011986143
0.0001205305182
0.000122042591
0.0001240750391
0.0001261386036
0.0001279539327
0.0001292268861
0.0001298161578
0.0001296790417
0.0001231766973
0.000123163535
0.000123135388
0.0001230937196
0.0001230393016
0.0001229770698
0.0001229052798
0.0001228172126
0.0001227226145
0.0001226228329
0.0001225153628
0.0001224089569
0.000122285708
0.0001221668742
0.0001220510099
0.0001219234757
0.000121799649
0.0001216714844
0.000121550314
0.0001214280283
0.0001213027464
0.0001211849233
0.000121060497
0.0001209428725
0.0001208382871
0.0001207227592
0.0001206257833
0.0001205280247
0.0001204353343
0.0001203524027
0.0001202746698
0.000120197465
0.0001201352584
0.0001200742316
0.0001200277524
0.000119982691
0.0001199517338
0.0001199309668
0.000119906469
0.0001198750653
0.0001205546499
0.0001220571893
0.0001240710334
0.0001261161243
0.0001279209872
0.0001292065994
0.0001298125921
0.0001296946903
0.0001290307311
0.0001280042643
0.0001227428551
0.0001227304543
0.0001227038455
0.0001226644597
0.0001226131932
0.0001225506876
0.0001224813202
0.0001224047238
0.0001223123721
0.0001222173834
0.0001221220261
0.000122019612
0.0001219101791
0.0001218006993
0.0001216860038
0.0001215747594
0.0001214630569
0.0001213477419
0.0001212348532
0.0001211174824
0.0001210057374
0.0001208992899
0.0001207984259
0.000120691499
0.000120593872
0.0001205036425
0.0001204137078
0.000120336559
0.0001202608301
0.0001201879
0.000120127074
0.000120069046
0.0001200234348
0.0001199803226
0.0001199498367
0.0001199294919
0.0001199059006
0.0001198854777
0.0001205751888
0.0001220753548
0.0001240830179
0.0001261202463
0.0001279209297
0.0001292061539
0.0001298126495
0.0001296932294
0.0001290244114
0.0001279890672
0.0001266896564
0.0001252473467
0.0001223436093
0.0001223310633
0.0001223041496
0.000122266202
0.0001222187332
0.0001221619766
0.0001221005135
0.0001220268059
0.0001219429998
0.0001218581243
0.0001217664752
0.0001216684712
0.0001215730346
0.0001214744822
0.0001213713879
0.0001212660721
0.0001211632057
0.00012105517
0.0001209504191
0.0001208557284
0.0001207539939
0.0001206617107
0.0001205666123
0.0001204805241
0.0001203952151
0.0001203220412
0.0001202484139
0.0001201795106
0.0001201200899
0.0001200647654
0.000120020016
0.000119978547
0.0001199485183
0.0001199285774
0.0001199056097
0.0001198890488
0.0001205763056
0.0001220660975
0.0001240605627
0.0001260912029
0.0001278915602
0.0001291915492
0.00012981047
0.0001297014563
0.0001290377778
0.0001280034611
0.0001267012889
0.0001252525747
0.0001237587881
0.00012236568
0.0001219790636
0.0001219675159
0.0001219441411
0.0001219109232
0.0001218676287
0.0001218149837
0.0001217534623
0.0001216837655
0.0001216106568
0.0001215343681
0.0001214520375
0.0001213641011
0.0001212721479
0.0001211831829
0.0001210838384
0.0001209891997
0.0001208978611
0.000120809482
0.0001207102842
0.0001206261097
0.0001205394325
0.0001204569365
0.000120378313
0.000120307674
0.0001202364324
0.0001201716074
0.0001201137694
0.0001200610757
0.0001200172886
0.0001199772985
0.0001199477887
0.0001199283103
0.0001199056813
0.0001198825769
0.0001205455533
0.0001220069465
0.0001239693991
0.0001259906337
0.0001277950239
0.0001291431274
0.0001298028327
0.000129733375
0.0001290985707
0.0001280870671
0.0001268027143
0.0001253630375
0.000123872075
0.0001224597012
0.0001212643749
0.0001204060952
0.0001216477945
0.0001216383851
0.0001216182075
0.0001215883737
0.0001215495327
0.0001215023254
0.0001214472051
0.0001213847244
0.0001213154011
0.0001212442745
0.0001211680871
0.0001210838579
0.000121001742
0.0001209190487
0.0001208401253
0.0001207520758
0.0001206713416
0.0001205863992
0.0001205097036
0.0001204313357
0.0001203600832
0.0001202923956
0.0001202238534
0.0001201634854
0.0001201074829
0.0001200575749
0.0001200149142
0.0001199763867
0.0001199474935
0.0001199285698
0.0001199060686
0.000119866918
0.0001204846309
0.0001218994887
0.0001238108751
0.0001258196687
0.0001276326256
0.0001290301175
0.0001297900138
0.0001297873125
0.0001292023108
0.0001282314808
0.0001269803759
0.0001255595211
0.0001240771856
0.0001226511425
0.0001214004228
0.0001204890004
0.0001199589652
0.0001195879442
0.0001213582518
0.0001213489109
0.0001213288821
0.0001212992736
0.0001212630694
0.0001212213926
0.0001211694545
0.0001211075617
0.0001210464765
0.0001209797701
0.0001209123773
0.000120845162
0.0001207702367
0.000120693665
0.0001206216081
0.0001205473681
0.000120475736
0.0001204023196
0.0001203393373
0.0001202750384
0.0001202095954
0.0001201543566
0.0001201004715
0.0001200537379
0.0001200124055
0.0001199755046
0.0001199473437
0.0001199290833
0.0001199066382
0.0001198535333
0.0001204028603
0.0001217571063
0.0001236021682
0.0001255952449
0.0001274196557
0.0001288545004
0.0001297321519
0.0001298579654
0.0001293384288
0.0001284213062
0.0001272143209
0.0001258186852
0.0001243481299
0.0001229125357
0.0001216322266
0.0001206289295
0.0001200311207
0.0001196598657
0.0001192947107
0.0001189450205
0.0001210891647
0.0001210809377
0.0001210632992
0.000121037228
0.0001210033553
0.0001209621455
0.0001209178525
0.0001208701391
0.0001208172724
0.0001207536801
0.0001206919024
0.0001206311291
0.0001205647593
0.0001205016566
0.0001204358665
0.0001203735651
0.0001203147682
0.0001202543482
0.0001201939332
0.0001201433447
0.0001200918986
0.0001200489657
0.0001200091894
0.0001199742874
0.0001199469904
0.000119929516
0.0001199072249
0.0001198578918
0.0001203117725
0.0001215960895
0.0001233744274
0.0001253364671
0.0001271724969
0.0001286495968
0.0001296012019
0.0001298679155
0.0001294842485
0.0001286447737
0.0001274905421
0.0001261255216
0.0001246697435
0.0001232235847
0.0001219100104
0.0001208472937
0.0001201592477
0.0001197467037
0.0001193788317
0.0001190257508
0.0001186907504
0.0001183971569
0.000120858251
0.0001208511358
0.0001208358818
0.0001208133379
0.0001207816084
0.0001207409606
0.0001207000663
0.0001206596763
0.0001206077877
0.0001205560616
0.0001205035052
0.0001204475013
0.0001203908505
0.0001203390453
0.0001202850684
0.000120229135
0.0001201770238
0.0001201294963
0.0001200808758
0.0001200426363
0.0001200046592
0.0001199723452
0.0001199460603
0.0001199295117
0.0001199076538
0.0001198617934
0.0001202235921
0.000121433443
0.0001231414731
0.0001250619873
0.0001269074035
0.0001284274228
0.0001294579671
0.000129845213
0.0001295800492
0.0001288428025
0.0001277758443
0.0001264655085
0.0001250308161
0.0001235741687
0.0001222242869
0.0001210952609
0.0001203108024
0.0001198461947
0.0001194782898
0.0001191212805
0.000118779127
0.0001184697645
0.0001182163769
0.0001180128012
0.0001206519566
0.0001206449501
0.0001206299297
0.0001206077327
0.0001205800296
0.0001205499334
0.0001205148333
0.0001204751122
0.000120431108
0.0001203864822
0.0001203433337
0.0001202973783
0.0001202488611
0.0001201983391
0.0001201558576
0.0001201118646
0.0001200691608
0.0001200340835
0.0001199981777
0.0001199692685
0.0001199441618
0.0001199286965
0.0001199077418
0.0001198644041
0.0001201509314
0.000121286679
0.0001229201776
0.000124787714
0.0001266407842
0.0001282001716
0.0001293094635
0.0001298214193
0.000129681351
0.0001290397758
0.0001280528547
0.0001268095785
0.0001254160023
0.0001239670375
0.0001225768582
0.000121367359
0.000120477806
0.0001199562758
0.0001195887723
0.0001192285569
0.0001188828977
0.0001185632789
0.0001182930695
0.000118073481
0.0001179217061
0.0001178456945
0.000120471488
0.0001204655517
0.000120452874
0.0001204341457
0.0001204097652
0.0001203840327
0.0001203552099
0.0001203226362
0.0001202865243
0.0001202471536
0.0001202048149
0.0001201676309
0.0001201294634
0.0001200894781
0.0001200550915
0.0001200225993
0.0001199890781
0.0001199646285
0.0001199423991
0.0001199266801
0.0001199072979
0.0001198648563
0.0001201171726
0.0001211738255
0.0001227312023
0.00012453904
0.0001263564719
0.0001279685188
0.0001291628993
0.0001297975617
0.0001297842123
0.0001292418518
0.0001283395029
0.0001271682508
0.0001258188531
0.0001243936041
0.0001229933558
0.0001217319502
0.0001207253019
0.0001200939323
0.0001197087
0.0001193454564
0.0001189964162
0.0001186659698
0.0001183776085
0.0001181433466
0.0001179664882
0.0001178658178
0.0001178483344
0.0001178987731
0.0001203220918
0.0001203172269
0.0001203067987
0.000120291434
0.0001202714635
0.0001202471691
0.0001202189154
0.0001201894376
0.0001201610007
0.0001201300471
0.0001200967439
0.0001200652209
0.0001200370294
0.0001200074815
0.0001199794691
0.0001199579952
0.0001199398009
0.0001199230559
0.0001199061237
0.0001198622531
0.0001201165108
0.0001211137091
0.0001225960278
0.0001243372744
0.0001261088569
0.0001277111837
0.0001289696666
0.0001297417887
0.0001298818838
0.0001294421066
0.0001286269987
0.000127531622
0.0001262305152
0.0001248327986
0.0001234250733
0.0001221233769
0.0001210374408
0.0001202866399
0.0001198364338
0.0001194735343
0.0001191205632
0.0001187813355
0.0001184736494
0.0001182205655
0.0001180152853
0.0001178878293
0.0001178366034
0.0001178725468
0.0001179444419
0.0001180239688
0.0001201908419
0.0001201870177
0.0001201788205
0.0001201667094
0.0001201509822
0.000120131884
0.0001201096312
0.0001200844659
0.0001200616932
0.0001200388115
0.000120014188
0.0001199879675
0.0001199684267
0.000119948883
0.000119936048
0.0001199173927
0.0001199040088
0.0001198556435
0.0001201594148
0.0001211261827
0.0001225373795
0.000124205014
0.0001259185503
0.0001274956601
0.0001287689996
0.0001296021469
0.0001298584185
0.0001295575782
0.0001288526668
0.0001278520521
0.0001266249179
0.0001252708075
0.000123868452
0.0001225258651
0.0001213583646
0.0001204860474
0.0001199693921
0.0001196084271
0.0001192528922
0.0001189106068
0.0001185912614
0.0001183179259
0.0001180950836
0.0001179359658
0.000117852174
0.0001178555982
0.0001179151214
0.0001179924043
0.0001180713976
0.0001181629724
0.0001200875732
0.0001200838138
0.0001200761236
0.0001200671942
0.0001200555727
0.0001200414495
0.0001200250089
0.0001200063969
0.0001199857629
0.0001199704518
0.0001199541648
0.0001199403024
0.0001199284842
0.0001199110067
0.0001198946793
0.0001198966484
0.0001202859445
0.0001212329344
0.0001225804794
0.0001241678055
0.0001258093729
0.0001273419804
0.0001286095086
0.0001294836496
0.0001298376148
0.0001296524629
0.0001290473974
0.000128138146
0.0001269934081
0.0001256949106
0.0001243270453
0.0001229819303
0.0001217627469
0.0001207775166
0.0001201405623
0.0001197476448
0.0001193907518
0.0001190453094
0.0001187143983
0.000118420322
0.000118180536
0.0001179912631
0.0001178772565
0.000117842157
0.0001178849072
0.0001179583647
0.0001180378266
0.0001181218037
0.0001182183159
0.0001183157009
0.00011953532
0.0001191881853
0.0001188531548
0.0001185433625
0.0001182812548
0.0001180666125
0.0001179186278
0.000117844681
0.0001178594741
0.0001179236455
0.0001180019277
0.0001180808353
0.0001181747487
0.0001182706666
0.0001183726165
0.000118482017
)
;

boundaryField
{
    front_top
    {
        type            wedge;
    }
    front_middle
    {
        type            wedge;
    }
    front_bottom
    {
        type            wedge;
    }
    back_top
    {
        type            wedge;
    }
    back_middle
    {
        type            wedge;
    }
    back_bottom
    {
        type            wedge;
    }
    axis_top
    {
        type            symmetryPlane;
    }
    axis_middle
    {
        type            symmetryPlane;
    }
    axis_bottom
    {
        type            symmetryPlane;
    }
    wall_top
    {
        type            calculated;
        value           nonuniform List<scalar> 
24
(
0.0001229452919
0.0001212215123
0.0001205125022
0.0001201543878
0.0001199719803
0.0001198832052
0.0001225393002
0.0001271582326
0.0001296892245
0.0001294261207
0.000127388885
0.0001245001893
0.0001217427725
0.000120116955
0.0001194028428
0.0001187743603
0.0001182718326
0.0001179465892
0.0001178433388
0.0001179341955
0.0001180634992
0.0001182112575
0.0001183677109
0.0001185392458
)
;
    }
    wall_middle
    {
        type            calculated;
        value           nonuniform 0();
    }
    wall_bottom
    {
        type            calculated;
        value           nonuniform 0();
    }
    inlet
    {
        type            calculated;
        value           uniform 0.0001263997233;
    }
    outlet
    {
        type            calculated;
        value           nonuniform 0();
    }
    procBoundary11to10
    {
        type            processor;
        value           nonuniform List<scalar> 
51
(
0.0001200099089
0.0001200071325
0.0001200011815
0.0001199923897
0.000119982342
0.0001199730062
0.0001199621172
0.000119949795
0.0001199399586
0.000119931253
0.0001199151999
0.0001199053015
0.0001198724007
0.000119992325
0.0001205011829
0.0001214573524
0.0001227523905
0.0001242529001
0.0001258065265
0.0001272710801
0.0001285064897
0.000129394992
0.0001298206974
0.0001297338855
0.0001292209088
0.0001284002645
0.0001273383481
0.0001260987666
0.0001247699245
0.0001234276076
0.0001221751647
0.000121112389
0.0001203506877
0.000119888994
0.000119888994
0.000118996049
0.000118674979
0.0001183914733
0.0001181592004
0.0001179789168
0.0001178721908
0.0001178446476
0.0001178901316
0.000117963965
0.0001180431944
0.0001181283436
0.0001182248385
0.0001183229811
0.0001184287817
0.0001185418731
0.0001186630123
)
;
    }
}


// ************************************************************************* //
