/*--------------------------------*- C++ -*----------------------------------*\
  =========                 |
  \\      /  F ield         | OpenFOAM: The Open Source CFD Toolbox
   \\    /   O peration     | Website:  https://openfoam.org
    \\  /    A nd           | Version:  7
     \\/     M anipulation  |
\*---------------------------------------------------------------------------*/
FoamFile
{
    version     2.0;
    format      ascii;
    class       volScalarField;
    location    "0.0003";
    object      thermo:mu;
}
// * * * * * * * * * * * * * * * * * * * * * * * * * * * * * * * * * * * * * //

dimensions      [1 -1 -1 0 0 0 0];

internalField   nonuniform List<scalar> 
1166
(
7.187379921e+10
7.187379921e+10
7.187379921e+10
7.187379921e+10
7.187379921e+10
7.187379921e+10
7.187379921e+10
7.187379921e+10
7.187379921e+10
7.187379921e+10
7.187379921e+10
7.187379921e+10
7.187379921e+10
7.187379921e+10
7.187379921e+10
7.187379921e+10
7.187379921e+10
7.187379921e+10
7.187379921e+10
7.187379921e+10
7.187379921e+10
7.187379921e+10
7.187379921e+10
7.187379921e+10
7.187379921e+10
7.187379921e+10
7.187379921e+10
7.187379921e+10
7.187379921e+10
7.187379921e+10
7.187379921e+10
7.187379921e+10
7.187379921e+10
7.187379921e+10
7.187379921e+10
7.187379921e+10
7.187379921e+10
7.187379921e+10
7.187379921e+10
7.187379921e+10
7.187379921e+10
7.187379921e+10
7.187379921e+10
7.187379921e+10
7.187379921e+10
7.187379921e+10
7.187379921e+10
7.187379921e+10
7.187379921e+10
7.187379921e+10
7.187379921e+10
7.187379921e+10
7.187379921e+10
7.187379921e+10
7.187379921e+10
7.187379921e+10
7.187379921e+10
7.187379921e+10
7.187379921e+10
7.187379921e+10
7.187379921e+10
7.187379921e+10
7.187379921e+10
7.187379921e+10
7.187379921e+10
7.187379921e+10
7.187379921e+10
7.187379921e+10
7.187379921e+10
7.187379921e+10
7.187379921e+10
7.187379921e+10
7.187379921e+10
7.187379921e+10
7.187379921e+10
7.187379921e+10
7.187379921e+10
7.187379921e+10
7.187379921e+10
7.187379921e+10
7.187379921e+10
7.187379921e+10
7.187379921e+10
7.187379921e+10
7.187379921e+10
7.187379921e+10
7.187379921e+10
7.187379921e+10
7.187379921e+10
7.187379921e+10
7.187379921e+10
7.187379921e+10
7.187379921e+10
7.187379921e+10
7.187379921e+10
7.187379921e+10
7.187379921e+10
7.187379921e+10
7.187379921e+10
7.187379921e+10
7.187379921e+10
7.187379921e+10
7.187379921e+10
7.187379921e+10
7.187379921e+10
7.187379921e+10
7.187379921e+10
7.187379921e+10
7.187379921e+10
7.187379921e+10
7.187379921e+10
7.187379921e+10
7.187379921e+10
7.187379921e+10
7.187379921e+10
7.187379921e+10
7.187379921e+10
7.187379921e+10
7.187379921e+10
7.187379921e+10
7.187379921e+10
7.187379921e+10
7.187379921e+10
7.187379921e+10
7.187379921e+10
7.187379921e+10
7.187379921e+10
7.187379921e+10
7.187379921e+10
7.187379921e+10
7.187379921e+10
7.187379921e+10
7.187379921e+10
7.187379921e+10
7.187379921e+10
7.187379921e+10
7.187379921e+10
7.187379921e+10
7.187379921e+10
7.187379921e+10
7.187379921e+10
7.187379921e+10
7.187379921e+10
7.187379921e+10
7.187379921e+10
7.187379921e+10
7.187379921e+10
7.187379921e+10
7.187379921e+10
7.187379921e+10
7.187379921e+10
7.187379921e+10
7.187379921e+10
7.187379921e+10
7.187379921e+10
7.187379921e+10
7.187379921e+10
7.187379921e+10
7.187379921e+10
7.187379921e+10
7.187379921e+10
7.187379921e+10
7.187379921e+10
7.187379921e+10
7.187379921e+10
7.187379921e+10
7.187379921e+10
7.187379921e+10
7.187379921e+10
7.187379921e+10
7.187379921e+10
7.187379921e+10
7.187379921e+10
7.187379921e+10
7.187379921e+10
7.187379921e+10
7.187379921e+10
7.187379921e+10
7.187379921e+10
7.187379921e+10
7.187379921e+10
7.187379921e+10
7.187379921e+10
7.187379921e+10
7.187379921e+10
7.187379921e+10
7.187379921e+10
7.187379921e+10
7.187379921e+10
7.187379921e+10
7.187379921e+10
7.187379921e+10
7.187379921e+10
7.187379921e+10
7.187379921e+10
7.187379921e+10
7.187379921e+10
7.187379921e+10
7.187379921e+10
7.187379921e+10
7.187379921e+10
7.187379921e+10
7.187379921e+10
7.187379921e+10
7.187379921e+10
7.187379921e+10
7.187379921e+10
7.187379921e+10
7.187379921e+10
7.187379921e+10
7.187379921e+10
7.187379921e+10
7.187379921e+10
7.187379921e+10
7.187379921e+10
7.187379921e+10
7.187379921e+10
7.187379921e+10
7.187379921e+10
7.187379921e+10
7.187379921e+10
7.187379921e+10
7.187379921e+10
7.187379921e+10
7.187379921e+10
7.187379921e+10
7.187379921e+10
7.187379921e+10
7.187379921e+10
7.187379921e+10
7.187379921e+10
7.187379921e+10
7.187379921e+10
7.187379921e+10
7.187379921e+10
7.187379921e+10
7.187379921e+10
7.187379921e+10
7.187379921e+10
7.187379921e+10
7.187379921e+10
7.187379921e+10
7.187379921e+10
7.187379921e+10
7.187379921e+10
7.187379921e+10
7.187379921e+10
7.187379921e+10
7.187379921e+10
7.187379921e+10
7.187379921e+10
7.187379921e+10
7.187379921e+10
7.187379921e+10
7.187379921e+10
7.187379921e+10
7.187379921e+10
7.187379921e+10
7.187379921e+10
7.187379921e+10
7.187379921e+10
7.187379921e+10
7.187379921e+10
7.187379921e+10
7.187379921e+10
7.187379921e+10
7.187379921e+10
7.187379921e+10
7.187379921e+10
7.187379921e+10
7.187379921e+10
7.187379921e+10
7.187379921e+10
7.187379921e+10
7.187379921e+10
7.187379921e+10
7.187379921e+10
7.187379921e+10
7.187379921e+10
7.187379921e+10
7.187379921e+10
7.187379921e+10
7.187379921e+10
7.187379921e+10
7.187379921e+10
7.187379921e+10
7.187379921e+10
7.187379921e+10
7.187379921e+10
7.187379921e+10
7.187379921e+10
7.187379921e+10
7.187379921e+10
7.187379921e+10
7.187379921e+10
7.187379921e+10
7.187379921e+10
7.187379922e+10
7.187379928e+10
7.187380013e+10
7.187379921e+10
7.187379921e+10
7.187379921e+10
7.187379921e+10
7.187379921e+10
7.187379921e+10
7.187379921e+10
7.187379921e+10
7.187379921e+10
7.187379921e+10
7.187379921e+10
7.187379921e+10
7.187379921e+10
7.187379921e+10
7.187379921e+10
7.187379921e+10
7.187379921e+10
7.187379921e+10
7.187379921e+10
7.187379921e+10
7.187379921e+10
7.187379921e+10
7.187379921e+10
7.187379921e+10
7.187379921e+10
7.187379921e+10
7.187379921e+10
7.187379921e+10
7.187379921e+10
7.187379921e+10
7.187379921e+10
7.187379921e+10
7.187379921e+10
7.187379921e+10
7.187379921e+10
7.187379921e+10
7.187379921e+10
7.187379921e+10
7.187379921e+10
7.187379921e+10
7.187379921e+10
7.187379921e+10
7.187379921e+10
7.187379921e+10
7.187379921e+10
7.187379923e+10
7.187379947e+10
7.187380225e+10
7.187383303e+10
7.187414708e+10
7.187379921e+10
7.187379921e+10
7.187379921e+10
7.187379921e+10
7.187379921e+10
7.187379921e+10
7.187379921e+10
7.187379921e+10
7.187379921e+10
7.187379921e+10
7.187379921e+10
7.187379921e+10
7.187379921e+10
7.187379921e+10
7.187379921e+10
7.187379921e+10
7.187379921e+10
7.187379921e+10
7.187379921e+10
7.187379921e+10
7.187379921e+10
7.187379921e+10
7.187379921e+10
7.187379921e+10
7.187379921e+10
7.187379921e+10
7.187379921e+10
7.187379921e+10
7.187379921e+10
7.187379921e+10
7.187379921e+10
7.187379921e+10
7.187379921e+10
7.187379921e+10
7.187379921e+10
7.187379921e+10
7.187379921e+10
7.187379921e+10
7.187379921e+10
7.187379921e+10
7.187379921e+10
7.187379921e+10
7.187379921e+10
7.187379926e+10
7.187379975e+10
7.187380493e+10
7.187385706e+10
7.18743391e+10
7.187829708e+10
7.19065463e+10
7.187379921e+10
7.187379921e+10
7.187379921e+10
7.187379921e+10
7.187379921e+10
7.187379921e+10
7.187379921e+10
7.187379921e+10
7.187379921e+10
7.187379921e+10
7.187379921e+10
7.187379921e+10
7.187379921e+10
7.187379921e+10
7.187379921e+10
7.187379921e+10
7.187379921e+10
7.187379921e+10
7.187379921e+10
7.187379921e+10
7.187379921e+10
7.187379921e+10
7.187379921e+10
7.187379921e+10
7.187379921e+10
7.187379921e+10
7.187379921e+10
7.187379921e+10
7.187379921e+10
7.187379921e+10
7.187379921e+10
7.187379921e+10
7.187379921e+10
7.187379921e+10
7.187379921e+10
7.187379921e+10
7.187379921e+10
7.187379921e+10
7.187379921e+10
7.187379921e+10
7.187379922e+10
7.187379929e+10
7.187379998e+10
7.187380689e+10
7.18738715e+10
7.187442788e+10
7.187869308e+10
7.19073313e+10
7.207223587e+10
7.28468234e+10
7.187379921e+10
7.187379921e+10
7.187379921e+10
7.187379921e+10
7.187379921e+10
7.187379921e+10
7.187379921e+10
7.187379921e+10
7.187379921e+10
7.187379921e+10
7.187379921e+10
7.187379921e+10
7.187379921e+10
7.187379921e+10
7.187379921e+10
7.187379921e+10
7.187379921e+10
7.187379921e+10
7.187379921e+10
7.187379921e+10
7.187379921e+10
7.187379921e+10
7.187379921e+10
7.187379921e+10
7.187379921e+10
7.187379921e+10
7.187379921e+10
7.187379921e+10
7.187379921e+10
7.187379921e+10
7.187379921e+10
7.187379921e+10
7.187379921e+10
7.187379921e+10
7.187379921e+10
7.187379921e+10
7.187379921e+10
7.187379921e+10
7.187379922e+10
7.18737993e+10
7.187380013e+10
7.187380789e+10
7.187387678e+10
7.187444249e+10
7.187859776e+10
7.190549699e+10
7.20559795e+10
7.275170171e+10
7.50422327e+10
7.634207152e+10
7.187379921e+10
7.187379921e+10
7.187379921e+10
7.187379921e+10
7.187379921e+10
7.187379921e+10
7.187379921e+10
7.187379921e+10
7.187379921e+10
7.187379921e+10
7.187379921e+10
7.187379921e+10
7.187379921e+10
7.187379921e+10
7.187379921e+10
7.187379921e+10
7.187379921e+10
7.187379921e+10
7.187379921e+10
7.187379921e+10
7.187379921e+10
7.187379921e+10
7.187379921e+10
7.187379921e+10
7.187379921e+10
7.187379921e+10
7.187379921e+10
7.187379921e+10
7.187379921e+10
7.187379921e+10
7.187379921e+10
7.187379921e+10
7.187379921e+10
7.187379921e+10
7.187379921e+10
7.187379921e+10
7.187379922e+10
7.187379932e+10
7.187380024e+10
7.187380856e+10
7.187388032e+10
7.187445422e+10
7.187858007e+10
7.190485803e+10
7.205025201e+10
7.271978699e+10
7.494409391e+10
7.648122045e+10
6.167181819e+10
4.016776851e+10
7.187379921e+10
7.187379921e+10
7.187379921e+10
7.187379921e+10
7.187379921e+10
7.187379921e+10
7.187379921e+10
7.187379921e+10
7.187379921e+10
7.187379921e+10
7.187379921e+10
7.187379921e+10
7.187379921e+10
7.187379921e+10
7.187379921e+10
7.187379921e+10
7.187379921e+10
7.187379921e+10
7.187379921e+10
7.187379921e+10
7.187379921e+10
7.187379921e+10
7.187379921e+10
7.187379921e+10
7.187379921e+10
7.187379921e+10
7.187379921e+10
7.187379921e+10
7.187379921e+10
7.187379921e+10
7.187379921e+10
7.187379921e+10
7.187379921e+10
7.187379921e+10
7.187379922e+10
7.187379933e+10
7.187380032e+10
7.187380912e+10
7.187388345e+10
7.187446913e+10
7.18786332e+10
7.190497424e+10
7.205024217e+10
7.271909806e+10
7.494566423e+10
7.646919965e+10
6.150060971e+10
3.993265331e+10
2.614937071e+10
1.7661244e+10
7.187379921e+10
7.187379921e+10
7.187379921e+10
7.187379921e+10
7.187379921e+10
7.187379921e+10
7.187379921e+10
7.187379921e+10
7.187379921e+10
7.187379921e+10
7.187379921e+10
7.187379921e+10
7.187379921e+10
7.187379921e+10
7.187379921e+10
7.187379921e+10
7.187379921e+10
7.187379921e+10
7.187379921e+10
7.187379921e+10
7.187379921e+10
7.187379921e+10
7.187379921e+10
7.187379921e+10
7.187379921e+10
7.187379921e+10
7.187379921e+10
7.187379921e+10
7.187379921e+10
7.187379921e+10
7.187379921e+10
7.187379921e+10
7.187379922e+10
7.187379934e+10
7.187380037e+10
7.187380931e+10
7.187388362e+10
7.187446149e+10
7.187853413e+10
7.190416444e+10
7.204528368e+10
7.269679451e+10
7.488626726e+10
7.653434706e+10
6.186234652e+10
4.015530247e+10
2.624002214e+10
1.768538979e+10
1.212373422e+10
8406625305
7.187379921e+10
7.187379921e+10
7.187379921e+10
7.187379921e+10
7.187379921e+10
7.187379921e+10
7.187379921e+10
7.187379921e+10
7.187379921e+10
7.187379921e+10
7.187379921e+10
7.187379921e+10
7.187379921e+10
7.187379921e+10
7.187379921e+10
7.187379921e+10
7.187379921e+10
7.187379921e+10
7.187379921e+10
7.187379921e+10
7.187379921e+10
7.187379921e+10
7.187379921e+10
7.187379921e+10
7.187379921e+10
7.187379921e+10
7.187379921e+10
7.187379921e+10
7.187379921e+10
7.187379921e+10
7.187379923e+10
7.187379934e+10
7.187380036e+10
7.187380896e+10
7.187387896e+10
7.18744147e+10
7.187815219e+10
7.190151699e+10
7.202991708e+10
7.26266295e+10
7.468226442e+10
7.67308715e+10
6.348640608e+10
4.147671969e+10
2.704653248e+10
1.820431046e+10
1.246986297e+10
8640781275
6051514826
4286616088
7.187379921e+10
7.187379921e+10
7.187379921e+10
7.187379921e+10
7.187379921e+10
7.187379921e+10
7.187379921e+10
7.187379921e+10
7.187379921e+10
7.187379921e+10
7.187379921e+10
7.187379921e+10
7.187379921e+10
7.187379921e+10
7.187379921e+10
7.187379921e+10
7.187379921e+10
7.187379921e+10
7.187379921e+10
7.187379921e+10
7.187379921e+10
7.187379921e+10
7.187379921e+10
7.187379921e+10
7.187379921e+10
7.187379921e+10
7.187379921e+10
7.187379921e+10
7.187379923e+10
7.187379934e+10
7.18738003e+10
7.187380815e+10
7.187387048e+10
7.187433795e+10
7.187755932e+10
7.189752796e+10
7.200702653e+10
7.252024965e+10
7.435697038e+10
7.688160023e+10
6.614534684e+10
4.387351454e+10
2.853216403e+10
1.917017187e+10
1.312326949e+10
9089753790
6361481201
4501408825
3223608300
2337260941
7.187379921e+10
7.187379921e+10
7.187379921e+10
7.187379921e+10
7.187379921e+10
7.187379921e+10
7.187379921e+10
7.187379921e+10
7.187379921e+10
7.187379921e+10
7.187379921e+10
7.187379921e+10
7.187379921e+10
7.187379921e+10
7.187379921e+10
7.187379921e+10
7.187379921e+10
7.187379921e+10
7.187379921e+10
7.187379921e+10
7.187379921e+10
7.187379921e+10
7.187379921e+10
7.187379921e+10
7.187379921e+10
7.187379921e+10
7.187379923e+10
7.187379934e+10
7.187380021e+10
7.187380715e+10
7.187386048e+10
7.187425072e+10
7.187689917e+10
7.18931387e+10
7.198189459e+10
7.240115924e+10
7.396615402e+10
7.680494854e+10
6.931566333e+10
4.724208386e+10
3.064193572e+10
2.053405751e+10
1.404449727e+10
9722805467
6799480489
4805249757
3435173743
2485857782
1820487174
1348498913
7.187379921e+10
7.187379921e+10
7.187379921e+10
7.187379921e+10
7.187379921e+10
7.187379921e+10
7.187379921e+10
7.187379921e+10
7.187379921e+10
7.187379921e+10
7.187379921e+10
7.187379921e+10
7.187379921e+10
7.187379921e+10
7.187379921e+10
7.187379921e+10
7.187379921e+10
7.187379921e+10
7.187379921e+10
7.187379921e+10
7.187379921e+10
7.187379921e+10
7.187379921e+10
7.187379921e+10
7.187379923e+10
7.187379933e+10
7.187380013e+10
7.187380618e+10
7.187385099e+10
7.187416889e+10
7.187627904e+10
7.1889064e+10
7.195848481e+10
7.2288256e+10
7.35646543e+10
7.644254773e+10
7.240706979e+10
5.149839581e+10
3.338297372e+10
2.229442884e+10
1.523129063e+10
1.053916521e+10
7365171505
5198927961
3710255893
2679089627
1957378692
1446431948
1080477701
815537548.4
7.187379921e+10
7.187379921e+10
7.187379921e+10
7.187379921e+10
7.187379921e+10
7.187379921e+10
7.187379921e+10
7.187379921e+10
7.187379921e+10
7.187379921e+10
7.187379921e+10
7.187379921e+10
7.187379921e+10
7.187379921e+10
7.187379921e+10
7.187379921e+10
7.187379921e+10
7.187379921e+10
7.187379921e+10
7.187379921e+10
7.187379921e+10
7.187379921e+10
7.187379923e+10
7.187379933e+10
7.187380008e+10
7.187380542e+10
7.187384319e+10
7.187410121e+10
7.187576415e+10
7.188566898e+10
7.193887542e+10
7.219184071e+10
7.319882177e+10
7.586037095e+10
7.487926672e+10
5.65090765e+10
3.679716659e+10
2.447310317e+10
1.669731621e+10
1.15496147e+10
8067342333
5688823656
4053360966
2920742736
2128951171
1569258316
1169147674
880060716.9
669074905
513586457.2
7.187379921e+10
7.187379921e+10
7.187379921e+10
7.187379921e+10
7.187379921e+10
7.187379921e+10
7.187379921e+10
7.187379921e+10
7.187379921e+10
7.187379921e+10
7.187379921e+10
7.187379921e+10
7.187379921e+10
7.187379921e+10
7.187379921e+10
7.187379921e+10
7.187379921e+10
7.187379921e+10
7.187379921e+10
7.187379921e+10
7.187379923e+10
7.187379934e+10
7.187380007e+10
7.187380495e+10
7.187383766e+10
7.187405079e+10
7.187537378e+10
7.188303634e+10
7.192366124e+10
7.211556947e+10
7.289311318e+10
7.518892182e+10
7.636406393e+10
6.191629127e+10
4.093014964e+10
2.710217885e+10
1.845916561e+10
1.276784895e+10
8918114047
6284599445
4471736700
3216001005
2338915966
1719841175
1278051819
959442199.5
727373328.2
556706698.3
430039494.7
335197287
7.187379921e+10
7.187379921e+10
7.187379921e+10
7.187379921e+10
7.187379921e+10
7.187379921e+10
7.187379921e+10
7.187379921e+10
7.187379921e+10
7.187379921e+10
7.187379921e+10
7.187379921e+10
7.187379921e+10
7.187379921e+10
7.187379921e+10
7.187379921e+10
7.187379921e+10
7.187379921e+10
7.187379924e+10
7.187379936e+10
7.187380012e+10
7.187380487e+10
7.187383464e+10
7.18740178e+10
7.187510207e+10
7.188115315e+10
7.191239886e+10
7.205857225e+10
7.265459138e+10
7.454571741e+10
7.687843907e+10
6.710914813e+10
4.576067882e+10
3.021186382e+10
2.053497619e+10
1.420595074e+10
9928100920
6996952433
4974861667
3572216627
2592587820
1902029954
1409979258
1055704454
798129139.5
609091423
469088547.1
364498716.1
285707479.1
225861744.8
7.187379921e+10
7.187379921e+10
7.187379921e+10
7.187379921e+10
7.187379921e+10
7.187379921e+10
7.187379921e+10
7.187379921e+10
7.187379921e+10
7.187379921e+10
7.187379921e+10
7.187379921e+10
7.187379921e+10
7.187379921e+10
7.187379921e+10
7.187379922e+10
7.187379925e+10
7.187379941e+10
7.187380029e+10
7.187380533e+10
7.187383451e+10
7.187400203e+10
7.18749368e+10
7.18799086e+10
7.190465417e+10
7.201766067e+10
7.247668646e+10
7.399829838e+10
7.671446833e+10
7.140687635e+10
5.114977481e+10
3.381573911e+10
2.29363399e+10
1.587488988e+10
1.110756418e+10
7834286399
5570279017
3996428830
2896018919
2120385647
1568301026
1171357295
883212031.4
672123772.1
516100128.7
399794097.2
312372092.2
246133726
195541380.2
156586078.7
7.187379921e+10
7.187379921e+10
7.187379921e+10
7.187379921e+10
7.187379921e+10
7.187379921e+10
7.187379921e+10
7.187379921e+10
7.187379921e+10
7.187379921e+10
7.187379921e+10
7.187379921e+10
7.187379921e+10
7.187379922e+10
7.187379927e+10
7.187379951e+10
7.187380067e+10
7.187380666e+10
7.187383827e+10
7.18740052e+10
7.187487173e+10
7.187920836e+10
7.189976047e+10
7.199028352e+10
7.235091956e+10
7.356731737e+10
7.621361747e+10
7.439539561e+10
5.678101081e+10
3.788335015e+10
2.565162506e+10
1.776988811e+10
1.245864556e+10
8802326343
6263859693
4493560774
3253286769
2378572881
1756143446
1308966300
984687726.6
747439482.7
572358724.5
442073767.4
344340604.7
270452047.1
214154971.1
170922833.6
137463730.4
111370376.2
7.187379921e+10
7.187379921e+10
7.187379921e+10
7.187379921e+10
7.187379921e+10
7.187379921e+10
7.187379921e+10
7.187379921e+10
7.187379921e+10
7.187379921e+10
7.187379922e+10
7.187379924e+10
7.187379934e+10
7.187379975e+10
7.187380154e+10
7.187380974e+10
7.187384857e+10
7.187403451e+10
7.187491918e+10
7.18790261e+10
7.189730666e+10
7.197392966e+10
7.226902287e+10
7.32590303e+10
7.564729578e+10
7.605119782e+10
6.21217606e+10
4.230787167e+10
2.864496574e+10
1.986938892e+10
1.397032181e+10
9898794933
7059184615
5069458496
3670184107
2681271152
1977125843
1471305636
1104709907
836704485.1
639151469.5
492343956.7
382395243.3
299423858.6
236341589.3
188016623
150713202.5
121700723.5
98971590.7
81040195.67
2234653458
1661403657
1245750224
941903600.3
718042226.4
551828530
427488849
333791349.3
262678562.6
208316051.5
166451115.9
133973231
108595559.2
88628248.26
72812240.08
60201811.71
)
;

boundaryField
{
    front_top
    {
        type            wedge;
    }
    front_middle
    {
        type            wedge;
    }
    front_bottom
    {
        type            wedge;
    }
    back_top
    {
        type            wedge;
    }
    back_middle
    {
        type            wedge;
    }
    back_bottom
    {
        type            wedge;
    }
    axis_top
    {
        type            symmetryPlane;
    }
    axis_middle
    {
        type            symmetryPlane;
    }
    axis_bottom
    {
        type            symmetryPlane;
    }
    wall_top
    {
        type            calculated;
        value           nonuniform List<scalar> 
24
(
7.187379921e+10
7.187379921e+10
7.187379921e+10
7.187379921e+10
7.187379921e+10
7.187380249e+10
7.18748738e+10
7.19572965e+10
7.382729199e+10
7.110516614e+10
3.234071861e+10
1.459242622e+10
7018753504
3620226911
1997377459
1164394048
710694216.6
451278416.3
296745103.3
201329838.9
140461757.2
100464957.8
73483905.43
54845015.43
)
;
    }
    wall_middle
    {
        type            calculated;
        value           nonuniform 0();
    }
    wall_bottom
    {
        type            calculated;
        value           nonuniform 0();
    }
    inlet
    {
        type            calculated;
        value           uniform 7.187379921e+10;
    }
    outlet
    {
        type            calculated;
        value           nonuniform 0();
    }
    procBoundary11to10
    {
        type            processor;
        value           nonuniform List<scalar> 
51
(
7.187379921e+10
7.187379921e+10
7.187379921e+10
7.187379921e+10
7.187379921e+10
7.187379921e+10
7.187379922e+10
7.187379922e+10
7.187379925e+10
7.187379932e+10
7.187379956e+10
7.187380042e+10
7.187380373e+10
7.187381705e+10
7.187387269e+10
7.187411032e+10
7.187513005e+10
7.18794522e+10
7.189724584e+10
7.196716051e+10
7.222340583e+10
7.306060268e+10
7.516868255e+10
7.673332131e+10
6.660258424e+10
4.685683526e+10
3.183735902e+10
2.213419821e+10
1.562322385e+10
1.111492244e+10
7952967576
5724463070
4149272575
3031888364
3031888364
1409529272
1064638694
810433825.1
621713000
480601214.1
374353906
293808853.1
232331691.2
185079940.3
148503673.2
119991606.9
97613249.57
79932786.75
65873666.71
54623559.55
45567033.74
)
;
    }
}


// ************************************************************************* //
