/*--------------------------------*- C++ -*----------------------------------*\
  =========                 |
  \\      /  F ield         | OpenFOAM: The Open Source CFD Toolbox
   \\    /   O peration     | Website:  https://openfoam.org
    \\  /    A nd           | Version:  7
     \\/     M anipulation  |
\*---------------------------------------------------------------------------*/
FoamFile
{
    version     2.0;
    format      ascii;
    class       volTensorField;
    location    "0.0021";
    object      grad(U);
}
// * * * * * * * * * * * * * * * * * * * * * * * * * * * * * * * * * * * * * //

dimensions      [0 0 -1 0 0 0 0];

internalField   nonuniform List<tensor> 
1167
(
(-0.2538062937 -1.450998923e-12 0.1394512543 -3.276945191e-12 -0.4141814892 0 -0.008428172741 -1.658125744e-13 1.322170279)
(-0.3390513593 -1.146650046e-12 0.3283775689 1.850481838e-13 -0.3627648246 0 -0.02198659314 -4.764928587e-13 1.324044371)
(-0.3381356686 -3.551010056e-13 0.5414857077 3.301173599e-13 -0.3480580513 0 -0.03465640319 -2.516400952e-13 1.327961668)
(-0.3511486538 -1.213633057e-13 0.7689528171 2.937485042e-13 -0.3473077179 0 -0.04746120574 -1.659671075e-13 1.33362285)
(-0.3591654252 -3.655438228e-13 1.016780552 2.41337142e-13 -0.3488228307 0 -0.05994870782 1.208130397e-13 1.340877078)
(-0.367319283 -4.701158781e-13 1.29274162 3.111955146e-13 -0.3511186223 0 -0.07194716718 7.584535842e-14 1.349525824)
(-0.3767244875 -2.072996305e-13 1.607096833 3.120081032e-13 -0.3539971273 0 -0.08344137776 2.52471435e-13 1.359284905)
(-0.3872036362 -6.203345514e-14 1.97298833 2.851250921e-13 -0.3573696301 0 -0.09446772786 1.233707095e-13 1.36984914)
(-0.3983611697 -2.947984501e-13 2.407683518 2.580826618e-13 -0.361148021 2.397067081e-12 -0.1049205918 3.517623721e-14 1.38094014)
(-0.4099062249 -3.041942361e-13 2.933529662 2.831762009e-13 -0.3652381163 -2.205113534e-12 -0.1147984005 2.090753208e-13 1.392201446)
(-0.4217062644 -8.378841544e-14 3.579342966 2.664171336e-13 -0.3695669323 0 -0.1241576059 2.117825385e-13 1.403184454)
(-0.4335537311 -3.336776649e-14 4.381828356 2.538458597e-13 -0.3740783163 0 -0.1330586292 7.728736248e-14 1.413436056)
(-0.4450964007 -1.412331388e-13 5.386779873 2.329799267e-13 -0.3787120241 0 -0.1415880493 -1.985757516e-14 1.422523702)
(-0.4559320244 -2.978454366e-13 6.650135966 2.378544433e-13 -0.3833996926 1.733544128e-12 -0.149851414 -1.343027452e-13 1.430034772)
(-0.4656970312 -3.255178922e-13 8.238995252 2.41427471e-13 -0.3880678063 0 -0.1579468997 -1.12554416e-13 1.435526666)
(-0.4740983811 -2.095633038e-13 10.23273246 2.469754314e-13 -0.3926448017 -1.595601525e-12 -0.1659427021 -1.109625765e-13 1.438475967)
(-0.480774322 -1.253136794e-13 12.72425419 2.392462148e-13 -0.3970639797 0 -0.1738754062 -1.866486534e-13 1.438257034)
(-0.2361516949 -2.16795947e-13 0.1369781444 7.702819337e-13 -0.3852991391 -3.273748172e-11 -0.008724683199 1.282353951e-12 1.274047549)
(-0.3156879083 -2.063747629e-13 0.3227684158 4.506708534e-13 -0.3375069787 0 -0.02274143338 5.057518341e-13 1.276037436)
(-0.3153803665 -1.048574608e-13 0.5326210225 3.267488154e-13 -0.3239765253 -6.898779112e-12 -0.0357947292 4.595099867e-13 1.280189392)
(-0.3281990456 -6.35155046e-13 0.7569026984 2.578802658e-13 -0.3235415728 0 -0.04904005854 3.074213301e-13 1.286203348)
(-0.3365243733 -6.044913161e-13 1.001731095 4.381653849e-13 -0.3252557709 0 -0.06200236111 3.578010573e-13 1.293967694)
(-0.3451800126 -2.703897817e-13 1.275025339 3.927387243e-13 -0.3277584372 0 -0.07447864275 1.151565944e-13 1.303198977)
(-0.3550840121 -9.168504141e-14 1.587200534 3.872954414e-13 -0.3308581143 0 -0.08641158079 3.111260138e-14 1.313671244)
(-0.3661225703 8.312452751e-14 1.9514725 3.199593793e-13 -0.3344510564 0 -0.09785922321 4.262987084e-14 1.324992277)
(-0.3779740394 -2.778773203e-13 2.385125979 2.8149152e-13 -0.3384685823 -2.397067081e-12 -0.1087992903 1.002335601e-13 1.336826729)
(-0.3902516527 -4.031847759e-13 2.910691702 3.090173751e-13 -0.342819149 2.205113534e-12 -0.119185675 -8.785857485e-14 1.348802344)
(-0.4027047685 -1.562280072e-13 3.557153062 3.03475156e-13 -0.3474218768 0 -0.1290390203 -4.363343674e-14 1.360470538)
(-0.4150411732 6.550890513e-14 4.36128344 2.848714648e-13 -0.3522053297 0 -0.138427691 -6.028052632e-15 1.371349593)
(-0.4269019582 1.655664318e-13 5.36890995 2.507646539e-13 -0.3570959687 -1.821156068e-12 -0.147433836 6.918552659e-14 1.380953068)
(-0.4379195951 -3.097255941e-14 6.636040652 2.251575869e-13 -0.3620181776 1.733544128e-12 -0.1561340848 -6.737289836e-15 1.388801462)
(-0.4477467014 -1.94171607e-13 8.229922878 2.244141258e-13 -0.3668958829 0 -0.1645902016 -7.212835972e-14 1.394404207)
(-0.4561075401 -1.590844741e-14 10.23015234 2.220441576e-13 -0.3716553307 0 -0.1728430694 -1.543456055e-13 1.397225376)
(-0.4625469758 -9.551642394e-14 12.72986342 2.02381232e-13 -0.3762304526 0 -0.1809648383 -1.20514369e-13 1.396678061)
(-0.4662766876 -2.87861735e-13 15.8372295 2.085419614e-13 -0.3805388269 0 -0.189089053 -1.227051041e-13 1.392128494)
(-0.4666248524 -2.101044018e-13 19.67743664 2.112814495e-13 -0.3844771204 0 -0.1972521487 -1.509771287e-13 1.382733528)
(-0.4628748222 -1.468171496e-13 24.39439027 2.101817051e-13 -0.3879464849 0 -0.2053859306 -1.609910004e-13 1.367490589)
(-0.4538868736 -9.999636609e-14 30.15209126 2.048195966e-13 -0.3908312615 0 -0.2134998146 -1.581135999e-13 1.345321894)
(-0.4385649688 -8.137890159e-14 37.13629021 2.020498803e-13 -0.3929912147 1.356715262e-12 -0.2215380306 -1.891296868e-13 1.315000255)
(-0.4158090392 -7.08764604e-14 45.55551633 1.951812453e-13 -0.3942833534 0 -0.2293599705 -1.462622793e-13 1.275255162)
(-0.3843814168 -5.669844241e-14 55.64160225 1.920624725e-13 -0.3945494335 0 -0.2368396261 -1.193403414e-13 1.224872362)
(-0.3432292071 -5.761898645e-14 67.6499496 1.87437663e-13 -0.393624532 0 -0.243763055 -1.039713644e-13 1.162678886)
(-0.2913800437 -7.532060174e-14 81.85900651 1.832055641e-13 -0.3913469132 0 -0.249942571 -1.047997499e-13 1.0876971)
(-0.2281486271 7.17202287e-15 98.56950146 1.811697027e-13 -0.3875560307 0 -0.2551630633 -1.143914706e-13 0.9991416583)
(-0.1531577577 9.923106456e-14 118.1027999 1.726943276e-13 -0.3821112208 0 -0.2591771794 -1.237898438e-13 0.8965708687)
(-0.06625413016 1.70194327e-13 140.7988774 1.651847534e-13 -0.3748879629 0 -0.2617554757 -1.401207508e-13 0.7799417021)
(0.03222378686 1.81888556e-13 167.0137227 1.561776668e-13 -0.3657872827 6.15099734e-13 -0.2626388905 -1.540027345e-13 0.6496007418)
(0.141517459 1.006251666e-13 197.1159249 1.474578046e-13 -0.3547442346 0 -0.26164833 -1.558916167e-13 0.5064068337)
(0.2603425817 1.066444025e-13 231.4836485 1.425482887e-13 -0.3417295586 0 -0.2586303812 -1.410405411e-13 0.3516809905)
(0.3869486526 1.652162288e-13 270.5006145 1.366369751e-13 -0.326759869 0 -0.2534304363 -1.333757723e-13 0.1873309534)
(0.5192316865 1.750618535e-13 314.5520722 1.285337708e-13 -0.3098941418 0 -0.2459860645 -1.326685544e-13 0.01577895038)
(0.654526967 1.833001365e-13 364.0213443 1.235262674e-13 -0.291236569 0 -0.2362893231 -1.173559018e-13 -0.1601360882)
(0.7895972821 2.398429731e-13 419.2847021 1.168759307e-13 -0.2709411315 0 -0.2243739211 -1.059539926e-13 -0.3370202744)
(0.9208871007 2.996179599e-13 480.7071073 1.085695661e-13 -0.2492128732 0 -0.2103632485 -9.906116094e-14 -0.5109388169)
(1.044567755 3.662737772e-13 548.6399253 1.009352792e-13 -0.2263011217 0 -0.194446542 -9.74013957e-14 -0.6775892137)
(1.156424302 3.354319503e-13 623.4172958 9.219110137e-14 -0.2024991704 1.202594749e-12 -0.1768784495 -1.015880306e-13 -0.832412184)
(1.251943296 3.005208021e-13 705.3523583 8.554761768e-14 -0.1781423767 0 -0.1579784034 -8.28687615e-14 -0.9704633917)
(1.326381279 4.236877894e-13 794.7349989 7.834626694e-14 -0.1536046728 -6.032073484e-13 -0.1381259757 -6.617929279e-14 -1.086510745)
(1.374799059 5.341992379e-13 891.8299322 6.968238633e-14 -0.1292948061 0 -0.1177545583 -7.417875971e-14 -1.175105144)
(1.39209775 5.402315137e-13 996.8753698 5.982417091e-14 -0.1056525281 3.032670842e-13 -0.09734045595 -8.007672968e-14 -1.23062902)
(1.373140695 5.714493113e-13 1110.082998 5.082343546e-14 -0.08314458548 0 -0.07739932118 -5.996528646e-14 -1.247347034)
(1.313018228 5.771158919e-13 1231.639112 4.133116142e-14 -0.06225827438 3.055820165e-13 -0.05848513609 -4.315734247e-14 -1.219497554)
(1.2070873 4.921415897e-13 1361.706179 3.305015681e-14 -0.04349130078 3.069692569e-13 -0.04117687073 -1.895686215e-14 -1.1413409)
(1.048530208 4.803766084e-13 1500.427443 2.643667186e-14 -0.02734657351 0 -0.02606059994 -2.506073578e-15 -1.007103659)
(0.8223120478 5.401187687e-13 1647.941724 1.927262736e-14 -0.01438864362 0 -0.01377925271 1.592845679e-14 -0.811008851)
(0.5204916687 5.913209056e-13 1804.42739 1.182547453e-14 -0.00538585402 0 -0.005159688376 1.04473847e-14 -0.5473043295)
(0.2540066073 6.38967365e-13 1970.241272 4.038322006e-15 -0.0009593965281 0 -0.0009119087816 3.59750872e-15 -0.2101152503)
(-0.2179558568 5.280653482e-13 0.134366826 5.348014515e-12 -0.3555036171 0 -0.008978026695 6.373665567e-14 1.224407023)
(-0.2916673392 5.744079562e-14 0.3168372419 1.324699175e-12 -0.3114655167 0 -0.02338162678 1.306101788e-13 1.226490645)
(-0.2919350533 1.73805711e-14 0.5232156383 9.575087709e-13 -0.2991896318 0 -0.03677646343 2.078635238e-13 1.230867831)
(-0.3044335138 2.37686264e-14 0.7440701478 5.955364412e-13 -0.2990531173 -5.066079466e-12 -0.05044756615 2.920878067e-13 1.237265212)
(-0.3130163914 2.574426408e-14 0.9857087256 5.197650334e-13 -0.3009381013 4.051298909e-12 -0.0638284598 -1.970289713e-13 1.245513218)
(-0.32221465 1.145181877e-13 1.256149238 3.844179886e-13 -0.303625937 0 -0.07672925748 -2.014758844e-13 1.255299085)
(-0.3327010108 -8.09945448e-14 1.565948279 3.293821043e-13 -0.3069457248 0 -0.08908282621 -3.068587219e-13 1.266407158)
(-0.3442577933 -1.991789722e-13 1.928498257 3.064127121e-13 -0.3107675041 0 -0.1009094807 -1.546998725e-13 1.278468996)
(-0.3566840773 -1.787440062e-14 2.361116807 2.990481637e-13 -0.3150145774 -2.397067081e-12 -0.1122686431 -8.471160061e-14 1.291059155)
(-0.3696052449 -3.671768408e-14 2.88645708 2.508747331e-13 -0.3196088575 0 -0.1231140551 -2.079047242e-13 1.303761392)
(-0.3826640252 -2.493376576e-13 3.533645467 2.533967474e-13 -0.3244646314 2.051211615e-12 -0.1334467958 -2.854285231e-13 1.316111373)
(-0.3955205705 -2.693779431e-13 4.339570865 2.5196552e-13 -0.3295018953 0 -0.1433110262 -2.530764417e-13 1.327601264)
(-0.4077909036 -1.292518946e-13 5.350138096 2.543215994e-13 -0.3346393851 0 -0.1527653537 -1.066157447e-13 1.337709366)
(-0.419099677 4.753054969e-15 6.621415842 2.361615291e-13 -0.3397947095 0 -0.1618710629 -2.731293164e-15 1.34591626)
(-0.4291461765 -1.649591932e-15 8.220753089 2.227938072e-13 -0.3448874098 0 -0.1706693715 1.128181691e-15 1.351698128)
(-0.437599123 -1.08944219e-13 10.22787563 2.080203161e-13 -0.3498454231 -1.595601525e-12 -0.1791969045 1.262819483e-14 1.354526603)
(-0.4438713055 -1.949459318e-13 12.7360651 2.076476582e-13 -0.3545940117 -3.081611623e-12 -0.1875778699 1.242442775e-13 1.353878456)
(-0.4473100442 -1.45243939e-13 15.85390032 2.078127937e-13 -0.3590406059 0 -0.1959015909 3.123888418e-14 1.349130785)
(-0.4474353463 -1.072539725e-13 19.70708313 2.049004661e-13 -0.3630897195 0 -0.2041143665 -2.431295641e-14 1.339479914)
(-0.4434988309 -6.22599564e-14 24.43984799 1.998108973e-13 -0.3666508091 0 -0.2122130621 -5.714415031e-14 1.32402101)
(-0.4344280929 -1.555264315e-15 30.21662394 1.913001513e-13 -0.3696103699 0 -0.2202087086 -7.58051639e-14 1.30178436)
(-0.419273747 -5.802594123e-14 37.22358529 1.841634975e-13 -0.3718390787 0 -0.2279782994 -8.659928026e-14 1.271649526)
(-0.3969770647 -1.198839805e-13 45.66941812 1.834703705e-13 -0.3732047742 0 -0.2354284968 -9.600028445e-14 1.232479659)
(-0.3664674275 -7.16520564e-14 55.78600605 1.805387242e-13 -0.3735589128 0 -0.2424502922 -1.041310071e-13 1.18314249)
(-0.3268044134 -3.185222438e-14 67.8286163 1.760778046e-13 -0.3727543474 0 -0.248840399 -1.163521464e-13 1.12258599)
(-0.2770504311 5.035085955e-15 82.07542727 1.707426005e-13 -0.370641618 0 -0.2544180868 -1.38639433e-13 1.049944664)
(-0.2166016223 2.807547869e-14 98.8266321 1.651478923e-13 -0.3670744311 1.262025684e-12 -0.2589515784 -1.776652909e-13 0.9645118129)
(-0.1450960277 5.193129723e-14 118.4027043 1.598795542e-13 -0.3619245169 0 -0.2622428663 -1.5576123e-13 0.8659114917)
(-0.06247037808 5.377462391e-14 141.1425961 1.548985233e-13 -0.3550778194 6.195940932e-13 -0.2640968967 -1.451502539e-13 0.7540921655)
(0.03094557647 5.558784579e-14 167.4010468 1.483687835e-13 -0.3464483794 0 -0.2642768068 -9.768561205e-14 0.6294248483)
(0.1345130239 8.506364828e-14 197.5452802 1.432788384e-13 -0.3359775533 0 -0.2626068649 -8.306563252e-14 0.492734308)
(0.2469817565 1.092696204e-13 231.9517822 1.372027279e-13 -0.3236399055 0 -0.2589415568 -8.221673985e-14 0.3452389415)
(0.3666981761 1.365191368e-13 271.0023798 1.319049586e-13 -0.3094548033 0 -0.2531678062 -7.688594176e-14 0.188743189)
(0.4917273697 1.647109558e-13 315.0806337 1.249961441e-13 -0.2934794482 0 -0.2452299081 -6.656117895e-14 0.02551381408)
(0.6195431519 1.961410321e-13 364.5679449 1.182322845e-13 -0.2758129615 0 -0.235122705 -6.739725825e-14 -0.1417958237)
(0.7471349616 2.342015253e-13 419.8383301 1.121774008e-13 -0.2566023187 0 -0.2228804781 -6.433598945e-14 -0.3099700605)
(0.8712149404 2.777366991e-13 481.2546747 1.05048391e-13 -0.2360398424 0 -0.2086410101 -5.754104439e-14 -0.4753291992)
(0.9881713468 3.241983082e-13 549.1665777 9.741428113e-14 -0.2143597978 0 -0.1925951873 -4.659291082e-14 -0.6338794246)
(1.094034748 3.207541324e-13 623.9062508 8.98422835e-14 -0.1918380189 0 -0.174990859 -3.035302267e-14 -0.7813062286)
(1.184553875 3.16105659e-13 705.7847446 8.290181507e-14 -0.1687899218 0 -0.1561379976 -3.81226773e-14 -0.9129383163)
(1.255245623 4.060973865e-13 795.0900264 7.569545339e-14 -0.1455674131 0 -0.136404371 -4.235014982e-14 -1.023825129)
(1.30141114 5.047817971e-13 892.0849888 6.702500719e-14 -0.122555634 -3.023506932e-13 -0.1162074844 -2.635500628e-14 -1.108795725)
(1.318191869 4.714676135e-13 997.0060733 5.804721534e-14 -0.1001699816 3.032670842e-13 -0.09600411669 -1.638944573e-14 -1.162486303)
(1.300701424 4.295074297e-13 1110.063409 5.082343546e-14 -0.07885180775 0 -0.07630060303 -9.487520936e-15 -1.179411563)
(1.244264549 4.44291334e-13 1231.442013 4.342010098e-14 -0.05906239582 0 -0.05763418424 3.112105386e-15 -1.154085527)
(1.144426144 4.560895878e-13 1361.30291 3.672239645e-14 -0.04127327248 0 -0.04056632646 7.588212273e-17 -1.081034846)
(0.994626884 4.760660416e-13 1499.787684 2.967535246e-14 -0.0259621194 0 -0.02567005697 -1.859845423e-15 -0.9546940086)
(0.7804643979 5.875122247e-13 1647.033648 2.298327074e-14 -0.01366636741 -1.550897478e-13 -0.01357065864 -1.539975593e-16 -0.7694427405)
(0.4943043813 7.108127898e-13 1803.217415 1.381542959e-14 -0.005118875361 0 -0.005080970341 -8.304018694e-16 -0.5196880339)
(0.2414556592 7.441183825e-13 1968.692648 4.668261916e-15 -0.0009128017146 0 -0.0008978551397 -4.037183071e-16 -0.1997108565)
(-0.1993117663 -3.879274318e-13 0.1316542115 1.199881456e-12 -0.3249174049 0 -0.009171388791 -7.104304076e-13 1.173378488)
(-0.2670353442 -4.638594308e-13 0.3106223341 7.449725774e-13 -0.2847635456 0 -0.0238899696 -4.600261311e-13 1.175548993)
(-0.2678132304 -3.898958662e-13 0.513246047 6.113908247e-13 -0.2737678023 0 -0.03764906143 -4.692527436e-13 1.180162131)
(-0.2799785834 1.888415163e-13 0.7304558995 5.45444591e-13 -0.2739020082 0 -0.05171810657 -2.921700789e-13 1.186936633)
(-0.2888427524 2.217369992e-13 0.9687638259 2.868351278e-13 -0.2759607365 0 -0.06543021288 -3.226190122e-13 1.195625472)
(-0.2985119655 -5.478278116e-14 1.23622146 2.654314683e-13 -0.2788306057 0 -0.07867642536 -2.072625171e-13 1.205953796)
(-0.3095576782 -2.07518078e-13 1.543447214 2.19346764e-13 -0.2823522094 0 -0.09144648353 -1.48431447e-13 1.217644397)
(-0.3216402156 -3.352018999e-13 1.904108859 2.464203284e-13 -0.286396349 0 -0.1036561187 -1.301121929e-13 1.230387855)
(-0.3345755722 -1.566747565e-13 2.335663555 2.457930112e-13 -0.2908640519 0 -0.1153744817 -1.475056985e-13 1.243707226)
(-0.348078764 -7.073306439e-15 2.860817294 2.288020635e-13 -0.2956859421 0 -0.1266260966 -5.925023591e-14 1.257123484)
(-0.361723858 -7.29716748e-14 3.508837729 2.053214751e-13 -0.3007789502 0 -0.1373876188 -8.106209791e-14 1.27013835)
(-0.375099083 -3.124834454e-13 4.316727318 2.030766878e-13 -0.3060563793 0 -0.1476820477 -1.079588905e-13 1.28222103)
(-0.3878001931 -3.588277133e-13 5.330460084 2.196413813e-13 -0.3114295704 0 -0.157557809 -1.474552812e-13 1.292824295)
(-0.3994858278 -2.555581265e-13 6.606178591 2.251575869e-13 -0.3168109765 1.733544128e-12 -0.167048091 -1.271414296e-13 1.301400918)
(-0.4098503238 -2.28246559e-13 8.211284071 2.236039665e-13 -0.3221206104 0 -0.17618123 -6.680700484e-14 1.30741943)
(-0.4184188844 -2.964172334e-13 10.22551059 2.236023622e-13 -0.3272826163 -1.595601525e-12 -0.1850512242 -1.737797294e-14 1.310392216)
(-0.4246053983 -1.254361603e-13 12.74235876 2.31722749e-13 -0.3322084967 0 -0.193759085 -3.321640125e-14 1.309823051)
(-0.4280124322 5.350196771e-14 15.87081756 2.158336384e-13 -0.3368053569 0 -0.2023011321 -4.815697e-14 1.305072803)
(-0.4281698789 -3.151025969e-15 19.73693743 2.049004661e-13 -0.3409914665 0 -0.2106221706 -5.609221711e-14 1.2954038)
(-0.4242156883 -2.398856972e-14 24.4852705 1.984281229e-13 -0.3446752251 0 -0.2187579554 -5.709166004e-14 1.280027548)
(-0.4153108574 -2.837367182e-14 30.28063182 1.899482068e-13 -0.3477440638 0 -0.226700782 -4.989758979e-14 1.258021554)
(-0.4006259925 -3.111485349e-14 37.30950315 1.848259561e-13 -0.3500854225 0 -0.2343193474 -3.121411675e-14 1.228373507)
(-0.3790591622 -2.642062794e-14 45.78080024 1.795667456e-13 -0.3515744625 0 -0.2415291582 -5.17665714e-14 1.190085478)
(-0.3496916283 -3.81874213e-15 55.92650461 1.734964335e-13 -0.3520713249 0 -0.248191551 -6.491468719e-14 1.142106324)
(-0.3117007802 3.388605319e-14 68.00168258 1.678734625e-13 -0.351443103 0 -0.2541510492 -7.364313487e-14 1.083483411)
(-0.2642546991 9.023477706e-14 82.28420347 1.613953779e-13 -0.3495525162 0 -0.2592474842 -7.944401952e-14 1.013424371)
(-0.206777484 5.085889754e-14 99.07375412 1.515909758e-13 -0.3462689347 0 -0.2632482149 -8.197841447e-14 0.9313188168)
(-0.1388629246 9.182013997e-15 118.6901156 1.488954627e-13 -0.3414732856 0 -0.2659675636 -8.443739175e-14 0.8368530326)
(-0.06053898024 3.339715781e-15 141.4712831 1.440072209e-13 -0.335060221 0 -0.2672107838 -8.287964392e-14 0.7299625589)
(0.02783978999 3.911480928e-15 167.7707385 1.405599001e-13 -0.3269545017 6.15099734e-13 -0.2667893652 -8.950676962e-14 0.6110185381)
(0.1257056149 5.5729265e-14 197.9544625 1.361148965e-13 -0.3171042427 0 -0.2645431376 -8.498600413e-14 0.4808051278)
(0.2318980247 8.785373536e-14 232.3974068 1.318571671e-13 -0.3054882448 0 -0.2603158864 -8.033217129e-14 0.3404762591)
(0.34488656 1.1704578e-13 271.4796524 1.259899381e-13 -0.2921264855 0 -0.25402686 -7.578998864e-14 0.1917199168)
(0.4628609267 1.460485929e-13 315.5831682 1.208689129e-13 -0.277073797 0 -0.2456370285 -7.124943262e-14 0.03664206297)
(0.5834168784 1.76034122e-13 365.0874412 1.141147423e-13 -0.2604243954 0 -0.2351425786 -6.679917586e-14 -0.1222687285)
(0.7037738335 2.077453379e-13 420.3644112 1.086535034e-13 -0.2423184353 0 -0.2225896132 -6.08330038e-14 -0.281964969)
(0.8209068546 2.408761164e-13 481.7752399 1.015272159e-13 -0.2229355367 0 -0.208111602 -5.315298152e-14 -0.4390137336)
(0.9314040694 2.746229528e-13 549.6677258 9.506694906e-14 -0.2024952529 0 -0.1918974234 -4.382085713e-14 -0.5897224577)
(1.031528176 3.076830986e-13 624.3720784 8.866787456e-14 -0.1812565769 0 -0.1741924368 -3.374123485e-14 -0.7300051505)
(1.117279384 3.421962125e-13 706.1974222 8.113794666e-14 -0.1595157099 0 -0.155301193 -3.717656743e-14 -0.8554521193)
(1.184419019 3.807912638e-13 795.4298772 7.392824436e-14 -0.1376033698 0 -0.1355821058 -3.994731844e-14 -0.9613838063)
(1.228479098 4.404931753e-13 892.3304952 6.613921415e-14 -0.1158821662 0 -0.1154357805 -2.934877031e-14 -1.04289309)
(1.244862473 4.781497068e-13 997.133999 5.804721534e-14 -0.09474407648 0 -0.09531570127 -1.617353198e-14 -1.094861991)
(1.228932596 4.978185457e-13 1110.049138 4.978318971e-14 -0.07460527939 0 -0.07572099621 -2.613766797e-14 -1.112085562)
(1.176213867 5.413266277e-13 1231.259652 4.148037139e-14 -0.05590184145 0 -0.05718077282 -3.681178721e-14 -1.089355858)
(1.082445827 5.114881801e-13 1360.925 3.305015681e-14 -0.03908022144 0 -0.04024006068 -5.645850682e-14 -1.021397381)
(0.9413274316 4.810904391e-13 1499.185035 2.628603556e-14 -0.0245932989 0 -0.02546270982 -5.082531663e-14 -0.9028659262)
(0.7390877662 5.360798129e-13 1646.175527 1.927262736e-14 -0.01295230822 0 -0.01346061153 -5.07661508e-14 -0.7283461724)
(0.4684147657 5.922901086e-13 1802.071371 1.174930401e-14 -0.004854952205 0 -0.005039832241 -2.944764805e-14 -0.4923877412)
(0.2290484988 6.337798199e-13 1967.223155 3.995208248e-15 -0.0008667436378 0 -0.0008906092488 -9.843066741e-15 -0.1894261136)
(-0.1803103177 -1.088360417e-13 0.1288208954 5.699686682e-13 -0.2938214258 0 -0.009327376658 -2.912269887e-13 1.121145733)
(-0.2418013339 -2.798054916e-13 0.3040727107 2.874733777e-13 -0.2575753821 0 -0.02433147508 -8.313897657e-13 1.12343813)
(-0.2430224042 -3.206548421e-13 0.5027320326 3.166431819e-13 -0.2477896026 0 -0.03842744148 -4.312315252e-13 1.12831481)
(-0.2549238715 -2.005823976e-13 0.7161533415 3.07972116e-13 -0.2481633621 0 -0.05280960486 -3.5255751e-13 1.135424843)
(-0.2641033779 -1.493491861e-13 0.9509413603 2.695261115e-13 -0.2504060251 0 -0.06682488756 -9.657904053e-14 1.144510675)
(-0.2741280396 -2.005939231e-13 1.215259881 2.52534328e-13 -0.2534564579 0 -0.08038653119 -1.175808506e-13 1.155353947)
(-0.2856713712 -2.219172339e-13 1.519802699 2.490273492e-13 -0.2571528004 0 -0.09350986576 9.511577102e-14 1.167589396)
(-0.2983525481 -1.97449731e-13 1.878422314 2.438400109e-13 -0.2614048038 0 -0.1060937872 -8.600730253e-16 1.180912586)
(-0.3117840936 -1.657668348e-13 2.308833881 2.381851323e-13 -0.2660930988 0 -0.1181451329 -4.141467622e-14 1.19488909)
(-0.3257664097 -1.599974135e-13 2.833839972 2.282637057e-13 -0.2711310943 0 -0.1297382805 -4.77259877e-14 1.208975929)
(-0.3399389137 -1.500777526e-13 3.482783316 2.238504863e-13 -0.2764442905 0 -0.1408811976 1.185576911e-13 1.222620447)
(-0.353817391 -1.311628755e-13 4.292772367 2.157689808e-13 -0.2819453905 0 -0.1515761827 4.875045465e-14 1.23526499)
(-0.3669929111 -9.297122469e-14 5.309874984 2.107490176e-13 -0.2875403703 0 -0.1618375258 -5.094950091e-14 1.246341158)
(-0.379124314 -1.70981853e-13 6.59026121 2.014567883e-13 -0.2931416727 0 -0.1716913456 -1.075764105e-13 1.255292038)
(-0.3897673929 -2.409590977e-13 8.20128717 2.049703026e-13 -0.298666096 0 -0.1812068438 -1.329720135e-13 1.261620423)
(-0.3984192798 -1.797261202e-13 10.22274046 2.033457022e-13 -0.3040230627 -1.595601525e-12 -0.190480816 -1.774562367e-13 1.264860575)
(-0.4046977873 -1.251275807e-13 12.74839193 2.031335786e-13 -0.3091214094 0 -0.1995294894 -2.154702939e-13 1.26448712)
(-0.4082960863 -9.274244065e-14 15.88753719 1.968752783e-13 -0.3138784892 0 -0.2082958271 -1.843042638e-13 1.259890427)
(-0.4086411266 -8.659055368e-14 19.76642609 1.928474975e-13 -0.3182176069 0 -0.2167927068 -1.310271373e-13 1.250410047)
(-0.4048817223 -7.758863153e-14 24.5299677 1.880573151e-13 -0.3220450142 0 -0.2250531785 -9.956681773e-14 1.235348296)
(-0.3963553632 -6.548019238e-14 30.3433954 1.818365396e-13 -0.3252528989 0 -0.2329910861 -7.965988446e-14 1.213837767)
(-0.3823143933 -5.12189201e-14 37.39336579 1.795262871e-13 -0.3277398936 0 -0.2405347247 -6.682923632e-14 1.184958655)
(-0.3617559085 -3.470693588e-14 45.88898894 1.724101e-13 -0.3293891674 0 -0.2476108414 -6.109194149e-14 1.147804844)
(-0.3338246472 -1.528372137e-14 56.06236206 1.683747676e-13 -0.3300749163 0 -0.2540340829 -5.747324087e-14 1.101438099)
(-0.2976816754 6.299938812e-15 68.16841166 1.634557398e-13 -0.3296726995 0 -0.2596774499 -5.261392041e-14 1.045015621)
(-0.2526505513 2.725786441e-14 82.48471429 1.58279637e-13 -0.3280538743 0 -0.2643923886 -4.373068572e-14 0.9777838642)
(-0.1982548716 4.174191931e-14 99.310425 1.515909758e-13 -0.3251022817 0 -0.2679767662 -2.701179666e-14 0.8991997108)
(-0.1341002511 5.424348664e-14 118.9647109 1.464545535e-13 -0.3207093916 0 -0.2702492761 -4.134708876e-14 0.8089945854)
(-0.06019753852 6.860480556e-14 141.7847033 1.403767867e-13 -0.3147804806 0 -0.2709963534 -5.044800578e-14 0.7071391852)
(0.02315496052 6.111952923e-14 168.1227145 1.363551168e-13 -0.3072464036 1.230199468e-12 -0.2700707443 -7.794730726e-14 0.5939929726)
(0.1153457813 5.801113908e-14 198.3435513 1.307419401e-13 -0.2980600314 0 -0.2673372031 -7.322004466e-14 0.4702637282)
(0.2153033747 8.165378965e-14 232.8207286 1.265116062e-13 -0.2872062413 0 -0.2626352509 -6.93641208e-14 0.3370748871)
(0.321678746 1.087231612e-13 271.9327537 1.212579216e-13 -0.2747039012 0 -0.2559010504 -6.710728209e-14 0.1960039684)
(0.4327427348 1.366805612e-13 316.0600996 1.155624728e-13 -0.2606046164 0 -0.247107203 -6.693063038e-14 0.04897595172)
(0.5462190522 1.629674739e-13 365.5804088 1.094089797e-13 -0.2449981836 0 -0.2362491262 -6.986592835e-14 -0.1016602926)
(0.6595368559 1.899360055e-13 420.8636934 1.045422898e-13 -0.2280169759 0 -0.2233907535 -6.065204151e-14 -0.2530475537)
(0.7698960471 2.215371625e-13 482.2695511 9.741917824e-14 -0.2098291823 0 -0.2086592768 -5.060429181e-14 -0.4019831079)
(0.8741069828 2.589217311e-13 550.1440483 9.213278396e-14 -0.1906401766 0 -0.1922399172 -3.671743067e-14 -0.5450236969)
(0.9686656855 2.987104538e-13 624.815439 8.543824999e-14 -0.170692348 0 -0.1743766576 -4.155379423e-14 -0.6783298943)
(1.049809493 3.37726253e-13 706.5910046 7.878612212e-14 -0.1502630826 0 -0.1553700606 -4.37017102e-14 -0.7977502723)
(1.11351663 3.775680632e-13 795.7550643 7.127743082e-14 -0.1296625684 0 -0.1355699297 -4.479258102e-14 -0.8988655017)
(1.155577661 4.185395213e-13 892.5668716 6.377709936e-14 -0.109232064 0 -0.1153681173 -4.604765158e-14 -0.977005409)
(1.171666806 4.608556256e-13 997.2595577 5.567794125e-14 -0.08933975102 0 -0.09522107434 -3.692480376e-14 -1.027331839)
(1.157377826 5.071467986e-13 1110.040556 4.785130473e-14 -0.07037736929 0 -0.07561946219 -3.413400738e-14 -1.044950555)
(1.108430736 5.60936373e-13 1231.092143 3.939143182e-14 -0.05275596932 0 -0.05708950784 -3.145597738e-14 -1.024878338)
(1.020744642 5.094101034e-13 1360.572238 3.057701582e-14 -0.03689767046 0 -0.04017044835 -3.388623121e-14 -0.962029318)
(0.8882827789 4.537384752e-13 1498.619173 2.417712726e-14 -0.02323108407 0 -0.02541679045 -2.845773369e-14 -0.8512843338)
(0.6979120006 4.997140509e-13 1645.367006 1.768235162e-14 -0.01224167954 0 -0.01343690685 -2.320970272e-14 -0.6874476708)
(0.4426499192 5.419635469e-13 1800.988781 1.074956582e-14 -0.004592271995 0 -0.005031680474 -1.460212595e-14 -0.4652180317)
(0.2166995224 5.794560193e-13 1965.832188 3.650298184e-15 -0.0008208965537 0 -0.0008893461498 -5.109138945e-15 -0.1791892984)
(-0.160936052 9.934547486e-13 0.1257968313 -7.592921785e-13 -0.2621861169 0 -0.009497226649 3.072950874e-14 1.067982897)
(-0.2160554045 -5.307878935e-13 0.2971315877 -1.130091307e-12 -0.2298774788 0 -0.02478061906 1.313369836e-13 1.070400461)
(-0.2177655172 -1.153403285e-12 0.4916947087 2.315874336e-14 -0.221305097 0 -0.03912176679 2.359084108e-13 1.075505943)
(-0.2293710174 -4.393170732e-13 0.7012218332 1.985121471e-13 -0.2219382369 0 -0.05371045779 4.596086537e-14 1.082905568)
(-0.2388040748 -1.648427841e-13 0.9323235568 2.121590859e-13 -0.2243515462 0 -0.06799404515 2.104857668e-15 1.092365568)
(-0.2491833276 -4.379908503e-13 1.193368438 1.888807e-13 -0.227570646 0 -0.08183298471 -9.987567335e-15 1.103659696)
(-0.2611544131 -3.941083177e-13 1.495179245 2.72192684e-13 -0.2314357663 0 -0.09522409545 -2.396970186e-14 1.116397241)
(-0.2743808749 -7.855164536e-14 1.8516516 2.45775249e-13 -0.2358727921 0 -0.1081630984 -2.425362713e-14 1.130222479)
(-0.2883552799 -6.807085655e-14 2.280783446 2.28821589e-13 -0.2407677525 0 -0.1205762381 -1.955557615e-15 1.144734916)
(-0.3027958668 -3.39931415e-13 2.80561352 2.110362562e-13 -0.2460167048 0 -0.1324926173 -9.7017815e-14 1.159395875)
(-0.3174095981 -2.505759245e-13 3.455562696 2.458849861e-13 -0.2515375179 0 -0.1439666341 -8.480159803e-14 1.173605685)
(-0.3317707795 4.016655335e-14 4.267795787 2.190595752e-13 -0.2572458871 0 -0.1550162996 -7.115616972e-14 1.18676124)
(-0.3454248738 -3.249707336e-14 5.288419215 2.045243631e-13 -0.2630512128 0 -0.1656454034 -5.46913225e-14 1.198283911)
(-0.3579075322 -8.157730239e-14 6.573559923 1.946851315e-13 -0.2688611759 1.733544128e-12 -0.175902376 1.80179109e-15 1.207640766)
(-0.3687498648 -7.419366071e-14 8.190558629 1.895772759e-13 -0.2745808219 0 -0.1858606217 -4.227705573e-14 1.21434781)
(-0.3775828127 -1.129934207e-13 10.21934817 1.815308376e-13 -0.2801157811 -1.595601525e-12 -0.1955405088 -5.38111214e-14 1.21791781)
(-0.3841553481 -1.140326727e-13 12.75389534 1.80563181e-13 -0.2853816595 0 -0.2049102039 -6.111912595e-14 1.217822909)
(-0.3880751194 -1.43066405e-13 15.90366101 1.742710796e-13 -0.2903049724 0 -0.2139329823 -5.741993236e-14 1.213508237)
(-0.3886696607 -2.015458801e-13 19.79508762 1.7654054e-13 -0.2948047487 0 -0.2226608402 -5.533356073e-14 1.204407391)
(-0.3853175768 -1.466436276e-13 24.57343547 1.776865073e-13 -0.298785804 0 -0.231097544 -5.327127269e-14 1.189844397)
(-0.3774365669 -1.080499419e-13 30.40429534 1.744008447e-13 -0.3021557986 0 -0.2391067943 -5.116049812e-14 1.169036307)
(-0.3641890571 -7.699464173e-14 37.47452069 1.715767836e-13 -0.3048164958 0 -0.2466497507 -4.934546587e-14 1.141177288)
(-0.3447897464 -5.005458615e-14 45.99337107 1.672052668e-13 -0.3066555825 0 -0.253656515 -4.989994257e-14 1.105405579)
(-0.3184888926 -2.581214597e-14 56.19296511 1.632531016e-13 -0.3075636971 0 -0.2599533544 -5.056817871e-14 1.060881398)