/*--------------------------------*- C++ -*----------------------------------*\
  =========                 |
  \\      /  F ield         | OpenFOAM: The Open Source CFD Toolbox
   \\    /   O peration     | Website:  https://openfoam.org
    \\  /    A nd           | Version:  7
     \\/     M anipulation  |
\*---------------------------------------------------------------------------*/
FoamFile
{
    version     2.0;
    format      ascii;
    class       volScalarField;
    location    "0.0021";
    object      p;
}
// * * * * * * * * * * * * * * * * * * * * * * * * * * * * * * * * * * * * * //

dimensions      [1 -1 -2 0 0 0 0];

internalField   nonuniform List<scalar> 
1167
(
340151.5965
341553.4839
341523.9288
341752.3275
342167.2073
342691.2363
343314.1104
344034.4928
344851.0547
345754.2282
346721.739
347728.6981
348746.7662
349747.1158
350702.9341
351593.3667
352405.5238
329855.5111
331179.6938
331151.6247
331365.0132
331764.4409
332262.4608
332864.5915
333559.1534
334346.8181
335218.5777
336155.0759
337132.0392
338121.0882
339092.9513
340021.61
340886.9668
341676.0661
342387.1206
343020.041
343578.1226
344069.2414
344500.1363
344877.1194
345207.5293
345496.3326
345748.8598
345969.2758
346160.9438
346327.352
346470.9792
346594.2892
346699.3349
346787.8607
346861.6371
346922.1221
346970.6102
347008.2522
347036.1933
347055.4178
347066.8075
347071.1572
347069.1809
347061.5151
347048.73
347031.3662
347009.9604
346984.8955
346955.8003
346921.7418
346887.8246
319577.7998
320818.2038
320789.0088
320995.2143
321376.4421
321849.8235
322423.6267
323094.0536
323853.214
324694.4214
325599.5324
326544.6408
327502.018
328443.2263
329342.7273
330180.4325
330946.2728
331636.5148
332250.3752
332791.5937
333268.0226
333685.2991
334050.4418
334370.0027
334648.8906
334892.6817
335105.1236
335289.8733
335450.1403
335588.3782
335707.1523
335808.3728
335893.7477
335965.022
336023.5854
336070.664
336107.4129
336134.8993
336154.056
336165.7179
336170.6358
336169.481
336162.8468
336151.2721
336135.2726
336115.3591
336091.8876
336064.4955
336032.291
336000.136
309317.8436
310466.344
310438.9718
310639.0654
310997.205
311449.4831
311993.5658
312637.9549
313369.2419
314179.138
315051.6115
315963.651
316888.1169
317797.0265
318664.9927
319474.3418
320215.8003
320883.3485
321476.5639
322000.6749
322461.5552
322864.6662
323217.7351
323526.3059
323795.4653
324030.5381
324235.1483
324413.2099
324567.585
324700.7292
324815.1747
324912.7744
324995.2128
325064.1657
325120.9615
325166.757
325202.7192
325229.8343
325248.9851
325260.9626
325266.4755
325266.1528
325260.5504
325250.1865
325235.5468
325217.1089
325195.21
325169.5013
325139.1307
325108.7195
299067.4966
300126.0286
300108.2715
300297.4188
300629.8956
301062.4538
301579.1493
302191.1763
302894.3328
303673.374
304512.2084
305389.7354
306279.452
307153.3672
307988.8595
308769.7373
309484.3819
310127.618
310699.3995
311205.3914
311649.9627
312038.803
312379.2748
312676.4931
312936.0179
313162.4758
313359.4831
313530.9265
313679.5113
313807.8019
313918.1137
314012.2325
314091.9155
314158.6944
314213.8489
314258.4887
314293.7439
314320.549
314339.7414
314352.0686
314358.1962
314358.7097
314354.1478
314345.0016
314331.7229
314314.7554
314294.4207
314270.3865
314241.8412
314213.1668
288835.4779
289803.7081
289793.4041
289969.3038
290279.5805
290686.9925
291176.8768
291756.2741
292426.6599
293173.7216
293978.9325
294820.5186
295673.31
296511.9294
297314.9181
298065.1373
298751.3188
299368.687
299919.0354
300405.7129
300832.9801
301207.4787
301535.0977
301820.868
302070.6354
302288.4043
302477.9656
302642.8989
302785.8075
302909.3988
303015.7244
303106.5083
303183.5573
303248.2681
303301.8627
303345.4322
303380.0453
303406.5906
303425.8619
303438.5645
303445.3212
303446.6838
303443.1741
303435.2517
303423.3375
303407.8462
303389.0795
303366.7213
303340.0037
303313.0695
278630.8198
279499.1789
279492.0636
279650.6977
279942.3353
280320.0405
280785.4123
281334.275
281969.3505
282680.8243
283450.3933
284255.2606
285070.9864
285874.0996
286642.6301
287360.2138
288016.3869
288607.2956
289135.2023
289601.7615
290011.2486
290370.8634
290685.2368
290959.6105
291199.3908
291408.3457
291590.5291
291749.0326
291886.4074
292005.3436
292107.7705
292195.3522
292269.8354
292332.5435
292384.6212
292427.1786
292461.1964
292487.517
292506.8926
292519.9861
292527.3773
292529.6065
292527.1625
292520.4735
292509.932
292495.9262
292478.7379
292458.0674
292433.1917
292408.0122
268446.3794
269209.0023
269203.8875
269347.849
269619.582
269966.9363
270404.2969
270922.9553
271523.9131
272198.3311
272929.7689
273696.5481
274474.3178
275239.3495
275971.291
276654.7232
277279.4228
277843.8779
278347.8957
278793.1958
279184.9673
279528.9987
279829.6003
280092.5056
280322.2163
280522.3845
280697.1048
280849.1495
280981.0795
281095.4018
281193.9445
281278.4011
281350.3766
281411.1307
281461.7436
281503.3197
281536.7665
281562.8808
281582.3735
281595.8662
281603.9032
281607.0093
281605.6414
281600.1974
281591.0428
281578.5387
281562.9467
281543.985
281520.9764
281497.5768
258284.1345
258933.4441
258927.864
259064.1573
259311.4636
259629.8463
260032.0947
260521.3761
261087.5952
261724.4337
262416.7871
263143.4441
263880.7965
264606.1797
265300.1033
265947.4705
266540.7991
267077.7037
267556.9024
267980.2113
268353.8037
268681.849
268968.4751
269219.5918
269438.9977
269630.4119
269797.5681
269943.0581
270069.5923
270179.325
270273.983
270355.3497
270424.8412
270483.6612
270532.8439
270573.4451
270606.3248
270632.2357
270651.8434
270665.7243
270674.4169
270678.41
270678.1285
270673.943
270666.1933
270655.2133
270641.2427
270624.02
270602.9151
270581.3317
248137.1936
248665.4015
248667.7216
248794.3387
249011.9668
249304.9779
249672.227
250127.5172
250659.7622
251257.9741
251909.4997
252594.421
253289.9714
253974.2512
254628.2213
255239.0315
255800.7064
256308.5779
256761.8428
257163.2651
257517.8289
257829.1936
258101.8609
258340.822
258549.6117
258732.2159
258891.7433
259030.656
259151.7302
259256.8509
259347.6532
259425.9075
259492.8977
259549.7424
259597.4975
259637.1204
259669.4247
259695.1211
259714.8329
259729.0955
259738.4409
259743.323
259744.1358
259741.2233
259734.8999
259725.4727
259713.1594
259697.7177
259678.5648
259658.8448
238003.7873
238412.7354
238428.0848
238540.2771
238727.3988
238994.0695
239328.0164
239743.6144
240239.1344
240799.3177
241408.7506
242050.1482
242701.9531
243342.6405
243955.8223
244530.343
245058.5745
245536.2866
245962.737
246341.9692
246676.9061
246971.0443
247229.5196
247456.0906
247654.134
247827.7077
247979.4711
248111.7874
248227.2812
248327.7084
248414.6383
248489.7292
248554.1763
248609.0088
248655.305
248693.9193
248725.6179
248751.0672
248770.8464
248785.4825
248795.4715
248801.2373
248803.147
248801.5199
248796.6458
248788.8052
248778.1943
248764.5877
248747.4489
248729.6534
227894.0314
228181.7027
228203.04
228296.9951
228459.3747
228692.3556
228994.8888
229372.1123
229825.368
230344.3764
230911.4701
231508.0122
232114.1083
232710.9813
233283.608
233820.3668
234313.8679
234760.3459
235160.1032
235516.2866
235831.0074
236107.7504
236351.4655
236565.2296
236752.4749
236916.7457
237060.4634
237186.1441
237295.9688
237391.5649
237474.5794
237546.4476
237608.2955
237661.0932
237705.8681
237743.4182
237774.4614
237799.6174
237819.4208
237834.3998
237845.0115
237851.6496
237854.6561
237854.3269
237850.9284
237844.7144
237835.8589
237824.1524
237809.1047
237793.3099
217808.9028
217964.6058
217990.7308
218064.5706
218203.5651
218400.2205
218672.1384
219011.7006
219421.8965
219895.5599
220417.5763
220968.0042
221527.9844
222080.8319
222611.4207
223108.8191
223566.584
223980.9449
224353.7378
224686.0154
224979.7055
225238.9951
225467.5135
225668.0411
225844.3299
225999.1056
226134.6071
226253.4925
226357.5168
226448.1794
226527.1715
226595.7158
226654.8518
226705.544
226748.723
226785.1347
226815.4494
226840.2424
226860.0224
226875.2953
226886.4885
226893.9704
226898.0606
226899.034
226897.1347
226892.5901
226885.5511
226875.8246
226862.9666
226849.2712
207743.1358
207759.7944
207788.3216
207849.3232
207962.4131
208123.5016
208358.2799
208660.7309
209028.4585
209456.2265
209930.2031
210432.6293
210945.3391
211451.8004
211938.4996
212395.3524
212815.9604
213198.5845
213543.4779
213851.1517
214123.3564
214364.6978
214577.6236
214764.6732
214929.624
215074.6477
215201.8234
215313.6388
215411.679
215497.3152
215572.1233
215637.2097
215693.5055
215741.9976
215783.4891
215818.6741
215848.1732
215872.5118
215892.2028
215907.711
215919.4366
215927.7265
215932.8812
215935.1584
215934.7825
215931.9554
215926.805
215919.1535
215908.6026
215897.1257
197695.4237
197564.0712
197596.7522
197648.6803
197731.1955
197860.0851
198053.5464
198318.5817
198642.591
199023.02
199447.8589
199900.4015
200363.6662
200822.441
201264.2229
201679.2513
202062.4164
202412.9291
202728.9587
203011.1374
203262.0319
203484.7476
203681.4665
203854.9379
204008.1497
204143.0062
204261.7197
204366.2595
204458.0519
204538.5253
204608.9942
204670.4725
204723.8065
204769.9517
204809.6185
204843.4462
204872.0052
204895.7758
204915.2684
204930.9111
204943.0804
204952.1053
204958.2728
204961.8281
204962.9808
204961.9113
204958.7265
204953.2672
204945.1816
204936.087
187654.8594
187375.2586
187421.9895
187460.715
187508.858
187608.5754
187761.5836
187982.1082
188263.7128
188595.6381
188969.3253
189370.2548
189782.7471
190192.6361
190588.0082
190960.4022
191306.5857
191623.6336
191909.9628
192166.0283
192395.1856
192598.788
192778.8066
192938.3961
193079.5537
193203.9553
193313.9652
193411.0072
193496.3432
193571.4851
193637.4526
193695.1628
193745.4241
193789.0943
193826.8183
193859.174
193886.6749
193909.7921
193928.9941
193944.6825
193957.2146
193966.9062
193974.0362
193978.8441
193981.5322
193982.266
193981.1352
193978.0008
193972.5571
193966.0335
177629.1713
177203.6102
177265.0268
177288.1827
177303.9619
177371.0105
177483.6896
177655.5413
177890.429
178174.5388
178495.7344
178843.2649
179203.2974
179562.2645
179909.9528
180240.0987
180548.2497
180830.8943
181086.6409
181316.7379
181523.3219
181707.2334
181870.2784
182015.4036
182144.083
182257.7731
182358.6273
182447.8314
182526.4793
182595.9686
182657.1483
182710.8009
182757.7585
182798.7224
182834.2748
182864.9326
182891.1489
182913.4015
182932.1079
182947.6435
182960.3493
182970.5338
182978.4755
182984.4193
182988.5735
182991.1027
182992.0953
182991.4524
182988.9258
182985.2762
167633.1453
167056.7872
167126.1131
167127.3367
167117.223
167143.7675
167218.6236
167343.5573
167524.3872
167755.5984
168023.6598
168316.4445
168622.0183
168929.299
169229.5419
169516.7108
169785.462
170032.8676
170257.3068
170461.0366
170644.3873
170807.9163
170953.9081
171084.1787
171199.9195
171302.7903
171394.294
171475.4343
171547.3103
171611.0384
171667.3426
171716.8844
171760.48
171798.6924
171832.0347
171860.9631
171885.8774
171907.232
171925.4028
171940.7377
171953.561
171964.1752
171972.8638
171979.8873
171985.4757
171989.8132
171993.0061
171995.0114
171995.6483
171995.1771
157685.8411
156950.6362
157023.8704
157000.0793
156960.9494
156942.7146
156976.5773
157052.6511
157178.7926
157351.9149
157563.1525
157799.2757
158049.4392
158304.5216
158556.1449
158798.1167
159025.9339
159236.4978
159429.4385
159605.4689
159764.444
159906.6383
160034.6218
160149.1389
160251.1011
160342.3614
160423.7503
160496.0759
160560.5093
160617.8113
160668.5949
160713.4426
160753.0661
160787.9441
160818.5091
160845.143
160868.2405
160888.1895
160905.3293
160919.9818
160932.4558
160943.0507
160952.062
160959.7796
160966.4787
160972.4004
160977.7294
160982.5741
160986.9037
160990.2684
147770.4769
146910.5328
146983.5898
146939.94
146857.0053
146784.5133
146758.1331
146777.7238
146842.4215
146952.256
147099.5731
147274.1599
147465.9418
147665.8773
147866.3261
148061.875
148247.9003
148421.4471
148583.0317
148731.2465
148865.8574
148987.5477
149097.7676
149196.9653
149285.8765
149365.9851
149437.8426
149502.0414
149559.639
149611.144
149657.0124
149697.8386
149734.1376
149766.3065
149794.6975
149819.6136
149841.4386
149860.4832
149877.0403
149891.396
149903.8334
149914.6396
149924.1157
149932.5814
149940.371
149947.8124
149955.2155
149962.902
149971.0804
149978.686
138379.7879
137149.7681
137148.5694
137058.0332
136916.5086
136791.6746
136703.5149
136664.7915
136664.4307
136704.5852
136780.5303
136883.966
137006.4217
137140.3031
137279.0712
137417.7394
137551.658
137679.7457
137800.608
137912.5545
138015.0345
138109.251
138195.1706
138272.927
138343.4459
138407.3851
138465.0305
138516.9276
138563.7603
138605.8452
138643.4589
138677.1627
138707.2603
138734.0457
138757.779
138778.6996
138797.1185
138813.2835
138827.4332
138839.8076
138850.6531
138860.2314
138868.836
138876.8062
138884.5364
138892.48
138901.2168
138911.6388
138924.6269
138937.972
127151.4813
126630.0151
126820.3539
126720.0121
126515.6329
126329.5511
126176.0712
126075.119
126024.563
126016.0706
126046.741
126108.9556
126194.1583
126294.5904
126403.3414
126514.7518
126625.9289
126734.7607
126838.5574
126935.6292
127025.7286
127109.5063
127186.4014
127256.3777
127320.5884
127379.1182
127432.1226
127480.3473
127524.1354
127563.7534
127599.4363
127631.6843
127660.743
127686.8438
127710.1798
127731.0069
127749.5558
127766.0277
127780.6177
127793.522
127804.9439
127815.1049
127824.2663
127832.7532
127840.9792
127849.4722
127859.0159
127871.0417
127887.391
127905.8085
126120.2452
123664.5495
123046.4334
122391.6802
121662.8869
120953.5817
120281.4622
119666.7396
119123.2242
118647.7738
118237.8575
117891.5477
117604.0227
117368.1466
117176.8226
117024.4406
116905.8145
116814.2889
116744.7387
116692.3101
116654.9394
116629.3468
116612.4587
116602.4848
116598.2082
116598.0064
116600.5441
116605.4654
116611.9038
116619.1932
116627.0124
116635.1004
116643.1873
116651.0647
116658.5408
116665.6176
116672.2329
116678.3617
116684.0063
116689.1948
116693.9803
116698.4465
116702.7252
116707.0172
116711.6084
116716.9217
116723.9299
116735.3133
116755.329
116780.6362
102768.9304
102972.4443
103367.5522
103474.5513
103523.5785
103592.5809
103684.7115
103796.0101
103922.8261
104059.0997
104195.4919
104328.7743
104456.5648
104576.3092
104686.8301
104788.9112
104882.0747
104966.345
105042.2786
105110.1575
105171.6598
105227.0578
105276.7017
105321.5128
105362.058
105398.697
105431.7245
105461.7573
105488.9968
105513.6237
105535.9973
105556.2843
105574.6498
105591.2338
105606.136
105619.5189
105631.481
105642.1158
105651.5117
105659.7546
105666.9301
105673.1277
105678.4518
105683.0344
105687.0394
105690.675
105694.4863
105700.5327
105713.4969
105734.2598
)
;

boundaryField
{
    front_top
    {
        type            wedge;
    }
    front_middle
    {
        type            wedge;
    }
    front_bottom
    {
        type            wedge;
    }
    back_top
    {
        type            wedge;
    }
    back_middle
    {
        type            wedge;
    }
    back_bottom
    {
        type            wedge;
    }
    axis_top
    {
        type            symmetryPlane;
    }
    axis_middle
    {
        type            symmetryPlane;
    }
    axis_bottom
    {
        type            symmetryPlane;
    }
    wall_top
    {
        type            fixedFluxPressure;
        gradient        nonuniform 0();
        value           nonuniform 0();
    }
    wall_middle
    {
        type            fixedFluxPressure;
        gradient        nonuniform 0();
        value           nonuniform 0();
    }
    wall_bottom
    {
        type            fixedFluxPressure;
        gradient        uniform 0;
        value           nonuniform List<scalar> 
23
(
346887.8246
336000.136
325108.7195
314213.1668
303313.0695
292408.0122
281497.5768
270581.3317
259658.8448
248729.6534
237793.3099
226849.2712
215897.1257
204936.087
193966.0335
182985.2762
171995.1771
160990.2684
149978.686
138937.972
127905.8085
116780.6362
105734.2598
)
;
    }
    inlet
    {
        type            zeroGradient;
    }
    outlet
    {
        type            fixedValue;
        value           uniform 100000;
    }
    procBoundary0to1
    {
        type            processor;
        value           nonuniform List<scalar> 
51
(
350467.747
351939.8329
351908.3131
352151.1106
352582.1878
353131.0907
353774.5989
354521.5807
355369.6048
356301.4744
357298.1605
358334.4613
359381.0122
360407.4602
361387.611
362300.8776
363134.0144
353135.4113
353135.4113
353785.8737
354360.2272
354865.0335
355308.7601
355697.6214
356038.759
356337.599
356598.9552
356827.4675
357026.4126
357199.2873
357348.6384
357476.7629
357585.9145
357677.8886
357754.3808
357816.9711
357867.003
357905.6723
357934.1742
357953.5444
357964.7156
357968.5307
357965.748
357957.0464
357943.0366
357924.2882
357901.3661
357874.6808
357843.8518
357807.9055
357772.1942
)
;
    }
}


// ************************************************************************* //
