/*--------------------------------*- C++ -*----------------------------------*\
  =========                 |
  \\      /  F ield         | OpenFOAM: The Open Source CFD Toolbox
   \\    /   O peration     | Website:  https://openfoam.org
    \\  /    A nd           | Version:  7
     \\/     M anipulation  |
\*---------------------------------------------------------------------------*/
FoamFile
{
    version     2.0;
    format      ascii;
    class       surfaceScalarField;
    location    "0.0021";
    object      phi;
}
// * * * * * * * * * * * * * * * * * * * * * * * * * * * * * * * * * * * * * //

dimensions      [1 0 -1 0 0 0 0];

internalField   nonuniform List<scalar> 
2260
(
-7.893273891e-15
5.791598124e-11
-3.106029061e-14
1.694591913e-10
-6.886472183e-14
2.747486554e-10
-1.208343276e-13
3.740227422e-10
-1.866175859e-13
4.675144313e-10
-2.659342909e-13
5.554505351e-10
-3.585838666e-13
6.380515015e-10
-4.644321756e-13
7.155305299e-10
-5.833287668e-13
7.880932485e-10
-7.150721475e-13
8.559370324e-10
-8.594721507e-13
9.192501513e-10
-1.016274437e-12
9.782109827e-10
-1.185142349e-12
1.032986915e-09
-1.365614763e-12
1.083733208e-09
-1.557113257e-12
1.130591841e-09
-1.758938841e-12
1.173690322e-09
1.213140542e-09
-7.34252912e-15
5.792332377e-11
-2.890222448e-14
1.69480751e-10
-6.411688626e-14
2.7478387e-10
-1.126150485e-13
3.740712404e-10
-1.7408155e-13
4.675758978e-10
-2.483826683e-13
5.555248363e-10
-3.353352005e-13
6.38138454e-10
-4.349189078e-13
7.156301136e-10
-5.470593552e-13
7.88205389e-10
-6.716432431e-13
8.560616163e-10
-8.08524705e-13
9.193870327e-10
-9.574771373e-13
9.783599351e-10
-1.118171762e-12
1.03314761e-09
-1.290164089e-12
1.0839052e-09
-1.472881942e-12
1.130774559e-09
-1.665609431e-12
1.173883049e-09
-1.867559256e-12
1.213342492e-09
-2.077557308e-12
1.249247674e-09
-2.294220133e-12
1.281675099e-09
-2.515975959e-12
1.310682043e-09
-2.740732348e-12
1.336305216e-09
-2.966023203e-12
1.358559075e-09
-3.189083495e-12
1.377435661e-09
-3.406487003e-12
1.39290293e-09
-3.614606385e-12
1.404904671e-09
-3.809306438e-12
1.413359915e-09
-3.986176983e-12
1.418162921e-09
-4.140753747e-12
1.419184198e-09
-4.268309987e-12
1.416270656e-09
-4.364373389e-12
1.409247801e-09
-4.42463044e-12
1.39792131e-09
-4.445206629e-12
1.382079248e-09
-4.422925557e-12
1.361495341e-09
-4.355260996e-12
1.335931974e-09
-4.240681917e-12
1.30514362e-09
-4.078765489e-12
1.268880686e-09
-3.870397679e-12
1.226894294e-09
-3.617724424e-12
1.178939073e-09
-3.324372395e-12
1.124778211e-09
-2.995486562e-12
1.064187228e-09
-2.637780173e-12
9.969575178e-10
-2.259561131e-12
9.229001917e-10
-1.870735776e-12
8.418493772e-10
-1.482789558e-12
7.536647092e-10
-1.108722665e-12
6.582339289e-10
-7.629918475e-13
5.554743758e-10
-4.614556274e-13
4.453344422e-10
-2.21293764e-13
3.277936239e-10
-6.093168324e-14
2.028611505e-10
7.056963295e-11
-6.774734361e-15
5.79300985e-11
-2.667738429e-14
1.695006537e-10
-5.923559734e-14
2.748164283e-10
-1.041353985e-13
3.741161402e-10
-1.61150583e-13
4.676329129e-10
-2.302390555e-13
5.555939247e-10
-3.113267125e-13
6.382195416e-10
-4.044162538e-13
7.157232031e-10
-5.095440394e-13
7.883105168e-10
-6.266655088e-13
8.561787377e-10
-7.556906522e-13
9.195160579e-10
-8.964361945e-13
9.785006807e-10
-1.048603215e-12
1.033299777e-09
-1.211765153e-12
1.084068362e-09
-1.385354696e-12
1.130948148e-09
-1.568711236e-12
1.174066406e-09
-1.760947659e-12
1.213534728e-09
-1.960899936e-12
1.249447627e-09
-2.167233282e-12
1.281881432e-09
-2.37840274e-12
1.310893212e-09
-2.592312334e-12
1.336519125e-09
-2.80666962e-12
1.358773432e-09
-3.018732153e-12
1.377647724e-09
-3.225269482e-12
1.393109467e-09
-3.42287722e-12
1.405102279e-09
-3.607565809e-12
1.413544604e-09
-3.775259491e-12
1.418330615e-09
-3.921673747e-12
1.419330612e-09
-4.042402647e-12
1.416391384e-09
-4.133284685e-12
1.409338683e-09
-4.190214771e-12
1.397978241e-09
-4.209587472e-12
1.38209862e-09
-4.188435562e-12
1.361474189e-09
-4.124376136e-12
1.335867915e-09
-4.015974856e-12
1.305035219e-09
-3.86286659e-12
1.268727577e-09
-3.665836738e-12
1.226697264e-09
-3.426908554e-12
1.178700144e-09
-3.149481804e-12
1.124500784e-09
-2.838389169e-12
1.063876135e-09
-2.499945589e-12
9.966190742e-10
-2.141977911e-12
9.22542224e-10
-1.773844468e-12
8.414812438e-10
-1.406403103e-12
7.532972679e-10
-1.051954652e-12
6.578794805e-10
-7.241911213e-13
5.551466122e-10
-4.381662497e-13
4.450484173e-10
-2.102216536e-13
3.275656793e-10
-5.791832178e-14
2.027088472e-10
7.051171463e-11
-6.191718904e-15
5.793629022e-11
-2.439789206e-14
1.695188598e-10
-5.422825673e-14
2.748462586e-10
-9.542213092e-14
3.74157334e-10
-1.478780901e-13
4.676853689e-10
-2.115902394e-13
5.556576369e-10
-2.866315272e-13
6.382945829e-10
-3.730311564e-13
7.158096028e-10
-4.709056523e-13
7.884083913e-10
-5.802960829e-13
8.562881282e-10
-7.01170736e-13
9.196369325e-10
-8.333933415e-13
9.786329033e-10
-9.767004428e-13
1.033443084e-09
-1.130689724e-12
1.084222352e-09
-1.294845015e-12
1.131112304e-09
-1.468495182e-12
1.174240056e-09
-1.65068902e-12
1.213716922e-09
-1.840330518e-12
1.249637268e-09
-2.036166377e-12
1.282077268e-09
-2.236571027e-12
1.311093617e-09
-2.439567523e-12
1.336722122e-09
-2.643012675e-12
1.358976877e-09
-2.84417444e-12
1.377848886e-09
-3.040050311e-12
1.393305343e-09
-3.227382349e-12
1.405289611e-09
-3.40240666e-12
1.413719628e-09
-3.561339054e-12
1.418489547e-09
-3.700051598e-12
1.419469325e-09
-3.814454843e-12
1.416505788e-09
-3.900644729e-12
1.409424873e-09
-3.954763527e-12
1.398032359e-09
-3.973439986e-12
1.382117297e-09
-3.953878421e-12
1.361454628e-09
-3.893840324e-12
1.335807877e-09
-3.791971887e-12
1.30493335e-09
-3.64796115e-12
1.268583567e-09
-3.462480004e-12
1.226511783e-09
-3.237429503e-12
1.178475094e-09
-2.975984387e-12
1.124239339e-09
-2.682670579e-12
1.063582822e-09
-2.363413633e-12
9.962998172e-10
-2.025574808e-12
9.222043852e-10
-1.67797876e-12
8.411336477e-10
-1.330854312e-12
7.529501434e-10
-9.958177829e-13
6.575444439e-10
-6.858266653e-13
5.548366211e-10
-4.15141254e-13
4.447777319e-10
-1.992760444e-13
3.273498141e-10
-5.493943517e-14
2.025645105e-10
7.045677519e-11
-5.598797068e-15
5.794188902e-11
-2.207558035e-14
1.695353366e-10
-4.910420191e-14
2.748732872e-10
-8.650846098e-14
3.741947383e-10
-1.343022396e-13
4.677331627e-10
-1.92506615e-13
5.557158413e-10
-2.613113314e-13
6.383633876e-10
-3.408577331e-13
7.158891492e-10
-4.312745593e-13
7.884988081e-10
-5.326905439e-13
8.563895441e-10
-6.451455696e-13
9.197493876e-10
-7.685524559e-13
9.787563101e-10
-9.02685784e-13
1.033577217e-09
-1.047206918e-12
1.084366873e-09
-1.201611537e-12
1.131266708e-09
-1.365173625e-12
1.174403618e-09
-1.537018802e-12
1.213888767e-09
-1.71608631e-12
1.249816336e-09
-1.901176123e-12
1.282262358e-09
-2.090634229e-12
1.311283075e-09
-2.282619999e-12
1.336914108e-09
-2.475063117e-12
1.35916932e-09
-2.665348079e-12
1.378039171e-09
-2.850698726e-12
1.393490694e-09
-3.027924636e-12
1.405466837e-09
-3.193530032e-12
1.413885234e-09
-3.343962323e-12
1.418639979e-09
-3.475319905e-12
1.419600682e-09
-3.583811825e-12
1.41661428e-09
-3.665711154e-12
1.409506772e-09
-3.717427032e-12
1.398084075e-09
-3.73583948e-12
1.382135709e-09
-3.718255274e-12
1.361437044e-09
-3.662597162e-12
1.335752218e-09
-3.567584595e-12
1.304838338e-09
-3.432920106e-12
1.268448902e-09
-3.259202392e-12
1.226338065e-09
-3.048191742e-12
1.178264083e-09
-2.80283964e-12
1.123993987e-09
-2.527368111e-12
1.06330735e-09
-2.227319308e-12
9.959997684e-10
-1.909611885e-12
9.218866777e-10
-1.582517122e-12
8.40806553e-10
-1.25564834e-12
7.526232746e-10
-9.399457356e-13
6.572287413e-10
-6.476462726e-13
5.545443217e-10
-3.922270521e-13
4.445223127e-10
-1.883827499e-13
3.271459698e-10
-5.197454905e-14
2.024281023e-10
7.040480064e-11
-4.996013174e-15
5.794688503e-11
-1.970810004e-14
1.695500487e-10
-4.388146004e-14
2.748974606e-10
-7.743251797e-14
3.742282894e-10
-1.204516284e-13
4.677761818e-10
-1.730444399e-13
5.557684341e-10
-2.35467629e-13
6.384258108e-10
-3.079761969e-13
7.159616577e-10
-3.907620049e-13
7.885815939e-10
-4.84000224e-13
8.564827824e-10
-5.877922415e-13
9.198531796e-10
-7.021171845e-13
9.788706351e-10
-8.268107189e-13
1.033701911e-09
-9.615558572e-13
1.084501618e-09
-1.105839957e-12
1.131410992e-09
-1.25898359e-12
1.174556762e-09
-1.420159476e-12
1.214049943e-09
-1.588403311e-12
1.249984579e-09
-1.762439129e-12
1.282436393e-09
-1.940732417e-12
1.311461368e-09
-2.121585347e-12
1.337094961e-09
-2.302902798e-12
1.359350638e-09
-2.482267018e-12
1.378218535e-09
-2.657096406e-12
1.393665523e-09
-2.824296305e-12
1.405634037e-09
-2.980652963e-12
1.41404159e-09
-3.122773086e-12
1.4187821e-09
-3.247018582e-12
1.419724928e-09
-3.349887252e-12
1.416717148e-09
-3.427801074e-12
1.409584686e-09
-3.477435297e-12
1.398133709e-09
-3.495901638e-12
1.382154176e-09
-3.48061198e-12
1.361421754e-09
-3.429635463e-12
1.335701242e-09
-3.341772009e-12
1.304750474e-09
-3.216706589e-12
1.268323837e-09
-3.054976982e-12
1.226176335e-09
-2.858198921e-12
1.178067305e-09
-2.629102119e-12
1.12376489e-09
-2.371607823e-12
1.063049856e-09
-2.090884716e-12
9.957190453e-10
-1.793402494e-12
9.215891955e-10
-1.486879844e-12
8.405000303e-10
-1.180322367e-12
7.523167172e-10
-8.839979174e-13
6.569324169e-10
-6.094174229e-13
5.542697412e-10
-3.692831845e-13
4.442821785e-10
-1.774743818e-13
3.26954161e-10
-4.900517121e-14
2.022996331e-10
7.035579546e-11
-4.382039607e-15
5.795126707e-11
-1.729996837e-14
1.695629666e-10
-3.85748862e-14
2.749187355e-10
-6.822629579e-14
3.742579408e-10
-1.063793262e-13
4.678143348e-10
-1.532801611e-13
5.558153349e-10
-2.092004615e-13
6.384817311e-10
-2.745035468e-13
7.160269608e-10
-3.494759544e-13
7.886565663e-10
-4.343482196e-13
8.565676546e-10
-5.29269103e-13
9.199481005e-10
-6.342723761e-13
9.789756384e-10
-7.492441314e-13
1.033816882e-09
-8.738755079e-13
1.084626249e-09
-1.007705822e-12
1.131544823e-09
-1.150109565e-12
1.174699165e-09
-1.300322017e-12
1.214200156e-09
-1.457424928e-12
1.250141682e-09
-1.62012554e-12
1.282599094e-09
-1.787012096e-12
1.311628255e-09
-1.956515424e-12
1.337264464e-09
-2.126549651e-12
1.359520672e-09
-2.294912192e-12
1.378386897e-09
-2.459132504e-12
1.393829743e-09
-2.616312127e-12
1.405791216e-09
-2.763498845e-12
1.414188777e-09
-2.897413677e-12
1.418916014e-09
-3.01470257e-12
1.419842217e-09
-3.112105484e-12
1.416814551e-09
-3.186252992e-12
1.409658833e-09
-3.234048254e-12
1.398181505e-09
-3.252792646e-12
1.38217292e-09
-3.240052054e-12
1.361409013e-09
-3.194008221e-12
1.335655198e-09
-3.113560515e-12
1.304670027e-09
-2.998337429e-12
1.268208614e-09
-2.848827539e-12
1.226026825e-09
-2.666501477e-12
1.177884979e-09
-2.453868666e-12
1.123552258e-09
-2.214551931e-12
1.062810539e-09
-1.953362595e-12
9.95457856e-10
-1.676288089e-12
9.21312121e-10
-1.390511951e-12
8.402142542e-10
-1.104428527e-12
7.520306337e-10
-8.27632362e-13
6.566556207e-10
-5.709047166e-13
5.540130135e-10
-3.461692752e-13
4.44057443e-10
-1.664852479e-13
3.26774477e-10
-4.601387893e-14
2.021791618e-10
7.030978158e-11
-3.761237377e-15
5.795502831e-11
-1.48652154e-14
1.695740706e-10
-3.321485483e-14
2.749370852e-10
-5.891498165e-14
3.742836409e-10
-9.214013852e-14
4.6784756e-10
-1.332603801e-13
5.558564551e-10
-1.825895473e-13
6.385310603e-10
-2.405661528e-13
7.160849374e-10
-3.075578166e-13
7.88723558e-10
-3.838707097e-13
8.566439675e-10
-4.697092202e-13
9.20033939e-10
-5.651448788e-13
9.79071074e-10
-6.700959935e-13
1.033921833e-09
-7.843152085e-13
1.084740468e-09
-9.073905876e-13
1.131667898e-09
-1.038741777e-12
1.174830517e-09
-1.17770827e-12
1.214339122e-09
-1.323309126e-12
1.250287283e-09
-1.474375931e-12
1.282750161e-09
-1.629626268e-12
1.311783505e-09
-1.787490575e-12
1.337422328e-09
-1.94603905e-12
1.35967922e-09
-2.103268522e-12
1.378544127e-09
-2.256759114e-12
1.393983234e-09
-2.403851579e-12
1.405938309e-09
-2.54181712e-12
1.414326742e-09
-2.667545396e-12
1.419041743e-09
-2.777953739e-12
1.419952625e-09
-2.86997447e-12
1.416906572e-09
-2.940477279e-12
1.409729336e-09
-2.986607346e-12
1.398227635e-09
-3.005800319e-12
1.382192113e-09
-2.995797417e-12
1.36139901e-09
-2.954889709e-12
1.33561429e-09
-2.882060369e-12
1.304597197e-09
-2.776899072e-12
1.268103452e-09
-2.639837106e-12
1.225889764e-09
-2.472201001e-12
1.177717343e-09
-2.276281175e-12
1.123356338e-09
-2.055405806e-12
1.062589664e-09
-1.814018302e-12
9.952164685e-10
-1.55762558e-12
9.210557283e-10
-1.292870247e-12
8.399494988e-10
-1.027530144e-12
7.517652936e-10
-7.705188598e-13
6.563986094e-10
-5.318787351e-13
5.537743734e-10
-3.227465594e-13
4.438483109e-10
-1.553493972e-13
3.266070798e-10
-4.298278359e-14
2.020667951e-10
7.02667988e-11
-3.135931871e-15
5.795816424e-11
-1.241297276e-14
1.695833477e-10
-2.78257395e-14
2.749524979e-10
-4.952453108e-14
3.743053397e-10
-7.778400134e-14
4.678758194e-10
-1.130378399e-13
5.55891709e-10
-1.557185466e-13
6.38573741e-10
-2.062622126e-13
7.161354811e-10
-2.65141816e-13
7.887824376e-10
-3.327243736e-13
8.567115501e-10
-4.092687527e-13
9.201104834e-10
-4.948960111e-13
9.791567013e-10
-5.895727425e-13
1.03401651e-09
-6.93101553e-13
1.084843997e-09
-8.051188349e-13
1.131779915e-09
-9.251466936e-13
1.174950544e-09
-1.052512931e-12
1.214466488e-09
-1.186281089e-12
1.250421051e-09
-1.325393428e-12
1.282889273e-09
-1.468710504e-12
1.311926822e-09
-1.614650793e-12
1.337568269e-09
-1.761464803e-12
1.359826034e-09
-1.907323615e-12
1.378689986e-09
-2.04990112e-12
1.394125811e-09
-2.186785364e-12
1.406075193e-09
-2.315401607e-12
1.414455359e-09
-2.432874181e-12
1.419159215e-09
-2.536399121e-12
1.42005615e-09
-2.623040498e-12
1.416993213e-09
-2.68993325e-12
1.409796229e-09
-2.734478424e-12
1.39827218e-09
-2.754214102e-12
1.382211849e-09
-2.747070623e-12
1.361391867e-09
-2.711450542e-12
1.33557867e-09
-2.646395013e-12
1.304532142e-09
-2.551490655e-12
1.268008548e-09
-2.427098703e-12
1.225765372e-09
-2.27440332e-12
1.177564648e-09
-2.095476576e-12
1.123177411e-09
-1.893372505e-12
1.06238756e-09
-1.6721227e-12
9.949952187e-10
-1.43677036e-12
9.20820376e-10
-1.193406287e-12
8.397061348e-10
-9.491829365e-13
7.515210703e-10
-7.123196683e-13
6.561617462e-10
-4.921040804e-13
5.535541578e-10
-2.988725193e-13
4.436550793e-10
-1.439993694e-13
3.264522067e-10
-3.989389871e-14
2.019626897e-10
7.02269049e-11
-2.508892819e-15
5.796067313e-11
-9.959413191e-15
1.695907982e-10
-2.241496154e-14
2.749649535e-10
-4.008645892e-14
3.743230112e-10
-6.336472116e-14
4.678990977e-10
-9.269986799e-14
5.559210441e-10
-1.286525241e-13
6.386096937e-10
-1.716974531e-13
7.16178526e-10
-2.22346532e-13
7.888330866e-10
-2.81050674e-13
8.567702542e-10
-3.481211258e-13
9.201775538e-10
-4.237284402e-13
9.792323086e-10
-5.078883008e-13
1.03410067e-09
-6.004533346e-13
1.084936562e-09
-7.011428693e-13
1.131880605e-09
-8.095330142e-13
1.175058935e-09
-9.249289638e-13
1.214581884e-09
-1.04652381e-12
1.250542646e-09
-1.173379877e-12
1.283016129e-09
-1.304383844e-12
1.312057826e-09
-1.438079364e-12
1.337701964e-09
-1.57289792e-12
1.359960853e-09
-1.707075946e-12
1.378824164e-09
-1.838492553e-12
1.394257228e-09
-1.964978637e-12
1.406201679e-09
-2.084060734e-12
1.414574441e-09
-2.193130906e-12
1.419268285e-09
-2.289643445e-12
1.420152663e-09
-2.370826932e-12
1.417074397e-09
-2.434067575e-12
1.409859469e-09
-2.476991905e-12
1.398315104e-09
-2.497288498e-12
1.382232145e-09
-2.49305302e-12
1.361387631e-09
-2.462836362e-12
1.335548454e-09
-2.405685011e-12
1.30447499e-09
-2.321208219e-12
1.267924071e-09
-2.209700159e-12
1.225653864e-09
-2.072207177e-12
1.177427155e-09
-1.910586595e-12
1.12301579e-09
-1.72761434e-12
1.062204587e-09
-1.526907691e-12
9.94794512e-10
-1.313038487e-12
9.206065068e-10
-1.091535848e-12
8.394846321e-10
-8.68912567e-13
7.51298447e-10
-6.526751575e-13
6.559455088e-10
-4.513339627e-13
5.533528166e-10
-2.743977207e-13
4.434781431e-10
-1.323626982e-13
3.263101716e-10
-3.672685014e-14
2.018670538e-10
7.019017805e-11
-1.884191647e-15
5.796255732e-11
-7.509056528e-15
1.69596423e-10
-1.699537687e-14
2.749744398e-10
-3.063593296e-14
3.743366517e-10
-4.891465449e-14
4.679173764e-10
-7.23071892e-14
5.559444367e-10
-1.014601498e-13
6.386388466e-10
-1.369462803e-13
7.162140122e-10
-1.792891749e-13
7.888754295e-10
-2.2898448e-13
8.568199495e-10
-2.86418272e-13
9.202349876e-10
-3.518084466e-13
9.792976988e-10
-4.252183599e-13
1.03417408e-09
-5.065812173e-13
1.085017925e-09
-5.956662301e-13
1.13196969e-09
-6.920467357e-13
1.175155315e-09
-7.951321863e-13
1.21468497e-09
-9.041995385e-13
1.250651713e-09
-1.018457773e-12
1.283130387e-09
-1.136769848e-12
1.312176138e-09
-1.257861118e-12
1.337823055e-09
-1.380355416e-12
1.360083347e-09
-1.502519309e-12
1.378946328e-09
-1.622468822e-12
1.394377178e-09
-1.738252434e-12
1.406317463e-09
-1.84754404e-12
1.414683732e-09
-1.947991714e-12
1.419368733e-09
-2.037266009e-12
1.420241937e-09
-2.112826208e-12
1.417149957e-09
-2.172292384e-12
1.409918936e-09
-2.213484938e-12
1.398356297e-09
-2.23428398e-12
1.382252944e-09
-2.232939635e-12
1.361386287e-09
-2.208157819e-12
1.335523672e-09
-2.158990626e-12
1.304425823e-09
-2.085076828e-12
1.267850157e-09
-1.986649277e-12
1.225555436e-09
-1.864622393e-12
1.177305128e-09
-1.720661445e-12
1.122871829e-09
-1.557218554e-12
1.062041144e-09
-1.377524683e-12
9.946148182e-10
-1.18566623e-12
9.204146483e-10
-9.865990242e-13
8.392855649e-10
-7.861771563e-13
7.510980251e-10
-5.91169228e-13
6.557505008e-10
-4.092776786e-13
5.531709251e-10
-2.491448623e-13
4.433180102e-10
-1.203545031e-13
3.261813813e-10
-3.345885657e-14
2.017801582e-10
7.015671919e-11
-1.261364976e-15
5.796381869e-11
-5.058859507e-15
1.696002205e-10
-1.15830218e-14
2.74980964e-10
-2.121117145e-14
3.743462799e-10
-3.44659838e-14
4.679306312e-10
-5.192188381e-14
5.559618926e-10
-7.424118491e-14
6.386611659e-10
-1.020865797e-13
7.162418576e-10
-1.360512872e-13
7.889093943e-10
-1.766483955e-13
8.568605466e-10
-2.243036387e-13
9.202826428e-10
-2.792983804e-13
9.793526935e-10
-3.417613479e-13
1.034236543e-09
-4.116679921e-13
1.085087832e-09
-4.888139311e-13
1.132046836e-09
-5.72845689e-13
1.175239347e-09
-6.632653084e-13
1.214775389e-09
-7.594692899e-13
1.250747917e-09
-8.607066748e-13
1.283231625e-09
-9.659357395e-13
1.312281367e-09
-1.074039808e-12
1.337931159e-09
-1.18378325e-12
1.360193091e-09
-1.293551965e-12
1.379056096e-09
-1.401691036e-12
1.394485317e-09
-1.506388563e-12
1.40642216e-09
-1.605550925e-12
1.414782895e-09
-1.697103138e-12
1.419460285e-09
-1.778847916e-12
1.420323682e-09
-1.848521849e-12
1.417219631e-09
-1.904016726e-12
1.40997443e-09
-1.943288654e-12
1.398395569e-09
-1.964446556e-12
1.382274102e-09
-1.965903477e-12
1.361387744e-09
-1.946490973e-12
1.335504259e-09
-1.905327776e-12
1.30438466e-09
-1.842068135e-12
1.267786898e-09
-1.756893035e-12
1.225470261e-09
-1.650592205e-12
1.177198827e-09
-1.524649052e-12
1.122745886e-09
-1.381183048e-12
1.061897678e-09
-1.223038656e-12
9.944566738e-10
-1.053809031e-12
9.202454187e-10
-8.778619232e-13
8.391096178e-10
-7.003693588e-13
7.509205326e-10
-5.273299475e-13
6.555774614e-10
-3.655982725e-13
5.530091934e-10
-2.229044758e-13
4.431753164e-10
-1.078717427e-13
3.260663485e-10
-3.006023172e-14
2.017023467e-10
7.012665896e-11
-6.406390059e-16
5.796445933e-11
-2.621148309e-15
1.696022011e-10
-6.198660091e-15
2.749845415e-10
-1.18357407e-14
3.74351917e-10
-2.007236083e-14
4.679388679e-10
-3.160026553e-14
5.559734205e-10
-4.70692916e-14
6.38676635e-10
-6.722506083e-14
7.162620133e-10
-9.272156413e-14
7.889348908e-10
-1.241237924e-13
8.568919489e-10
-1.61876241e-13
9.203203953e-10
-2.063099347e-13
9.793971272e-10
-2.576064371e-13
1.034287839e-09
-3.157675947e-13
1.085145993e-09
-3.806576689e-13
1.132111726e-09
-4.520115048e-13
1.175310701e-09
-5.294061334e-13
1.214852784e-09
-6.123774122e-13
1.250830889e-09
-7.001607793e-13
1.283319408e-09
-7.918806563e-13
1.312373087e-09
-8.866043662e-13
1.338025883e-09
-9.831342278e-13
1.360289621e-09
-1.080067231e-12
1.379153029e-09
-1.175985438e-12
1.394581235e-09
-1.269166059e-12
1.406515341e-09
-1.357784846e-12
1.414871514e-09
-1.440041386e-12
1.419542542e-09
-1.513881673e-12
1.420397522e-09
-1.577321562e-12
1.417283071e-09
-1.628521634e-12
1.410025631e-09
-1.665592218e-12
1.398432639e-09
-1.686871327e-12
1.382295381e-09
-1.690965853e-12
1.361391839e-09
-1.676801519e-12
1.335490095e-09
-1.643595723e-12
1.304351454e-09
-1.591027548e-12
1.267734329e-09
-1.519239369e-12
1.225398473e-09
-1.428915223e-12
1.177108503e-09
-1.321337515e-12
1.122638309e-09
-1.198323706e-12
1.061774665e-09
-1.062324289e-12
9.943206744e-10
-9.164326958e-13
9.200995271e-10
-7.644116457e-13
8.389575968e-10
-6.107231103e-13
7.50766844e-10
-4.605560089e-13
6.554272943e-10
-3.198661357e-13
5.528685035e-10
-1.954113786e-13
4.430508617e-10
-9.478880925e-14
3.25965726e-10
-2.649920814e-14
2.016340571e-10
7.010015975e-11
-2.553930459e-17
5.796448487e-11
-2.049213766e-16
1.696023804e-10
-8.696301974e-16
2.749852062e-10
-2.529471537e-15
3.743535768e-10
-5.774719442e-15
4.679421131e-10
-1.136888933e-14
5.559790146e-10
-2.000459531e-14
6.386852707e-10
-3.244497225e-14
7.162744537e-10
-4.940684315e-14
7.889518526e-10
-7.149689513e-14
8.569140389e-10
-9.92065224e-14
9.203481049e-10
-1.328952844e-13
9.79430816e-10
-1.72778515e-13
1.034327723e-09
-2.189259099e-13
1.08519214e-09
-2.712667798e-13
1.132164067e-09
-3.296057875e-13
1.17536904e-09
-3.936544816e-13
1.214916833e-09
-4.629508801e-13
1.250900185e-09
-5.368496635e-13
1.283393307e-09
-6.14609781e-13
1.312450847e-09
-6.954745554e-13
1.338106748e-09
-7.783056759e-13
1.360372452e-09
-8.619141078e-13
1.379236638e-09
-9.450927251e-13
1.394664413e-09
-1.026263934e-12
1.406596512e-09
-1.103857101e-12
1.414949107e-09
-1.176300251e-12
1.419614985e-09
-1.241777171e-12
1.420462999e-09
-1.298549938e-12
1.417339844e-09
-1.345016511e-12
1.410072097e-09
-1.379512203e-12
1.398467135e-09
-1.40058317e-12
1.382316452e-09
-1.40705692e-12
1.361398312e-09
-1.397938549e-12
1.335480977e-09
-1.372569179e-12
1.304326085e-09
-1.330666999e-12
1.267692427e-09
-1.272350884e-12
1.225340157e-09
-1.198233829e-12
1.177034386e-09
-1.109375282e-12
1.12254945e-09
-1.007317218e-12
1.061672607e-09
-8.941174047e-13
9.942074745e-10
-7.723657457e-13
9.199777754e-10
-6.452036052e-13
8.388304346e-10
-5.163517289e-13
7.506379922e-10
-3.90141751e-13
6.553010844e-10
-2.715668279e-13
5.527499286e-10
-1.663353159e-13
4.429456302e-10
-8.093352456e-14
3.258803242e-10
-2.272053178e-14
2.015758441e-10
7.007743921e-11
5.826023234e-16
5.796390227e-11
2.181450139e-15
1.696007816e-10
4.39676101e-15
2.749829909e-10
6.691084266e-15
3.743512825e-10
8.392632701e-15
4.679404116e-10
8.726457419e-15
5.559786808e-10
6.907495902e-15
6.386870896e-10
2.202274345e-15
7.162791589e-10
-6.172771097e-15
7.889602277e-10
-1.885789637e-14
8.56926724e-10
-3.637932798e-14
9.203656264e-10
-5.913490861e-14
9.794535715e-10
-8.738581592e-14
1.034355973e-09
-1.212572732e-13
1.085226012e-09
-1.607412785e-13
1.132203551e-09
-2.057399642e-13
1.175414038e-09
-2.5605052e-13
1.214967143e-09
-3.112210846e-13
1.250955356e-09
-3.707696308e-13
1.283452856e-09
-4.341235075e-13
1.312514201e-09
-5.005612616e-13
1.338173186e-09
-5.691480996e-13
1.360441038e-09
-6.389068763e-13
1.379306397e-09
-7.087426643e-13
1.394734249e-09
-7.773208492e-13
1.40666509e-09
-8.433430757e-13
1.415015129e-09
-9.053842365e-13
1.419677026e-09
-9.619184106e-13
1.420519533e-09
-1.011498461e-12
1.417389424e-09
-1.052696634e-12
1.410113295e-09
-1.084119599e-12
1.398498558e-09
-1.104533187e-12
1.382336866e-09
-1.112975223e-12
1.361406754e-09
-1.108580271e-12
1.335476582e-09
-1.090814121e-12
1.304308319e-09
-1.059454181e-12
1.267661067e-09
-1.014616774e-12
1.225295319e-09
-9.568560855e-13
1.176976625e-09
-8.870348338e-13
1.122479629e-09
-8.064333418e-13
1.061592005e-09
-7.167283592e-13
9.941177696e-10
-6.200081726e-13
9.198810552e-10
-5.187805545e-13
8.38729207e-10
-4.159939776e-13
7.505352056e-10
-3.150688969e-13
6.552001593e-10
-2.199569318e-13
5.526548166e-10
-1.35214033e-13
4.428608873e-10
-6.609369725e-14
3.258112038e-10
-1.867833022e-14
2.015284287e-10
7.005876088e-11
1.180617965e-15
5.796272165e-11
4.529423384e-15
1.695974328e-10
9.601300963e-15
2.74977919e-10
1.581178657e-14
3.74345072e-10
2.241193695e-14
4.679338114e-10
2.864758405e-14
5.559724452e-10
3.365592091e-14
6.386820813e-10
3.666719986e-14
7.162761476e-10
3.692881471e-14
7.889599661e-10
3.37356446e-14
8.569299172e-10
2.653165892e-14
9.203728303e-10
1.488327946e-14
9.794652199e-10
-1.514701619e-15
1.034372371e-09
-2.284093931e-14
1.085247338e-09
-4.916639689e-14
1.132229876e-09
-8.048645533e-14
1.175445358e-09
-1.16595036e-13
1.215003252e-09
-1.571869522e-13
1.250995948e-09
-2.01890803e-13
1.283497559e-09
-2.503117522e-13
1.312562622e-09
-3.017473446e-13
1.338224621e-09
-3.554862068e-13
1.360494777e-09
-4.107821472e-13
1.379361693e-09
-4.666240352e-13
1.394790091e-09
-5.21944641e-13
1.406720411e-09
-5.757229872e-13
1.415068907e-09
-6.266817162e-13
1.419727985e-09
-6.735952327e-13
1.420566447e-09
-7.153218378e-13
1.41743115e-09
-7.506053462e-13
1.410148579e-09
-7.783406479e-13
1.398526293e-09
-7.975401017e-13
1.382356065e-09
-8.074283997e-13
1.361416643e-09
-8.073224263e-13
1.335476476e-09
-7.968193397e-13
1.304297816e-09
-7.757782973e-13
1.267640026e-09
-7.443565059e-13
1.225263897e-09
-7.030272219e-13
1.176935296e-09
-6.525171043e-13
1.122429119e-09
-5.938600381e-13
1.061533348e-09
-5.283723708e-13
9.940522819e-10
-4.576506845e-13
9.198103335e-10
-3.835631842e-13
8.386551195e-10
-3.08256965e-13
7.504598994e-10
-2.341817103e-13
6.55126084e-10
-1.641524692e-13
5.525847874e-10
-1.014431856e-13
4.42798178e-10
-4.992121039e-14
3.257596819e-10
-1.424154104e-14
2.01492749e-10
7.004451934e-11
1.768536397e-15
5.796095311e-11
6.844205361e-15
1.695923571e-10
1.473889504e-14
2.749700243e-10
2.481682277e-14
3.743349941e-10
3.628206389e-14
4.679223462e-10
4.837778545e-14
5.559603494e-10
6.020729329e-14
6.386702518e-10
7.094128229e-14
7.162654136e-10
7.985013054e-14
7.889510572e-10
8.622934305e-14
8.56923538e-10
8.946570044e-14
9.20369594e-10
8.909518722e-14
9.794655904e-10
8.477266424e-14
1.034376694e-09
7.624995285e-14
1.085255861e-09
6.337802301e-14
1.132242748e-09
4.614811498e-14
1.175462588e-09
2.468090669e-14
1.215024719e-09
-8.436308089e-16
1.251021472e-09
-3.020706206e-14
1.283526923e-09
-6.306751083e-14
1.312595483e-09
-9.888099113e-14
1.338260435e-09
-1.371178229e-13
1.360533014e-09
-1.772161208e-13
1.379401791e-09
-2.183333596e-13
1.394831208e-09
-2.596414416e-13
1.406761719e-09
-3.003531708e-13
1.415109619e-09
-3.394331665e-13
1.419767065e-09
-3.759224956e-13
1.420602936e-09
-4.089523484e-13
1.41746418e-09
-4.375174635e-13
1.410177144e-09
-4.607777782e-13
1.398549554e-09
-4.780349516e-13
1.382373323e-09
-4.886710638e-13
1.361427279e-09
-4.922258366e-13
1.33548003e-09
-4.884501519e-13
1.30429404e-09
-4.773113797e-13
1.267628888e-09
-4.590478798e-13
1.225245634e-09
-4.340689012e-13
1.176910317e-09
-4.030072884e-13
1.122398057e-09
-3.666894063e-13
1.06149703e-09
-3.261090454e-13
9.940117015e-10
-2.824016867e-13
9.197666262e-10
-2.368110655e-13
8.386095289e-10
-1.906711388e-13
7.504137594e-10
-1.454081585e-13
6.55080821e-10
-1.025923627e-13
5.525419716e-10
-6.404050594e-14
4.427596261e-10
-3.198792941e-14
3.257276293e-10
-9.345773997e-15
2.014701069e-10
7.003517356e-11
2.348647599e-15
5.795860446e-11
9.129507474e-15
1.695855763e-10
1.980769562e-14
2.749593461e-10
3.368556409e-14
3.743211162e-10
4.998247392e-14
4.679060493e-10
6.786904304e-14
5.559424629e-10
8.649017302e-14
6.386516306e-10
1.049750447e-13
7.162469288e-10
1.225507228e-13
7.889334815e-10
1.385364994e-13
8.569075522e-10
1.523140619e-13
9.203558164e-10
1.633753743e-13
9.794545291e-10
1.713226565e-13
1.034368747e-09
1.758610049e-13
1.085251322e-09
1.767990699e-13
1.13224181e-09
1.740822289e-13
1.175465305e-09
1.677093438e-13
1.215031092e-09
1.577650427e-13
1.251031416e-09
1.443021269e-13
1.283540386e-09
1.27643684e-13
1.312612141e-09
1.08136705e-13
1.338279942e-09
8.609185638e-14
1.360555059e-09
6.199334873e-14
1.379425889e-09
3.642982525e-14
1.394856772e-09
9.953489076e-15
1.406788195e-09
-1.679022067e-14
1.415136363e-09
-4.30708039e-14
1.419793345e-09
-6.822823125e-14
1.420628093e-09
-9.161348393e-14
1.417487565e-09
-1.125260514e-13
1.410198056e-09
-1.303977985e-13
1.398567425e-09
-1.448216828e-13
1.382387746e-09
-1.553741919e-13
1.361437831e-09
-1.618296405e-13
1.335486486e-09
-1.641179792e-13
1.304296328e-09
-1.623439443e-13
1.267627114e-09
-1.568374689e-13
1.225240127e-09
-1.480042546e-13
1.176901484e-09
-1.364148849e-13
1.122386468e-09
-1.227343626e-13
1.06148335e-09
-1.076816742e-13
9.939966488e-10
-9.197653426e-14
9.19750921e-10
-7.627201766e-14
8.385938244e-10
-6.109629775e-14
7.503985837e-10
-4.681245745e-14
6.550665372e-10
-3.363602028e-14
5.525287952e-10
-2.172986029e-14
4.4274772e-10
-1.142154635e-14
3.25717321e-10
-3.59002589e-15
2.014622753e-10
7.003158353e-11
2.919361253e-15
5.79556851e-11
1.137303912e-14
1.695771226e-10
2.478116089e-14
2.74945938e-10
4.239097783e-14
3.743035064e-10
6.344462697e-14
4.678849956e-10
8.704317249e-14
5.559188643e-10
1.123865265e-13
6.386262873e-10
1.385760485e-13
7.162207393e-10
1.648306309e-13
7.889072269e-10
1.904452378e-13
8.568819376e-10
2.14821778e-13
9.203314399e-10
2.374261922e-13
9.794319247e-10
2.578230772e-13
1.03434835e-09
2.756894822e-13
1.085233456e-09
2.907861292e-13
1.132226713e-09
3.029617101e-13
1.17545313e-09
3.121351884e-13
1.215021918e-09
3.182428866e-13
1.251025309e-09
3.213140495e-13
1.283537315e-09
3.215197674e-13
1.312611935e-09
3.190496213e-13
1.338282412e-09
3.140042328e-13
1.360560104e-09
3.067777528e-13
1.379433116e-09
2.977057438e-13
1.394865844e-09
2.870620765e-13
1.406798839e-09
2.75348567e-13
1.415148076e-09
2.629848997e-13
1.419805709e-09
2.503116509e-13
1.420640767e-09
2.377772795e-13
1.4175001e-09
2.25751621e-13
1.410210082e-09
2.145110205e-13
1.398578666e-09
2.041936971e-13
1.382398064e-09
1.949601362e-13
1.361447065e-09
1.867990235e-13
1.335494647e-09
1.795723772e-13
1.304303555e-09
1.729774361e-13
1.267633708e-09
1.666025737e-13
1.225246502e-09
1.599644097e-13
1.176908122e-09
1.524986025e-13
1.122393933e-09