/*--------------------------------*- C++ -*----------------------------------*\
  =========                 |
  \\      /  F ield         | OpenFOAM: The Open Source CFD Toolbox
   \\    /   O peration     | Website:  https://openfoam.org
    \\  /    A nd           | Version:  7
     \\/     M anipulation  |
\*---------------------------------------------------------------------------*/
FoamFile
{
    version     2.0;
    format      ascii;
    class       volScalarField;
    location    "0.0021";
    object      rho;
}
// * * * * * * * * * * * * * * * * * * * * * * * * * * * * * * * * * * * * * //

dimensions      [1 -3 0 0 0 0 0];

internalField   nonuniform List<scalar> 
1167
(
933.9265884
933.8540231
933.698508
933.4688115
933.1702832
932.807185
932.3841365
931.9050367
931.3739464
930.7947886
930.1713086
929.5072305
928.8061574
928.0715735
927.3068631
926.5153217
925.7001701
933.80826
933.7357459
933.5803433
933.3509243
933.0526614
932.6899868
932.2673453
931.7888482
931.2584645
930.6801125
930.0575701
929.3945701
928.6947243
927.961528
927.1983757
926.4085725
925.5954149
924.7621501
923.9116936
923.0470388
922.1712537
921.2869108
920.3967933
919.5034775
918.6093047
917.7167863
916.8278569
915.9447114
915.0691873
914.2029504
913.3477833
912.5049711
911.6758559
910.8616724
910.0632659
909.2815051
908.5172624
907.7710122
907.043205
906.3341796
905.6441623
904.9732443
904.3214652
903.6887209
903.0748342
902.4794611
901.9023039
901.342867
900.8007078
900.2752354
933.6900544
933.6175953
933.4623133
933.2332091
932.9352019
932.572986
932.1507568
931.6728882
931.1432397
930.5657253
929.9441551
929.2822697
928.5836887
927.8519183
927.0903628
926.3023385
925.4912476
924.6601308
923.8120116
922.9499773
922.0768952
921.1954343
920.3084322
919.4182926
918.5275099
917.638405
916.7529874
915.8734918
915.0015993
914.1390863
913.2875917
912.4484573
911.6230473
910.8124808
910.0176459
909.239403
908.4786507
907.7357798
907.0112744
906.3054706
905.6185902
904.9507229
904.3019092
903.6720536
903.0609565
902.4682811
901.8937477
901.3368521
900.797156
900.2740696
933.5719767
933.4995763
933.3445336
933.1156456
932.8179098
932.4561713
932.0344864
931.5571626
931.0282781
930.451633
929.8310693
929.1703346
928.4730555
927.7427485
926.9828274
926.1967205
925.3876281
924.5586907
923.7129576
922.8535437
921.9831809
921.1046842
920.2207376
919.3337739
918.4463748
917.5606728
916.6788096
915.802882
914.9345982
914.075782
913.2279307
912.3924428
911.570705
910.7637223
909.9724259
909.1977044
908.4403738
907.700851
906.9796173
906.2770061
905.5932348
904.9283917
904.2825306
903.6555327
903.0471998
902.4571944
901.8852626
901.3308873
900.7936337
900.2729135
933.4540316
933.3817637
933.2269172
932.9982394
932.7008902
932.3395478
931.9184428
931.441727
930.9135851
930.3378413
929.718318
929.0587696
928.3628294
927.6340236
926.8758455
926.0916158
925.2845555
924.4578275
923.6145778
922.7577331
921.8901055
921.0145981
920.1337003
919.2499351
918.36589
917.4835799
916.6052633
915.7328732
914.868175
914.013029
913.1687925
912.3369303
911.5188228
910.7153921
909.927602
909.1563756
908.4024295
907.6662243
906.9482327
906.2487856
905.568096
904.9062542
904.2633226
903.6391513
903.0335592
902.4462127
901.876849
901.3249727
900.7901411
900.2717671
933.3363441
933.2641519
933.1094508
932.8809958
932.584077
932.2231214
931.8026196
931.3266133
930.799203
930.2243553
929.6059063
928.9475795
928.2530143
927.5258154
926.7693777
925.9870249
925.1820286
924.3575577
923.5167966
922.6625418
921.7976849
920.9251546
920.0473113
919.1668029
918.2860463
917.4071169
916.5323306
915.6634589
914.8023699
913.9508189
913.1101708
912.2819451
911.4673944
910.6674852
909.8831705
909.1154079
908.3648158
907.6318984
906.9171199
906.2208087
905.5431736
904.8843253
904.2442793
903.62291
903.0200349
902.4353247
901.8685071
901.3191086
900.7866783
900.2706306
933.2188087
933.146687
932.9921397
932.7639504
932.4674468
932.1069312
931.6870219
931.2117506
930.6851773
930.1112588
929.4938847
928.8368228
928.1437148
927.4180945
926.6633925
925.8829486
925.0800468
924.2579403
923.419612
922.567968
921.7059661
920.8363442
919.9615612
919.0843086
918.2068347
917.3313169
916.4600032
915.5946309
914.7371406
913.8891453
913.0520586
912.2274398
911.416416
910.6199981
909.8391435
909.0747991
908.3275312
907.5978723
906.8862783
906.1930752
905.5184738
904.8625865
904.2254008
903.6068091
903.0066277
902.4245308
901.8602374
901.3132952
900.7832455
900.2695038
933.1014213
933.029374
932.8749894
932.6471751
932.3510044
931.9910366
931.5716547
931.0971439
930.5714363
929.998518
929.3822843
928.7265094
928.0348424
927.3108238
926.5578909
925.7793881
924.9786488
924.158892
923.3230196
922.4740047
921.6148687
920.748162
919.8764724
919.0024442
918.1282466
917.2561615
916.3882728
915.526381
914.6724665
913.8280022
912.9944502
912.1734099
911.3658839
910.5729277
909.7955308
909.0345474
908.2905745
907.5641452
906.8557076
906.1655851
905.494008
904.8410383
904.2066877
903.5908493
902.9933378
902.4138315
901.8520401
901.3075327
900.7798428
900.268387
932.9841872
932.9122185
932.7580419
932.5305772
932.2347553
931.8753549
931.4565569
930.9827984
930.4579849
929.8860975
929.2710367
928.6165814
927.9263886
927.204005
926.452874
925.6763435
924.8778535
924.0604085
923.2270129
922.3807167
921.5243883
920.6606027
919.7920582
918.921202
918.0502742
917.1816102
916.3171319
915.4587252
914.6083413
913.767384
912.9373766
912.1198511
911.3157947
910.5262715
909.7523028
908.9946514
908.2539448
907.5307168
906.8254076
906.1383411
905.4697591
904.8196811
904.1881406
903.5750311
902.9801659
902.4032272
901.843918
901.3018214
900.7764703
900.2672801
932.8671118
932.7952257
932.6413561
932.4141616
932.1187262
931.7598919
931.3417917
930.8687181
930.3448274
929.7740015
929.1601451
928.5070418
927.8183557
927.0976397
926.3483419
925.573904
924.7775977
923.9624871
923.131588
922.2880437
921.4345186
920.5736603
919.7082619
918.840575
917.9729414
917.1076559
916.2465731
915.3916759
914.544759
913.7072853
912.8808192
912.0667598
911.2661455
910.4800271
909.709458
908.9551101
908.2176415
907.4975868
906.7953787
906.1113658
905.4457276
904.7985156
904.1697601
903.5593552
902.9671126
902.3927184
901.8358745
901.2961617
900.7731283
900.2661832
932.7502463
932.678525
932.5248456
932.2979334
932.0030008
931.6446521
931.2272717
930.7549894
930.2319682
929.6622335
929.0496126
928.397893
927.7107456
926.9917286
926.2443548
925.4719922
924.6778798
923.8651265
923.0368024
922.1959631
921.3452538
920.4873864
919.6250756
918.760556
917.8962504
917.0342916
916.1765901
915.3251842
914.481714
913.6477014
912.8247516
912.0141327
911.2169336
910.4342337
909.666995
908.9159228
908.1816644
907.4647556
906.7656212
906.0846349
905.4219144
904.7775428
904.1515473
903.5438225
902.9541787
902.3823059
901.8279048
901.2905539
900.769817
900.2650964
932.6336321
932.5620004
932.4085154
932.1818978
931.8874838
931.5296401
931.1130014
930.6415678
930.1194811
929.5507971
928.9394422
928.2891378
927.6035609
926.8863356
926.1408932
925.370591
924.5786976
923.7683239
922.9426284
922.1044702
921.2565879
920.4017463
919.5424928
918.6811379
917.8201533
916.9615107
916.1071813
915.2592444
914.4192013
913.5886375
912.7691704
911.9619669
911.1681571
910.3888519
909.6249132
908.8770893
908.1460139
907.432224
906.7361577
906.0581489
905.3983203
904.7567635
904.133503
903.5284339
902.941365
902.3719903
901.8200093
901.2849985
900.7665366
900.2640198
932.5171915
932.445653
932.2923706
932.0661364
931.7721805
931.4149397
930.998985
930.528425
930.0073478
929.4397981
928.8296989
928.180841
927.4969007
926.781439
926.0379134
925.2696987
924.4800485
923.6721354
922.8490247
922.0135604
921.1685255
920.3167038
919.4605087
918.6023511
917.7446431
916.8893068
916.0383988
915.1938515
914.3572164
913.5301252
912.7140725
911.91026
911.1198141
910.3438773
909.5832121
908.8386098
908.1106906
907.3999928
906.7069753
906.0319093
905.3749467
904.7361793
904.1156287
903.5131907
902.9286727
902.3617727
901.8121889
901.2794959
900.7632874
900.2629534
932.4009293
932.3294878
932.1764161
931.9506224
931.6570959
931.3005225
930.8852267
930.4155651
929.8955244
929.3291523
928.7203754
928.0729896
927.3906749
926.676997
925.9354152
925.1693134
924.3819294
923.5765269
922.7559862
921.9232276
921.0811183
920.2322553
919.379119
918.5241943
917.6697136
916.8176741
915.970174
915.1290006
914.2957553
913.4721159
912.6594555
911.8590109
911.0719301
910.2993086
909.5418913
908.8004845
908.0756952
907.3680702
906.6780675
906.0059182
905.3517956
904.715792
904.0979262
903.4980946
902.9161033
902.3516543
901.8044446
901.274047
900.76007
900.2618974
932.2848504
932.2135097
932.0607391
931.8353156
931.5422342
931.1863464
930.7717957
930.3029923
929.7840144
929.2188476
928.6114213
927.965536
927.2848757
926.5730095
925.8333979
925.0694334
924.2844291
923.4814642
922.663509
921.833468
920.9942931
920.1483943
919.2983174
918.4466212
917.5953605
916.746608
915.9025026
915.0646877
914.2348147
913.4146069
912.6053175
911.8082183
911.0244974
910.2551458
909.5009513
908.7627144
908.0410291
907.3364741
906.6494366
905.980178
905.3288696
904.6956042
904.0803979
903.4831477
902.9036588
902.3416367
901.7967777
901.2686525
900.7568847
900.260852
932.1689597
932.0977669
931.9453014
931.7202211
931.4276652
931.0724155
930.6586802
930.19071
929.6728209
929.1088865
928.5028384
927.8584817
927.1795037
926.4694764
925.7318612
924.9701051
924.1874576
923.3869448
922.5715922
921.7443538
920.9080421
920.0651139
919.2181521
918.369627
917.5215809
916.6761662
915.835379
915.0009086
914.1744414
913.3575959
912.5516569
911.7578808
910.977496
910.21139
909.4603935
908.7253012
908.0066945
907.3051836
906.6210855
905.9546917
905.3061718
904.675619
904.0630469
903.468353
902.8913415
902.331722
901.7891898
901.2633138
900.7537325
900.2598175
932.0533521
931.9822989
931.8300686
931.6053438
931.3133878
930.9587339
930.545835
930.0788342
929.5619467
928.9992711
928.3946285
927.7518279
927.0745594
926.3663978
925.6308364
924.8713285
924.091007
923.2929653
922.4802311
921.6558201
920.8223614
919.9824089
919.1385876
918.2932069
917.4483695
916.6062859
915.7688006
914.9376607
914.1145912
913.3010811
912.4984725
911.7080126
910.9309264
910.1680426
909.42022
908.6882476
907.972716
907.2742021
906.5930179
905.9294635
905.2837064
904.6558406
904.0458769
903.453714
902.8791548
902.321913
901.7816831
901.2580325
900.7506141
900.258794
931.9379736
931.8670325
931.7150455
931.490688
931.1993464
930.845306
930.4332641
929.9672602
929.4514841
928.8900039
928.2867932
927.6455756
926.9700433
926.2638141
925.5303622
924.7730511
923.9950746
923.1995207
922.3894833
921.5678477
920.7372481
919.9002824
919.0595948
918.217356
917.3757217
916.5369599
915.7027649
914.8749416
914.0552537
913.2450615
912.445764
911.6586333
910.8847902
910.1251058
909.3804337
908.6515573
907.9390886
907.2435341
906.5652388
905.9044982
905.2614785
904.6362739
904.0288931
903.4392354
902.8671029
902.3122133
901.7742605
901.2528105
900.7475309
900.2577822
931.8227979
931.7519728
931.6002373
931.3763794
931.0855445
930.7322397
930.3209711
929.8559868
929.3413731
928.7811994
928.1793979
927.5397815
926.8660383
926.1617422
925.4303631
924.6752701
923.8996575
923.1066076
922.2993036
921.4804324
920.6526985
919.8187924
918.9811693
918.1420703
917.3037026
916.4681853
915.6372705
914.812788
913.996427
913.1895364
912.3935319
911.6097104
910.8390895
910.0825829
909.3410387
908.6152349
907.9058052
907.2131858
906.5377546
905.879803
905.2394952
904.6169263
904.0121023
903.4249236
902.8551915
902.3026279
901.7669261
901.2476508
900.7444846
900.2567824
931.7078299
931.6371244
931.4856502
931.2623044
930.9719865
930.6194437
930.2089596
929.7450171
929.2315895
928.6727474
928.072426
927.4344398
926.76248
926.06012
925.3308367
924.5779831
923.8047539
923.0143063
922.2096632
921.3935678
920.5687072
919.737864
918.9033064
918.0673449
917.2322404
916.3999584
915.5723141
914.7511783
913.9381093
913.1345048
912.341781
911.5612443
910.793826
910.0404766
909.3020389
908.5793159
907.8728694
907.1831619
906.5105709
905.8553837
905.2177628
904.5978039
903.9955109
903.4107848
902.8434264
902.2931617
901.7596839
901.2425566
900.7414771
900.2557955
931.5930746
931.5224926
931.3714098
931.1484629
930.8586763
930.5069122
930.0973252
929.6343529
929.1221344
928.5646475
927.9658303
927.3294988
926.6593462
925.958945
925.2317793
924.4811855
923.7103817
922.922538
922.1205566
921.307248
920.4853269
919.6574886
918.8259982
917.9931849
917.1613263
916.3322729
915.5078895
914.6900883
913.8802979
913.0799649
912.2905465
911.513233
910.7489991
909.9987876
909.263436
908.5437733
907.8402858
907.1534674
906.4836932
905.8312464
905.1962878
904.5789137
903.9791255
903.3968254
902.8318135
902.2838201
901.7525381
901.2375307
900.7385101
900.2548218
931.4785463
931.4081679
931.2573964
931.0348585
930.7457074
930.3946475
929.9859999
929.5240086
929.0130069
928.4568979
927.8596079
927.2249542
926.5566311
925.8582105
925.1331828
924.3848675
923.6165705
922.8312795
922.0319712
921.2214585
920.402507
919.5776499
918.7492273
917.9196167
917.0909421
916.2651097
915.4440151
914.6294984
913.8229729
913.0258958
912.239765
911.4656559
910.704587
909.9574928
909.2252142
908.5085807
907.8080292
907.1240764
906.4570952
905.8073649
905.1750447
904.5602315
903.9629247
903.3830273
902.8203386
902.2745928
901.7454826
901.2325742
900.7355825
900.2538612
931.3643127
931.2940636
931.1435715
930.9214528
930.6329725
930.2826105
929.8749202
929.414031
928.9041664
928.3494571
927.7537168
927.1207629
926.454291
925.7578712
925.0350002
924.2890666
923.5232027
922.7404747
921.9438461
921.1361734
920.3201514
919.4982703
918.6729068
917.8464863
917.0209793
916.1983479
915.3805429
914.5692593
913.765969
912.9721165
912.1892388
911.4182997
910.6603613
909.9163509
909.1871438
908.4734807
907.7758407
907.0947341
906.4305325
905.7835121
905.1538305
904.5415847
903.9467705
903.3692893
902.8089363
902.2654462
901.7385074
901.2276883
900.7327022
900.2529174
931.2221742
931.1520884
931.0019495
930.7804174
930.4927281
930.1432944
929.7367679
929.2772702
928.768965
928.2159187
927.6221029
926.991288
926.3271437
925.6332686
924.9131804
924.1701404
923.4073242
922.6278172
921.8345582
921.0305057
920.2181307
919.4000046
918.5785651
917.7561202
916.9346336
916.1160742
915.3024618
914.4953129
913.696172
912.9065339
912.127784
911.3609468
910.6070702
909.8670705
909.1418605
908.4320713
907.7382269
907.0608241
906.4002254
905.7566941
905.1303756
904.5213551
903.9296118
903.3550327
902.797397
902.2564301
901.7318118
901.2231141
900.7300614
900.2520635
)
;

boundaryField
{
    front_top
    {
        type            wedge;
    }
    front_middle
    {
        type            wedge;
    }
    front_bottom
    {
        type            wedge;
    }
    back_top
    {
        type            wedge;
    }
    back_middle
    {
        type            wedge;
    }
    back_bottom
    {
        type            wedge;
    }
    axis_top
    {
        type            symmetryPlane;
    }
    axis_middle
    {
        type            symmetryPlane;
    }
    axis_bottom
    {
        type            symmetryPlane;
    }
    wall_top
    {
        type            calculated;
        value           nonuniform 0();
    }
    wall_middle
    {
        type            calculated;
        value           nonuniform 0();
    }
    wall_bottom
    {
        type            calculated;
        value           uniform 900.0184441;
    }
    inlet
    {
        type            calculated;
        value           nonuniform 0();
    }
    outlet
    {
        type            calculated;
        value           nonuniform List<scalar> 
50
(
931.2221742
931.1520884
931.0019495
930.7804174
930.4927281
930.1432944
929.7367679
929.2772702
928.768965
928.2159187
927.6221029
926.991288
926.3271437
925.6332686
924.9131804
924.1701404
923.4073242
922.6278172
921.8345582
921.0305057
920.2181307
919.4000046
918.5785651
917.7561202
916.9346336
916.1160742
915.3024618
914.4953129
913.696172
912.9065339
912.127784
911.3609468
910.6070702
909.8670705
909.1418605
908.4320713
907.7382269
907.0608241
906.4002254
905.7566941
905.1303756
904.5213551
903.9296118
903.3550327
902.797397
902.2564301
901.7318118
901.2231141
900.7300614
900.2520635
)
;
    }
    procBoundary0to1
    {
        type            processor;
        value           nonuniform List<scalar> 
51
(
934.0450348
933.972422
933.8168022
933.5869437
933.288062
932.9246702
932.5011242
932.0214478
931.4896818
930.9098202
930.2854678
929.6203326
928.9180132
928.1820498
927.4158216
926.6225813
925.8055415
924.8647501
924.8647501
924.0119861
923.1447841
922.2662635
921.3790533
920.4858279
919.5893381
918.6918199
917.7958248
916.9033687
916.016553
915.1373731
914.2674247
913.4085143
912.5619917
911.7291434
910.9113029
910.1092907
909.3239781
908.5562116
907.8065501
907.0754102
906.3631337
905.6699513
904.9959558
904.3411854
903.7055383
903.0888357
902.490734
901.9109311
901.3489317
900.804289
900.2764108
)
;
    }
}


// ************************************************************************* //
