/*--------------------------------*- C++ -*----------------------------------*\
  =========                 |
  \\      /  F ield         | OpenFOAM: The Open Source CFD Toolbox
   \\    /   O peration     | Website:  https://openfoam.org
    \\  /    A nd           | Version:  7
     \\/     M anipulation  |
\*---------------------------------------------------------------------------*/
FoamFile
{
    version     2.0;
    format      ascii;
    class       volScalarField;
    location    "0.0021";
    object      T;
}
// * * * * * * * * * * * * * * * * * * * * * * * * * * * * * * * * * * * * * //

dimensions      [0 0 0 1 0 0 0];

internalField   nonuniform List<scalar> 
1167
(
459.4148795
459.525709
459.7632866
460.1143343
460.5708368
461.1264718
461.7743924
462.5088688
463.3239313
464.2138232
465.173056
466.1961646
467.2778571
468.413007
469.5966218
470.8238234
472.0898237
459.5956122
459.7063916
459.9438574
460.2945698
460.7507815
461.3059081
461.9533677
462.6871034
463.5012841
464.3901575
465.3481829
466.3698795
467.4499388
468.5832147
469.7646962
470.9894873
472.2526791
473.5494108
474.8753084
476.2258464
477.596351
478.9828915
480.3811765
481.7872074
483.1973259
484.6075756
486.0148836
487.4157397
488.8071759
490.186475
491.5507143
492.8977459
494.2253162
495.53133
496.8143056
498.072716
499.3050207
500.5103156
501.687733
502.8365843
503.9563635
505.0467851
506.1076504
507.1389976
508.140989
509.1140644
510.0585942
510.9752788
511.8647389
512.7278451
459.7762031
459.8869265
460.1242681
460.4745876
460.9305232
461.4850871
462.1320772
462.8650319
463.6782858
464.5660909
465.5228544
466.543081
467.6214475
468.7527885
469.9320746
471.1543896
472.4146572
473.7083345
475.0308766
476.3776085
477.7441666
479.1264672
480.5201304
481.9214267
483.3264541
484.7315554
486.1335377
487.528827
488.9147015
490.2882686
491.6468336
492.9881584
494.3099545
495.610312
496.8876814
498.1405498
499.3673353
500.5672697
501.7394323
502.88314
503.9978954
505.0834165
506.1395042
507.1661841
508.163656
509.1323492
510.0726057
510.9851408
511.8705694
512.7297611
459.9566444
460.0673061
460.3043417
460.654419
461.1100538
461.6640259
462.3103434
463.042645
463.8549269
464.7416138
465.6970614
466.7157609
467.7923757
468.9217215
470.0987517
471.3183731
472.5758196
473.8663907
475.185498
476.5284205
477.8910032
479.2689312
480.6580627
482.0546207
483.4545636
484.8545292
486.2511149
487.6409632
489.0213092
490.389184
491.7421182
493.0777834
494.3938552
495.6886069
496.960421
498.2077396
499.4291148
500.6237374
501.7906924
502.9293022
504.0390776
505.1197403
506.1710706
507.1931329
508.186126
509.1504819
510.0865009
510.9949209
511.8763515
512.7316611
460.1369284
460.2474156
460.484211
460.8340548
461.2892125
461.8427165
462.4883065
463.219857
464.0311988
464.9167172
465.8707952
466.8879111
467.9627154
469.0900056
470.2646093
471.4815968
472.7361673
474.0235824
475.3391
476.6782894
478.0368682
479.4103805
480.7949871
482.1867675
483.5816685
484.9765123
486.3677099
487.7521619
489.1270127
490.4892343
491.8365799
493.1666161
494.4770279
495.7662225
497.0325305
498.2743396
499.4903625
500.679721
501.8415147
502.9750716
504.0799104
505.1557508
506.2023601
507.219855
508.2084073
509.1684433
510.1002795
511.0046188
511.882085
512.7335451
460.3168643
460.4272634
460.6638961
461.013487
461.4681
462.0211498
462.6659757
463.3966184
464.2070362
465.0913928
466.0440479
467.0595242
468.1324601
469.2575291
470.4297079
471.6440595
472.8957014
474.1798832
475.4917996
476.8272203
478.1817363
479.550848
480.9309173
482.3178243
483.7077831
485.0975189
486.4833505
487.8624332
489.2317478
490.5884324
491.9302287
493.2546155
494.5594824
495.8431663
497.1040158
498.3403637
499.5510816
500.7352225
501.8919004
503.0204487
504.1203939
505.1914237
506.233383
507.2463496
508.230499
509.1862518
510.1139408
511.0142341
511.8877696
512.7354131
460.4966128
460.6069321
460.8433888
461.192661
461.6467519
462.1992655
462.843343
463.5730381
464.3823687
465.2655113
466.2167408
467.2305091
468.3014478
469.4243371
470.5940959
471.8057591
473.0544225
474.3352007
475.6435997
476.9752156
478.3255329
479.6903484
481.0658673
482.4478988
483.8329209
485.2174963
486.5980496
487.9717898
489.3355814
490.6867885
492.0230756
493.3418572
494.6412246
495.9194439
497.1748573
498.4058152
499.6112745
500.7902434
501.9418504
503.0654338
504.160518
505.2267891
506.2641385
507.272616
508.2524004
509.2039069
510.1274842
511.0237664
511.893405
512.7372649
460.6761802
460.7864133
461.0226806
461.3714662
461.8251607
462.3769723
463.0204004
463.7491078
464.5573061
465.4391244
466.3888259
467.4008502
468.4698145
469.5904865
470.757771
471.9666936
473.2122696
474.489664
475.7945064
477.1222857
478.4683835
479.8288887
481.1998015
482.5770035
483.9570951
485.336473
486.7118197
488.0802439
489.4385456
490.7843117
492.1151291
493.4283485
494.7222604
495.99506
497.2450388
498.470697
499.6709429
500.8447847
501.991365
503.1100268
504.2002641
505.2618461
506.2946258
507.2986532
508.2741105
509.2214077
510.1409092
511.0332152
511.8989911
512.7391004
460.8555582
460.9656988
461.2017068
461.5500445
462.0033178
462.5543967
463.1970883
463.9248197
464.7318408
465.612286
466.5604081
467.5706363
468.6375734
469.755974
470.9207313
472.126862
473.3692129
474.6432795
475.9445294
477.2683282
478.6102947
479.9664766
481.3326983
482.7051495
484.0803174
485.4545124
486.8246726
488.18777
489.5406504
490.8810106
492.2063395
493.5140956
494.8025946
496.0700185
497.3146079
498.535011
499.7300882
500.8988472
502.0404443
503.1542231
504.23966
505.296594
506.324844
507.3244603
508.2956287
509.2387535
510.1542111
511.0425802
511.9045275
512.7409196
461.0347384
461.1447801
461.3803773
461.7283881
462.1811822
462.7315297
463.373309
464.1001669
464.9059657
465.7849896
466.7314822
467.7398627
468.8047202
469.920797
471.0829759
472.2861252
473.52535
474.7960506
476.0936742
477.4134375
478.7512757
480.1031209
481.4646465
482.8323474
484.2025498
485.5716258
486.9366192
488.2943478
489.6419051
490.9768934
492.2967363
493.5991043
494.882232
496.1443229
497.3835669
498.5987588
499.7887111
500.9524308
502.0890878
503.1979863
504.2787047
505.3310316
506.3547918
507.3500361
508.3169536
509.2559434
510.1673847
511.0518608
511.910014
512.7427224
461.2136422
461.3234591
461.5588239
461.906489
462.358625
462.908364
463.5491965
464.2750164
465.0796738
465.9572293
466.9020428
467.9085249
468.9712515
470.0849536
471.244411
472.444603
473.6806831
474.9479789
476.2418502
477.5576479
478.8913348
480.2387403
481.595658
482.9586085
484.3237879
485.6878235
487.0476696
488.4000547
489.7423178
491.0719673
492.3863611
493.6833795
494.9611763
496.2179101
497.4519176
498.6619414
499.8468118
501.0055353
502.1372949
503.2413555
504.3173969
505.3651573
506.3844678
507.3753793
508.3380842
509.2729763
510.1804378
511.0610564
511.9154502
512.7445086
461.3922059
461.5019131
461.7370389
462.0843391
462.5357923
463.0848924
463.7247435
464.4494365
465.2528512
466.1289993
467.072085
468.0766185
469.1371628
470.2483445
471.4050663
472.6023214
473.8352148
475.0990682
476.3891002
477.7009664
479.0304812
480.3733884
481.7257425
483.0839429
484.4441071
485.8031154
487.1578253
488.5048993
489.8418965
491.1662238
492.4752194
493.7669256
495.0394308
496.2908431
497.5196612
498.724559
499.9043896
501.0581587
502.1850287
503.2843299
504.3557351
505.3989696
506.4138703
507.4004882
508.3590189
509.289851
510.1933694
511.0701662
511.9208356
512.7462781
461.5705484
461.6801402
461.9150143
462.2618131
462.7126755
463.2609859
463.8999435
464.6234701
465.4255256
466.3001359
467.2415082
468.2440426
469.3023004
470.4110027
471.565009
472.7592827
473.9889489
475.2492305
476.5354885
477.8433997
479.168707
480.5071216
481.8549069
483.2083025
484.5635183
485.9175115
487.2670037
488.6088895
489.9406478
491.259612
492.5633158
493.849746
495.1169978
496.363129
497.5867982
498.786611
499.9614435
501.1103
502.2323103
503.326907
504.3937169
505.4324661
506.442997
507.4253606
508.3797558
509.3065658
510.2061783
511.0791894
511.9261697
512.7480307
461.7486622
461.8581326
462.0927421
462.4389519
462.8892671
463.436688
464.0747896
464.7971107
465.5977641
466.4707687
467.4103231
468.410817
469.4668032
470.5729925
471.724239
472.915489
474.1418894
475.3985181
476.6810222
477.984957
479.3059306
480.6399453
481.9831577
483.3316888
484.6820304
486.0310203
487.3753128
488.7120323
490.0385778
491.3522092
492.6506537
493.9318426
495.1938366
496.4347695
497.6533288
498.848097
500.0179721
501.1619458
502.2791499
503.3690833
504.4313391
505.4656435
506.4718448
507.4499939
508.4002926
509.3231187
510.2188627
511.0881248
511.9314519
512.7497663
461.9265394
462.0358826
462.2700888
462.6158166
463.06556
463.6120627
464.2491753
464.9703517
465.7695613
466.6409158
467.5786072
468.5770148
469.6306828
470.7343138
471.8827571
473.0709429
474.2938977
475.5469843
476.825707
478.1256432
479.4422662
480.7718691
482.1105043
483.4541745
484.7996499
486.1436489
487.4827596
488.8143339
490.1356916
491.4440194
492.7372358
494.013217
495.2699592
496.5057644
497.7192523
498.9090153
500.0739731
501.2130667
502.3255437
503.4108548
504.4685974
505.4984979
506.5004099
507.4743843
508.4206259
509.339507
510.2314207
511.0969709
511.9366812
512.7514844
462.1041724
462.213316
462.4471126
462.7923993
463.2414471
463.7871037
464.4231183
465.1431872
465.9409119
466.8105733
467.7463572
468.7426333
469.7939378
470.894966
472.040563
473.2255713
474.4451134
475.6946322
476.9695437
478.2653451
479.5777257
480.9029033
482.2368702
483.5757664
484.9163812
486.2553053
487.5893521
488.9158004
490.2319141
491.535046
492.8230648
494.0938712
495.3453975
496.576112
497.7845663
498.9693629
500.1294429
501.263697
502.3714872
503.4522167
504.5054867
505.5310239
506.5286873
507.4985274
508.4407518
509.3557274
510.2438494
511.1057257
511.9418564
512.7531847
462.2814156
462.3903721
462.6238658
462.9686923
463.4169294
463.9618044
464.5966877
465.3154386
466.1118112
466.9797372
467.9135701
468.9076702
469.956567
471.0549486
472.1976077
473.3793737
474.5955483
475.8414668
477.1125393
478.4041638
479.7123146
481.0330557
482.3623107
483.696472
485.0322321
486.3660885
487.6950943
489.0164361
490.3273154
491.6252915
492.908142
494.1737823
495.4201503
496.6458096
497.8492671
499.0291353
500.1843415
501.3138305
502.4169739
503.493162
504.5420001
505.5632149
506.5566704
507.5224171
508.4606649
509.3717752
510.2561453
511.1143867
511.946976
512.7548668
462.4583512
462.5671628
462.8003409
463.1446887
463.5920925
464.1361578
464.7698772
465.4872667
466.2821167
467.1484037
468.0802428
469.0721237
470.1185694
471.2141986
472.3538306
473.5324316
474.745206
475.9874952
477.2546029
478.5421287
479.8460369
481.1623208
482.4868715
483.8162982
485.1472094
486.4760099
487.7999898
489.1162439
490.4219118
491.7147573
492.9924676
494.2529184
495.4942151
496.7148534
497.9133499
499.0883266
500.2386767
501.3634602
502.4619961
503.5336827
504.5781293
505.5950625
506.5843514
507.5460459
508.4803584
509.3876445
510.2683037
511.1229503
511.9520379
512.7565298
462.6350196
462.7436802
462.9765298
463.3201953
463.7669304
464.3099975
464.9426808
465.6586728
466.4519204
467.3163952
468.2462738
469.2359053
470.2798157
471.372689
472.5093484
473.6847486
474.8940907
476.1327225
477.395805
478.6792461
479.9788982
481.290607
482.6105588
483.9352513
485.2612095
486.5850732
487.9040404
489.2151655
490.515706
491.8034442
493.0760408
494.3313317
495.5675881
496.7832382
497.976808
499.146929
500.2924602
501.4125758
502.5065429
503.5737674
504.6138626
505.6265551
506.6117188
507.5694031
508.4998227
509.4033273
510.2803178
511.1314118
511.9570392
512.758173
462.8114129
462.9199167
463.1524228
463.4953863
463.9414362
464.483464
465.1150929
465.829652
466.6212592
467.4838816
468.4116886
469.3990237
470.4404054
471.5305159
472.6641644
473.8363281
475.0422047
476.2770223
477.5361898
478.8155253
480.1109064
481.4180314
482.7333798
484.0533383
485.374346
486.6932842
488.007251
489.3132346
490.6087004
491.8913535
493.1588534
494.4090211
495.6402664
496.8509593
498.0396348
499.2048852
500.3456858
501.4611696
502.5506053
503.6134064
504.6491898
505.6576822
506.6387622
507.5924787
508.5190484
509.4188151
510.2921811
511.1397661
511.9619769
512.7597951
462.9875234
463.0958644
463.3278265
463.6702614
464.1156037
464.6565654
465.2869658
466.000201
466.7901312
467.6508634
468.5765596
469.5615584
470.6003727
471.6876826
472.8182839
473.9871767
475.1895195
476.4205174
477.6757659
478.9509753
480.2419779
481.5446075
482.8553465
484.1705509
485.486632
486.8006525
488.109631
489.4104895
490.7008993
491.9784878
493.2408488
494.4859895
495.7122507
496.9180154
498.1018278
499.2622385
500.398346
501.5092334
502.5941742
503.6525896
504.6841003
505.6884329
506.6654707
507.6152621
508.538026
509.4340996
510.3038866
511.1480085
511.9668481
512.7613954
463.1633287
463.2713838
463.5029247
463.8448149
464.2892888
464.8292981
465.458404
466.1702977
466.9585373
467.8173427
468.7408909
469.7235159
470.7597257
471.8441992
472.9717191
474.1373093
475.3359885
476.5632439
477.8145523
479.0856184
480.3721923
481.6703601
482.9764857
484.2868467
485.5980962
486.907208
488.211151
489.506961
490.7923341
492.0648802
493.3221286
494.56227
495.783576
496.9844436
498.1634118
499.3190315
500.4504815
501.5568092
502.6372924
503.6913598
504.7186355
505.7188461
506.6918794
507.6377831
508.5567785
509.4491973
510.3154444
511.1561372
511.9716547
512.7629742
463.3387247
463.4466077
463.6777762
464.0191057
464.4626561
465.0017222
465.6295048
466.339869
467.12654
467.9833832
468.9047471
469.8849622
470.9185321
472.0001356
473.1245427
474.2866669
475.4817946
476.7052886
477.952644
479.2194948
480.5016997
481.7954113
483.0969342
484.4024691
485.7089101
487.0131421
488.3120457
489.6028868
490.883268
492.1508197
493.4030085
494.6382042
495.8546088
497.0506316
498.224757
499.3756794
500.5025106
501.6043092
502.6803558
503.7300852
504.7531252
505.7492029
506.7182131
507.6602068
508.5754128
509.4641633
510.3268708
511.1641501
511.9763836
512.7645254
463.5570265
463.6646915
463.8953876
464.235919
464.678387
465.2161864
465.8423638
466.5507928
467.3352873
468.1898091
469.1084589
470.0856366
471.1158822
472.1938264
473.3142033
474.4721208
475.6627953
476.8815561
478.1239344
479.3854009
480.6621635
481.9502448
483.2458514
484.5453671
485.845696
487.1437109
488.4361817
489.7206575
490.9946251
492.2556346
493.5013946
494.7301782
495.9402111
497.1299207
498.2977315
499.4425158
500.5633139
501.6592073
502.7294927
503.7736273
504.7912598
505.782138
506.7461852
507.6834776
508.5942715
509.4789159
510.3378394
511.1716519
511.9807193
512.7659288
)
;

boundaryField
{
    front_top
    {
        type            wedge;
    }
    front_middle
    {
        type            wedge;
    }
    front_bottom
    {
        type            wedge;
    }
    back_top
    {
        type            wedge;
    }
    back_middle
    {
        type            wedge;
    }
    back_bottom
    {
        type            wedge;
    }
    axis_top
    {
        type            symmetryPlane;
    }
    axis_middle
    {
        type            symmetryPlane;
    }
    axis_bottom
    {
        type            symmetryPlane;
    }
    wall_top
    {
        type            convectiveRadiativeHeatFlux;
        mode            convectiveRadiative;
        kappaMethod     fluidThermo;
        kappa           none;
        alphaAni        Anialpha;
        h               nonuniform 0();
        Ta              constant 513.15;
        emissivityNozzle 0.95;
        emissivityFilament 0.95;
        dNozzle         2;
        dFilament       1.65;
        refValue        nonuniform 0();
        refGradient     nonuniform 0();
        valueFraction   nonuniform 0();
        value           nonuniform 0();
    }
    wall_middle
    {
        type            fixedValue;
        value           nonuniform 0();
    }
    wall_bottom
    {
        type            fixedValue;
        value           uniform 513.15;
    }
    inlet
    {
        type            fixedValue;
        value           nonuniform 0();
    }
    outlet
    {
        type            zeroGradient;
    }
    procBoundary0to1
    {
        type            processor;
        value           nonuniform List<scalar> 
51
(
459.2340123
459.3448864
459.5825635
459.9337699
460.3906973
460.9466414
461.5951608
462.330337
463.1462334
464.0369859
464.9973242
466.0218112
467.1051642
468.2421735
469.4278571
470.6574059
471.9260474
473.389618
473.389618
474.7188213
476.0730473
477.4475455
478.8382993
480.2411903
481.6519489
483.0670838
484.4825778
485.895231
487.3016828
488.6987153
490.0837234
491.4537466
492.8065337
494.1399201
495.451652
496.7402863
498.0042911
499.242167
500.4528723
501.6355928
502.789634
503.9144816
505.0098465
506.0755304
507.1115672
508.1181204
509.0956281
510.0444666
510.9653351
511.85886
512.7259132
)
;
    }
}


// ************************************************************************* //
