/*--------------------------------*- C++ -*----------------------------------*\
  =========                 |
  \\      /  F ield         | OpenFOAM: The Open Source CFD Toolbox
   \\    /   O peration     | Website:  https://openfoam.org
    \\  /    A nd           | Version:  7
     \\/     M anipulation  |
\*---------------------------------------------------------------------------*/
FoamFile
{
    version     2.0;
    format      ascii;
    class       volScalarField;
    location    "0.0021";
    object      thermo:mu;
}
// * * * * * * * * * * * * * * * * * * * * * * * * * * * * * * * * * * * * * //

dimensions      [1 -1 -1 0 0 0 0];

internalField   nonuniform List<scalar> 
1167
(
45946.25926
45575.81419
44793.53341
43666.45791
42250.52777
40599.68764
38770.04137
36812.6929
34775.98263
32702.91029
30630.34727
28589.32793
26604.76821
24695.84893
22876.60668
21156.58426
19541.51733
45343.97769
44979.42002
44209.55504
43100.8233
41707.35208
40082.94211
38281.95141
36355.4953
34350.66919
32309.71849
30268.99927
28259.04393
26304.37656
24423.89265
22631.43042
20936.41024
19344.6335
17858.78908
16478.60806
15202.17989
14026.31398
12946.20341
11956.75734
11052.31642
10226.91174
9474.817718
8790.028997
8167.077075
7600.589876
7085.505556
6617.251542
6191.399595
5803.984645
5451.386682
5130.202002
4837.40799
4570.311121
4326.38256
4103.375436
3899.266657
3712.234037
3540.63028
3382.985098
3237.963781
3104.368626
2981.104193
2867.208601
2761.790368
2664.066888
2573.315594
44751.45911
44392.69724
43635.05506
42544.49404
41173.01181
39574.68314
37801.82688
35905.77659
33932.33213
31922.99842
29913.62326
27934.24281
26008.99331
24156.49068
22390.3786
20719.96114
19151.15894
17686.24344
16325.19361
15066.2898
13906.13442
12840.17675
11863.4958
10970.36992
10155.11398
9411.953454
8735.079809
8119.163285
7558.833066
7049.201483
6585.703951
6164.032036
5780.304329
5430.915383
5112.543311
4822.215113
4557.292005
4315.257183
4093.911646
3891.262286
3705.512395
3535.037415
3378.387225
3234.24613
3101.426209
2978.846607
2865.56006
2760.682659
2663.440601
2573.118454
44168.54301
43815.48694
43070.40432
41997.19564
40647.36074
39074.69762
37329.9795
35463.41375
33520.85654
31542.6429
29564.11838
27614.82966
25718.53048
23893.5615
22153.37478
20507.36386
18960.95135
17516.61623
16174.40713
14932.69293
13787.9748
12736.00288
11771.78608
10889.77353
10084.48408
9350.097507
8681.039678
8071.989029
7517.707824
7013.433928
6554.611104
6137.048489
5756.946835
5410.714971
5095.111198
4807.224136
4544.429631
4304.261534
4084.554764
3883.345568
3698.862174
3529.502288
3373.838462
3230.566207
3098.512762
2976.6099
2863.926355
2759.584689
2662.819699
2572.922973
43595.07185
43247.96718
42514.99374
41458.7823
40130.69287
38582.84795
36865.875
35028.4717
33116.12699
31168.5447
29220.38444
27300.71106
25432.90181
23635.02673
21920.5022
20298.33475
18773.94399
17349.84602
16026.26589
14801.33859
13671.7906
12633.57636
11681.5909
10810.51649
10014.99427
9289.225618
8627.850856
8025.537455
7477.199664
6978.190883
6523.96328
6110.445646
5733.905794
5390.780521
5077.901913
4792.421132
4531.721943
4293.394144
4075.30377
3875.515815
3692.282917
3524.025464
3369.337055
3226.922348
3095.62714
2974.396376
2862.307515
2758.496484
2662.204197
2572.729156
43031.45959
42689.91891
41968.58454
40929.10769
39622.54023
38099.0015
36409.33817
34600.91949
32718.15717
30800.59714
28882.32193
26991.79434
25152.02089
23380.96637
21691.59136
20092.80388
18590.07156
17185.90373
15880.60552
14672.17896
13557.56407
12532.84107
11592.87384
10732.60026
9946.617541
9229.314601
8575.487269
7979.793485
7437.324141
6943.4607
6493.751489
6084.231023
5711.174898
5371.107263
5060.911878
4777.801318
4519.167009
4282.653636
4066.157703
3867.772369
3685.774181
3518.610327
3364.881348
3223.314534
3092.769356
2972.2037
2860.703575
2757.418074
2661.594118
2572.537013
42477.01146
42140.90443
41431.02953
40408.16223
39122.63683
37623.16366
35960.2418
34180.34827
32326.96729
30438.94506
28549.96776
26688.13551
24876.05514
23131.22012
21466.4954
19890.70344
18409.27088
17024.82829
15737.37475
14545.16975
13445.31596
12433.75556
11505.59928
10655.93785
9879.327713
9170.374633
8523.930345
7934.741376
7398.046872
6909.23294
6463.966688
6058.377545
5688.749001
5351.691018
5044.143539
4763.362259
4506.763041
4272.038732
4057.115676
3860.114633
3679.337207
3513.252026
3360.471229
3219.74273
3089.939423
2970.031904
2859.114571
2756.34949
2660.989483
2572.346549
41931.53355
41600.77654
40902.18492
39896.08927
38630.84486
37155.41426
35518.46093
33766.64097
31942.17754
30083.35321
28223.29618
26389.65392
24604.68311
22885.61625
21245.14095
19691.96745
18231.54909
16866.42972
15596.52084
14420.26113
13334.91161
12336.28457
11419.76424
10580.50028
9813.099727
9112.37597
8473.161999
7890.365822
7359.347333
6875.497732
6434.600708
6032.878766
5666.623131
5332.527911
5027.598517
4749.101725
4494.508402
4261.548262
4048.17688
3852.542074
3672.974532
3507.950379
3356.106615
3216.206918
3087.137356
2967.881021
2857.540542
2755.290767
2660.390313
2572.157774
41394.8796
41069.39023
40382.0701
39392.31077
38147.03108
36695.26264
35083.99879
33359.68104
31563.6789
29733.59063
27901.99449
26096.09012
24337.79172
22644.07652
21027.45599
19496.53021
18056.87743
16710.64943
15457.98893
14297.49866
13226.31186
12240.39355
11335.35659
10506.26008
9747.909693
9055.272827
8423.164905
7846.667305
7321.213716
6842.245534
6405.664024
6007.728626
5644.792556
5313.614298
5011.263487
4735.017644
4482.401587
4251.181165
4039.340595
3845.054947
3666.68131
3502.705236
3351.787447
3212.707093
3084.363185
2965.751095
2855.982003
2754.241941
2659.796634
2571.970695
40866.9062
40546.60345
39870.7706
38896.68899
37671.15124
36242.58462
34656.94504
32959.35197
31191.3624
29389.55465
27585.96574
25807.35432
24075.29817
22406.52354
20813.36829
19304.49298
17885.08764
16557.43306
15321.7295
14176.76278
13119.4762
12146.04779
11252.29524
10433.19077
9683.760444
8999.045668
8373.922552
7803.643991
7283.634777
6809.467238
6377.141919
5982.921379
5623.252799
5294.946744
4995.13586
4721.108106
4470.441218
4240.936479
4030.606178
3837.658851
3660.457317
3497.516496
3347.513701
3209.243282
3081.616959
2963.642184
2854.439541
2753.203057
2659.208474
2571.785324
40347.67392
40032.81724
39367.7382
38409.08954
37203.38689
35797.25356
34236.82938
32565.82131
30825.12075
29051.14379
27275.1146
25523.35779
23817.12005
22172.88068
20602.92811
19115.64414
17716.121
16406.72942
15187.78068
14057.98704
13014.36612
12053.27511
11170.54932
10361.26624
9620.637005
8943.675724
8325.419183
7761.255043
7246.599788
6777.154167
6349.016192
5958.451562
5601.999616
5276.538458
4979.213237
4707.371354
4458.626051
4230.81336
4021.973085
3830.346642
3654.302387
3492.384102
3343.285394
3205.815542
3078.898757
2961.554366
2852.912208
2752.174169
2658.625868
2571.601671
39837.19183
39527.3473
38872.83645
37929.37973
36743.19539
35359.14507
33823.53397
32178.79926
30465.07012
28718.2582
26969.34761
25244.01384
23563.1783
21943.20912
20396.0234
18929.89015
17549.91964
16258.48642
15056.05945
13941.12927
12910.94334
11962.01057
11090.08998
10290.46148
9558.483686
8889.144941
8277.643003
7719.487974
7210.098524
6745.303149
6321.280276
5934.314017
5581.029032
5258.37107
4963.493409
4693.805835
4446.955066
4220.811234
4013.447164
3823.117936
3648.21635
3487.30802
3339.102571
3202.423962
3076.208681
2959.487746
2851.400092
2751.155344
2658.048856
2571.419751
39334.9512
39030.03962
38385.93124
37457.73859
36290.45223
34928.43213
33416.941
31798.06269
30111.02731
28391.0995
26668.74124
24969.39444
23313.62
21717.38243
20192.49812
18747.16784
17386.42602
16112.74187
14926.46668
13826.14865
12809.18306
11872.1896
11010.89098
10220.78472
9497.27943
8835.435762
8230.618656
7678.33084
7174.121237
6713.925249
6293.927976
5910.503908
5560.337344
5240.440426
4947.974353
4680.410124
4435.427292
4210.929441
4005.02395
3815.972655
3642.199217
3482.288334
3334.965364
3199.068694
3073.546888
2957.442464
2849.903312
2750.146671
2657.477493
2571.239581
38840.81532
38540.75924
37906.89051
36993.89725
35845.03291
34504.86062
33016.93587
31423.503
29762.73645
28069.3058
26373.1718
24699.37154
23068.14844
21495.23564
19992.28611
18567.41569
17225.58371
15969.39711
14798.95631
13713.0034
12709.11449
11783.78328
10932.92689
10152.21625
9437.004472
8782.531488
8184.288748
7637.772242
7138.658714
6682.988573
6266.953604
5887.017013
5539.932382
5222.743714
4932.654107
4667.182884
4424.04185
4201.169606
3996.700956
3808.910852
3636.251139
3477.325254
3330.874011
3195.749983
3070.913605
2955.418719
2848.422028
2749.148263
2656.911848
2571.061185
38354.65041
38059.37353
37435.91583
36537.54461
35406.81324
34088.13693
32623.62895
31055.01315
29420.09574
27752.73747
26082.40405
24433.73608
22826.66568
21276.69671
19795.32179
18390.5735
17067.48524
15828.35582
14673.4845
13601.65595
12610.62444
11696.76065
10856.17113
10084.69768
9377.640812
8730.416579
8138.64022
7597.801417
7103.702248
6652.486207
6240.351756
5863.849144
5519.807868
5205.278605
4917.531001
4654.123003
4412.798071
4191.536343
3988.478149
3801.932695
3630.372401
3472.419125
3326.828877
3192.468181
3068.309154
2953.416786
2846.956456
2748.160279
2656.352013
2570.884593
37876.32476
37585.92785
36972.69267
36088.55684
34975.91493
33678.14342
32236.84574
30692.48725
29083.00443
27441.29903
25796.34924
24172.40601
22589.09542
21061.69581
19601.54239
18216.66664
16911.93344
15689.57159
14550.01299
13492.16213
12513.6764
11611.09096
10780.64889
10018.20819
9319.171987
8679.121241
8093.659684
7558.407762
7069.271932
6622.411528
6214.117213
5840.996176
5499.952417
5188.043262
4902.603751
4641.229682
4401.695559
4182.022329
3980.35569
3795.038513
3624.563439
3467.570437
3322.830462
3189.223766
3065.733965
2951.437029
2845.506885
2747.182921
2655.79811
2570.709843
37406.07169
37120.42407
36516.93489
35646.8112
34552.18824
33274.76479
31856.30562
30336.1758
28751.3633
27134.89695
25514.92015
23915.30047
22355.36305
20850.16457
19410.94533
18045.63804
16758.8679
15552.99778
14428.49885
13384.40928
12418.23931
11526.74594
10706.30643
9952.72708
9261.580111
8628.587779
8049.335905
7519.581722
7035.335811
6592.758366
6188.245197
5818.46103
5480.36354
5171.03608
4887.871402
4628.502467
4390.741171
4172.627817
3972.334048
3788.228927
3618.824962
3462.779934
3318.879499
3186.017423
3063.188645
2949.479956
2844.073711
2746.216471
2655.250301
2570.53699
36943.51404
36662.41474
36068.51806
35212.18524
34135.28765
32877.88872
31481.90055
29985.62414
28425.33698
26833.43958
25238.03103
23662.33985
22125.39497
20642.11776
19223.54059
17877.3426
16608.23814
15418.5865
14308.98243
13278.34359
12324.28395
11443.70658
10633.0973
9888.234383
9204.848203
8578.799736
8005.657956
7481.314349
7001.881662
6563.521025
6162.731357
5796.249029
5461.039064
5154.2557
4873.333249
4615.941166
4379.932167
4163.353305
3964.413936
3781.50479
3613.157903
3458.048572
3314.976923
3182.850024
3060.67397
2947.546223
2842.657452
2745.261298
2654.708806
2570.366102
36488.39872
36211.77624
35627.32159
34785.00885
33725.09546
32487.76054
31113.52444
29640.71749
28104.63773
26537.14141
24965.7588
23413.57666
21899.29824
20437.52097
19039.12709
17711.72439
16459.99429
15286.29326
14191.36806
13173.93002
12231.78063
11362.00865
10560.99924
9824.711019
9149.013514
8529.744281
7962.615859
7443.620208
6968.902242
6534.694109
6137.571771
5774.342059
5441.977269
5137.701229
4858.989067
4603.546085
4369.265114
4154.199811
3956.596593
3774.867483
3607.563711
3453.377806
3311.124132
3179.72286
3058.191077
2945.636778
2841.258842
2744.317915
2654.173919
2570.197276
36040.60256
35768.38611
35193.23026
34364.71335
33321.49803
32103.93305
30751.0721
29301.35559
27789.09205
26245.60234
24697.96941
23168.9141
21676.85785
20236.18419
18857.64394
17548.72907
16314.08937
15156.19239
14075.58451
13071.13246
12140.69881
11281.55524
10489.98982
9762.137938
9094.00699
8481.408142
7920.198608
7406.478686
6936.390615
6506.272153
6112.764711
5752.73706
5423.176145
5121.371566
4844.83857
4591.327848
4358.740152
4145.167933
3948.882925
3768.318112
3602.043612
3448.768911
3307.322393
3176.637133
3055.741062
2943.752566
2839.878645
2743.386878
2653.645976
2570.030619
35600.00491
35332.12512
34766.57474
33951.16649
32924.38232
31726.26581
30394.73307
28967.43757
27478.60324
25958.72908
24434.45889
22928.15356
21457.95605
20038.04057
18679.02934
17388.3002
16170.50773
15028.1333
13961.59218
12969.91568
12051.07078
11202.31728
10420.04455
9700.504423
9039.809691
8433.776437
7878.393636
7369.867883
6904.339279
6478.249386
6088.322972
5731.429917
5404.632867
5105.264859
4830.880588
4579.275877
4348.357646
4136.258322
3941.273851
3761.857804
3596.598867
3444.223212
3303.573027
3173.594104
3053.325063
2941.894554
2838.517614
2742.468708
2653.125267
2569.866222
35166.52224
34903.1947
34346.76367
33544.25177
32533.94543
31354.64811
30044.17021
28638.90038
27173.07187
25676.42732
24175.13798
22691.21059
21242.51406
19843.01701
18503.2152
17230.37448
16029.25063
14902.04711
13849.34362
12870.23568
11962.81762
11124.25904
10351.131
9639.817794
8986.395641
8386.825864
7837.204242
7333.769238
6872.731551
6450.610396
6064.21224
5710.408341
5386.335812
5089.370172
4817.107844
4567.379938
4338.108542
4127.462398
3933.761286
3755.479045
3591.222643
3439.734683
3299.870934
3170.589683
3050.940033
2940.060687
2837.174544
2741.56357
2652.611593
2569.704047
34740.26852
34481.12901
33933.52788
33143.70756
32149.68929
30988.83689
29699.07568
28315.77728
26872.29093
25398.50323
23919.82589
22457.91693
21030.37585
19650.9688
18330.06689
17074.96627
15890.10056
14777.82261
13738.73244
12772.03648
11875.81531
11047.28644
10283.15586
9579.937492
8933.671953
8340.463099
7796.527501
7298.087881
6841.471617
6423.258835
6040.335724
5689.575746
5368.189119
5073.593209
4803.436385
4555.55217
4327.909925
4118.703419
3926.27587
3749.120949
3585.863403
3435.261678
3296.184453
3167.601741
3048.57233
2938.244207
2835.84753
2740.671693
2652.106336
2569.544714
34218.26786
33964.24693
33427.44033
32653.33103
31679.03145
30540.8808
29276.30998
27919.88463
26504.06426
25057.96007
23606.88041
22171.91478
20770.26535
19415.50839
18117.87192
16884.33068
15719.37343
14625.39384
13603.00188
12651.59225
11769.07266
10952.87103
10199.85889
9506.552169
8869.107175
8283.745995
7746.832159
7254.569313
6803.426476
6390.091127
6011.445826
5664.466894
5346.419683
5054.772215
4787.235151
4541.645438
4316.028778
4108.608738
3917.75616
3741.987903
3579.949291
3430.416911
3292.274189
3164.504611
3046.178424
2936.454994
2834.574402
2739.837021
2651.643202
2569.400575
)
;

boundaryField
{
    front_top
    {
        type            wedge;
    }
    front_middle
    {
        type            wedge;
    }
    front_bottom
    {
        type            wedge;
    }
    back_top
    {
        type            wedge;
    }
    back_middle
    {
        type            wedge;
    }
    back_bottom
    {
        type            wedge;
    }
    axis_top
    {
        type            symmetryPlane;
    }
    axis_middle
    {
        type            symmetryPlane;
    }
    axis_bottom
    {
        type            symmetryPlane;
    }
    wall_top
    {
        type            calculated;
        value           nonuniform 0();
    }
    wall_middle
    {
        type            calculated;
        value           nonuniform 0();
    }
    wall_bottom
    {
        type            calculated;
        value           uniform 2530.329233;
    }
    inlet
    {
        type            calculated;
        value           nonuniform 0();
    }
    outlet
    {
        type            calculated;
        value           nonuniform List<scalar> 
50
(
34218.26786
33964.24693
33427.44033
32653.33103
31679.03145
30540.8808
29276.30998
27919.88463
26504.06426
25057.96007
23606.88041
22171.91478
20770.26535
19415.50839
18117.87192
16884.33068
15719.37343
14625.39384
13603.00188
12651.59225
11769.07266
10952.87103
10199.85889
9506.552169
8869.107175
8283.745995
7746.832159
7254.569313
6803.426476
6390.091127
6011.445826
5664.466894
5346.419683
5054.772215
4787.235151
4541.645438
4316.028778
4108.608738
3917.75616
3741.987903
3579.949291
3430.416911
3292.274189
3164.504611
3046.178424
2936.454994
2834.574402
2739.837021
2651.643202
2569.400575
)
;
    }
    procBoundary0to1
    {
        type            processor;
        value           nonuniform List<scalar> 
51
(
46558.46717
46182.04141
45387.14824
44241.94056
42802.68705
41125.49169
39266.22856
37277.49516
35208.39855
33102.93808
30998.10429
28925.45063
26910.33994
24972.44058
23125.9843
21380.54982
19741.93594
18034.3149
18034.3149
16634.67602
15340.48811
14148.56187
13054.04799
12051.60698
11135.64627
10299.95151
9538.713536
8845.865551
8215.749897
7642.994205
7122.382416
6649.264444
6219.15964
5827.997256
5472.134125
5148.091318
4852.792799
4583.489201
4337.639256
4112.947239
3907.359418
3719.02756
3546.281126
3387.629238
3241.720135
3107.34072
2983.382631
2868.871994
2762.90782
2664.698557
2573.514391
)
;
    }
}


// ************************************************************************* //
