/*--------------------------------*- C++ -*----------------------------------*\
  =========                 |
  \\      /  F ield         | OpenFOAM: The Open Source CFD Toolbox
   \\    /   O peration     | Website:  https://openfoam.org
    \\  /    A nd           | Version:  7
     \\/     M anipulation  |
\*---------------------------------------------------------------------------*/
FoamFile
{
    version     2.0;
    format      ascii;
    class       volVectorField;
    location    "0.0024";
    object      grad(generalizedNewtonian:nu);
}
// * * * * * * * * * * * * * * * * * * * * * * * * * * * * * * * * * * * * * //

dimensions      [0 1 -1 0 0 0 0];

internalField   nonuniform List<vector> 
1167
(
(-640.2976061 0 -1447.327774)
(-715.2200658 8.333933657e-10 -2835.649611)
(-381.2873636 0 -2809.22369)
(-797.889842 0 -2755.711929)
(-1551.230301 0 -2638.838509)
(-1802.434875 -5.15666669e-11 -2516.916888)
(-2107.746168 0 -2369.258361)
(-2404.021888 3.774186221e-11 -2200.650052)
(-2660.734065 0 -2017.193963)
(-2879.594585 0 -1822.577334)
(-3063.41487 0 -1620.031333)
(-3213.319033 -2.610869962e-11 -1412.657942)
(-3330.60313 0 -1203.254808)
(-3417.535172 0 -994.1257028)
(-3476.8684 0 -787.1605017)
(-3511.319221 -1.055954369e-11 -583.8255017)
(-3523.962357 -1.015474971e-11 -385.3680884)
(-3517.915343 0 -192.3589006)
(-3495.923477 0 -5.546184967)
(-3461.36937 0 175.0757179)
(-3417.401911 -9.011478556e-12 349.5467675)
(-3366.259268 0 517.7865245)
(-3311.029482 8.634426345e-12 680.2523509)
(-3254.455246 0 837.3990924)
(-3198.684855 8.344416676e-12 989.4543766)
(-3146.349204 0 1136.998228)
(-3100.136472 0 1280.65674)
(-3062.501555 4.015900765e-12 1420.893096)
(-3036.055515 0 1558.302028)
(-3023.917232 0 1693.667043)
(-3029.062695 3.914626408e-12 1827.662261)
(-3054.772582 0 1961.110059)
(-3104.497831 0 2094.963339)
(-3181.283844 7.709584675e-12 2230.0143)
(-3287.596292 0 2367.024984)
(-3424.010627 0 2506.120107)
(-3587.435052 -3.827513537e-12 2646.25451)
(-3769.554952 0 2784.44247)
(-3954.828331 0 2914.739644)
(-4120.104563 -1.913392543e-12 3027.866617)
(-4238.383805 3.831683847e-12 3112.169225)
(-4284.87374 -5.758411109e-12 3155.979878)
(-4244.628313 1.924224513e-12 3151.103257)
(-4118.669961 0 3096.126289)
(-3925.07885 1.936924276e-12 2997.714962)
(-3694.722626 -1.944789343e-12 2869.073583)
(-3462.936326 -9.768090521e-13 2725.755447)
(-3260.691741 -9.816900741e-13 2580.858876)
(-3108.184684 0 2441.760261)
(-3004.292563 0 2305.207966)
(-2852.440774 0 2116.933921)
(-814.1261569 0 -4770.783758)
(-464.1125728 0 -4723.61814)
(-960.3539734 0 -4658.046146)
(-1833.416938 0 -4500.265886)
(-2140.16774 0 -4333.591522)
(-2504.050061 -4.713125668e-11 -4133.508613)
(-2856.514824 0 -3905.98279)
(-3163.01566 0 -3658.861299)
(-3425.236259 0 -3397.432465)
(-3646.392441 0 -3126.329719)
(-3827.965839 0 -2849.927901)
(-3971.702216 2.662708457e-11 -2572.144032)
(-4080.257888 0 -2296.200091)
(-4157.083683 0 -2024.871014)
(-4205.223498 0 -1760.223448)
(-4228.604033 0 -1503.776012)
(-4230.666157 0 -1256.585258)
(-4214.745258 -1.03255863e-11 -1019.299864)
(-4184.744513 0 -791.8932493)
(-4143.436564 0 -574.4007604)
(-4093.983147 0 -366.2627543)
(-4039.320804 9.380933565e-12 -166.7806048)
(-3981.560776 9.21306501e-12 24.74309451)
(-3923.296287 9.065850501e-12 209.3022706)
(-3866.955114 0 387.9582764)
(-3814.189026 0 561.577766)
(-3767.281805 0 731.1340709)
(-3728.590626 -4.320648631e-12 897.6866459)
(-3700.011302 0 1062.041352)
(-3684.079341 -8.506147056e-12 1225.01716)
(-3683.335767 0 1387.485815)
(-3700.341669 4.205407431e-12 1550.095595)
(-3737.733798 -4.188066429e-12 1713.479427)
(-3797.734012 0 1878.05765)
(-3881.564381 0 2043.812149)
(-3988.085246 0 2209.917944)
(-4111.786394 -2.077608381e-12 2373.912225)
(-4241.038063 2.07750394e-12 2530.99059)
(-4356.314811 -2.078818853e-12 2673.171844)
(-4430.746803 0 2789.017586)
(-4435.89868 -2.085422171e-12 2865.551417)
(-4348.899839 -2.090587332e-12 2890.791731)
(-4157.993557 0 2856.197601)
(-3862.336929 -1.05219253e-12 2757.426619)
(-3465.300189 -1.056465059e-12 2592.878948)
(-2967.606302 0 2362.419298)
(-2368.256856 0 2068.57083)
(-1677.329753 0 1720.042244)
(-951.1375151 1.078634424e-12 1345.154073)
(-469.8340839 0 1095.35142)
(-982.957772 -4.936315227e-10 -7661.17222)
(-605.5471117 -1.686914579e-10 -7587.89334)
(-1206.736383 0 -7502.324351)
(-2248.500735 0 -7278.286346)
(-2631.972678 6.108743687e-11 -7037.509136)
(-3078.441443 0 -6751.271895)
(-3508.07728 0 -6427.991538)
(-3880.966402 -7.968209237e-11 -6078.974181)
(-4198.3557 -3.614413238e-11 -5712.422345)
(-4463.962007 0 -5335.54173)
(-4679.695244 0 -4954.982997)
(-4848.001729 0 -4576.557425)
(-4971.891615 0 -4205.059214)
(-5055.753039 2.613921357e-11 -3844.281417)
(-5104.120073 -2.501831116e-11 -3497.02846)
(-5121.409678 1.202962429e-11 -3164.870023)
(-5112.485524 0 -2848.793944)
(-5081.875259 0 -2548.720615)
(-5034.328036 0 -2263.877096)
(-4974.479203 1.067527067e-11 -1992.939115)
(-4905.976002 0 -1734.070476)
(-4832.812664 0 -1485.290421)
(-4758.573338 0 -1244.3259)
(-4685.765902 9.885048965e-12 -1009.165951)
(-4617.260451 0 -777.9496112)
(-4555.148421 -9.621635355e-12 -549.0793035)
(-4501.171364 0 -321.3953425)
(-4457.289184 0 -93.94434962)
(-4424.757304 0 133.7005869)
(-4405.090773 -4.637385087e-12 361.8995614)
(-4399.943585 0 590.8933411)
(-4410.646278 4.58541183e-12 820.6880691)
(-4438.860398 4.566503885e-12 1051.510622)
(-4485.897027 -9.103708067e-12 1283.422758)
(-4552.715019 0 1516.489644)
(-4638.888381 -4.534188591e-12 1750.315999)
(-4741.267087 0 1983.594381)
(-4852.388852 -2.265229096e-12 2213.442342)
(-4957.428557 6.799988401e-12 2434.002779)
(-5033.098045 0 2635.716384)
(-5049.197574 -2.273862789e-12 2805.333414)
(-4976.228293 0 2928.172565)
(-4799.739494 -2.28640362e-12 2994.092932)
(-4535.33328 2.294539183e-12 3005.439983)
(-4236.252351 1.151928209e-12 2983.277617)
(-3980.610817 0 2962.737203)
(-3826.856693 -1.162939821e-12 2966.622164)
(-3756.198754 1.169258966e-12 2966.822876)
(-3673.224666 -5.880503968e-13 2880.661001)
(-3381.296401 0 2563.865361)
(-1205.602618 0 -11907.46555)
(-799.8820818 -1.846553567e-10 -11789.4377)
(-1595.313573 1.138672091e-10 -11662.80802)
(-2912.62901 0 -11327.22076)
(-3419.234001 0 -10961.07428)
(-3992.019511 0 -10530.15784)
(-4535.272284 4.8941242e-11 -10045.85561)
(-5001.222134 0 -9525.159381)
(-5391.522963 -3.95645858e-11 -8980.579428)
(-5711.100375 0 -8423.115144)
(-5963.353767 3.385609801e-11 -7862.612372)
(-6152.713568 0 -7307.388799)
(-6284.568962 -3.005893583e-11 -6764.078327)
(-6365.360613 0 -6237.564472)
(-6403.024306 -2.73858868e-11 -5731.180518)
(-6405.130587 -2.63360646e-11 -5246.872589)
(-6378.770554 0 -4785.648064)
(-6331.733022 -2.464812055e-11 -4347.368235)
(-6270.800521 -1.198316389e-11 -3931.778317)
(-6202.449864 0 -3538.337423)
(-6131.931904 0 -3166.623315)
(-6063.159977 0 -2816.63172)
(-5999.444762 -2.199243008e-11 -2488.462155)
(-5942.166441 0 -2182.794792)
(-5892.316416 0 -1899.839822)
(-5849.795546 0 -1640.025539)
(-5814.040664 0 -1402.842421)
(-5784.672501 0 -1187.131716)
(-5761.217402 5.113328568e-12 -990.6807398)
(-5744.206635 0 -810.0092782)
(-5734.314759 0 -640.649723)
(-5733.381705 0 -477.0169346)
(-5743.717053 -4.998649078e-12 -312.7253833)
(-5767.603377 -4.982612888e-12 -141.3282589)
(-5807.320642 4.970916034e-12 43.57747471)
(-5864.029387 0 247.2029375)
(-5936.64039 2.479720755e-12 473.0652874)
(-6020.318221 0 721.9178702)
(-6104.255654 -2.481165548e-12 991.0933915)
(-6168.583428 -2.484341679e-12 1273.255548)
(-6182.047542 2.489046886e-12 1555.548499)
(-6102.262396 0 1818.838961)
(-5884.385988 2.502774476e-12 2039.533995)
(-5494.278407 0 2193.406237)
(-4909.818795 0 2254.138054)
(-4091.778545 -1.266663703e-12 2175.417604)
(-2944.947801 6.364965666e-13 1874.722623)
(-1340.567963 0 1272.213985)
(742.8812619 -6.436997928e-13 372.7310077)
(2067.41449 1.943170914e-12 -159.9160315)
(-1597.43131 0 -18841.63608)
(-1168.408329 0 -18640.27069)
(-2258.6314 0 -18403.29125)
(-3998.381028 0 -17825.46205)
(-4699.374896 1.470208536e-10 -17190.22691)
(-5474.050502 -1.23681951e-10 -16451.30862)
(-6199.274634 0 -15632.48156)
(-6813.958619 -4.79432835e-11 -14765.93323)
(-7321.297858 0 -13875.66801)
(-7728.260668 0 -12981.91415)
(-8040.855316 3.721903636e-11 -12102.10249)
(-8266.664836 0 -11250.26832)
(-8414.713274 -6.608940136e-11 -10437.19332)
(-8494.748123 0 -9670.889605)
(-8516.601845 3.010613677e-11 -8957.412929)
(-8489.673544 2.895203535e-11 -8301.77352)
(-8422.691195 0 -7708.012592)
(-8321.782645 0 -7180.401291)
(-8191.412549 0 -6723.796062)
(-8035.761589 0 -6342.516998)
(-7856.769051 2.511964423e-11 -6040.704811)
(-7656.710613 0 -5821.007898)
(-7438.099342 -2.417694597e-11 -5683.69751)
(-7205.037804 2.379062586e-11 -5625.922602)
(-6963.135989 1.172613879e-11 -5640.980465)
(-6720.070849 0 -5718.581901)
(-6485.608033 0 -5844.666008)
(-6270.427113 0 -6002.862029)
(-6086.249761 0 -6174.898679)
(-5944.872288 -1.116092527e-11 -6341.758045)
(-5857.462465 0 -6484.05884)
(-5833.506725 1.103583973e-11 -6582.298261)
(-5880.165038 -5.495166741e-12 -6616.435219)
(-6001.096247 0 -6565.793253)
(-6195.618137 -5.464678881e-12 -6409.435961)
(-6458.343172 -5.456279677e-12 -6127.894278)
(-6779.419641 0 -5705.8426)
(-7145.652759 0 -5135.492236)
(-7541.708312 -5.455241304e-12 -4420.342054)
(-7950.163712 0 -3577.669156)
(-8348.099377 -2.736284784e-12 -2637.777934)
(-8697.660918 -5.486124074e-12 -1637.286272)
(-8944.338555 2.751375957e-12 -605.3742674)
(-9028.71286 1.380583009e-12 442.8518742)
(-8895.548506 0 1480.493446)
(-8533.631103 -1.392481866e-12 2449.369957)
(-8135.412446 0 3363.021704)
(-8026.788027 0 4359.336022)
(-7821.457903 0 5240.231845)
(-6217.33662 3.560311293e-13 5210.615435)
(-2073.092559 0 -28746.29478)
(-1750.07252 0 -28400.61993)
(-3353.931434 0 -28143.11319)
(-5679.733653 1.621145429e-10 -27453.6513)
(-6660.328681 0 -26668.67219)
(-7706.25572 0 -25775.86588)
(-8639.369406 -9.488521138e-11 -24804.30278)
(-9388.264608 0 -23793.99928)
(-9965.253128 7.67061466e-11 -22779.55825)
(-10384.85278 0 -21788.77611)
(-10660.34844 -6.563877168e-11 -20845.44744)
(-10807.20758 -6.161497134e-11 -19969.49355)
(-10841.14798 0 -19177.9152)
(-10776.50869 0 -18486.0382)
(-10625.22185 0 -17908.37066)
(-10396.97387 2.552962441e-11 -17457.99084)
(-10099.23488 4.930578596e-11 -17146.01777)
(-9736.376532 0 -16979.84586)
(-9312.85845 0 -16960.20105)
(-8836.439222 0 -17077.06547)
(-8316.645583 0 -17308.15711)
(-7767.704867 0 -17615.28987)
(-7208.286655 0 -17944.15237)
(-6660.21893 0 -18224.59423)
(-6147.088844 0 -18374.55648)
(-5691.712051 0 -18307.42259)
(-5314.3317 -2.019241095e-11 -17942.79377)
(-5030.626531 0 -17220.50374)
(-4852.167698 -1.982701098e-11 -16114.66157)
(-4788.571703 0 -14643.99538)
(-4850.624428 0 -12874.00985)
(-5054.820494 0 -10907.68999)
(-5425.12645 0 -8866.41888)
(-5990.260198 0 -6866.859654)
(-6774.626831 0 -5003.088824)
(-7784.344686 0 -3337.991402)
(-8993.58788 0 -1904.695422)
(-10333.00764 0 -712.9028817)
(-11690.60728 0 243.5799048)
(-12938.82602 0 981.6681749)
(-14002.54863 0 1524.851205)
(-14927.87801 4.837611092e-12 1896.682495)
(-15845.89395 -4.852273348e-12 2110.965177)
(-16752.61538 0 2164.402655)
(-17270.86267 0 2046.765856)
(-16835.10732 0 1766.706122)
(-15370.96186 0 1351.17158)
(-13360.63953 1.240717983e-12 788.5688588)
(-10698.29016 0 40.12157652)
(-6936.594849 0 -775.0462339)
(-2634.34359 0 -40438.14672)
(-2374.591221 0 -39891.09954)
(-4349.151461 0 -39373.74429)
(-7157.4266 0 -38214.39707)
(-8359.975279 0 -36884.71727)
(-9615.388473 0 -35401.51649)
(-10688.48805 0 -33826.90765)
(-11498.01022 0 -32231.83947)
(-12065.1758 0 -30677.83955)
(-12413.19283 0 -29215.77242)
(-12560.0372 0 -27887.71434)
(-12524.20264 0 -26729.14258)
(-12321.6065 0 -25769.31824)
(-11964.46407 -5.547341208e-11 -25030.05887)
(-11464.25473 0 -24521.67017)
(-10834.30613 2.552962441e-11 -24238.66405)
(-10092.57274 0 -24154.56769)
(-9266.029176 0 -24217.46373)
(-8398.715458 0 -24345.69927)
(-7551.634227 0 -24430.81294)
(-6801.491127 0 -24345.64996)
(-6241.25232 0 -23956.96805)
(-5971.362684 0 -23148.91896)
(-6089.805799 0 -21843.13041)
(-6672.349219 0 -20019.97422)
(-7751.40058 0 -17724.22336)
(-9292.91832 0 -15058.818)
(-11179.6708 0 -12161.73062)
(-13214.45891 0 -9180.435256)
(-15147.51285 -9.841595743e-12 -6246.964814)
(-16730.65334 0 -3466.868723)
(-17782.44769 0 -916.0511276)
(-18237.34383 0 1353.202945)
(-18151.36899 0 3307.039611)
(-17664.67753 0 4924.104846)
(-16943.29372 0 6193.883311)
(-16129.47775 0 7115.870663)
(-15317.50565 0 7701.14846)
(-14555.16119 0 7974.031345)
(-13858.92808 0 7972.365639)
(-13221.47645 0 7740.185311)
(-12598.51707 0 7308.385534)
(-11889.75887 0 6672.848303)
(-10960.25754 0 5798.184707)
(-9712.809939 0 4671.401209)
(-8134.82104 -1.227877028e-12 3374.032488)
(-6275.58008 0 2074.193793)
(-4244.267799 0 902.2767342)
(-2257.799552 0 -87.02789066)
(-902.1035532 0 -752.7592914)
(-3470.871219 0 -57560.33921)
(-3614.737996 0 -56701.95338)
(-6446.41143 0 -55733.92524)
(-10148.76257 0 -53804.76831)
(-11790.00406 0 -51608.50652)
(-13372.61666 0 -49231.11885)
(-14613.00531 0 -46802.62857)
(-15428.00004 0 -44456.02881)
(-15854.19729 0 -42302.64114)
(-15931.68227 0 -40430.47158)
(-15693.74909 0 -38901.25846)
(-15172.79481 0 -37746.22447)
(-14405.07522 0 -36958.60958)
(-13438.91428 -5.547341208e-11 -36483.7311)
(-12341.30915 0 -36209.84654)
(-11202.49844 5.105924881e-11 -35965.77433)
(-10138.49061 0 -35528.50884)
(-9290.501301 0 -34646.40284)
(-8812.620523 0 -33081.10525)
(-8846.165586 0 -30666.9556)
(-9492.524411 0 -27361.39865)
(-10773.08599 0 -23274.29371)
(-12602.56249 0 -18651.08642)
(-14782.66156 0 -13815.87877)
(-17029.04 0 -9101.722938)
(-19034.84417 0 -4792.12421)
(-20546.94059 0 -1092.898213)
(-21423.36063 0 1875.48781)
(-21650.61832 0 4072.196895)
(-21316.30262 -1.968319149e-11 5527.360001)
(-20558.13954 0 6329.459183)
(-19521.52137 0 6606.906003)
(-18335.95841 0 6504.537597)
(-17109.86491 0 6159.095533)
(-15930.11773 0 5682.155496)
(-14862.47703 0 5152.651828)
(-13948.17579 0 4619.697126)
(-13201.00492 0 4108.920794)
(-12605.01577 0 3629.392029)
(-12110.82845 0 3177.124289)
(-11631.65082 0 2737.145803)
(-11051.2146 0 2288.014891)
(-10260.009 0 1813.399618)
(-9213.70272 0 1317.027963)
(-7974.901219 0 827.8013048)
(-6697.520201 0 389.1241238)
(-5548.136111 0 44.38113562)
(-4613.654024 0 -170.082736)
(-3883.755813 0 -234.7023118)
(-3228.462195 0 -158.1899357)
(-4827.634107 0 -84912.78939)
(-5627.91669 0 -83510.41848)
(-9657.656657 0 -81765.29506)
(-14561.8747 0 -78633.14722)
(-16690.75553 0 -75193.03686)
(-18509.67697 0 -71682.78085)
(-19675.5448 0 -68362.74562)
(-20115.67363 0 -65457.2029)
(-19911.0992 0 -63099.94781)
(-19160.43166 0 -61324.82333)
(-17978.69915 0 -60053.9976)
(-16514.104 0 -59089.22309)
(-14959.41893 0 -58116.13328)
(-13558.12187 -5.547341208e-11 -56731.45958)
(-12594.95953 0 -54505.93925)
(-12364.26292 5.105924881e-11 -51083.36777)
(-13114.26678 0 -46292.91184)
(-14966.34991 0 -40226.39118)
(-17824.39854 0 -33238.01473)
(-21333.547 0 -25850.23685)
(-24927.54585 0 -18614.46335)
(-27978.12858 0 -11999.39449)
(-29999.40553 0 -6327.589058)
(-30788.28018 0 -1770.283392)
(-30436.49847 0 1639.679337)
(-29227.93786 0 3978.425338)
(-27499.23588 0 5401.412333)
(-25539.41039 0 6104.114755)
(-23549.28584 0 6289.186973)
(-21646.59027 -1.968319149e-11 6136.180326)
(-19886.92071 0 5788.985437)
(-18288.91402 0 5351.625064)
(-16854.07788 0 4893.894501)
(-15579.75321 0 4457.510298)
(-14463.83585 0 4063.11899)
(-13503.27835 0 3715.510099)
(-12687.65338 0 3408.050595)
(-11990.74696 0 3126.040078)
(-11365.746 0 2849.454607)
(-10746.5087 0 2556.269626)
(-10060.32998 0 2228.113885)
(-9251.399111 0 1858.322937)
(-8305.356292 0 1458.771702)
(-7254.83948 0 1058.324832)
(-6160.831603 0 691.3940598)
(-5082.09661 0 381.9512913)
(-4058.856651 0 133.9995431)
(-3121.76116 0 -64.77347362)
(-2314.804006 0 -228.6341268)
(-1765.072405 0 -364.0092551)
(-7054.116305 0 -130846.3479)
(-9272.721035 1.432008002e-09 -128408.5019)
(-15328.44453 0 -125084.9914)
(-21923.94381 0 -119900.6871)
(-24420.26594 0 -114653.4886)
(-25981.19141 2.181230935e-10 -109839.5398)
(-26296.75019 -1.897704228e-10 -105767.52)
(-25475.18718 0 -102477.1047)
(-23882.2644 0 -99684.61035)
(-21957.62656 0 -96832.10127)
(-20207.16329 -2.625550867e-10 -93180.54394)
(-19180.21086 0 -87969.26405)
(-19400.48074 0 -80642.60211)
(-21243.31426 0 -71076.0884)
(-24768.78957 0 -59684.83242)
(-29585.352 5.105924881e-11 -47325.18057)
(-34859.8684 4.930578596e-11 -35025.61639)
(-39536.91837 4.778673421e-11 -23713.88564)
(-42710.40497 0 -14052.60391)
(-43945.1533 0 -6390.266461)
(-43337.70918 0 -789.3639647)
(-41342.48741 0 2921.286517)
(-38515.94207 0 5072.665156)
(-35333.341 0 6065.558436)
(-32125.29074 0 6287.590515)
(-29089.32126 0 6055.494665)
(-26325.84744 0 5595.864426)
(-23871.52752 0 5052.714595)
(-21724.22341 0 4508.533343)
(-19858.65797 0 4005.561724)
(-18240.07407 0 3561.438253)
(-16831.30806 0 3180.912625)
(-15600.13455 0 2860.92079)
(-14521.0014 0 2594.810613)
(-13574.7084 9.637401741e-12 2372.375169)
(-12743.68905 0 2181.272859)
(-12004.99981 0 2006.526497)
(-11323.86351 -4.807336091e-12 1832.266086)
(-10653.02904 0 1643.394046)
(-9941.122131 0 1429.638236)
(-9148.346973 0 1188.979616)
(-8263.11349 2.418805546e-12 930.1310562)
(-7307.722589 0 670.0336596)
(-6330.203047 0 428.1641127)
(-5386.889534 -1.222328066e-12 220.4322072)
(-4525.249784 0 56.40780972)
(-3774.274464 0 -59.65982701)
(-3146.225288 0 -127.181174)
(-2649.984743 0 -149.2861625)
(-2277.626242 -6.278896109e-13 -134.4631134)
(-11056.65638 0 -217255.3802)
(-16071.03808 0 -213257.8518)
(-25019.28522 0 -207554.923)
(-33175.60469 0 -199789.25)
(-34896.65724 0 -192338.5093)
(-34852.1969 0 -185198.9995)
(-33461.39493 0 -177626.6599)
(-31741.71687 0 -168362.6831)
(-30953.71238 -1.534122932e-10 -156066.5791)
(-32182.15071 1.411272662e-10 -139905.8162)
(-36085.66375 0 -120061.1579)
(-42592.38194 0 -97808.09463)
(-50701.81038 0 -75077.06775)
(-58660.44005 -1.109468242e-10 -53781.79739)
(-64593.23857 0 -35338.72611)
(-67299.18537 1.021184976e-10 -20515.59549)
(-66650.27978 0 -9493.905315)
(-63373.76894 0 -1996.209469)
(-58529.37008 0 2572.125923)
(-53059.01912 0 4955.869272)
(-47599.04668 0 5879.649563)
(-42502.05553 0 5938.587882)
(-37920.74249 0 5553.583499)
(-33890.22944 0 4991.496906)
(-30385.949 0 4402.416547)
(-27358.28817 0 3862.371648)
(-24750.99487 0 3400.749055)
(-22507.9827 0 3022.945304)
(-20576.97305 0 2720.766855)
(-18908.63535 -9.841595743e-12 2482.171868)
(-17458.5432 -1.956233741e-11 2293.588063)
(-16187.42754 0 2142.909521)
(-15062.76667 0 2019.356284)
(-14058.32377 -9.660079362e-12 1913.174017)
(-13151.37062 0 1814.944509)
(-12319.64444 0 1714.750156)
(-11536.40374 0 1602.54188)
(-10769.50988 0 1469.071366)
(-9985.688751 0 1308.657375)
(-9159.635148 0 1121.547043)
(-8283.689422 0 915.327041)
(-7371.735312 0 703.4219102)
(-6453.918413 0 501.1572288)
(-5566.196541 0 321.5056034)
(-4739.034915 0 172.0708647)
(-3991.457412 0 54.64339434)
(-3331.418926 0 -33.44293601)
(-2761.123203 0 -97.11398745)
(-2286.809895 0 -142.0159392)
(-1940.847652 0 -174.5002421)
(-17268.33558 8.380795319e-09 -411914.965)
(-26927.58881 0 -404968.758)
(-39438.57055 1.766087453e-09 -390688.38)
(-49003.31824 0 -370721.386)
(-50867.52023 5.185662604e-10 -345029.3414)
(-53242.5465 0 -311783.6464)
(-58197.75443 0 -270588.098)
(-67147.85171 0 -223494.8118)
(-79865.15697 0 -174637.854)
(-93982.80406 0 -128505.4255)
(-105827.9448 0 -88393.03732)
(-112226.066 0 -55974.8327)
(-112045.5246 1.165539884e-10 -31601.80422)
(-106342.2276 -1.109468242e-10 -14699.87734)
(-97279.85833 0 -4066.125345)
(-86929.43007 0 1839.170423)
(-76684.69596 0 4560.725462)
(-67269.84536 0 5382.642991)
(-58966.03763 0 5219.628117)
(-51803.32783 0 4637.360794)
(-45693.49212 0 3947.070156)
(-40505.60693 -4.341488838e-11 3300.877967)
(-36101.55136 0 2759.08994)
(-32353.74244 0 2336.17269)
(-29151.64401 0 2023.083912)
(-26403.34992 0 1802.989399)
(-24033.31584 0 1655.874467)
(-21979.72743 0 1562.796114)
(-20191.44067 0 1506.853314)
(-18624.93768 -9.841595743e-12 1473.858082)
(-17241.63876 0 1452.744129)
(-16008.81481 0 1434.495184)
(-14897.79814 0 1412.594284)
(-13883.89073 0 1381.023608)
(-12944.08436 0 1334.74512)
(-12055.38907 0 1268.686079)
(-11193.47264 0 1178.875913)
(-10334.72499 0 1063.345453)
(-9461.573336 -4.810378996e-12 924.056719)
(-8567.781405 0 767.3118311)
(-7661.668723 2.412829394e-12 603.2758796)
(-6763.522171 0 443.3501655)
(-5899.542778 -1.213068337e-12 297.6702282)
(-5094.480095 0 173.1597973)
(-4366.298726 0 73.03615199)
(-3724.688445 0 -2.439373159)
(-3172.098365 0 -54.82344829)
(-2707.336977 0 -86.60952398)
(-2331.198491 0 -100.8897711)
(-2045.012498 0 -101.7988152)
(-28805.14376 0 -850609.8401)
(-55908.91132 0 -814660.4416)
(-86429.7939 -1.766087453e-09 -719044.1967)
(-115619.2602 0 -598003.4333)
(-143004.5918 0 -465939.123)
(-173501.4732 0 -341635.4631)
(-200427.651 0 -236358.8005)
(-216061.5706 0 -153453.1987)
(-216437.9661 0 -91999.15951)
(-203484.1443 0 -49386.44369)
(-182688.8504 0 -22232.09562)
(-159429.4716 0 -6725.204245)
(-137131.6358 0 909.1887619)
(-117341.8253 -1.109468242e-10 3851.015405)
(-100455.8972 0 4363.830029)
(-86321.42719 1.021184976e-10 3826.268244)
(-74579.06315 0 2970.657614)
(-64839.68573 0 2140.685115)
(-56749.12722 0 1471.168334)
(-49997.82388 0 990.2805357)
(-44332.41182 0 682.6699445)
(-39547.11556 0 515.2138194)
(-35477.60004 0 453.642747)
(-31991.98898 0 466.6076803)
(-28985.46015 0 528.7555693)
(-26375.93774 0 619.7013035)
(-24096.57787 0 724.399151)
(-22094.45331 0 830.7146792)
(-20325.53041 0 930.2751572)
(-18752.65042 -9.841595743e-12 1016.101106)
(-17342.6209 0 1083.796272)
(-16066.61559 0 1129.814822)
(-14898.59075 0 1151.854734)
(-13814.77056 0 1148.072264)
(-12793.3808 0 1117.052307)
(-11813.77166 0 1058.240829)
(-10857.70969 0 972.4075823)
(-9911.834376 0 862.8049981)
(-8971.040408 0 735.4358173)
(-8040.041626 0 598.7506564)
(-7132.266652 -2.412829394e-12 462.2068805)
(-6265.602771 0 334.3844418)
(-5457.964454 0 221.6762732)
(-4722.895466 0 127.5339719)
(-4067.665916 1.222328066e-12 52.76038498)
(-3493.65554 0 -3.806756453)
(-2997.818764 0 -44.47362254)
(-2575.437638 0 -72.08978693)
(-2224.851381 0 -89.74921185)
(-1955.391826 0 -100.8652834)
(-109123.8532 0 -1039722.009)
(-278603.2149 0 -889761.1578)
(-425443.145 3.532174906e-09 -658103.0988)
(-502329.8356 0 -439389.7805)
(-515245.8096 0 -267566.09)
(-475489.7963 0 -147246.8323)
(-410302.6559 7.590816911e-10 -71006.24355)
(-342121.8445 0 -27954.96558)
(-281666.7184 0 -7002.18067)
(-231684.5515 0 1172.473117)
(-191507.9549 0 3036.005271)
(-159499.7067 0 2334.973342)
(-133999.1323 0 922.0988523)
(-113595.0595 -2.218936483e-10 -413.950587)
(-97158.36612 0 -1407.145178)
(-83805.81426 1.021184976e-10 -2022.500011)
(-72860.11423 0 -2314.670999)
(-63811.39933 0 -2356.743653)
(-56266.16952 4.646490293e-11 -2222.487665)
(-49920.11364 4.531075074e-11 -1974.556437)
(-44539.23861 0 -1660.185698)
(-39940.62082 0 -1316.202554)
(-35982.15481 2.131899682e-11 -966.8304134)
(-32550.69094 0 -630.1346885)
(-29556.70405 -2.067999104e-11 -316.4228808)
(-26929.49406 0 -33.19553715)
(-24610.7914 0 216.2875604)
(-22553.33931 0 429.7127591)
(-20717.32176 0 606.4721848)
(-19068.30857 0 746.4412522)
(-17575.83191 9.781168704e-12 849.9858516)
(-16212.0532 0 918.0249502)
(-14952.35701 0 951.4219605)
(-13773.9469 4.830039681e-12 951.7515014)
(-12657.19815 0 920.6922702)
(-11585.68786 0 861.2624508)
(-10547.55284 0 777.6046353)
(-9537.345889 0 675.8267516)
(-8556.860054 0 563.2729417)
(-7614.487682 0 448.0393365)
(-6722.343132 0 337.5087037)
(-5893.134456 1.209402773e-12 237.452355)
(-5137.193331 0 151.5310349)
(-4460.406709 0 81.21264129)
(-3864.130774 0 26.30531782)
(-3346.031969 -1.227877028e-12 -14.46075211)
(-2901.263748 0 -42.88922067)
(-2524.436209 0 -60.9729878)
(-2212.768112 -6.239889687e-13 -70.74080988)
(-1967.753871 0 -74.43749131)
(-411975.1609 0 -462868.1528)
(-755344.1655 0 -315874.0116)
(-873282.5575 0 -167840.7028)
(-803712.7895 2.593832687e-09 -61805.46913)
(-666018.7422 -2.074265041e-09 -11305.84865)
(-531600.5261 0 4817.267903)
(-421580.0672 -7.590816911e-10 5793.070959)
(-336753.5535 0 2041.622608)
(-272254.234 3.068245864e-10 -2142.014113)
(-222960.4319 0 -5376.233107)
(-184850.2255 0 -7436.485663)
(-155006.7456 0 -8484.840943)
(-131346.1528 0 -8771.160172)
(-112365.4895 0 -8529.267676)
(-96962.71573 0 -7948.938567)
(-84319.60023 0 -7174.567376)
(-73835.44584 1.479173579e-10 -6306.364083)
(-65063.25077 0 -5412.302766)
(-57656.22214 0 -4540.180619)
(-51351.52206 0 -3718.156596)
(-45944.41009 0 -2963.086517)
(-41275.36865 0 -2283.321736)
(-37218.96433 0 -1681.007912)
(-33673.41616 0 -1155.284524)
(-30557.30856 0 -702.5469202)
(-27804.81873 0 -318.4132288)
(-25361.34273 -2.019241095e-11 1.989835938)
(-23180.34758 0 263.6900851)
(-21223.29742 -9.913505491e-12 470.9462081)
(-19455.52575 0 628.2403487)
(-17846.74413 0 739.0355998)
(-16369.58378 0 807.2167403)
(-15000.12861 0 836.1980607)
(-13717.31513 0 829.9411958)
(-12504.37506 0 792.770477)
(-11349.2561 0 729.9627719)
(-10245.07036 0 647.708012)
(-9190.911571 0 553.0614114)
(-8190.866194 0 453.228836)
(-7252.592698 0 354.9932914)
(-6384.211482 0 263.7461245)
(-5592.751191 1.209402773e-12 183.2001376)
(-4882.225873 -1.213068337e-12 115.2705722)
(-4252.882065 0 60.32736092)
(-3701.916047 0 17.65148622)
(-3224.248466 0 -14.12613274)
(-2813.414926 0 -36.69608487)
(-2463.046643 6.203589913e-13 -51.82859961)
(-2169.604546 0 -61.29330356)
(-1936.116255 0 -66.91875002)
(-484713.5297 0 22834.27056)
(-798546.41 0 43378.38917)
(-861133.3143 0 33903.63047)
(-771586.635 0 16644.35662)
(-631247.3743 0 -262.28029)
(-505250.2757 0 -12015.81234)
(-404563.0414 0 -18636.69302)
(-326850.7967 0 -21587.52647)
(-267247.3994 0 -22245.19381)
(-221234.7349 0 -21536.21673)
(-185277.276 0 -20046.55133)
(-156795.6635 0 -18151.42601)
(-133942.2414 0 -16092.48482)
(-115382.2944 -1.109468242e-10 -14024.26443)
(-100133.1392 0 -12044.20974)
(-87471.15694 1.021184976e-10 -10206.14938)
(-76861.86276 0 -8533.597705)
(-67894.7793 0 -7036.613719)
(-60255.23619 0 -5715.410064)
(-53702.55233 0 -4560.330659)
(-48044.71452 0 -3560.798531)
(-43131.54331 0 -2702.372649)
(-38842.30822 0 -1971.963716)
(-35078.14804 0 -1355.604262)
(-31758.96876 0 -841.2173773)
(-28818.25943 0 -416.8085209)
(-26200.52578 0 -72.83609433)
(-23857.91898 0 200.1436775)
(-21750.24584 0 409.4537392)
(-19841.78916 -9.841595743e-12 562.1753708)
(-18101.38822 0 664.2523546)
(-16501.94749 0 721.3773158)
(-15020.10538 0 739.1220862)
(-13636.91369 0 723.0961614)
(-12338.17939 0 679.5064343)
(-11115.02564 0 614.8084748)
(-9963.362824 0 535.9892885)
(-8883.437622 0 449.8499313)
(-7878.679942 0 362.705273)
(-6953.74572 0 279.7460691)
(-6112.206733 0 204.6828936)
(-5356.033104 0 139.7654254)
(-4684.449143 0 85.81943421)
(-4094.023749 0 42.64124476)
(-3579.496697 0 9.344912366)
(-3134.404799 -1.227877028e-12 -15.30367314)
(-2751.735195 0 -32.68711608)
(-2425.084655 0 -44.15796325)
(-2150.684917 0 -51.00171407)
(-1929.441086 0 -54.52980276)
(-464468.1296 0 145554.45)
(-764794.5702 0 83995.46496)
(-824554.0779 0 25362.11608)
(-742847.442 0 -13318.51642)
(-614723.8655 0 -31742.84258)
(-498249.8739 0 -38774.66078)
(-403944.0399 0 -39866.3873)
(-330050.6955 0 -37938.43386)
(-272475.9036 0 -34615.10542)
(-227404.3404 0 -30782.69225)
(-191750.7501 0 -26895.97)
(-163194.2887 0 -23185.58851)
(-140040.9818 0 -19764.18652)
(-121048.2705 -1.109468242e-10 -16681.79071)
(-105302.6876 0 -13950.05881)
(-92130.6725 1.021184976e-10 -11554.40465)
(-81019.42748 0 -9471.452463)
(-71570.5625 0 -7676.107253)
(-63481.5777 0 -6138.103973)
(-56515.43969 0 -4827.962627)
(-50481.20879 0 -3719.270005)
(-45228.01517 0 -2785.987922)
(-40632.49329 0 -2006.665227)
(-36593.29956 0 -1360.601103)
(-33027.10341 0 -831.1087738)
(-29864.16867 0 -402.5658665)
(-27045.79231 0 -62.42980449)
(-24521.62088 0 200.7304407)
(-22248.72493 0 396.5683953)
(-20190.32776 -9.841595743e-12 533.4711979)
(-18313.87104 0 619.2636401)
(-16592.49365 0 660.8781919)
(-15003.65343 0 665.4416385)
(-13529.96695 0 639.7007265)
(-12159.1858 0 590.8376554)
(-10883.87227 0 525.7360361)
(-9700.539223 0 451.2380207)
(-8608.457098 0 373.3674967)
(-7608.582015 0 297.2943986)
(-6701.664115 0 226.787544)
(-5887.134915 0 164.2932126)
(-5162.816069 0 111.0637165)
(-4524.383334 0 67.29268978)
(-3965.873286 0 32.4779556)
(-3480.40289 0 5.689542551)
(-3060.58537 0 -14.1926879)
(-2698.990523 0 -28.35682122)
(-2389.094057 0 -37.93859151)
(-2126.971123 0 -44.00731188)
(-1913.670807 0 -47.62490018)
(-327422.0957 0 296019.6287)
(-587845.4244 0 188940.615)
(-695167.7496 0 79215.01026)
(-673359.3434 0 6954.530101)
(-586672.019 0 -27696.08498)
(-490956.8828 0 -41001.36566)
(-406464.5347 0 -43912.91681)
(-337064.5658 0 -42071.68042)
(-281283.7282 0 -38200.83456)
(-236615.5346 0 -33652.09647)
(-200681.5692 0 -29082.90392)
(-171520.5588 0 -24794.22355)
(-147619.441 0 -20912.27732)
(-127837.577 -1.109468242e-10 -17474.33571)
(-111323.647 0 -14470.38092)
(-97429.70078 1.021184976e-10 -11870.41738)
(-85647.91374 0 -9639.36172)
(-75588.71127 0 -7739.405601)
(-66953.26438 0 -6128.740859)
(-59498.21327 0 -4771.780782)
(-53029.72104 0 -3634.884427)
(-47391.22731 0 -2688.549804)
(-42454.42656 0 -1906.817557)
(-38113.17921 0 -1267.087618)
(-34278.89627 0 -749.7382714)
(-30877.99047 0 -338.0508833)
(-27847.29697 0 -17.41782161)
(-25134.06789 0 224.3859027)
(-22692.35097 0 398.6458763)
(-20483.65677 -9.841595743e-12 514.628915)
(-18474.8009 0 581.3826356)
(-16638.77713 0 606.875154)
(-14953.72192 0 599.0923044)
(-13403.04848 0 565.5133433)
(-11975.20163 0 513.5065351)
(-10662.5694 0 449.8340514)
(-9460.567199 0 380.6472426)
(-8366.131435 0 310.9917499)
(-7377.023083 0 244.8661747)
(-6490.122691 0 184.9155185)
(-5701.313353 0 132.6731125)
(-5005.204144 0 88.71814454)
(-4394.922244 0 52.87947864)
(-3862.830776 0 24.52298163)
(-3401.079896 0 2.766086782)
(-3001.826944 -1.227877028e-12 -13.37528874)
(-2657.552971 0 -24.88439464)