/*--------------------------------*- C++ -*----------------------------------*\
  =========                 |
  \\      /  F ield         | OpenFOAM: The Open Source CFD Toolbox
   \\    /   O peration     | Website:  https://openfoam.org
    \\  /    A nd           | Version:  7
     \\/     M anipulation  |
\*---------------------------------------------------------------------------*/
FoamFile
{
    version     2.0;
    format      ascii;
    class       volScalarField;
    location    "0.0024";
    object      rho;
}
// * * * * * * * * * * * * * * * * * * * * * * * * * * * * * * * * * * * * * //

dimensions      [1 -3 0 0 0 0 0];

internalField   nonuniform List<scalar> 
1167
(
940.0195145
939.8180384
939.7252047
939.52614
939.2320402
938.8493486
938.3838651
937.8409978
937.2261675
936.5447075
935.8017921
935.0026081
934.152261
933.2559818
932.3187339
931.3455187
930.3412304
929.3106475
928.2584173
927.1893036
926.1074164
925.0170116
923.9222756
922.8267609
921.7341095
920.647727
919.5706519
918.5056428
917.4553364
916.4220631
915.4077224
914.414259
913.4430665
912.4955023
911.5725992
910.6751429
909.8036478
908.9586719
908.1402462
907.3484458
906.5832536
905.8442897
905.1311498
904.4433596
903.7803218
903.1413458
902.5255845
901.9322256
901.360296
900.8089013
900.2770911
939.6167251
939.5276328
939.3366036
939.0544337
938.6869785
938.2400264
937.71854
937.1276282
936.4722714
935.7573154
934.9875854
934.1678105
933.3027891
932.3971581
931.4553993
930.4822252
929.4817476
928.4585823
927.4167674
926.3603299
925.2933189
924.2193249
923.1419188
922.0646486
920.9905136
919.9224744
918.8635116
917.8159911
916.7822458
915.764517
914.7645261
913.7840702
912.824526
911.8872499
910.9732277
910.0833569
909.2182074
908.3785558
907.5645253
906.776381
906.0143618
905.2782953
904.5680291
903.8833201
903.2237941
902.5889038
901.978075
901.3905477
900.8255382
900.2820753
939.4156178
939.3310282
939.1497046
938.8815605
938.5324712
938.1075048
937.611633
937.0494559
936.4255764
935.744482
935.0106103
934.228291
933.4018054
932.5355397
931.6334636
930.6997382
929.7383004
928.7530698
927.7479059
926.7264298
925.6920886
924.6485257
923.5987455
922.5459255
921.4930695
920.4427873
919.3977932
918.3604524
917.332866
916.3172361
915.3152474
914.3285984
913.3588205
912.4071538
911.4749066
910.5628982
909.6721482
908.8033818
907.9572355
907.1345068
906.3356019
905.5611059
904.8116459
904.0877033
903.389714
902.7180074
902.0727624
901.4538494
900.8608128
900.2927892
939.2147521
939.1352802
938.9648004
938.7126469
938.3844932
937.9847477
937.5181481
936.9889817
936.4014015
935.7595301
935.0674164
934.3289966
933.5480995
932.7286225
931.8743595
930.9887884
930.0755232
929.1381236
928.1798736
927.2042288
926.2141207
925.2127667
924.2029798
923.1874924
922.1690522
921.1499366
920.1326262
919.1191255
918.1114628
917.111444
916.1205358
915.1404376
914.1721271
913.2169234
912.2756258
911.3491512
910.4379521
909.5427595
908.6638496
907.801798
906.9569403
906.1297885
905.3212471
904.5321319
903.7638655
903.0183731
902.297969
901.6054463
900.9439237
900.3164445
939.0155887
938.9422383
938.784858
938.5522178
938.2491554
937.8800052
937.4488593
936.9598039
936.416467
935.8225714
935.1817495
934.4975252
933.7733
933.0124462
932.2182621
931.3940009
930.5427775
929.6674838
928.7712326
927.8568996
926.9270856
925.9846527
925.0318925
924.0715023
923.105441
922.1362227
921.1655469
920.195533
919.2276987
918.2638229
917.3050535
916.3527687
915.4077939
914.4710839
913.5430212
912.6241399
911.7143314
910.8136566
909.9214128
909.0371105
908.1596828
907.2879669
906.4206978
905.5563458
904.6938684
903.8323789
902.9721643
902.1150064
901.2648296
900.4287407
938.8521965
938.7802622
938.6261924
938.3984597
938.1016842
937.7403321
937.3181455
936.8391535
936.3069366
935.7250302
935.0969461
934.4260746
933.7156959
932.9690603
932.1893332
931.3796573
930.5429771
929.682097
928.7999899
927.8994657
926.9829918
926.053336
925.1127592
924.1637633
923.2084081
922.2489326
921.2871685
920.3249893
919.3639725
918.4056904
917.4512674
916.5019231
915.5583563
914.6213882
913.6912617
912.7683192
911.8524833
910.9435695
910.0411813
909.1448455
908.2542436
907.3688341
906.4887479
905.6139375
904.7450525
903.8827157
903.0271714
902.1772533
901.3279219
900.4677523
938.7313187
938.6592314
938.5047829
938.276402
937.978881
937.6165961
937.1933828
936.7130392
936.1793804
935.5958454
934.9659245
934.2929879
933.5803143
932.8311628
932.0487813
931.2361749
930.3962729
929.5319743
928.6463993
927.7420752
926.8217592
925.8880233
924.9432808
923.9899991
923.0301786
922.0661275
921.099547
920.1322996
919.1658622
918.2017115
917.2409017
916.2844607
915.3331122
914.3874398
913.447798
912.5144618
911.5875398
910.6671167
909.7532428
908.8462958
907.9466272
907.0552692
906.1732096
905.3022581
904.4440356
903.6004564
902.7731248
901.9629421
901.1706128
900.3973057
938.6105961
938.5381732
938.3829246
938.1533768
937.8544909
937.4903867
937.0651942
936.5825577
936.0461953
935.4597704
934.8267197
934.1503901
933.4340965
932.6812147
931.8948445
931.0780502
930.2338181
929.3652847
928.4752431
927.5664449
926.6417491
925.7034738
924.7543668
923.7964866
922.8321852
921.863338
920.8919895
919.9195295
918.9477515
917.9776887
917.0106653
916.0473732
915.0887843
914.1353249
913.1876634
912.2462309
911.3116321
910.3843934
909.4654873
908.5559773
907.6574692
906.7716022
905.9007276
905.0468146
904.2121174
903.398517
902.6071502
901.8387697
901.0936301
900.3713601
938.4898986
938.417165
938.2612344
938.0307007
937.7306382
937.364994
936.9380977
936.4535257
935.9149995
935.3261497
934.6905044
934.0114542
933.2923373
932.5364682
931.7470228
930.9271065
930.0798219
929.2081824
928.3149832
927.4031855
926.4753043
925.5339314
924.581561
923.6203592
922.6525224
921.6799788
920.7045588
919.7278379
918.7512541
917.7761563
916.8035107
915.8344399
914.869636
913.9101231
912.9564602
912.0098966
911.0711741
910.1418113
909.2231004
908.3172048
907.4259127
906.5517056
905.6967001
904.8629405
904.0522451
903.2655404
902.5031626
901.7649421
901.0499237
900.3570413
938.3691766
938.2962107
938.1397697
937.9086185
937.607588
937.2409238
936.8126746
936.3267223
935.7866724
935.1961804
934.5587858
933.8779088
933.1569262
932.3991631
931.6078055
930.7860306
929.9369207
929.0633618
928.1682918
927.254566
926.3245963
925.3811727
924.4264341
923.4628096
922.4921645
921.5166718
920.5378252
919.5575145
918.5769024
917.5975159
916.6203653
915.646647
914.6774193
913.7137439
912.7568866
911.8081527
910.8691751
909.941583
909.0275256
908.1290793
907.2485322
906.3880507
905.5494397
904.7343442
903.9435714
903.1774189
902.4355667
901.7174004
901.0217929
900.3477926
938.2484233
938.175294
938.018525
937.786949
937.4852446
937.1179222
936.6887983
936.2019324
935.6609443
935.0694696
934.4310546
933.7491404
933.0271272
932.2683332
931.475948
930.6532467
929.8030562
928.928373
928.0322433
927.1172042
926.1858998
925.2408762
924.2843951
923.31874
922.3458682
921.3677839
920.3861505
919.4026356
918.4187446
917.4357692
916.4551758
915.478048
914.5059984
913.5401558
912.5823166
911.6340589
910.6974068
909.7742921
908.8670724
907.9777533
907.1086692
906.2614084
905.4375152
904.6379316
903.8629739
903.1125292
902.3860423
901.6826593
901.0013132
900.3410795
938.1276373
938.0543987
937.897524
937.6656011
937.3634874
936.9957722
936.5662174
936.0787512
935.5372804
934.9453202
934.3064139
933.6240112
932.9015223
932.1422479
931.3494927
930.5262429
929.6754587
928.8001981
927.9033346
926.9873856
926.05514
925.1088641
924.1510432
923.1836775
922.2089977
921.2287254
920.2447997
919.2587019
918.2722548
917.2867047
916.3037151
915.3247088
914.3513091
913.3852415
912.4283186
911.4826489
910.5501785
909.6332398
908.7339097
907.8542842
906.9961735
906.1609213
905.3497261
904.5629434
903.8006448
903.0625016
902.3478756
901.6558476
900.985469
900.3358753
938.0068633
937.9336369
937.7766213
937.5444854
937.2422542
936.8742416
936.4445048
935.9568415
935.4150653
934.8229358
934.1838625
933.5012969
932.7786679
932.0193372
931.2263854
930.402879
929.5517848
928.6762574
927.7788884
926.8623839
925.9293765
924.9821672
924.0232661
923.0545632
922.0784027
921.0964635
920.110697
919.12278
918.1344353
917.1473121
916.1629921
915.1833933
914.2101
913.2453058
912.2908721
911.3491267
910.4220502
909.5119931
908.6208334
907.7505982
906.9025989
906.0780285
905.2776424
904.5015741
903.7497197
903.0216882
902.3167296
901.6339932
900.9725767
900.3316463
937.8861471
937.8128789
937.6557734
937.4235118
937.1212744
936.753097
936.3233284
935.8356421
935.293857
934.701658
934.0625792
933.3800654
932.6575221
931.8981969
931.1052271
930.2816478
929.4305425
928.5548274
927.6571549
926.7403427
925.8067671
924.8589635
923.8991784
922.9295546
921.9522095
920.9691121
919.9820262
918.9929597
918.003524
917.0157581
916.0312555
915.0521481
914.0803032
913.117881
912.1671204
911.2301568
910.3091868
909.4062372
908.5232162
907.6617457
906.8229537
906.0078559
905.2168244
904.4499097
903.7068952
902.9873774
902.2905394
901.6156036
900.9617185
900.3280819
937.7654012
937.6921053
937.5349422
937.3027027
937.0004177
936.6322518
936.2024256
935.7148022
935.1731015
934.5809976
933.942027
933.2596419
932.5372302
931.7780237
930.9851575
930.1616614
929.3106734
928.4349079
927.5371571
926.6201624
925.6862269
924.7380647
923.777673
922.8074539
921.8293171
920.8455314
919.8577389
918.868138
917.8784979
916.8908392
915.9071452
914.9294695
913.9600452
913.0009032
912.0545695
911.1229418
910.2083558
909.3125015
908.4372927
907.583971
906.7535422
905.9468788
905.1640724
904.4051382
903.6698089
902.9576568
902.2678566
901.5996836
900.9523243
900.3249994
937.6446278
937.5713109
937.4141055
937.1819537
936.8796055
936.5115134
936.0816407
935.5941234
935.0525545
934.4605978
933.8217932
933.1396008
932.4173918
931.6583831
930.8657094
930.0424955
929.1916378
928.3159487
927.4183243
926.5012514
925.5672468
924.6188544
923.6582015
922.6876405
921.7092097
920.7250826
919.7372038
918.7476371
917.7585049
916.7717335
915.7896583
914.8142624
913.8479751
912.8928534
911.95136
911.0254409
910.1172317
909.2283186
908.3605231
907.5147703
906.692029
905.8929004
905.1174342
904.3655807
903.6370719
902.9314027
902.2478166
901.5856151
900.9440204
900.322274
937.5238313
937.4504967
937.2933675
937.0612015
936.7588038
936.3908024
935.9610226
935.4735153
934.9321049
934.340327
933.7017256
933.0197691
932.2978134
931.5390618
930.7467391
929.9237973
929.0731628
928.1977044
927.300287
926.3832868
925.4494182
924.5009879
923.5403763
922.5697523
921.5914152
920.6073824
919.6199365
918.6310009
917.643008
916.6578758
915.6780112
914.7056019
913.742948
912.7923236
911.8559466
910.9358798
910.0339672
909.1518309
908.2909711
907.4522576
906.6365733
905.8442986
905.0754692
904.3299955
903.6076226
902.9077839
902.2297881
901.5729601
900.9365522
900.3198232
937.4030176
937.3297353
937.17265
936.9404425
936.638102
936.2701027
935.8404417
935.3530127
934.8117103
934.2201332
933.5817615
932.9000735
932.1784104
931.4200343
930.6280723
929.80544
928.9551078
928.080052
927.1828794
926.2661307
925.3325301
924.3842719
923.423956
922.45358
921.4756981
920.4922369
919.5056505
918.5179772
917.5315768
916.5486774
915.5715457
914.6026167
913.6440108
912.6981793
911.767086
910.8528854
909.9571429
909.0815145
908.2272133
907.395073
906.5859159
905.7999392
905.0371821
904.2975323
903.5807551
902.886233
902.2133359
901.5614104
900.9297356
900.3175861
937.2823176
937.2090395
937.0519241
936.8196794
936.5174362
936.1494124
935.7198799
935.2326099
934.6914282
934.0999989
933.4618781
932.7804965
932.0592288
931.3012376
930.5096246
929.6873596
928.8374525
927.96283
927.0660096
926.1497223
925.2164767
924.2687
923.3088174
922.3390935
921.36191
920.3794746
919.3941167
918.4081699
917.4238424
916.4436439
915.4696952
914.5046067
913.5503862
912.6094852
911.6837848
910.7753583
909.885622
909.0162309
908.1681415
907.3422003
906.5390921
905.7589556
905.0018139
904.267569
903.5559287
902.8663164
902.1981299
901.5507352
900.9234353
900.3155185
937.1616312
937.0883386
936.9311952
936.6989483
936.3967759
936.0287788
935.5993382
935.1122362
934.5712482
933.9800461
933.3421821
932.6611321
931.9402071
931.1825923
930.3913686
929.5695225
928.7201711
927.8459918
926.9496263
926.0339282
925.1011971
924.1541049
923.1948855
922.2260943
921.2499331
920.2688815
919.2851409
918.3013239
917.3195281
916.3423583
915.3720178
914.4109621
913.4613636
912.5254563
911.6051945
910.7024094
909.8185359
908.9550888
908.1128996
907.2928218
906.4953711
905.7206959
904.9687954
904.2395935
903.5327428
902.847712
902.1839237
901.5407609
900.9175484
900.3135864
937.0409443
936.967638
936.8104687
936.5783244
936.2761261
935.9082497
935.4788201
934.9918947
934.4511107
933.8601488
933.2225754
932.5418569
931.8212967
931.0640873
930.27329
929.4519991
928.6031743
927.7295162
926.8338174
925.9187156
924.9866871
924.0404365
923.082121
922.1145105
921.1397074
920.1603279
919.1786403
918.1972054
917.2183243
916.244443
915.2779696
914.3211479
913.3762951
912.4454279
911.5305655
910.6333092
909.7551436
908.8973736
908.0608073
907.2462867
906.4541786
905.6846489
904.9376813
904.2132252
903.5108831
902.8301681
902.1705251
901.531353
900.9119956
900.311764
936.9202622
936.8469433
936.689792
936.4577121
936.1554925
935.7877427
935.3583919
934.8715889
934.331019
933.7403091
933.10304
932.4226697
931.7024952
930.9457183
930.1554147
929.3347257
928.4864526
927.6133919
926.7184556
925.8040728
924.8729775
923.9276681
922.9705709
922.0042803
921.0311714
920.0536952
919.0743685
918.0955986
917.1199063
916.1495575
915.1871456
914.2346976
913.2946613
912.368839
911.4593105
910.5674591
909.6948222
908.8425121
908.0113233
907.202096
906.4150633
905.650415
904.9081265
904.1881694
903.4901056
902.8134888
902.1577848
901.5224064
900.9067148
900.3100308
936.7995903
936.7262614
936.5692205
936.3371174
936.0349192
935.6672641
935.2380743
934.7513285
934.2109774
933.6205304
932.9835788
932.3035726
931.5838039
930.8274944
930.0378005
929.2176674
928.3700046
927.4977138
926.6035385
925.6899942
924.7599766
923.8157815
922.8601014
921.8953556
920.9241858
919.9488705
918.9721608
917.9963125
917.024022
916.0574494
915.0991877
914.1512786
913.2160187
912.295264
911.3909377
910.5043645
909.6370868
908.7900394
907.964042
907.1598498
906.3776654
905.6176761
904.8798802
904.1641923
903.4702167
902.797519
902.1455845
901.5138381
900.9016572
900.3083708
911.3250387
910.4436495
909.5815407
908.7395782
907.9185973
907.1192272
906.3416968
905.5861786
904.8526952
904.1411081
903.4510626
902.7821356
902.1338302
901.5055824
900.8967838
900.3067712
)
;

boundaryField
{
    front_top
    {
        type            wedge;
    }
    front_middle
    {
        type            wedge;
    }
    front_bottom
    {
        type            wedge;
    }
    back_top
    {
        type            wedge;
    }
    back_middle
    {
        type            wedge;
    }
    back_bottom
    {
        type            wedge;
    }
    axis_top
    {
        type            symmetryPlane;
    }
    axis_middle
    {
        type            symmetryPlane;
    }
    axis_bottom
    {
        type            symmetryPlane;
    }
    wall_top
    {
        type            calculated;
        value           nonuniform 0();
    }
    wall_middle
    {
        type            calculated;
        value           uniform 900.0184441;
    }
    wall_bottom
    {
        type            calculated;
        value           uniform 900.0184441;
    }
    inlet
    {
        type            calculated;
        value           nonuniform 0();
    }
    outlet
    {
        type            calculated;
        value           nonuniform 0();
    }
    procBoundary2to1
    {
        type            processor;
        value           nonuniform List<scalar> 
51
(
936.6789872
936.6057275
936.4486683
936.2165461
935.9144692
935.5468198
935.1177968
934.6312426
934.0910013
933.5008181
932.8641966
932.1845704
931.4652512
930.7095201
929.9203611
929.1008291
928.2538351
927.3824074
926.4890697
925.576569
924.6476809
923.7047938
922.7506883
921.7877229
920.8186774
919.8458071
918.8718747
917.8992351
916.9304428
915.9678261
915.0137812
914.0704727
913.1399863
912.2242719
912.2242719
911.2612729
910.3849703
909.5278585
908.6908204
907.8746864
907.0799687
906.3069259
905.5557188
904.8263959
904.118768
903.4325205
902.7672402
902.122447
901.4975866
900.8920637
900.305222
)
;
    }
    procBoundary2to3
    {
        type            processor;
        value           nonuniform List<scalar> 
51
(
940.2213064
939.9236882
939.9236882
939.7182331
939.4145855
939.01972
938.5394281
937.9795522
937.3457536
936.6436821
935.8787992
935.0566113
934.1825606
933.2622057
932.3008942
931.3039791
930.2766181
929.2240282
928.1510888
927.0627506
925.9635535
924.8578677
923.7498699
922.6435734
921.5425324
920.4500893
919.3694126
918.3032774
917.2540507
916.2239886
915.2149908
914.2284948
913.266057
912.3284902
911.4168227
910.5313392
909.6725702
908.8405645
908.0352226
907.2564908
906.5039315
905.7770628
905.075301
904.3980225
903.7445033
903.1139711
902.5055373
901.9184038
901.351646
900.8044483
900.2759095
)
;
    }
}


// ************************************************************************* //
