/*--------------------------------*- C++ -*----------------------------------*\
  =========                 |
  \\      /  F ield         | OpenFOAM: The Open Source CFD Toolbox
   \\    /   O peration     | Website:  https://openfoam.org
    \\  /    A nd           | Version:  7
     \\/     M anipulation  |
\*---------------------------------------------------------------------------*/
FoamFile
{
    version     2.0;
    format      ascii;
    class       volScalarField;
    location    "0.0024";
    object      T;
}
// * * * * * * * * * * * * * * * * * * * * * * * * * * * * * * * * * * * * * //

dimensions      [0 0 0 1 0 0 0];

internalField   nonuniform List<scalar> 
1167
(
450.1701404
450.4739218
450.6139384
450.9142712
451.3582185
451.9363125
452.6401075
453.4617868
454.393538
455.4276934
456.556827
457.7734847
459.0703179
460.4397586
461.8746124
463.3675855
464.9115014
466.4993099
468.1241076
469.778753
471.4570568
473.152546
474.8587957
476.5703116
478.2814067
479.9867114
481.6813837
483.3609793
485.021207
486.6582235
488.2688399
489.84977
491.3985838
492.9128937
494.390819
495.8308668
497.2319765
498.5930164
499.9137054
501.1936967
502.4327989
503.6314157
504.7900011
505.9091333
506.9896025
508.0323624
509.0386347
510.0095969
510.9467027
511.8512886
512.7247951
450.777588
450.9120186
451.2003468
451.6264523
452.1817312
452.8577279
453.6472693
454.5429842
455.5377079
456.6244827
457.7963748
459.0465828
460.3681758
461.7544404
463.1988656
464.6945458
466.235454
467.8147398
469.4263925
471.0643675
472.7225329
474.3954167
476.0775261
477.7633537
479.4482017
481.127389
482.7961603
484.4506889
486.0871665
487.7018984
489.2919868
490.8543914
492.386722
493.8866052
495.3522487
496.7819936
498.174702
499.528901
500.8441701
502.1198638
503.3553816
504.5507952
505.7061521
506.8216552
507.8977301
508.9350955
509.9345242
510.8971055
511.8239789
512.7166039
451.0810732
451.2087639
451.4825549
451.887635
452.4153443
453.0582853
453.8092372
454.6615638
455.6086364
456.6440053
457.7612922
458.9542713
460.2167731
461.5424431
462.9255351
464.3599766
465.8400022
467.3598331
468.9137399
470.4963177
472.1023862
473.726415
475.3638224
477.0097136
478.6594223
480.3088585
481.9537297
483.5902568
485.2150444
486.8245075
488.4158535
489.9862453
491.5330906
493.0542444
494.5474379
496.011173
497.4436226
498.8434243
500.2093546
501.5399251
502.8342781
504.0912649
505.3096676
506.4885045
507.6268692
508.7240311
509.7795096
510.7933342
511.7660785
512.6989961
451.3843237
451.5043397
451.7618613
452.1429283
452.6391574
453.2441155
453.9509005
454.7533107
455.6453602
456.6211135
457.6747447
458.8005906
459.993138
461.2467499
462.5559236
463.9156139
465.3205372
466.7654599
468.2455384
469.7556274
471.291355
472.8478687
474.4209063
476.0062945
477.5997995
479.1978883
480.7966771
482.392998
483.9836175
485.5656267
487.1366298
488.6938412
490.235603
491.7596993
493.2647299
494.7490958
496.2119347
497.651931
499.0684955
500.4605535
501.827414
503.1680981
504.4809857
505.7645926
507.0164395
508.2332137
509.4109498
510.5448788
511.6296764
512.6601212
451.6851323
451.7959499
452.0337785
452.3854835
452.8439143
453.4027138
454.0559162
454.7975813
455.6224742
456.5252208
457.5005835
458.5434836
459.6490182
460.8123154
462.0285981
463.2931369
464.6013911
465.9491375
467.3317856
468.7450812
470.1851654
471.6477447
473.1293805
474.6259738
476.1345461
477.6512249
479.173383
480.6977113
482.2218207
483.7428894
485.2590712
486.7681389
488.2687263
489.75925
491.2390286
492.7071324
494.1636564
495.6084242
497.042488
498.4665654
499.8823132
501.2915564
502.6963006
504.098997
505.5013229
506.9047144
508.3087007
509.7103614
511.1032402
512.4756032
451.9320087
452.0407246
452.2736298
452.6180303
453.0670953
453.6142581
454.2540711
454.9806697
455.7888789
456.6735972
457.6297587
458.6524772
459.737025
460.8787069
462.0729414
463.315162
464.6010841
465.9266157
467.2873804
468.6792246
470.098497
471.5410533
473.0035064
474.4820667
475.9736055
477.4746872
478.9824873
480.4940914
482.0070276
483.5188114
485.0276462
486.5315696
488.0294308
489.5198752
491.0024601
492.4765806
493.9423001
495.3998552
496.849826
498.2929211
499.7296058
501.1607099
502.5859804
504.0054523
505.4180266
506.8226405
508.2188416
509.608483
510.9997832
512.4115126
452.1147036
452.2236788
452.4572169
452.8026872
453.2529978
453.8017172
454.4432562
455.1721003
455.9827186
456.8701563
457.8293809
458.8555374
459.9439017
461.0897662
462.2884241
463.5355207
464.8267971
466.1580171
467.524578
468.9227636
470.3484758
471.7978739
473.2673355
474.7531249
476.2522063
477.7610367
479.2769968
480.7971909
482.3193075
483.8410154
485.3606329
486.8765059
488.3874503
489.8924959
491.3910302
492.8825636
494.3668694
495.8437583
497.3130952
498.7742163
500.2264955
501.6682007
503.0976584
504.5118476
505.9080325
507.2829799
508.6339412
509.9593017
511.257761
512.5272507
452.2972109
452.4067216
452.6415302
452.9888564
453.4413522
453.9929743
454.6376888
455.370214
456.1851685
457.0772579
458.0415322
459.0731738
460.1674046
461.3193404
462.5245019
463.7784457
465.0768263
466.4150425
467.7889956
469.1946238
470.6276704
472.0846883
473.5615344
475.0551088
476.5618273
478.078823
479.6029396
481.1320245
482.6632697
484.1950457
485.7252479
487.2527578
488.7760022
490.2942645
491.8064362
493.3117791
494.8092713
496.2980089
497.7763629
499.2425451
500.6938768
502.1276055
503.5398031
504.9271348
506.2857798
507.6125013
508.9052617
510.1626431
511.3840409
512.5698817
452.4797271
452.5897361
452.8256372
453.1745459
453.6289423
454.1830451
454.8305172
455.5661812
456.3846509
457.2806827
458.2491886
459.2852851
460.3841592
461.5410209
462.7512752
464.0104155
465.3139177
466.6573693
468.036668
469.4474272
470.8859219
472.3482805
473.8307531
475.3300726
476.842898
478.366281
479.8974022
481.4338197
482.9732873
484.5136814
486.0534657
487.5908437
489.1246877
490.6533322
492.1758405
493.6901636
495.19505
496.6879898
498.1668179
499.6279467
501.0683685
502.4839305
503.8710438
505.2262133
506.5462917
507.8295708
509.0753022
510.2835678
511.4557453
512.5934098
452.6623274
452.7727162
453.0094506
453.3593848
453.8153662
454.371161
455.0208582
455.7588165
456.5798256
457.4786043
458.4500475
459.4892264
460.5912688
461.7513684
462.964914
464.2272886
465.5339978
466.8808245
468.263446
469.6776384
471.1198367
472.5858612
474.072515
475.5761223
477.09386
478.6223988
480.1594495
481.7020787
483.2484763
484.7962402
486.3437668
487.8891432
489.4306602
490.9665888
492.4948594
494.0133222
495.5192845
497.0100382
498.4820161
499.9317419
501.3553717
502.7492326
504.1102153
505.4354524
506.7234282
507.9734545
509.1858561
510.3614483
511.5018999
512.6086074
452.8450221
452.9556865
453.1929785
453.5436465
454.0007679
454.557706
455.2089018
455.9484438
456.7710993
457.6716169
458.64488
459.6859276
460.7898512
461.9518536
463.1673177
464.4314746
465.7402218
467.0891721
468.4738346
469.8904772
471.3351757
472.804129
474.2939508
475.8011933
477.3228915
478.8559821
480.3979118
481.946099
483.4981959
485.0521731
486.6057058
488.1570586
489.7036381
491.243602
492.7740242
494.2923052
495.7951081
497.2792186
498.7407118
500.1762025
501.5817504
502.9545991
504.2920484
505.5923645
506.8548283
508.0794237
509.2668642
510.4183648
511.5355032
512.6196386
453.0278132
453.1386715
453.3761848
453.7274691
454.1853291
454.743008
455.3950278
456.1356761
456.9592829
457.8607784
458.8350498
459.8771218
460.9820695
462.1451216
463.3614827
464.626827
465.9368466
467.2870589
468.673239
470.091686
471.5382512
473.0095688
474.5019056
476.0122569
477.5372323
479.0742125
480.6202137
482.1729482
483.7295695
485.2881186
486.8459582
488.4008108
489.9500599
491.4909044
493.02038
494.5350243
496.0316084
497.5062567
498.9554769
500.3757221
501.7638838
503.1175924
504.4347023
505.7144313
506.9564612
508.1611324
509.3293004
510.4622934
511.5615015
512.6281905
453.2106332
453.3215017
453.5592896
453.9109872
454.3691436
454.9274183
455.5798838
456.3210243
457.1453107
458.0472998
459.0220813
460.0646759
461.1701288
462.3335736
463.5505578
464.8166316
466.1274766
467.4784605
468.8657932
470.2854821
471.7336213
473.2067921
474.7012233
476.214083
477.741805
479.2818379
480.8311796
482.3872356
483.9473161
485.5088244
487.0692492
488.6255219
490.1750803
491.7143673
493.2403278
494.7491351
496.2374895
497.7014718
499.1378962
500.543315
501.9154178
503.2520745
504.5518564
505.8143442
507.0395092
508.2277985
509.3802555
510.4981019
511.5826569
512.63514
453.3934129
453.5043731
453.7423585
454.0943372
454.5526214
455.1112904
455.7639731
456.5053404
457.3298539
458.232183
459.2072259
460.2500122
461.3556212
462.5193599
463.7366883
465.0032039
466.3144079
467.6660345
469.0541998
470.4747389
471.9241428
473.3986295
474.8948385
476.4095449
477.9395376
479.4818112
481.0336582
482.5919627
484.1542086
485.7171807
487.2783432
488.8342821
490.3819762
491.9179112
493.4384175
494.9399634
496.4188906
497.8717883
499.2954127
500.6869623
502.0444193
503.3659389
504.6507154
505.8984673
507.1093542
508.2838476
509.4231057
510.5282347
511.6004748
512.6409973
453.5762846
453.6873153
453.9254492
454.2774853
454.7359599
455.2947556
455.9476942
456.6891574
457.5137553
458.4161725
459.3913022
460.434161
461.5398536
462.7037107
463.9211941
465.1879085
466.4992699
467.8513233
469.2399687
470.6611586
472.1114981
473.5869275
475.0844749
476.6005113
478.1321501
479.6759163
481.2292924
482.7888615
484.3518552
485.9150836
487.4753878
489.0294705
490.5737198
492.1048174
493.6186247
495.1119793
496.5809905
498.0227798
499.434088
500.8127233
502.1568638
503.4648968
504.736474
505.971375
507.1698457
508.3324019
509.4602193
510.5543219
511.6158908
512.6460628
453.759245
453.8703363
454.1085957
454.4605894
454.9192781
455.4781059
456.1312835
456.8727767
457.6973867
458.599812
459.5749394
460.6177722
461.723439
462.8872917
464.1047919
465.3713971
466.6828938
468.0351755
469.4239813
470.8456569
472.2964764
473.7726443
475.2709857
476.7879494
478.3204471
479.8651525
481.4190711
482.9789952
484.5415959
486.1038271
487.6619659
489.2128188
490.7524537
492.2775009
493.7839144
495.2684451
496.7275161
498.1584098
499.5580118
500.9246383
502.2565276
503.5525079
504.8123017
506.0357977
507.2232471
508.3752955
509.4930103
510.5773758
511.6295178
512.6505414
453.9422875
454.0534342
454.2916395
454.6437455
455.1026276
455.6614617
456.3146668
457.0563359
457.8809169
458.7833021
459.7583703
460.8011101
461.9066728
463.0704297
464.2877023
465.5542123
466.8656996
468.2179697
469.6068088
471.0287339
472.4797114
473.9563144
475.4549737
476.9724233
478.505166
480.0501182
481.6037526
483.1630786
484.7242741
486.2843001
487.8393142
489.3857908
490.9199949
492.438203
493.9367518
495.412199
496.8614292
498.2816636
499.6703026
501.0257517
502.3463886
503.6314012
504.880538
506.0937562
507.271289
508.4138858
509.5225112
510.5981141
511.6417737
512.6545689
454.1254033
454.2364994
454.4746995
454.8269592
455.2858729
455.8448478
456.4980405
457.2397816
458.0644106
458.9667218
459.9416899
460.9842871
462.0896851
463.2531636
464.4701927
465.736549
467.0479036
468.3998951
469.7887072
471.210602
472.66153
474.1382379
475.6368139
477.1542582
478.686673
480.2311149
481.7837841
483.3415049
484.9005651
486.4574299
488.0084721
489.5497665
491.0778568
492.5887296
494.0791215
495.5454378
496.9850065
498.3949913
499.7732541
501.1182594
502.4284842
503.7034155
504.9427994
506.1466339
507.3151217
508.4490992
509.5494336
510.6170416
511.6529603
512.6582452
454.308394
454.4195123
454.6578194
455.0102265
455.4691105
456.0282669
456.6814325
457.4231227
458.2477801
459.1500979
460.1249334
461.1673293
462.2724046
463.4355897
464.6523925
465.9185053
467.2295369
468.5812007
469.9698181
471.391355
472.8420956
474.3184233
475.8166973
477.3334992
478.8651989
480.4084094
481.9595234
483.5148957
485.0710484
486.6239953
488.1703342
489.7058548
491.2272732
492.7305704
494.2126093
495.6699216
497.1000715
498.5002233
499.8686517
501.203802
502.504375
503.7699555
505.000319
506.1954428
507.3556268
508.4816436
509.5743177
510.6345363
511.6632998
512.6616431
454.4914112
454.6025801
454.8409911
455.1934923
455.652387
456.2116469
456.8648411
457.6064666
458.431041
459.333244
460.3079373
461.3500929
462.4549257
463.6178297
464.8343437
466.1001327
467.4106387
468.7619585
470.1502205
471.5711995
473.0215021
474.4971304
475.9947397
477.5104554
479.040926
480.5823354
482.1312733
483.6836504
485.2361577
486.7846534
488.3255984
489.8550221
491.3693739
492.8649758
494.3385703
495.7870734
497.2080183
498.5987933
499.9578755
501.2837002
502.5752439
503.8320786
505.0540213
506.2410166
507.3934575
508.5120451
509.5975666
510.6508828
511.672961
512.6648181
454.6744762
454.7856945
455.0242063
455.3766425
455.8356949
456.3949154
457.0482612
457.7898088
458.6142843
459.5163525
460.4908517
461.5327668
462.6373226
463.7999006
465.0160682
466.2813225
467.5913467
468.9422004
470.3297775
471.7501851
473.1997552
474.6744362
476.171001
477.6852376
479.2139468
480.7530947
482.2991615
483.8481348
485.3963796
486.9399993
488.4751248
489.9981167
491.5051888
492.9930055
494.4582025
495.8980619
497.310036
498.6918507
500.0420223
501.3590057
502.6420208
503.8906137
505.1046297
506.2839748
507.429126
508.540715
509.6194942
510.6663015
511.6820741
512.6678131
454.857581
454.9688472
455.2073931
455.5598223
456.0190254
456.5781975
457.2315916
457.9731436
458.7975048
459.69942
460.6737037
461.7153524
462.819599
463.9818089
465.1975258
466.4621727
467.7716751
469.1219439
470.5086858
471.92833
473.3768061
474.8503811
476.3454066
477.8579412
479.3843558
480.9208717
482.463574
484.0086874
485.552225
487.0905699
488.6195544
490.1358784
491.6355437
493.1155537
494.5724444
496.0038457
497.4071248
498.780318
500.1219647
501.4305244
502.7054357
503.9462089
505.1527052
506.324797
507.4630302
508.5679728
509.6403452
510.6809644
511.6907408
512.6706613
455.0407177
455.1520277
455.3904675
455.7430227
456.2023115
456.7614836
457.4148009
458.1564565
458.9806958
459.8824412
460.8564892
461.8978468
463.0017526
464.1635403
465.3786272
466.6427365
467.951626
469.3010414
470.6869489
472.1056419
473.5527965
475.0249927
476.5181641
478.0286398
479.5523698
481.0858416
482.6247679
484.1656073
485.7040905
487.2367632
488.7594535
490.2688342
491.7611444
493.2332988
494.6820819
496.1052173
497.5000636
498.8649431
500.1983566
501.4989027
502.7660716
503.9993802
505.1986552
506.363864
507.4954861
508.5940722
509.6603131
510.6950074
511.6990413
512.6733893
494.7877683
496.2027789
497.5894892
498.9463336
500.2717888
501.5646591
502.8243946
504.0505389
505.2428812
506.401478
507.526744
508.6192141
509.6795514
510.7085385
511.7070396
512.676018
)
;

boundaryField
{
    front_top
    {
        type            wedge;
    }
    front_middle
    {
        type            wedge;
    }
    front_bottom
    {
        type            wedge;
    }
    back_top
    {
        type            wedge;
    }
    back_middle
    {
        type            wedge;
    }
    back_bottom
    {
        type            wedge;
    }
    axis_top
    {
        type            symmetryPlane;
    }
    axis_middle
    {
        type            symmetryPlane;
    }
    axis_bottom
    {
        type            symmetryPlane;
    }
    wall_top
    {
        type            convectiveRadiativeHeatFlux;
        mode            convectiveRadiative;
        kappaMethod     fluidThermo;
        kappa           none;
        alphaAni        Anialpha;
        h               nonuniform 0();
        Ta              constant 513.15;
        emissivityNozzle 0.95;
        emissivityFilament 0.95;
        dNozzle         2;
        dFilament       1.65;
        refValue        nonuniform 0();
        refGradient     nonuniform 0();
        valueFraction   nonuniform 0();
        value           nonuniform 0();
    }
    wall_middle
    {
        type            fixedValue;
        value           uniform 513.15;
    }
    wall_bottom
    {
        type            fixedValue;
        value           uniform 513.15;
    }
    inlet
    {
        type            fixedValue;
        value           nonuniform 0();
    }
    outlet
    {
        type            zeroGradient;
    }
    procBoundary2to1
    {
        type            processor;
        value           nonuniform List<scalar> 
51
(
455.2237971
455.3350306
455.5735595
455.9262346
456.3854573
456.9447647
457.5979961
458.3395505
459.163834
460.0654079
461.0392005
462.0802424
463.18374
464.3449342
465.5595053
466.8230065
468.1311913
469.479608
470.8645603
472.2819815
473.7277313
475.1982433
476.6893104
478.1973534
479.7181022
481.2480765
482.7829662
484.3190692
485.8523357
487.3790407
488.8953204
490.3976485
491.8825969
493.3469283
493.3469283
494.8900481
496.2970817
497.6759245
499.024985
500.3427494
501.628213
502.8807802
504.1000156
505.285669
506.4378813
507.5570047
508.6435592
509.6981828
510.7216438
511.7147864
512.678564
)
;
    }
    procBoundary2to3
    {
        type            processor;
        value           nonuniform List<scalar> 
51
(
449.8660134
450.3146091
450.3146091
450.6244545
451.0826314
451.6788911
452.4048239
453.2519817
454.2122142
455.2774003
456.439703
457.6912061
459.0240686
460.4302399
461.9019516
463.4313793
465.0109456
466.6329238
468.2900457
469.9748692
471.680523
473.4003359
475.1278749
476.8569011
478.5818351
480.2973779
481.9984543
483.6805646
485.339815
486.9724551
488.5752715
490.1457639
491.6812254
493.1801232
494.6405727
496.0618764
497.4429433
498.7834588
500.0833537
501.3424923
502.5613677
503.7405563
504.8808114
505.982963
507.0480165
508.0770688
509.0714186
510.03223
510.9608848
511.8585985
512.7267371
)
;
    }
}


// ************************************************************************* //
