/*--------------------------------*- C++ -*----------------------------------*\
  =========                 |
  \\      /  F ield         | OpenFOAM: The Open Source CFD Toolbox
   \\    /   O peration     | Website:  https://openfoam.org
    \\  /    A nd           | Version:  7
     \\/     M anipulation  |
\*---------------------------------------------------------------------------*/
FoamFile
{
    version     2.0;
    format      ascii;
    class       volScalarField;
    location    "0.0024";
    object      thermo:alpha;
}
// * * * * * * * * * * * * * * * * * * * * * * * * * * * * * * * * * * * * * //

dimensions      [1 -1 -1 0 0 0 0];

internalField   nonuniform List<scalar> 
1167
(
0.0001197300962
0.0001197015793
0.0001196884396
0.0001196602639
0.000119618637
0.0001195644707
0.000119493987
0.0001194123702
0.0001193230706
0.0001192169398
0.0001191012379
0.0001189709431
0.0001188264007
0.0001186740506
0.000118507981
0.0001183266292
0.0001181272169
0.0001179225834
0.0001177046094
0.000117476994
0.0001172345543
0.000116986713
0.0001167221466
0.0001164535133
0.0001161816896
0.0001158954592
0.0001156055364
0.0001153154371
0.0001150160242
0.0001147168095
0.0001144129109
0.0001141088683
0.0001138037562
0.0001135060673
0.0001132048149
0.0001129035645
0.0001126043081
0.0001123141581
0.0001120261894
0.0001117426909
0.0001114661555
0.0001111907192
0.0001109249084
0.0001106685463
0.000110413822
0.0001101662423
0.0001099196373
0.0001096809805
0.0001094509427
0.0001092291644
0.0001090100885
0.0001196730854
0.0001196604752
0.0001196334369
0.0001195934985
0.000119541191
0.000119471587
0.0001193950387
0.0001193077241
0.0001192056586
0.0001190943111
0.0001189683896
0.0001188290438
0.000118682007
0.0001185224315
0.0001183484472
0.0001181552129
0.0001179565572
0.0001177472248
0.0001175254212
0.0001172920342
0.0001170495333
0.000116793935
0.0001165335567
0.0001162639906
0.0001159832474
0.0001157007296
0.0001154142042
0.0001151188368
0.000114824145
0.0001145198073
0.000114218909
0.0001139108867
0.0001136094341
0.0001133082603
0.0001130059216
0.0001127003554
0.000112403278
0.0001121115144
0.0001118200566
0.0001115378672
0.0001112541107
0.0001109797544
0.0001107150147
0.0001104537301
0.000110198188
0.0001099451052
0.0001096994217
0.0001094631104
0.000109235856
0.0001090121669
0.0001196446206
0.0001196326478
0.0001196069832
0.00011956903
0.0001195171295
0.0001194509493
0.0001193799081
0.0001192955495
0.0001191983863
0.0001190923124
0.0001189723033
0.0001188393243
0.0001186988378
0.0001185479298
0.0001183817126
0.0001181984025
0.0001180074985
0.0001178099214
0.000117595921
0.0001173752382
0.0001171401622
0.0001168976605
0.0001166439587
0.0001163815909
0.0001161164734
0.0001158415116
0.0001155587657
0.0001152740474
0.0001149811113
0.0001146854031
0.0001143852052
0.000114081957
0.0001137772893
0.0001134783115
0.0001131726972
0.0001128650216
0.0001125591535
0.0001122608341
0.0001119606637
0.0001116660915
0.0001113738475
0.0001110851672
0.0001108058188
0.0001105329211
0.0001102624759
0.0001099970324
0.0001097375062
0.0001094885712
0.0001092500439
0.0001090166346
0.00011961619
0.0001196049416
0.0001195808118
0.000119545122
0.0001194940849
0.0001194327151
0.0001193666772
0.0001192861312
0.0001191946213
0.000119094656
0.0001189819593
0.0001188564423
0.000118723705
0.0001185835074
0.0001184261003
0.0001182557966
0.0001180744578
0.0001178883269
0.0001176878874
0.0001174801715
0.0001172588051
0.0001170312261
0.0001167899848
0.0001165445705
0.0001162892209
0.0001160240759
0.0001157575908
0.0001154833661
0.0001152030675
0.0001149179902
0.0001146264713
0.0001143328318
0.0001140327996
0.0001137327106
0.0001134359437
0.0001131313536
0.0001128221172
0.0001125147236
0.0001122129212
0.0001119050104
0.0001116025151
0.0001112971341
0.0001109957639
0.0001107016346
0.0001104074458
0.0001101178435
0.0001098280873
0.0001095495454
0.0001092834722
0.000109026499
0.0001195880004
0.0001195776184
0.0001195553427
0.0001195202047
0.0001194730087
0.0001194178909
0.0001193568707
0.0001192815871
0.0001191969676
0.0001191044741
0.0001190013937
0.0001188850888
0.0001187619847
0.0001186326543
0.000118489468
0.0001183362559
0.0001181672362
0.0001179934371
0.0001178137883
0.0001176191259
0.0001174208415
0.0001172066536
0.0001169901186
0.0001167582105
0.0001165247411
0.0001162812873
0.0001160280737
0.0001157746116
0.0001155127429
0.0001152465011
0.0001149731828
0.0001146960488
0.0001144129323
0.0001141267206
0.0001138351582
0.0001135464804
0.0001132514111
0.0001129511277
0.0001126447466
0.0001123410925
0.0001120331485
0.0001117210368
0.0001114055655
0.000111083393
0.0001107619192
0.0001104339922
0.0001100992577
0.0001097544974
0.0001094125448
0.0001090733269
0.0001195648738
0.0001195546923
0.0001195317248
0.0001194962599
0.0001194500429
0.0001193981229
0.0001193373953
0.0001192627969
0.0001191799093
0.000119089283
0.0001189869787
0.0001188729436
0.0001187521931
0.0001186252796
0.0001184841376
0.0001183334078
0.0001181672759
0.0001179963388
0.0001178199108
0.0001176281882
0.0001174330699
0.0001172222633
0.0001170084973
0.0001167805073
0.0001165496253
0.000116308525
0.0001160607645
0.0001158096388
0.0001155496148
0.0001152869435
0.0001150148643
0.0001147407357
0.0001144580411
0.0001141739405
0.0001138817298
0.000113591776
0.0001132968303
0.0001129957375
0.000112685873
0.0001123780869
0.0001120670053
0.0001117499908
0.0001114309301
0.0001111048593
0.0001107809972
0.0001104534959
0.0001101213823
0.0001097795339
0.0001094379214
0.0001090895948
0.0001195477648
0.0001195368699
0.0001195128176
0.0001194772518
0.0001194318848
0.0001193806106
0.0001193179647
0.0001192431559
0.0001191600436
0.0001190691637
0.0001189647076
0.0001188503215
0.0001187291809
0.0001186018397
0.0001184582394
0.0001183049178
0.0001181381461
0.0001179665303
0.0001177872112
0.0001175946796
0.0001173969038
0.0001171846925
0.0001169688944
0.0001167385135
0.0001165056089
0.000116264348
0.000116011171
0.0001157575024
0.0001154960117
0.0001152287948
0.0001149548949
0.0001146755835
0.0001143905575
0.0001141004427
0.0001138052427
0.0001135120236
0.0001132097268
0.0001129008084
0.0001125869999
0.00011227557
0.0001119568655
0.0001116377211
0.0001113133185
0.0001109886861
0.0001106687983
0.0001103441308
0.0001100192014
0.000109693335
0.0001093746496
0.0001090602184
0.0001195292959
0.0001195180175
0.0001194938406
0.000119458093
0.0001194142799
0.0001193627481
0.0001192980006
0.0001192228346
0.0001191393013
0.0001190479713
0.0001189410455
0.0001188260826
0.0001187043267
0.000118574772
0.0001184298749
0.0001182735205
0.000118105889
0.0001179334322
0.0001177507718
0.0001175572877
0.0001173559927
0.0001171427497
0.0001169232393
0.000116691747
0.0001164549025
0.0001162153416
0.0001159580152
0.0001156999328
0.0001154369971
0.0001151649322
0.000114889261
0.0001146045516
0.0001143173563
0.0001140212377
0.0001137235182
0.0001134262797
0.0001131190187
0.0001128037261
0.0001124881897
0.0001121750389
0.0001118533345
0.0001115361561
0.0001112117555
0.0001108934739
0.0001105811269
0.0001102658867
0.0001099524442
0.0001096433912
0.0001093436861
0.000109049399
0.0001195104997
0.0001194991728
0.0001194748897
0.0001194392189
0.000119396751
0.0001193446915
0.0001192782066
0.0001192027391
0.0001191188689
0.0001190259389
0.0001189178916
0.0001188024662
0.0001186802304
0.0001185481009
0.0001184026371
0.0001182435489
0.0001180753114
0.0001179022378
0.0001177166523
0.0001175225296
0.0001173181646
0.0001171042176
0.0001168814771
0.0001166491821
0.0001164088905
0.0001161670439
0.0001159100139
0.0001156480665
0.0001153838305
0.000115107481
0.000114830207
0.0001145407563
0.000114251699
0.0001139504878
0.0001136508829
0.0001133485819
0.0001130395547
0.0001127204276
0.0001124049582
0.0001120895481
0.0001117704273
0.0001114543965
0.0001111357077
0.0001108249379
0.0001105191823
0.0001102143632
0.000109910619
0.0001096136968
0.0001093261068
0.000109043428
0.0001194916996
0.0001194803366
0.000119455974
0.0001194219406
0.0001193793357
0.0001193253688
0.0001192586731
0.0001191829907
0.0001190988832
0.0001190038466
0.000118895502
0.0001187797661
0.0001186572131
0.000118522801
0.0001183769849
0.0001182155368
0.0001180469368
0.0001178734821
0.0001176854216
0.0001174908884
0.000117283913
0.0001170695
0.0001168439873
0.0001166111068
0.0001163678226
0.0001161228593
0.0001158672262
0.0001156019818
0.0001153357513
0.0001150565556
0.0001147762213
0.0001144844932
0.0001141915434
0.0001138887929
0.0001135881844
0.0001132822561
0.0001129701918
0.0001126516727
0.0001123378012
0.0001120221911
0.0001117069175
0.0001113933969
0.0001110808189
0.0001107770059
0.0001104770752
0.0001101802194
0.000109883431
0.0001095945749
0.0001093147922
0.0001090395712
0.0001194728946
0.0001194615062
0.0001194374956
0.0001194047207
0.0001193620204
0.0001193062125
0.0001192393806
0.0001191635559
0.0001190793022
0.0001189823083
0.0001188737901
0.000118757878
0.0001186351498
0.0001184986942
0.0001183525274
0.0001181891711
0.0001180203565
0.0001178466786
0.0001176564567
0.0001174616439
0.0001172523913
0.0001170376146
0.0001168096606
0.0001165762893
0.0001163319506
0.0001160825759
0.0001158261873
0.0001155600759
0.0001152906649
0.0001150104462
0.0001147267302
0.0001144339806
0.0001141376894
0.000113834258
0.0001135333411
0.0001132250206
0.0001129112095
0.0001125942279
0.0001122827044
0.0001119680099
0.0001116568406
0.0001113461931
0.0001110391009
0.0001107410697
0.0001104458467
0.000110155077
0.0001098635116
0.0001095806015
0.000109306555
0.0001090367718
0.0001194540846
0.0001194426791
0.0001194203703
0.0001193875463
0.0001193444569
0.0001192871888
0.0001192202898
0.0001191443716
0.0001190600428
0.0001189612053
0.0001188526037
0.0001187366085
0.0001186137994
0.0001184754616
0.0001183274183
0.0001181639531
0.0001179950206
0.0001178199551
0.0001176290119
0.0001174340054
0.0001172226733
0.000117007612
0.0001167774332
0.0001165436486
0.0001162988742
0.000116044952
0.0001157879418
0.0001155211315
0.0001152489047
0.0001149679521
0.0001146813522
0.0001143880398
0.0001140890918
0.0001137855898
0.0001134849607
0.0001131752426
0.0001128606538
0.000112545793
0.0001122369786
0.0001119238027
0.0001116165623
0.0001113087383
0.000111006379
0.0001107131191
0.0001104216964
0.0001101355926
0.0001098481605
0.0001095698175
0.0001093001823
0.0001090346017
0.0001194358452
0.0001194254814
0.000119403259
0.0001193704047
0.000119325576
0.0001192682616
0.0001192013342
0.0001191253854
0.0001190410089
0.0001189404023
0.0001188317723
0.0001187157494
0.0001185927288
0.000118452814
0.000118302974
0.0001181394579
0.0001179704639
0.000117793568
0.0001176025172
0.0001174061367
0.0001171940909
0.0001169782922
0.0001167465531
0.0001165118538
0.0001162673145
0.0001160103813
0.0001157516574
0.0001154843549
0.0001152096163
0.0001149282151
0.0001146391913
0.0001143457014
0.0001140447293
0.0001137416273
0.0001134409561
0.0001131313455
0.0001128166568
0.000112504159
0.0001121981502
0.0001118866787
0.0001115830586
0.0001112778414
0.000110979511
0.0001106902447
0.0001104019648
0.0001101191769
0.0001098356331
0.0001095610274
0.0001092949968
0.0001090328382
0.0001194187602
0.0001194083905
0.0001193861553
0.0001193532833
0.0001193067346
0.0001192493945
0.0001191824622
0.0001191065097
0.0001190204498
0.0001189197874
0.0001188111565
0.0001186951424
0.0001185704064
0.0001184304926
0.0001182789167
0.0001181153861
0.0001179463899
0.0001177677154
0.0001175766
0.0001173784002
0.0001171662253
0.0001169485173
0.0001167165647
0.0001164798389
0.0001162368184
0.0001159777665
0.0001157168427
0.0001154492292
0.0001151722971
0.0001148907128
0.0001145997227
0.0001143063801
0.000114003952
0.0001137015952
0.0001134002712
0.0001130922327
0.0001127779015
0.0001124678442
0.000112163309
0.0001118548657
0.0001115545422
0.0001112516857
0.0001109568422
0.0001106709877
0.0001103853719
0.0001101053766
0.000109825099
0.0001095536309
0.0001092906295
0.0001090313518
0.000119401671
0.0001193912974
0.0001193690541
0.0001193349903
0.0001192879123
0.000119230574
0.0001191636327
0.0001190876901
0.0001189999237
0.0001188992775
0.000118790665
0.0001186746728
0.0001185482413
0.0001184083494
0.0001182550756
0.0001180915615
0.0001179225886
0.0001177421844
0.0001175510523
0.0001173510867
0.00011713883
0.0001169192996
0.0001166872003
0.0001164485687
0.0001162071201
0.0001159461172
0.000115683214
0.000115415456
0.0001151366557
0.0001148551019
0.000114562539
0.0001142696253
0.0001139661714
0.0001136648452
0.0001133632687
0.0001130569844
0.0001127432779
0.000112435657
0.0001121325447
0.000111827019
0.0001115296276
0.0001112289576
0.0001109371797
0.0001106542999
0.0001103710023
0.0001100934226
0.0001098159757
0.0001095472276
0.000109286851
0.0001090300664
0.0001193845779
0.0001193742013
0.000119351952
0.0001193161848
0.000119269097
0.0001192117702
0.0001191448216
0.0001190688955
0.000118979433
0.0001188788119
0.0001187702276
0.0001186542681
0.0001185261598
0.0001183863043
0.0001182313579
0.0001180678998
0.0001178989527
0.0001177168579
0.0001175257527
0.0001173240616
0.0001171117892
0.0001168904898
0.0001166583275
0.0001164178843
0.0001161749527
0.0001159152701
0.0001156506007
0.0001153828518
0.0001151024491
0.0001148211482
0.0001145273397
0.0001142345343
0.0001139309632
0.0001136309
0.0001133293373
0.0001130238507
0.0001127119874
0.0001124067501
0.0001121050579
0.0001118022422
0.0001115066997
0.000111208838
0.0001109197961
0.0001106395555
0.000110358318
0.0001100828629
0.0001098079154
0.0001095415691
0.0001092835111
0.0001090289299
0.0001193674816
0.0001193571025
0.0001193335364
0.0001192973788
0.0001192502833
0.0001191929706
0.0001191260365
0.000119050112
0.0001189589589
0.0001188583682
0.0001187498184
0.0001186338991
0.0001185041262
0.0001183643181
0.000118207735
0.000118044331
0.0001178754282
0.0001176916836
0.0001175006224
0.0001172972517
0.0001170850102
0.0001168620049
0.0001166298525
0.000116387693
0.000116143082
0.0001158851269
0.0001156188714
0.0001153511732
0.0001150695241
0.0001147874595
0.00011449389
0.0001142003973
0.0001138979677
0.0001135993173
0.0001132979689
0.000112993097
0.0001126833959
0.0001123804855
0.0001120801553
0.0001117798599
0.0001114860295
0.0001111907225
0.0001109041544
0.0001106262918
0.0001103469074
0.0001100733631
0.0001098006641
0.0001095364791
0.0001092805073
0.0001090279079
0.0001193503828
0.0001193392003
0.0001193147358
0.0001192785717
0.0001192314851
0.0001191741728
0.0001191072572
0.0001190305051
0.0001189384942
0.0001188379376
0.0001187294268
0.0001186135531
0.0001184821249
0.0001183414251
0.0001181841725
0.0001180208298
0.0001178519871
0.0001176666352
0.0001174756262
0.0001172706255
0.0001170584449
0.0001168337979
0.000116601717
0.0001163579803
0.0001161117734
0.0001158548913
0.0001155879489
0.0001153189533
0.0001150377582
0.0001147547434
0.0001144619927
0.0001141680432
0.0001138668853
0.0001135697407
0.0001132687549
0.0001129645982
0.0001126570157
0.0001123563401
0.0001120573273
0.0001117593854
0.0001114671478
0.0001111741883
0.0001108898836
0.0001106141916
0.0001103364973
0.000110064695
0.0001097940468
0.0001095318336
0.0001092777655
0.000109026975
0.0001193318155
0.0001193204031
0.0001192959339
0.000119259764
0.0001192126926
0.0001191553764
0.0001190884809
0.0001190100389
0.0001189180486
0.0001188175171
0.000118709049
0.0001185930657
0.0001184601645
0.0001183178368
0.0001181606534
0.0001179973837
0.0001178278866
0.0001176416786
0.0001174507445
0.0001172441692
0.0001170320693
0.0001168058675
0.0001165738913
0.0001163303134
0.0001160809867
0.000115824381
0.0001155577709
0.0001152876504
0.0001150070462
0.0001147232752
0.0001144314781
0.0001141372522
0.000113837472
0.0001135418764
0.0001132413686
0.0001129379767
0.0001126324567
0.0001123339228
0.0001120361771
0.0001117404547
0.000111449695
0.0001111589124
0.0001108767006
0.0001106026124
0.000110326878
0.0001100566843
0.0001097879307
0.0001095275399
0.0001092752315
0.0001090261128
0.0001193130197
0.0001193016051
0.0001192771316
0.0001192409613
0.0001191939009
0.0001191365889
0.0001190697077
0.0001189895778
0.0001188976203
0.0001187971275
0.000118688703
0.0001185710716
0.0001184382334
0.0001182942784
0.0001181371724
0.0001179739859
0.0001178029173
0.0001176168036
0.0001174259644
0.0001172178525
0.0001170058695
0.0001167781732
0.0001165463572
0.0001163030058
0.00011605069
0.0001157944576
0.0001155282852
0.0001152571915
0.0001149773091
0.0001146929298
0.0001144022137
0.0001141078326
0.0001138095045
0.0001135154777
0.000113215531
0.0001129129273
0.0001126094204
0.0001123129277
0.0001120163981
0.0001117227751
0.0001114333988
0.0001111446517
0.0001108643936
0.0001105917729
0.0001103178943
0.0001100492014
0.0001097822168
0.0001095235281
0.0001092728637
0.0001090253071
0.0001192942239
0.0001192828072
0.0001192583296
0.0001192221753
0.0001191751109
0.0001191178177
0.0001190509381
0.000118969122
0.0001188771993
0.0001187767473
0.0001186683722
0.0001185490938
0.0001184163229
0.000118270748
0.0001181137266
0.0001179506503
0.0001177780085
0.0001175920058
0.0001173996443
0.000117191668
0.0001169793845
0.0001167507027
0.0001165189114
0.0001162760403
0.0001160214562
0.0001157650861
0.0001154994691
0.0001152275103
0.0001149484587
0.0001146635942
0.0001143740366
0.0001140796163
0.0001137827792
0.0001134903358
0.0001131909958
0.0001128891995
0.0001125876526
0.0001122931093
0.0001119977468
0.0001117061135
0.0001114180449
0.0001111312158
0.0001108527963
0.0001105815562
0.0001103094244
0.0001100421449
0.0001097768277
0.0001095197441
0.0001092706303
0.0001090245472
0.0001192754288
0.0001192640101
0.0001192395353
0.0001192033911
0.0001191563233
0.0001190990498
0.0001190314194
0.0001189486724
0.000118856786
0.0001187563768
0.0001186480535
0.0001185271323
0.0001183944325
0.0001182472445
0.0001180903211
0.0001179273644
0.0001177531584
0.0001175672828
0.0001173734259
0.000117165613
0.0001169519041
0.0001167234499
0.0001164903433
0.0001162494019
0.0001159936599
0.0001157362343
0.0001154712561
0.000115198545
0.0001149204025
0.0001146351663
0.0001143468256
0.0001140524569
0.0001137571329
0.0001134662744
0.0001131675698
0.0001128665877
0.0001125669393
0.0001122742708
0.0001119800294
0.0001116902914
0.0001114034654
0.0001111184557
0.0001108417803
0.000110571848
0.000110301374
0.0001100354363
0.0001097717034
0.0001095161457
0.0001092685063
0.0001090238244
0.0001192566354
0.0001192452151
0.0001192207575
0.0001191846097
0.0001191375452
0.0001190802865
0.0001190109678
0.0001189282305
0.0001188363813
0.0001187360168
0.0001186277474
0.0001185051874
0.0001183725623
0.0001182237699
0.0001180669676
0.0001179041212
0.0001177283664
0.0001175426548
0.0001173473085
0.0001171396862
0.000116924595
0.0001166964101
0.0001164620518
0.000116223079
0.0001159662608
0.0001157078717
0.0001154436016
0.0001151702414
0.0001148930686
0.0001146075705
0.0001143204732
0.0001140262498
0.0001137324264
0.0001134424
0.0001131450914
0.0001128449221
0.000112547114
0.0001122562526
0.0001119631007
0.0001116751654
0.0001113895259
0.0001111062528
0.0001108312519
0.0001105625577
0.0001102936677
0.000110029013
0.0001097667962
0.0001095126994
0.000109266472
0.0001090231322
0.0001131234263
0.0001128240737
0.0001125280404
0.0001122389251
0.0001119468295
0.0001116606208
0.0001113761193
0.0001110945127
0.0001108211192
0.0001105536134
0.0001102862462
0.0001100228256
0.0001097620685
0.0001095093788
0.0001092645119
0.0001090224652
)
;

boundaryField
{
    front_top
    {
        type            wedge;
    }
    front_middle
    {
        type            wedge;
    }
    front_bottom
    {
        type            wedge;
    }
    back_top
    {
        type            wedge;
    }
    back_middle
    {
        type            wedge;
    }
    back_bottom
    {
        type            wedge;
    }
    axis_top
    {
        type            symmetryPlane;
    }
    axis_middle
    {
        type            symmetryPlane;
    }
    axis_bottom
    {
        type            symmetryPlane;
    }
    wall_top
    {
        type            calculated;
        value           nonuniform 0();
    }
    wall_middle
    {
        type            calculated;
        value           uniform 0.0001089022317;
    }
    wall_bottom
    {
        type            calculated;
        value           uniform 0.0001089022317;
    }
    inlet
    {
        type            calculated;
        value           nonuniform 0();
    }
    outlet
    {
        type            calculated;
        value           nonuniform 0();
    }
    procBoundary2to1
    {
        type            processor;
        value           nonuniform List<scalar> 
51
(
0.0001192378526
0.0001192264431
0.0001192019826
0.0001191658318
0.0001191187863
0.0001190615284
0.000118990523
0.0001189078182
0.0001188159877
0.000118715668
0.0001186074548
0.00011848326
0.0001183504034
0.0001182003448
0.0001180436487
0.0001178809217
0.0001177036339
0.0001175181059
0.0001173212931
0.0001171139079
0.0001168974564
0.0001166695875
0.000116434031
0.0001161961954
0.0001159392399
0.0001156799856
0.000115416467
0.0001151425673
0.0001148663918
0.0001145807191
0.0001142948852
0.0001140008636
0.0001137085398
0.0001134190605
0.0001134190605
0.0001131024625
0.0001128039242
0.0001125096069
0.0001122221825
0.0001119311076
0.0001116465646
0.000111363159
0.0001110831593
0.0001108113166
0.0001105449575
0.0001102790618
0.0001100168345
0.00010975749
0.0001095061628
0.0001092626134
0.0001090218191
)
;
    }
    procBoundary2to3
    {
        type            processor;
        value           nonuniform List<scalar> 
51
(
0.000119761328
0.000119716533
0.000119716533
0.0001196874528
0.0001196444745
0.0001195885852
0.0001195182129
0.0001194319798
0.000119341695
0.0001192323542
0.000119113231
0.0001189801226
0.000118831551
0.0001186751086
0.0001185046939
0.0001183183811
0.0001181143874
0.0001179053842
0.000117681759
0.0001174500507
0.0001172018584
0.0001169482525
0.0001166804811
0.0001164065987
0.0001161298562
0.0001158434873
0.0001155510867
0.0001152577484
0.0001149586433
0.000114657466
0.0001143551681
0.0001140505082
0.0001137481465
0.0001134533235
0.0001131536014
0.0001128541848
0.0001125592984
0.000112273602
0.0001119885864
0.000111709767
0.0001114365895
0.0001111656615
0.0001109040917
0.0001106516477
0.0001103999437
0.0001101556356
0.0001099115741
0.0001096754211
0.0001094474636
0.0001092273733
0.0001090095957
)
;
    }
}


// ************************************************************************* //
