/*--------------------------------*- C++ -*----------------------------------*\
  =========                 |
  \\      /  F ield         | OpenFOAM: The Open Source CFD Toolbox
   \\    /   O peration     | Website:  https://openfoam.org
    \\  /    A nd           | Version:  7
     \\/     M anipulation  |
\*---------------------------------------------------------------------------*/
FoamFile
{
    version     2.0;
    format      ascii;
    class       volScalarField;
    location    "0.0006";
    object      generalizedNewtonian:nu;
}
// * * * * * * * * * * * * * * * * * * * * * * * * * * * * * * * * * * * * * //

dimensions      [0 2 -1 0 0 0 0];

internalField   nonuniform List<scalar> 
1166
(
18511.63321
18488.83897
18470.60246
18419.55965
18348.76687
18252.98284
18125.38736
17959.26386
17789.82135
17644.87644
17419.3033
17024.70696
16501.46612
15965.13367
15657.2977
15728.6891
16002.09856
16295.07457
16559.24011
16784.32325
16976.03708
17156.67433
17360.77865
17488.04219
16909.79419
15522.17083
14110.55689
12887.20452
11809.28756
10841.74536
9967.405903
9177.059135
8463.954884
7821.644191
18134.70097
18082.13325
18005.55394
17860.14657
17688.91493
17523.02406
17334.01282
17071.77859
16724.55503
16311.87405
15881.7367
15559.15337
15508.35501
15698.69507
15984.20846
16276.05833
16539.83475
16765.61719
16959.85513
17142.31146
17344.15013
17508.68014
17125.39544
15876.38766
14466.24379
13225.08506
12132.65039
11151.47619
10262.12565
9454.823089
8723.258464
8062.028799
7465.195222
6926.113903
6438.461364
5996.58411
5595.555513
5231.001234
4899.012452
4596.141647
4319.332255
4065.874036
3833.309452
3619.395515
3422.093182
3239.558835
3070.176479
2912.702556
2766.343757
2626.734992
16337.83929
16305.02089
16252.06554
16157.18846
16020.27513
15843.37145
15644.07729
15438.70892
15281.94598
15282.91087
15454.54654
15717.3543
16009.25296
16294.98575
16554.7157
16779.73916
16977.13459
17164.47655
17368.48415
17550.54418
17296.15356
16195.06355
14813.4878
13565.79647
12465.56618
11476.09081
10576.28317
9755.724182
9008.488356
8329.887372
7715.00759
7158.186532
6653.5574
6195.61339
5779.461583
5400.775462
5055.6573
4740.646962
4452.651617
4188.931428
3947.006627
3724.598826
3519.629858
3330.213265
3154.668273
2991.483174
2839.313996
2697.172987
2564.481186
2437.142305
15256.78534
15242.47579
15220.2922
15185.41211
15160.74014
15197.5262
15318.93278
15503.80679
15734.80148
15995.68044
16263.58948
16520.15067
16753.17372
16960.30537
17147.79795
17330.40637
17529.82346
17707.61374
17507.2516
16515.97576
15176.38365
13930.83883
12825.97223
11829.66504
10920.34823
10087.10951
9324.359307
8628.192014
7994.722173
7419.286463
6896.52772
6421.203794
5988.531266
5594.271048
5234.59699
4906.040704
4605.50128
4330.197195
4077.634307
3845.523477
3631.75154
3434.383834
3251.673285
3082.066551
2924.169273
2776.713927
2638.602797
2509.043056
2387.648618
2270.557168
15800.82839
15819.49945
15901.25927
15995.66014
16128.47052
16293.21207
16480.80396
16681.47673
16884.40269
17078.15253
17257.38536
17424.1482
17583.70782
17746.42617
17926.61875
18069.13342
17838.44593
16884.9447
15581.22022
14341.45889
13231.48088
12226.34649
11305.51186
10457.87543
9678.2647
8963.36586
8310.04534
7714.500019
7172.005239
6677.663857
6226.844658
5815.389068
5439.548376
5095.880915
4781.28885
4492.96363
4228.386218
3985.249927
3761.412209
3554.899315
3363.904181
3186.808958
3022.164988
2868.66193
2725.138049
2590.543519
2463.965867
2344.777824
2232.687574
2124.129922
17162.3052
17169.54692
17265.65959
17345.49023
17451.0721
17568.62852
17690.98836
17816.06543
17942.22987
18068.7643
18198.93806
18341.76823
18495.31234
18564.62397
18219.00456
17235.94647
15965.77742
14746.4272
13641.43441
12633.65281
11705.50066
10847.28764
10054.09747
9323.106665
8651.85377
8037.350839
7475.71731
6962.526487
6493.412356
6064.342924
5671.69072
5312.124389
4982.571586
4680.24411
4402.603032
4147.344321
3912.326621
3695.551168
3495.173629
3309.513203
3137.066478
2976.48202
2826.53438
2686.155326
2554.373121
2430.311266
2313.187803
2202.498188
2098.061985
1996.59855
18314.58877
18304.93229
18392.15508
18441.94608
18513.87919
18599.98505
18695.47339
18798.7608
18913.47695
19038.62932
19140.40723
19059.62868
18511.71223
17464.4127
16242.88007
15071.26968
13993.95817
13000.75807
12079.19694
11221.67824
10424.29819
9685.078056
9002.404611
8374.23386
7797.632148
7268.793201
6783.733378
6338.674897
5930.246989
5555.333627
5211.001821
4894.56195
4603.529528
4335.635312
4088.770705
3860.95165
3650.328027
3455.189335
3273.990885
3105.343969
2947.986735
2800.788501
2662.741753
2532.949027
2410.608365
2294.977611
2185.43275
2081.595851
1983.31795
1887.613329
19334.57606
19319.89069
19403.93017
19447.50786
19512.80759
19590.80539
19673.9084
19729.29826
19659.25515
19285.34919
18498.38837
17426.58819
16293.88873
15209.44596
14194.77659
13245.9744
12355.96192
11520.38537
10737.04941
10005.18163
9324.458302
8694.022617
8111.793736
7574.779689
7079.713645
6623.411387
6202.90418
5815.44228
5458.413907
5129.33756
4825.906705
4545.964834
4287.512555
4048.64909
3827.567716
3622.583167
3432.140385
3254.846183
3089.426581
2934.709457
2789.663361
2653.347339
2524.93542
2403.680917
2288.918051
2180.055289
2076.587085
1978.197698
1884.825018
1793.775276
20243.38107
20219.48976
20263.80577
20236.90946
20157.99303
19950.54908
19529.86792
18854.25022
17974.30074
17003.02065
16023.15927
15074.19057
14166.25454
13301.04543
12476.20909
11691.5344
10947.25079
10244.34561
9584.182849
8967.060808
8392.20912
7857.919711
7361.904845
6901.771822
6475.197502
6080.059397
5714.178507
5375.470429
5061.949263
4771.705471
4502.925481
4253.868423
4022.852409
3808.276776
3608.639026
3422.558343
3248.779474
3086.153221
2933.62781
2790.264225
2655.208852
2527.720609
2407.101877
2292.736957
2184.09656
2080.697494
1982.120014
1888.117285
1798.64518
1711.372856
19501.62448
19373.95423
19154.98676
18767.02262
18251.76348
17627.07624
16922.48421
16172.84127
15405.50187
14637.28898
13878.35378
13134.68922
12409.17921
11705.02564
11025.85359
10374.72897
9754.870003
9168.165239
8615.384322
8096.347478
7610.183822
7155.299684
6730.230488
6333.583911
5963.92548
5619.749479
5299.506392
5001.667699
4724.712277
4467.158311
4227.528749
4004.3717
3796.271351
3601.915708
3420.102766
3249.722018
3089.743527
2939.240254
2797.36639
2663.359723
2536.535461
2416.273965
2302.03415
2193.351508
2089.776419
1990.906882
1896.401795
1806.061245
1719.863551
1635.79247
16562.99967
16443.30519
16220.2654
15883.58751
15466.9327
14987.13009
14460.78714
13902.08524
13322.37557
12729.36229
12131.40791
11534.09046
10944.28043
10367.07739
9807.479155
9269.058117
8754.169967
8264.499257
7800.199059
7360.973567
6946.438962
6556.094802
6189.322509
5845.403213
5523.264973
5221.868893
4940.112134
4676.841743
4430.86039
4200.934769
3985.840585
3784.39876
3595.495277
3418.097275
3251.244523
3094.046462
2945.677764
2805.378173
2672.47883
2546.364426
2426.488616
2312.371914
2203.590551
2099.759374
2000.546579
1905.623495
1814.699354
1727.616957
1644.369956
1563.243348
14110.71495
14027.24445
13863.14683
13620.06438
13314.66257
12956.54234
12555.90291
12122.22167
11663.36992
11188.18719
10703.66746
10216.70521
9733.295833
9258.36085
8795.524496
8348.07767
7917.301561
7504.209581
7109.548178
6733.928303
6377.416474
6039.978317
5721.329663
5420.993504
5138.374019
4872.737853
4623.294502
4389.082379
4169.084404
3962.301392
3767.76355
3584.55722
3411.81539
3248.712265
3094.476974
2948.408998
2809.85445
2678.241459
2553.019135
2433.699667
2319.868816
2211.14954
2107.203059
2007.732098
1912.463408
1821.165249
1733.591795
1649.616559
1569.250299
1491.03869
12315.94361
12251.76176
12121.71901
11930.01246
11686.51757
11398.96209
11074.81596
10721.26528
10345.76117
9955.163429
9555.503394
9152.652688
8750.849605
8354.355977
7965.63505
7586.729415
7219.604985
6865.498354
6525.379685
6199.990078
5889.773084
5594.956046
5315.353438
5050.709219
4800.603678
4564.464963
4341.592208
4131.216273
3932.554543
3744.854101
3567.345688
3399.304749
3240.032179
3088.886549
2945.264262
2808.610109
2678.418529
2554.22381
2435.621544
2322.269088
2213.8039
2109.939172
2010.415194
1914.997106
1823.474946
1735.662717
1651.387996
1570.541395
1493.137823
1417.926983
10953.93404
10901.01603
10792.38758
10632.79927
10429.93205
10189.76542
9918.589187
9622.450189
9307.382743
8978.954256
8642.021311
8300.904282
7959.211447
7619.616374
7285.063859
6957.378658
6638.309828
6329.379243
6031.72504
5745.931424
5472.457988
5211.531481
4963.172975
4727.276611
4503.398215
4291.028571
4089.599187
3898.517347
3717.185278
3545.008703
3381.402401
3225.801692
3077.658125
2936.44728
2801.706083
2672.997359
2549.926385
2432.147219
2319.353686
2211.264397
2107.640519
2008.231431
1912.840346
1821.287164
1733.408691
1649.057363
1568.116907
1490.480031
1416.169566
1344.10467
9890.704437
9845.679186
9752.839447
9616.471554
9442.951205
9237.656058
9005.488776
8751.553416
8481.104766
8197.928789
7906.69392
7610.228215
7312.114612
7014.869427
6720.77437
6432.145879
6150.404232
5876.802479
5612.311654
5357.77119
5113.493692
4879.698464
4656.388339
4443.373702
4240.357194
4046.954446
3862.693762
3687.131326
3519.80319
3360.234553
3207.958039
3062.534376
2923.541111
2790.596666
2663.30196
2541.331939
2424.395909
2312.22553
2204.57652
2101.241099
2002.048049
1906.802592
1815.344761
1727.538183
1643.25431
1562.381676
1484.815344
1410.474095
1339.389738
1270.592799
9039.258253
9000.110246
8919.399524
8800.637519
8649.663225
8470.450341
8267.375537
8045.127877
7807.252601
7557.817079
7300.115901
7037.491008
6772.502093
6508.058174
6245.936086
5987.936868
5735.718379
5490.245645
5252.398682
5022.795994
4801.933954
4589.878666
4386.576731
4191.873366
4005.541039
3827.298952
3656.871841
3493.861354
3337.890977
3188.599174
3045.623585
2908.614858
2777.249675
2651.225152
2530.271906
2414.127438
2302.561794
2195.370767
2092.374447
1993.408605
1898.349812
1807.052101
1719.385713
1635.243245
1554.52006
1477.1165
1402.953117
1331.96539
1264.17664
1198.696374
8338.515928
8303.81454
8232.566313
8127.381946
7993.189196
7833.715013
7652.975114
7454.526121
7241.800471
7018.530534
6787.430424
6551.707808
6313.625294
6075.437659
5839.137443
5606.134051
5377.767054
5155.190543
4939.046686
4729.849927
4527.891746
4333.363525
4146.198803
3966.300492
3793.526103
3627.675384
3468.507153
3315.774531
3169.16808
3028.396174
2893.185442
2763.266703
2638.386794
2518.323268
2402.90345
2291.902161
2185.147434
2082.486217
1983.780038
1888.905885
1797.772551
1710.267882
1626.286803
1545.735578
1468.517912
1394.569987
1323.808423
1256.174551
1191.686582
1129.529338
7744.670993
7713.434625
7649.454286
7554.671881
7433.812786
7290.238029
7127.354402
6948.192415
6756.264121
6554.386134
6345.458739
6131.881012
5916.04812
5699.71024
5484.750255
5272.510458
5064.080733
4860.418861
4662.188427
4469.73856
4283.331917
4103.123453
3929.223939
3761.546754
3600.000149
3444.435759
3294.672126
3150.528049
3011.806221
2878.267537
2749.697003
2625.899164
2506.696002
2391.923844
2281.439146
2175.098972
2072.758048
1974.302845
1879.629515
1788.643749
1701.28317
1617.451331
1537.05415
1460.008811
1386.241827
1315.709287
1248.301074
1183.972714
1122.73736
1063.83072
7228.935943
7200.478538
7142.633592
7056.681862
6947.11479
6817.043198
6669.135068
6506.431369
6332.049536
6148.321139
5958.09494
5763.291511
5566.206318
5368.437095
5171.499771
4976.785023
4785.141894
4597.324605
4413.9847
4235.462771
4062.023856
3893.851276
3731.061102
3573.679485
3421.608408
3274.763546
3133.026821
2996.255048
2864.334656
2737.082018
2614.344732
2495.988934
2381.882766
2271.896939
2165.94626
2063.920197
1965.709547
1871.227857
1780.396856
1693.143772
1609.437486
1529.163614
1452.252778
1378.637177
1308.260102
1241.055046
1176.925891
1115.81792
1057.742673
1001.977681
6774.346832
6748.311249
6695.854528
6617.562003
6517.862728
6399.189626
6264.196662
6115.742106
5956.300927
5788.265091
5613.988325
5435.414749
5254.395619
5072.557113
4891.112655
4711.257227
4533.797779
4359.388849
4188.60471
4021.892918
3859.493675
3701.601075
3548.330053
3399.768867
3255.870157
3116.581836
2981.834062
2851.540234
2725.616302
2603.972196
2486.493174
2373.079585
2263.637416
2158.086504
2056.370157
1958.406575
1864.113498
1773.428758
1686.289904
1602.657554
1522.471868
1445.652515
1372.138294
1301.864351
1234.789481
1170.819958
1109.862401
1051.857989
996.8419436
944.079065
6369.553369
6345.612173
6297.847875
6226.225304
6134.933944
6026.186614
5902.42587
5766.294915
5619.869225
5465.503745
5305.129723
5140.658244
4973.590416
4805.471173
4637.300403
4470.112629
4304.767179
4141.841353
3981.872213
3825.352388
3672.499596
3523.514632
3378.531136
3237.671618
3100.941968
2968.323154
2839.782708
2715.27565
2594.775188
2478.24061
2365.57771
2256.727108
2151.633702
2050.242186
1952.538294
1858.439982
1767.898003
1680.864434
1597.29454
1517.161086
1440.392611
1366.933129
1296.71901
1229.698872
1165.818956
1104.971306
1047.065027
992.0629759
939.9550664
890.0519743
6006.064251
5983.95446
5940.321196
5874.508092
5790.563019
5690.570511
5576.768457
5451.395093
5316.408679
5174.001718
5025.779471
4873.545634
4718.546998
4562.180175
4405.407765
4249.153213
4094.285551
3941.336945
3790.813116
3643.169838
3498.662609
3357.498663
3219.83556
3085.80087
2955.464427
2828.818987
2705.878078
2586.642463
2471.126313
2359.298341
2251.110737
2146.533843
2045.53629
1948.101616
1854.218998
1763.829391
1676.900396
1593.395064
1513.281313
1436.533802
1363.088754
1292.888083
1225.872012
1162.0174
1101.210692
1043.364106
988.3952114
936.2625353
886.9185479
839.7259292
5677.677183
5657.185996
5617.222268
5556.486394
5479.067721
5386.809137
5281.775449
5165.886757
5040.970099
4908.963424
4771.280101
4629.586785
4485.005514
4338.803663
4191.940599
4045.246868
3899.548033
3755.348382
3613.12482
3473.305719
3336.194767
3201.985503
3070.851877
2942.954273
2818.376966
2697.159059
2579.347871
2464.972719
2354.071298
2246.636548
2142.651387
2042.110761
1945.008667
1851.36314
1761.146304
1674.330934
1590.890102
1510.790347
1434.043874
1360.583298
1290.359076
1223.314951
1159.423956
1098.59777
1040.747991
985.7830773
933.6401983
884.2277876
837.5074293
792.8900062
3447.064122
3314.2333
3183.728098
3055.758556
2930.514895
2808.178949
2688.864258
2572.638774
2459.568389
2349.699717
2243.125572
2139.822007
2039.812327
1943.111925
1849.742739
1759.731945
1673.049485
1589.682114
1509.6088
1432.840646
1359.345464
1289.070227
1221.965673
1157.998988
1097.105184
1039.195821
984.1837909
931.9971437
882.5345428
835.7069552
791.4777258
749.304428
)
;

boundaryField
{
    front_top
    {
        type            wedge;
    }
    front_middle
    {
        type            wedge;
    }
    front_bottom
    {
        type            wedge;
    }
    back_top
    {
        type            wedge;
    }
    back_middle
    {
        type            wedge;
    }
    back_bottom
    {
        type            wedge;
    }
    axis_top
    {
        type            symmetryPlane;
    }
    axis_middle
    {
        type            symmetryPlane;
    }
    axis_bottom
    {
        type            symmetryPlane;
    }
    wall_top
    {
        type            calculated;
        value           nonuniform List<scalar> 
23
(
2558.366363
2374.454977
2212.711535
2070.363209
1946.213965
1840.011222
1748.476272
1667.986107
1594.061287
1523.033309
1452.334536
1380.780003
1308.581568
1236.744493
1166.542676
1099.040576
1034.967386
974.6801962
918.2926254
865.7020835
816.7338621
771.1678349
728.7767848
)
;
    }
    wall_middle
    {
        type            calculated;
        value           nonuniform 0();
    }
    wall_bottom
    {
        type            calculated;
        value           nonuniform 0();
    }
    inlet
    {
        type            calculated;
        value           nonuniform 0();
    }
    outlet
    {
        type            calculated;
        value           nonuniform 0();
    }
    procBoundary10to9
    {
        type            processor;
        value           nonuniform List<scalar> 
51
(
5379.669822
5360.606937
5323.82686
5267.60334
5195.95189
5110.494325
5013.121236
4905.495658
4789.325444
4666.297325
4537.760804
4405.197991
4269.701142
4132.415866
3994.271218
3856.008116
3718.397453
3581.929917
3581.929917
3291.280838
3164.718488
3040.167367
2917.841623
2797.95295
2680.725495
2566.263785
2454.657624
2345.993119
2240.370446
2137.852867
2038.461488
1942.235235
1849.20951
1759.440649
1672.922227
1589.648213
1509.611975
1432.824826
1359.285429
1288.940848
1221.751255
1157.679968
1096.682514
1038.671012
983.5627708
931.2841302
881.7451712
834.8292292
790.453046
748.6042219
708.7241201
)
;
    }
    procBoundary10to11
    {
        type            processor;
        value           nonuniform List<scalar> 
51
(
18095.8508
18085.62241
18094.96667
18087.312
18080.48047
18072.76674
18059.25877
18031.64573
17980.59277
17896.29874
17776.34307
17672.19404
17594.2763
17368.03716
16896.97823
16283.51837
15819.16882
15776.1471
16021.8284
16319.19384
16588.63558
16816.57171
17010.09845
17195.52501
17407.96688
17464.51226
16639.58568
15154.70261
13765.65278
12567.77382
11509.12371
10559.11994
9702.913565
8931.649266
7243.188344
7243.188344
6721.534641
6250.217554
5823.583196
5436.701621
5085.186575
4765.181317
4473.283755
4206.509124
3962.187808
3737.890092
3531.40391
3340.750524
3164.371642
3001.217361
2846.663033
)
;
    }
}


// ************************************************************************* //
