/*--------------------------------*- C++ -*----------------------------------*\
  =========                 |
  \\      /  F ield         | OpenFOAM: The Open Source CFD Toolbox
   \\    /   O peration     | Website:  https://openfoam.org
    \\  /    A nd           | Version:  7
     \\/     M anipulation  |
\*---------------------------------------------------------------------------*/
FoamFile
{
    version     2.0;
    format      ascii;
    class       volVectorField;
    location    "0.0006";
    object      grad(generalizedNewtonian:nu);
}
// * * * * * * * * * * * * * * * * * * * * * * * * * * * * * * * * * * * * * //

dimensions      [0 1 -1 0 0 0 0];

internalField   nonuniform List<vector> 
1166
(
(-688318.5357 0 -127571.5147)
(-835986.5233 0 37996.99604)
(-1527634.724 0 373876.9691)
(-2609309.115 0 912409.8205)
(-3617236.43 0 1554384.846)
(-4928534.844 0 2170461.188)
(-6588691.138 0 2853034.108)
(-7614971.548 0 3766374.107)
(-7238928.937 0 4922716.403)
(-8801002.731 0 6209095.418)
(-15028464.95 0 7421248.181)
(-22538956.18 0 8261846.911)
(-26389792.55 0 8128484.553)
(-21232443.64 0 6473317.806)
(-5822911.318 0 3511037.831)
(9226796.826 0 -4117.577869)
(15207949.38 0 -2820038.432)
(15207781.59 0 -3855765.675)
(13597734.26 0 -3652562.492)
(11803344.56 0 -3205508.83)
(10756537.88 0 -2944619.892)
(11346918.1 0 -2698385.126)
(9894826.142 9.737110326e-08 -431806.4049)
(-14233800.15 0 5199710.269)
(-61745495.78 0 11526231.21)
(-88859937.45 0 16537123.46)
(-85093034.17 0 17552657.39)
(-75732910.08 0 15589646.35)
(-68597825.53 0 13645374.61)
(-62941112.27 0 12124913.15)
(-57960537.88 0 10851096.18)
(-53334511.72 0 9726296.203)
(-48990377.2 0 8715998.777)
(-44956875.51 0 7811661.304)
(-1587389.096 0 8649445.508)
(-2783008.266 0 8687616.048)
(-4793548.296 0 8822560.003)
(-6727655.244 -3.759817009e-07 8991666.776)
(-7225140.577 0 9249314.63)
(-7790541.255 0 9568658.227)
(-10140226.98 0 9850947.812)
(-13920964.37 -1.960955909e-07 10001638.06)
(-17628009.68 0 9940175.493)
(-19858215.28 -1.636536383e-07 9341678.055)
(-17955444.96 0 7744470.076)
(-8889572.818 -1.428995899e-07 5126115.241)
(3672008.44 0 1902961.722)
(12144860.16 -1.286558715e-07 -1332268.907)
(14925511.84 0 -3560312.947)
(14608993.88 0 -4159751.517)
(13105943.3 0 -3857077.503)
(11458081.13 1.108286605e-07 -3439753.79)
(10481948.17 1.077630226e-07 -3204027.499)
(10916357.85 0 -3034991.631)
(10566401.85 0 -1254606.635)
(-6796881.389 0 3857950.268)
(-49534832.01 0 10148198)
(-81404022.58 0 15549479.27)
(-82485957.61 0 17581070.08)
(-73973711.86 0 16001590.89)
(-66987420.09 0 13979230.26)
(-61573640.01 0 12387073.64)
(-56905849.83 0 11079334.01)
(-52587745.83 0 9936385.765)
(-48493850.29 0 8909987.732)
(-44629593.11 0 7986219.54)
(-41057683.71 0 7161606.534)
(-37812665.56 0 6432378)
(-34879777.1 0 5790409.728)
(-32226979.35 0 5224911.029)
(-29823785.22 0 4725731.61)
(-27647042.03 0 4284197.634)
(-25674866.48 0 3893042.263)
(-23886284.76 0 3545754.436)
(-22263051.07 0 3236889.578)
(-20791039.5 0 2962006.909)
(-19460361.45 -1.125356166e-08 2717521.75)
(-18262158.97 0 2500335.741)
(-17187424.78 0 2307484.83)
(-16225031.2 1.139094083e-08 2136197.427)
(-15354319.42 -1.144786074e-08 1983963.279)
(-14542186.32 0 1848525.434)
(-13947961.11 0 1728020.736)
(-13685382.21 0 1620357.125)
(-991018.1206 0 11548817.83)
(-1864918.612 0 11395034.15)
(-3181341.303 0 11176106.62)
(-4973565.101 0 10731422.4)
(-6802463.572 0 10139738.36)
(-8254932.477 0 9317867.319)
(-9017377.772 0 8059507.44)
(-8157943.293 0 6251490.681)
(-3434554.686 0 3920555.575)
(4229322.58 0 1217191.123)
(10502966.27 0 -1573696.412)
(13579755.55 0 -3883846.7)
(14375599.2 -1.372629375e-07 -5012514.346)
(13815142.55 0 -5074621.981)
(12501095.61 0 -4679072.728)
(11101981.64 0 -4240610.827)
(10313895.58 0 -3983970.295)
(10707962.75 0 -3791908.686)
(10736059.91 0 -2192499.179)
(-2343251.101 0 2563090.834)
(-39738914.33 0 8780164.668)
(-73302930.55 0 14414734.09)
(-78814874.95 0 17276344.06)
(-71693590.73 0 16252558.02)
(-65027869.56 0 14242610.85)
(-59908370.33 0 12605477.59)
(-55584066.74 0 11281662.24)
(-51610655.85 0 10136878.14)
(-47822848.13 -4.669962399e-08 9108955.305)
(-44202112.98 0 8177496.094)
(-40796567.6 0 7338726.459)
(-37656077 2.292064607e-08 6591978.666)
(-34793609.88 0 5932575.641)
(-32192506.35 0 5350844.721)
(-29826606.46 0 4836756.361)
(-27674268.06 0 4381539.607)
(-25716562.92 0 3977861.112)
(-23935099.83 0 3619324.069)
(-22313006.76 0 3300247.302)
(-20836174.08 0 3015981.382)
(-19495379.53 0 2762739.762)
(-18282870.74 0 2537406.867)
(-17190402.81 0 2337127.678)
(-16208537.65 0 2159130.098)
(-15327890.5 0 2000824.335)
(-14539826.58 -1.156833907e-08 1859896.839)
(-13825894.22 1.162614544e-08 1734264.596)
(-13154575.8 0 1622117.273)
(-12683419.01 5.878859142e-09 1521818.247)
(-12515359.99 5.915608533e-09 1431347.112)
(-432105.9038 0 2141479.937)
(-790702.6694 0 1930778.894)
(-1218272.609 0 1378394.175)
(-1233594.229 0 603338.4496)
(364933.84 0 -499439.0934)
(3580504.957 0 -1891758.212)
(6900199.428 0 -3463481.985)
(9485467.4 0 -5109637.141)
(11397217.98 0 -6565218.727)
(12455317.44 0 -7342090.349)
(12568725.74 0 -7367276.377)
(11943075.65 0 -6972464.593)
(10936794.08 0 -6431630.56)
(9994147.725 0 -5930410.051)
(9560759.569 0 -5607687.591)
(10071030.54 0 -5270856.564)
(10103642.23 0 -3509252.05)
(-879807.3547 0 1184490.289)
(-33721783.92 0 7362995.29)
(-66364963.99 0 13139473.09)
(-74668610.43 0 16591570.85)
(-69135559.74 0 16187617.29)
(-62983758.77 0 14309218.6)
(-58208697.54 0 12678933.7)
(-54235360.17 0 11371693.96)
(-50611400.48 0 10251724.06)
(-47137177.54 0 9246126.397)
(-43770365.31 0 8328088.542)
(-40547027.65 0 7492798.058)
(-37529462.02 0 6741115.778)
(-34752716.61 0 6071851.59)
(-32213354.61 0 5478843.758)
(-29891719.59 0 4953445.13)
(-27767906.28 0 4487238.061)
(-25826920.88 0 4072903.452)
(-24053844.34 0 3704249.313)
(-22433710.59 0 3375652.89)
(-20953177.68 0 3082410.796)
(-19602176.87 0 2820650.57)
(-18374091.35 0 2587248.358)
(-17262577.3 0 2379459.244)
(-16260008.9 0 2194586.926)
(-15357237.47 0 2030062.002)
(-14545455.51 0 1883534.874)
(-13817973.73 0 1752887.872)
(-13166828.01 0 1636235.856)
(-12574821.75 0 1531818.821)
(-12011954.68 0 1438165.76)
(-11632938.11 0 1354107.293)
(-11528506.38 0 1277472.847)
(563810.5351 0 -7928085.652)
(2339844.179 0 -8016032.451)
(3686765.757 0 -8503717.985)
(4869422.965 0 -8974796.356)
(6439667.245 -3.149366689e-07 -9509020.408)
(7734006.603 0 -9838350.812)
(8661229.217 0 -9838093.055)
(9156837.516 2.054007675e-07 -9587196.08)
(9156466.725 -1.863413034e-07 -9150921.179)
(8766459.302 -1.714193713e-07 -8593812.564)
(8287108.116 0 -8023915.224)
(7967730.365 0 -7554400.775)
(8025997.547 0 -7226975.137)
(8711648.472 0 -6653887.157)
(8311109.655 0 -4426540.991)
(-2595400.967 0 442076.5105)
(-32282655.15 0 6555746.49)
(-61938016.41 -1.160877295e-07 12321740.73)
(-70785994.35 -1.128766202e-07 16031382.51)
(-66581573.16 -5.503642584e-08 16084434.63)
(-61074220.35 0 14379788.4)
(-56670921.37 0 12776579.28)
(-53022415.75 0 11485912.34)
(-49709418.6 0 10386712.76)
(-46515504.49 0 9400182.812)
(-43387744.68 0 8493694.49)
(-40349992.92 0 7660263.477)
(-37463552.33 2.428793244e-08 6902073.862)
(-34776762.64 0 6221080.079)
(-32300820.59 0 5614628.887)
(-30024940.56 -2.376127377e-08 5075538.627)
(-27932056.78 -2.364011987e-08 4595893.73)
(-26009326.4 0 4168610.129)
(-24244823.28 0 3787675.84)
(-22626020.17 0 3447758.374)
(-21141092.09 0 3144034.308)
(-19780005.04 0 2872531.064)
(-18536593.13 2.335680579e-08 2630007.998)
(-17405645.09 0 2413772.183)
(-16381164.39 -1.170075375e-08 2221301.644)
(-15455551.74 0 2050067.911)
(-14620293.98 0 1897654.038)
(-13868219.63 0 1761899.344)
(-13192282.84 0 1640792.181)
(-12585929.5 0 1532581.362)
(-12042403.53 0 1435646.792)
(-11546046.3 0 1348680.828)
(-11070446.24 6.028122004e-09 1270489.379)
(-10763128.35 0 1200219.093)
(-10701990.66 0 1135458.276)
(218678.4284 0 -10579707.64)
(2502649.708 0 -10460230.34)
(3601493.353 0 -10482480.94)
(3961850.899 0 -10294106.39)
(4808746.854 3.19841369e-07 -10037517.4)
(5250729.004 0 -9706861.001)
(5512537.089 0 -9320222.027)
(5699799.207 2.085995984e-07 -8911841.686)
(5839569.928 0 -8542477.952)
(6046844.062 0 -8255727.05)
(6559358.701 0 -7930203.79)
(7251369.271 0 -6881204.18)
(5479036.533 1.437763699e-07 -3879091.392)
(-7335013.787 -2.737191897e-07 1250104.096)
(-34820040.32 -1.30990778e-07 7164757.851)
(-59537925.7 0 12668606.99)
(-66748245.11 0 16194000.55)
(-63449515.34 0 16345179.67)
(-58769192.17 0 14736224.99)
(-54874294.31 0 13129097.68)
(-51593790.71 0 11814275.92)
(-48596613.9 0 10695306.63)
(-45698660.39 1.051930711e-07 9692865.834)
(-42835269.77 0 8769052.367)
(-40017525.29 0 7914541.003)
(-37296623.79 -5.037692207e-08 7131442.986)
(-34727622.21 2.490855617e-08 6423317.366)
(-32337902.21 0 5790016.028)
(-30127203.45 0 5225816.45)
(-28083165.9 0 4723215.94)
(-26193476.28 0 4275072.618)
(-24449588.1 0 3875206.133)
(-22842313.24 0 3518295.167)
(-21361799.23 -1.191628988e-08 3199406.527)
(-19998941.96 0 2914378.3)
(-18746980.1 -1.187004366e-08 2659744.184)
(-17601910.72 1.186087405e-08 2432689.909)
(-16559459.02 -1.186027776e-08 2230705.31)
(-15613917.05 0 2051272.517)
(-14757943.6 0 1891927.686)
(-13983915.93 0 1750376.73)
(-13285616.5 -1.193496952e-08 1624569.459)
(-12655892.38 0 1512648.199)
(-12088235.59 0 1412876.477)
(-11578245.64 0 1323739.772)
(-11121128.17 0 1243943.626)
(-10702904.99 0 1172272.329)
(-10297515.19 0 1107675.676)
(-10043927.41 0 1049554.671)
(-10015772.76 0 995468.5396)
(-291597.2713 0 -9286458.085)
(1997568.263 0 -9193067.882)
(2735501.127 0 -9141619.314)
(2611995.184 0 -8987352.363)
(3415544.519 0 -8815957.949)
(3982661.348 0 -8647536.58)
(4435604.619 0 -8480113.35)
(4957774.596 2.118482477e-07 -8181197.495)
(5553658.706 0 -7336287.929)
(5319545.5 0 -5179451.288)
(337207.494 0 -1228423.324)
(-15765347.21 0 3991926.801)
(-40124383.26 0 9489351.053)
(-57685780.93 0 14388300.17)
(-61807773.94 0 17214052.9)
(-59144728.98 0 17053945.76)
(-55484104.65 0 15428194.96)
(-52284509.7 0 13789054.71)
(-49499216.06 0 12414818.28)
(-46913609.8 0 11235544.75)
(-44381391.01 0 10177754.99)
(-41842364.98 0 9203885.752)
(-39301660.11 0 8301934.511)
(-36802830.93 0 7472678.885)
(-34406086.6 5.181459802e-08 6719558.907)
(-32152997.28 0 6043366.438)
(-30053346.59 2.529647238e-08 5440164.624)
(-28098161.33 0 4902768.597)
(-26275982.47 2.483870913e-08 4423683.28)
(-24581717.63 0 3996286.499)
(-23009860.16 0 3614930.845)
(-21553438.85 0 3274595.068)
(-20205631.05 1.21408189e-08 2970693.53)
(-18960485.72 0 2699435.686)
(-17814719.99 0 2457694.122)
(-16765537.03 0 2242823.079)
(-15809094.81 0 2052314.821)
(-14939742.67 0 1883578.333)
(-14150535.3 0 1734175.162)
(-13435406.62 0 1601932.168)
(-12788655.97 1.209089353e-08 1484831.143)
(-12204136.47 0 1381117.485)
(-11675993.91 1.215757737e-08 1289083.821)
(-11199009.2 0 1207355.554)
(-10769719.37 0 1134625.216)
(-10383168.97 0 1069673.463)
(-10025113.16 6.183742397e-09 1011319.384)
(-9674918.948 0 958757.5867)
(-9462752.822 0 911480.167)
(-9455026.77 0 866977.1542)
(-443454.6886 0 -8374211.818)
(1833938.607 0 -8312240.949)
(2532266.356 -5.617400811e-07 -8124643.755)
(2340361.899 0 -7789386.464)
(3096691.252 0 -7129535.655)
(3528530.971 0 -5845158.752)
(3048110.231 0 -3586621.735)
(-476263.4077 0 -180426.7019)
(-10577313.96 0 4161005.09)
(-27730430.29 -3.591072084e-07 8926792.111)
(-44840862.08 0 13601670.1)
(-53921141.08 0 17335376.62)
(-55158155.83 0 18871995.63)
(-53188850.01 0 18072459.38)
(-50691754.34 0 16349932.49)
(-48372694.45 0 14671199.79)
(-46252280.24 -6.273083734e-08 13226047.82)
(-44211848.92 0 11965954.09)
(-42159500.84 0 10831043.77)
(-40044719.49 0 9787217.698)
(-37869574.43 5.636272865e-08 8821000.733)
(-35685350.65 0 7931283.431)
(-33557924.13 0 7120986.853)
(-31528910.85 0 6391573.715)
(-29612153.68 0 5740349.315)
(-27806869.71 0 5159985.171)
(-26107594.94 0 4642650.163)
(-24510763.42 0 4181001.07)
(-23015188.14 0 3769026.999)
(-21618025.46 2.504255981e-08 3401489.535)
(-20315309.79 -2.48887994e-08 3073530.821)
(-19103134.84 0 2781033.789)
(-17978956.57 -1.232989551e-08 2520517.879)
(-16942095.68 0 2289081.326)
(-15990720.53 0 2084091.386)
(-15121270.71 -1.22426417e-08 1902927.63)
(-14328114.45 0 1743006.002)
(-13605475.7 0 1601890.892)
(-12949364.74 0 1477442.882)
(-12354395.96 0 1367708.131)
(-11815147.7 1.227919262e-08 1270915.165)
(-11326689.73 -1.230960557e-08 1185371.382)
(-10884110.38 6.173457482e-09 1109732.488)
(-10483491.78 0 1042775.276)
(-10120740.89 0 983315.3574)
(-9791106.03 0 930229.3073)
(-9483892.877 0 882630.959)
(-9179518.856 0 839950.6558)
(-8996478.828 0 801735.3263)
(-8996370.465 -6.390818377e-09 765138.0702)
(-721446.709 0 -680637.0306)
(694844.4061 0 -179007.0945)
(162219.3085 0 1165257.382)
(-2339553.014 0 3078808.394)
(-6364510.149 3.350185581e-07 5649765.606)
(-14038503.61 0 8753989.395)
(-24733963.32 0 12221228.44)
(-35517128.04 0 15750050.43)
(-42872705.29 0 18794567.39)
(-45941202.05 0 20506678.11)
(-46233549.47 -1.696231201e-07 20368944.64)
(-45339521.02 0 18918639.75)
(-44108983.8 0 17123861.36)
(-42836051.73 0 15448287.02)
(-41563894.94 0 13969824.15)
(-40227702.61 6.597342451e-08 12657731.06)
(-38793153.78 0 11466737.92)
(-37225700.45 0 10369459.36)
(-35539805.27 6.003709043e-08 9352957.72)
(-33791157.49 5.854581523e-08 8414671.443)
(-32036084.76 0 7557002.459)
(-30320727.02 0 6783168.29)
(-28669645.17 0 6090415.343)
(-27089498.69 0 5471673.472)
(-25577781.66 0 4918861.541)
(-24135849.11 0 4424590.393)
(-22768125.9 0 3982604.94)
(-21474169.44 0 3587521.762)
(-20253930.73 0 3234535.177)
(-19107219.03 0 2919240.219)
(-18033787.94 1.26382039e-08 2637983.147)
(-17034485.46 0 2387660.032)
(-16109702.45 1.252191647e-08 2165698.3)
(-15258229.36 0 1969501.049)
(-14477053.79 0 1796400.853)
(-13761716.36 0 1643863.441)
(-13107869.42 1.242369908e-08 1509574.919)
(-12511783.3 0 1391479.718)
(-11969007.45 0 1287689.611)
(-11475135.18 0 1196398.308)
(-11025269.77 -6.235211976e-09 1116076.91)
(-10615880.39 0 1045310.671)
(-10244325.65 0 982841.9382)
(-9905778.8 0 927425.2526)
(-9596605.992 0 878109.0123)
(-9313838.148 6.34613737e-09 834058.0679)
(-9048188.948 0 794547.2553)
(-8782991.387 6.412504295e-09 759066.3777)
(-8621949.121 -6.450026658e-09 727436.9425)
(-8619841.893 6.490346478e-09 696671.8431)
(-3855262.909 0 16564030.35)
(-7575921.063 0 16989356.93)
(-13052419 0 18178129.35)
(-19303756.84 0 19551666.81)
(-24648864.71 0 21046206.14)
(-29169603.8 0 22246905.74)
(-32435371.57 0 22704269.32)
(-34427843.19 0 22171318.65)
(-35483342.05 0 20823657.48)
(-35942375.05 0 19129999.45)
(-36024940.43 0 17421143.93)
(-35884759.02 0 15847798.89)
(-35575243.45 0 14424222.46)
(-35068247.43 0 13135145.48)
(-34357385.65 0 11947790.78)
(-33441946.58 1.340017377e-07 10845304.23)
(-32343948.28 0 9818293.674)
(-31120873.69 0 8863673.801)
(-29824402.02 0 7986870.343)
(-28498189.44 0 7190532.311)
(-27182986.04 0 6472907.638)
(-25897920.35 0 5828552.304)
(-24640301.42 0 5249987.739)
(-23412397.92 0 4729726.563)
(-22220960.85 0 4262181.651)
(-21073165.46 0 3842503.745)
(-19973610.8 -2.649684654e-08 3465878.003)
(-18925480.1 0 3128137.797)
(-17931416.5 0 2825755.255)
(-16994252.63 0 2555707.072)
(-16117346.16 0 2315356.206)
(-15303052.33 -1.276958316e-08 2102186.409)
(-14550868.13 0 1913652.408)
(-13857409.2 0 1747210.793)
(-13219356.42 0 1600434.258)
(-12634112.32 0 1471128.209)
(-12098278.96 0 1357367.323)
(-11608071.54 0 1257411.064)
(-11160061.81 0 1169544.985)
(-10750611.37 0 1092319.931)
(-10376480.37 1.266463346e-08 1024360.397)
(-10034023.54 0 964493.7883)
(-9718744.162 -6.367240797e-09 911494.6369)
(-9428593.552 0 864332.5758)
(-9162548.562 0 822121.5691)
(-8917336.282 0 784169.6376)
(-8684935.168 0 749899.9464)
(-8451076.999 0 718911.0755)
(-8306048.81 0 691034.0263)
(-8297245.833 0 663510.3115)
(-3614418.222 -2.792175223e-06 24510117.3)
(-7542319.436 0 24308027.08)
(-11919180.42 -5.88395903e-07 24056168.55)
(-16045143.94 0 23395507.74)
(-19344816.43 0 22440267.71)
(-22058526.75 0 21228273.89)
(-24199324.82 0 19847217.05)
(-25845062.78 2.253567229e-07 18411992.18)
(-27112389.08 2.044455141e-07 17010802.18)
(-28042006.92 0 15679609.12)
(-28667225.25 0 14432762.67)
(-29001900.01 0 13266100.23)
(-29043503.58 0 12165636.3)
(-28820988.71 -7.392686764e-08 11123620)
(-28359885.54 0 10140151.67)
(-27716272.2 0 9214235.389)
(-26930572.57 0 8354691.591)
(-26056324.36 0 7565518.383)
(-25143798.7 0 6846778.736)
(-24206893.99 0 6194839.112)
(-23251305.31 0 5605435.873)
(-22284050.65 0 5071496.667)
(-21312188.49 0 4587668.949)
(-20350662.67 0 4149803.446)
(-19410955.76 -2.755927447e-08 3754080.52)
(-18496517.69 0 3396991.803)
(-17613598 0 3075088.71)
(-16768197.71 0 2785798.328)
(-15966200.62 0 2526832.434)
(-15211980.68 0 2295995.702)
(-14507302.67 0 2090980.167)
(-13851960.22 -1.29684519e-08 1909337.274)
(-13244305.97 1.29149766e-08 1748572.053)
(-12682178.41 0 1606474.96)
(-12163558.63 0 1481086.293)
(-11686443.54 0 1370541.763)
(-11248745.44 -1.281367619e-08 1273131.601)
(-10847058.82 0 1187239.14)
(-10478129.27 6.410570904e-09 1111524.648)
(-10139256.92 -6.418777188e-09 1044740.349)
(-9826907.878 6.430933872e-09 985655.5168)
(-9537778.633 0 933167.7427)
(-9269484.064 6.466401833e-09 886357.7107)
(-9019483.924 0 844464.2672)
(-8786641.237 0 806687.0493)
(-8570341.785 0 772250.5812)
(-8363711.271 6.578047905e-09 740721.5774)
(-8153958.956 -6.613791357e-09 711766.3907)
(-8018426.257 0 685237.3634)
(-8000688.163 6.694076989e-09 658579.347)
(-2520561.653 0 19600437.44)
(-5471700.737 0 19344540.86)
(-8660606.697 0 18915728.05)
(-11690711.34 0 18247381.97)
(-14328474.99 0 17449042.5)
(-16645673.47 0 16562571.99)
(-18617937.34 0 15630059.92)
(-20272926.52 0 14683742.53)
(-21600126.51 0 13741531.2)
(-22601946.99 9.550140543e-08 12807438.59)
(-23302581.17 0 11892221.56)
(-23708713.41 0 10994607.1)
(-23851898.73 0 10126788.96)
(-23776948.5 0 9292655.213)
(-23512638.73 0 8503909.47)
(-23111301.32 0 7767654.824)
(-22625211.89 0 7085629.485)
(-22064727 0 6459871.347)
(-21437389.41 0 5886618.161)
(-20759708.1 0 5361106.544)
(-20047968.12 0 4879516.169)
(-19311523.84 0 4438491.532)
(-18563104.93 0 4036040.101)
(-17812424.64 0 3670024.068)
(-17068275.04 -2.798847165e-08 3337440.465)
(-16338075.05 0 3036136.408)
(-15630977.96 0 2764262.497)
(-14956574.15 0 2520045.256)
(-14318796.14 1.341702016e-08 2301566.51)
(-13718920.76 0 2106606.15)
(-13156881.44 0 1933063.569)
(-12631917.17 0 1778841.321)
(-12143647.05 0 1642025.092)
(-11691248.28 0 1520807.053)
(-11272646.87 0 1413540.12)
(-10885862.43 0 1318676.387)
(-10528187.26 -1.301323129e-08 1234739.156)
(-10197707.81 0 1160370.398)
(-9892992.169 0 1094347.178)
(-9610283.761 0 1035408.986)
(-9346594.042 0 982709.4121)
(-9100138.884 0 935358.6103)
(-8868760.647 0 892598.7391)
(-8650739.447 0 853736.2627)
(-8444162.286 0 818208.0324)
(-8248741.682 0 785356.6377)
(-8060354.396 0 754634.2367)
(-7867367.988 0 725820.4041)
(-7735627.925 0 698817.3771)
(-7707102.212 0 671479.9684)
(-1938101.404 0 14797664.42)
(-4303020.518 0 14654586.22)
(-6841426.102 0 14394752.64)
(-9281062.3 0 14003650.4)
(-11470995.58 1.781904849e-07 13523273.12)
(-13422873.02 0 12970610.16)
(-15126136.94 0 12363950.41)
(-16561293.23 1.162153092e-07 11719350.16)
(-17718362.96 0 11045465.68)
(-18612692.99 0 10357626.65)
(-19250599.61 -9.021955736e-08 9665870.638)
(-19661430.34 0 8982295.839)
(-19869965.28 0 8318063.159)
(-19910766.17 0 7683754.824)
(-19830211.91 0 7082499.606)
(-19634262.13 0 6521140.088)
(-19338646.62 0 5997513.462)
(-18964862.39 0 5509231.499)
(-18522665.12 0 5054458.2)
(-18023668.23 0 4633329.476)
(-17480024.16 0 4244013.886)
(-16908498.22 0 3885295.62)
(-16322471.98 0 3555738.395)
(-15729066.04 0 3253603.149)
(-15138423.43 0 2978185.539)
(-14560345.7 0 2728437.369)
(-14002617.68 0 2503315.282)
(-13469768.34 0 2301088.918)
(-12963329.29 1.362597186e-08 2119792.452)
(-12485032.57 0 1957529.01)
(-12036077.76 0 1812494.571)
(-11616247.5 0 1683052.599)
(-11224729.23 0 1567708.844)
(-10860149.64 0 1465051.549)
(-10521287.76 0 1373637.308)
(-10206314.68 0 1292231.374)
(-9913536.83 -1.321589452e-08 1219618.962)
(-9640588.57 0 1154739.391)
(-9383995.109 0 1096446.069)
(-9143366.904 0 1043773.403)
(-8917541.092 0 995895.6749)
(-8703306.923 0 952221.6043)
(-8499359.968 0 912085.4756)
(-8304361.541 0 874937.7063)
(-8116883.777 0 840262.4659)
(-7935893.654 0 807665.0138)
(-7758382.233 0 776538.0425)
(-7575784.827 0 746792.0246)
(-7444644.158 0 718370.1727)
(-7404179.647 0 689521.1465)
(-1597966.751 2.924670153e-06 11546793.11)
(-3582720.507 -4.997319346e-07 11455623.98)
(-5701911.224 0 11278535.28)
(-7730000.181 0 11015139.33)
(-9570712.647 0 10682081.83)
(-11221264.48 1.522380817e-07 10290520.38)
(-12662872.69 0 9852697.184)
(-13884837.5 0 9378527.344)
(-14883456.5 1.070734544e-07 8878454.268)
(-15671899.27 9.849917275e-08 8367144.68)
(-16266396 0 7851057.399)
(-16685479.94 0 7344694.756)
(-16959561.43 0 6851157.673)
(-17095712.85 0 6378711.933)
(-17108899.36 -3.705714912e-08 5928264.83)
(-17022654.91 0 5498485.174)
(-16839643.72 6.882552552e-08 5091977.382)
(-16571354.35 6.670509429e-08 4708683.441)
(-16239444.54 0 4348611.54)
(-15859621.96 0 4011277.87)
(-15440028.14 0 3697312.488)
(-14991803.77 0 3406753.953)
(-14523797.54 0 3138712.893)
(-14049820.92 0 2892881.363)
(-13582511.56 1.44335117e-08 2668669.969)
(-13126789.78 0 2465182.954)
(-12686581.45 0 2281329.478)
(-12264295.44 -1.395607296e-08 2115560.177)
(-11861552.53 0 1966358.291)
(-11479563.62 -1.373779956e-08 1832399.863)
(-11118978.92 0 1712248.667)
(-10780196.41 0 1604546.413)
(-10463452.8 0 1507975.589)
(-10167264.21 0 1421296.886)
(-9889952.823 0 1343538.491)
(-9630349.953 6.716044967e-09 1273603.769)
(-9386263.703 6.710856824e-09 1210469.007)
(-9155406.459 0 1153195.144)
(-8936250.829 0 1101020.427)
(-8726982.02 -6.723362454e-09 1053301.687)
(-8527197.947 0 1009129.215)
(-8335878.247 0 968063.7032)
(-8150723.449 0 929630.7746)
(-7970851.91 0 893361.4838)
(-7795344.79 0 858868.2868)
(-7622522.023 0 825796.0799)
(-7450899.279 0 793824.9083)
(-7274040.952 -3.46381524e-09 762819.6358)
(-7140204.327 0 732699.6931)
(-7087465.182 7.011725843e-09 702128.9174)
(-1359629.032 0 9258821.979)
(-3058592.013 0 9192252.646)
(-4872575.648 0 9057271.901)
(-6609226.961 0 8859888.703)
(-8183223.291 0 8608989.095)
(-9600478.932 0 8314310.829)
(-10850634.42 0 7985081.042)
(-11912797.6 0 7627851.374)
(-12806110.74 0 7254703.369)
(-13530349.93 0 6872819.846)
(-14100379.67 0 6489804.948)
(-14530422.73 0 6110319.127)
(-14821286.98 0 5739474.688)
(-14996802.56 0 5376111.523)
(-15055089.07 0 5025876.473)
(-15012742.67 0 4688921.986)
(-14891979.72 0 4365668.266)
(-14700828.59 0 4058811.088)
(-14446910.02 0 3769596.871)
(-14145898.42 3.211695165e-08 3497877.431)
(-13813093.53 0 3243462.383)
(-13456306.83 0 3007134.676)
(-13086870.49 0 2789256.152)
(-12713654.27 0 2590059.175)
(-12342976.67 0 2408498.096)
(-11980996.81 0 2243468.204)
(-11630535.84 0 2093546.605)
(-11292491.43 0 1957796.461)
(-10969055.38 0 1835148.655)
(-10661600.09 0 1724476.99)
(-10370201.66 0 1624703.325)
(-10094584.56 0 1534786.831)
(-9833924.484 0 1453638.909)
(-9588608.146 0 1380189.754)
(-9357671.713 0 1313499.476)
(-9138137.072 0 1252724.524)
(-8928758.495 0 1197069.053)
(-8728564.642 0 1145847.598)
(-8535902.919 0 1098448.96)
(-8348461.914 0 1054307.219)
(-8166293.978 6.841001384e-09 1012864.593)
(-7989436.595 0 973614.8263)
(-7815901.904 0 936233.7646)
(-7644736.316 0 900370.1128)
(-7475179.714 0 865740.8625)
(-7306476.764 0 832115.079)
(-7137475.655 0 799313.9922)
(-6961783.55 0 767130.948)
(-6823329.551 0 735564.2284)
(-6759673.881 0 703693.7934)
(-1182153.703 0 7623629.208)
(-2659088.658 0 7572939.456)
(-4240935.387 0 7466913.63)
(-5752609.336 0 7313792.63)
(-7133674.846 0 7120707.636)
(-8390173.817 0 6895728.294)
(-9494079.428 0 6643207.883)
(-10454239.46 0 6370779.625)
(-11272554.33 0 6087340.142)
(-11946814.81 0 5793176.28)
(-12484166.65 0 5497863.817)
(-12894686.65 0 5199561.504)
(-13180265.78 8.390186498e-08 4904731.472)
(-13354462.85 0 4614699.01)
(-13438287.81 0 4330858.086)
(-13429746.04 0 4057662.267)
(-13346381.72 0 3795529.363)
(-13204806.97 0 3544927.651)
(-13011655.14 0 3307479.157)
(-12775008.59 0 3084776.85)
(-12508854.97 0 2876939.309)
(-12227821.91 0 2684093.209)
(-11938044.57 0 2506577.509)
(-11644710.9 0 2343936.542)
(-11351919.92 -1.488657637e-08 2195408.51)
(-11061571.41 0 2060089.314)
(-10778075.46 0 1936852.093)
(-10505447.97 0 1824724.834)
(-10243451.01 0 1722948.857)
(-9992576.386 0 1630625.456)
(-9753371.395 0 1546801.663)
(-9525440.173 0 1470641.822)
(-9308067.252 0 1401314.937)
(-9100164.34 0 1338038.769)
(-8901064.644 0 1279701.73)
(-8710027.231 0 1225813.881)
(-8525515.118 6.921509104e-09 1175791.751)
(-8346175.632 6.921161134e-09 1129069.176)
(-8170945.361 0 1085126.935)
(-7997961.875 0 1043548.472)
(-7826868.974 0 1003941.101)
(-7658259.553 0 965899.2742)
(-7490825.387 0 929153.3986)
(-7323762.381 0 893494.4895)
(-7156970.058 0 858764.6013)
(-6989520.813 -7.071138362e-09 824728.6254)
(-6819957.329 0 791281.7157)
(-6643418.153 0 758313.4501)
(-6500700.756 0 725890.5386)
(-6427511.666 3.615911167e-09 693254.7121)
(-1047879.015 0 6458159.88)
(-2349750.34 0 6418704.654)
(-3751867.217 3.227810984e-07 6335275.064)
(-5106033.007 0 6215696.883)
(-6344940.888 -1.895527726e-07 6065501.693)
(-7466816.288 0 5887752.408)
(-8465068.453 0 5687300.007)
(-9342465.405 0 5472400.215)
(-10085733.64 0 5243211.274)
(-10704183.47 0 5005999.078)
(-11200649.62 0 4762702.336)
(-11579826.71 0 4518053.614)
(-11857266.03 8.520851956e-08 4272857.628)
(-12033847.89 0 4032893.267)
(-12125640.22 0 3797643.711)
(-12144440.05 -7.465524063e-08 3569386.404)
(-12092996.71 0 3350953.901)
(-11986646.21 3.493519996e-08 3142397.227)
(-11839909.7 0 2944786.767)
(-11660690.94 0 2759469.524)
(-11456624.62 0 2587605.375)
(-11237208.99 0 2428757.033)
(-11010364.32 0 2282097.662)
(-10778312.2 0 2147288.826)
(-10544293.84 0 2023654.057)
(-10311638.2 0 1910533.382)
(-10082228.64 0 1807457.551)
(-9858851.782 0 1713345.918)
(-9643613.777 0 1627302.172)
(-9436048.739 0 1548715.837)
(-9236114.512 0 1476852.479)
(-9043805.178 0 1410944.132)
(-8858130.441 0 1350265.298)
(-8676756.279 0 1294121.899)
(-8500351.883 0 1241888.382)
(-8329358.668 0 1192966.186)
(-8161540.54 0 1146933.816)
(-7995989.767 0 1103339.071)
(-7831854.212 0 1061802.535)
(-7667487.03 0 1021975.671)
(-7502681.649 -7.05573879e-09 983553.8399)
(-7338217.133 0 946290.5586)
(-7173534.594 0 910008.2502)
(-7008466.66 0 874584.3009)
(-6841839.779 0 839862.6553)
(-6673228.896 0 805565.6517)
(-6502475.507 0 771847.2604)
(-6324785.895 0 738607.091)
(-6177509.026 0 705895.8969)
(-6098006.016 0 673084.6549)
(-943245.6845 0 5621968.05)
(-2111318.1 5.315972733e-07 5590340.982)
(-3376854.083 0 5522437.265)
(-4599623.982 0 5424998.753)
(-5713249.681 0 5300238.586)
(-6726188.789 0 5151275.697)
(-7636264.404 0 4984947.533)
(-8431556.389 0 4803847.186)
(-9110229.903 0 4609590.137)
(-9677845.054 0 4409260.878)
(-10137746.5 0 4202186.124)
(-10494922.46 0 3994877.893)
(-10759700.17 -4.326776269e-08 3787178.71)
(-10938739.48 0 3582405.656)
(-11037994.79 0 3382985.001)
(-11073396.07 -3.79089468e-08 3189007.167)
(-11051474.53 0 3002958.535)
(-10980756.56 0 2826866.542)
(-10875502.95 -3.449787371e-08 2660684.967)
(-10745098.91 0 2505289.003)
(-10593922.86 -1.644546326e-08 2360811.486)
(-10425432.92 0 2227290.743)
(-10246224.47 0 2103808.157)
(-10061999.25 0 1989734.957)
(-9874689.184 -1.53538626e-08 1884847.933)
(-9687214.39 0 1788558.909)
(-9500872.559 0 1700243.667)
(-9316526.385 1.484598006e-08 1619377.616)
(-9136511.63 0 1544968.906)
(-8961897.334 0 1476469.931)
(-8791726.732 0 1413267.274)
(-8625188.438 0 1354675.415)
(-8461582.831 0 1300080.525)
(-8300039.177 0 1249011.301)
(-8140140.732 0 1201023.111)
(-7982278.084 0 1155536.701)
(-7825625.584 0 1112233.517)
(-7668844.146 0 1070776.422)
(-7511369.999 0 1030860.59)
(-7351660.257 0 992231.5953)
(-7189939.882 -7.165622243e-09 954584.738)
(-7027649.539 0 917932.6348)
(-6864379.075 0 882093.7815)
(-6699381.066 0 846936.5416)
(-6531005.231 0 812260.4752)
(-6361034.8 0 778080.8709)
(-6189543.66 0 744460.715)
(-6010774.922 0 711380.9253)
(-5860216.613 0 678875.1816)
(-5776003.795 0 646473.8582)
(-859329.2356 0 4993244.029)
(-1912502.482 5.398761628e-07 4966482.195)
(-3059110.349 0 4907183.014)
(-4170348.771 0 4822332.106)
(-5177396.359 0 4713448.247)
(-6101603.262 0 4585326.766)
(-6934513.153 0 4441814.725)
(-7659026.908 0 4283806.581)
(-8284758.632 0 4116651.59)
(-8809784.536 0 3942514.324)
(-9238854.846 -9.898494505e-08 3764226.368)
(-9578066.565 0 3584110.068)
(-9830822.434 0 3404979.43)
(-10011034.28 0 3227465.679)
(-10119718.14 -8.006801281e-08 3055012.917)
(-10170515.28 0 2888389.291)
(-10176773.85 0 2729043.56)
(-10141366.8 3.603180811e-08 2578532.835)
(-10073637.86 0 2437319.521)
(-9982640.345 0 2304892.286)
(-9871737.774 0 2181367.815)
(-9744337.433 0 2066545.304)
(-9604415.048 0 1960403.566)
(-9458024.383 -1.581793875e-08 1862044.262)
(-9308361.632 0 1771236.599)
(-9156128.577 0 1687486.151)
(-9003299.036 0 1610218.875)
(-8849880.804 0 1538946.98)
(-8697484.853 0 1473089.526)
(-8547656.867 0 1411877.703)
(-8399039.121 0 1354796.36)
(-8251199.73 7.337521944e-09 1301353.334)
(-8104233.09 0 1251116.463)
(-7956657.799 0 1203655.214)
(-7807991.055 0 1158523.622)
(-7659284.634 0 1115407.07)
(-7509796.725 7.249950184e-09 1073981.499)
(-7358475.378 -7.249585702e-09 1033982.593)
(-7204876.065 0 995197.6106)
(-7047115.337 0 957343.2887)
(-6886998.248 0 920408.947)
(-6726163.442 0 884309.5451)
(-6562785.659 0 848876.4618)
(-6396369.984 0 814017.6983)
(-6226919.13 7.373207818e-09 779567.0989)
(-6056313.705 3.703339842e-09 745781.3133)
(-5884111.376 -3.721845231e-09 712574.6317)
(-5705274.977 0 680020.6788)
(-5552764.598 0 648004.8266)
(-5465304.398 3.787494235e-09 616379.4586)
(-786197.3983 0 4491391.65)
(-1738214.204 -5.482839854e-07 4467791.237)
(-2782321.074 0 4415111.252)
(-3796310.97 0 4340229.184)
(-4718431.52 0 4244731.018)