/*--------------------------------*- C++ -*----------------------------------*\
  =========                 |
  \\      /  F ield         | OpenFOAM: The Open Source CFD Toolbox
   \\    /   O peration     | Website:  https://openfoam.org
    \\  /    A nd           | Version:  7
     \\/     M anipulation  |
\*---------------------------------------------------------------------------*/
FoamFile
{
    version     2.0;
    format      ascii;
    class       volTensorField;
    location    "0.0006";
    object      grad(U);
}
// * * * * * * * * * * * * * * * * * * * * * * * * * * * * * * * * * * * * * //

dimensions      [0 0 -1 0 0 0 0];

internalField   nonuniform List<tensor> 
1166
(
(-0.001542758383 3.035734291e-16 0.000111601604 -3.16368441e-15 -0.002496085525 0 8.672903273e-06 -1.092276575e-16 0.01733567814)
(-0.002075557231 2.288786093e-17 0.0002557077628 -1.338417045e-15 -0.002197857979 0 2.320993397e-05 -3.03288806e-16 0.01734858912)
(-0.002086731693 -2.709393008e-15 0.0004106400896 -7.079506992e-16 -0.002120840252 0 4.148117987e-05 -4.84008238e-16 0.01737853905)
(-0.002189629948 -2.488404823e-15 0.0005669594959 7.757788792e-16 -0.00212510728 0 7.238649068e-05 -6.609545915e-16 0.01742812416)
(-0.00227467275 -9.439921569e-16 0.0007234509466 7.625547211e-16 -0.002146428869 0 0.0001196532464 -4.857753039e-16 0.01750215155)
(-0.002375370678 -1.323063663e-15 0.0008474915706 8.227179889e-16 -0.002174941375 0 0.0001477915188 -5.771553331e-16 0.01760689263)
(-0.002543654015 -1.623086912e-15 0.0008794258807 9.270418547e-16 -0.002211579977 0 9.236133227e-05 -6.697643153e-16 0.01774928918)
(-0.002785738197 7.286292047e-17 0.0007828757271 1.02276996e-15 -0.002265672939 0 -7.944334489e-05 -6.100446913e-16 0.01793791604)
(-0.002687253412 1.433848143e-15 0.0005457850363 7.23939023e-16 -0.002336199171 0 -0.0003713831963 -3.962944721e-16 0.01818522115)
(-0.001666250699 1.588972298e-15 0.0001579713789 5.346496209e-16 -0.002349491991 0 -0.0007893969904 -2.170323747e-16 0.0185042941)
(0.0001476409807 1.763992597e-15 -0.0004053324465 3.141061375e-16 -0.002223671668 0 -0.001352947947 -1.566019691e-16 0.01888138015)
(0.002204612054 1.977129237e-15 -0.00117132884 1.719962665e-16 -0.001958758289 0 -0.002068889869 -8.855383423e-17 0.0192780903)
(0.004315933279 2.260086789e-15 -0.002006736339 -1.161988625e-17 -0.001588071283 0 -0.00278498339 9.236628199e-17 0.01964767629)
(0.006339952049 2.58670088e-15 -0.002643165817 -1.493218566e-16 -0.001131003606 0 -0.003292111135 1.735132826e-16 0.01994251143)
(0.007428602142 2.925538072e-15 -0.002877438853 -3.228902444e-16 -0.0006220644334 0 -0.003530646374 1.986126065e-16 0.0201210626)
(0.007069074759 2.249919358e-15 -0.002640606411 -4.640718622e-16 -0.0001618255532 0 -0.003515963139 2.391833811e-16 0.02016236088)
(0.006063389268 1.733994285e-15 -0.002023961156 -5.292415e-16 0.0001898591004 0 -0.003269873535 2.903314484e-16 0.02009587607)
(0.005112558394 9.626098932e-16 -0.001268788085 -5.875739858e-16 0.0004518855017 0 -0.0029116185 3.498152983e-16 0.01996626763)
(0.004242362432 -1.575520987e-16 -0.0005666777133 -5.697769571e-16 0.0006444544244 0 -0.002569326961 3.513937263e-16 0.01981750879)
(0.003416426874 -3.951757848e-16 4.894414472e-05 -5.270147624e-16 0.0007808014601 0 -0.002265875469 3.5824073e-16 0.01967916369)
(0.002637697126 -2.51036242e-16 0.0005934321028 -4.917096841e-16 0.0008711195495 0 -0.001996327759 3.718993054e-16 0.01955884802)
(0.001926533513 -1.511115349e-16 0.001075896389 -4.674521744e-16 0.0009242751898 0 -0.001762107437 3.451041497e-16 0.01945900653)
(0.001330992122 -5.985724535e-17 0.001461324693 -4.449179167e-16 0.0009484101721 -1.160754004e-14 -0.00156703306 3.281902738e-16 0.01938802778)
(0.0008787295934 1.293535385e-17 0.001671113003 -4.29442855e-16 0.0009526407835 0 -0.001406684843 2.669263487e-16 0.01935588618)
(0.0005045565308 5.041496383e-17 0.001659145164 -4.150885712e-16 0.0009440215213 0 -0.001275950359 2.138149538e-16 0.01937080081)
(0.0001799803414 6.740640052e-17 0.001430696015 -4.044278004e-16 0.0009248593446 0 -0.001171516292 1.670413722e-16 0.01943101587)
(-2.826753839e-05 7.595478133e-17 0.001041146696 -3.945653906e-16 0.0008987467775 0 -0.001090070569 1.244882937e-16 0.01952266445)
(-0.0001225868348 8.55232413e-17 0.0005947696701 -3.854100664e-16 0.0008708748956 0 -0.001030658008 8.401216002e-17 0.01963035174)
(-0.0001691324387 9.845465545e-17 0.0001616190308 -3.79518722e-16 0.000843456143 0 -0.0009858407738 4.471550137e-17 0.0197408608)
(-0.0002069169994 1.089293084e-16 -0.0002448531746 -3.715329537e-16 0.0008170249718 0 -0.0009452006472 1.358971756e-17 0.01984810479)
(-0.0002635886824 1.101193407e-16 -0.0006235108386 -3.640510258e-16 0.0007913912513 0 -0.0009028140819 -1.708533839e-17 0.01995113013)
(-0.0003641088986 1.021452003e-16 -0.0009708003689 -3.583141451e-16 0.0007657064939 0 -0.0008551145344 -4.89440574e-17 0.02004957117)
(-0.0005185674914 8.812222524e-17 -0.001282667425 -3.52971983e-16 0.0007387720772 0 -0.000800973976 -6.803662514e-17 0.02014301098)
(-0.0007168148322 6.898464998e-17 -0.001557152911 -3.479873441e-16 0.000709570657 0 -0.0007420385945 -9.037918439e-17 0.02023129515)
(-0.00174615103 7.091953898e-16 1.11776291e-05 -3.800743833e-15 -0.002833541701 0 -1.176634211e-05 -1.278164048e-16 0.01775903196)
(-0.002359546474 5.690253654e-16 1.428885748e-05 -1.896924272e-15 -0.002490423087 0 -4.000879994e-05 -3.638666186e-16 0.01780996053)
(-0.00243373073 1.240978728e-16 -1.40790194e-05 -1.259139392e-15 -0.002408889341 0 -0.0001007781122 -6.233923334e-16 0.01791455383)
(-0.002664398489 1.13485773e-17 -9.674869122e-05 -9.027568834e-16 -0.002443194788 4.482051145e-14 -0.0002130117718 -1.325410511e-15 0.01807551992)
(-0.002680475781 -2.673042944e-17 -0.0002526091104 -7.219266878e-16 -0.002511987191 0 -0.000393651461 -1.326724516e-15 0.01829938589)
(-0.002134399023 -5.53910022e-17 -0.0004983948511 -5.815587948e-16 -0.002527121545 0 -0.0006570811762 -1.458748596e-15 0.01859367685)
(-0.001043567798 3.596344613e-18 -0.0008534383349 -4.931557913e-16 -0.002408088186 0 -0.00101964999 -1.677652688e-15 0.01894865983)
(0.0002751617321 -1.843114089e-17 -0.00135187046 -4.337420951e-16 -0.002160139968 2.337641607e-14 -0.001508050607 -1.956352933e-15 0.01933706153)
(0.001683108446 -4.637050061e-17 -0.002024411489 -3.779617993e-16 -0.001821751831 0 -0.002137597763 -1.757613947e-15 0.01972838956)
(0.003243001284 -6.045780739e-17 -0.002768824767 -3.405507636e-16 -0.001413165943 1.950903396e-14 -0.002794454677 -1.66743693e-15 0.02008810348)
(0.004969064757 -1.243467911e-16 -0.003364770795 -3.012757966e-16 -0.0009382922932 0 -0.00329522408 -1.417694101e-15 0.02037881043)
(0.006310259469 -2.058058874e-16 -0.003642338325 -2.66171228e-16 -0.0004052373478 1.703495859e-14 -0.003572438068 -1.259929908e-15 0.02056330837)
(0.006541411683 3.930934796e-16 -0.003520635785 -2.288873153e-16 0.0001078354418 0 -0.003637970051 -9.665840666e-16 0.02061185723)
(0.005900430669 8.881271293e-16 -0.003012955722 -2.81764495e-16 0.0005169530041 1.533697504e-14 -0.003495889192 -7.269935802e-16 0.02053447023)
(0.005083360628 7.016187187e-16 -0.00224295654 -3.117916548e-16 0.0008176758119 0 -0.003171188477 -3.587581704e-16 0.02036858927)
(0.004325194456 5.633766712e-16 -0.001426647871 -3.291339473e-16 0.001035389447 0 -0.002788654004 -3.09191175e-17 0.02016026212)
(0.003599455856 4.354834779e-16 -0.0007029828231 -3.361353157e-16 0.001188195071 0 -0.002447212433 1.993202102e-16 0.01995103957)
(0.00289260942 3.305484022e-16 -7.408422692e-05 -3.322304701e-16 0.001288412553 -1.321180588e-14 -0.002146839536 4.333081995e-16 0.01976637346)
(0.002215569078 2.485163478e-16 0.0004808521569 -3.324495742e-16 0.001345902962 -1.284635336e-14 -0.001880067097 4.341581851e-16 0.01960825083)
(0.001585755601 1.855626404e-16 0.0009732065047 -3.303086083e-16 0.001369203884 0 -0.001647901798 3.388074162e-16 0.01947666567)
(0.001041714886 1.125042507e-16 0.001375207249 -3.229441715e-16 0.001365883279 0 -0.001454459775 2.650655778e-16 0.01937866818)
(0.0006213434574 3.314207375e-17 0.00161141234 -3.164880598e-16 0.001344285241 0 -0.001295887623 2.042758369e-16 0.01932363974)
(0.0002777796177 3.354956431e-16 0.001628015006 -3.079466082e-16 0.001311827374 0 -0.001166492457 1.523745753e-16 0.01932005767)
(-3.339129428e-05 6.331690591e-16 0.001422041567 -3.143540385e-16 0.001270803527 0 -0.001063337919 1.091114937e-16 0.01936832489)
(-0.0002519017181 5.638827495e-16 0.001034157295 -3.210502953e-16 0.001223752297 0 -0.0009829521891 7.059415908e-17 0.01945495708)
(-0.0003557120771 4.990408385e-16 0.000563681117 -3.307862006e-16 0.00117587704 0 -0.0009253298343 3.548035565e-17 0.01956294805)
(-0.0004013148034 4.313475103e-16 9.608087926e-05 -3.352881232e-16 0.001129906618 0 -0.0008855160354 2.737406483e-18 0.01967695868)
(-0.0004303561788 3.519099118e-16 -0.0003458188228 -3.374243883e-16 0.001086471516 0 -0.0008526916256 -2.747261076e-17 0.01978829484)
(-0.0004689351999 5.544648459e-16 -0.0007610531996 -3.345739554e-16 0.001045427101 0 -0.000819879087 -5.479314833e-17 0.01989526188)
(-0.0005425544264 7.69166961e-16 -0.001147059681 -3.480901196e-16 0.001005948009 0 -0.0007827028006 -7.861310409e-17 0.01999757691)
(-0.0006666029903 7.286327771e-16 -0.001499452574 -3.591571664e-16 0.0009667449365 0 -0.0007388410877 -1.007427905e-16 0.02009482209)
(-0.0008381944755 5.677074718e-16 -0.001815239929 -3.678354824e-16 0.0009265497843 0 -0.0006888979782 -1.221358658e-16 0.02018673615)
(-0.001039597519 4.136723602e-16 -0.002093946139 -3.663187159e-16 0.0008845647271 0 -0.0006358378732 -1.452466884e-16 0.02027339474)
(-0.001250049067 3.969229234e-16 -0.002336408122 -3.703598533e-16 0.0008405985364 0 -0.0005830641083 -1.685667748e-16 0.02035507421)
(-0.001456432168 3.71886645e-16 -0.00254296187 -3.668883804e-16 0.0007948840022 0 -0.0005327760694 -1.926996965e-16 0.02043200785)
(-0.001655521474 3.762219072e-16 -0.002712596834 -3.663244688e-16 0.0007477762236 -5.320797958e-15 -0.0004856216412 -2.184097071e-16 0.02050425618)
(-0.001849300479 2.234494839e-16 -0.002843309651 -3.699355416e-16 0.0006995699275 5.316687643e-15 -0.0004412890828 -2.756066346e-16 0.02057173547)
(-0.00204058844 3.032446874e-17 -0.002932845758 -3.647251268e-16 0.0006504690463 5.316420353e-15 -0.0003992096702 -3.096043524e-16 0.0206343089)
(-0.00223188489 1.397287338e-16 -0.002979070322 -3.571633196e-16 0.0006006077927 0 -0.0003588513913 -3.205759077e-16 0.0206918558)
(-0.002425219501 2.616725678e-16 -0.002980085818 -3.550196541e-16 0.0005500649057 0 -0.0003198290503 -3.303608961e-16 0.02074429462)
(-0.002621108857 3.875240493e-16 -0.002934324085 -3.530862323e-16 0.0004988837084 0 -0.0002819980412 -3.426430875e-16 0.02079159519)
(-0.002817779315 5.218339448e-16 -0.002840620004 -3.565730085e-16 0.0004471143799 0 -0.00024547415 -3.55139516e-16 0.02083378254)
(-0.003012020166 5.197220047e-16 -0.00269817047 -3.596188821e-16 0.0003948481782 5.366116361e-15 -0.0002105238648 -3.68713062e-16 0.02087092776)
(-0.003201041353 5.2290402e-16 -0.002506350281 -3.608984896e-16 0.0003422203421 0 -0.0001773600339 -3.609310709e-16 0.0209031251)
(-0.003383880245 4.335294296e-16 -0.002264534194 -3.623639619e-16 0.0002893824771 0 -0.0001460245281 -3.535359515e-16 0.02093047035)
(-0.003561536214 4.315691237e-16 -0.00197202515 -3.620198515e-16 0.0002364686333 -5.431623853e-15 -0.000116413363 -3.475978616e-16 0.02095305199)
(-0.003734388898 5.643712234e-16 -0.001628031616 -3.654947282e-16 0.0001835739351 5.458765384e-15 -8.836085072e-05 -3.611933288e-16 0.02097095117)
(-0.003892001732 4.969741448e-16 -0.001231577895 -3.681507083e-16 0.0001307982028 0 -6.169784171e-05 -3.541149824e-16 0.02098423998)
(-0.004006161277 2.850429759e-16 -0.0007815848306 -3.68620183e-16 7.848303416e-05 0 -3.627780935e-05 -3.512246819e-16 0.02099297843)
(-0.004261898733 8.927457587e-17 -0.0002709467996 -3.661777198e-16 2.738852769e-05 0 -1.192381758e-05 -3.492978541e-16 0.0209972151)
(-0.001331967539 2.097998206e-15 -0.000275416374 -5.718090042e-15 -0.002266842543 0 -0.0001976180631 1.276712592e-16 0.02055503903)
(-0.00158312678 2.641467703e-15 -0.0006125572965 -3.773174362e-15 -0.001934998444 0 -0.0005252319269 3.561530674e-16 0.02061353119)
(-0.001156935924 2.641069586e-15 -0.001015059042 -3.234704697e-15 -0.001717689628 0 -0.0008757804822 6.122088541e-16 0.02072340386)
(-0.0006132983863 8.979979099e-16 -0.001509329656 -3.114396444e-15 -0.001509093491 0 -0.001309763136 3.976776036e-16 0.02087296231)
(0.0001436327696 -1.549176822e-16 -0.002108699437 -2.297265071e-15 -0.001251448804 0 -0.001841557854 3.221194202e-16 0.02104625978)
(0.001094676074 6.522246443e-16 -0.00275225245 -1.94940586e-15 -0.000939151524 0 -0.002410427853 1.766529012e-17 0.02122211599)
(0.002269598679 1.199608904e-15 -0.003306433791 -1.804960963e-15 -0.000569933221 0 -0.00289694447 -1.824921845e-16 0.02137574307)
(0.003658858862 3.90442738e-16 -0.003683632638 -1.755829864e-15 -0.0001366783292 0 -0.003244631172 -3.060534058e-16 0.02147950819)
(0.004839332695 -2.323245468e-16 -0.003835286942 -1.503185712e-15 0.0003566646685 0 -0.003454521572 -1.95272502e-16 0.02150247627)
(0.005203783361 -4.798767224e-16 -0.00370806446 -1.361650436e-15 0.0008340022236 0 -0.003523760501 -2.288687921e-16 0.02141570431)
(0.004849613925 -6.929006055e-16 -0.003283259239 -1.160877651e-15 0.001207866557 0 -0.003436245457 -3.846780586e-16 0.02122194779)
(0.004323196993 -8.47919142e-16 -0.002607236382 -1.034805271e-15 0.00147284317 0 -0.003180712976 -5.023131258e-16 0.02095077359)
(0.003831612898 -1.08261954e-15 -0.001824076569 -8.708832426e-16 0.001659415118 1.636301726e-14 -0.002828708943 -5.992132242e-16 0.02063968631)
(0.003331253222 -1.328784695e-15 -0.001084733922 -7.491303677e-16 0.001786415327 0 -0.002485375478 -4.720926211e-16 0.02032683787)
(0.002801965201 -1.609602862e-15 -0.000435673584 -6.005381368e-16 0.001864515463 0 -0.002182174458 -3.611119509e-16 0.02004249757)
(0.002257788459 -1.44111921e-15 0.0001338703298 -4.865141999e-16 0.0019020574 0 -0.001912295837 -2.571336056e-16 0.01980145094)
(0.001718360243 -1.408171719e-15 0.0006404520704 -3.886887973e-16 0.001906479876 0 -0.001671573666 -1.613773888e-16 0.01959878856)
(0.001199797716 -6.154676307e-16 0.001093308112 -2.948194686e-16 0.001884424618 0 -0.001461518093 -6.809994405e-17 0.01943188642)
(0.0007352928004 5.245250246e-16 0.001467038152 -2.898496109e-16 0.001841717744 0 -0.001286032622 -4.520690663e-17 0.01930575802)
(0.0003686495671 8.125215978e-16 0.001690221985 -3.137104055e-16 0.001785191375 0 -0.001142122094 -7.597866148e-17 0.01922798232)
(6.884056925e-05 7.27104195e-16 0.001707155347 -3.370839603e-16 0.001721730588 0 -0.001024563324 -1.574121702e-16 0.0192060534)
(-0.0002142272775 6.821506944e-16 0.001508467923 -3.511777528e-16 0.001653176595 0 -0.0009313668145 -2.346210635e-16 0.01924149835)
(-0.0004297565078 6.605759525e-16 0.001119481168 -3.565848533e-16 0.001580835987 0 -0.0008591528341 -3.089545291e-16 0.01932172268)
(-0.0005379024325 6.483860144e-16 0.0006274085857 -3.710198874e-16 0.001509391531 0 -0.0008081691894 -3.313199067e-16 0.01942870198)
(-0.0005807690362 6.326636678e-16 0.0001265596601 -3.770841586e-16 0.001441890763 0 -0.0007760075184 -3.537603158e-16 0.01954546046)
(-0.0006003438436 6.134745866e-16 -0.000349668442 -3.863284021e-16 0.00137899738 0 -0.0007526995398 -3.777183915e-16 0.01966066073)
(-0.0006214287683 5.912826581e-16 -0.0007995009766 -3.958772178e-16 0.001320522968 0 -0.000730604808 -4.04856284e-16 0.01977138494)
(-0.0006691299901 5.642884123e-16 -0.001221843569 -4.002494332e-16 0.001265602258 0 -0.0007049675383 -4.370489214e-16 0.01987735301)
(-0.0007630845666 5.352322368e-16 -0.001612787885 -4.0230483e-16 0.001212819345 0 -0.0006727045965 -4.373550203e-16 0.01997818247)
(-0.0009076244184 5.127550762e-16 -0.00196876454 -4.047837535e-16 0.001160613148 0 -0.0006334003186 -3.656083085e-16 0.02007351165)
(-0.001089877502 4.996802751e-16 -0.002288411619 -4.076623745e-16 0.001107783442 0 -0.0005892846461 -2.967022689e-16 0.02016332289)
(-0.001288376241 5.056429708e-16 -0.002572190272 -4.109204158e-16 0.001053788327 -5.464707867e-15 -0.0005437570145 -2.447413939e-16 0.0202479049)
(-0.001486018472 5.141975829e-16 -0.002820776043 -4.118833006e-16 0.0009986738684 0 -0.000499586245 -2.601598421e-16 0.02032759818)
(-0.001676632271 5.125738365e-16 -0.003033762956 -4.132107114e-16 0.0009427387499 0 -0.0004580534175 -2.748368055e-16 0.02040258541)
(-0.001861452531 5.178582707e-16 -0.00320951127 -4.201683961e-16 0.0008862566403 0 -0.0004191988603 -2.887219814e-16 0.02047286748)
(-0.00204339519 6.8896207e-16 -0.003345816402 -4.182033391e-16 0.0008294054093 0 -0.0003825405123 -3.029867096e-16 0.02053834973)
(-0.002224950703 7.142409778e-16 -0.003440467542 -4.297443859e-16 0.0007722880098 0 -0.0003475453901 -3.134850254e-16 0.02059893239)
(-0.002408268421 4.345655038e-16 -0.003491435021 -4.29722781e-16 0.0007149544216 0 -0.0003137740452 -3.401989954e-16 0.02065455079)
(-0.002594722391 2.953277185e-16 -0.003496949297 -4.273567627e-16 0.000657412281 0 -0.0002809696139 -3.405584911e-16 0.02070518887)
(-0.002783725561 2.999451386e-16 -0.003455616759 -4.252624479e-16 0.000599657757 0 -0.0002491448067 -3.264273886e-16 0.02075088961)
(-0.002972707315 3.054558e-16 -0.0033664745 -4.234214789e-16 0.0005417191222 0 -0.0002185546654 -3.255599151e-16 0.02079175249)
(-0.003158595465 3.100246534e-16 -0.003228854333 -4.218172653e-16 0.0004836754477 0 -0.0001894994347 -3.109197526e-16 0.02082791629)
(-0.003339412368 1.767680441e-16 -0.003042172668 -4.19104289e-16 0.000425641842 0 -0.0001621341622 -2.943769041e-16 0.02085953329)
(-0.003514664616 3.840464103e-17 -0.002805799486 -4.132518274e-16 0.0003677378299 0 -0.0001364285736 -2.767396556e-16 0.02088675283)
(-0.003684758432 2.924872885e-17 -0.002519045537 -4.082266576e-16 0.0003100682725 0 -0.0001122495164 -2.567592179e-16 0.0209097164)
(-0.003850966452 1.358423758e-16 -0.002181184566 -4.033462088e-16 0.0002527171457 5.516213928e-15 -8.94464843e-05 -2.438771526e-16 0.02092855911)
(-0.004013708397 1.198229742e-16 -0.001791374299 -4.002862275e-16 0.0001957342237 -5.54377815e-15 -6.786603296e-05 -2.099782687e-16 0.02094340694)
(-0.004162680048 -1.414902944e-17 -0.001348509319 -3.956572027e-16 0.0001391771865 0 -4.735652014e-05 -1.835086846e-16 0.02095437173)
(-0.004269838924 -1.265953079e-17 -0.0008513627855 -3.899307917e-16 8.334702857e-05 -5.606516974e-15 -2.781171616e-05 -1.477029607e-16 0.02096154574)
(-0.00452097796 -1.196632665e-18 -0.0002939021671 -3.852233667e-16 2.896507174e-05 -5.641563924e-15 -9.107633525e-06 -1.314970282e-16 0.02096500908)
(0.0007042443717 -9.739048091e-16 -0.0004291547781 -1.328714051e-15 0.001051867757 0 -0.0003232728283 -2.369877335e-17 0.0226407507)
(0.001160622434 -1.916646604e-15 -0.000910374581 4.081167936e-16 0.0009739675245 0 -0.0008371005671 -6.669703559e-17 0.02262645572)
(0.00165904771 2.731001011e-16 -0.001383999814 1.144975504e-15 0.001089236402 0 -0.001292497641 -9.954834418e-17 0.02258936433)
(0.002443766016 1.46097643e-15 -0.001810115889 1.975048338e-16 0.001330312999 0 -0.001715019259 -8.504854724e-17 0.02251755803)
(0.003210391994 2.08001149e-15 -0.002131357656 -2.256326673e-17 0.001655805688 0 -0.002070140166 -4.316421316e-16 0.02239280013)
(0.003581514335 2.640119381e-15 -0.002302356193 -5.732397641e-16 0.001980574356 0 -0.00233732932 -3.625883915e-16 0.02219428627)
(0.00355034784 1.776845197e-15 -0.002289745492 -7.992848904e-16 0.002221116316 0 -0.002497620802 -3.032121023e-16 0.02191968363)
(0.003412114441 -6.714036335e-18 -0.002074206047 -8.770554862e-16 0.002377835087 0 -0.00252721623 -2.467437903e-16 0.02158532102)
(0.00328958786 -4.518522299e-16 -0.001659879106 -6.354696735e-16 0.002484239046 0 -0.002408986862 -2.05265667e-16 0.02121028683)
(0.003131639641 1.063134065e-15 -0.001127590305 -6.189694041e-16 0.002556239762 0 -0.002192180395 -1.338420844e-16 0.02081754648)
(0.002900865386 1.477265882e-15 -0.0005939096269 -7.037183439e-16 0.002597898561 0 -0.001964897273 -1.75106383e-16 0.02043336947)
(0.002597039058 1.074094133e-15 -0.000106362074 -7.506578029e-16 0.002611143884 0 -0.001758821773 -1.803223399e-16 0.02008227177)
(0.002230578845 1.397002549e-16 0.0003395444658 -7.627332806e-16 0.002598083485 0 -0.001565810909 -2.626694678e-16 0.01978076303)
(0.001822559028 -6.330823331e-16 0.0007496593002 -6.719730125e-16 0.00256103953 0 -0.001383562239 -1.996896294e-16 0.01952814365)
(0.001400373969 -7.03402923e-16 0.001127715111 -5.914091473e-16 0.002503608406 0 -0.00121586083 -3.169000357e-16 0.0193172559)
(0.0009814840246 -7.637276946e-16 0.00147376553 -5.118640389e-16 0.002429870166 0 -0.001067279309 -5.19162137e-16 0.0191460472)
(0.0005921119396 -8.438684732e-16 0.001758206138 -4.462301829e-16 0.002343473935 0 -0.0009422368365 -7.031812714e-16 0.01901883346)
(0.0002723743889 -4.555099775e-16 0.001913550891 -3.85907346e-16 0.002249237209 0 -0.0008393775853 -8.800480614e-16 0.01894178846)
(3.442483446e-06 3.159139738e-16 0.001889296371 -3.687632107e-16 0.002152672992 0 -0.0007557815725 -9.276544836e-16 0.01892163996)
(-0.0002591287495 9.892790518e-16 0.001673204315 -3.785299115e-16 0.002054869467 0 -0.0006909439458 -9.207505512e-16 0.0189605267)
(-0.0004725797099 1.253163032e-15 0.001274580672 -4.132675581e-16 0.001956083874 0 -0.0006421144378 -9.178839014e-16 0.01904711528)
(-0.0005902251519 1.144308905e-15 0.0007618628485 -4.442973569e-16 0.001860298958 0 -0.0006103069696 -9.197515579e-16 0.01916350672)
(-0.0006418995936 1.048585485e-15 0.0002295026416 -4.660302635e-16 0.001770566469 0 -0.0005955487766 -9.251565194e-16 0.01929206419)
(-0.0006653675626 9.716263267e-16 -0.0002800137352 -4.848718529e-16 0.001687469566 0 -0.0005896041064 -8.79758215e-16 0.01941949838)
(-0.0006818206378 9.220126188e-16 -0.0007629239131 -4.981316734e-16 0.001610786408 0 -0.0005847000815 -8.342376812e-16 0.019541529)
(-0.0007147200294 9.016559148e-16 -0.001219419216 -5.117542562e-16 0.001539657475 0 -0.0005760020915 -7.864884914e-16 0.0196578906)
(-0.0007859850915 9.082251957e-16 -0.001646413415 -5.257478258e-16 0.001472604604 0 -0.000560001821 -7.791980833e-16 0.01976839219)
(-0.0009056638086 6.147377488e-16 -0.002040126547 -5.317685443e-16 0.001407865638 0 -0.0005354510507 -7.610954304e-16 0.01987268752)
(-0.001067283696 -4.848859168e-17 -0.002398519559 -5.300369751e-16 0.001343904137 0 -0.0005038763546 -7.406339233e-16 0.01997069773)
(-0.00125291168 -4.215816746e-16 -0.002721718917 -5.070081604e-16 0.001279795331 0 -0.0004686562827 -7.184797604e-16 0.02006269767)
(-0.001444170597 -3.118250219e-16 -0.003010708737 -4.82105088e-16 0.0012152742 0 -0.0004331912504 -6.753337735e-16 0.02014911998)
(-0.001630805451 2.566913464e-16 -0.003265694034 -4.66097584e-16 0.001150484144 0 -0.0003995014102 -6.278643784e-16 0.02023030875)
(-0.001811137016 6.838742256e-16 -0.003485462432 -4.695730257e-16 0.001085661675 0 -0.0003680541419 -5.914786987e-16 0.02030641494)
(-0.001987368175 6.584760643e-16 -0.003667918566 -4.76136687e-16 0.001020977739 0 -0.0003384888515 -5.517815127e-16 0.02037744237)
(-0.002162123293 6.351669626e-16 -0.003810823277 -4.777026689e-16 0.0009565214731 0 -0.0003103076699 -5.249411979e-16 0.02044334586)
(-0.002337800246 6.143737163e-16 -0.003912079004 -4.823276304e-16 0.0008923223079 0 -0.0002830854538 -4.941148316e-16 0.02050409732)
(-0.002516458153 5.915480297e-16 -0.003969784496 -4.819550324e-16 0.0008283601486 0 -0.0002565197837 -4.575663748e-16 0.0205597075)
(-0.002698681172 2.980116592e-16 -0.003982332364 -4.872855894e-16 0.0007645855348 0 -0.0002305232388 -4.16697572e-16 0.02061024055)
(-0.002882783148 2.42530717e-18 -0.003948532161 -4.782172014e-16 0.0007009654693 0 -0.0002052784066 -4.029402824e-16 0.02065582074)
(-0.003065667236 1.117239727e-16 -0.003867588286 -4.707818231e-16 0.0006375198731 0 -0.0001811289088 -3.848449423e-16 0.02069662382)
(-0.003244680295 2.234118328e-16 -0.003738915592 -4.649544536e-16 0.0005743231125 0 -0.0001583590598 -3.807600337e-16 0.02073285105)
(-0.003418768728 1.889175022e-16 -0.003561950628 -4.620646653e-16 0.0005114721611 0 -0.0001370647703 -3.726880152e-16 0.02076470469)
(-0.003588006313 1.464334614e-16 -0.003336079241 -4.567090932e-16 0.0004490558327 0 -0.0001171855461 -3.727420951e-16 0.02079237851)
(-0.003752678308 1.025978773e-16 -0.003060641897 -4.51554079e-16 0.0003871478284 0 -9.859188251e-05 -3.821108419e-16 0.02081605889)
(-0.0039132404 6.12912074e-17 -0.00273493607 -4.465800467e-16 0.0003258099664 0 -8.114058325e-05 -3.891650463e-16 0.02083592472)
(-0.004071070977 -1.088708185e-16 -0.002358164812 -4.404011365e-16 0.0002650875493 0 -6.468542579e-05 -3.943336744e-16 0.02085214367)
(-0.004226727741 -1.414829597e-16 -0.001929337261 -4.316054792e-16 0.0002049922775 0 -4.909206858e-05 -3.880373011e-16 0.02086486623)
(-0.004369383416 -2.483637562e-16 -0.001447136818 -4.256586626e-16 0.0001455467052 0 -3.424856746e-05 -3.907511432e-16 0.02087422191)
(-0.004470651885 -3.426125255e-16 -0.0009101425664 -4.139008996e-16 8.703396236e-05 0 -2.009877256e-05 -3.944364596e-16 0.02088031404)
(-0.004717110412 -1.082501704e-16 -0.0003132201071 -4.060847758e-16 3.015409648e-05 0 -6.550358111e-06 -3.95768068e-16 0.02088322467)
(0.002473857393 2.366697106e-15 -0.0001728683348 -6.10126364e-15 0.004028518074 0 -0.000200620557 -3.454919012e-16 0.02115059094)
(0.003308728819 2.945739291e-15 -0.000335288197 -4.144726507e-15 0.003533025977 0 -0.0005150564116 -9.772288739e-16 0.0210841038)
(0.003289481247 2.665304422e-15 -0.0004485931355 -3.566461495e-15 0.003393400419 6.393096841e-14 -0.0007699897938 -1.675134953e-15 0.02095227213)
(0.003385020474 2.792437041e-15 -0.0004800806061 -3.300985228e-15 0.003381284605 0 -0.0009609716242 -1.500850119e-15 0.02076246628)
(0.003402328277 1.154755574e-15 -0.0003925544913 -3.235549786e-15 0.003385009577 3.754337655e-14 -0.001053030874 -1.584067158e-15 0.02052400091)
(0.00336832017 4.367458697e-18 -0.0002054341704 -2.59083674e-15 0.003386338621 0 -0.001062600806 -1.24315568e-15 0.02024998273)
(0.003278529229 5.828628802e-16 2.270615654e-05 -2.267484598e-15 0.003378835475 0 -0.001040715835 -1.08830871e-15 0.01995639874)
(0.003127399446 -1.511533773e-16 0.0002627161676 -2.074348342e-15 0.003358472104 -2.448567956e-14 -0.001008480845 -1.060587469e-15 0.01966103917)
(0.002910774462 -8.771782155e-16 0.0005141371031 -1.74086187e-15 0.003323059181 2.22136144e-14 -0.000959686906 -1.304306943e-15 0.01938239822)
(0.00263028322 -6.020369401e-16 0.0007743659978 -1.506666016e-15 0.003270857546 2.043478147e-14 -0.0008923962314 -1.283548184e-15 0.01913622816)
(0.002299673613 -3.965769234e-16 0.001036416555 -1.327258749e-15 0.003201691917 0 -0.000812186598 -1.061679719e-15 0.01892582948)
(0.001930479971 -2.821879748e-16 0.001296230002 -1.20233212e-15 0.003116992041 0 -0.0007250730161 -9.358371523e-16 0.01874639731)
(0.001539584679 -9.755557077e-16 0.001552004142 -1.087752742e-15 0.003018160847 0 -0.0006369233996 -8.837399071e-16 0.01859558559)
(0.001154377788 -9.492835461e-16 0.001792614093 -9.099174225e-16 0.002908078682 0 -0.0005562755381 -9.892999204e-16 0.01847675617)
(0.0007981517776 4.265337134e-16 0.001980730626 -8.333595984e-16 0.002790469077 0 -0.0004885201771 -1.121262486e-15 0.01839630205)
(0.0004920039122 1.03798611e-15 0.002056126211 -8.59172755e-16 0.002669192234 0 -0.0004326855813 -1.27501796e-15 0.01836074228)
(0.000219526065 9.522967488e-16 0.00198055518 -8.575552497e-16 0.002548291786 0 -0.0003879784854 -1.454828768e-15 0.01837725935)
(-4.934593332e-05 8.565206831e-16 0.001741869164 -8.716781805e-16 0.002428208116 1.383873576e-14 -0.0003556499361 -1.665962974e-15 0.01844849132)
(-0.0002770903716 7.881196856e-16 0.001336945394 -8.672774924e-16 0.0023089421 1.34559417e-14 -0.0003341650655 -1.747684758e-15 0.01856456796)
(-0.0004218986477 7.488528797e-16 0.0008170477979 -8.585491523e-16 0.002193969669 1.312170645e-14 -0.0003252602441 -1.718350441e-15 0.0187091651)
(-0.0005030275383 7.292142601e-16 0.0002697806374 -8.456714958e-16 0.002086175259 0 -0.0003307084054 -1.58462205e-15 0.01886548782)
(-0.0005504224978 7.421478371e-16 -0.0002581846673 -8.533213337e-16 0.00198624521 0 -0.000344170608 -1.478062783e-15 0.01901943811)
(-0.0005824362474 3.672775035e-16 -0.0007608903034 -8.440805864e-16 0.00189404292 0 -0.0003584016998 -1.394987401e-15 0.01916556533)
(-0.0006201265764 -2.196992964e-17 -0.001239295979 -8.157611005e-16 0.001808813457 0 -0.0003687775434 -1.336052692e-15 0.01930362859)
(-0.0006856962989 -6.909602849e-17 -0.001690979759 -7.895383516e-16 0.00172914646 0 -0.0003714837528 -1.297003365e-15 0.01943379459)
(-0.0007935399795 1.996843697e-16 -0.002112003463 -7.593746923e-16 0.001653227465 0 -0.0003644949056 -1.22350469e-15 0.01955591931)
(-0.0009437634073 3.951761594e-16 -0.002499626041 -7.566467402e-16 0.001579295733 0 -0.0003485152991 -1.162995408e-15 0.01966999552)
(-0.001123065326 2.561306034e-16 -0.002853350952 -7.351467426e-16 0.001506097717 -1.158138868e-14 -0.0003265616944 -1.069665785e-15 0.01977637323)
(-0.001313086272 1.785543981e-16 -0.003174095508 -7.233292986e-16 0.00143307635 0 -0.0003023312917 -1.074630397e-15 0.01987564626)
(-0.001500382802 -4.729376894e-17 -0.00346256409 -7.125159636e-16 0.00136022676 0 -0.0002785456928 -1.110773661e-15 0.01996838884)
(-0.001680613975 -2.806561427e-16 -0.003718217274 -6.887779069e-16 0.001287761924 1.133025826e-14 -0.0002563656474 -1.160952398e-15 0.02005497339)
(-0.001855255444 -2.199480798e-16 -0.003939346239 -6.660014634e-16 0.001215862473 1.690873137e-14 -0.0002358095013 -1.181693876e-15 0.02013556879)
(-0.002027039431 -1.524420675e-16 -0.0041237669 -6.49551592e-16 0.001144618288 0 -0.0002164768671 -1.115326741e-15 0.02021024429)
(-0.002198380654 -7.916464926e-17 -0.004269296408 -6.283442252e-16 0.001074050029 0 -0.0001979375338 -1.040101869e-15 0.02027906146)
(-0.002371494076 -7.111898914e-18 -0.004373897006 -6.159671012e-16 0.001004128502 0 -0.0001798349491 -9.710910312e-16 0.02034210757)