/*--------------------------------*- C++ -*----------------------------------*\
  =========                 |
  \\      /  F ield         | OpenFOAM: The Open Source CFD Toolbox
   \\    /   O peration     | Website:  https://openfoam.org
    \\  /    A nd           | Version:  7
     \\/     M anipulation  |
\*---------------------------------------------------------------------------*/
FoamFile
{
    version     2.0;
    format      ascii;
    class       surfaceScalarField;
    location    "0.0006";
    object      phi;
}
// * * * * * * * * * * * * * * * * * * * * * * * * * * * * * * * * * * * * * //

dimensions      [1 0 -1 0 0 0 0];

internalField   nonuniform List<scalar> 
2258
(
-1.179465726e-14
4.593621405e-11
-4.662767767e-14
1.344162294e-10
-1.038376975e-13
2.179645528e-10
-1.831446937e-13
2.967858489e-10
-2.847581504e-13
3.710780461e-10
-4.090522093e-13
4.410322096e-10
-5.568736977e-13
5.068332725e-10
-7.299218517e-13
5.686603492e-10
-9.31235941e-13
6.26686767e-10
-1.104674463e-12
6.810190257e-10
-1.194631261e-12
7.318183402e-10
-1.181626965e-12
7.792769198e-10
-1.047463004e-12
8.234443419e-10
-7.731036774e-13
8.644977177e-10
-3.665679831e-13
9.026213669e-10
2.478514359e-14
9.379503618e-10
3.964169764e-13
9.706180861e-10
7.408816794e-13
1.000753076e-09
1.051815882e-12
1.028478601e-09
1.324848241e-12
1.053912462e-09
1.557970316e-12
1.077166628e-09
1.751788531e-12
1.098347186e-09
1.909163866e-12
1.117554698e-09
2.034639541e-12
1.134884504e-09
2.133536943e-12
1.150427394e-09
2.211613292e-12
1.164269635e-09
2.274950114e-12
1.176493338e-09
2.328840468e-12
1.187177638e-09
2.376967642e-12
1.196399089e-09
2.420616371e-12
1.204232537e-09
2.458485223e-12
1.210751183e-09
2.487046672e-12
1.21602654e-09
2.501853424e-12
1.220127447e-09
1.223119089e-09
-1.318742682e-14
4.594940148e-11
-5.20751193e-14
1.344551171e-10
-1.165177198e-13
2.180289954e-10
-2.072826718e-13
2.968766139e-10
-3.260941394e-13
3.711968576e-10
-4.53794244e-13
4.411599097e-10
-5.58826278e-13
5.069383046e-10
-6.234493346e-13
5.687249722e-10
-6.283836943e-13
6.266917014e-10
-5.546395271e-13
6.809452815e-10
-3.819451161e-13
7.316456458e-10
-8.843365476e-14
7.789834083e-10
2.480379698e-13
8.231078702e-10
5.800916019e-13
8.641656641e-10
9.026434143e-13
9.022988151e-10
1.208256101e-12
9.376447491e-10
1.490415639e-12
9.703359266e-10
1.743993534e-12
1.000499498e-09
1.965776967e-12
1.028256817e-09
2.15488731e-12
1.053723352e-09
2.312452491e-12
1.077009063e-09
2.441038795e-12
1.0982186e-09
2.544704569e-12
1.117451032e-09
2.627842489e-12
1.134801366e-09
2.695460388e-12
1.150359776e-09
2.752439355e-12
1.164212656e-09
2.802599967e-12
1.176443177e-09
2.847878212e-12
1.187132359e-09
2.887825546e-12
1.196359142e-09
2.91980938e-12
1.204200553e-09
2.939849321e-12
1.210731144e-09
2.944146455e-12
1.216022243e-09
2.930249362e-12
1.220141345e-09
2.897379153e-12
1.223151959e-09
2.845767043e-12
1.225114551e-09
2.775833097e-12
1.226086946e-09
2.687906564e-12
1.226124567e-09
2.582177631e-12
1.225280478e-09
2.458740168e-12
1.223605494e-09
2.317534527e-12
1.221148289e-09
2.158489321e-12
1.217955371e-09
1.981701835e-12
1.214071019e-09
1.787553439e-12
1.209537315e-09
1.576672651e-12
1.204394362e-09
1.349771241e-12
1.198680314e-09
1.107566624e-12
1.192431651e-09
8.507826999e-13
1.185683043e-09
5.801285098e-13
1.17846771e-09
2.963184637e-13
1.170817161e-09
1.162761567e-09
-1.014443738e-14
4.595954592e-11
-3.779533038e-14
1.34482768e-10
-7.579936769e-14
2.180669994e-10
-1.136996684e-13
2.969145142e-10
-1.381637357e-13
3.712213216e-10
-1.340106133e-13
4.411557566e-10
-8.366678223e-14
5.068879607e-10
3.168091843e-14
5.686096245e-10
2.332471621e-13
6.264901351e-10
4.835795169e-13
6.806949491e-10
7.447256242e-13
7.313844997e-10
1.0133308e-12
7.787148031e-10
1.283565077e-12
8.22837636e-10
1.547682897e-12
8.639015462e-10
1.79874612e-12
9.020477519e-10
2.030994101e-12
9.374125012e-10
2.240244854e-12
9.701266758e-10
2.424319234e-12
1.000315424e-09
2.582487331e-12
1.028098649e-09
2.715910146e-12
1.053589929e-09
2.827060296e-12
1.076897913e-09
2.918820897e-12
1.098126839e-09
2.994989886e-12
1.117374863e-09
3.059814792e-12
1.134736541e-09
3.117022731e-12
1.150302568e-09
3.16897807e-12
1.164160701e-09
3.215938406e-12
1.176396217e-09
3.256115318e-12
1.187092182e-09
3.286071614e-12
1.196329185e-09
3.30191409e-12
1.204184711e-09
3.300638372e-12
1.210732419e-09
3.280903233e-12
1.216041978e-09
3.242735475e-12
1.220179512e-09
3.186520812e-12
1.223208173e-09
3.112584316e-12
1.225188488e-09
3.021116257e-12
1.226178414e-09
2.912204984e-12
1.226233478e-09
2.78582688e-12
1.225406856e-09
2.641850082e-12
1.223749471e-09
2.48022529e-12
1.221309914e-09
2.301130322e-12
1.218134466e-09
2.105016201e-12
1.214267133e-09
1.892502817e-12
1.209749829e-09
1.664244071e-12
1.204622621e-09
1.420889593e-12
1.198923669e-09
1.1630985e-12
1.192689442e-09
8.915089428e-13
1.185954633e-09
6.06761694e-13
1.178752457e-09
3.093869811e-13
1.171114535e-09
1.163070954e-09
4.954564497e-15
4.595459135e-11
2.15822698e-14
1.344661403e-10
5.662163857e-14
2.180319601e-10
1.209658437e-13
2.9685017e-10
2.288061552e-13
3.711134813e-10
3.757098243e-13
4.410088529e-10
5.46415056e-13
5.067172555e-10
7.394006469e-13
5.684166389e-10
9.52009e-13
6.262775268e-10
1.179693433e-12
6.804672647e-10
1.415808033e-12
7.311483851e-10
1.653920387e-12
7.784766908e-10
1.887000229e-12
8.226045561e-10
2.108714548e-12
8.636798319e-10
2.314794302e-12
9.018416721e-10
2.502349719e-12
9.372249457e-10
2.669541235e-12
9.699594843e-10
2.815924799e-12
1.00016904e-09
2.942589616e-12
1.027971984e-09
3.051047167e-12
1.053481472e-09
3.143927916e-12
1.076805032e-09
3.224916867e-12
1.09804585e-09
3.29710488e-12
1.117302675e-09
3.363017732e-12
1.134670628e-09
3.423560218e-12
1.150242026e-09
3.477767705e-12
1.164106493e-09
3.522970981e-12
1.176351013e-09
3.555589309e-12
1.187059564e-09
3.572427426e-12
1.196312347e-09
3.571556818e-12
1.204185582e-09
3.552466201e-12
1.21075151e-09
3.515377535e-12
1.216079067e-09
3.460618821e-12
1.220234271e-09
3.388425203e-12
1.223280367e-09
3.298912504e-12
1.225278e-09
3.192105671e-12
1.226285221e-09
3.0678743e-12
1.22635771e-09
2.926073532e-12
1.225548656e-09
2.76671192e-12
1.223908832e-09
2.590070796e-12
1.221486555e-09
2.396668228e-12
1.218327868e-09
2.187102593e-12
1.214476699e-09
1.961977126e-12
1.209974954e-09
1.721897357e-12
1.204862701e-09
1.46746104e-12
1.199178105e-09
1.199267177e-12
1.192957636e-09
9.178677816e-13
1.186236032e-09
6.238213724e-13
1.179046504e-09
3.176869551e-13
1.17142067e-09
1.163388641e-09
1.776797413e-14
4.593682338e-11
6.99309971e-14
1.344139773e-10
1.54943733e-13
2.179469473e-10
2.713662745e-13
2.967337474e-10
4.170605243e-13
3.709677871e-10
5.894348283e-13
4.408364786e-10
7.846011629e-13
5.065220892e-10
9.977695443e-13
5.682034705e-10
1.223564617e-12
6.260517317e-10
1.455460505e-12
6.802353688e-10
1.687628981e-12
7.309162166e-10
1.914578796e-12
7.782497409e-10
2.130445619e-12
8.223886893e-10
2.332923597e-12
8.634773539e-10
2.51998625e-12
9.016546095e-10
2.689759232e-12
9.370551728e-10
2.842034213e-12
9.698072093e-10
2.977143923e-12
1.00003393e-09
3.096881259e-12
1.027852247e-09
3.203821037e-12
1.053374532e-09
3.300629864e-12
1.076708223e-09
3.389669686e-12
1.09795681e-09
3.472213888e-12
1.117220131e-09
3.547994018e-12
1.134594848e-09
3.615150585e-12
1.150174869e-09
3.670657362e-12
1.164050987e-09
3.711343538e-12
1.176310327e-09
3.734902216e-12
1.187036005e-09
3.74036128e-12
1.196306888e-09
3.727776322e-12
1.204198166e-09
3.697471157e-12
1.210781815e-09
3.649711632e-12
1.216126826e-09
3.58465211e-12
1.220299331e-09
3.50235332e-12
1.223362666e-09
3.402766345e-12
1.225377587e-09
3.285729759e-12
1.226402258e-09
3.151144726e-12
1.226492295e-09
2.999120231e-12
1.225700681e-09
2.830024339e-12
1.224077928e-09
2.644393884e-12
1.221672186e-09
2.442800609e-12
1.218529461e-09
2.225806715e-12
1.214693693e-09
1.993993061e-12
1.210206768e-09
1.74789487e-12
1.205108799e-09
1.488038864e-12
1.199437961e-09
1.214911175e-12
1.193230763e-09
9.290398585e-13
1.186521904e-09
6.309147301e-13
1.179344629e-09
3.21072731e-13
1.171730512e-09
1.163709714e-09
2.127302611e-14
4.591555035e-11
8.327663554e-14
1.343519737e-10
1.827687784e-13
2.178474552e-10
3.159238991e-13
2.966005923e-10
4.782308658e-13
3.708054801e-10
6.644116926e-13
4.406502978e-10
8.690371677e-13
5.063174637e-10
1.086006327e-12
5.679865014e-10
1.309853438e-12
6.258278846e-10
1.534653826e-12
6.800105684e-10
1.756744248e-12
7.306941262e-10
1.970780436e-12
7.780357048e-10
2.174364551e-12
8.221851052e-10
2.365855524e-12
8.63285863e-10
2.543186858e-12
9.014772782e-10
2.705497676e-12
9.368928619e-10
2.853377939e-12
9.696593291e-10
2.988647895e-12
9.998986603e-10
3.113143028e-12
1.027727752e-09
3.228840801e-12
1.053258834e-09
3.337133037e-12
1.076599931e-09
3.438235736e-12
1.097855708e-09
3.530962566e-12
1.117127404e-09
3.612813902e-12
1.134512997e-09
3.680827924e-12
1.150106855e-09
3.732512391e-12
1.163999302e-09
3.76649999e-12
1.17627634e-09
3.782588358e-12
1.187019917e-09
3.781029918e-12
1.196308447e-09
3.762107215e-12
1.204217089e-09
3.726015174e-12
1.210817907e-09
3.67285324e-12
1.216179988e-09
3.602637259e-12
1.220369547e-09
3.515232321e-12
1.223450071e-09
3.410476529e-12
1.225482343e-09
3.288333534e-12
1.226524401e-09
3.149014743e-12
1.226631614e-09
2.992955316e-12
1.22585674e-09
2.820676216e-12
1.224250207e-09
2.632705288e-12
1.221860157e-09
2.42956575e-12
1.218732601e-09
2.211782718e-12
1.214911476e-09
1.979873021e-12
1.210438677e-09
1.734318649e-12
1.205354353e-09
1.475589997e-12
1.19969669e-09
1.204170651e-12
1.193502183e-09
9.205029536e-13
1.186805571e-09
6.249467894e-13
1.179640185e-09
3.179465269e-13
1.172037512e-09
1.164027661e-09
2.130736062e-14
4.589424299e-11
8.315115994e-14
1.342901299e-10
1.815870074e-13
2.177490194e-10
3.11881135e-13
2.964702982e-10
4.692257033e-13
3.706481355e-10
6.478192359e-13
4.404717043e-10
8.418963481e-13
5.061233866e-10
1.046834351e-12
5.677815634e-10
1.256478318e-12
6.256182406e-10
1.467261036e-12
6.797997857e-10
1.674595498e-12
7.304867917e-10
1.87514037e-12
7.778351599e-10
2.066936096e-12
8.219933095e-10
2.247642829e-12
8.631051562e-10
2.416416378e-12
9.013085046e-10
2.574273413e-12
9.367350049e-10
2.722192332e-12
9.695114102e-10
2.861510819e-12
9.997593418e-10
2.993439537e-12
1.027595823e-09
3.118384337e-12
1.053133889e-09
3.235469894e-12
1.076482846e-09
3.342741435e-12
1.097748436e-09
3.437634675e-12
1.117032511e-09
3.517716601e-12
1.134432915e-09
3.581326095e-12
1.150043246e-09
3.627828662e-12
1.1639528e-09
3.657294638e-12
1.176246874e-09
3.669973908e-12
1.187007238e-09
3.666066217e-12
1.196312354e-09
3.645687065e-12
1.204237468e-09
3.60886967e-12
1.210854724e-09
3.555546768e-12
1.216233311e-09
3.485530789e-12
1.220439563e-09
3.398669478e-12
1.223536932e-09
3.294987754e-12
1.225586025e-09
3.174751141e-12
1.226644637e-09
3.03839818e-12
1.226767967e-09
2.886382303e-12
1.226008756e-09
2.719148161e-12
1.224417442e-09
2.537169618e-12
1.222042135e-09
2.340893224e-12
1.218928877e-09
2.130770846e-12
1.215121598e-09
1.907187315e-12
1.210662261e-09
1.670578516e-12
1.205590962e-09
1.421366248e-12
1.199945902e-09
1.159946299e-12
1.193763603e-09
8.866772922e-13
1.18707884e-09
6.019799467e-13
1.179924882e-09
3.062569786e-13
1.172333235e-09
1.164333918e-09
1.955371109e-14
4.587468928e-11
7.627617224e-14
1.342334074e-10
1.664532256e-13
2.176588423e-10
2.854825586e-13
2.963512689e-10
4.286066116e-13
3.705050115e-10
5.910261237e-13
4.403092848e-10
7.671588405e-13
5.059472539e-10
9.526011907e-13
5.67596121e-10
1.142451573e-12
6.254283902e-10
1.332864043e-12
6.796093732e-10
1.519679361e-12
7.302999764e-10
1.701093274e-12
7.77653746e-10
1.875091768e-12
8.21819311e-10
2.04115828e-12
8.629390897e-10
2.199903063e-12
9.011497598e-10
2.35185434e-12
9.365830536e-10
2.497796649e-12
9.693654679e-10
2.637999906e-12
9.996191385e-10
2.771749618e-12
1.027462074e-09
2.897550684e-12
1.053008088e-09
3.013251379e-12
1.076367145e-09
3.116509936e-12
1.097645178e-09
3.205426027e-12
1.116943595e-09
3.27897823e-12
1.134359362e-09
3.337002005e-12
1.149985222e-09
3.379603773e-12
1.163910198e-09
3.406947406e-12
1.17621953e-09
3.419092647e-12
1.186995093e-09
3.416036784e-12
1.19631541e-09
3.397708525e-12
1.204255797e-09
3.363900575e-12
1.210888532e-09
3.314367162e-12
1.216282845e-09
3.248957167e-12
1.220504973e-09
3.167735067e-12
1.223618154e-09
3.070975342e-12
1.225682785e-09
2.959050995e-12
1.226756562e-09
2.832348427e-12
1.226894669e-09
2.691243137e-12
1.226149862e-09
2.536126151e-12
1.224572559e-09
2.367368047e-12
1.222210893e-09
2.185325696e-12
1.21911092e-09
1.990281138e-12
1.215316643e-09
1.782543355e-12
1.210869999e-09
1.56241664e-12
1.205811089e-09
1.330182711e-12
1.200178136e-09
1.086122916e-12
1.194007662e-09
8.305976604e-13
1.187334366e-09
5.640905043e-13
1.18019139e-09
2.870733864e-13
1.172610252e-09
1.164620991e-09
1.699684123e-14
4.585769244e-11
6.626289778e-14
1.341841414e-10
1.445095107e-13
2.175805957e-10
2.477636871e-13
2.962480147e-10
3.715076062e-13
3.703812676e-10
5.112895966e-13
4.401695028e-10
6.62510901e-13
5.057960326e-10
8.205088272e-13
5.674381231e-10
9.82004623e-13
6.252668944e-10
1.143441968e-12
6.794479359e-10
1.30328285e-12
7.301401355e-10
1.45991436e-12
7.774971145e-10
1.613076859e-12
8.216661485e-10
1.762811744e-12
8.627893548e-10
1.90928101e-12
9.010032906e-10
2.052494066e-12
9.364398406e-10
2.191711636e-12
9.692262503e-10
2.32570724e-12
9.994851429e-10
2.452653378e-12
1.027335127e-09
2.570327432e-12
1.052890414e-09
2.676638084e-12
1.076260834e-09
2.770376485e-12
1.097551439e-09
2.851071596e-12
1.1168629e-09
2.918617729e-12
1.134291816e-09
2.973005901e-12
1.149930834e-09
3.014199204e-12
1.163869005e-09
3.042116458e-12
1.176191613e-09
3.056618393e-12
1.186980591e-09
3.057488384e-12
1.19631454e-09
3.044393281e-12
1.204268892e-09
3.017006927e-12
1.210915919e-09
2.975122688e-12
1.216324729e-09
2.918792894e-12
1.220561302e-09
2.848248189e-12
1.223688699e-09
2.763763098e-12
1.22576727e-09
2.665608875e-12
1.226854716e-09
2.554059642e-12
1.227006218e-09
2.429407217e-12
1.226274514e-09
2.291939331e-12
1.224710026e-09
2.141879597e-12
1.222360953e-09
1.979466217e-12
1.219273333e-09
1.804934382e-12
1.215491174e-09
1.618511377e-12
1.211056422e-09
1.420326201e-12
1.206009274e-09
1.210561974e-12
1.2003879e-09
9.894889072e-13
1.194228735e-09
7.574555548e-13
1.187566399e-09
5.148490308e-13
1.180433996e-09
2.62192362e-13
1.172862909e-09
1.164883183e-09
1.362390285e-14
4.584406854e-11
5.305256499e-14
1.341447127e-10
1.154762646e-13
2.17518172e-10
1.976072355e-13
2.961658837e-10
2.957676302e-13
3.702831072e-10
4.061730416e-13
4.400590974e-10
5.255513816e-13
5.056766542e-10
6.510773134e-13
5.673125972e-10
7.8022296e-13
6.251377488e-10
9.117236471e-13
6.793164352e-10
1.044374753e-12
7.300074844e-10
1.177864574e-12
7.773636246e-10
1.311712173e-12
8.215323009e-10
1.445627905e-12
8.626554391e-10
1.578687067e-12
9.008702314e-10
1.709776298e-12
9.363087513e-10
1.837317534e-12
9.690987091e-10
1.95912685e-12
9.993633336e-10
2.073305401e-12
1.027220949e-09
2.178452291e-12
1.052785267e-09
2.273722105e-12
1.076165564e-09
2.358738667e-12
1.097466423e-09
2.433311483e-12
1.116788327e-09
2.497172463e-12
1.134227955e-09
2.550117615e-12
1.149877889e-09
2.591968478e-12
1.163827154e-09
2.622430795e-12
1.17616115e-09
2.641101318e-12
1.18696192e-09
2.647538708e-12
1.196308103e-09
2.641371707e-12
1.204275059e-09
2.622413633e-12
1.210934877e-09
2.59067671e-12
1.216356466e-09
2.546291465e-12
1.220605688e-09
2.489417326e-12
1.223745573e-09
2.420202126e-12
1.225836485e-09
2.338782735e-12
1.226936135e-09
2.245304225e-12
1.227099697e-09
2.139924537e-12
1.226379894e-09
2.022750284e-12
1.224827201e-09
1.893919963e-12
1.222489783e-09
1.753548323e-12
1.219413705e-09
1.601781716e-12
1.215642941e-09
1.438733833e-12
1.21121947e-09
1.264563939e-12
1.206183444e-09
1.079438265e-12
1.200573026e-09
8.835734334e-13
1.1944246e-09
6.772920033e-13
1.18777268e-09
4.609792717e-13
1.180650309e-09
2.350426445e-13
1.173088846e-09
1.165118226e-09
9.772838513e-15
4.58342957e-11
3.807659024e-14
1.341164089e-10
8.299560472e-14
2.17473253e-10
1.422883055e-13
2.96106591e-10
2.136148694e-13
3.702117806e-10
2.949521902e-13
4.3997776e-10
3.843938329e-13
5.055872126e-10
4.803695326e-13
5.672166215e-10
5.819134061e-13
6.250362049e-10
6.881305785e-13
6.79210218e-10
7.983256408e-13
7.298972893e-10
9.118737455e-13
7.772500765e-10
1.02787687e-12
8.214162977e-10
1.145174479e-12
8.625381415e-10
1.262431723e-12
9.007529741e-10
1.377635031e-12
9.36193548e-10
1.489081815e-12
9.689872623e-10
1.595298496e-12
9.992571169e-10
1.69518807e-12
1.027121059e-09
1.787986038e-12
1.052692469e-09
1.873414397e-12
1.076080136e-09
1.951147137e-12
1.09738869e-09
2.020820216e-12
1.116718654e-09
2.082071922e-12
1.134166704e-09
2.134509603e-12
1.149825451e-09
2.17769045e-12
1.163783973e-09
2.211016028e-12
1.176127825e-09
2.233923795e-12
1.186939012e-09
2.245989466e-12
1.196296037e-09
2.246994249e-12
1.204274054e-09
2.236903633e-12
1.210944967e-09
2.215773644e-12
1.216377596e-09
2.18363918e-12
1.220637822e-09
2.140532078e-12
1.22378868e-09
2.086513476e-12
1.225890503e-09
2.021637184e-12
1.227001011e-09
1.945943181e-12
1.227175391e-09
1.859414231e-12
1.226466423e-09
1.762057222e-12
1.224924558e-09
1.653892575e-12
1.222597948e-09
1.534917372e-12
1.21953268e-09
1.40513723e-12
1.215772721e-09
1.264622299e-12
1.211359984e-09
1.113571313e-12
1.206334495e-09
9.52222031e-13
1.200734375e-09
7.807497472e-13
1.194596073e-09
5.994426218e-13
1.187953987e-09
4.086402911e-13
1.180841111e-09
2.087019573e-13
1.173288784e-09
1.165326928e-09
6.659834205e-15
4.582763586e-11
2.602798262e-14
1.340970408e-10
5.707691192e-14
2.17442204e-10
9.872054466e-14
2.960649474e-10
1.499245141e-13
3.701605766e-10
2.09714326e-13
4.399179702e-10
2.772162656e-13
5.055197106e-10
3.517303459e-13
5.671421074e-10
4.326806385e-13
6.249552546e-10
5.192755897e-13
6.791236231e-10
6.109260922e-13
7.298056388e-10
7.06480148e-13
7.771545225e-10
8.048969497e-13
8.213178809e-10
9.045202362e-13
8.624385182e-10
1.003871453e-12
9.006536229e-10
1.101584776e-12
9.360958347e-10
1.19633862e-12
9.688925084e-10
1.287437875e-12
9.991660177e-10
1.374377164e-12
1.02703412e-09
1.456660406e-12
1.052610186e-09
1.533807834e-12
1.076002989e-09
1.605226272e-12
1.097317271e-09
1.670417278e-12
1.116653463e-09
1.728952646e-12
1.134108168e-09
1.780228522e-12
1.149774175e-09
1.823597723e-12
1.163740604e-09
1.858461653e-12
1.176092961e-09
1.884371791e-12
1.186913102e-09
1.901060173e-12
1.196279349e-09
1.908339737e-12
1.204266774e-09
1.906108195e-12
1.210947199e-09
1.89427722e-12
1.216389427e-09
1.87278416e-12
1.220659315e-09
1.84156913e-12
1.223819895e-09
1.800584083e-12
1.225931488e-09
1.749784879e-12
1.227051811e-09
1.689120208e-12
1.227236056e-09
1.618536357e-12
1.226537006e-09
1.537973746e-12
1.22500512e-09
1.447253549e-12
1.222688668e-09
1.346323263e-12
1.21963361e-09
1.235192382e-12
1.215883852e-09
1.113947181e-12
1.21148123e-09
9.827208354e-13
1.206465721e-09
8.417698399e-13
1.200875326e-09
6.913441124e-13
1.194746498e-09
5.316510248e-13
1.188113681e-09
3.629800455e-13
1.181009782e-09
1.856520389e-13
1.173466112e-09
1.16551258e-09
4.813439977e-15
4.582282242e-11
1.888719555e-14
1.34082967e-10
4.171070816e-14
2.174193805e-10
7.281793099e-14
2.960338402e-10
1.117988516e-13
3.701215957e-10
1.582408339e-13
4.398715283e-10
2.117489699e-13
5.054662025e-10
2.71995014e-13
5.670818614e-10
3.383858639e-13
6.248888638e-10
4.10292107e-13
6.790517168e-10
4.868246361e-13
7.297291063e-10
5.668768924e-13
7.770744702e-10
6.492215324e-13
8.212355363e-10
7.327795927e-13
8.623549602e-10
8.162551371e-13
9.005701474e-10
8.990437038e-13
9.360130461e-10
9.805176581e-13
9.688110345e-10
1.060039547e-12
9.990864958e-10
1.136942173e-12
1.026957217e-09
1.210815e-12
1.052536313e-09
1.281120106e-12
1.075932684e-09
1.347279624e-12
1.097251112e-09
1.408665732e-12
1.116592077e-09
1.464469952e-12
1.134052364e-09
1.51397391e-12
1.149724671e-09
1.556540944e-12
1.163698037e-09
1.59176307e-12
1.176057739e-09
1.619362401e-12
1.186885503e-09
1.639118106e-12
1.196259593e-09
1.650838699e-12
1.204255054e-09
1.654329919e-12
1.210943708e-09
1.649396991e-12
1.21639436e-09
1.635863978e-12
1.220672848e-09
1.613585653e-12
1.223842174e-09
1.582386377e-12
1.225962688e-09
1.542125527e-12
1.227092071e-09
1.492655644e-12
1.227285526e-09
1.43387292e-12
1.226595789e-09
1.36564154e-12
1.225073352e-09
1.287843604e-12
1.222766466e-09
1.200372479e-12
1.219721081e-09
1.103262744e-12
1.215980962e-09
9.966068802e-13
1.211587886e-09
8.805665189e-13
1.206581762e-09
7.553337914e-13
1.201000559e-09
6.212027112e-13
1.194880629e-09
4.783259173e-13
1.188256557e-09
3.269879719e-13
1.18116112e-09
1.67466477e-13
1.173625633e-09
1.165680046e-09
3.905559479e-15
4.581891686e-11
1.536772004e-14
1.340715049e-10
3.409199331e-14
2.174006563e-10
5.98586511e-14
2.960080735e-10
9.246194379e-14
3.700889924e-10
1.316605369e-13
4.398323297e-10
1.772199468e-13
5.054206431e-10
2.28775868e-13
5.670303054e-10
2.856806436e-13
6.24831959e-10
3.473774802e-13
6.7899002e-10
4.128150845e-13
7.296636687e-10
4.813144367e-13
7.770059709e-10
5.518357701e-13
8.21165015e-10
6.238094171e-13
8.622829865e-10
6.966620986e-13
9.004972947e-10
7.696093382e-13
9.359400989e-10
8.422141523e-13
9.687384297e-10
9.139725778e-13
9.990147374e-10
9.843099107e-13
1.02688688e-09
1.052488939e-12
1.052468134e-09
1.117882235e-12
1.07586729e-09
1.179896662e-12
1.097189097e-09
1.237786267e-12
1.116534187e-09
1.290821639e-12
1.133999329e-09
1.338344893e-12
1.149677148e-09
1.37982657e-12
1.163656555e-09
1.414926772e-12
1.176022639e-09
1.443351658e-12
1.186857078e-09
1.464826233e-12
1.196238118e-09
1.479138912e-12
1.204240741e-09
1.486073383e-12
1.210936773e-09
1.485407897e-12
1.216395025e-09
1.476892789e-12
1.220681363e-09
1.460235084e-12
1.223858831e-09
1.435231787e-12
1.225987691e-09
1.401676355e-12
1.227125627e-09
1.359352011e-12
1.22732785e-09
1.308041601e-12
1.2266471e-09
1.247614073e-12
1.225133779e-09
1.178085056e-12
1.222835995e-09
1.099359173e-12
1.219799807e-09
1.011485256e-12
1.216068836e-09
9.145903662e-13
1.21168478e-09
8.088354213e-13
1.206687517e-09
6.94415882e-13
1.201114979e-09
5.715518652e-13
1.195003493e-09
4.404621168e-13
1.188387647e-09
3.013876328e-13
1.181300195e-09
1.545155789e-13
1.173772505e-09
1.165834562e-09
3.587275381e-15
4.581532959e-11
1.412080369e-14
1.340609713e-10
3.133651704e-14
2.173834405e-10
5.503054852e-14
2.959843795e-10
8.494839197e-14
3.700590746e-10
1.208368694e-13
4.397964412e-10
1.624231697e-13
5.053790568e-10
2.091539755e-13
5.669835746e-10
2.605400859e-13
6.247805729e-10
3.159615208e-13
6.789345986e-10
3.748083403e-13
7.296048219e-10
4.364567728e-13
7.769443224e-10
5.005103727e-13
8.211009614e-10
5.661772805e-13
8.622173196e-10
6.331515121e-13
9.004303205e-10
7.009192499e-13
9.358723312e-10
7.687427356e-13
9.686706062e-10
8.361042402e-13
9.989473759e-10
9.025207511e-13
1.026820464e-09
9.673310749e-13
1.052403324e-09
1.029670529e-12
1.075804951e-09
1.088759098e-12
1.097130009e-09
1.143879851e-12
1.116479066e-09
1.194539821e-12
1.133948669e-09
1.240278567e-12
1.149631409e-09
1.280714426e-12
1.163616119e-09
1.315406989e-12
1.175987946e-09
1.344010629e-12
1.186828474e-09
1.366219513e-12
1.196215909e-09
1.381738914e-12
1.204225222e-09
1.390291774e-12
1.21092822e-09
1.391630082e-12
1.216393687e-09
1.38550207e-12
1.220687491e-09
1.371622076e-12
1.223872711e-09
1.349689047e-12
1.226009624e-09
1.319424854e-12
1.227155891e-09
1.280592256e-12
1.227366682e-09
1.233026888e-12
1.226694665e-09
1.176641493e-12
1.225190165e-09
1.111432357e-12
1.222901204e-09
1.037443973e-12
1.219873796e-09
9.547365931e-13
1.216151543e-09
8.634533554e-13
1.211776064e-09
7.637624496e-13
1.206787208e-09
6.55856564e-13
1.201222884e-09
5.399449779e-13
1.195119405e-09
4.162549173e-13
1.188511337e-09
2.849354239e-13
1.181431514e-09
1.461310847e-13
1.17391131e-09
1.165980693e-09
3.576440436e-15
4.581175315e-11
1.406432958e-14
1.340504835e-10
3.112947149e-14
2.173663754e-10
5.44501126e-14
2.959610588e-10
8.369223647e-14
3.700298325e-10
1.185730115e-13
4.397615604e-10
1.586449763e-13
5.053389848e-10
2.033991482e-13
5.669388205e-10
2.525344795e-13
6.247314376e-10
3.053534161e-13
6.788817796e-10
3.616512618e-13
7.29548524e-10
4.207244799e-13
7.768852492e-10
4.82248093e-13
8.210394378e-10
5.457159956e-13
8.621538517e-10
6.104610995e-13
9.003655754e-10
6.761452433e-13
9.35806647e-10
7.42198849e-13
9.686045526e-10
8.078567143e-13
9.98881718e-10
8.724249797e-13
1.026755895e-09
9.353016005e-13
1.052340447e-09
9.957416132e-13
1.075744511e-09
1.052956075e-12
1.097072794e-09
1.10636189e-12
1.11642566e-09
1.15549694e-12
1.133899534e-09
1.199980283e-12
1.149586926e-09
1.239476812e-12
1.163576623e-09
1.273591798e-12
1.175953831e-09
1.301901654e-12
1.186800165e-09
1.324057873e-12
1.196193753e-09
1.339735311e-12
1.204209544e-09
1.348594026e-12
1.210919362e-09
1.35032756e-12
1.216391953e-09
1.344665355e-12
1.220693153e-09
1.331392656e-12
1.223885984e-09
1.310105448e-12
1.226030911e-09
1.28054402e-12
1.227185453e-09
1.24253215e-12
1.227404694e-09
1.195967135e-12
1.22674123e-09
1.14080677e-12
1.225245325e-09
1.077089474e-12
1.222964922e-09
1.004912155e-12
1.219945973e-09
9.24379205e-13
1.216232076e-09
8.356417667e-13
1.211864801e-09
7.388908444e-13
1.206883958e-09
6.343443717e-13
1.201327431e-09
5.221445379e-13
1.195231605e-09
4.024704661e-13
1.188631011e-09
2.754676651e-13
1.181558517e-09
1.412883074e-13
1.174045489e-09
1.166121981e-09
3.689362127e-15
4.580806379e-11
1.448222543e-14
1.340396906e-10
3.197193163e-14
2.173488857e-10
5.575377182e-14
2.95937277e-10
8.548451053e-14
3.700001017e-10
1.20750034e-13
4.397262949e-10
1.610328217e-13
5.05298702e-10
2.060504951e-13
5.668938028e-10
2.552664603e-13
6.246822216e-10
3.083033875e-13
6.788287427e-10
3.646646138e-13
7.294921628e-10
4.239726384e-13
7.768259412e-10
4.855697117e-13
8.209778407e-10
5.491984647e-13
8.620902229e-10
6.141737093e-13
9.003006001e-10
6.798586903e-13
9.35740962e-10
7.457956442e-13
9.685386156e-10
8.112126273e-13
9.98816301e-10
8.752765609e-13
1.026691831e-09
9.37259348e-13
1.052278464e-09
9.966437265e-13
1.075685126e-09
1.052892005e-12
1.097016546e-09
1.105415641e-12
1.116373137e-09
1.153764278e-12
1.133851185e-09
1.197504184e-12
1.149543186e-09
1.236220923e-12
1.163537906e-09
1.269626346e-12
1.175920426e-09
1.297331751e-12
1.186772459e-09
1.318893162e-12
1.196172192e-09
1.333941856e-12
1.204194496e-09
1.342145666e-12
1.210911158e-09
1.343183533e-12
1.216390916e-09
1.33674203e-12
1.220699595e-09
1.322522198e-12
1.223900204e-09
1.300266208e-12
1.226053167e-09
1.269748511e-12
1.22721597e-09
1.230857729e-12
1.227443585e-09
1.183551215e-12
1.226788536e-09
1.12785955e-12
1.225301017e-09
1.063855126e-12
1.223028926e-09
9.916405199e-13
1.220018187e-09
9.113682254e-13
1.216312348e-09
8.232324675e-13
1.211952937e-09
7.274429788e-13
1.206979748e-09
6.241809001e-13
1.201430693e-09
5.134786356e-13
1.195342307e-09
3.955765291e-13
1.188748913e-09
2.706242664e-13
1.181683469e-09
1.387576652e-13
1.174177356e-09
1.166260739e-09
3.849339274e-15
4.580421445e-11
1.51005616e-14
1.340284394e-10
3.332048691e-14
2.173306658e-10
5.80867432e-14
2.959125107e-10
8.897788122e-14
3.699692106e-10
1.254626339e-13
4.396898101e-10
1.67154388e-13
5.052570103e-10
2.136680758e-13
5.668472891e-10
2.643987011e-13
6.24631491e-10
3.190842874e-13
6.787740571e-10
3.770370999e-13
7.2943421e-10
4.379727736e-13
7.767650055e-10
5.012219736e-13
8.209145915e-10
5.662650098e-13
8.620251799e-10
6.326099577e-13
9.002342552e-10
6.994251637e-13
9.356741468e-10
7.660164631e-13
9.684720243e-10
8.31798943e-13
9.987505185e-10
8.959618853e-13
1.026627668e-09
9.578586034e-13
1.052216568e-09
1.016948808e-12
1.075626036e-09
1.072840366e-12
1.096960655e-09
1.125023725e-12
1.116320953e-09
1.172950004e-12
1.133803259e-09
1.216190747e-12
1.149499945e-09
1.254330368e-12
1.163499766e-09
1.286974261e-12
1.175887782e-09
1.313807522e-12
1.186745626e-09
1.334375516e-12
1.196151624e-09
1.34829476e-12
1.204180576e-09
1.355224926e-12
1.210904228e-09
1.354817536e-12
1.216391323e-09
1.346733699e-12
1.220707679e-09
1.33071518e-12
1.223916222e-09
1.306601591e-12
1.226077281e-09
1.274233471e-12
1.227248338e-09
1.233570295e-12
1.227484248e-09
1.184637562e-12
1.226837469e-09
1.127504832e-12
1.225358149e-09
1.062287873e-12
1.223094143e-09
9.890638748e-13
1.220091411e-09
9.080798892e-13
1.216393332e-09
8.19540185e-13
1.212041477e-09
7.236082298e-13
1.20707568e-09
6.203561941e-13
1.201533945e-09
5.099336155e-13
1.19545273e-09
3.925532649e-13
1.188866294e-09
2.683611286e-13
1.181807661e-09
1.374778581e-13
1.174308239e-09
1.166398217e-09
4.044283911e-15
4.580017016e-11
1.586903202e-14
1.340166146e-10
3.50113169e-14
2.173115235e-10
6.100993199e-14
2.958865121e-10
9.335201752e-14
3.699368685e-10
1.315450738e-13
4.396516171e-10
1.751923831e-13
5.05213363e-10
2.237276582e-13
5.667987538e-10
2.766987329e-13
6.245785199e-10
3.336081936e-13
6.787171477e-10
3.939087517e-13
7.293739094e-10
4.570435306e-13
7.767018707e-10
5.224856416e-13
8.208491494e-10
5.894645794e-13
8.61958201e-10
6.574293844e-13
9.001662904e-10
7.255833795e-13
9.356059928e-10
7.931553382e-13
9.684044523e-10
8.595464934e-13
9.986841274e-10
9.241906223e-13
1.026563024e-09
9.86434679e-13
1.052154324e-09
1.04574744e-12
1.075566723e-09
1.101626992e-12
1.096904775e-09
1.15367996e-12
1.1162689e-09
1.2013449e-12
1.133755594e-09
1.244164618e-12
1.149457126e-09
1.281710822e-12
1.16346222e-09
1.313553426e-12
1.175855939e-09
1.339312857e-12
1.186719866e-09
1.35863877e-12
1.196132298e-09
1.371115581e-12
1.204168099e-09
1.376362483e-12
1.210898981e-09
1.374040958e-12
1.216393644e-09
1.363889908e-12
1.22071783e-09
1.345718322e-12
1.223934394e-09
1.319379514e-12
1.22610362e-09
1.284833169e-12
1.227282885e-09
1.242099696e-12
1.227526982e-09
1.191245784e-12
1.226888323e-09
1.132381556e-12
1.225417014e-09
1.065582474e-12
1.223160942e-09
9.910595401e-13
1.220165934e-09
9.09045165e-13
1.216475347e-09
8.196863968e-13
1.212130835e-09
7.231164375e-13
1.20717225e-09
6.193633815e-13
1.201637698e-09
5.08699995e-13
1.195563393e-09