/*--------------------------------*- C++ -*----------------------------------*\
  =========                 |
  \\      /  F ield         | OpenFOAM: The Open Source CFD Toolbox
   \\    /   O peration     | Website:  https://openfoam.org
    \\  /    A nd           | Version:  7
     \\/     M anipulation  |
\*---------------------------------------------------------------------------*/
FoamFile
{
    version     2.0;
    format      ascii;
    class       volVectorField;
    location    "0.0006";
    object      U;
}
// * * * * * * * * * * * * * * * * * * * * * * * * * * * * * * * * * * * * * //

dimensions      [0 1 -1 0 0 0 0];

internalField   nonuniform List<vector> 
1166
(
(-3.140393753e-08 3.980520819e-20 -0.002071077891)
(-8.244328483e-08 4.995861023e-20 -0.002071074195)
(-1.314462129e-07 4.400565226e-20 -0.002071066387)
(-1.827437139e-07 -6.662327701e-20 -0.002071054882)
(-2.351673497e-07 -8.338508266e-20 -0.002071039839)
(-2.886037141e-07 -1.097975236e-19 -0.002071021436)
(-3.436777041e-07 -1.433965064e-19 -0.002071001187)
(-4.025710911e-07 -1.823474126e-19 -0.002070981883)
(-4.661969063e-07 -1.440486067e-19 -0.002070966474)
(-5.192828122e-07 -1.196325404e-19 -0.002070957951)
(-5.383222785e-07 -7.726812228e-20 -0.002070959353)
(-5.146926399e-07 -4.565771073e-20 -0.002070974335)
(-4.495183604e-07 3.053700564e-21 -0.002071006676)
(-3.426690823e-07 4.534376228e-20 -0.002071054431)
(-2.006328561e-07 1.045141015e-19 -0.00207111062)
(-5.529819291e-08 1.586949463e-19 -0.002071165804)
(6.845308367e-08 1.905825567e-19 -0.002071211182)
(1.712780719e-07 2.233051704e-19 -0.002071241648)
(2.55958237e-07 2.265443991e-19 -0.002071257964)
(3.240130646e-07 2.179299757e-19 -0.00207126229)
(3.767153644e-07 2.125345792e-19 -0.002071256477)
(4.155547135e-07 2.091938278e-19 -0.002071241959)
(4.423706173e-07 2.073659157e-19 -0.002071220108)
(4.600828489e-07 2.071597696e-19 -0.002071193366)
(4.712277182e-07 2.077677662e-19 -0.002071165475)
(4.763815584e-07 2.087661528e-19 -0.002071140055)
(4.769698245e-07 2.098850413e-19 -0.002071120288)
(4.755291611e-07 2.111089674e-19 -0.002071107722)
(4.732487245e-07 2.124744105e-19 -0.002071102106)
(4.704843917e-07 2.140345649e-19 -0.002071102793)
(4.67193865e-07 2.156546736e-19 -0.002071109164)
(4.629237736e-07 2.171925737e-19 -0.002071120597)
(4.56954924e-07 2.18531559e-19 -0.002071136431)
(4.486165346e-07 2.196293341e-19 -0.002071155991)
(-3.564956636e-08 4.783379865e-20 -0.002073242278)
(-9.34176193e-08 7.140677067e-20 -0.002073241908)
(-1.492990248e-07 7.835525364e-20 -0.002073241583)
(-2.100969177e-07 7.83429776e-20 -0.002073242429)
(-2.752187033e-07 7.884978281e-20 -0.00207324591)
(-3.353362404e-07 7.726989111e-20 -0.002073253846)
(-3.742149177e-07 7.628129287e-20 -0.002073268281)
(-3.838196981e-07 7.731969336e-20 -0.002073291665)
(-3.635370982e-07 7.561159382e-20 -0.002073327265)
(-3.123367892e-07 7.525537516e-20 -0.002073378562)
(-2.271484826e-07 7.312015493e-20 -0.002073444284)
(-1.06482092e-07 7.01071918e-20 -0.002073518528)
(3.052382566e-08 6.478245994e-20 -0.002073593322)
(1.566253286e-07 8.505569255e-20 -0.002073660203)
(2.637228954e-07 9.996422127e-20 -0.002073712557)
(3.538079384e-07 1.122814053e-19 -0.002073747506)
(4.283998839e-07 1.214484202e-19 -0.002073767167)
(4.883467539e-07 1.285681801e-19 -0.00207377405)
(5.345528503e-07 1.335939632e-19 -0.002073770151)
(5.681853443e-07 1.375174014e-19 -0.002073757009)
(5.906757777e-07 1.401623158e-19 -0.002073736035)
(6.043915e-07 1.414384741e-19 -0.002073709561)
(6.118807058e-07 1.413163654e-19 -0.002073681361)
(6.137412101e-07 1.523788424e-19 -0.002073655265)
(6.108610762e-07 1.620519636e-19 -0.002073634735)
(6.056771118e-07 1.705023017e-19 -0.002073621912)
(5.996476147e-07 1.777952938e-19 -0.002073616824)
(5.93252706e-07 1.838618508e-19 -0.002073618806)
(5.865711528e-07 1.884998833e-19 -0.002073627201)
(5.792758528e-07 2.002464762e-19 -0.002073641372)
(5.707130355e-07 2.110027433e-19 -0.002073660647)
(5.601649275e-07 2.211622986e-19 -0.002073684323)
(5.47132492e-07 2.270612938e-19 -0.002073711708)
(5.314571546e-07 2.325998415e-19 -0.002073742154)
(5.132457047e-07 2.378316651e-19 -0.002073775056)
(4.926999002e-07 2.425081336e-19 -0.002073809838)
(4.700010183e-07 2.476533656e-19 -0.002073845929)
(4.452842789e-07 2.483069793e-19 -0.00207388276)
(4.186471329e-07 2.484217829e-19 -0.002073919763)
(3.901545985e-07 2.517080783e-19 -0.002073956378)
(3.59850072e-07 2.547681661e-19 -0.00207399205)
(3.277840415e-07 2.60883747e-19 -0.002074026244)
(2.940398667e-07 2.669566931e-19 -0.002074058442)
(2.587381942e-07 2.728007132e-19 -0.002074088147)
(2.220180299e-07 2.787201379e-19 -0.002074114888)
(1.840109582e-07 2.824048316e-19 -0.002074138213)
(1.448230378e-07 2.880454395e-19 -0.002074157692)
(1.045673672e-07 2.943999276e-19 -0.002074172912)
(6.355614796e-08 2.984520989e-19 -0.002074183475)
(2.245770231e-08 3.002694337e-19 -0.002074188999)
(-2.851976861e-08 7.196595358e-20 -0.002075562445)
(-7.258322848e-08 1.414919531e-19 -0.002075571566)
(-1.064595961e-07 2.007877041e-19 -0.002075590089)
(-1.297710246e-07 2.67818528e-19 -0.00207561912)
(-1.371114145e-07 2.516510654e-19 -0.002075660474)
(-1.246206546e-07 2.587115511e-19 -0.00207571624)
(-8.856715242e-08 2.804816317e-19 -0.0020757855)
(-2.428538699e-08 3.120010729e-19 -0.002075864205)
(7.117371117e-08 2.99871849e-19 -0.002075947666)
(1.843304943e-07 3.013049204e-19 -0.002076030224)
(2.924089408e-07 2.803880326e-19 -0.002076105479)
(3.870112732e-07 2.719233555e-19 -0.002076167614)
(4.69712897e-07 2.462779687e-19 -0.002076212776)
(5.412443402e-07 2.281762184e-19 -0.002076241427)
(6.013574199e-07 1.943683193e-19 -0.002076255978)
(6.499612388e-07 1.657331452e-19 -0.002076258634)
(6.87375144e-07 1.395620404e-19 -0.002076251176)
(7.142530885e-07 1.132421551e-19 -0.002076234992)
(7.314758175e-07 1.162958166e-19 -0.002076211364)
(7.408097419e-07 1.317736023e-19 -0.00207618244)
(7.445618298e-07 1.44985215e-19 -0.002076151831)
(7.432692491e-07 1.569522973e-19 -0.002076123337)
(7.373554314e-07 1.681598394e-19 -0.002076100491)
(7.289685343e-07 1.789705379e-19 -0.002076085857)
(7.19749369e-07 1.893719899e-19 -0.002076079794)
(7.103014364e-07 1.992861691e-19 -0.002076081635)
(7.008087527e-07 2.08706811e-19 -0.00207609067)
(6.910645639e-07 2.175773017e-19 -0.002076106234)
(6.804920595e-07 2.258408601e-19 -0.002076127645)
(6.683398792e-07 2.335277767e-19 -0.002076154184)
(6.539744113e-07 2.408348968e-19 -0.002076185128)
(6.370896329e-07 2.478672303e-19 -0.002076219787)
(6.177127638e-07 2.550689508e-19 -0.002076257519)
(5.960339352e-07 2.620800854e-19 -0.002076297719)
(5.722437647e-07 2.689733379e-19 -0.002076339796)
(5.464842951e-07 2.758655412e-19 -0.002076383162)
(5.188561383e-07 2.869087856e-19 -0.002076427228)
(4.89428307e-07 2.94240507e-19 -0.002076471412)
(4.58242084e-07 2.979018826e-19 -0.002076515135)
(4.253302274e-07 3.01534066e-19 -0.002076557835)
(3.907477071e-07 3.051719172e-19 -0.002076598964)
(3.545873275e-07 3.088007965e-19 -0.002076637998)
(3.169716295e-07 3.124109131e-19 -0.002076674434)
(2.780308776e-07 3.128952896e-19 -0.002076707796)
(2.378884434e-07 3.132729068e-19 -0.002076737628)
(1.966549368e-07 3.135391883e-19 -0.002076763492)
(1.544163929e-07 3.161809297e-19 -0.002076784974)
(1.112659934e-07 3.161225066e-19 -0.002076801673)
(6.749504701e-08 3.15884529e-19 -0.002076813205)
(2.375041718e-08 3.158568961e-19 -0.002076819198)
(1.323383714e-08 1.669334575e-20 -0.002078351042)
(3.653424508e-08 -1.542054522e-20 -0.002078365254)
(6.750909214e-08 -7.086651192e-20 -0.002078392335)
(1.143972073e-07 -1.690217236e-20 -0.002078430526)
(1.814136218e-07 1.99752045e-21 -0.00207847736)
(2.628121943e-07 7.569229626e-20 -0.002078529432)
(3.451596433e-07 1.244534985e-19 -0.002078582625)
(4.225003745e-07 1.564554472e-19 -0.002078632467)
(4.957387932e-07 1.272457551e-19 -0.00207867447)
(5.649780366e-07 1.352088544e-19 -0.002078704829)
(6.289177908e-07 1.712408709e-19 -0.002078722877)
(6.861165804e-07 1.971777912e-19 -0.002078730007)
(7.354117167e-07 2.154572713e-19 -0.002078727567)
(7.759383439e-07 2.037674902e-19 -0.002078716648)
(8.074824377e-07 1.905378481e-19 -0.002078698244)
(8.303226931e-07 1.765640838e-19 -0.002078673205)
(8.449319363e-07 1.615556238e-19 -0.002078642431)
(8.525279322e-07 1.451408491e-19 -0.002078607768)
(8.549780451e-07 1.444862882e-19 -0.002078572437)
(8.527194008e-07 1.561815977e-19 -0.002078539856)
(8.459078318e-07 1.79087216e-19 -0.002078513322)
(8.363915953e-07 1.995830691e-19 -0.002078495566)
(8.258521523e-07 2.179810022e-19 -0.002078487248)
(8.14972253e-07 2.34559612e-19 -0.002078487731)
(8.040570966e-07 2.497823423e-19 -0.002078496241)
(7.930551081e-07 2.641683575e-19 -0.002078512075)
(7.81519308e-07 2.781918037e-19 -0.002078534531)
(7.6874551e-07 2.922468829e-19 -0.002078562875)
(7.540414805e-07 2.970159934e-19 -0.002078596355)
(7.369710212e-07 2.909925423e-19 -0.002078634244)
(7.174310423e-07 2.846892642e-19 -0.002078675864)
(6.955490982e-07 2.819763815e-19 -0.002078720585)
(6.715175945e-07 2.917007774e-19 -0.002078767798)
(6.454994871e-07 3.008843249e-19 -0.0020788169)
(6.17612804e-07 3.095686234e-19 -0.00207886729)
(5.879394105e-07 3.177997441e-19 -0.002078918365)
(5.56527801e-07 3.256265078e-19 -0.002078969531)
(5.234037199e-07 3.329757979e-19 -0.002079020201)
(4.886003604e-07 3.332337146e-19 -0.002079069806)
(4.521853831e-07 3.330376199e-19 -0.002079117793)
(4.142653086e-07 3.358924574e-19 -0.002079163635)
(3.749653772e-07 3.383565792e-19 -0.002079206828)
(3.344078166e-07 3.403088365e-19 -0.002079246894)
(2.927059491e-07 3.417176074e-19 -0.002079283374)
(2.499656773e-07 3.426206822e-19 -0.00207931583)
(2.062811176e-07 3.430735356e-19 -0.002079343844)
(1.617201503e-07 3.403015806e-19 -0.002079367019)
(1.163581413e-07 3.400247759e-19 -0.002079384967)
(7.048075357e-08 3.35173956e-19 -0.002079397315)
(2.472537881e-08 3.329632161e-19 -0.002079403702)
(5.068389229e-08 7.687775361e-20 -0.002081107476)
(1.325264279e-07 1.552947784e-19 -0.002081113201)
(2.103174125e-07 2.208147497e-19 -0.002081122841)
(2.907657944e-07 2.841213165e-19 -0.002081134562)
(3.70868908e-07 3.527223923e-19 -0.00208114568)
(4.493499983e-07 3.440230303e-19 -0.002081153146)
(5.250682456e-07 3.517771709e-19 -0.002081155424)
(5.967426966e-07 3.695808936e-19 -0.002081152429)
(6.631283533e-07 3.471094426e-19 -0.002081144111)
(7.229222791e-07 3.312848429e-19 -0.002081130423)
(7.750883878e-07 3.21269511e-19 -0.002081111436)
(8.190356469e-07 3.145999833e-19 -0.002081087402)
(8.543185246e-07 3.096404823e-19 -0.002081058559)
(8.810835328e-07 2.763314868e-19 -0.002081025211)
(9.000028787e-07 2.713242097e-19 -0.002080988006)
(9.12102595e-07 2.920685092e-19 -0.002080948629)
(9.18778349e-07 3.107898325e-19 -0.002080909897)
(9.203632396e-07 3.276049424e-19 -0.002080874706)
(9.170435129e-07 3.42171435e-19 -0.002080846002)
(9.104425036e-07 3.55913293e-19 -0.002080826473)
(9.02165809e-07 3.685769844e-19 -0.002080816969)
(8.930171103e-07 3.811285624e-19 -0.002080816926)
(8.834457497e-07 3.937599963e-19 -0.002080825545)
(8.735759196e-07 3.936262218e-19 -0.002080842113)
(8.631389459e-07 3.930388991e-19 -0.002080865929)
(8.515533532e-07 3.914175652e-19 -0.002080896264)
(8.38140873e-07 3.991369604e-19 -0.00208093236)
(8.223837749e-07 4.036876329e-19 -0.002080973466)
(8.040744741e-07 4.069248726e-19 -0.002081018881)
(7.832875151e-07 4.090175281e-19 -0.002081067952)
(7.602238078e-07 4.056304162e-19 -0.002081120063)
(7.350749256e-07 4.009770253e-19 -0.002081174607)
(7.079842064e-07 3.993748009e-19 -0.00208123098)
(6.790537313e-07 3.967718405e-19 -0.002081288578)
(6.483520099e-07 3.971696909e-19 -0.002081346799)
(6.159168422e-07 3.965908487e-19 -0.002081405047)
(5.81774545e-07 3.987025805e-19 -0.002081462737)
(5.459722222e-07 3.961024306e-19 -0.0020815193)
(5.085954059e-07 3.963682496e-19 -0.002081574192)
(4.697608981e-07 3.955441072e-19 -0.002081626889)
(4.295935547e-07 3.981772064e-19 -0.002081676894)
(3.88209986e-07 3.998265319e-19 -0.002081723732)
(3.457180268e-07 4.03424384e-19 -0.00208176695)
(3.022162087e-07 4.061997599e-19 -0.002081806115)
(2.577928353e-07 4.082997828e-19 -0.002081840814)
(2.125227277e-07 4.098250311e-19 -0.002081870653)
(1.664589944e-07 4.108535786e-19 -0.002081895253)
(1.196673384e-07 4.11451338e-19 -0.002081914245)
(7.242533633e-08 4.120382475e-19 -0.00208192727)
(2.535726877e-08 4.123007512e-19 -0.002081933976)
(6.181627575e-08 1.002918712e-19 -0.002083454611)
(1.612583673e-07 2.210465058e-19 -0.002083452782)
(2.539562443e-07 3.3446346e-19 -0.002083448049)
(3.470606185e-07 3.468647793e-19 -0.002083440414)
(4.36307333e-07 3.864400926e-19 -0.002083429636)
(5.199512346e-07 3.77292081e-19 -0.002083415452)
(5.969599905e-07 3.883699587e-19 -0.002083397609)
(6.665000537e-07 4.135206593e-19 -0.002083375963)
(7.27957082e-07 4.427358211e-19 -0.002083350516)
(7.809489423e-07 4.453664831e-19 -0.002083321291)
(8.255141245e-07 4.27599636e-19 -0.002083288423)
(8.616635763e-07 4.22922636e-19 -0.002083252137)
(8.896497879e-07 4.283788508e-19 -0.002083213204)
(9.106664908e-07 4.416179909e-19 -0.002083173505)
(9.258032468e-07 4.60092849e-19 -0.00208313556)
(9.351176768e-07 4.834447836e-19 -0.002083101792)
(9.389069314e-07 5.119819789e-19 -0.002083074848)
(9.386745827e-07 5.466008816e-19 -0.002083057223)
(9.358949242e-07 5.657357691e-19 -0.00208304977)
(9.314387823e-07 5.704427082e-19 -0.002083051992)
(9.259084814e-07 5.611903943e-19 -0.002083063126)
(9.196193627e-07 5.560647864e-19 -0.002083082482)
(9.125002405e-07 5.544945909e-19 -0.002083109392)
(9.041187517e-07 5.567139466e-19 -0.002083143159)
(8.938585193e-07 5.623497109e-19 -0.002083183052)
(8.811751624e-07 5.58902322e-19 -0.002083228333)
(8.657866918e-07 5.583492471e-19 -0.002083278297)
(8.477136862e-07 5.499250416e-19 -0.002083332293)
(8.271560774e-07 5.558586047e-19 -0.002083389712)
(8.04336774e-07 5.586086324e-19 -0.002083449965)
(7.794351132e-07 5.643577936e-19 -0.002083512466)
(7.525840214e-07 5.66578517e-19 -0.002083576623)
(7.238793396e-07 5.602476818e-19 -0.002083641846)
(6.933801414e-07 5.512493048e-19 -0.002083707547)
(6.611183734e-07 5.432923591e-19 -0.002083773143)
(6.271292179e-07 5.360040411e-19 -0.002083838064)
(5.914796531e-07 5.304473935e-19 -0.002083901757)
(5.542749655e-07 5.252151022e-19 -0.002083963693)
(5.156399169e-07 5.294789596e-19 -0.002084023365)
(4.756963902e-07 5.345239886e-19 -0.002084080288)
(4.345554724e-07 5.349871235e-19 -0.002084134001)
(3.923192948e-07 5.333140329e-19 -0.002084184062)
(3.490818534e-07 5.31138587e-19 -0.00208423005)
(3.04927852e-07 5.270534121e-19 -0.002084271561)
(2.599342349e-07 5.234954587e-19 -0.00208430821)
(2.141693375e-07 5.204148954e-19 -0.002084339626)
(1.676774821e-07 5.176868094e-19 -0.002084365452)
(1.205054077e-07 5.123677851e-19 -0.002084385337)
(7.291074409e-08 5.122058839e-19 -0.002084398934)
(2.550351206e-08 5.121280207e-19 -0.002084405901)
(6.302613135e-08 1.306657094e-20 -0.00208552234)
(1.641540501e-07 -2.687055852e-20 -0.002085518369)
(2.573874338e-07 -9.094616192e-20 -0.002085509743)
(3.496897721e-07 -3.589238181e-20 -0.002085496825)
(4.368360438e-07 -2.030856622e-20 -0.002085479776)
(5.172508896e-07 3.948749617e-20 -0.002085458765)
(5.900228073e-07 7.225025378e-20 -0.002085433987)
(6.549437973e-07 8.818050063e-20 -0.002085405598)
(7.117073866e-07 1.344910811e-19 -0.002085373882)
(7.602377171e-07 1.66783348e-19 -0.002085339417)
(8.008425374e-07 2.272384768e-19 -0.002085303492)
(8.34065174e-07 2.781711126e-19 -0.002085268052)
(8.606002279e-07 3.230839916e-19 -0.002085235281)
(8.805789439e-07 3.929800097e-19 -0.002085207278)
(8.944088955e-07 4.319594895e-19 -0.002085186448)
(9.03423336e-07 4.383567433e-19 -0.002085174904)
(9.089421785e-07 4.421484913e-19 -0.002085173274)
(9.118826856e-07 4.630303404e-19 -0.002085181088)
(9.12975217e-07 4.812315128e-19 -0.002085197651)
(9.127000682e-07 4.965824013e-19 -0.002085222328)
(9.111499285e-07 5.095741824e-19 -0.002085254512)
(9.080475584e-07 5.056376351e-19 -0.002085293561)
(9.029046137e-07 5.002762406e-19 -0.002085338793)
(8.952275015e-07 5.10169601e-19 -0.002085389504)
(8.847037727e-07 5.193023071e-19 -0.002085445014)
(8.712871523e-07 5.301154005e-19 -0.002085504693)
(8.551447861e-07 5.281039825e-19 -0.00208556796)
(8.365211671e-07 5.298179998e-19 -0.002085634261)
(8.156357005e-07 5.330848319e-19 -0.002085703047)
(7.926572683e-07 5.322657454e-19 -0.002085773763)
(7.677113574e-07 5.322598585e-19 -0.00208584585)
(7.40885891e-07 5.370112632e-19 -0.002085918745)
(7.122325784e-07 5.364704742e-19 -0.002085991889)
(6.817849878e-07 5.407931314e-19 -0.002086064726)
(6.495921382e-07 5.406618899e-19 -0.002086136715)
(6.157394713e-07 5.409944974e-19 -0.002086207333)
(5.803444305e-07 5.416400954e-19 -0.002086276078)
(5.435311984e-07 5.472769294e-19 -0.00208634247)
(5.054127795e-07 5.498967518e-19 -0.002086406051)
(4.66093217e-07 5.538589737e-19 -0.00208646638)
(4.25668696e-07 5.522897582e-19 -0.002086523038)
(3.842258262e-07 5.491419003e-19 -0.002086575622)
(3.41839957e-07 5.468802378e-19 -0.00208662375)
(2.985807923e-07 5.421563567e-19 -0.002086667051)
(2.545175549e-07 5.379979622e-19 -0.00208670517)
(2.097078053e-07 5.34183757e-19 -0.002086737763)
(1.641834575e-07 5.312640821e-19 -0.002086764491)
(1.179915049e-07 5.275924799e-19 -0.002086785021)
(7.138920668e-08 5.247504964e-19 -0.002086799021)
(2.497362267e-08 5.220368693e-19 -0.00208680616)
(5.882596902e-08 6.335262967e-20 -0.002087404826)
(1.531982302e-07 1.162852356e-19 -0.002087400158)
(2.400730972e-07 1.559937625e-19 -0.00208739042)
(3.257637196e-07 1.925709273e-19 -0.0020873761)
(4.061927221e-07 2.337043379e-19 -0.002087357564)
(4.801656477e-07 1.954268123e-19 -0.002087335249)
(5.469457084e-07 1.70533418e-19 -0.00208730991)
(6.062228845e-07 1.512211496e-19 -0.002087282728)
(6.580491509e-07 1.798715122e-19 -0.002087255247)
(7.025576252e-07 2.038527976e-19 -0.002087229264)
(7.397459287e-07 2.220150352e-19 -0.002087206525)
(7.698573446e-07 2.726502758e-19 -0.00208718904)
(7.936689613e-07 3.195079262e-19 -0.002087178984)
(8.12154035e-07 3.632413308e-19 -0.002087177824)
(8.264167135e-07 4.041561079e-19 -0.002087185807)
(8.374463482e-07 4.435182403e-19 -0.002087202488)
(8.460286698e-07 4.613873386e-19 -0.002087227294)
(8.527239518e-07 4.794606101e-19 -0.002087259693)
(8.577397645e-07 4.98163286e-19 -0.002087299167)
(8.609499239e-07 4.974642201e-19 -0.002087345163)
(8.620110014e-07 4.811922351e-19 -0.002087397074)
(8.604979921e-07 4.66026178e-19 -0.002087454259)
(8.560747313e-07 4.520787824e-19 -0.002087516092)
(8.48627393e-07 4.383339574e-19 -0.002087581988)
(8.382811087e-07 4.237790961e-19 -0.002087651411)
(8.252836446e-07 4.225313281e-19 -0.00208772386)
(8.098812704e-07 4.191226515e-19 -0.00208779884)
(7.922711461e-07 4.270670169e-19 -0.002087875854)
(7.725997959e-07 4.331847734e-19 -0.002087954394)
(7.509757513e-07 4.443392365e-19 -0.002088033942)
(7.274684282e-07 4.550085624e-19 -0.002088113981)
(7.021158674e-07 4.596844547e-19 -0.002088193989)
(6.749536561e-07 4.643637042e-19 -0.002088273452)
(6.460444631e-07 4.679752743e-19 -0.002088351867)
(6.154875981e-07 4.716873138e-19 -0.002088428752)
(5.834033214e-07 4.756220594e-19 -0.002088503643)
(5.499102833e-07 4.781223973e-19 -0.002088576096)
(5.15115286e-07 4.768332716e-19 -0.002088645684)
(4.791156829e-07 4.711520682e-19 -0.002088711997)
(4.420002264e-07 4.647358053e-19 -0.002088774646)
(4.038472075e-07 4.573071342e-19 -0.002088833256)
(3.647211917e-07 4.599163009e-19 -0.002088887469)
(3.246778709e-07 4.61158149e-19 -0.00208893694)
(2.83771243e-07 4.657429364e-19 -0.002088981335)
(2.420499243e-07 4.699708135e-19 -0.002089020329)
(1.995528532e-07 4.739266669e-19 -0.002089053603)
(1.563078129e-07 4.746601957e-19 -0.00208908084)
(1.123728079e-07 4.781404556e-19 -0.002089101725)
(6.801402599e-08 4.785659687e-19 -0.002089115937)
(2.382020292e-08 4.815097762e-19 -0.002089123156)
(5.198796609e-08 8.724547221e-20 -0.002089159776)
(1.353545323e-07 1.852216368e-19 -0.002089155544)
(2.119920346e-07 2.758111941e-19 -0.002089147277)
(2.875136025e-07 2.484514395e-19 -0.002089135816)
(3.581543803e-07 2.478679582e-19 -0.00208912219)
(4.22722184e-07 2.6375952e-19 -0.002089107636)
(4.807407312e-07 2.871914759e-19 -0.002089093503)
(5.318238821e-07 3.154399355e-19 -0.002089081331)
(5.759559162e-07 3.471749563e-19 -0.002089072839)
(6.134291228e-07 3.8259483e-19 -0.002089069886)
(6.448657439e-07 3.766386343e-19 -0.00208907402)
(6.711097157e-07 3.753671578e-19 -0.002089085983)
(6.930113876e-07 3.787141047e-19 -0.002089105737)
(7.114823339e-07 3.863333546e-19 -0.002089132951)
(7.272857991e-07 3.983993179e-19 -0.002089167262)
(7.409666139e-07 4.141210437e-19 -0.0020892083)
(7.527759272e-07 4.133885151e-19 -0.002089255681)
(7.626801486e-07 3.906925122e-19 -0.002089308969)
(7.704481575e-07 3.700814416e-19 -0.002089367659)
(7.757143489e-07 3.524220859e-19 -0.002089431207)
(7.781187992e-07 3.352669962e-19 -0.002089499065)
(7.774976521e-07 3.374224662e-19 -0.002089570709)
(7.739378746e-07 3.393852287e-19 -0.002089645665)
(7.676626227e-07 3.410302457e-19 -0.002089723494)
(7.589128915e-07 3.416785896e-19 -0.002089803774)
(7.478927714e-07 3.393601828e-19 -0.002089886073)
(7.347612969e-07 3.36183791e-19 -0.002089969943)
(7.196385083e-07 3.400093631e-19 -0.00209005493)
(7.026087057e-07 3.441127714e-19 -0.002090140564)
(6.837185609e-07 3.48873824e-19 -0.002090226374)
(6.629909663e-07 3.59052501e-19 -0.002090311885)
(6.404562297e-07 3.64661534e-19 -0.002090396628)
(6.161806281e-07 3.747940608e-19 -0.00209048015)
(5.902688161e-07 3.801859199e-19 -0.002090562014)
(5.62837286e-07 3.855892572e-19 -0.0020906418)
(5.339931299e-07 3.909467196e-19 -0.002090719104)
(5.038314201e-07 3.915256941e-19 -0.002090793538)
(4.724401221e-07 3.929896862e-19 -0.002090864728)
(4.39900154e-07 3.935861142e-19 -0.002090932317)
(4.062793865e-07 3.946219313e-19 -0.002090995962)
(3.71635275e-07 3.96042593e-19 -0.002091055332)
(3.360220869e-07 3.959225259e-19 -0.002091110109)
(2.994888151e-07 3.922765186e-19 -0.002091159985)
(2.620711001e-07 3.951483878e-19 -0.002091204657)
(2.237984911e-07 3.978071743e-19 -0.00209124383)
(1.847061803e-07 4.010868965e-19 -0.002091277209)
(1.44826235e-07 4.031795082e-19 -0.0020913045)
(1.042149261e-07 4.058782763e-19 -0.002091325402)
(6.313174908e-08 4.089633954e-19 -0.002091339609)
(2.216126967e-08 4.118251582e-19 -0.002091346807)
(4.233840038e-08 -8.964027621e-20 -0.00209086014)
(1.102278533e-07 -7.174374029e-20 -0.002090858973)
(1.724074148e-07 -8.935471351e-20 -0.002090857744)
(2.334292821e-07 -1.000419903e-20 -0.002090857018)
(2.902675342e-07 3.598155584e-20 -0.002090857757)
(3.418679601e-07 1.567910379e-19 -0.002090861239)
(3.880015056e-07 2.607240302e-19 -0.002090868791)
(4.288462897e-07 3.63543002e-19 -0.002090881529)
(4.647031245e-07 3.849549689e-19 -0.002090900167)
(4.961289539e-07 3.760940515e-19 -0.002090924967)
(5.238091009e-07 3.727682926e-19 -0.002090955956)
(5.484165435e-07 3.236950582e-19 -0.002090993027)
(5.705590532e-07 2.765612469e-19 -0.002091036045)
(5.906600368e-07 2.298912389e-19 -0.002091084825)
(6.089257165e-07 2.084406497e-19 -0.002091139126)
(6.253407316e-07 1.819642904e-19 -0.002091198636)
(6.397397698e-07 1.790074902e-19 -0.002091262959)
(6.51791444e-07 1.686724109e-19 -0.002091331653)
(6.61150013e-07 1.529082587e-19 -0.002091404252)
(6.676406684e-07 1.579478955e-19 -0.002091480303)
(6.712817044e-07 1.797291917e-19 -0.002091559392)
(6.722336996e-07 1.971834622e-19 -0.002091641147)
(6.707121182e-07 2.106336715e-19 -0.002091725215)
(6.669048104e-07 2.205389162e-19 -0.002091811233)
(6.609602348e-07 2.275519485e-19 -0.002091898822)
(6.530089607e-07 2.325324709e-19 -0.002091987585)
(6.431482924e-07 2.359523561e-19 -0.002092077113)
(6.314290621e-07 2.360607677e-19 -0.002092166983)
(6.178702183e-07 2.416925098e-19 -0.002092256767)
(6.024865742e-07 2.459594282e-19 -0.002092346034)
(5.853171863e-07 2.48264917e-19 -0.002092434363)
(5.664378763e-07 2.542933741e-19 -0.002092521347)
(5.459495702e-07 2.629642001e-19 -0.002092606594)
(5.239562238e-07 2.694253394e-19 -0.002092689731)
(5.005505808e-07 2.741529733e-19 -0.002092770396)
(4.758120331e-07 2.774856743e-19 -0.002092848239)
(4.498110936e-07 2.79553621e-19 -0.002092922925)
(4.226127448e-07 2.893818414e-19 -0.002092994135)
(3.942724986e-07 3.027261092e-19 -0.002093061558)
(3.648383236e-07 3.110914938e-19 -0.002093124894)
(3.343545327e-07 3.233917975e-19 -0.002093183857)
(3.028621247e-07 3.256626443e-19 -0.002093238163)
(2.70398176e-07 3.276556257e-19 -0.002093287536)
(2.369984229e-07 3.271651656e-19 -0.002093331703)
(2.027003253e-07 3.258289532e-19 -0.002093370393)
(1.675397637e-07 3.242209697e-19 -0.002093403333)
(1.315492946e-07 3.255946011e-19 -0.002093430248)
(9.478882627e-08 3.236171258e-19 -0.002093450853)
(5.750446043e-08 3.27422526e-19 -0.002093464853)
(2.025669834e-08 3.279002236e-19 -0.002093471938)
(3.08528769e-08 6.553329652e-20 -0.002092609996)
(8.038901384e-08 1.101153648e-19 -0.002092613042)
(1.258814135e-07 1.402491529e-19 -0.002092620827)
(1.70673835e-07 1.627088324e-19 -0.002092633103)
(2.127202189e-07 1.846352821e-19 -0.002092650012)
(2.515795368e-07 2.064557272e-19 -0.002092671832)
(2.873079651e-07 2.276291477e-19 -0.002092698805)
(3.200915973e-07 2.483719234e-19 -0.002092731061)
(3.50290845e-07 2.692092033e-19 -0.002092768646)
(3.78296619e-07 2.899686243e-19 -0.002092811572)
(4.044179234e-07 2.717888136e-19 -0.002092859767)
(4.289016226e-07 2.544769617e-19 -0.00209291312)
(4.518586324e-07 2.373916677e-19 -0.002092971445)
(4.732416073e-07 2.208831258e-19 -0.002093034484)
(4.928894744e-07 2.017250251e-19 -0.002093101906)
(5.104986685e-07 1.822533861e-19 -0.00209317333)
(5.257396628e-07 1.904453385e-19 -0.002093248351)
(5.38426078e-07 1.976253635e-19 -0.002093326565)
(5.485066302e-07 2.045297026e-19 -0.002093407609)
(5.560448364e-07 2.120643662e-19 -0.002093491162)
(5.612089867e-07 2.204674966e-19 -0.00209357692)
(5.641956568e-07 2.295855843e-19 -0.002093664578)
(5.651490959e-07 2.39526624e-19 -0.002093753811)
(5.64174274e-07 2.34361455e-19 -0.002093844275)
(5.613505909e-07 2.308472783e-19 -0.002093935613)
(5.567281788e-07 2.43256313e-19 -0.002094027455)
(5.503174023e-07 2.563061416e-19 -0.002094119417)
(5.421044786e-07 2.610929955e-19 -0.00209421111)
(5.320917478e-07 2.63701253e-19 -0.002094302148)
(5.203195661e-07 2.669308149e-19 -0.002094392154)
(5.068669368e-07 2.699750498e-19 -0.002094480766)
(4.918325443e-07 2.730940346e-19 -0.002094567637)
(4.753090085e-07 2.712032616e-19 -0.002094652432)
(4.573736438e-07 2.684088428e-19 -0.002094734826)
(4.380961428e-07 2.662959923e-19 -0.002094814508)
(4.175407988e-07 2.64051715e-19 -0.00209489118)
(3.957623925e-07 2.616462424e-19 -0.002094964554)
(3.728021508e-07 2.631127911e-19 -0.002095034354)
(3.486933776e-07 2.637524325e-19 -0.002095100315)
(3.234687873e-07 2.656648271e-19 -0.002095162178)
(2.971563083e-07 2.654980691e-19 -0.00209521969)
(2.697786943e-07 2.70866379e-19 -0.002095272602)
(2.413632523e-07 2.753301244e-19 -0.002095320666)
(2.119531699e-07 2.763362984e-19 -0.002095363635)
(1.816033574e-07 2.771317511e-19 -0.002095401259)
(1.50359654e-07 2.777220263e-19 -0.002095433284)
(1.182545948e-07 2.777089279e-19 -0.00209545945)
(8.534699775e-08 2.782119811e-19 -0.002095479485)
(5.186981159e-08 2.785171864e-19 -0.002095493102)
(1.835325702e-08 2.782374614e-19 -0.002095499998)
(2.133907441e-08 2.644946631e-19 -0.002094449608)
(5.569963061e-08 3.401479455e-19 -0.002094455133)
(8.764814616e-08 4.27305071e-19 -0.002094467787)
(1.197438446e-07 3.649594054e-19 -0.002094486789)
(1.507914698e-07 3.427374343e-19 -0.002094511827)
(1.805504052e-07 2.584119566e-19 -0.002094542732)
(2.090430835e-07 1.882617348e-19 -0.002094579339)
(2.363856696e-07 1.1583989e-19 -0.002094621486)
(2.62712823e-07 9.989983546e-20 -0.002094669008)
(2.880760869e-07 1.226906005e-19 -0.002094721698)
(3.12480786e-07 1.332748294e-19 -0.002094779313)
(3.358310124e-07 1.726829607e-19 -0.002094841564)
(3.579307321e-07 2.063608184e-19 -0.002094908108)
(3.785041143e-07 2.375249092e-19 -0.002094978572)
(3.972387018e-07 2.337982192e-19 -0.002095052568)
(4.139254322e-07 2.320010112e-19 -0.002095129708)
(4.284319034e-07 2.31963428e-19 -0.002095209655)
(4.407582048e-07 2.326552305e-19 -0.002095292106)
(4.510339642e-07 2.337886943e-19 -0.002095376782)
(4.593957395e-07 2.355659356e-19 -0.002095463407)
(4.659430032e-07 2.38083277e-19 -0.002095551699)
(4.707311498e-07 2.414017349e-19 -0.002095641356)
(4.737985055e-07 2.447677348e-19 -0.002095732058)
(4.751924889e-07 2.5049163e-19 -0.00209582347)
(4.749342629e-07 2.564664792e-19 -0.002095915245)
(4.730041083e-07 2.62427381e-19 -0.002096007026)
(4.6937607e-07 2.692633755e-19 -0.002096098452)
(4.640485977e-07 2.768398241e-19 -0.002096189173)
(4.570569548e-07 2.767369314e-19 -0.002096278854)
(4.484609712e-07 2.726703555e-19 -0.002096367171)
(4.383293707e-07 2.688769704e-19 -0.002096453819)
(4.267305099e-07 2.65781107e-19 -0.002096538498)
(4.137268729e-07 2.572673618e-19 -0.002096620921)
(3.993747791e-07 2.553247328e-19 -0.002096700809)
(3.837243899e-07 2.533982043e-19 -0.002096777897)
(3.66820849e-07 2.511073392e-19 -0.002096851929)
(3.487033607e-07 2.474525614e-19 -0.002096922658)
(3.294058034e-07 2.440199796e-19 -0.002096989845)
(3.089552957e-07 2.39307506e-19 -0.002097053261)
(2.873627115e-07 2.391813966e-19 -0.002097112678)
(2.646368038e-07 2.343298625e-19 -0.002097167876)
(2.40801831e-07 2.329805402e-19 -0.00209721863)
(2.158932838e-07 2.308922072e-19 -0.002097264719)
(1.89955795e-07 2.319298943e-19 -0.002097305917)
(1.63045989e-07 2.322793177e-19 -0.002097341994)
(1.35222598e-07 2.319811815e-19 -0.002097372711)
(1.065237715e-07 2.310599469e-19 -0.002097397819)
(7.700179635e-08 2.329498125e-19 -0.002097417058)
(4.687718978e-08 2.309894604e-19 -0.002097430146)
(1.666362871e-08 2.284051426e-19 -0.002097436786)
(1.565158513e-08 1.287043023e-19 -0.002096342072)
(4.094462783e-08 1.676466906e-20 -0.002096348649)
(6.481763968e-08 9.167449606e-20 -0.00209636321)
(8.930285373e-08 1.376087134e-19 -0.002096384865)
(1.136194013e-07 1.770767494e-19 -0.002096413162)