/*--------------------------------*- C++ -*----------------------------------*\
  =========                 |
  \\      /  F ield         | OpenFOAM: The Open Source CFD Toolbox
   \\    /   O peration     | Website:  https://openfoam.org
    \\  /    A nd           | Version:  7
     \\/     M anipulation  |
\*---------------------------------------------------------------------------*/
FoamFile
{
    version     2.0;
    format      ascii;
    class       volScalarField;
    location    "0.0006";
    object      generalizedNewtonian:nu;
}
// * * * * * * * * * * * * * * * * * * * * * * * * * * * * * * * * * * * * * //

dimensions      [0 2 -1 0 0 0 0];

internalField   nonuniform List<scalar> 
1166
(
28076.64183
27714.68233
27470.84796
26796.28691
26025.28857
25177.98214
24279.39432
23361.04215
22447.83715
21557.22186
20701.02078
19886.79928
19118.90414
18399.32643
17728.38818
17105.24506
16528.26336
15995.492
15504.9481
15054.46444
14641.60209
14263.84398
13918.89058
13604.5231
13318.30531
13057.75111
12820.26915
12603.00822
12402.86403
12216.31125
12039.47505
11868.13763
11697.5337
11522.4415
11337.43576
11137.02463
10915.85173
10669.09322
10392.86725
10084.60316
9743.512377
9370.917327
8970.275533
8546.895594
8107.559386
7661.05735
7216.855962
6771.21484
6305.774654
5963.923989
13606.9609
13518.68007
13589.54933
13530.96373
13480.16751
13427.99438
13369.99631
13308.1769
13244.88634
13182.03001
13121.28417
13064.1271
13011.80695
12965.26553
12925.29934
12892.64243
12867.60684
12850.11353
12839.91813
12836.39256
12838.45771
12844.62259
12852.86175
12860.66892
12865.10279
12862.72209
12849.73315
12822.2134
12776.34257
12708.69855
12616.68041
12498.95382
12355.70227
12188.78576
12001.85932
11800.169
11590.06076
11378.53158
11172.78662
10979.75065
10805.5979
10655.7225
10534.90436
10447.45377
10397.42278
10388.54108
10425.59635
10519.11861
10679.76213
10870.76629
11610.59955
11562.84777
11660.94253
11671.17713
11702.63554
11746.62994
11797.80212
11856.02578
11921.59946
11994.37185
12073.95456
12159.9477
12251.92141
12349.18334
12450.79797
12555.63276
12662.28694
12769.03672
12873.76815
12974.12041
13067.65245
13151.8301
13224.1305
13282.30579
13324.62634
13350.0678
13358.44335
13350.47715
13327.96481
13293.62163
13250.80742
13203.47527
13155.84217
13112.0402
13076.04301
13051.52453
13041.90669
13050.19601
13078.92295
13130.52322
13207.31607
13311.37893
13444.30932
13607.23765
13800.73411
14024.08027
14275.74858
14556.8154
14867.90554
15137.24626
12072.43538
12030.68178
12130.07056
12158.22916
12212.12633
12282.60718
12364.19687
12456.01826
12557.57397
12667.87072
12785.66166
12909.66717
13038.53128
13170.75458
13304.63356
13438.34712
13570.05421
13697.9019
13820.12896
13935.15288
14041.66957
14138.794
14226.11542
14303.70771
14372.23238
14432.8396
14486.9743
14536.51251
14583.68723
14630.75663
14679.96795
14733.67706
14794.25529
14863.71497
14943.90606
15036.68699
15143.5473
15265.70642
15404.12312
15559.35828
15731.50898
15920.10886
16124.2194
16342.38028
16572.30246
16810.82528
17055.0689
17304.83813
17560.93448
17760.76691
13291.1891
13261.90597
13356.94142
13390.40553
13448.08709
13521.86904
13606.80381
13701.7015
13805.47156
13916.74127
14034.17098
14156.27006
14281.46844
14408.31308
14535.31359
14661.06847
14784.40886
14904.32898
15020.05426
15131.08213
15237.23819
15338.69665
15435.87236
15529.3891
15620.12746
15709.15787
15797.64362
15886.86751
15978.09923
16072.48588
16171.22076
16275.39778
16385.88088
16503.46762
16628.65878
16761.79133
16903.05371
17052.27576
17209.04958
17372.77236
17542.61239
17717.36431
17895.49025
18075.41491
18255.69137
18434.28994
18606.78097
18768.16391
18919.83569
19032.13475
14686.91326
14662.83029
14740.1047
14771.95475
14824.74774
14891.13513
14967.01231
15051.10977
15142.24297
15239.056
15340.32497
15444.76681
15551.10109
15658.31449
15765.52624
15871.90574
15976.84245
16079.95056
16180.98858
16279.92531
16376.93082
16472.271
16566.30305
16659.52061
16752.4416
16845.63379
16939.75209
17035.31243
17132.76343
17232.52881
17334.94992
17440.18726
17548.27201
17659.25454
17772.86585
17888.67662
18006.34505
18125.19124
18244.26915
18362.75906
18479.71755
18593.75645
18703.34841
18807.76339
18908.55477
19007.03485
19065.32237
18932.33863
18238.49321
17316.64741
15880.28414
15867.23773
15925.39722
15951.67814
15993.22561
16044.8164
16103.53074
16168.17531
16237.82025
16311.44335
16388.0055
16466.65709
16546.5919
16627.07955
16707.5875
16787.70018
16867.08968
16945.55865
17023.02485
17099.50248
17175.06929
17249.81092
17323.89528
17397.56491
17470.98068
17544.27137
17617.58084
17690.98368
17764.45807
17837.94133
17911.23069
17984.06641
18056.11344
18126.84458
18195.73779
18262.15499
18325.27489
18384.28044
18438.2698
18486.2167
18527.20596
18560.71183
18584.39865
18594.28006
18590.3167
18505.30397
18053.70747
17200.58871
16190.81182
15443.90506
16777.10863
16768.55996
16807.82601
16828.24761
16859.88796
16898.87068
16943.14634
16991.83884
17044.21388
17099.55462
17157.10568
17216.20717
17276.3627
17337.10316
17398.0326
17458.85591
17519.36107
17579.39945
17638.87042
17697.71509
17755.90415
17813.4323
17870.31886
17926.54915
17982.09054
18036.88812
18090.81406
18143.71009
18195.34127
18245.42712
18293.59347
18339.41411
18382.39189
18421.91734
18457.37093
18488.05431
18513.20676
18532.13624
18544.41924
18549.1736
18540.34456
18514.80656
18515.53331
18498.62241
18127.62327
17333.90909
16463.7248
16065.73671
16386.73612
16857.5849
17286.53739
17283.34534
17311.57141
17328.22795
17352.98733
17383.37171
17417.99745
17456.28761
17497.67539
17541.60372
17587.60845
17635.23025
17684.066
17733.78907
17784.12344
17834.83556
17885.72553
17936.63921
17987.46044
18038.08408
18088.40681
18138.34664
18187.79972
18236.63753
18284.71773
18331.85942
18377.85094
18422.43036
18465.29774
18506.09859
18544.43767
18579.87321
18611.91932
18640.06017
18663.74666
18682.57671
18696.51386
18704.36145
18697.61016
18675.31715
18705.78472
18738.42227
18379.78084
17568.25977
16763.52855
16515.63139
16858.03194
17377.75512
17842.54634
18169.00155
17557.29613
17555.1655
17575.62885
17589.18615
17609.12973
17633.58182
17661.531
17692.53253
17726.20317
17762.13205
17799.91891
17839.23
17879.7556
17921.20751
17963.34092
18005.94866
18048.84189
18091.83829
18134.76798
18177.48453
18219.84078
18261.67759
18302.82957
18343.11958
18382.36244
18420.34198
18456.83933
18491.59876
18524.36496
18554.85273
18582.77352
18607.81244
18629.68187
18648.30847
18664.05096
18675.40297
18672.17098
18656.65897
18713.59265
18780.07744
18424.42391
17594.53337
16811.65519
16629.67392
16985.45784
17464.38218
17879.55371
18241.60687
18619.09184
18843.78053
17655.77646
17654.59699
17670.64891
17681.16978
17696.49656
17715.26186
17736.75174
17760.56632
17786.37184
17813.87203
17842.74674
17872.67743
17903.38886
17934.62934
17966.16421
17997.76948
18029.23228
18060.36085
18090.97579
18120.89464
18149.94452
18177.96043
18204.77658
18230.22695
18254.15116
18276.39383
18296.80514
18315.24552
18331.58096
18345.67813
18357.43563
18367.08378
18375.27428
18380.28413
18370.73694
18351.42624
18418.52941
18505.08616
18170.13287
17365.0612
16614.9669
16455.71388
16786.91747
17214.67569
17586.97721
17917.97135
18265.4816
18500.43126
17663.00442
16012.80201
17673.89568
17671.95028
17684.64867
17692.1026
17703.29939
17717.0387
17732.68266
17749.94536
17768.55654
17788.20248
17808.61553
17829.56077
17850.80389
17872.10701
17893.23802
17913.98183
17934.15426
17953.59616
17972.14772
17989.64147
18005.94096
18020.92431
18034.45404
18046.44321
18056.81576
18065.49482
18072.41544
18077.51129
18080.76916
18082.53262
18083.60516
18082.10001
18065.87874
18040.42299
18107.59809
18202.90594
17889.77187
17117.56873
16402.09007
16260.52554
16572.72737
16963.44963
17302.96137
17607.00344
17932.26636
18151.92421
17315.87583
15664.679
14168.09696
12911.12867
17615.85695
17613.44325
17624.44417
17629.45618
17637.44971
17647.33262
17658.51846
17670.76791
17683.90748
17697.73146
17711.99531
17726.49122
17741.02539
17755.41247
17769.47907
17783.0747
17796.08581
17808.38046
17819.7818
17830.18395
17839.54611
17847.75194
17854.7229
17860.43701
17864.81485
17867.80563
17869.40164
17869.93852
17870.23407
17868.32753
17851.77454
17825.32774
17891.35888
17993.18946
17703.60012
16960.47964
16273.65241
16151.63204
16460.00255
16834.66964
17160.57
17453.5042
17768.02387
17988.13915
17177.16048
15538.1426
14053.6841
12790.05711
11679.80068
10707.73544
17532.41023
17528.90496
17539.09973
17542.53352
17548.62588
17556.25101
17564.91001
17574.40395
17584.55354
17595.23224
17606.30168
17617.58374
17628.91376
17640.15806
17651.21124
17661.97736
17672.33467
17682.12308
17691.2437
17699.68897
17707.37687
17714.18989
17720.09916
17725.01462
17728.86219
17731.98694
17735.17371
17736.48275
17723.43472
17699.38202
17763.95917
17873.21522
17612.47371
16897.1735
16229.86621
16119.81878
16428.73413
16798.19354
17119.76025
17408.26217
17715.45733
17958.80269
17246.03003
15626.47911
14129.33043
12858.2172
11746.38068
10761.20484
9885.498733
9115.183303
17435.13781
17431.00175
17441.47766
17444.01059
17449.08149
17455.54916
17462.92732
17471.06927
17479.82942
17489.07997
17498.72664
17508.64295
17518.70603
17528.80278
17538.82432
17548.66632
17558.22581
17567.39181
17576.08197
17584.24259
17591.77962
17598.56155
17604.51592
17609.9511
17615.6233
17619.68937
17609.8084
17587.59438
17647.96062
17764.10991
17540.43699
16861.71276
16210.32344
16097.80555
16399.14142
16762.6967
17078.55935
17359.27091
17653.67791
17924.07046
17373.69163
15799.75512
14278.30037
12989.39277
11864.68496
10868.12321
9982.656767
9196.603174
8497.88396
7879.257828
17358.48647
17353.41523
17364.32721
17366.16121
17370.588
17376.37603
17382.9799
17390.26719
17398.14607
17406.51085
17415.26429
17424.29337
17433.48348
17442.72706
17451.91889
17460.95266
17469.72824
17478.16652
17486.16125
17493.55639
17500.2954
17506.66955
17513.35745
17518.68508
17510.45064
17488.37433
17541.54107
17660.80047
17474.61179
16837.39752
16199.19105
16070.41265
16355.00508
16711.43472
17021.32487
17292.00847
17568.4851
17855.52577
17504.57029
16021.24299
14469.17949
13154.30347
12011.39365
10999.11025
10098.45537
9297.541508
8585.71622
7951.827407
7384.208155
6876.552758
17306.12437
17300.27996
17311.74431
17312.79999
17316.43766
17321.32741
17326.88421
17332.99529
17339.60118
17346.61835
17353.94595
17361.482
17369.12402
17376.76631
17384.30415
17391.63122
17398.64164
17405.25843
17411.41312
17417.26501
17423.52898
17428.71943
17420.41246
17396.69364
17440.73582
17557.54437
17401.93635
16806.34136
16180.85369
16028.59781
16290.72851
16638.8477
16943.08844
17204.43516
17461.90096
17749.67317
17601.04776
16272.45922
14692.9459
13345.31293
12180.01391
11149.15651
10230.99182
9413.119761
8685.162465
8036.611023
7456.758312
6936.090395
6466.551933
6043.53601
17296.17484
17289.27939
17300.97155
17300.96083
17303.46808
17307.03736
17311.04003
17315.39201
17320.07689
17325.03749
17330.1651
17335.36367
17340.54891
17345.63059
17350.50054
17355.03457
17359.16848
17363.19804
17367.91662
17371.66265
17361.12016
17333.47357
17367.40802
17475.12302
17334.93289
16772.44691
16159.1411
15983.29337
16221.14168
16559.67698
16858.63826
17112.44133
17352.87935
17627.62034
17650.75446
16547.94714
14955.80928
13568.26013
12375.92745
11323.39927
10385.22016
9548.122441
8801.903874
8136.54286
7541.77205
7008.089646
6527.506499
6093.449575
5700.34666
5343.878627
17332.85461
17325.10867
17336.91031
17335.6289
17336.69374
17338.56453
17340.5603
17342.62849
17344.8325
17347.09352
17349.24782
17351.23314
17353.01697
17354.53562
17355.74419
17356.91219
17358.81353
17359.50109
17343.89068
17309.30175
17332.64293
17423.34691
17276.40735
16731.54033
16129.4861
15936.75128
16153.82027
16481.41912
16774.12988
17021.56553
17247.67848
17501.63205
17642.42319
16821.44993
15253.84527
13820.20667
12595.65046
11518.81838
10558.66864
9700.219356
8933.545414
8249.277287
7637.642573
7089.124986
6595.540664
6150.1205
5747.15881
5381.692164
5049.522244
4746.347143
17431.09095
17422.4459
17434.14638
17431.56473
17431.09944
17431.16585
17431.05994
17430.77664
17430.30914
17429.50993
17428.35839
17426.8514
17424.94546
17422.95427
17421.54286
17416.79556
17391.46104
17344.7248
17356.17647
17419.19941
17236.01734
16687.21751
16095.8957
15898.32488
16102.27185
16420.67907
16706.75954
16947.62704
17162.16238
17394.00839
17596.95484
17071.514
15590.02247
14109.12217
12846.15012
11741.33588
10757.0976
9875.833448
9086.988751
8381.665759
7750.88519
7185.521097
6677.131114
6218.669546
5804.239657
5428.717172
5087.619271
4777.119697
4494.078126
4234.075116
17594.2847
17584.95096
17596.35234
17592.54019
17590.49047
17588.59498
17586.24172
17583.39998
17580.03697
17576.06717
17571.47069
17566.75381
17561.87286
17547.27077
17505.72283
17439.47695
17434.88151
17452.72655
17196.89488
16622.68841
16047.73555
15865.90736
16067.40131
16377.96303
16658.89443
16894.58737
17099.64271
17311.53176
17535.22681
17270.00067
15951.41258
14433.95534
13127.7099
11991.90559
10981.80718
10076.35357
9264.196553
8536.641624
7885.252292
7301.27931
6776.404841
6303.384489
5876.092742
5489.248914
5138.203233
4818.921182
4527.84824
4262.012661
4019.023728
3794.214155
17826.5535
17816.23888
17826.41784
17820.56312
17816.05921
17811.2133
17805.19292
17797.87255
17789.67279
17780.68287
17764.16315
17726.62899
17656.92708
17572.47385
17545.83944
17473.24671
17111.1308
16504.95617
15965.43463
15831.10618
16045.14454
16348.52548
16624.07316
16855.53553
17053.39194
17249.26339
17471.33943
17402.30964
16314.23004
14788.29813
13437.37438
12269.58462
11233.96334
10304.81542
9469.368507
8719.154519
8046.398979
7442.985257
6900.690191
6412.129414
5970.965996
5571.761735
5209.735209
4880.700625
4580.994028
4307.402265
4057.087065
3827.643787
3617.222932
3421.016009
18095.8508
18085.62241
18094.96667
18087.312
18080.48047
18072.76674
18059.25877
18031.64573
17980.59277
17896.29874
17776.34307
17672.19404
17594.2763
17368.03716
16896.97823
16283.51837
15819.16882
15776.1471
16021.8284
16319.19384
16588.63558
16816.57171
17010.09845
17195.52501
17407.96688
17464.51226
16639.58568
15154.70261
13765.65278
12567.77382
11509.12371
10559.11994
9702.913565
8931.649266
8238.114898
7615.067671
7054.803479
6550.001518
6094.218435
5681.816799
5307.924236
4968.223334
4658.946907
4376.780054
4118.806893
3882.394273
3665.172774
3465.187546
3281.019438
3107.904964
7243.188344
6721.534641
6250.217554
5823.583196
5436.701621
5085.186575
4765.181317
4473.283755
4206.509124
3962.187808
3737.890092
3531.40391
3340.750524
3164.371642
3001.217361
2846.663033
)
;

boundaryField
{
    front_top
    {
        type            wedge;
    }
    front_middle
    {
        type            wedge;
    }
    front_bottom
    {
        type            wedge;
    }
    back_top
    {
        type            wedge;
    }
    back_middle
    {
        type            wedge;
    }
    back_bottom
    {
        type            wedge;
    }
    axis_top
    {
        type            symmetryPlane;
    }
    axis_middle
    {
        type            symmetryPlane;
    }
    axis_bottom
    {
        type            symmetryPlane;
    }
    wall_top
    {
        type            calculated;
        value           nonuniform List<scalar> 
24
(
5857.570814
10954.20466
15232.47987
17822.36823
19061.80364
16996.85008
15226.36171
17012.63124
18300.97945
18569.70047
15237.2443
12349.17837
10266.61927
8763.925665
7594.848177
6641.437281
5846.609593
5177.074971
4603.646311
4110.906396
3687.034213
3326.752713
3024.151542
2771.370402
)
;
    }
    wall_middle
    {
        type            calculated;
        value           nonuniform 0();
    }
    wall_bottom
    {
        type            calculated;
        value           nonuniform 0();
    }
    inlet
    {
        type            calculated;
        value           nonuniform List<scalar> 
50
(
43519.02887
42234.69252
42068.84597
40261.64183
38314.88623
36237.8712
34082.92957
31938.16926
29868.41105
27912.61043
26091.52813
24413.27332
22877.45536
21478.41974
20207.56281
19054.83678
18009.74621
17062.24863
16203.16615
15423.92634
14716.44245
14073.31222
13488.04824
12954.87578
12468.38929
12023.64869
11616.13682
11241.60086
10896.06165
10575.7123
10276.94958
9996.404032
9730.826755
9477.117748
9232.410047
8994.059831
8759.615598
8526.818726
8293.577697
8057.923169
7818.051974
7572.390166
7319.67734
7059.075989
6790.383305
6514.846655
6235.063415
5946.754225
5635.63472
5399.645107
)
;
    }
    outlet
    {
        type            calculated;
        value           nonuniform 0();
    }
    procBoundary11to10
    {
        type            processor;
        value           nonuniform List<scalar> 
51
(
18511.63321
18488.83897
18470.60246
18419.55965
18348.76687
18252.98284
18125.38736
17959.26386
17789.82135
17644.87644
17419.3033
17024.70696
16501.46612
15965.13367
15657.2977
15728.6891
16002.09856
16295.07457
16559.24011
16784.32325
16976.03708
17156.67433
17360.77865
17488.04219
16909.79419
15522.17083
14110.55689
12887.20452
11809.28756
10841.74536
9967.405903
9177.059135
8463.954884
7821.644191
7821.644191
6438.461364
5996.58411
5595.555513
5231.001234
4899.012452
4596.141647
4319.332255
4065.874036
3833.309452
3619.395515
3422.093182
3239.558835
3070.176479
2912.702556
2766.343757
2626.734992
)
;
    }
}


// ************************************************************************* //
