/*--------------------------------*- C++ -*----------------------------------*\
  =========                 |
  \\      /  F ield         | OpenFOAM: The Open Source CFD Toolbox
   \\    /   O peration     | Website:  https://openfoam.org
    \\  /    A nd           | Version:  7
     \\/     M anipulation  |
\*---------------------------------------------------------------------------*/
FoamFile
{
    version     2.0;
    format      ascii;
    class       volScalarField;
    location    "0.0024";
    object      generalizedNewtonian:nu;
}
// * * * * * * * * * * * * * * * * * * * * * * * * * * * * * * * * * * * * * //

dimensions      [0 2 -1 0 0 0 0];

internalField   nonuniform List<scalar> 
1167
(
18.05637309
17.83502353
17.45097031
16.78949075
15.88379005
14.74182331
13.4197464
12.00838302
10.60237929
9.273849682
8.063550361
6.98654665
6.041853645
5.220282228
4.509199172
3.895278123
3.365845555
2.909488849
2.516056433
2.17673056
1.883932123
1.631131563
1.412765498
1.22406208
1.060958036
0.9199614313
0.7980947792
0.6927921653
0.6018477068
0.5233525905
0.4556533259
0.3973095528
0.3470650205
0.3038215476
17.15683956
16.96533863
16.65146343
16.1002413
15.34953644
14.39128118
13.25096886
11.98880398
10.68329665
9.408441545
8.217103008
7.137602028
6.179098615
5.338880414
4.608077758
3.975387578
3.429147472
2.958252996
2.552564151
2.203147197
1.902188052
1.642927541
1.419552194
1.227071484
1.061207336
0.9182892309
0.7951695781
0.6891430708
0.5978760897
0.5193564265
0.451839333
0.3938132154
0.343962287
0.3011451365
0.2643668316
0.2327648456
0.2055926324
0.1822049267
0.162047136
0.1446431269
0.1295857123
0.1165282183
0.1051760385
0.09527889098
0.0866246261
0.07903358979
0.07235358428
0.06645520722
0.06122705748
0.05656917003
16.44940722
16.27700195
16.00785314
15.52782646
14.88065314
14.05378092
13.05575611
11.92372944
10.71739198
9.504042606
8.341266256
7.267222003
6.300554953
5.445484976
4.69753339
4.047921536
3.486264544
3.001922911
2.584888879
2.226155518
1.917711899
1.652586377
1.424721211
1.228911168
1.060666521
0.9161407754
0.792019745
0.6854626326
0.5940137014
0.5155637074
0.4482839798
0.3905991495
0.3411416721
0.2987338996
0.2623537411
0.2311223801
0.204282847
0.1811858991
0.161276553
0.1440803483
0.1291937956
0.1162745192
0.1050324199
0.09522141426
0.08663341845
0.07909235547
0.0724491304
0.06657698241
0.06136680173
0.05672079349
15.88943336
15.72969786
15.49003781
15.05727569
14.48012944
13.74598973
12.85566045
11.83105105
10.71531187
9.565226198
8.437285228
7.375336012
6.40583277
5.539757258
4.777379858
4.112842876
3.537217459
3.04055956
2.613133124
2.24588326
1.930650491
1.660252634
1.428409666
1.229702417
1.059438156
0.9135950639
0.7887015404
0.6817829229
0.5902728427
0.5119681753
0.444968317
0.3876387271
0.3385699945
0.2965527952
0.260544392
0.2296536029
0.2031161341
0.1802808698
0.1605935238
0.1435821448
0.1288470921
0.1160501974
0.1049053787
0.09517056916
0.08664129535
0.0791446463
0.07253426154
0.06668569767
0.06149184844
0.05685680644
15.44490736
15.29374608
15.07413531
14.67338822
14.14414933
13.47524486
12.66494636
11.72570761
10.6881271
9.598225122
8.507861583
7.462806883
6.495073171
5.621655693
4.8476282
4.170172809
3.582075075
3.074286912
2.637437024
2.262481251
1.94115497
1.666073203
1.430755111
1.229563242
1.057619095
0.9107237281
0.7852619447
0.6781291064
0.5866585249
0.5085607817
0.4418716773
0.384905229
0.3362170573
0.294571427
0.2589101688
0.2283327643
0.2020704416
0.1794717801
0.159983777
0.1431377447
0.1285378727
0.1158500219
0.1047918356
0.0951249295
0.08664808385
0.07919121287
0.07261038069
0.06678318864
0.0616042919
0.05697943354
15.09202912
14.94694384
14.74103307
14.36221828
13.86622901
13.24337073
12.49162613
11.61854908
10.64573888
9.609853643
8.556710184
7.531279861
6.568904911
5.691478973
4.90843569
4.220024288
3.620958494
3.103266401
2.657973152
2.27612658
1.949393177
1.670203199
1.431889301
1.228604735
1.055293443
0.9075880974
0.781738543
0.6745193398
0.5831723179
0.505330617
0.4389745467
0.3823740505
0.3340559756
0.2927633698
0.2574266678
0.2271381958
0.2011273732
0.1787435223
0.1594355698
0.1427383472
0.1282598595
0.1156698152
0.1046893203
0.09508336711
0.08665368111
0.07923271086
0.0726786835
0.06687101667
0.06170592553
0.05709060675
14.81352883
14.67274488
14.47604664
14.11225327
13.63934101
13.04894547
12.33951085
11.51661181
10.59594496
9.606494332
8.588000605
7.583085775
6.628571595
5.749856412
4.96011243
4.262601703
3.654071544
3.127679961
2.674921935
2.287009026
1.955537995
1.672798915
1.43194285
1.226931733
1.052539648
0.9042424285
0.7781634431
0.6709676682
0.5798134497
0.5022665085
0.4362587307
0.3800232425
0.3320635786
0.2911060263
0.2560729029
0.2260517495
0.2002717103
0.1780837807
0.1589393086
0.1423767885
0.1280079732
0.1155062296
0.1045958812
0.09504502569
0.08665806536
0.07926973409
0.07274019991
0.06695050363
0.0617982504
0.05719192476
14.59648579
14.45866286
14.26789502
13.91427671
13.45708332
12.88935344
12.21009288
11.42429503
10.54428608
9.593422104
8.605815059
7.620934561
6.675608476
5.797562188
5.003077726
4.298199601
3.681678671
3.14776134
2.68849582
2.295310115
1.959755248
1.67400609
1.431035734
1.22464114
1.049427452
0.9007346869
0.7745628962
0.6674844521
0.5765790318
0.4993574096
0.433707164
0.3778333983
0.3302195432
0.2895799169
0.2548312273
0.2250581393
0.1994907231
0.1774823242
0.1584870659
0.1420471902
0.1277781434
0.1153565514
0.1045099434
0.09500923187
0.0866612507
0.07930280365
0.07279581074
0.06702277276
0.06188254164
0.05728475053
14.43092212
14.2949784
14.1076645
13.76065114
13.31379231
12.76148601
12.10330867
11.34428694
10.495024
9.575010633
8.613733713
7.647264982
6.711492515
5.835459124
5.037865685
4.327217802
3.704068864
3.16375469
2.698929405
2.301235013
1.962220041
1.67396621
1.429282706
1.221816776
1.046017696
0.8971016212
0.7709570802
0.6640743897
0.573464211
0.4965905429
0.4313037141
0.3757865118
0.328505908
0.2881682154
0.2536865735
0.2241444798
0.1987739835
0.1769306705
0.1580722872
0.1417446955
0.1275668964
0.1152185575
0.1044302448
0.09497546566
0.08666328069
0.07933237885
0.07284627016
0.06708877589
0.06195987303
0.05737022514
14.30935445
14.17436246
13.98860544
13.64530144
13.20463883
12.66211179
12.01822799
11.27795235
10.45114374
9.554848082
8.614991306
7.664518945
6.737878578
5.864607968
5.065182794
4.350151478
3.721602877
3.175942106
2.706452909
2.304982033
1.963107121
1.672819083
1.426792858
1.218538902
1.042365297
0.8933769712
0.7673627801
0.6607414674
0.570463851
0.4939548514
0.429033933
0.3738665314
0.3269070827
0.2868568613
0.2526262472
0.2232998881
0.1981123135
0.1764216968
0.1576895389
0.1414652991
0.1273714126
0.1150904268
0.1043557557
0.0949433137
0.08666420998
0.07935885913
0.07289222182
0.06714932047
0.06203115322
0.05744931364
14.22572386
14.09102988
13.90536819
13.56339192
13.12562535
12.5884699
11.95348577
11.22565655
10.4144699
9.5355631
8.612321474
7.675014586
6.756452571
5.886175402
5.085880472
4.367564351
3.734680728
3.184653011
2.711324313
2.306755014
1.962575381
1.670691484
1.423668067
1.214879024
1.03852032
0.889589601
0.7637946879
0.6574881639
0.5675730116
0.4914402231
0.4268851153
0.3720598872
0.3254097263
0.2856331675
0.2516394114
0.2225152376
0.1974982358
0.1759494745
0.1573342859
0.1412056713
0.1271893732
0.1149706653
0.1042856404
0.09491245168
0.08666410201
0.07938259301
0.07293421581
0.06720509145
0.06209715014
0.05752282976
14.17502234
14.04026753
13.85339707
13.51081333
13.0733417
12.53802392
11.9073928
11.18702875
10.38598392
9.519032515
8.607871454
7.68069795
6.768811302
5.901435797
5.100811092
4.380035845
3.743727041
3.190216973
2.713804295
2.306766187
1.96078994
1.667709326
1.419995371
1.210900107
1.034521896
0.8857625845
0.7602621628
0.6543147824
0.5647860741
0.4890369238
0.4248461186
0.370354584
0.3240022383
0.2844865457
0.2507168231
0.2217827585
0.1969254313
0.1755090234
0.1570027526
0.140963138
0.1270188629
0.1148580355
0.1042192117
0.0948826208
0.08666302137
0.07940388212
0.07297272102
0.06725666944
0.06215851325
0.05759146118
14.15358512
14.01834175
13.82913815
13.48440215
13.04498462
12.50857754
11.87850891
11.16123019
10.36580915
9.506290971
8.603211375
7.68328817
6.776534697
5.911540429
5.110771997
4.388131756
3.749188314
3.192959053
2.714138177
2.305217728
1.957905441
1.663990882
1.415860084
1.206660538
1.030406612
0.8819163627
0.7567728546
0.6512209811
0.5620963851
0.4867358778
0.4229063789
0.3687399465
0.3226744977
0.2834078807
0.2498506338
0.2210960961
0.1963886144
0.1750961764
0.1566917636
0.1407353128
0.1268582785
0.1147515216
0.1041559106
0.09485361581
0.0866610308
0.07942298608
0.07300813599
0.06730454556
0.06221579024
0.0576557864
14.15859824
14.02241237
13.82980797
13.48165867
13.03833673
12.49849993
11.86582718
11.14774178
10.35382137
9.497817587
8.599386419
7.684065713
6.780754376
5.91738824
5.116459005
4.392408197
3.751495058
3.193206744
2.71257743
2.302288681
1.95405763
1.659641153
1.411336736
1.202213649
1.026206856
0.8780689114
0.7533338248
0.6482064451
0.5594989062
0.484529222
0.4210564188
0.3672067304
0.3214183103
0.2823894869
0.2490341552
0.2204495383
0.1958832886
0.1747074372
0.1563986688
0.1405202453
0.1267062847
0.1146502755
0.1040952732
0.09482527002
0.08665818814
0.07944012719
0.07304079874
0.06734913469
0.06226944263
0.05771629191
14.18794723
14.05036828
13.85339413
13.50058169
13.05166984
12.50614833
11.86830151
11.14623258
10.35022762
9.494145002
8.597164328
7.683910217
6.782339003
5.919761595
5.118539704
4.393434093
3.751062518
3.191268798
2.709373711
2.298168408
1.94938491
1.654753732
1.406491561
1.197602117
1.021948937
0.8742356591
0.7499501835
0.6452708968
0.5569888132
0.4824099879
0.4192884322
0.3657470197
0.3202258306
0.28142474
0.2482617462
0.2198383322
0.1954056596
0.1743398467
0.1561212337
0.1403163148
0.1265617675
0.1145535922
0.1040369167
0.09479744941
0.08665454671
0.0794554957
0.07307099567
0.0673907869
0.06231985903
0.05777338687
14.24003507
14.10062566
13.89853636
13.53979032
13.08359654
12.53027131
11.88507864
11.15633303
10.35509128
9.495691451
8.597191661
7.683603808
6.782112967
5.91942147
5.117693181
4.391728808
3.748286022
3.187447348
2.704748228
2.293025751
1.944020184
1.649423438
1.401389151
1.192866192
1.017657057
0.8704266379
0.7466254072
0.6424123277
0.5545613143
0.4803724302
0.4175955601
0.3643539333
0.3190906115
0.2805079442
0.2475285576
0.219258473
0.1949525111
0.17399092
0.1558577025
0.1401221746
0.1264237903
0.11446088
0.1039805224
0.09477004479
0.08665015423
0.07946925357
0.07309896868
0.06742979692
0.06236736604
0.0578274149
14.31323629
14.17180096
13.96377041
13.59789233
13.13297473
12.56997723
11.91518464
11.17745754
10.3683052
9.5027083
8.599953439
7.683750303
6.780719141
5.917047783
5.114541718
4.387772486
3.743528244
3.182042097
2.698921988
2.287018923
1.938076692
1.64373069
1.396087969
1.188043211
1.013353621
0.8666534531
0.7433632802
0.6396289523
0.5522121781
0.4784105812
0.4159716378
0.3630214673
0.3180071367
0.2796342814
0.2468307093
0.2187066279
0.1945211641
0.1736585607
0.1556063919
0.1399366789
0.1262915802
0.1143716524
0.103925828
0.09474296699
0.08664505212
0.07948153742
0.07312492099
0.06746641176
0.06241223688
0.05787866291
14.40671527
14.26298112
14.04812493
13.67398242
13.19890166
12.62445467
11.95781791
11.20886419
10.38952908
9.515242867
8.605776012
7.684857679
6.778812872
5.913309644
5.109608809
4.38198204
3.737132311
3.175319127
2.692098031
2.280301804
1.931660127
1.63774826
1.390635217
1.183163333
1.009058909
0.8629256572
0.7401671236
0.6369200173
0.5499379714
0.4765192554
0.4144113657
0.3617450996
0.3169708183
0.2787996428
0.2461646119
0.2181799358
0.1941093559
0.1733410142
0.1553659702
0.13975887
0.1261644831
0.1142854976
0.1038726122
0.09471614133
0.08663927527
0.07949246173
0.07314902247
0.06750083756
0.06245469918
0.05792736946
14.51998725
14.37364185
14.15105323
13.76761644
13.28084717
12.69322858
12.0126056
11.24999253
10.41812394
9.533006906
8.614775579
7.687381384
6.776951859
5.908677091
5.103296055
4.374701585
3.729408911
3.167509837
2.684446946
2.273012636
1.924869736
1.631545699
1.385075093
1.178254077
1.004786063
0.8592499206
0.7370404133
0.6342844149
0.547735549
0.4746944255
0.4129103228
0.3605199495
0.3159776444
0.2780005622
0.2455272177
0.2176759584
0.1937151553
0.1730368085
0.1551353218
0.1395879432
0.1260419503
0.1142020718
0.1038206911
0.09468950587
0.08663285306
0.07950212198
0.07317141448
0.06753324554
0.06249494171
0.05797373214
14.65274867
14.50340497
14.27214579
13.87836456
13.37842192
12.77592362
12.0792931
11.30067869
10.45392453
9.555779999
8.62687034
7.691370402
6.775287113
5.903384664
5.095882747
4.366226884
3.720613998
3.158820831
2.676128309
2.265258968
1.917785231
1.625185399
1.379448713
1.173341427
1.000549469
0.8556328595
0.73398277
0.6317204016
0.5456029804
0.4729326246
0.4114646707
0.3593422011
0.3150241531
0.2772340398
0.2449160065
0.2171926329
0.1933369421
0.1727448076
0.1549135202
0.1394232198
0.1259235195
0.1141210859
0.1037699101
0.09466300864
0.08662580954
0.07951059701
0.0731922137
0.06756377691
0.06253311992
0.05801791347
14.80520829
14.65238267
14.4115045
14.00612294
13.49143558
12.87215123
12.15770322
11.36092797
10.49697966
9.583617743
8.642090602
7.696890485
6.773958417
5.897649305
5.087634383
4.356862203
3.710985804
3.149433765
2.667296455
2.257154002
1.910483385
1.618715336
1.373788323
1.168448509
0.9963621741
0.8520811082
0.7309963725
0.6292271068
0.5435367698
0.4712304789
0.410071066
0.3582086362
0.3141074727
0.2764978371
0.2443289174
0.2167282665
0.1929733544
0.1724638228
0.1546997695
0.1392641433
0.1258088117
0.114042301
0.1037201406
0.09463660529
0.08661816337
0.07951795083
0.07321151534
0.06759254684
0.06256936043
0.05806004542
14.97754207
14.82082908
14.56936645
14.15098933
13.61988394
12.98185111
12.24764051
11.43065178
10.54724872
9.616498522
8.660486794
7.704081684
6.773161038
5.891706498
5.078851245
4.346846214
3.700723446
3.139512909
2.658076638
2.248793544
1.903036481
1.612183386
1.368124488
1.163592237
0.9922339079
0.8486007941
0.7280830995
0.6268039902
0.5415347423
0.4695852703
0.4087272632
0.3571166653
0.3132251707
0.2757896857
0.2437641693
0.2162814307
0.1926232617
0.1721929785
0.1544934134
0.1391102423
0.1256975059
0.113965516
0.1036712741
0.09461025799
0.08660992874
0.07952423481
0.07322939609
0.06761964818
0.06260376512
0.05810023393
15.16980881
15.00895822
14.74577634
14.31294258
13.76375114
13.10494485
12.34867105
11.50953905
10.60466913
9.654469585
8.682101392
7.712975422
6.773001216
5.885799912
5.069784999
4.336384919
3.689993376
3.129212788
2.648580029
2.240255842
1.895508744
1.60563356
1.362486681
1.158789339
0.9881739679
0.8451955398
0.7252439111
0.6244508156
0.5395954604
0.4679949176
0.4074303465
0.3560640038
0.3123752239
0.2751077008
0.2432202474
0.2158509154
0.192285783
0.1719315431
0.1542939004
0.1389611232
0.1255893361
0.1138905642
0.1036232208
0.09458393463
0.08660111594
0.07952948929
0.07324591671
0.06764515448
0.06263641461
0.0581385627
3.118664935
2.638910218
2.231617611
1.887944877
1.599098047
1.356900773
1.154055752
0.9841912934
0.8418684689
0.722479631
0.6221674446
0.5377175827
0.4664576032
0.4061783174
0.3550487011
0.3115558925
0.2744504016
0.2426959229
0.2154357281
0.1919601482
0.1716789127
0.1541007789
0.1388164627
0.1254840823
0.1138173078
0.1035759063
0.0945576082
0.08659173196
0.07953374494
0.07326112373
0.06766912228
0.06266737086
0.05817509577
)
;

boundaryField
{
    front_top
    {
        type            wedge;
    }
    front_middle
    {
        type            wedge;
    }
    front_bottom
    {
        type            wedge;
    }
    back_top
    {
        type            wedge;
    }
    back_middle
    {
        type            wedge;
    }
    back_bottom
    {
        type            wedge;
    }
    axis_top
    {
        type            symmetryPlane;
    }
    axis_middle
    {
        type            symmetryPlane;
    }
    axis_bottom
    {
        type            symmetryPlane;
    }
    wall_top
    {
        type            calculated;
        value           nonuniform 0();
    }
    wall_middle
    {
        type            calculated;
        value           nonuniform 0();
    }
    wall_bottom
    {
        type            calculated;
        value           nonuniform List<scalar> 
23
(
0.05446118287
0.05461692682
0.05475680059
0.05488306081
0.05499768264
0.05510229179
0.05519827752
0.05528679987
0.0553688399
0.05544522423
0.05551665139
0.05558370831
0.05564688821
0.05570660573
0.05576320904
0.05581698856
0.05586818557
0.05591699979
0.0559635954
0.0560081055
0.0560506368
0.05609127355
0.05613007998
)
;
    }
    inlet
    {
        type            calculated;
        value           nonuniform 0();
    }
    outlet
    {
        type            calculated;
        value           nonuniform 0();
    }
    procBoundary1to0
    {
        type            processor;
        value           nonuniform List<scalar> 
51
(
15.38251681
15.21712438
14.94103412
14.49231514
13.92314768
13.24142857
12.46063219
11.59700654
10.66877388
9.697291733
8.706853991
7.723641394
6.773704054
5.880163543
5.06060616
4.325631849
3.678948202
3.678948202
3.107963183
2.629141361
2.222946082
1.880392996
1.592607247
1.351383697
1.149402446
0.9802937861
0.8386236537
0.7197915188
0.6199523709
0.5358995504
0.4649719015
0.4049694735
0.3540691722
0.310766141
0.2738166281
0.2421902038
0.215035049
0.1916456137
0.1714345834
0.1539136844
0.1386759993
0.125381566
0.1137456341
0.1035292686
0.09453125445
0.08658177961
0.07953702329
0.07327505122
0.06769159339
0.0626966797
0.05820988039
)
;
    }
    procBoundary1to2
    {
        type            processor;
        value           nonuniform List<scalar> 
51
(
19.21111135
18.94061987
18.44185157
17.60433725
16.46640043
15.07469201
13.53335555
11.96448558
10.46696341
9.098306453
7.880764953
6.814699458
5.889462478
5.09016362
4.401189146
3.807720073
3.296406844
2.855608992
2.475284913
2.146797927
1.862818226
1.617069
1.404230095
1.219764003
1.059812341
0.9210720325
0.8007318451
0.6963699716
0.6059111582
0.5275545833
0.4597442519
0.4011179883
0.3504867106
0.3068028972
0.2666175865
0.2666175865
0.2346119143
0.2070722969
0.1833601429
0.1629229802
0.1452839695
0.1300325812
0.1168177996
0.1053402208
0.09534495047
0.08661530041
0.07896756737
0.07224600986
0.06631818891
0.06107005698
0.05639913051
)
;
    }
}


// ************************************************************************* //
