/*--------------------------------*- C++ -*----------------------------------*\
  =========                 |
  \\      /  F ield         | OpenFOAM: The Open Source CFD Toolbox
   \\    /   O peration     | Website:  https://openfoam.org
    \\  /    A nd           | Version:  7
     \\/     M anipulation  |
\*---------------------------------------------------------------------------*/
FoamFile
{
    version     2.0;
    format      ascii;
    class       volTensorField;
    location    "0.0024";
    object      grad(U);
}
// * * * * * * * * * * * * * * * * * * * * * * * * * * * * * * * * * * * * * //

dimensions      [0 0 -1 0 0 0 0];

internalField   nonuniform List<tensor> 
1167
(
(-0.2376905863 -1.863145965e-13 0.1373827435 7.043434024e-13 -0.3895663947 0 0.01880212574 -2.582230873e-14 1.284958939)
(-0.3144397052 -2.461758863e-13 0.3215660519 4.008239257e-13 -0.3402945282 0 0.04905279153 -5.003521076e-14 1.283207052)
(-0.3079647321 -3.627336866e-13 0.5369720752 3.351701766e-13 -0.3242906589 0 0.07731469027 9.164620317e-14 1.280049155)
(-0.3147643426 6.515491597e-14 0.7831474331 3.704323243e-13 -0.3208560614 0 0.1056916061 -5.492477015e-14 1.278312231)
(-0.3202525299 2.855601333e-14 1.073560476 1.810028565e-13 -0.3197291429 0 0.1321376305 -1.109242706e-13 1.281615287)
(-0.3331086338 -2.542228523e-13 1.426373582 2.163391278e-13 -0.320309798 0 0.1550645655 -1.350423288e-13 1.294588861)
(-0.3583485767 -3.805871936e-13 1.861841942 2.063162632e-13 -0.3233231904 0 0.1730441387 -1.152002811e-13 1.321803936)
(-0.3988655277 -5.492082487e-13 2.400650605 2.554514399e-13 -0.3295585377 0 0.1849128541 -7.197483566e-14 1.367248178)
(-0.4565264512 -2.525710644e-13 3.063448622 2.820767415e-13 -0.3396328617 0 0.1898583781 -1.645768051e-14 1.433681113)
(-0.5326121995 -1.763395168e-13 3.871399854 2.562583111e-13 -0.35403157 0 0.1872878908 -9.36615611e-14 1.522578387)
(-0.6276472888 -2.832579547e-13 4.847760774 2.624108609e-13 -0.3731049136 0 0.1768513397 -5.905674601e-14 1.634555327)
(-0.7415953791 -2.492010167e-13 6.01945059 2.613672185e-13 -0.3970617016 0 0.1583576037 -4.186270517e-14 1.769721762)
(-0.8741453497 -2.991898262e-13 7.418241295 2.596570175e-13 -0.4260016465 0 0.1316227967 -2.548665432e-14 1.927860652)
(-1.024694484 -1.978378535e-13 9.081750153 2.666339845e-13 -0.4599422396 1.733544128e-12 0.09637734562 -1.433710726e-14 2.108455658)
(-1.192337776 -1.160663959e-13 11.0545709 2.527697012e-13 -0.4988259766 0 0.05232532256 -1.002211381e-14 2.310599301)
(-1.375915641 -2.148618082e-13 13.38956844 2.477545337e-13 -0.5425323667 0 -0.000746098513 -2.020238853e-14 2.532798792)
(-1.573657863 -1.199111151e-13 16.14917898 2.482743739e-13 -0.5908849415 0 -0.06299801692 -1.426233011e-14 2.772855194)
(-1.782747709 -7.909760528e-15 19.4068591 2.362503339e-13 -0.6436232657 0 -0.1346955963 -1.624230109e-14 3.027764066)
(-1.999555823 -3.515495332e-14 23.24934215 2.268794088e-13 -0.7003764523 0 -0.2160204877 -1.994433036e-14 3.293462273)
(-2.219486683 -4.395710105e-14 27.77908363 2.184783513e-13 -0.7606750475 0 -0.3069462056 -1.965222824e-14 3.564599388)
(-2.43650369 -4.028900327e-14 33.11673365 2.122552916e-13 -0.8239222837 0 -0.4074467684 -1.463965069e-14 3.834474299)
(-2.643239184 -2.719703179e-14 39.40450116 2.040372562e-13 -0.8893745423 0 -0.5173119748 -8.849817828e-15 4.094760122)
(-2.830841784 -6.442505947e-15 46.8095886 1.977836619e-13 -0.9561379343 0 -0.636173096 -2.511792605e-15 4.335484027)
(-2.988821059 2.018906694e-14 55.52801809 1.920624725e-13 -1.023149002 0 -0.7634353331 6.258328622e-15 4.544941422)
(-3.105250355 5.435376674e-14 65.78867478 1.842821468e-13 -1.089169509 0 -0.8982311643 1.446857971e-14 4.709786649)
(-3.166882398 1.045623168e-13 77.85732736 1.79466675e-13 -1.152790183 0 -1.039331525 2.103034458e-14 4.815249712)
(-3.159553966 6.548096598e-14 92.0401303 1.676127862e-13 -1.21243647 0 -1.185051355 1.132611576e-14 4.845565895)
(-3.068808632 2.116725968e-14 108.6864821 1.611000088e-13 -1.266395737 0 -1.333190598 2.17849248e-14 4.784603151)
(-2.880777829 -5.020209709e-15 128.1907178 1.597391022e-13 -1.312852393 0 -1.480929707 1.978706985e-14 4.616819444)
(-2.583287421 1.126750535e-14 150.9918203 1.585804002e-13 -1.34994822 1.230199468e-12 -1.624792526 1.537486083e-14 4.328367155)
(-2.167119113 8.032383319e-14 177.5710431 1.504427804e-13 -1.375852814 0 -1.760625098 2.261941195e-14 3.908534048)
(-1.627381402 9.435007664e-14 208.4469871 1.401724839e-13 -1.388855118 0 -1.883679256 2.232490819e-14 3.351117346)
(-0.9648804636 1.136192271e-13 244.1679889 1.372284772e-13 -1.387460983 0 -1.98875671 2.70393349e-14 2.655917214)
(-0.1872230256 1.337592846e-13 285.3021641 1.320713975e-13 -1.370502337 0 -2.070465599 3.515323066e-14 1.829873791)
(-0.273486208 -4.203600883e-14 0.1397482155 4.655659936e-13 -0.4480749949 0 0.01605634874 -2.153086034e-13 1.381716018)
(-0.3619460444 -1.933048814e-13 0.3266591488 1.946078685e-13 -0.3914887599 0 0.04190717872 -6.751489784e-13 1.379847595)
(-0.3544063544 -2.835424624e-13 0.5426385458 2.265346169e-13 -0.3731951054 0 0.06622219546 -2.7475722e-13 1.376074256)
(-0.3608075626 -2.300623308e-13 0.7847120708 2.43656654e-13 -0.3692010226 0 0.09100377182 -2.125402898e-13 1.372501727)
(-0.3631045911 -2.222663151e-13 1.064254257 2.304571889e-13 -0.3673788443 0 0.1146055786 1.684635229e-14 1.371865818)
(-0.3701284075 -2.920033802e-13 1.397862282 2.354768198e-13 -0.366751352 0 0.1358387095 -5.183697118e-14 1.377889313)
(-0.3868034704 -3.269615078e-13 1.805391692 2.490273492e-13 -0.3678858518 0 0.1534485077 1.238254371e-13 1.39476051)
(-0.4163818158 -3.148869386e-13 2.308313802 2.586768369e-13 -0.3715030881 0 0.1661388526 1.877239632e-14 1.426524711)
(-0.4612255422 -2.695161974e-13 2.929102639 2.633496549e-13 -0.3782683054 0 0.172974257 -4.452450515e-14 1.476503536)
(-0.5229327266 -2.301921201e-13 3.690923817 2.605651735e-13 -0.3887285815 0 0.173237615 1.720941443e-14 1.5468612)
(-0.6023741614 -1.967162049e-13 4.618528618 2.584045882e-13 -0.4033042272 0 0.1664350965 9.127139999e-15 1.638663821)
(-0.6997171641 -1.781208707e-13 5.739767989 2.500851803e-13 -0.4222805018 0 0.1522637309 -7.815380665e-14 1.752212702)
(-0.8145912601 -1.810047561e-13 7.087107246 2.454292357e-13 -0.4458145119 0 0.1305127418 -8.215725291e-14 1.887315268)
(-0.9463164892 -1.774749394e-13 8.698968364 2.420867288e-13 -0.4739543635 0 0.1009811005 -1.376582221e-13 2.0433882)
(-1.094035974 -1.685273752e-13 10.62106089 2.365665152e-13 -0.5066666494 0 0.06348956551 -7.481598381e-14 2.219404145)
(-1.256581952 -1.597646669e-13 12.90769291 2.321724876e-13 -0.5438548717 -1.595601525e-12 0.01789260395 -5.462114746e-14 2.41380952)
(-1.432000228 -1.4182174e-13 15.62307398 2.302180558e-13 -0.5853567089 0 -0.03603430615 -1.318145372e-13 2.624443928)
(-1.617457765 -1.223719991e-13 18.8431075 2.231253154e-13 -0.6309107752 0 -0.09855483427 -1.163997731e-13 2.848398495)
(-1.809602449 -1.119510853e-13 22.65767281 2.197894273e-13 -0.6801570613 0 -0.1697598311 -7.249091518e-14 3.081679299)
(-2.004010652 -9.775296586e-14 27.17280709 2.143300282e-13 -0.7326498811 0 -0.249700226 -4.496542462e-14 3.319151106)
(-2.194899172 -8.10638616e-14 32.51346684 2.095514025e-13 -0.7878131537 0 -0.3383651837 -2.373927723e-14 3.554405234)
(-2.375299263 -6.200975002e-14 38.82677089 2.066870907e-13 -0.8449390465 0 -0.4355480438 -7.585501789e-15 3.779531101)
(-2.536837874 -4.093215021e-14 46.28526127 1.977836619e-13 -0.9031749293 0 -0.5409107533 6.144864769e-15 3.985156071)
(-2.669734489 -1.801335924e-14 55.09056855 1.920624725e-13 -0.9615132066 0 -0.6538730261 2.12647731e-14 4.160335988)
(-2.762979738 7.168938393e-15 65.47708589 1.893309727e-13 -1.018787486 0 -0.7735792868 3.62560788e-14 4.292771401)
(-2.804555421 3.360618646e-14 77.71547525 1.79466675e-13 -1.073680429 0 -0.8988277868 5.001680491e-14 4.368989369)
(-2.781795005 5.415545243e-14 92.11558057 1.750074679e-13 -1.124735425 0 -1.027970671 6.707733653e-14 4.374900526)
(-2.682046371 7.190193931e-14 109.0284845 1.684227365e-13 -1.170382691 0 -1.158889805 5.026657492e-14 4.296348122)
(-2.493538466 9.047013514e-14 128.8473674 1.573188127e-13 -1.20898043 0 -1.288895099 3.168343642e-14 4.120085388)
(-2.206342047 6.875947038e-14 152.0064082 1.561776668e-13 -1.238872123 1.230199468e-12 -1.414741555 5.968692465e-15 3.834748341)
(-1.813501116 4.954127024e-14 178.9777523 1.504427804e-13 -1.258454219 0 -1.53262623 2.877539116e-15 3.432130476)
(-1.312160697 7.207226629e-14 210.2662574 1.472998983e-13 -1.266259419 0 -1.638302813 1.542974852e-14 2.908310951)
(-0.7046615609 9.842501801e-14 246.4019175 1.395944854e-13 -1.261042299 0 -1.72722722 2.194409301e-14 2.26484571)
(0.0006673507007 1.262766913e-13 287.9304546 1.344298153e-13 -1.241872189 0 -1.794812639 2.278108721e-14 1.509597158)
(0.7890153667 1.538839506e-13 335.4032051 1.270555894e-13 -1.208211894 0 -1.836729623 1.659055436e-14 0.6573397377)
(1.63905399 1.83577619e-13 389.3655848 1.198125119e-13 -1.159990476 0 -1.849229347 2.93227873e-14 -0.2702141754)
(2.523371936 2.184893745e-13 450.3454162 1.173725039e-13 -1.097647718 0 -1.82952102 3.903663218e-14 -1.244725935)
(3.409100023 2.615601873e-13 518.8427135 1.103246076e-13 -1.022160584 0 -1.776067739 5.059319052e-14 -2.232193072)
(4.259328551 3.092457277e-13 595.3202178 1.033479862e-13 -0.9350444298 0 -1.68885025 4.115706682e-14 -3.193896414)
(5.034629232 3.558007366e-13 680.1968038 9.17211571e-14 -0.838317585 0 -1.569521689 3.366499835e-14 -4.088124673)
(5.694490158 4.007514641e-13 773.8426255 8.718231208e-14 -0.7344499899 0 -1.421465282 2.652267963e-14 -4.871900107)
(6.198893847 4.4539935e-13 876.5746899 7.79497881e-14 -0.6262904685 0 -1.249732468 1.910584223e-14 -5.502417095)
(6.509910372 4.901366373e-13 988.6559495 6.989358582e-14 -0.5169819781 0 -1.060913369 9.135611284e-15 -5.938653876)
(6.593223104 5.341766441e-13 1110.298118 6.063146687e-14 -0.4098634103 0 -0.8628795047 1.623612457e-16 -6.142957791)
(6.420166053 9.216758071e-13 1241.665385 5.252190909e-14 -0.3083678003 0 -0.6644825835 -1.203271965e-14 -6.082256149)
(5.968801451 6.095191795e-13 1382.879479 3.41743118e-14 -0.2158981058 0 -0.475142775 6.1817732e-14 -5.728707053)
(5.212633514 3.136689227e-13 1534.029764 3.374253275e-14 -0.135731562 0 -0.3044725555 -2.08899278e-14 -5.060281926)
(4.091342303 7.047162267e-13 1695.197708 2.438422793e-14 -0.07122876814 0 -0.1625744124 -1.498367072e-14 -4.060961005)
(2.58020977 7.503584044e-13 1866.531794 1.477708251e-14 -0.02647543783 0 -0.06139494802 -9.946401345e-15 -2.720345644)
(1.246104661 7.970556473e-13 2048.488681 5.020357607e-15 -0.00465574174 0 -0.01096903816 -3.567329279e-15 -1.031518491)
(-0.3038087347 9.895218914e-13 0.1421568145 -7.453052173e-13 -0.4975533962 0 0.01346950287 3.41021442e-14 1.463762147)
(-0.402334346 -4.283893728e-13 0.3321396007 -1.122580126e-12 -0.4348272354 0 0.03518952306 9.658277405e-14 1.461910988)
(-0.3942411461 -1.093972653e-12 0.549808626 -3.958039774e-14 -0.4146998923 0 0.05575602108 6.166593046e-14 1.457971619)
(-0.4008909969 -4.845111019e-13 0.7901292681 1.607886549e-13 -0.4104022567 0 0.07688131937 4.08363555e-14 1.453550234)
(-0.4013731326 -2.201683696e-13 1.062815448 1.948500696e-13 -0.4082395966 0 0.0973239457 4.142035313e-14 1.450693985)
(-0.4045521885 -4.820931871e-13 1.382698377 1.847203322e-13 -0.4069298658 0 0.1162545152 7.353888134e-15 1.452218236)
(-0.4149513629 -4.833360012e-13 1.768608264 2.736405175e-13 -0.4068764298 0 0.132706592 -7.796956647e-14 1.461745108)
(-0.4358193866 -2.301686114e-13 2.242000385 2.631923927e-13 -0.4086765144 0 0.1454572658 -2.836312082e-14 1.483023042)
(-0.4698673315 -2.606041433e-13 2.826353539 2.633496549e-13 -0.4129779921 0 0.1534300666 -8.845026314e-15 1.519566231)
(-0.5190451133 -2.774677156e-13 3.546615179 2.637953202e-13 -0.420354171 0 0.1558035293 1.511289265e-16 1.57405906)
(-0.5845489204 -8.361529281e-14 4.429333661 2.664171336e-13 -0.43127806 0 0.1519590661 1.362955448e-14 1.648116156)
(-0.6667978138 -6.651977135e-14 5.503756228 2.359826326e-13 -0.4460935978 0 0.1414714603 3.754643432e-14 1.742397849)
(-0.7655977527 -1.702470803e-13 6.803400725 2.347583994e-13 -0.4650160349 0 0.1240727025 6.848767175e-14 1.856849287)
(-0.8803325266 -2.214477242e-13 8.367673221 2.293898724e-13 -0.4881441482 1.733544128e-12 0.09958891034 1.104242144e-13 1.990877396)
(-1.010138207 -2.948964024e-13 10.24339021 2.333258781e-13 -0.5154825247 0 0.06789285173 8.481370337e-14 2.143394914)
(-1.15367041 -8.182095911e-14 12.48616644 2.337306922e-13 -0.546962931 -1.595601525e-12 0.02883226194 6.962594125e-14 2.31282362)
(-1.308808666 1.475451579e-14 15.16189596 2.181805104e-13 -0.5824281836 0 -0.01786059002 5.104413658e-14 2.497035639)
(-1.472955094 -1.467663614e-13 18.34885764 2.114586322e-13 -0.6216216838 0 -0.07237535665 2.697365572e-14 2.693106977)
(-1.642884452 -2.025242145e-13 22.13985769 2.098634532e-13 -0.6642098786 0 -0.1347432091 -1.751038261e-14 2.897143123)
(-1.814183208 -1.606340904e-13 26.64430959 2.087989307e-13 -0.7097599754 0 -0.2050650078 -2.539334028e-14 3.104237939)
(-1.981400852 -1.314343575e-13 31.99119079 2.095514025e-13 -0.7577159667 0 -0.2833062267 1.046324537e-15 3.308236634)
(-2.137964281 -1.015373105e-13 38.33206335 2.040372562e-13 -0.8074038726 0 -0.3692920781 1.110310682e-14 3.501661639)
(-2.27600577 -7.977525116e-14 45.84430045 2.003860785e-13 -0.8580117575 0 -0.4626891168 6.733045325e-15 3.675702246)
(-2.386459791 -5.770877104e-14 54.73447571 1.946233055e-13 -0.9085882429 0 -0.5629257798 3.938854922e-14 3.820196225)
(-2.459205476 -2.13662961e-14 65.24166295 1.918553857e-13 -0.9580385511 0 -0.6691598079 7.123385837e-14 3.923849572)
(-2.48339204 2.161301822e-14 77.64045106 1.869444532e-13 -1.005135722 0 -0.7802197681 6.967254251e-14 3.974472491)
(-2.447759529 6.655694994e-14 92.24330249 1.774723619e-13 -1.048537397 0 -0.8945202823 7.08731413e-14 3.959532321)
(-2.341314458 1.199287353e-13 109.401953 1.684227365e-13 -1.086810723 0 -1.010035014 6.985613342e-14 3.866707568)
(-2.154126122 1.211728301e-13 129.5075331 1.64579681e-13 -1.118477593 0 -1.124238685 6.5371436e-14 3.684774899)
(-1.878188686 9.346726533e-14 152.9888774 1.561776668e-13 -1.14206638 6.15099734e-13 -1.234138967 5.472578633e-14 3.40451366)
(-1.508396326 5.16120972e-14 180.3090749 1.480547997e-13 -1.156178287 0 -1.336290055 4.277681449e-14 3.019756734)
(-1.043453694 3.737252335e-14 211.9600706 1.449240935e-13 -1.159559184 0 -1.426930131 5.419548483e-14 2.528367305)
(-0.4867508538 9.140324164e-14 248.455257 1.372284772e-13 -1.151176111 0 -1.502108381 5.90971165e-14 1.933109797)
(0.1531186182 1.508097641e-13 290.3206511 1.344298153e-13 -1.130293587 0 -1.557948602 5.895369441e-14 1.242318302)
(0.8619847814 1.345760781e-13 338.0857561 1.270555894e-13 -1.096536837 0 -1.590886959 7.094364785e-14 0.4701893769)
(1.620236789 1.128289547e-13 392.2732315 1.245110417e-13 -1.049949993 0 -1.597945709 6.125485461e-14 -0.3632114388)
(2.403312707 1.496797441e-13 453.3886672 1.173725039e-13 -0.9910249392 0 -1.577019725 4.991132356e-14 -1.232385954)
(3.182263652 2.523198596e-13 521.9113519 1.150192717e-13 -0.9207176383 0 -1.527100652 3.697253724e-14 -2.107275191)
(3.924989962 3.566120255e-13 598.2861679 1.033479862e-13 -0.8404418634 0 -1.448501556 5.028108337e-14 -2.954094441)
(4.597492184 3.908576211e-13 682.9185053 9.642480618e-14 -0.7520342142 0 -1.342921184 6.544694265e-14 -3.736800562)
(5.165023898 4.345424336e-13 776.1692898 8.836045143e-14 -0.6577069028 0 -1.213470298 8.491004705e-14 -4.418456871)
(5.593434303 4.906093967e-13 878.3507954 8.149296029e-14 -0.5599848166 0 -1.064594186 7.577736656e-14 -4.962379369)
(5.85040755 5.424827868e-13 989.7264583 6.989358582e-14 -0.4616308897 0 -0.9019798172 2.356056208e-15 -5.333519295)
(5.906653502 5.9825973e-13 1110.513481 6.063146687e-14 -0.3655656325 0 -0.7323129941 3.977206222e-14 -5.499712283)
(5.73764535 6.687357671e-13 1240.885352 5.132822934e-14 -0.2747813476 0 -0.5630431394 3.960204762e-15 -5.43251975)
(5.32446293 6.448316982e-13 1380.976193 4.01698051e-14 -0.1922387391 0 -0.4020424203 7.686513549e-14 -5.107821862)
(4.643718634 6.118134795e-13 1530.890344 3.163362445e-14 -0.1207879577 0 -0.2573075333 -2.401655282e-14 -4.506264713)
(3.641501627 6.640816644e-13 1690.72528 2.317258928e-14 -0.06336044868 0 -0.1372305058 -3.838769091e-14 -3.613407608)
(2.295262074 7.114717876e-13 1860.642168 1.39392067e-14 -0.02354454232 0 -0.05175698444 -2.894842588e-14 -2.419398256)
(1.10811827 7.519763117e-13 2041.092822 4.732932553e-15 -0.004139393277 0 -0.009228475538 -1.932893126e-14 -0.9171843129)
(-0.3290389806 -2.018255276e-13 0.1444781747 6.953517845e-13 -0.53866416 0 0.01108068395 4.565807559e-13 1.531992518)
(-0.436082478 -2.093955059e-13 0.3375560324 4.097007758e-13 -0.470868021 -2.237512504e-11 0.02898438595 1.491679964e-12 1.530233827)
(-0.4277084977 -1.891450889e-13 0.5574164592 3.115903652e-13 -0.449315492 0 0.04603333748 7.979109787e-13 1.526409029)
(-0.4348602661 -1.977995171e-13 0.797411507 2.832353999e-13 -0.44485096 0 0.06360744514 3.634420858e-13 1.521793277)
(-0.4344237162 -1.564814281e-13 1.066039692 2.621079616e-13 -0.4425426077 0 0.08085191468 2.493402895e-13 1.517844324)
(-0.4353056469 -6.490173833e-14 1.376440402 2.388051141e-13 -0.4408831957 0 0.09718709733 2.950622123e-13 1.516657781)
(-0.4414635113 -2.742202164e-13 1.746088781 2.070401799e-13 -0.440145047 0 0.111907039 -3.897634679e-15 1.521190495)
(-0.4557329149 -4.446197123e-13 2.195861047 2.451301696e-13 -0.4407721626 0 0.1240105318 4.312634105e-14 1.53478754)
(-0.4809973539 -3.243315594e-13 2.749512431 2.598383262e-13 -0.443326242 0 0.1323846491 7.499126408e-14 1.560812528)
(-0.5195270262 -2.753290051e-13 3.433244974 2.594884579e-13 -0.4483766856 0 0.136143541 -2.145661395e-14 1.602196109)
(-0.5728078893 -2.734163737e-13 4.275334134 2.624108609e-13 -0.4564176461 2.051211615e-12 0.1345695067 -3.076788753e-14 1.661007538)
(-0.6415817934 -2.920678039e-13 5.306711362 2.613672185e-13 -0.4678370761 -1.925467854e-12 0.1271330123 1.356146642e-13 1.738323765)
(-0.7258928125 -3.353011591e-13 6.562305819 2.667709084e-13 -0.4829037688 0 0.1134876161 1.220630369e-13 1.834346599)
(-0.8252766695 -2.080350163e-13 8.082735875 2.71712727e-13 -0.5017674625 0 0.09342741994 1.52557097e-13 1.948578153)
(-0.9388507127 -7.999690139e-14 9.915975613 2.592509756e-13 -0.5244784039 0 0.06681102914 1.267629375e-13 2.079957554)
(-1.065061043 -8.433325972e-14 12.11889343 2.493127384e-13 -0.5509943127 -1.595601525e-12 0.03342142099 1.07271762e-13 2.226934264)
(-1.201793258 -4.46793952e-14 14.75914815 2.40750908e-13 -0.5811650732 -1.540805811e-12 -0.006963562522 2.10939857e-13 2.387366902)
(-1.346670374 3.736984448e-14 17.91730637 2.289586569e-13 -0.6147535532 -1.493335444e-12 -0.05441608183 2.357224418e-13 2.558305406)
(-1.496468197 9.334680756e-15 21.68874112 2.155354384e-13 -0.6514506225 0 -0.109031305 1.814550253e-13 2.735968361)
(-1.646874892 -1.442298491e-13 26.18604697 2.087989307e-13 -0.6908361438 0 -0.1709116851 1.49502845e-13 2.91564366)
(-1.792730865 -1.694234708e-13 31.54194189 2.095514025e-13 -0.7323799627 0 -0.2399665147 1.264648226e-13 3.09143749)
(-1.927799292 -7.539348441e-14 37.91204419 2.053621734e-13 -0.7754378298 0 -0.3160418665 1.128639191e-13 3.256313933)
(-2.044747086 -1.147477657e-13 45.47804001 2.003860785e-13 -0.8192388754 0 -0.3987980577 1.028486277e-13 3.402001937)
(-2.135198627 -1.848501266e-13 54.45077281 1.997449714e-13 -0.862886712 0 -0.4876828182 8.840605324e-14 3.519125426)
(-2.189894065 -7.090050488e-14 65.07323711 1.969042116e-13 -0.9053568813 0 -0.5818754309 7.815057276e-14 3.597345207)
(-2.199076949 3.442893679e-14 77.62308678 1.919296386e-13 -0.9455102386 0 -0.680240468 8.204605937e-14 3.625706807)
(-2.152806418 5.37534629e-14 92.41451773 1.848670436e-13 -0.9821136073 0 -0.7812690105 9.263428434e-14 3.593098831)
(-2.041586258 8.741506161e-14 109.799106 1.806272826e-13 -1.013864659 0 -0.8830371116 1.125401098e-13 3.488870768)
(-1.857089148 1.337611714e-13 130.1653148 1.694202599e-13 -1.039437021 0 -0.983205006 1.464954804e-13 3.303559311)
(-1.592932953 1.342222217e-13 153.9364249 1.585804002e-13 -1.05752799 0 -1.079028077 1.79917431e-13 3.029762941)
(-1.245491671 4.989806813e-14 181.5667407 1.552187416e-13 -1.066920967 0 -1.167418597 2.198781775e-13 2.662956216)
(-0.8146578452 2.336594752e-14 213.5362654 1.52051508e-13 -1.066547085 0 -1.245061608 1.634326759e-13 2.202361754)
(-0.3044778984 8.411575146e-14 250.3434785 1.490585183e-13 -1.055553709 0 -1.308548655 1.523741148e-13 1.651556913)
(0.2764985444 8.870092308e-14 292.4972012 1.39146651e-13 -1.033364137 0 -1.354614975 1.941638702e-13 1.019011244)
(0.9149052318 1.476846598e-13 340.508185 1.341142332e-13 -0.9997306026 -6.023376088e-13 -1.380319631 1.501586021e-13 0.3181405886)
(1.592836001 2.517567747e-13 394.8797264 1.315588365e-13 -0.9547795266 0 -1.383315371 1.044145064e-13 -0.4326380606)
(2.288292214 2.986717587e-13 456.0988864 1.220674041e-13 -0.8990296326 0 -1.362034055 6.762392882e-14 -1.210453274)
(2.975777297 2.589469465e-13 524.6278615 1.173666038e-13 -0.8334021924 6.009170113e-13 -1.31585132 3.156999705e-14 -1.988676311)
(3.627322513 2.1163216e-13 600.8970068 1.103944399e-13 -0.7592070756 0 -1.245278992 4.385157153e-14 -2.737755738)
(4.213444769 2.347483771e-13 685.3006871 1.011284553e-13 -0.6781122165 0 -1.151981225 5.564402357e-14 -3.426440154)
(4.704136686 3.655315404e-13 778.1921204 9.542928755e-14 -0.5921004029 -6.032073484e-13 -1.038780801 6.890744597e-14 -4.022757191)
(5.070035507 7.47813479e-13 879.8798265 8.739824727e-14 -0.5034152637 0 -0.909585434 8.318926663e-14 -4.495018367)
(5.283376333 6.170836853e-13 990.6279193 6.989358582e-14 -0.4144946728 -3.032670842e-13 -0.7692908537 6.706357273e-14 -4.813029749)
(5.318908712 5.320833817e-13 1110.657796 6.479244989e-14 -0.3279054104 0 -0.6235897039 4.486838337e-14 -4.949067566)
(5.155414481 7.736799177e-13 1240.150129 5.311874897e-14 -0.2462701755 0 -0.4787691337 2.587822239e-14 -4.878409229)
(4.776365564 7.282041849e-13 1379.248987 4.196845309e-14 -0.1721810339 0 -0.3414368608 8.825933596e-15 -4.579916021)
(4.160883576 7.672527898e-13 1528.070621 3.133235184e-14 -0.1081337153 0 -0.2182788859 -8.116602647e-15 -4.036371878)
(3.260395589 7.233797808e-13 1686.725142 2.029494747e-14 -0.05670412068 0 -0.1163007096 -2.72894017e-14 -3.234589359)
(2.054174468 6.71667777e-13 1855.383424 1.176834664e-14 -0.02106743993 0 -0.04381882976 5.729023323e-15 -2.165127358)
(0.9915144412 5.935450397e-13 2034.4921 3.0275439e-15 -0.003703422268 3.924310068e-14 -0.007802656782 -1.571753177e-14 -0.8207735756)
(-0.3496005113 -1.657166107e-12 0.146650504 2.3268309e-12 -0.5720765555 0 0.008916885062 -5.663787152e-13 1.587429966)
(-0.4636459886 -4.530834469e-13 0.3426644564 2.242428913e-12 -0.5002091713 0 0.02333734978 -9.806965317e-14 1.585817312)
(-0.4551293116 8.229248918e-13 0.564799492 1.048459472e-12 -0.4775464761 -6.898779112e-12 0.03706882518 -1.010049636e-13 1.582290924)
(-0.4629624934 4.364738003e-13 0.8052839566 5.182342032e-13 -0.472990923 0 0.0512927246 2.286047987e-14 1.577861884)
(-0.4622520019 -1.19226475e-13 1.071740954 3.877219659e-13 -0.4706819292 0 0.06547965974 4.05464818e-15 1.573528466)
(-0.4618248183 2.850989572e-14 1.375806793 3.736010322e-13 -0.4689030175 0 0.07916525702 1.639164385e-13 1.570892877)
(-0.4652392211 -4.607051205e-14 1.73347431 2.707448506e-13 -0.467810197 -2.965162856e-12 0.09179283503 3.020955607e-13 1.572226512)
(-0.4747941788 -3.801142927e-13 2.164750936 2.838349333e-13 -0.4677323115 0 0.1026742838 1.466372081e-13 1.580414418)
(-0.4932145854 -1.229536562e-13 2.69319051 2.949516135e-13 -0.4691121794 0 0.1108292597 3.835834209e-14 1.598505103)
(-0.5229900586 -7.39663656e-14 3.345594505 2.541048799e-13 -0.4724756098 0 0.1153052158 1.023789106e-13 1.629409304)
(-0.5658389414 -4.159315041e-13 4.151642554 2.543983156e-13 -0.4783134016 0 0.115330203 4.574530244e-14 1.675460515)
(-0.6227800671 -3.694188094e-13 5.14398859 2.792304457e-13 -0.4870329117 0 0.110303854 -2.860903231e-16 1.738105825)
(-0.6941693331 -2.090226486e-13 6.359218583 2.729955629e-13 -0.4989410746 0 0.09980172465 -7.818990639e-14 1.817859457)
(-0.7797318158 -2.278126847e-13 7.839386506 2.734056412e-13 -0.5142364718 1.733544128e-12 0.08354748136 -1.067987171e-13 1.914426005)
(-0.8784991717 -1.962943193e-13 9.633707809 2.673525686e-13 -0.5330104619 0 0.06129907547 -1.516621882e-14 2.026869525)
(-0.9888775995 -2.770226075e-13 11.80044897 2.617783753e-13 -0.555238739 0 0.03281497902 6.382415083e-14 2.153682855)
(-1.108997772 -2.720864373e-13 14.40907829 2.66330692e-13 -0.5807939309 0 -0.002026975069 8.569357752e-14 2.292677554)
(-1.236473271 -7.396209998e-14 17.54224797 2.62500371e-13 -0.6094737269 0 -0.04326965066 1.317440746e-13 2.44094758)
(-1.367951509 -6.716095782e-16 21.29773898 2.495673497e-13 -0.6409812462 -1.452028217e-12 -0.09106489333 2.155877501e-13 2.594854275)
(-1.499413777 -2.913953931e-14 25.7911343 2.39219967e-13 -0.6749102641 -1.415960961e-12 -0.1454653186 2.319996412e-13 2.749814947)
(-1.62598951 -4.235652782e-14 31.15850567 2.325344596e-13 -0.7107628524 0 -0.2063828613 1.877943761e-13 2.900213222)
(-1.741727772 -4.28941959e-14 37.55913325 2.265608494e-13 -0.7479244103 0 -0.2736674969 1.883722476e-13 3.039432775)
(-1.839803936 -1.74443238e-14 45.17851704 2.160005781e-13 -0.7856661284 -1.332437301e-12 -0.346963077 1.803390752e-13 3.159751033)
(-1.912489089 5.951935998e-15 54.23118471 2.099883033e-13 -0.8231445689 0 -0.4257330554 1.069194074e-13 3.252549636)
(-1.951365453 -5.359447066e-15 64.96336445 2.044774505e-13 -0.8594036939 1.29249944e-12 -0.5091756628 4.198336707e-14 3.308403279)
(-1.94769081 -1.765018528e-14 77.65505552 1.96914824e-13 -0.8933895785 0 -0.5961951099 5.087434849e-14 3.317507562)
(-1.892737104 -1.73794278e-14 92.62145953 1.897968314e-13 -0.9239722991 0 -0.6853618899 5.885728216e-14 3.270049378)
(-1.778336019 -3.096665209e-14 110.2133692 1.855091011e-13 -0.9499726642 0 -0.7748731008 7.04829044e-14 3.156862918)
(-1.597546997 -7.020021119e-14 130.8162056 1.81521707e-13 -0.9702030933 0 -0.8625767245 8.851433288e-14 2.970010797)
(-1.3453425 -1.192567596e-13 154.8476423 1.826077335e-13 -0.9835142101 0 -0.945982083 1.150081743e-13 2.703603877)
(-1.019262822 1.051644287e-13 182.753667 1.767105674e-13 -0.9888497343 -6.11323044e-13 -1.022340414 1.255381282e-13 2.354441151)
(-0.6200713898 2.378264141e-13 215.0033061 1.686821416e-13 -0.9853010652 0 -1.08874949 9.646427345e-14 1.922744757)
(-0.1521902893 -5.390524603e-15 252.0817444 1.608885594e-13 -0.9721665121 0 -1.142289364 7.692490044e-14 1.412614702)
(0.3760206155 1.621227995e-13 294.4828303 1.580139935e-13 -0.9489986912 -6.037549601e-13 -1.180209639 6.378568307e-14 0.8324068147)
(0.9521242342 4.198468497e-13 342.701171 1.482315209e-13 -0.9156498058 0 -1.200085819 3.90132078e-14 0.1947197959)
(1.559888692 3.795737644e-13 397.2236356 1.386066314e-13 -0.8723022421 0 -1.20007025 3.370745991e-14 -0.4836432949)
(2.179581569 3.899311729e-13 458.5216193 1.291097543e-13 -0.8194832698 0 -1.179005399 3.068728486e-14 -1.182227335)
(2.788683673 3.297038793e-13 527.0430515 1.150192717e-13 -0.7580708749 0 -1.136554679 3.204903138e-14 -1.877380719)
(3.362738595 2.741923735e-13 603.2064839 1.103944399e-13 -0.6892742225 0 -1.073331678 1.331349859e-14 -2.543155892)
(3.87605462 3.033555086e-13 687.3970506 1.046561921e-13 -0.6146072537 0 -0.9909190886 -1.32488659e-14 -3.152310383)
(4.302569599 3.365635789e-13 779.961391 9.778556625e-14 -0.5358497645 0 -0.8918551469 -4.219897485e-14 -3.676999507)
(4.616829136 4.988929457e-13 881.2049333 8.976036206e-14 -0.4550006846 -3.023506932e-13 -0.7795692835 -3.364037092e-14 -4.089675923)
(4.794759847 6.842181311e-13 991.3923135 7.700140811e-14 -0.3742203457 0 -0.6582766475 3.253522731e-14 -4.364095492)
(4.814395645 7.529411391e-13 1110.748182 6.598130218e-14 -0.2957755765 0 -0.5328351138 -1.630194436e-14 -4.476103298)
(4.6571806 8.067036975e-13 1239.458815 5.371558884e-14 -0.2219782426 0 -0.4085675949 1.036125006e-14 -4.404016758)
(4.308511026 7.775136043e-13 1377.676157 4.136890376e-14 -0.1551117618 3.069692569e-13 -0.2910427552 1.575247952e-14 -4.129113542)
(3.749560275 7.555625885e-13 1525.525925 3.103107922e-14 -0.0973761782 0 -0.1858765629 2.233706544e-14 -3.635907222)
(2.93624656 6.050833516e-13 1683.128258 2.029494747e-14 -0.05105103689 0 -0.09894660588 3.395724687e-14 -2.912230481)
(1.849383637 6.667491247e-13 1850.661557 1.462474145e-14 -0.01896598848 7.799862109e-14 -0.03724404398 2.425005757e-14 -1.948993914)
(0.8926203926 7.079486318e-13 2028.567312 3.113771416e-15 -0.003334209154 0 -0.006622463913 1.739566176e-14 -0.7388969573)
(-0.3659217499 -1.396093076e-12 0.1485987198 -3.113097932e-12 -0.598634686 0 0.006952278551 -1.990753781e-13 1.631174535)
(-0.4854645636 -8.711809548e-13 0.3472471524 1.911936954e-13 -0.5235115757 0 0.01817615312 -7.515264048e-13 1.629778824)
(-0.4768869428 -4.311259954e-13 0.5715828574 1.751643134e-13 -0.4999233591 6.898779112e-12 0.02884815357 -5.624036341e-13 1.626683098)
(-0.485549564 -3.597549526e-13 0.81302059 3.067352802e-13 -0.4953221464 0 0.04001655695 -1.157580088e-13 1.622641076)
(-0.484991613 -4.384310088e-13 1.078448265 2.660643082e-13 -0.4931128719 0 0.05130193027 3.576933292e-14 1.618370082)
(-0.4838700052 -6.134982429e-13 1.378360235 3.436463837e-13 -0.4913643874 0 0.06236948789 3.013744348e-14 1.615128445)
(-0.4855945949 -2.100546143e-13 1.727410716 3.70645357e-13 -0.490126561 0 0.07280235121 1.677837784e-13 1.614583551)
(-0.4920329347 5.692447674e-14 2.144465596 3.135085854e-13 -0.4896672974 0 0.08209922856 7.57541395e-14 1.619094652)
(-0.5053957181 -2.531048504e-13 2.652578384 2.773949698e-13 -0.4903204402 2.397067081e-12 0.08951678152 -2.925466369e-14 1.63137313)
(-0.5281532975 -2.801374235e-13 3.278704768 2.982502192e-13 -0.4925203424 -2.205113534e-12 0.09414756885 1.338052226e-13 1.654143139)
(-0.5622927691 -6.589516531e-14 4.053460394 2.784359517e-13 -0.4967283793 0 0.09517558882 8.990443095e-14 1.689787971)