/*--------------------------------*- C++ -*----------------------------------*\
  =========                 |
  \\      /  F ield         | OpenFOAM: The Open Source CFD Toolbox
   \\    /   O peration     | Website:  https://openfoam.org
    \\  /    A nd           | Version:  7
     \\/     M anipulation  |
\*---------------------------------------------------------------------------*/
FoamFile
{
    version     2.0;
    format      ascii;
    class       volScalarField;
    location    "0.0024";
    object      p;
}
// * * * * * * * * * * * * * * * * * * * * * * * * * * * * * * * * * * * * * //

dimensions      [1 -1 -2 0 0 0 0];

internalField   nonuniform List<scalar> 
1167
(
584998.315
586861.2557
587418.3329
588477.5792
589848.218
591311.7883
592690.4076
593884.255
594848.3254
595585.206
596136.6759
596556.1923
596892.9682
597187.7074
597472.5047
597769.0456
598093.0117
598457.0282
598868.969
599330.6774
599844.7319
600408.3766
601018.1424
601668.0239
602350.6836
603056.7557
603776.3252
604497.7308
605209.5526
605899.4597
606556.2246
607168.9941
607728.8089
608228.155
573284.4015
575233.2516
575668.9056
576598.8557
577872.6548
579291.121
580716.7693
582033.7781
583170.016
584100.6961
584840.6167
585429.6401
585913.5149
586334.2082
586723.5549
587106.2505
587500.2805
587921.6737
588376.8292
588869.6963
589403.376
589975.18
590582.9191
591220.1922
591880.8235
592555.4393
593235.2356
593909.4099
594567.8397
595199.7572
595795.6886
596346.7205
596845.8296
597287.3825
597667.9604
597985.834
598241.2975
598436.125
598573.4108
598657.3833
598692.9422
598685.4009
598640.2297
598562.915
598458.8466
598333.342
598190.894
598032.2419
597855.1185
597684.889
561867.56
563877.5447
564215.7552
565034.8204
566212.2933
567556.4392
568974.9827
570352.1725
571606.6259
572688.7904
573590.4242
574333.8033
574955.1384
575493.2856
575980.9775
576444.1295
576905.229
577378.8566
577872.5913
578393.3705
578943.0496
579520.5746
580123.6512
580746.7669
581384.1135
582027.2762
582668.088
583297.1704
583905.4191
584483.9058
585024.5403
585520.3735
585965.8787
586357.1057
586691.8841
586969.5218
587191.0154
587358.5149
587475.2125
587545.1434
587572.81
587562.9743
587520.4863
587450.1336
587356.5796
587244.4066
587117.4583
586976.2357
586818.5704
586666.9635
550674.8958
552727.4973
552984.9676
553719.6057
554806.9381
556070.1722
557442.6176
558836.1095
560160.1893
561353.4635
562387.5091
563265.6312
564011.9693
564659.5598
565238.9881
565778.862
566302.7797
566824.3924
567353.4945
567898.6491
568461.1516
569042.1121
569638.4314
570246.3282
570859.8228
571472.1205
572075.3635
572661.9033
573223.5365
573753.1575
574243.93
574690.644
575089.0175
575436.5339
575731.9465
575975.3711
576168.2628
576312.973
576412.7211
576471.2904
576492.7906
576481.4796
576441.6676
576377.5427
576293.1536
576192.4663
576078.7835
575952.4147
575811.2855
575675.4856
539653.6682
541731.3625
541926.2262
542592.7097
543596.3871
544784.8051
546096.4773
547473.9876
548830.7883
550097.6805
551233.6374
552225.2922
553082.6888
553829.7967
554495.2632
555108.3376
555689.9178
556255.1839
556817.3881
557383.7435
557956.7186
558538.8253
559126.9385
559718.7508
560308.4312
560890.6509
561458.1833
562004.8314
562523.5631
563008.6971
563454.7715
563857.8954
564214.9719
564524.5344
564786.0762
565000.3713
565169.1295
565294.7937
565380.5275
565429.8531
565446.5128
565434.3199
565397.0948
565338.5152
565262.1125
565171.3355
565069.0351
564955.3669
564828.3466
564706.0193
528757.1513
530854.5815
531005.7592
531611.8941
532541.4566
533662.6976
534913.0247
536251.5113
537612.0991
538923.2929
540133.0195
541215.2978
542166.8926
543003.5321
543749.5821
544429.7231
545064.3453
545670.2192
546262.256
546846.6368
547428.6199
548010.008
548589.1842
549164.3421
549730.7258
550283.8958
550817.8097
551327.3437
551806.8182
552251.7162
552657.8641
553022.4677
553343.4336
553620.0952
553852.5403
554042.0084
554190.3714
554300.0957
554374.2169
554416.0069
554428.8694
554416.2224
554381.4586
554327.8164
554258.388
554176.1858
554083.6812
553980.9058
553865.9591
553755.1495
517964.1422
520074.881
520188.9055
520742.4943
521612.3156
522668.0592
523859.6941
525152.3674
526494.7436
527823.9401
529083.0218
530235.0851
531266.4037
532182.8365
533001.2108
533742.0331
534424.8394
535069.1017
535687.5607
536287.4521
536876.5044
537455.5829
538025.3095
538583.591
539127.5053
539652.9464
540155.5555
540630.8196
541074.6369
541483.2827
541853.9381
542184.5614
542474.0016
542722.1753
542929.643
543097.9297
543229.0241
543325.368
543389.8453
543425.4794
543435.3547
543422.5609
543390.1127
543340.8669
543277.5403
543202.7764
543118.7277
543025.3257
542920.7486
542819.8217
507259.5624
509370.2597
509450.4244
509956.4711
510778.3426
511772.9391
512911.705
514158.0922
515471.6226
516799.1061
518086.3677
519289.4791
520385.6253
521369.4159
522250.4484
523045.0403
523772.3183
524451.1405
525092.7647
525706.9096
526300.9433
526876.6685
527436.3517
527977.9589
528500.2557
528999.5636
529473.0849
529916.9542
530328.4505
530704.6042
531043.7412
531344.4352
531606.3764
531829.8801
532015.88
532166.081
532282.5081
532367.6042
532424.0625
532454.6655
532462.2064
532449.4916
532419.2065
532373.8783
532315.9032
532247.6115
532170.8865
532085.5787
531989.939
531897.5228
496618.8604
498720.9875
498771.8443
499240.5003
500020.3553
500961.1683
502047.7192
503249.6084
504530.3252
505845.5399
507144.4782
508381.2385
509525.604
510563.9509
511498.2567
512339.8874
513107.9147
513816.9125
514478.4762
515104.9356
515702.2613
516274.2543
516823.4503
517348.9686
517850.5257
518325.4719
518772.0163
519187.2967
519569.5509
519916.7058
520227.8746
520502.2886
520740.22
520942.3046
521109.8452
521244.5924
521348.5643
521424.1843
521473.9559
521500.4413
521506.1799
521493.7095
521465.4339
521423.6001
521370.3306
521307.6887
521237.3294
521159.0378
521071.1326
520986.0763
486029.818
488114.4072
488139.4438
488581.6106
489321.1085
490216.8056
491251.7514
492411.4003
493657.0815
494951.9564
496250.5308
497506.8824
498686.1552
499767.3815
500745.0154
501628.6438
502431.7721
503166.6804
503846.1906
504482.5392
505081.5303
505649.1532
506187.5099
506697.735
507179.5679
507631.9721
508053.6737
508443.0523
508798.9789
509120.3021
509406.7436
509658.1139
509875.1047
510058.6294
510210.2735
510331.8
510425.21
510492.835
510537.0234
510560.1382
510564.4938
510552.3877
510525.9784
510487.2714
510438.155
510380.4644
510315.6606
510243.4763
510162.2932
510083.6294
475475.7426
477536.0792
477546.6157
477964.6423
478665.2068
479524.2578
480513.7381
481628.8911
482841.3241
484112.1573
485401.6747
486666.2484
487867.9758
488979.9588
489993.7392
490913.0019
491745.2657
492501.7198
493196.9546
493840.9819
494440.6025
495002.9756
495530.4726
496025.9797
496489.2058
496920.7471
497319.6549
497685.5954
498017.8237
498316.1865
498580.7392
498811.9033
499010.6453
499178.1233
499316.0586
499426.2539
499510.6754
499571.5527
499611.0803
499631.4299
499634.7407
499623.0895
499598.4171
499562.5196
499517.0844
499463.752
499403.8185
499336.9749
499261.6615
499188.5763
464949.9339
466986.1477
466988.3198
467382.4642
468048.7829
468874.0029
469823.6781
470894.9147
472070.9701
473316.364
474591.7175
475855.4179
477069.1326
478204.0929
479247.0231
480193.7598
481049.2505
481824.2353
482531.9172
483181.0322
483780.6705
484337.1684
484854.1678
485335.3228
485781.1945
486193.3345
486571.4671
486916.1497
487227.1425
487505.0548
487750.2292
487963.6747
488146.5013
488300.0659
488426.1761
488526.6312
488603.4011
488658.5831
488694.2236
488712.319
488714.861
488703.7304
488680.6764
488647.3137
488605.1568
488555.6797
488500.0372
488437.8876
488367.7264
488299.5354
454454.5462
456463.3083
456453.7347
456823.1966
457463.8626
458253.0856
459170.1108
460204.0462
461341.9034
462558.2287
463814.9641
465072.2107
466291.355
467442.2494
468505.0336
469472.2247
470345.4774
471135.8387
471852.6686
472504.821
473103.1581
473652.9246
474159.7217
474627.0387
475056.8328
475451.0395
475810.2814
476135.7293
476427.7494
476687.4403
476915.5279
477113.3911
477282.2724
477423.7796
477539.6881
477631.774
477702.021
477752.3889
477784.7903
477801.072
477803.073
477792.5089
477770.9655
477739.9003
477700.6786
477654.6303
477602.7894
477544.7889
477479.1765
477415.3047
443985.062
445958.2333
445938.5043
446285.4306
446903.8831
447659.5028
448546.628
449546.7982
450650.6813
451836.2057
453070.7213
454316.8607
455535.239
456693.1521
457768.1683
458748.8734
459636.2276
460437.5324
461160.1197
461814.2863
462409.7274
462952.1958
463448.7843
463902.7438
464317.5489
464695.0799
465037.1942
465345.2118
465620.2769
465863.7697
466076.7851
466260.9427
466417.626
466548.6538
466655.7478
466740.6633
466805.3414
466851.6368
466881.3408
466896.1676
466897.8149
466887.8538
466867.7276
466838.7577
466802.1799
466759.1998
466710.7478
466656.4377
466594.8667
466534.8314
433535.9382
435467.4419
435436.8158
435770.8758
436366.9059
437093.0866
437945.5059
438916.5221
439988.7214
441144.6311
442355.4063
443585.8156
444797.2266
445955.847
447036.3209
448025.4106
448922.7144
449730.6575
450455.9304
451110.2945
451701.5073
452236.6436
452722.8646
453164.091
453564.7102
453926.8329
454253.296
454545.5067
454805.388
455034.4006
455234.1028
455406.2146
455552.2653
455674.1542
455773.6112
455852.3647
455912.2902
455955.1433
455982.5924
455996.2639
455997.7169
455988.3904
455969.6025
455942.5565
455908.3766
455868.1607
455822.75
455771.7447
455713.789
455657.185
423103.7048
424986.0511
424949.0864
425272.6823
425843.8421
426546.4436
427366.116
428307.7826
429351.444
430478.3404
431663.9887
432875.809
434075.9157
435229.4073
436309.7965
437303.7749
438205.5723
439015.9473
439742.1076
440394.3424
440979.8101
441507.3092
441983.0852
442412.27
442799.4917
443147.4616
443459.5082
443737.4407
443983.6339
444199.6889
444387.6056
444549.1035
444685.8394
444799.7565
444892.5687
444966.022
445021.8932
445061.8426
445087.4253
445100.1952
445101.5853
445092.9178
445075.4004
445050.1333
445018.1436
444980.4361
444937.7749
444889.7508
444835.0536
444781.5416
412679.2506
414514.9918
414479.8285
414789.9992
415336.2244
416018.3623
416810.4697
417719.0235
418734.4478
419834.7309
420994.7824
422185.352
423369.2439
424512.8387
425590.0003
426583.8711
427485.5527
428294.6411
429019.5744
429667.7169
430246.4782
430765.5963
431230.7515
431648.3718
432022.7874
432357.737
432656.5751
432921.5781
433155.4237
433359.9422
433537.355
433689.4135
433817.9957
433924.9587
434011.9882
434080.8743
434133.2811
434170.7843
434194.8477
434206.9314
434208.3675
434200.3774
434184.0722
434160.4619
434130.4884
434095.0748
434054.9186
434009.6051
433957.8684
433907.1653
402269.5637
404058.5634
404023.7119
404319.6669
404846.1454
405503.9858
406271.4805
407149.9367
408134.3482
409206.473
410341.3843
411509.0872
412675.1674
413806.9048
414877.0222
415865.5907
416762.7525
417568.4883
418289.2726
418931.0345
419502.6423
420012.6901
420467.2703
420873.5352
421235.7439
421558.5614
421845.1043
422098.4119
422321.118
422515.3096
422683.3436
422827.0239
422948.4239
423049.2998
423131.3172
423196.2549
423245.6962
423281.1357
423303.9612
423315.5418
423317.1188
423309.8243
423294.6843
423272.6292
423244.5265
423211.228
423173.3731
423130.5449
423081.5206
423033.3913
391881.7089
393615.5826
393578.4785
393858.3687
394368.8972
395000.6665
395746.861
396598.6917
397552.9503
398595.1751
399703.8577
400847.9454
401995.0732
403111.9441
404170.078
405149.2394
406038.2568
406838.2779
407552.2302
408185.8128
408749.1526
409249.3462
409693.593
410088.7142
410439.3987
410750.7104
411025.8522
411268.4404
411480.9411
411665.8754
411825.5365
411961.8177
412076.8443
412172.3634
412250.0177
412311.5396
412358.4409
412392.1281
412413.9554
412425.1922
412426.994
412420.4129
412406.4002
412385.8168
412359.4646
412328.1329
412292.4102
412251.8806
412205.3635
412159.6135
381508.3271
383182.8947
383143.0995
383410.9446
383905.3821
384512.4069
385234.3389
386061.908
386988.6016
388002.5938
389083.7119
390202.8906
391327.7979
392425.8373
393468.3178
394433.9133
395313.2514
396104.2772
396808.774
397433.3863
397987.0327
398476.6249
398910.498
399294.544
399634.3054
399934.7683
400199.4201
400432.0493
400635.2055
400811.7679
400963.8991
401093.5817
401202.9467
401293.7138
401367.5604
401426.1257
401470.8551
401503.0757
401524.1092
401535.1353
401537.2323
401531.3808
401518.4653
401499.2852
401474.5849
401445.0979
401411.3684
401372.9838
401328.8051
401285.2746
371150.9811
372760.4911
372717.3632
372978.7886
373453.9492
374039.3969
374733.3467
375538.0499
376437.7511
377423.3231
378476.5568
379569.4317
380670.3826
381747.1242
382770.4282
383720.3984
384587.6602
385366.8165
386059.5792
386674.0405
387217.0451
387695.7338
388118.826
388491.8273
388821.0962
389111.165
389366.0512
389589.4831
389784.1582
389953.0458
390098.3024
390222.0954
390326.4216
390412.9676
390483.4738
390539.4684
390582.3384
390613.3513
390633.7646
390644.6914
390647.1429
390642.0354
390630.1937
390612.3618
390589.2328
390561.491
390529.6411
390493.2762
390451.2987
390409.858
360803.8041
362343.8309
362304.856
362558.3777
363011.0998
363578.8387
364246.6265
365023.8627
365899.5005
366857.2347
367881.9269
368947.3028
370022.3746
371074.6235
372076.7174
373009.8928
373861.407
374625.9588
375305.9324
375908.497
376439.4488
376907.1386
377319.2246
377681.399
378000.3476
378280.4032
378526.1242
378740.9513
378927.8214
379089.6785
379228.682
379347.1543
379446.9659
379529.7801
379597.3325
379651.0785
379692.3412
379722.3519
379742.2961
379753.2232
379756.0837
379751.7358
379740.951
379724.424
379702.8021
379676.7255
379646.6639
379612.2179
379572.3312
379532.8761
350468.0179
351940.0909
351908.5722
352151.3689
352582.444
353131.3443
353774.8495
354521.8279
355369.8485
356301.7142
357298.3963
358334.6931
359381.2401
360407.6843
361387.8315
362301.0948
363134.2288
363881.8976
364548.0513
365137.2451
365655.2169
366111.3436
366512.0243
366863.6473
367172.4832
367442.9889
367679.9308
367886.5852
368066.2419
368221.6333
368354.9657
368468.5722
368564.2989
368643.7805
368708.7085
368760.4792
368800.3453
368829.5287
368849.1328
368860.1461
368863.4632
368859.8903
368850.1507
368834.8949
368814.7293
368790.2544
368761.9089
368729.3021
368691.4192
368653.8675
353135.6151
353786.0753
354360.427
354865.2317
355308.957
355697.8172
356038.954
356337.7933
356599.1489
356827.6607
357026.6054
357199.4799
357348.8308
357476.9552
357586.1067
357678.0808
357754.5731
357817.1634
357867.1954
357905.8649
357934.3669
357953.7372
357964.9086
357968.7239
357965.9414
357957.24
357943.2304
357924.4822
357901.5604
357874.8752
357844.0465
357808.1004
357772.3893
)
;

boundaryField
{
    front_top
    {
        type            wedge;
    }
    front_middle
    {
        type            wedge;
    }
    front_bottom
    {
        type            wedge;
    }
    back_top
    {
        type            wedge;
    }
    back_middle
    {
        type            wedge;
    }
    back_bottom
    {
        type            wedge;
    }
    axis_top
    {
        type            symmetryPlane;
    }
    axis_middle
    {
        type            symmetryPlane;
    }
    axis_bottom
    {
        type            symmetryPlane;
    }
    wall_top
    {
        type            fixedFluxPressure;
        gradient        nonuniform 0();
        value           nonuniform 0();
    }
    wall_middle
    {
        type            fixedFluxPressure;
        gradient        nonuniform 0();
        value           nonuniform 0();
    }
    wall_bottom
    {
        type            fixedFluxPressure;
        gradient        uniform 0;
        value           nonuniform List<scalar> 
23
(
597684.889
586666.9635
575675.4856
564706.0193
553755.1495
542819.8217
531897.5228
520986.0763
510083.6294
499188.5763
488299.5354
477415.3047
466534.8314
455657.185
444781.5416
433907.1653
423033.3913
412159.6135
401285.2746
390409.858
379532.8761
368653.8675
357772.3893
)
;
    }
    inlet
    {
        type            zeroGradient;
    }
    outlet
    {
        type            fixedValue;
        value           nonuniform 0();
    }
    procBoundary1to0
    {
        type            processor;
        value           nonuniform List<scalar> 
51
(
340151.8594
341553.7338
341524.1798
341752.5777
342167.4554
342691.4818
343314.3528
344034.7319
344851.2902
345754.4598
346721.9666
347728.9217
348746.9858
349747.3317
350703.1464
351593.5759
352405.7301
352405.7301
342387.3163
343020.2346
343578.3144
344069.4317
344500.3253
344877.3074
345207.7164
345496.519
345749.0456
345969.4612
346161.1289
346327.5368
346471.1639
346594.4737
346699.5194
346788.0452
346861.8216
346922.3067
346970.7949
347008.437
347036.3783
347055.6029
347066.9928
347071.3427
347069.3665
347061.7009
347048.916
347031.5524
347010.1468
346985.0821
346955.9871
346921.9288
346888.0119
)
;
    }
    procBoundary1to2
    {
        type            processor;
        value           nonuniform List<scalar> 
51
(
597105.1573
598860.0248
599559.93
600756.6704
602207.9251
603648.4394
604902.5379
605899.9886
606630.9632
607135.8059
607477.8319
607716.2686
607898.7621
608061.7206
608234.6653
608439.0213
608687.8814
608989.8836
609353.819
609780.8779
610271.2024
610823.338
611432.1673
612092.421
612795.4723
613532.4079
614292.0199
615062.3369
615830.3593
616582.5783
617305.7953
617987.1683
618615.4922
619181.0469
608661.9623
608661.9623
609027.1512
609322.9799
609550.6346
609712.9751
609814.3311
609859.9791
609855.8187
609808.0468
609722.9606
609606.8068
609465.7828
609305.169
609126.0085
608925.9385
608733.7209
)
;
    }
}


// ************************************************************************* //
