/*--------------------------------*- C++ -*----------------------------------*\
  =========                 |
  \\      /  F ield         | OpenFOAM: The Open Source CFD Toolbox
   \\    /   O peration     | Website:  https://openfoam.org
    \\  /    A nd           | Version:  7
     \\/     M anipulation  |
\*---------------------------------------------------------------------------*/
FoamFile
{
    version     2.0;
    format      ascii;
    class       surfaceScalarField;
    location    "0.0024";
    object      phi;
}
// * * * * * * * * * * * * * * * * * * * * * * * * * * * * * * * * * * * * * //

dimensions      [1 0 -1 0 0 0 0];

internalField   nonuniform List<scalar> 
2260
(
-7.427757644e-15
5.766836189e-11
-2.910655253e-14
1.687345403e-10
-6.407545526e-14
2.735734161e-10
-1.115371482e-13
3.724216134e-10
-1.712207785e-13
4.655096991e-10
-2.435648772e-13
5.530610275e-10
-3.302377431e-13
6.352911573e-10
-4.340661144e-13
7.124068591e-10
-5.590229693e-13
7.846060347e-10
-7.101679638e-13
8.520774164e-10
-8.934026185e-13
9.150003925e-10
-1.115283855e-12
9.735448593e-10
-1.382864135e-12
1.027870944e-09
-1.703516778e-12
1.07812871e-09
-2.08469277e-12
1.124457533e-09
-2.533788056e-12
1.166985814e-09
-3.057881725e-12
1.205830203e-09
-3.663294165e-12
1.241094915e-09
-4.355155581e-12
1.272870442e-09
-5.13727962e-12
1.301233264e-09
-6.011184165e-12
1.326244214e-09
-6.975977842e-12
1.347946956e-09
-8.027474102e-12
1.366367034e-09
-9.157762534e-12
1.381509472e-09
-1.035448273e-11
1.393357696e-09
-1.160052248e-11
1.401870324e-09
-1.287336114e-11
1.406980566e-09
-1.414530618e-11
1.408593035e-09
-1.53832139e-11
1.406582536e-09
-1.654955749e-11
1.400792837e-09
-1.760293011e-11
1.391035484e-09
-1.850004443e-11
1.377090458e-09
-1.919723184e-11
1.358706957e-09
1.335606288e-09
-8.54570348e-15
5.767690759e-11
-3.348542458e-14
1.6875948e-10
-7.370720487e-14
2.736136379e-10
-1.282066696e-13
3.724761128e-10
-1.963003024e-13
4.655777927e-10
-2.779027829e-13
5.5314263e-10
-3.738560832e-13
6.353871106e-10
-4.861465975e-13
7.125191496e-10
-6.178856923e-13
7.847377738e-10
-7.732415012e-13
8.522327722e-10
-9.573023143e-13
9.151844533e-10
-1.175844257e-12
9.737634012e-10
-1.435144376e-12
1.028130244e-09
-1.741752836e-12
1.078435318e-09
-2.102384033e-12
1.124818164e-09
-2.52366144e-12
1.167407092e-09
-3.011939626e-12
1.206318482e-09
-3.572676651e-12
1.241655652e-09
-4.210427894e-12
1.273508193e-09
-4.928364236e-12
1.3019512e-09
-5.727496217e-12
1.327043346e-09
-6.606658964e-12
1.348826119e-09
-7.561414477e-12
1.36732179e-09
-8.58406702e-12
1.382532125e-09
-9.662589258e-12
1.394436218e-09
-1.078083294e-11
1.402988567e-09
-1.191762868e-11
1.408117362e-09
-1.304735273e-11
1.40972276e-09
-1.413963906e-11
1.407674823e-09
-1.516052845e-11
1.401813726e-09
-1.607299431e-11
1.39194795e-09
-1.683883922e-11
1.377856303e-09
-1.742006085e-11
1.359288179e-09
-1.778137281e-11
1.3359676e-09
-1.789204612e-11
1.30759575e-09
-1.77285546e-11
1.27385645e-09
-1.727633957e-11
1.234422132e-09
-1.653183067e-11
1.188959685e-09
-1.550379323e-11
1.137138116e-09
-1.421396865e-11
1.078635141e-09
-1.269743691e-11
1.013143914e-09
-1.10022337e-11
9.403799402e-10
-9.188513853e-12
8.600870452e-10
-7.327093362e-12
7.720419895e-10
-5.497774632e-12
6.760589266e-10
-3.787364697e-12
5.719922254e-10
-2.28757994e-12
4.597384916e-10
-1.092927338e-12
3.392368892e-10
-2.987617871e-13
2.104667476e-10
7.343728282e-11
-9.49114353e-15
5.768639874e-11
-3.719756748e-14
1.687871864e-10
-8.189859887e-14
2.73658339e-10
-1.424593133e-13
3.725366736e-10
-2.178936487e-13
4.65653227e-10
-3.077649762e-13
5.532325013e-10
-4.122440356e-13
6.354915897e-10
-5.326010485e-13
7.126395066e-10
-6.711215625e-13
7.848762944e-10
-8.311662998e-13
8.523928169e-10
-1.017022327e-12
9.153703093e-10
-1.233705624e-12
9.739800845e-10
-1.486769341e-12
1.028383308e-09
-1.782073323e-12
1.078730622e-09
-2.125624612e-12
1.125161715e-09
-2.523405202e-12
1.167804872e-09
-2.98094463e-12
1.206776021e-09
-3.503081197e-12
1.242177788e-09
-4.093824702e-12
1.274098936e-09
-4.755646888e-12
1.302613022e-09
-5.489223889e-12
1.327776923e-09
-6.292994605e-12
1.349629889e-09
-7.162463519e-12
1.368191259e-09
-8.090028812e-12
1.38345969e-09
-9.06416929e-12
1.395410358e-09
-1.006956049e-11
1.403993959e-09
-1.108648171e-11
1.409134283e-09
-1.209118706e-11
1.410727465e-09
-1.305603261e-11
1.408639668e-09
-1.395025006e-11
1.402707944e-09
-1.474089395e-11
1.392738594e-09
-1.539419225e-11
1.378509601e-09
-1.587716625e-11
1.359771153e-09
-1.61595271e-11
1.336249961e-09
-1.621546637e-11
1.307651689e-09
-1.602579941e-11
1.273666783e-09
-1.557939458e-11
1.233975728e-09
-1.487484981e-11
1.188255141e-09
-1.392149834e-11
1.136184765e-09
-1.273989787e-11
1.077453541e-09
-1.136205482e-11
1.011766071e-09
-9.831073534e-12
9.388489589e-10
-8.200349749e-12
8.584563214e-10
-6.532389693e-12
7.703740295e-10
-4.89738425e-12
6.744239212e-10
-3.371564498e-12
5.704664056e-10
-2.035464762e-12
4.584023919e-10
-9.721691141e-13
3.381735936e-10
-2.657046797e-13
2.097602832e-10
7.317157814e-11
-1.027682891e-14
5.769667557e-11
-4.028610706e-14
1.688171957e-10
-8.874422187e-14
2.737067971e-10
-1.543932568e-13
3.726023226e-10
-2.360837613e-13
4.657349175e-10
-3.330970515e-13
5.533295146e-10
-4.451847005e-13
6.356036773e-10
-5.729370116e-13
7.12767259e-10
-7.179541067e-13
7.850213114e-10
-8.828262584e-13
8.52557689e-10
-1.071080413e-12
9.155585635e-10
-1.287012758e-12
9.741960168e-10
-1.535495496e-12
1.02863179e-09
-1.82173065e-12
1.079016858e-09
-2.151122667e-12
1.125491107e-09
-2.528970215e-12
1.16818272e-09
-2.960106547e-12
1.207207157e-09
-3.448834297e-12
1.242666516e-09
-3.998597446e-12
1.274648699e-09
-4.611284871e-12
1.30322571e-09
-5.287285936e-12
1.328452924e-09
-6.024616739e-12
1.35036722e-09
-6.818847391e-12
1.368985489e-09
-7.662394636e-12
1.384303237e-09
-8.544357603e-12
1.396292321e-09
-9.450129248e-12
1.40489973e-09
-1.03614706e-11
1.410045624e-09
-1.125636561e-11
1.41162236e-09
-1.210974495e-11
1.409493047e-09
-1.289374678e-11
1.403491945e-09
-1.357910587e-11
1.393423953e-09
-1.413595084e-11
1.379066446e-09
-1.453568144e-11
1.360170883e-09
-1.475221772e-11
1.336466497e-09
-1.47638783e-11
1.30766335e-09
-1.455497387e-11
1.273457879e-09
-1.411706661e-11
1.23353782e-09
-1.345035614e-11
1.18758843e-09
-1.256435165e-11
1.13529876e-09
-1.14783634e-11
1.076367552e-09
-1.022157736e-11
1.010509285e-09
-8.832765431e-12
9.374601469e-10
-7.359499466e-12
8.569830554e-10
-5.857219408e-12
7.688717494e-10
-4.388008236e-12
6.7295471e-10
-3.019223056e-12
5.690976204e-10
-1.822047248e-12
4.572052161e-10
-8.7003192e-13
3.372215782e-10
-2.37763435e-13
2.091280147e-10
7.29338147e-11
-1.091498227e-14
5.770759055e-11
-4.280273261e-14
1.688490835e-10
-9.433181111e-14
2.737583262e-10
-1.641524849e-13
3.726721433e-10
-2.510534608e-13
4.658218185e-10
-3.540686578e-13
5.534325298e-10
-4.72694832e-13
6.357223035e-10
-6.069953592e-13
7.129015595e-10
-7.579574171e-13
7.851722735e-10
-9.275034041e-13
8.52727235e-10
-1.118447261e-12
9.157495073e-10
-1.334393609e-12
9.744119632e-10
-1.579558212e-12
1.028876955e-09
-1.858550302e-12
1.07929585e-09
-2.176169334e-12
1.125808726e-09
-2.537028438e-12
1.168543579e-09
-2.945443442e-12
1.207615572e-09
-3.405227955e-12
1.243126301e-09
-3.919168478e-12
1.27516264e-09
-4.488769013e-12
1.30379531e-09
-5.114078089e-12
1.329078233e-09
-5.792812669e-12
1.351045955e-09
-6.52058044e-12
1.369713257e-09
-7.289880814e-12
1.385072537e-09
-8.090398236e-12
1.397092839e-09
-8.908277727e-12
1.40571761e-09
-9.726638906e-12
1.410863986e-09
-1.052516923e-11
1.41242089e-09
-1.12810897e-11
1.410248968e-09
-1.196927876e-11
1.404180134e-09
-1.256366217e-11
1.394018337e-09
-1.303788272e-11
1.379540667e-09
-1.336704465e-11
1.360500045e-09
-1.352868932e-11
1.336628141e-09
-1.350457835e-11
1.307639239e-09
-1.328180956e-11
1.27323511e-09
-1.285407867e-11
1.233110089e-09
-1.222273518e-11
1.186957087e-09
-1.139724186e-11
1.134473267e-09
-1.039565495e-11
1.075365965e-09
-9.244605132e-12
1.009358235e-09
-7.979046371e-12
9.361945882e-10
-6.641553888e-12
8.556455629e-10
-5.281542278e-12
7.675117378e-10
-3.954232272e-12
6.716274e-10
-2.719502863e-12
5.67862891e-10
-1.640679398e-12
4.561263926e-10
-7.833127783e-13
3.363642116e-10
-2.140657378e-13
2.085587677e-10
7.271974896e-11
-1.14216711e-14
5.771901222e-11
-4.480032089e-14
1.688824621e-10
-9.875699398e-14
2.738122828e-10
-1.719088431e-13
3.727452951e-10
-2.630161091e-13
4.659129258e-10
-3.709292553e-13
5.535404429e-10
-4.94953301e-13
6.358463275e-10
-6.348342152e-13
7.130414404e-10
-7.910215868e-13
7.853284609e-10
-9.648368452e-13
8.529010503e-10
-1.158467695e-12
9.159431382e-10
-1.374870781e-12
9.746283663e-10
-1.617653211e-12
1.029119737e-09
-1.890823529e-12
1.07956902e-09
-2.198546081e-12
1.126116449e-09
-2.544905992e-12
1.168889939e-09
-2.933722248e-12
1.208004389e-09
-3.368308389e-12
1.243560887e-09
-3.850886877e-12
1.275645218e-09
-4.382683131e-12
1.304327107e-09
-4.963278661e-12
1.329658829e-09
-5.590300206e-12
1.351672976e-09
-6.259276438e-12
1.370382233e-09
-6.962951218e-12
1.385776212e-09
-7.691475072e-12
1.397821363e-09
-8.431840392e-12
1.406457975e-09
-9.168357031e-12
1.411600502e-09
-9.882380653e-12
1.413134914e-09
-1.055317009e-11
1.410919757e-09
-1.115811531e-11
1.40478508e-09
-1.1673951e-11
1.394534172e-09
-1.207740747e-11
1.379944123e-09
-1.234675909e-11
1.360769397e-09
-1.246264177e-11
1.336744024e-09
-1.240966302e-11
1.30758626e-09
-1.217719992e-11
1.273002647e-09
-1.176061823e-11
1.232693508e-09
-1.116206774e-11
1.186358536e-09
-1.039083808e-11
1.133702037e-09
-9.463761067e-12
1.074438888e-09
-8.405170004e-12
1.008299644e-09
-7.246673775e-12
9.35036092e-10
-6.026538301e-12
8.544254275e-10
-4.789029533e-12
7.66274229e-10
-3.583539984e-12
6.704219105e-10
-2.463622354e-12
5.667429734e-10
-1.485970717e-12
4.55148741e-10
-7.093937037e-13
3.355876346e-10
-1.938794535e-13
2.080432534e-10
7.252586951e-11
-1.180700788e-14
5.773081923e-11
-4.631572986e-14
1.689169708e-10
-1.021223009e-13
2.738680894e-10
-1.778421235e-13
3.728210149e-10
-2.721931691e-13
4.660072768e-10
-3.839643115e-13
5.536522141e-10
-5.122871186e-13
6.359746503e-10
-6.566864143e-13
7.131858397e-10
-8.172412555e-13
7.854890157e-10
-9.94757368e-13
8.530785664e-10
-1.190849371e-12
9.161392302e-10
-1.407889862e-12
9.748454068e-10
-1.648878829e-12
1.029360726e-09
-1.917231722e-12
1.079837373e-09
-2.21656587e-12
1.126415783e-09
-2.550471328e-12
1.169223844e-09
-2.92233559e-12
1.208376253e-09
-3.334868851e-12
1.24397342e-09
-3.789929029e-12
1.276100279e-09
-4.28843716e-12
1.304825615e-09
-4.829550068e-12
1.330199942e-09
-5.410889812e-12
1.352254316e-09
-6.027837871e-12
1.370999181e-09
-6.673508382e-12
1.386421883e-09
-7.33840466e-12
1.398486259e-09
-8.01044573e-12
1.407130016e-09
-8.674948765e-12
1.412265005e-09
-9.314917977e-12
1.413774883e-09
-9.91137233e-12
1.411516212e-09
-1.044405151e-11
1.405317759e-09
-1.089208295e-11
1.394982204e-09
-1.123496504e-11
1.380287005e-09
-1.145364304e-11
1.360988075e-09
-1.15313993e-11
1.33682178e-09
-1.145518301e-11
1.307510044e-09
-1.12162682e-11
1.272763732e-09
-1.081131683e-11
1.232288556e-09
-1.024303315e-11
1.185790253e-09
-9.520432248e-12
1.132979436e-09
-8.659185222e-12
1.073577641e-09
-7.681591537e-12
1.007322051e-09
-6.616308787e-12
9.339708092e-10
-5.497885384e-12
8.533070041e-10
-4.366175885e-12
7.651425195e-10
-3.265607087e-12
6.693213417e-10
-2.244359504e-12
5.657217258e-10
-1.353507062e-12
4.542578885e-10
-6.461492995e-13
3.348802768e-10
-1.766221622e-13
2.075737263e-10
7.234924735e-11
-1.207918889e-14
5.774289842e-11
-4.739099943e-14
1.689522826e-10
-1.045247539e-13
2.739252232e-10
-1.821205136e-13
3.728986107e-10
-2.788391513e-13
4.661039955e-10
-3.934975973e-13
5.537668725e-10
-5.250679283e-13
6.361062207e-10
-6.729334655e-13
7.133337052e-10
-8.369050876e-13
7.856529873e-10
-1.01739978e-12
8.532590611e-10
-1.215524165e-12
9.163373546e-10
-1.433114335e-12
9.750629969e-10
-1.672587688e-12
1.0296002e-09
-1.936832529e-12
1.080101618e-09
-2.228960731e-12
1.126707911e-09
-2.552107933e-12
1.169546991e-09
-2.909165414e-12
1.20873331e-09
-3.302349262e-12
1.244366604e-09
-3.733226995e-12
1.276531156e-09
-4.202291217e-12
1.305294679e-09
-4.708495939e-12
1.330706146e-09
-5.249383162e-12
1.352795203e-09
-5.820269844e-12
1.371570068e-09
-6.414615832e-12
1.387016229e-09
-7.023289253e-12
1.399094932e-09
-7.635078958e-12
1.407741806e-09
-8.236257655e-12
1.412866184e-09
-8.811328687e-12
1.414349954e-09
-9.342924292e-12
1.412047807e-09
-9.812870347e-12
1.405787705e-09
-1.020240826e-11
1.395371742e-09
-1.049346687e-11
1.380578064e-09
-1.066924487e-11
1.361163853e-09
-1.07152897e-11
1.336867825e-09
-1.062048951e-11
1.307415244e-09
-1.037766731e-11
1.27252091e-09
-9.984541254e-12
1.23189543e-09
-9.444135285e-12
1.185249847e-09
-8.765149941e-12
1.132300451e-09
-7.96217289e-12
1.072774664e-09
-7.055696967e-12
1.006415575e-09
-6.071791406e-12
9.329869036e-10
-5.041789495e-12
8.522770022e-10
-4.001755434e-12
7.641024855e-10
-2.991869468e-12
6.683114557e-10
-2.055731461e-12
5.647855878e-10
-1.239631487e-12
4.534417886e-10
-5.918131611e-13
3.342324585e-10
-1.61804695e-13
2.071437178e-10
7.218744265e-11
-1.225146337e-14
5.775514988e-11
-4.807460615e-14
1.689881058e-10
-1.060715055e-13
2.739832201e-10
-1.84897838e-13
3.72977437e-10
-2.831980982e-13
4.662022957e-10
-3.998207158e-13
5.538834951e-10
-5.336693084e-13
6.362400692e-10
-6.839950437e-13
7.13484031e-10
-8.50425964e-13
7.858194183e-10
-1.033069438e-12
8.534417046e-10
-1.232632396e-12
9.165369175e-10
-1.450469918e-12
9.752808345e-10
-1.688500157e-12
1.02983823e-09
-1.949105783e-12
1.080362223e-09
-2.234916442e-12
1.126993722e-09
-2.548648995e-12
1.169860724e-09
-2.89263237e-12
1.209077294e-09
-3.268744433e-12
1.244742716e-09
-3.678264636e-12
1.276940677e-09
-4.121241416e-12
1.305737656e-09
-4.596539578e-12
1.331181445e-09
-5.101517492e-12
1.353300181e-09
-5.631593722e-12
1.372100144e-09
-6.180455685e-12
1.387565091e-09
-6.739442913e-12
1.39965392e-09
-7.298060501e-12
1.408300423e-09
-7.843575076e-12
1.413411699e-09
-8.361764071e-12
1.414868143e-09
-8.836802233e-12
1.412522845e-09
-9.252287192e-12
1.40620319e-09
-9.591400026e-12
1.395710855e-09
-9.838117536e-12
1.380824781e-09
-9.977612144e-12
1.361303347e-09
-9.997375688e-12
1.336887589e-09
-9.887846464e-12
1.307305714e-09
-9.643141017e-12
1.272276204e-09
-9.261812475e-12
1.231514102e-09
-8.747074013e-12
1.184735108e-09
-8.107282198e-12
1.131660659e-09
-7.356025972e-12
1.072023408e-09
-6.512170584e-12
1.005571719e-09
-5.599540462e-12
9.320742735e-10
-4.646676688e-12
8.513241384e-10
-3.68637713e-12
7.631421859e-10
-2.755176022e-12
6.673802546e-10
-1.892750668e-12
5.639231625e-10
-1.141300609e-12
4.526903385e-10
-5.449191755e-13
3.336360771e-10
-1.490234103e-13
2.067478221e-10
7.203841924e-11
-1.233401977e-14
5.77674839e-11
-4.840736474e-14
1.690241791e-10
-1.068529414e-13
2.740416656e-10
-1.863169296e-13
3.73056901e-10
-2.854972721e-13
4.663014761e-10
-4.032307021e-13
5.540012286e-10
-5.384543086e-13
6.363752929e-10
-6.90283661e-13
7.136358603e-10
-8.582342843e-13
7.859873689e-10
-1.042184892e-12
8.536256552e-10
-1.242517751e-12
9.167372504e-10
-1.460186329e-12
9.75498503e-10
-1.696661355e-12
1.030074705e-09
-1.953859367e-12
1.080619421e-09
-2.234010022e-12
1.127273873e-09
-2.539291863e-12
1.170166006e-09
-2.871630261e-12
1.209409632e-09
-3.232590448e-12
1.245103676e-09
-3.623079689e-12
1.277331166e-09
-4.042852994e-12
1.306157429e-09
-4.490690177e-12
1.331629282e-09
-4.963741993e-12
1.353773233e-09
-5.457637323e-12
1.37259404e-09
-5.96615949e-12
1.388073613e-09
-6.481229e-12
1.400168989e-09
-6.992919328e-12
1.408812114e-09
-7.489507537e-12
1.413908287e-09
-7.957853853e-12
1.415336489e-09
-8.383579644e-12
1.412948571e-09
-8.751816251e-12
1.406571426e-09
-9.047470273e-12
1.396006509e-09
-9.256274789e-12
1.381033586e-09
-9.365126931e-12
1.3614122e-09
-9.363157616e-12
1.336885619e-09
-9.242098317e-12
1.307184655e-09
-8.997128224e-12
1.272031234e-09
-8.627422931e-12
1.231144396e-09
-8.136340725e-12
1.184244026e-09
-7.531863036e-12
1.131056181e-09
-6.826664603e-12
1.07131821e-09
-6.038156054e-12
1.004783211e-09
-5.188196002e-12
9.312243135e-10
-4.302897053e-12
8.504388394e-10
-3.412232795e-12
7.622515216e-10
-2.549595579e-12
6.665176174e-10
-1.751289714e-12
5.631248566e-10
-1.056001081e-12
4.519950499e-10
-5.042585448e-13
3.330843346e-10
-1.37945755e-13
2.063815093e-10
7.190047349e-11
-1.233723006e-14
5.777982113e-11
-4.84334104e-14
1.690602753e-10
-1.069375049e-13
2.741001697e-10
-1.865163575e-13
3.731364799e-10
-2.859458271e-13
4.664009055e-10
-4.040294614e-13
5.541193122e-10
-5.39760466e-13
6.365110239e-10
-6.922284049e-13
7.137883283e-10
-8.60797865e-13
7.861559383e-10
-1.045212029e-12
8.538100693e-10
-1.245601861e-12
9.169376402e-10
-1.462587076e-12
9.757154883e-10
-1.697251676e-12
1.03030937e-09
-1.951137076e-12
1.080873307e-09
-2.225993021e-12
1.127548729e-09
-2.523536805e-12
1.17046355e-09
-2.845363872e-12
1.209731459e-09
-3.192753672e-12
1.245451066e-09
-3.56617602e-12
1.277704588e-09
-3.965221787e-12
1.306556475e-09
-4.388522333e-12
1.332052582e-09
-4.833128583e-12
1.354217839e-09
-5.294841726e-12
1.373055753e-09
-5.767552156e-12
1.388546323e-09
-6.243749014e-12
1.400645186e-09
-6.714007706e-12
1.409282372e-09
-7.167574789e-12
1.414361854e-09
-7.592243799e-12
1.415761158e-09
-7.974998109e-12
1.413331326e-09
-8.302253157e-12
1.406898682e-09
-8.560499286e-12
1.396264755e-09
-8.736938968e-12
1.381210026e-09
-8.819979466e-12
1.36149524e-09
-8.800105606e-12
1.336865746e-09
-8.670188204e-12
1.307054738e-09
-8.426255021e-12
1.271787301e-09
-8.067964851e-12
1.230786106e-09
-7.598746721e-12
1.183774808e-09
-7.026205941e-12
1.130483641e-09
-6.362204527e-12
1.070654208e-09
-5.622829251e-12
1.004043836e-09
-4.828217706e-12
9.304297019e-10
-4.002364397e-12
8.496129861e-10
-3.172793001e-12
7.614219502e-10
-2.370178059e-12
6.657150024e-10
-1.627910644e-12
5.623825892e-10
-9.81643844e-13
4.513487831e-10
-4.688293064e-13
3.3257152e-10
-1.282973561e-13
2.060409773e-10
7.177217613e-11
-1.227071675e-14
5.779209185e-11
-4.817967717e-14
1.690961843e-10
-1.063919052e-13
2.74158382e-10
-1.856246731e-13
3.732157126e-10
-2.847157456e-13
4.664999966e-10
-4.024710844e-13
5.542370675e-10
-5.379223758e-13
6.366464752e-10
-6.901915903e-13
7.139405975e-10
-8.585592744e-13
7.86324306e-10
-1.042627726e-12
8.539941378e-10
-1.242350549e-12
9.17137363e-10
-1.458089379e-12
9.759312271e-10
-1.690614551e-12
1.030541895e-09
-1.941074856e-12
1.081123767e-09
-2.210770836e-12
1.127818425e-09
-2.501095324e-12
1.170753874e-09
-2.8133198e-12
1.210043684e-09
-3.14835953e-12
1.245786106e-09
-3.506368534e-12
1.278062597e-09
-3.886831914e-12
1.306936938e-09
-4.28810706e-12
1.332453857e-09
-4.707294952e-12
1.354637027e-09
-5.140259303e-12
1.373488717e-09
-5.581137303e-12
1.388987201e-09
-6.022838707e-12
1.401086887e-09
-6.456501416e-12
1.409716035e-09
-6.872182082e-12
1.414777535e-09
-7.258581855e-12
1.416147558e-09
-7.603858352e-12
1.413676602e-09
-7.895587273e-12
1.40719041e-09
-8.121663158e-12
1.396490831e-09
-8.270521421e-12
1.381358884e-09
-8.331889628e-12
1.361556608e-09
-8.297397607e-12
1.336831254e-09
-8.160871339e-12
1.306918211e-09
-7.919065559e-12
1.271545495e-09
-7.571969497e-12
1.23043901e-09
-7.123045454e-12
1.183325884e-09
-6.579530231e-12
1.129940125e-09
-5.952552093e-12
1.07002723e-09
-5.257009407e-12
1.003348293e-09
-4.511525356e-12
9.296842179e-10
-3.738240613e-12
8.488397014e-10
-2.96254425e-12
7.606462539e-10
-2.212748721e-12
6.649652069e-10
-1.519716451e-12
5.616895569e-10
-9.164690511e-13
4.507455357e-10
-4.377868821e-13
3.320928378e-10
-1.198463988e-13
2.057230368e-10
7.165232973e-11
-1.213900107e-14
5.780423085e-11
-4.766423005e-14
1.691317095e-10
-1.052774184e-13
2.742159951e-10
-1.837633521e-13
3.732941986e-10
-2.819714853e-13
4.665982047e-10
-3.98807989e-13
5.54353904e-10
-5.332800179e-13
6.367809472e-10
-6.845558658e-13
7.140918733e-10
-8.519268653e-13
7.86491677e-10
-1.034882365e-12
8.541770933e-10
-1.233237184e-12
9.173357179e-10
-1.447134273e-12
9.761451242e-10
-1.677074426e-12
1.030771835e-09
-1.923834846e-12
1.081370528e-09
-2.188413149e-12
1.128083003e-09
-2.471854733e-12
1.171037316e-09
-2.775159659e-12
1.210346989e-09
-3.098813131e-12
1.246109759e-09
-3.442782707e-12
1.278406567e-09
-3.806418234e-12
1.307300574e-09
-4.187829904e-12
1.332835269e-09
-4.584237722e-12
1.355033435e-09
-4.991469792e-12
1.373895949e-09
-5.404003187e-12
1.389399735e-09
-5.815047231e-12
1.401497931e-09
-6.216340507e-12
1.410117328e-09
-6.598624056e-12
1.415159818e-09
-6.951472144e-12
1.416500406e-09
-7.264034252e-12
1.413989164e-09
-7.524978447e-12
1.407451355e-09
-7.72337299e-12
1.396689225e-09
-7.848765868e-12
1.381484277e-09
-7.89204342e-12
1.361599886e-09
-7.845740184e-12
1.33678495e-09
-7.704515036e-12
1.306776986e-09
-7.465732561e-12
1.271306713e-09
-7.129615278e-12
1.230102893e-09
-6.699625728e-12
1.182895894e-09
-6.18264606e-12
1.129423146e-09
-5.589115718e-12
1.0694337e-09
-4.932896047e-12
1.002692073e-09
-4.231264917e-12
9.289825867e-10
-3.504734181e-12
8.481131706e-10
-2.776823245e-12
7.599183429e-10
-2.073780586e-12
6.642621643e-10
-1.42426176e-12
5.610400381e-10
-8.589920805e-13
4.50180266e-10
-4.104190167e-13
3.316442648e-10
-1.123974286e-13
2.054250153e-10
7.153993231e-11
-1.194780893e-14
5.781617866e-11
-4.691991748e-14
1.691666816e-10
-1.036605929e-13
2.742727358e-10
-1.810278979e-13
3.733715659e-10
-2.778809475e-13
4.666950578e-10
-3.932439205e-13
5.54469267e-10
-5.261084709e-13
6.369138117e-10
-6.757022956e-13
7.142414671e-10
-8.413169655e-13
7.866572917e-10
-1.022414224e-12
8.543581906e-10
-1.218696268e-12
9.175319999e-10
-1.430121348e-12
9.763565493e-10
-1.656955499e-12
1.030998669e-09
-1.89971908e-12
1.081613291e-09
-2.159103426e-12
1.128342387e-09
-2.435894592e-12
1.171314107e-09
-2.730710095e-12
1.210641804e-09
-3.043754498e-12
1.246422804e-09
-3.374847296e-12
1.27873766e-09
-3.72306594e-12
1.307648792e-09
-4.086465693e-12
1.333198669e-09
-4.462314708e-12
1.355409284e-09
-4.846432568e-12
1.374280067e-09
-5.233644166e-12
1.389786946e-09
-5.617380927e-12
1.401881668e-09
-5.990021896e-12
1.410489969e-09
-6.342829013e-12
1.415512625e-09
-6.666253576e-12
1.416823831e-09
-6.950264239e-12
1.414273175e-09
-7.18453282e-12
1.407685623e-09
-7.359132222e-12
1.396863825e-09
-7.464612224e-12
1.381589757e-09
-7.492850658e-12
1.361628124e-09
-7.437142088e-12
1.336729242e-09
-7.292854119e-12
1.306632698e-09
-7.057827901e-12
1.271071686e-09
-6.732494759e-12
1.22977756e-09
-6.320272141e-12
1.182483672e-09
-5.827704454e-12
1.128930578e-09
-5.264595708e-12
1.068870591e-09
-4.643882517e-12
1.00207136e-09
-3.981647197e-12
9.283203514e-10
-3.296963867e-12
8.474284873e-10
-2.611706681e-12
7.592330857e-10
-1.950311186e-12
6.636007688e-10
-1.339495892e-12
5.604292228e-10
-8.079700611e-13
4.496487402e-10
-3.861306055e-13
3.312224253e-10
-1.057875741e-13
2.051446722e-10
7.143414473e-11
-1.170456007e-14
5.782788322e-11
-4.59714471e-14
1.692009485e-10
-1.016075619e-13
2.743283719e-10
-1.775023183e-13
3.734474606e-10
-2.725839557e-13
4.667901394e-10
-3.859425312e-13
5.545826256e-10
-5.166613808e-13
6.370445306e-10
-6.639383673e-13
7.143887441e-10
-8.271225944e-13
7.868204759e-10
-1.005656723e-12
8.545367247e-10
-1.199172163e-12
9.177255153e-10
-1.407499916e-12
9.76564877e-10
-1.630723377e-12
1.031221893e-09
-1.869132095e-12
1.0818517e-09
-2.123179154e-12
1.128596434e-09
-2.393379196e-12
1.171584307e-09
-2.679982316e-12
1.210928407e-09
-2.983008585e-12
1.24672583e-09
-3.302130973e-12
1.279056782e-09
-3.636138992e-12
1.3079828e-09
-3.983113339e-12
1.333545643e-09
-4.340258234e-12
1.355766429e-09
-4.703525683e-12
1.374643334e-09
-5.06798147e-12
1.390151402e-09
-5.427336077e-12
1.402241023e-09
-5.774517401e-12
1.410837151e-09
-6.101270011e-12
1.415839378e-09
-6.398856615e-12
1.417121417e-09
-6.657931616e-12
1.41453225e-09
-6.869115932e-12
1.407896808e-09
-7.023302107e-12
1.397018011e-09
-7.11194634e-12
1.381678401e-09
-7.127744916e-12
1.361643923e-09
-7.064701675e-12
1.336666198e-09
-6.918756218e-12
1.306486753e-09
-6.688131399e-12
1.270841062e-09
-6.373423658e-12
1.229462852e-09
-5.977977369e-12
1.182088225e-09
-5.508041306e-12
1.128460642e-09
-4.97280374e-12
1.068335353e-09
-4.384378554e-12
1.001482935e-09
-3.757781572e-12
9.276937544e-10
-3.110812407e-12
8.467815182e-10
-2.463890308e-12
7.585861636e-10
-1.83984936e-12
6.629767278e-10
-1.263697268e-12
5.598530707e-10
-7.623615453e-13
4.491474045e-10
-3.644241729e-13
3.30824488e-10
-9.98811812e-14
2.048801292e-10
7.133426355e-11
-1.141433605e-14
5.783929755e-11
-4.484410031e-14
1.692343783e-10
-9.915283245e-14
2.743826807e-10
-1.73262595e-13
3.735215704e-10
-2.662102286e-13
4.668830871e-10
-3.771012049e-13
5.546935166e-10
-5.051477301e-13
6.371725771e-10
-6.495489312e-13
7.145331453e-10
-8.096776968e-13
7.869806047e-10
-9.850016e-13
8.547120486e-10
-1.175110373e-12
9.179156241e-10
-1.379742864e-12
9.767695095e-10
-1.598838345e-12
1.031440988e-09
-1.832509916e-12
1.082085371e-09
-2.081010914e-12
1.128844935e-09
-2.344517596e-12
1.171847814e-09
-2.623082125e-12
1.211206972e-09
-2.916554322e-12
1.247019302e-09
-3.224357723e-12
1.279364585e-09
-3.545144719e-12
1.308303587e-09
-3.877021781e-12
1.33387752e-09
-4.217062701e-12
1.35610647e-09
-4.561435975e-12
1.374987708e-09
-4.905345776e-12
1.390495312e-09
-5.242850797e-12
1.402578528e-09
-5.5673033e-12
1.411161603e-09
-5.870981216e-12
1.416143056e-09
-6.145801718e-12
1.417396238e-09
-6.38308496e-12
1.414769533e-09
-6.574286647e-12
1.408088009e-09
-6.710987271e-12
1.397154711e-09
-6.785453739e-12
1.381752867e-09
-6.791082831e-12
1.361649552e-09
-6.722489168e-12
1.336597605e-09
-6.576120886e-12
1.306340385e-09
-6.350471291e-12
1.270615412e-09
-6.046273917e-12
1.229158655e-09
-5.666784177e-12
1.181708736e-09
-5.217973292e-12
1.128011831e-09
-4.708459442e-12
1.06782584e-09
-4.149614486e-12
1.00092409e-09
-3.555498051e-12
9.27099638e-10
-2.942772531e-12
8.461687926e-10
-2.330562092e-12
7.579739532e-10
-1.740276699e-12
6.623864424e-10
-1.19540265e-12
5.593081966e-10
-7.212814755e-13
4.486732833e-10
-3.44876758e-13
3.304480832e-10
-9.456274147e-14
2.046298152e-10
7.123970081e-11
-1.108537319e-14
5.785038293e-11
-4.355984501e-14
1.692668527e-10
-9.632888584e-14
2.744354497e-10
-1.683830387e-13
3.735936246e-10
-2.588587111e-13
4.669735627e-10
-3.668773047e-13
5.548015351e-10
-4.917463134e-13
6.372974461e-10
-6.32762981e-13
7.14674162e-10
-7.892873269e-13
7.87137129e-10
-9.608028082e-13
8.548835641e-10
-1.14690437e-12
9.181017257e-10
-1.347265263e-12
9.769698704e-10
-1.561737545e-12
1.03165546e-09
-1.790283824e-12
1.082313918e-09
-2.032913646e-12
1.129087565e-09
-2.289586603e-12
1.172104487e-09
-2.560177817e-12
1.211477563e-09
-2.844407856e-12
1.247303532e-09
-3.14140133e-12
1.279661579e-09
-3.44976811e-12
1.308611954e-09
-3.767591768e-12
1.334195344e-09
-4.091882493e-12
1.356430761e-09
-4.419022425e-12
1.375314848e-09
-4.744292848e-12
1.390820582e-09
-5.062160945e-12
1.402896396e-09
-5.366271817e-12
1.411465714e-09
-5.649447637e-12
1.416426232e-09
-5.904164865e-12
1.417650955e-09
-6.122380042e-12
1.414987748e-09
-6.296239942e-12
1.408261869e-09
-6.417979948e-12
1.397276451e-09
-6.480599296e-12
1.381815487e-09
-6.478023861e-12
1.361646977e-09
-6.405426882e-12
1.336525008e-09
-6.259702424e-12
1.30619466e-09
-6.039538186e-12
1.270395248e-09
-5.745778839e-12
1.228864895e-09
-5.381581338e-12
1.181344538e-09
-4.952627388e-12
1.127582877e-09
-4.467040714e-12
1.067340253e-09
-3.935510102e-12
1.000392559e-09
-3.371233174e-12
9.265353611e-10
-2.789849964e-12
8.455874094e-10
-2.209323228e-12
7.573934265e-10
-1.649787178e-12
6.618269064e-10
-1.133364995e-12
5.587917745e-10
-6.839755711e-13
4.482238939e-10
-3.271277409e-13
3.300912354e-10
-8.973366036e-14
2.043924211e-10
7.114996715e-11
-1.071931896e-14
5.786110224e-11
-4.212342094e-14
1.692982568e-10
-9.317114531e-14
2.744864974e-10
-1.629330647e-13
3.736633865e-10
-2.506054688e-13
4.670612351e-10
-3.55396815e-13
5.549063265e-10
-4.766583493e-13
6.374187076e-10
-6.137857947e-13
7.148112894e-10
-7.66194623e-13
7.872895379e-10
-9.33380822e-13
8.550507503e-10
-1.11492706e-12
9.182832719e-10
-1.310495633e-12
9.77165439e-10
-1.519849884e-12
1.031864815e-09
-1.742810431e-12
1.082536878e-09
-1.979202925e-12
1.129323958e-09
-2.228848786e-12
1.172354132e-09
-2.491485097e-12
1.211740199e-09
-2.766604917e-12
1.247578652e-09
-3.053174208e-12
1.279948148e-09
-3.349798068e-12
1.308908578e-09
-3.654403464e-12
1.334499949e-09
-3.964083926e-12
1.356740441e-09
-4.275351532e-12
1.375626115e-09
-4.583618318e-12
1.391128849e-09
-4.883720327e-12
1.403196498e-09
-5.169541949e-12
1.411751536e-09
-5.43447561e-12
1.416691165e-09
-5.671400401e-12
1.41788788e-09
-5.872899149e-12
1.415189247e-09
-6.03171239e-12
1.408420682e-09
-6.140680423e-12
1.397385419e-09
-6.193441163e-12
1.381868248e-09
-6.184367393e-12
1.361637903e-09
-6.109121182e-12
1.336449762e-09
-5.964951907e-12
1.306050491e-09
-5.75073468e-12
1.270181031e-09
-5.467379819e-12
1.22858154e-09
-5.117943514e-12
1.180995102e-09
-4.707820353e-12
1.127172754e-09
-4.244680059e-12
1.066877113e-09
-3.738586324e-12
9.998864655e-10
-3.201954597e-12
9.259987293e-10
-2.649500334e-12
8.450349552e-10
-2.098137704e-12
7.568420638e-10
-1.566849578e-12
6.612956182e-10
-1.076528216e-12
5.583014531e-10
-6.498058854e-13
4.477971715e-10
-3.108726355e-13
3.297523021e-10
-8.531091042e-14
2.041668594e-10
7.106465624e-11
-1.031628419e-14
5.787141853e-11
-4.054617015e-14
1.693284867e-10
-8.970896875e-14
2.745356602e-10
-1.569666993e-13
3.737306442e-10
-2.415446409e-13
4.671458131e-10
-3.4278836e-13
5.550075702e-10
-4.600557238e-13
6.37535975e-10
-5.928450232e-13
7.149440787e-10
-7.406455405e-13
7.874373384e-10
-9.03001647e-13
8.552131064e-10
-1.079480512e-12
9.184597508e-10
-1.269740735e-12
9.773556992e-10
-1.473463373e-12
1.032068537e-09
-1.690367364e-12
1.082753782e-09
-1.920177884e-12
1.129553768e-09
-2.162569666e-12
1.172596524e-09
-2.417184012e-12
1.211994814e-09
-2.683246275e-12
1.247844714e-09
-2.959668562e-12
1.28022457e-09
-3.245036651e-12