/*--------------------------------*- C++ -*----------------------------------*\
  =========                 |
  \\      /  F ield         | OpenFOAM: The Open Source CFD Toolbox
   \\    /   O peration     | Website:  https://openfoam.org
    \\  /    A nd           | Version:  7
     \\/     M anipulation  |
\*---------------------------------------------------------------------------*/
FoamFile
{
    version     2.0;
    format      ascii;
    class       volScalarField;
    location    "0.0024";
    object      rho;
}
// * * * * * * * * * * * * * * * * * * * * * * * * * * * * * * * * * * * * * //

dimensions      [1 -3 0 0 0 0 0];

internalField   nonuniform List<scalar> 
1167
(
936.6789872
936.6057275
936.4486683
936.2165461
935.9144692
935.5468198
935.1177968
934.6312426
934.0910013
933.5008181
932.8641966
932.1845704
931.4652512
930.7095201
929.9203611
929.1008291
928.2538351
927.3824074
926.4890697
925.576569
924.6476809
923.7047938
922.7506883
921.7877229
920.8186774
919.8458071
918.8718747
917.8992351
916.9304428
915.9678261
915.0137812
914.0704727
913.1399863
912.2242719
936.5584837
936.4852155
936.3281411
936.0960042
935.7940538
935.4264161
934.9975663
934.5112109
933.9712048
933.3812503
932.7449523
932.0657475
931.3469255
930.5916921
929.8031043
928.9842196
928.138062
927.2674644
926.3750584
925.4637443
924.5360912
923.594743
922.6423116
921.6813871
920.7145757
919.7443839
918.7733778
917.8041141
916.8389625
915.8804085
914.9306499
913.9919671
913.0662386
912.1555058
911.2612729
910.3849703
909.5278585
908.6908204
907.8746864
907.0799687
906.3069259
905.5557188
904.8263959
904.118768
903.4325205
902.7672402
902.122447
901.4975866
900.8920637
900.305222
936.4380054
936.3647303
936.2076442
935.9756007
935.6736798
935.3061809
934.8773891
934.3912409
933.8514796
933.2618259
932.6258819
931.9470822
931.2287306
930.4740221
929.686042
928.8678737
928.0226027
927.1528984
926.2615599
925.3514993
924.4252101
923.4855454
922.5349469
921.5762279
920.6118196
919.6444723
918.6765488
917.7107963
916.7493964
915.7949821
914.8495568
913.9154998
912.9944987
912.0886812
911.1993552
910.3280207
909.4757723
908.6435146
907.8320776
907.0418643
906.2731653
905.5261326
904.8008411
904.0970528
903.4144916
902.7527539
902.1113749
901.4898087
900.887472
900.3037148
936.3175571
936.2442768
936.0871828
935.8552671
935.5533529
935.1860157
934.7572725
934.2713405
933.731834
933.1424927
932.5069157
931.8285376
931.1106784
930.356524
929.5691906
928.7518839
927.907459
927.0387242
926.1486135
925.2398437
924.3151012
923.377193
922.4285986
921.4722085
920.5103861
919.54599
918.5813348
917.6191449
916.6616555
915.7113575
914.7703572
913.8408427
912.9245785
912.0235577
911.1390467
910.272569
909.4250618
908.597469
907.7905812
907.004743
906.2402633
905.4973141
904.7759168
904.0758662
903.3968968
902.7386135
902.1005656
901.4822147
900.8829888
900.3022433
936.1971433
936.1238599
935.9668746
935.7349795
935.4330786
935.0659102
934.6373537
934.1515174
933.6122764
933.0232598
932.3880643
931.7101259
930.9927826
930.239213
929.4526536
928.6361685
927.7926502
926.924984
926.036164
925.1287875
924.2057533
923.2696773
922.3232942
921.3692957
920.4102549
919.4488589
918.4876127
917.5290342
916.5755222
915.6293685
914.6927977
913.767804
912.8562499
911.9599335
911.0801666
910.2184222
909.3755446
908.552526
907.7500418
906.9684653
906.2080967
905.4691297
904.7515309
904.0551305
903.3796719
902.7247677
902.0899802
901.4747775
900.878598
900.300802
936.0767687
936.0035564
935.8466313
935.6147433
935.3129758
934.94587
934.5175115
934.0318513
933.4928157
932.9041372
932.2693392
931.5918602
930.8750581
930.1221722
929.3363935
928.5207468
927.6781976
926.8117592
925.924225
925.0183405
924.0971215
923.1629928
922.2189399
921.2674519
920.3113029
919.3530075
918.3952544
917.4403534
916.490861
915.5488706
914.6167218
913.6962187
912.7893216
911.8976392
911.0225665
910.1654193
909.327069
908.5085184
907.7103335
906.9329181
906.1765653
905.4414912
904.727609
904.0347831
903.3627655
902.7111755
902.0795873
901.4674751
900.8742866
900.2993869
935.9565617
935.8833585
935.7264379
935.4945634
935.1929603
934.8259011
934.3977509
933.9123321
933.3735398
932.7851426
932.1507523
931.473769
930.7575987
930.0054068
929.2203953
928.4056384
927.5641507
926.6989804
925.8128154
924.9086218
923.9892071
923.0571714
922.1155145
921.1666541
920.2134806
919.2583845
918.3041772
917.3530239
916.4075581
915.46975
914.5419941
913.6259453
912.7236489
911.8365303
910.9660682
910.1134276
909.2795102
908.4653316
907.6713527
906.898009
906.145588
905.4143282
904.7040907
904.0147734
903.3461359
902.6978035
902.0693618
901.4602899
900.8700443
900.2979944
935.8364106
935.7632105
935.6062991
935.3744872
935.073013
934.7060641
934.2780786
933.7929142
933.2544323
932.6664028
932.0324281
931.3559655
930.6403786
929.8888782
929.1046775
928.2908624
927.4505795
926.5866654
925.7019491
924.7995321
923.8820144
922.9522341
922.0129956
921.0669342
920.1167433
919.1649926
918.2143065
917.267001
916.3255135
915.3919481
914.4684976
913.5569015
912.6591093
911.7764854
910.9105547
910.0623367
909.2327661
908.4228714
907.6330145
906.8636625
906.1151245
905.3875837
904.6809274
903.9950604
903.3297494
902.6846251
902.0592834
901.4532076
900.8658627
900.2966218
935.7163115
935.6431168
935.4862196
935.254571
934.9531386
934.5863874
934.1585016
933.6736054
933.1354496
932.5478053
931.9142789
931.2383492
930.5233757
929.7726041
928.9892585
928.1765055
927.33742
926.4748307
925.5917115
924.6910796
923.7755441
922.8481039
921.9113677
920.9681845
920.0210472
919.0726982
918.1255753
917.1821413
916.2446392
915.3153043
914.3961312
913.4889685
912.5955986
911.7174078
910.8559281
910.0120544
909.1867965
908.3810605
907.5952494
906.8298172
906.0850994
905.3612112
904.6580797
903.9756113
903.3135792
902.6716188
902.0493356
901.4462168
900.861735
900.2952669
935.5962687
935.5230818
935.3662559
935.1347243
934.8333423
934.4667997
934.0390906
933.5544131
933.0166005
932.4293604
931.7963046
931.1209344
930.4066062
929.6566019
928.874172
928.0625687
927.2246892
926.3634916
925.4820834
924.5832713
923.6698589
922.7447741
921.8106222
920.8703769
919.9263526
918.9814509
918.0379228
917.0983751
916.1648577
915.2397355
914.3248079
913.4220325
912.5330286
911.6592576
910.8021067
909.9625041
909.1414844
908.3398349
907.5580005
906.7964229
906.0554645
905.3351733
904.6355156
903.9563993
903.2976034
902.6587673
902.0395054
901.4393083
900.8576559
900.293928
935.4762863
935.4031199
935.2464446
935.0149515
934.7136753
934.3473066
933.9198491
933.435356
932.8978934
932.3110783
931.6785174
931.0037353
930.2900865
929.5408901
928.7595242
927.9490165
927.112403
926.2527142
925.3730336
924.4761137
923.5649351
922.6422415
921.7108308
920.7734814
919.8326925
918.8912043
917.951346
917.0156405
916.0861265
915.1651691
914.2544525
913.3560175
912.4713242
911.6019101
910.7490218
909.913622
909.0967717
908.2991421
907.521221
906.7634386
906.0261842
905.3094397
904.6132097
903.9374032
903.2818045
902.6460567
902.0297823
901.4324748
900.853621
900.2926035
935.3564325
935.2833521
935.1267044
934.895257
934.5941817
934.2279138
933.8007223
933.3165497
932.7793508
932.1929691
931.5609291
930.8867655
930.1738445
929.4256005
928.645227
927.8358661
927.0005766
926.1425166
925.2645719
924.3696189
923.4607337
922.5404953
921.6118812
920.677476
919.7399795
918.8019171
917.8657733
916.9338826
916.0084108
915.0915421
914.18504
913.2908586
912.4104219
911.5453044
910.696616
909.8653551
909.0526101
908.2589393
907.4848735
906.7308582
905.9972291
905.2839854
904.591141
903.9186056
903.2661686
902.6334758
902.0201578
901.4257104
900.8496268
900.2912924
935.2367208
935.1636547
935.0070395
934.7756455
934.4747813
934.1086271
933.681717
933.1978835
932.6610839
932.0751095
931.4435988
930.7701035
930.0579893
929.3106348
928.5312965
927.7231345
926.8892843
926.0328515
925.1567056
924.2638806
923.3572515
922.4395415
921.5137583
920.5823395
919.6481672
918.7135524
917.7811319
916.8530527
915.9316069
915.0187997
914.1165018
913.2265002
912.3502677
911.4893891
910.6448412
909.8176949
909.0089599
908.219191
907.4489264
906.6986327
905.9685764
905.2587907
904.5692929
903.8999929
903.2506844
902.621016
902.0106253
901.4190104
900.8456706
900.2899938
935.1170808
935.0440314
934.8874539
934.6562306
934.3554791
933.9895684
933.5628398
933.0793644
932.5429854
931.9574999
931.3265703
930.6537451
929.9424256
929.1960032
928.4177474
927.6108363
926.7785287
925.9237284
925.0494409
924.1588015
923.2544836
922.3394344
921.4164505
920.4881094
919.5572278
918.6260895
917.6973827
916.7731081
915.8556689
914.9468946
914.0487626
913.1628965
912.2908679
911.4341193
910.5936564
909.7705784
908.9657877
908.1798676
907.4133539
906.6667345
905.9402077
905.2338402
904.5476524
903.8815542
903.2353433
902.6086701
902.0011796
901.4123712
900.8417502
900.288707
934.9975164
934.9244861
934.767952
934.5369298
934.2362803
933.870636
933.4440984
932.9609994
932.4250636
931.840093
931.2097738
930.5376523
929.8271663
929.0817191
928.3045929
927.4990792
926.668271
925.8151585
924.9428586
924.0543816
923.1524273
922.2400862
921.3199428
920.3947481
919.4671383
918.5395579
917.6144908
916.6940554
915.7805551
914.8757845
913.9817802
913.1000054
912.2321331
911.379459
910.5430277
909.7239644
908.9230662
908.140945
907.3781352
906.6351459
905.9121078
905.2091213
904.5262091
903.863281
903.2201382
902.5964329
901.9918166
901.40579
900.8378641
900.2874314
934.8780311
934.8050228
934.6486554
934.4177256
934.1171899
933.7518267
933.3256262
932.8427957
932.3073268
931.7228981
931.0932198
930.4218368
929.7122235
928.9677948
928.191897
927.3877936
926.5585212
925.7071498
924.8369183
923.950623
923.0511252
922.1414869
921.2242198
920.3021969
919.3778752
918.453858
917.532427
916.6158441
915.7062313
914.8054779
913.9155169
913.0377907
912.1740269
911.3253775
910.4929271
909.6778276
908.8807726
908.1024034
907.3432843
906.6038524
905.8842649
905.184624
904.5049547
903.8451665
903.2050638
902.5843001
901.982533
901.3992645
900.8340108
900.2861666
934.7586291
934.6857223
934.5294645
934.2986226
933.99832
933.6331462
933.2073015
932.7248339
932.1897821
931.6059239
930.9769185
930.3063099
929.5976092
928.854278
928.0796832
927.2769739
926.4492877
925.599772
924.7315935
923.8475271
922.9505846
922.0436254
921.1293129
920.2104389
919.2894173
918.3689651
917.4511636
916.5384166
915.6326672
914.7359182
913.8499414
912.976222
912.1165207
911.2718485
910.4433628
909.6321467
908.8388885
908.0642269
907.3087588
906.5728425
905.8566693
905.1603402
904.4838829
903.8272057
903.1901159
902.5722684
901.9733265
901.392793
900.8301894
900.2849122
934.6394418
934.566566
934.41037
934.1796258
933.879587
933.5146006
933.089131
932.6071032
932.0725073
931.4891792
930.8608796
930.1910823
929.4833914
928.7412248
927.967895
927.1666285
926.3405775
925.4930127
924.6268864
923.745092
922.850742
921.9464937
921.035202
920.1194576
919.2018153
918.2848569
917.370679
916.4617464
915.5598351
914.6670578
913.7850278
912.915332
912.0595903
911.2188497
910.3942981
909.5869041
908.7973985
908.0264023
907.274545
906.5421071
905.8293133
905.1362639
904.4629884
903.8093942
903.1752914
902.5603354
901.9641952
901.3863743
900.8263991
900.2836681
934.5203491
934.4475041
934.2913764
934.0607811
933.7609779
933.3962495
932.9711206
932.4895552
931.955495
931.3727978
930.7452023
930.0762781
929.3695852
928.6285625
927.8565421
927.056765
926.2324686
925.3868281
924.5227977
923.6434027
922.7515925
921.8500845
920.9418362
920.0292369
919.1149952
918.2015125
917.2910223
916.3858099
915.487711
914.5988728
913.7207529
912.8550437
912.0032153
911.1663625
910.3457005
909.5420851
908.75629
907.9889239
907.2406339
906.5116386
905.802191
905.1123902
904.4422675
903.7917293
903.1605878
902.5484992
901.9551377
901.3800073
900.8226394
900.2824341
934.4013519
934.3285408
934.1724884
933.9421357
933.6424981
933.2781203
932.8532767
932.3721971
931.8386994
931.2566648
930.6298288
929.9617959
929.2561363
928.5162998
927.7456329
926.9473928
926.1249286
925.2812212
924.4193285
923.5423792
922.6531342
921.7544557
920.8492012
919.9397607
919.0289238
918.1189126
917.2120975
916.3105859
915.416338
914.5313424
913.6570967
912.7953343
911.9473782
911.114371
910.2975559
909.4976775
908.7155525
907.9518104
907.2070184
906.4814314
905.7752976
905.0887152
904.4217172
903.7742084
903.1460033
902.5367584
901.946153
901.3736915
900.8189099
900.2812099
934.2824545
934.2096806
934.0537592
933.823611
933.5241531
933.1601434
932.7356671
932.255035
931.7221275
931.140786
930.5147434
929.8476391
929.1430531
928.4044453
927.6351766
926.8386216
926.0179247
925.1761937
924.3165382
923.4420104
922.5553616
921.6595658
920.757286
919.8510685
918.9435846
918.0370397
917.1338859
916.2360553
915.3456369
914.4644479
913.5940462
912.7361881
911.892065
911.0628972
910.2498516
909.4536707
908.6751772
907.9150219
907.1736927
906.4514807
905.7486296
905.0652363
904.4013353
903.75683
903.1315366
902.525112
901.9372404
901.3674264
900.8152103
900.2799955
934.1636613
934.0909376
933.9352209
933.7052119
933.4059918
933.042325
932.6183035
932.1380763
931.6057861
931.0251688
930.3999541
929.7338157
929.0303433
928.2930062
927.5252484
926.73035
925.9114614
925.0717472
924.2144079
923.3422926
922.4582671
921.5653734
920.6660816
919.7631234
918.8589633
917.9559248
917.0563708
916.162201
915.2755859
914.3981732
913.5316352
912.6775908
911.8372626
911.0119083
910.2025778
909.4100562
908.6351571
907.8785524
907.1406521
906.421783
905.7221841
905.0419513
904.3811203
903.7395928
903.1171869
902.5135595
901.9283995
901.3612115
900.8115403
900.2787909
934.0450347
933.9724219
933.8168022
933.5869437
933.2880621
932.9246704
932.5011245
932.0214482
931.4896823
930.9098207
930.2854685
929.6203334
928.9180141
928.1820508
927.4158227
926.6225825
925.8055428
924.9679326
924.1128918
923.2432188
922.3619329
921.4718724
920.5755795
919.6758846
918.7750466
917.8755346
916.979537
916.0890303
915.2061698
914.3325038
913.4697959
912.6195296
911.7829593
910.9613802
910.155727
909.3668277
908.5955028
907.8423969
907.1078927
906.3923351
905.6959589
905.0188585
904.3610708
903.7224959
903.1029536
902.5021004
901.9196299
901.3550467
900.8079
900.2775961
924.8647516
924.0119876
923.1447857
922.2662652
921.379055
920.4858298
919.5893399
918.6918218
917.7958268
916.9033707
916.016555
915.1373751
914.2674266
913.4085161
912.5619935
911.7291452
910.9113046
910.1092923
909.3239796
908.556213
907.8065514
907.0754114
906.3631349
905.6699524
904.9959567
904.3411862
903.705539
903.0888363
902.4907344
901.9109315
901.348932
900.8042892
900.2764109
)
;

boundaryField
{
    front_top
    {
        type            wedge;
    }
    front_middle
    {
        type            wedge;
    }
    front_bottom
    {
        type            wedge;
    }
    back_top
    {
        type            wedge;
    }
    back_middle
    {
        type            wedge;
    }
    back_bottom
    {
        type            wedge;
    }
    axis_top
    {
        type            symmetryPlane;
    }
    axis_middle
    {
        type            symmetryPlane;
    }
    axis_bottom
    {
        type            symmetryPlane;
    }
    wall_top
    {
        type            calculated;
        value           nonuniform 0();
    }
    wall_middle
    {
        type            calculated;
        value           nonuniform 0();
    }
    wall_bottom
    {
        type            calculated;
        value           uniform 900.0184441;
    }
    inlet
    {
        type            calculated;
        value           nonuniform 0();
    }
    outlet
    {
        type            calculated;
        value           nonuniform 0();
    }
    procBoundary1to0
    {
        type            processor;
        value           nonuniform List<scalar> 
51
(
933.9265883
933.8540231
933.698508
933.4688115
933.1702833
932.8071852
932.3841367
931.905037
931.3739469
930.7947891
930.1713092
929.5072313
928.8061583
928.0715745
927.3068642
926.5153229
925.7001714
925.7001714
924.7621516
923.9116952
923.0470404
922.1712554
921.2869125
920.3967951
919.5034794
918.6093066
917.7167883
916.8278588
915.9447134
915.0691893
914.2029523
913.3477852
912.5049729
911.6758576
910.8616741
910.0632676
909.2815067
908.5172639
907.7710136
907.0432062
906.3341808
905.6441633
904.9732452
904.321466
903.6887216
903.0748347
902.4794615
901.9023042
901.3428672
900.8007079
900.2752354
)
;
    }
    procBoundary1to2
    {
        type            processor;
        value           nonuniform List<scalar> 
51
(
936.7995903
936.7262614
936.5692205
936.3371174
936.0349192
935.6672641
935.2380743
934.7513285
934.2109774
933.6205304
932.9835788
932.3035726
931.5838039
930.8274944
930.0378005
929.2176674
928.3700046
927.4977138
926.6035385
925.6899942
924.7599766
923.8157815
922.8601014
921.8953556
920.9241858
919.9488705
918.9721608
917.9963125
917.024022
916.0574494
915.0991877
914.1512786
913.2160187
912.295264
911.3250387
911.3250387
910.4436495
909.5815407
908.7395782
907.9185973
907.1192272
906.3416968
905.5861786
904.8526952
904.1411081
903.4510626
902.7821356
902.1338302
901.5055824
900.8967838
900.3067712
)
;
    }
}


// ************************************************************************* //
