/*--------------------------------*- C++ -*----------------------------------*\
  =========                 |
  \\      /  F ield         | OpenFOAM: The Open Source CFD Toolbox
   \\    /   O peration     | Website:  https://openfoam.org
    \\  /    A nd           | Version:  7
     \\/     M anipulation  |
\*---------------------------------------------------------------------------*/
FoamFile
{
    version     2.0;
    format      ascii;
    class       volScalarField;
    location    "0.0024";
    object      T;
}
// * * * * * * * * * * * * * * * * * * * * * * * * * * * * * * * * * * * * * //

dimensions      [0 0 0 1 0 0 0];

internalField   nonuniform List<scalar> 
1167
(
455.2237971
455.3350306
455.5735595
455.9262346
456.3854573
456.9447647
457.5979961
458.3395505
459.163834
460.0654079
461.0392005
462.0802424
463.18374
464.3449342
465.5595053
466.8230065
468.1311913
469.479608
470.8645603
472.2819815
473.7277313
475.1982433
476.6893104
478.1973534
479.7181022
481.2480765
482.7829662
484.3190692
485.8523357
487.3790407
488.8953204
490.3976485
491.8825969
493.3469283
455.4067723
455.5180475
455.7566607
456.109449
456.5685977
457.1280312
457.7811668
458.5226087
459.3467449
460.2482006
461.2217476
462.2624094
463.3654251
464.5261488
465.7401478
467.0029687
468.3101887
469.6576559
471.0415057
472.4574305
473.9016083
475.3700725
476.8588755
478.3640727
479.8816621
481.4077649
482.9383757
484.4694699
485.997285
487.5178436
489.0275921
490.5228174
492.000419
493.4570118
494.8900481
496.2970817
497.6759245
499.024985
500.3427494
501.628213
502.8807802
504.1000156
505.285669
506.4378813
507.5570047
508.6435592
509.6981828
510.7216438
511.7147864
512.678564
455.5897564
455.7010706
455.9397631
456.2925003
456.7517221
457.3110883
457.9643035
458.7056199
459.529594
460.4308208
461.404075
462.4443813
463.5469555
464.7071665
465.9205358
467.182569
468.4887454
469.8351639
471.2176984
472.6320205
474.0744229
475.5406099
477.0268965
478.5289853
480.0431442
481.5651078
483.0911861
484.6170496
486.1392296
487.6535103
489.156644
490.6447574
492.1150518
493.5640032
494.9893774
496.3886165
497.7597997
499.1013023
500.4116125
501.6899038
502.9355314
504.1480763
505.3272479
506.4732682
507.5864288
508.6672363
509.7163055
510.7343923
511.7223226
512.6810408
455.772742
455.8840927
456.1228587
456.4754921
456.934822
457.4940858
458.1473949
458.888572
459.7123684
460.6133482
461.5862892
462.6262145
463.7283127
464.8879653
466.1006444
467.3616644
468.6668583
470.0121083
471.393077
472.8057356
474.2460749
475.7098673
477.1933655
478.6921472
480.2025832
481.7202334
483.2414792
484.7620234
486.2783082
487.7863401
489.2827047
490.7638302
492.2267941
493.6682861
495.086138
496.4777547
497.841469
499.1755943
500.478684
501.750008
502.9888941
504.1948931
505.3678031
506.5077954
507.6151458
508.6903491
509.7339985
510.7468394
511.7296807
512.6834591
455.9557221
456.0671064
456.3057685
456.6584613
457.117889
457.6770394
458.3302317
459.071453
459.895055
460.7957689
461.7683741
462.8078899
463.9094754
465.0685218
466.2803134
467.5403808
468.844497
470.1884235
471.5677265
472.9785599
474.416581
475.8778569
477.3582382
478.8536099
480.3600097
481.873263
483.3894477
484.9045882
486.4148646
487.9165954
489.406176
490.8803408
492.3360094
493.7701824
495.1806193
496.5648057
497.921225
499.2481144
500.5442144
501.808751
503.0410679
504.2406828
505.4074844
506.5415891
507.6432599
508.7129808
509.7513255
510.7590298
511.7368873
512.6858276
456.1386899
456.2499945
456.4886265
456.8413991
457.3007418
457.8599406
458.5129986
459.2541412
460.0776403
460.9780674
461.9503119
462.9893873
464.0904209
465.2487077
466.4596004
467.7186878
469.0216286
470.3639829
471.7416252
473.1504772
474.5860106
476.0445866
477.5216606
479.0134308
480.5156157
482.0243082
483.5352926
485.0449182
486.5491122
488.0445046
489.5273058
490.9945508
492.4430025
493.8699627
495.2730584
496.6500278
497.9993121
499.3191322
500.6084072
501.8663157
503.092215
504.2855881
505.4464129
506.5747515
507.6708554
508.7351988
509.7683375
510.7709993
511.7439635
512.6881533
456.3214498
456.4327692
456.6714556
457.0242984
457.4835086
458.04278
458.695688
459.4366518
460.2599898
461.1602164
462.132084
463.170663
464.2710044
465.428515
466.6385283
467.8965551
469.1981757
470.5388932
471.9147433
473.3213017
474.7543606
476.2100054
477.6836648
479.1716449
480.6694784
482.1734486
483.6791433
485.1831362
486.6812301
488.1702471
489.6463086
491.1066852
492.5480034
493.9678576
495.3637407
496.7336336
498.0759302
499.3888321
500.6714293
501.9228516
503.1424668
504.3297236
505.4846865
506.6073651
507.698
508.7570574
509.7850761
510.7827771
511.7509264
512.6904417
456.5041716
456.6155149
456.8542486
457.2070866
457.6662186
458.2254653
458.8782893
459.6190545
460.4421284
461.3420218
462.3134997
463.3515429
464.4512654
465.6080024
466.8170681
468.0739527
469.3740294
470.7131266
472.0870584
473.4911869
474.9216237
476.3740797
477.8442849
479.3282013
480.8216665
482.3206786
483.8211163
485.3193122
486.8113758
488.2939152
489.7633698
491.2168745
492.6512075
494.0640607
495.4528533
496.8158002
498.1512437
499.4573657
500.7334178
501.9784804
503.1918883
504.3731818
505.5223844
506.6394965
507.7247487
508.7786002
509.8015743
510.7943863
511.7577898
512.6926975
456.6868612
456.7982249
457.0369983
457.3896783
457.8488643
458.4079528
459.060792
459.8013371
460.6241225
461.5236555
462.494693
463.5321809
464.6312378
465.7871429
466.9951912
468.250746
469.5492887
470.8866569
472.2584373
473.6601195
475.087798
476.5369288
478.0035443
479.483268
480.972248
482.4662078
483.9613165
485.4536717
486.939688
488.4157629
489.8786492
491.3253071
492.7527804
494.1587263
495.5405527
496.8966753
498.2253168
499.5248577
500.7944848
502.0333016
503.2406019
504.4160379
505.5595706
506.6711992
507.7511455
508.7998623
509.817859
510.8058457
511.7645648
512.6949241
456.8695122
456.9808926
457.2196186
457.5722109
458.0314378
458.5903514
459.243088
459.9834881
460.8059587
461.7051016
462.6756639
463.712555
464.8108963
465.9659091
467.1728453
468.4269333
469.7239264
471.0594598
472.4289092
473.828088
475.2527848
476.6985625
478.1614556
479.6368879
481.1212846
482.6101148
484.0998388
485.5863242
487.0662884
488.5359217
489.9922849
491.4321642
492.8528628
494.2519181
495.6269698
496.9763819
498.2983378
499.5914109
500.8547222
502.0873964
503.2886857
504.4583527
505.5962969
506.7025166
507.7772257
508.820872
509.8339516
510.8171704
511.7712601
512.6971246
457.052118
457.1634957
457.4020537
457.7546777
458.213861
458.7726524
459.4251717
460.165479
460.9876238
461.8863443
462.8563936
463.8926432
464.9902154
466.144272
467.3498659
468.6025689
469.8979176
471.2314321
472.5985219
473.9950815
475.4166204
476.8589851
478.3179053
479.7891076
481.2687232
482.7524717
484.2366873
485.7173669
487.191244
488.654506
490.1043959
491.5375664
492.951574
494.3438349
495.7122143
497.0550221
498.3704001
499.6571098
500.9142052
502.1408309
503.3361971
504.5001755
505.6326049
506.7334835
507.803018
508.841652
509.8498692
510.8283723
511.777883
512.6993012
457.2345749
457.3458502
457.5844272
457.9370719
458.3960663
458.9548469
459.6071267
460.3471329
461.1690833
462.067368
463.0368636
464.0724243
465.1691518
466.3220285
467.5263887
468.7776258
470.0712383
471.4025452
472.7672596
474.1610805
475.5793649
477.0182125
478.4730689
479.9399605
481.4147004
482.8933427
484.3719738
485.846886
487.3146087
488.7716153
490.2150213
491.6416166
493.0490152
494.434574
495.7963781
497.132681
498.4415811
499.7220234
500.9729943
502.193615
503.3831839
504.5415468
505.6685285
506.764128
507.8285452
508.8622203
509.8656256
510.8394611
511.784439
512.7014559
457.4168622
457.5281442
457.7667328
458.1193863
458.5781762
459.1369261
459.7889425
460.5286187
461.3501668
462.2480548
463.2169831
464.2517772
465.3475374
466.4993295
467.7023885
468.9520771
470.2437726
471.5728719
472.9351102
474.3259382
475.7410223
477.1762345
478.626969
480.0894791
481.5592885
483.0327852
484.5058129
485.9749574
487.4365468
488.8873361
490.3242698
491.744403
493.1452724
494.5242176
495.879538
497.2093717
498.5119446
499.786209
501.0311404
502.2458277
503.4296829
504.5824981
505.7040947
506.7944724
507.8538255
508.8825914
509.8812317
510.8504445
511.7909327
512.7035901
457.5990867
457.7103719
457.9489641
458.3014475
458.7601828
459.3187036
459.9706089
460.7099257
461.5310382
462.4284041
463.3966845
464.4307082
465.5255184
466.6761588
467.877842
469.1259001
470.4155161
471.7423968
473.1020634
474.4898054
475.9015998
477.3329654
478.7796231
480.2376037
481.7025302
483.170831
484.6382655
486.1016485
487.5571301
489.001743
490.4322608
491.8459985
493.2403347
494.6128372
495.9617597
497.2851954
498.5815441
499.8497138
501.088685
502.2975138
503.475724
504.623055
505.7393247
506.8245343
507.8788732
508.9027766
509.8966962
510.8613283
511.7973677
512.7057049
457.781243
457.8925273
458.1311144
458.4833814
458.9420781
459.5003344
460.1521138
460.8910428
461.7116847
462.6084877
463.5760747
464.6092754
465.7030748
466.8524956
468.0527284
469.2989272
470.5865284
471.9111019
473.267993
474.6526816
476.0611007
477.4885418
478.9310536
480.3843925
481.8444614
483.3074328
484.769386
486.2269479
487.6764245
489.1149027
490.539061
491.9464696
493.3343448
494.7004899
496.043097
497.3602181
498.6504237
499.9125768
501.1456619
502.3487019
503.5213315
504.6632376
505.7742353
506.8543277
507.9036995
508.9227848
509.9120256
510.8721174
511.8037465
512.7078013
457.9633251
458.0746044
458.3129983
458.6652143
459.1238543
459.6818237
460.3332534
461.071959
461.8920936
462.7882916
463.7551372
464.7874603
465.8801873
467.0283204
468.2269486
469.4712657
470.7567932
472.0789743
473.4329609
474.8145626
476.2194579
477.6429786
479.0812844
480.529937
481.9851179
483.4427471
484.89922
486.3509348
487.7944833
489.226801
490.6447302
492.0458736
493.4273609
494.7872249
496.1235949
497.4344805
498.7186196
499.9748297
501.202048
502.3994152
503.5665249
504.7030622
505.8088399
506.8838633
507.9283133
508.9426228
509.9272252
510.8828152
511.8100715
512.7098799
458.1453269
458.2564799
458.4947675
458.846939
459.3053401
459.8631621
460.5142134
461.2525508
462.0722533
462.9678019
463.9338563
464.9652455
466.0568372
467.2035592
468.4004654
469.6429239
470.926297
472.2459048
473.5970077
474.9754458
476.3766589
477.7962923
479.2302652
480.6742631
482.1245326
483.5768119
485.0278105
486.4737001
487.9113544
489.3375274
490.7493173
492.1442589
493.5194282
494.873084
496.2032397
497.5080164
498.7861616
500.0364982
501.257912
502.4496723
503.6113196
504.7425416
505.8431491
506.9131497
507.9527213
508.962296
509.942299
510.8934246
511.8163442
512.7119414
458.3270477
458.4381817
458.6764359
459.0285481
459.4866631
460.0443405
460.6949834
461.4328342
462.2520448
463.1470051
464.1122166
465.1426141
466.2329196
467.3781249
468.5733658
469.8138882
471.0950286
472.4119124
473.7601297
475.1353334
476.5328026
477.948495
479.3780267
480.8173958
482.262625
483.7096622
485.1551911
486.5952851
488.0270809
489.4471573
490.8528639
492.2415726
493.6105849
494.9581026
496.2820903
497.5808541
498.8530742
500.0976033
501.3132758
502.4994882
503.6557279
504.781686
505.8771709
506.9421936
507.9769287
508.9818084
509.95725
510.9039476
511.8225658
512.713986
458.5086706
458.619786
458.8579966
459.2099712
459.6678429
460.2252675
460.875554
461.6128832
462.4314789
463.3256951
464.2900655
465.3193746
466.4084102
467.5521293
468.7456344
469.9841463
471.2628661
472.5770643
473.9223248
475.294092
476.6878958
478.0995971
479.5246482
480.95936
482.3995105
483.8413299
485.2812834
486.7157266
488.1417008
489.5557282
490.955406
492.3379376
493.7008636
495.0423102
496.3601986
497.6530169
498.9193776
500.1581541
501.3681539
502.5488745
503.6997596
504.820503
505.9109117
506.9709998
508.0009394
509.0011631
509.9720803
510.9143859
511.8287373
512.7160142
458.6901941
458.8012861
459.0394425
459.3911361
459.8488711
460.4059011
461.0559155
461.7926868
462.6106256
463.5040483
464.4674912
465.495683
466.5833927
467.7255586
468.9172577
470.153683
471.4298594
472.7413551
474.0835909
475.4518457
476.8419407
478.2495075
479.6701516
481.1001801
482.5352414
483.971845
485.4062389
486.8350578
488.2551447
489.663273
491.0569753
492.4333897
493.7902919
495.1257321
496.4375871
497.7245243
498.9850885
500.2181204
501.4225576
502.5978408
503.7434222
504.8589988
505.9443762
506.9995722
508.0247564
509.0203622
509.9867918
510.9247406
511.8348593
512.7180261
458.8716116
458.982675
459.220692
459.5721628
460.0297392
460.5863474
461.2359639
461.9722351
462.789474
463.6820556
464.6445177
465.6715334
466.7578538
467.8983989
469.0882209
470.3223278
471.5960586
472.9047818
474.2438344
475.6086111
476.9949454
478.3982903
479.8145532
481.2397935
482.6698425
484.1012346
485.5300863
486.9533083
488.3675379
489.7698204
491.1575921
492.5279539
493.8788919
495.2083328
496.5142759
497.7953932
499.0502209
500.2775665
501.4764963
502.6463944
503.7867215
504.8971779
505.977568
507.0279133
508.0483817
509.0394073
510.0013855
510.9350123
511.8409323
512.7200218
459.0529162
459.1639312
459.4016962
459.7530434
460.2103725
460.7665969
461.415681
462.1515167
462.9680134
463.8597051
464.8211323
465.846913
466.931781
468.0706388
469.2584072
470.4902374
471.7614563
473.0673413
474.4030845
475.7643937
477.1469209
478.5460097
479.9578665
481.3782573
482.8033362
484.2294491
485.6528517
487.0705047
488.478915
489.875396
491.257202
492.6216526
493.9666844
495.2901644
496.5902805
497.8656371
499.1147862
500.3365017
501.5299775
502.6945412
503.829662
504.9350437
506.0104896
507.0560252
508.0718167
509.0582994
510.0158621
510.9452018
511.8469566
512.7220016
459.2340124
459.3448864
459.5825635
459.9337698
460.3906972
460.9466412
461.5951605
462.3303365
463.1462327
464.0369851
464.9973233
466.0218101
467.1051629
468.242172
469.4278555
470.6574041
471.9260455
473.2289538
474.5614116
475.9192035
477.2977382
478.6926746
480.1001045
481.5156354
482.9357425
484.3565404
485.7745585
487.1866349
488.5892994
489.9800227
491.3559129
492.7145058
494.0536878
495.3712656
496.6656129
497.9352661
499.1787668
500.3949342
501.5830074
502.7422859
503.8722473
504.9725988
506.0431429
507.0839092
508.0950625
509.0770393
510.0302222
510.9553092
511.8529324
512.7239653
473.3896159
474.718819
476.0730449
477.447543
478.8382966
480.2411876
481.6519461
483.0670809
484.4825749
485.8952281
487.3016798
488.6987123
490.0837205
491.4537438
492.8065309
494.1399174
495.4516494
496.7402839
498.0042888
499.2421647
500.4528702
501.6355909
502.7896322
503.9144801
505.0098451
506.0755292
507.1115662
508.1181195
509.0956274
510.044466
510.9653347
511.8588597
512.7259131
)
;

boundaryField
{
    front_top
    {
        type            wedge;
    }
    front_middle
    {
        type            wedge;
    }
    front_bottom
    {
        type            wedge;
    }
    back_top
    {
        type            wedge;
    }
    back_middle
    {
        type            wedge;
    }
    back_bottom
    {
        type            wedge;
    }
    axis_top
    {
        type            symmetryPlane;
    }
    axis_middle
    {
        type            symmetryPlane;
    }
    axis_bottom
    {
        type            symmetryPlane;
    }
    wall_top
    {
        type            convectiveRadiativeHeatFlux;
        mode            convectiveRadiative;
        kappaMethod     fluidThermo;
        kappa           none;
        alphaAni        Anialpha;
        h               nonuniform 0();
        Ta              constant 513.15;
        emissivityNozzle 0.95;
        emissivityFilament 0.95;
        dNozzle         2;
        dFilament       1.65;
        refValue        nonuniform 0();
        refGradient     nonuniform 0();
        valueFraction   nonuniform 0();
        value           nonuniform 0();
    }
    wall_middle
    {
        type            fixedValue;
        value           nonuniform 0();
    }
    wall_bottom
    {
        type            fixedValue;
        value           uniform 513.15;
    }
    inlet
    {
        type            fixedValue;
        value           nonuniform 0();
    }
    outlet
    {
        type            zeroGradient;
    }
    procBoundary1to0
    {
        type            processor;
        value           nonuniform List<scalar> 
51
(
459.4148795
459.525709
459.7632866
460.1143343
460.5708367
461.1264715
461.7743921
462.5088683
463.3239307
464.2138225
465.1730551
466.1961635
467.2778558
468.4130055
469.5966202
470.8238216
472.0898218
472.0898218
473.5494087
474.8753061
476.225844
477.5963484
478.9828889
480.3811738
481.7872046
483.197323
484.6075727
486.0148807
487.4157368
488.8071729
490.1864721
491.5507114
492.8977431
494.2253135
495.5313274
496.8143031
498.0727137
499.3050185
500.5103136
501.6877311
502.8365825
503.956362
505.0467837
506.1076492
507.1389966
508.1409881
509.1140637
510.0585936
510.9752784
511.8647387
512.727845
)
;
    }
    procBoundary1to2
    {
        type            processor;
        value           nonuniform List<scalar> 
51
(
455.0407177
455.1520277
455.3904675
455.7430227
456.2023115
456.7614836
457.4148009
458.1564565
458.9806958
459.8824412
460.8564892
461.8978468
463.0017526
464.1635403
465.3786272
466.6427365
467.951626
469.3010414
470.6869489
472.1056419
473.5527965
475.0249927
476.5181641
478.0286398
479.5523698
481.0858416
482.6247679
484.1656073
485.7040905
487.2367632
488.7594535
490.2688342
491.7611444
493.2332988
494.7877683
494.7877683
496.2027789
497.5894892
498.9463336
500.2717888
501.5646591
502.8243946
504.0505389
505.2428812
506.401478
507.526744
508.6192141
509.6795514
510.7085385
511.7070396
512.676018
)
;
    }
}


// ************************************************************************* //
