/*--------------------------------*- C++ -*----------------------------------*\
  =========                 |
  \\      /  F ield         | OpenFOAM: The Open Source CFD Toolbox
   \\    /   O peration     | Website:  https://openfoam.org
    \\  /    A nd           | Version:  7
     \\/     M anipulation  |
\*---------------------------------------------------------------------------*/
FoamFile
{
    version     2.0;
    format      ascii;
    class       volScalarField;
    location    "0.0024";
    object      thermo:alpha;
}
// * * * * * * * * * * * * * * * * * * * * * * * * * * * * * * * * * * * * * //

dimensions      [1 -1 -1 0 0 0 0];

internalField   nonuniform List<scalar> 
1167
(
0.0001192378526
0.0001192264431
0.0001192019826
0.0001191658318
0.0001191187863
0.0001190615284
0.000118990523
0.0001189078182
0.0001188159877
0.000118715668
0.0001186074548
0.00011848326
0.0001183504034
0.0001182003448
0.0001180436487
0.0001178809217
0.0001177036339
0.0001175181059
0.0001173212931
0.0001171139079
0.0001168974564
0.0001166695875
0.000116434031
0.0001161961954
0.0001159392399
0.0001156799856
0.000115416467
0.0001151425673
0.0001148663918
0.0001145807191
0.0001142948852
0.0001140008636
0.0001137085398
0.0001134190605
0.0001192190853
0.0001192076745
0.0001191832117
0.0001191470586
0.0001191000327
0.0001190427767
0.0001189700861
0.0001188874152
0.0001187956246
0.0001186953438
0.0001185865163
0.0001184613656
0.0001183269086
0.0001181769488
0.0001180203661
0.0001178577676
0.0001176789856
0.0001174936345
0.0001172953816
0.0001170882661
0.0001168704883
0.0001166429914
0.0001164062755
0.000116167425
0.0001159125793
0.0001156525434
0.0001153898165
0.000115115451
0.0001148403133
0.0001145545286
0.0001142699789
0.0001139762001
0.0001136853711
0.0001133964528
0.0001131024625
0.0001128039242
0.0001125096069
0.0001122221825
0.0001119311076
0.0001116465646
0.000111363159
0.0001110831593
0.0001108113166
0.0001105449575
0.0001102790618
0.0001100168345
0.00010975749
0.0001095061628
0.0001092626134
0.0001090218191
0.000119200322
0.0001191889101
0.0001191644455
0.0001191283069
0.0001190812857
0.0001190225446
0.0001189496583
0.0001188670226
0.0001187752737
0.000118675044
0.0001185645763
0.0001184395002
0.0001183034397
0.0001181535841
0.0001179971221
0.0001178343633
0.0001176544042
0.0001174692432
0.0001172695866
0.000117062756
0.0001168436915
0.0001166166014
0.0001163787793
0.0001161389729
0.0001158862633
0.0001156255101
0.0001153636173
0.0001150888487
0.0001148147805
0.0001145289347
0.0001142456225
0.000113952177
0.0001136628331
0.0001133744833
0.0001130821063
0.0001127843687
0.0001124917214
0.0001122059385
0.0001119158518
0.0001116329216
0.0001113505753
0.0001110721316
0.0001108017914
0.0001105365436
0.0001102720763
0.0001100110079
0.0001097530367
0.0001095030344
0.0001092607666
0.0001090211906
0.0001191815633
0.0001191701506
0.0001191456848
0.0001191095661
0.0001190625459
0.0001190021188
0.0001189292408
0.0001188466418
0.0001187549362
0.0001186547597
0.0001185426556
0.0001184176571
0.0001182799991
0.0001181302536
0.0001179739199
0.000117809669
0.00011762989
0.0001174449354
0.0001172439172
0.0001170373799
0.0001168170814
0.0001165904157
0.0001163519433
0.0001161108292
0.000115859802
0.0001155988636
0.0001153370148
0.0001150627214
0.0001147885919
0.0001145038806
0.0001142207409
0.0001139287225
0.0001136408668
0.0001133530732
0.0001130622791
0.0001127653276
0.0001124743083
0.0001121898947
0.0001119009943
0.0001116196305
0.0001113383117
0.0001110613899
0.0001107925013
0.0001105283346
0.0001102652589
0.0001100053204
0.000109748689
0.00010949998
0.0001092589634
0.000109020577
0.00011916281
0.0001191513969
0.0001191269479
0.0001190908325
0.0001190438143
0.0001189817032
0.000118908857
0.0001188262743
0.0001187346138
0.0001186344924
0.0001185207559
0.0001183958385
0.0001182565897
0.0001181069602
0.0001179507803
0.000117785033
0.0001176054471
0.0001174203639
0.0001172183606
0.00011701214
0.0001167906551
0.0001165644323
0.0001163264953
0.000116082985
0.0001158327093
0.0001155725826
0.0001153102973
0.0001150370334
0.0001147627862
0.0001144793165
0.0001141963747
0.0001139057765
0.0001136194006
0.0001133321559
0.0001130426426
0.0001127467345
0.0001124573049
0.0001121738032
0.0001118864795
0.0001116066416
0.0001113263221
0.0001110508847
0.0001107834119
0.0001105203003
0.000110258585
0.0001099997515
0.0001097444314
0.0001094969887
0.0001092571973
0.000109019976
0.0001191440629
0.0001191326608
0.0001191082212
0.0001190721069
0.0001190236996
0.0001189612987
0.0001188884861
0.0001188059333
0.0001187143078
0.0001186142439
0.0001184988795
0.0001183740468
0.0001182332142
0.0001180837205
0.0001179276956
0.0001177604596
0.00011758108
0.0001173946311
0.0001171929201
0.0001169870342
0.0001167644019
0.0001165386497
0.0001163012769
0.0001160554299
0.0001158059357
0.000115546648
0.0001152839685
0.000115011753
0.0001147374215
0.0001144551992
0.0001141724745
0.0001138832871
0.0001135983742
0.0001133116759
0.0001130228637
0.0001127285342
0.0001124406592
0.0001121580466
0.0001118722622
0.0001115939141
0.0001113145693
0.0001110405829
0.0001107744954
0.0001105124164
0.0001102520343
0.0001099942845
0.0001097402513
0.0001094940516
0.0001092554632
0.0001090193859
0.0001191253418
0.0001191139411
0.0001190895022
0.00011905339
0.0001190032993
0.0001189409064
0.0001188681292
0.0001187856174
0.0001186940332
0.0001185939218
0.0001184770286
0.0001183520947
0.0001182098913
0.0001180605354
0.0001179046628
0.0001177359529
0.0001175567993
0.0001173689998
0.0001171675999
0.0001169605183
0.0001167383221
0.0001165125218
0.0001162762829
0.0001160283573
0.0001157794677
0.0001155210457
0.0001152580049
0.0001149868578
0.0001147124638
0.0001144314945
0.0001141489979
0.0001138612099
0.0001135777423
0.0001132915856
0.0001130034632
0.0001127106812
0.0001124243284
0.0001121425838
0.0001118583054
0.0001115814152
0.000111303023
0.0001110304584
0.0001107657294
0.0001105046634
0.000110245591
0.0001099889061
0.0001097361385
0.0001094911616
0.0001092537569
0.0001090188052
0.0001191066294
0.0001190952292
0.0001190707918
0.0001190341553
0.0001189829106
0.0001189205364
0.0001188477872
0.0001187653187
0.0001186737872
0.0001185720428
0.0001184552261
0.0001183287036
0.000118186616
0.0001180373974
0.0001178816858
0.000117711517
0.0001175326199
0.0001173434738
0.0001171424032
0.0001169341545
0.0001167124167
0.0001164856472
0.0001162515081
0.0001160028188
0.0001157532933
0.0001154957764
0.0001152323853
0.0001149623351
0.000114687883
0.0001144081848
0.000114125908
0.0001138395189
0.0001135574664
0.0001132718451
0.0001129844008
0.0001126931374
0.0001124082772
0.0001121273813
0.0001118445787
0.0001115691177
0.0001112916683
0.0001110204898
0.0001107570957
0.0001104970254
0.0001102392418
0.0001099836056
0.0001097320848
0.000109488313
0.000109252075
0.0001090182328
0.0001190879251
0.0001190765258
0.0001190520905
0.0001190137719
0.0001189625343
0.0001189001937
0.0001188274614
0.0001187450385
0.0001186535625
0.0001185501899
0.0001184334559
0.0001183053496
0.0001181633838
0.0001180143099
0.0001178587681
0.0001176871703
0.0001175085281
0.000117318057
0.0001171173494
0.0001169079446
0.0001166866858
0.0001164589793
0.0001162269485
0.0001159775289
0.0001157274007
0.0001154708042
0.0001152070905
0.000114938144
0.0001146636529
0.0001143852222
0.0001141031732
0.0001138181769
0.0001135375138
0.0001132524226
0.000112965643
0.0001126758714
0.0001123924921
0.0001121124112
0.0001118310571
0.0001115569996
0.000111280477
0.0001110106599
0.0001107485795
0.0001104894895
0.0001102329764
0.0001099783743
0.0001097280837
0.0001094855012
0.0001092504148
0.0001090176678
0.0001190692296
0.0001190578315
0.0001190327562
0.0001189934003
0.0001189421712
0.0001188798661
0.0001188071639
0.0001187247782
0.0001186333605
0.0001185283652
0.0001184117179
0.0001182820356
0.0001181401979
0.0001179912764
0.0001178357042
0.000117662913
0.0001174845276
0.0001172927528
0.000117092434
0.0001168818904
0.0001166611447
0.0001164325163
0.000116202391
0.0001159524802
0.000115701779
0.0001154461152
0.0001151821033
0.0001149142646
0.0001146397502
0.0001143625816
0.0001140807662
0.0001137971481
0.0001135178566
0.0001132333049
0.0001129471616
0.0001126588567
0.0001123769327
0.0001120976506
0.0001118177204
0.000111545043
0.000111269431
0.0001110009547
0.0001107401692
0.0001104820456
0.0001102267864
0.0001099732052
0.0001097241298
0.0001094827225
0.0001092487741
0.0001090171095
0.0001190505435
0.0001190390223
0.0001190123906
0.0001189730412
0.0001189218302
0.0001188595546
0.0001187868952
0.0001187045408
0.0001186131826
0.0001185065704
0.0001183900143
0.0001182587644
0.0001181170617
0.0001179683006
0.0001178112956
0.0001176387376
0.0001174606217
0.0001172675763
0.0001170676502
0.0001168559935
0.0001166357876
0.0001164062576
0.0001161753913
0.0001159276651
0.0001156764372
0.0001154216971
0.0001151574227
0.0001148906793
0.0001146161622
0.0001143402414
0.0001140586631
0.0001137764087
0.0001134984714
0.0001132144512
0.0001129289332
0.0001126420714
0.0001123615791
0.0001120830809
0.0001118045518
0.0001115332332
0.0001112585173
0.0001109913629
0.000110731855
0.0001104746853
0.0001102206649
0.0001099680929
0.0001097202191
0.000109479974
0.0001092471512
0.0001090165572
0.0001190310864
0.0001190186641
0.0001189920371
0.0001189526955
0.0001189015186
0.0001188392602
0.0001187666459
0.000118684346
0.0001185928546
0.0001184848075
0.0001183683474
0.0001182355388
0.0001180939806
0.0001179454086
0.0001177869616
0.0001176146478
0.0001174368138
0.0001172425315
0.0001170429999
0.0001168302567
0.0001166106051
0.0001163802002
0.0001161486193
0.000115903078
0.0001156513517
0.0001153975385
0.0001151330283
0.0001148673724
0.0001145928784
0.0001143181826
0.0001140368564
0.0001137559382
0.0001134793382
0.0001131958414
0.000112910938
0.0001126254973
0.0001123464148
0.0001120686866
0.0001117915378
0.0001115211726
0.0001112477248
0.0001109818753
0.0001107236293
0.0001104674019
0.0001102146066
0.0001099630327
0.000109716348
0.0001094772533
0.0001092455447
0.0001090160105
0.0001190107377
0.0001189983179
0.0001189716964
0.0001189323639
0.0001188812228
0.0001188189837
0.0001187464173
0.0001186641751
0.0001185710627
0.0001184630906
0.0001183461041
0.0001182123743
0.0001180709763
0.0001179225809
0.0001177627057
0.0001175906471
0.0001174122504
0.0001172176078
0.000117018485
0.0001168047028
0.0001165855965
0.0001163545878
0.000116122071
0.0001158787134
0.0001156265098
0.0001153736295
0.0001151088994
0.00011484433
0.0001145698678
0.0001142963888
0.0001140153242
0.0001137357193
0.00011346044
0.0001131774586
0.0001128931594
0.0001126091317
0.0001123314261
0.000112054455
0.0001117786672
0.0001115091611
0.000111237045
0.0001109724844
0.0001107154858
0.0001104601902
0.000110208607
0.0001099580212
0.0001097125139
0.0001094745584
0.0001092439535
0.0001090154689
0.0001189904012
0.0001189779843
0.0001189513691
0.0001189120657
0.0001188609438
0.0001187987461
0.0001187262105
0.0001186440291
0.0001185493018
0.0001184414198
0.0001183228668
0.0001181892701
0.0001180480298
0.0001178998195
0.0001177385309
0.0001175667387
0.0001173870788
0.0001171928072
0.0001169941069
0.0001167793082
0.0001165607604
0.0001163303958
0.0001160957432
0.0001158537745
0.0001156019042
0.0001153497731
0.0001150850248
0.0001148215401
0.0001145471166
0.0001142748459
0.0001139940431
0.0001137157374
0.0001134409547
0.0001131592879
0.0001128755834
0.0001125929527
0.0001123166015
0.0001120403755
0.0001117659308
0.0001114972716
0.000111226471
0.0001109631845
0.0001107074197
0.0001104530459
0.0001102026629
0.0001099530555
0.0001097087147
0.0001094718881
0.0001092423767
0.0001090149323
0.0001189700776
0.0001189576639
0.0001189310561
0.0001188917869
0.0001188406823
0.0001187785299
0.0001187060268
0.0001186239094
0.0001185275734
0.0001184197863
0.0001182996756
0.0001181662186
0.0001180251438
0.0001178771272
0.0001177144402
0.0001175429455
0.0001173620204
0.0001171681324
0.0001169687924
0.0001167540729
0.0001165360963
0.0001163063871
0.000116069632
0.0001158285136
0.0001155775285
0.0001153251054
0.0001150613947
0.000114798299
0.0001145246123
0.0001142535411
0.0001139729998
0.0001136959793
0.0001134216449
0.0001131413177
0.0001128581984
0.0001125769462
0.0001123019317
0.0001120264395
0.0001117533209
0.0001114854974
0.0001112159973
0.000110953971
0.000110699427
0.0001104459657
0.0001101967715
0.0001099481335
0.0001097049487
0.000109469241
0.0001092408136
0.0001090144004
0.0001189497674
0.0001189373575
0.000118910778
0.0001188715245
0.0001188204392
0.0001187583346
0.0001186858888
0.000118603817
0.0001185058792
0.0001183981919
0.0001182765326
0.0001181432221
0.0001180023207
0.0001178545063
0.0001176904472
0.0001175192527
0.0001173370774
0.0001171435852
0.0001169431896
0.0001167289974
0.0001165109733
0.0001162825595
0.000116043733
0.0001158034718
0.0001155533765
0.0001153006747
0.0001150380006
0.0001147748667
0.0001145023448
0.0001142317745
0.0001139521823
0.0001136764338
0.0001134025418
0.0001131235377
0.0001128409947
0.0001125611037
0.0001122874088
0.00011201264
0.0001117408428
0.0001114738333
0.0001112056193
0.00011094484
0.0001106915048
0.000110438947
0.0001101909307
0.0001099432535
0.0001097012148
0.0001094666164
0.0001092392637
0.000109013873
0.0001189294714
0.0001189170787
0.0001188905179
0.0001188512793
0.0001188002337
0.0001187381612
0.0001186657759
0.0001185828093
0.0001184842203
0.0001183766382
0.0001182534397
0.000118120283
0.0001179795628
0.0001178314688
0.0001176665567
0.0001174956591
0.0001173122518
0.0001171191813
0.0001169177357
0.0001167040821
0.0001164852247
0.0001162589101
0.0001160187941
0.0001157786447
0.0001155294423
0.0001152764742
0.0001150148347
0.0001147516693
0.0001144803048
0.0001142099215
0.000113931581
0.0001136570913
0.0001133836359
0.0001131059394
0.0001128239752
0.0001125454176
0.0001122730265
0.0001119989712
0.0001117284812
0.0001114622749
0.0001111953335
0.0001109357886
0.0001106836506
0.0001104319878
0.000110185139
0.0001099384142
0.0001096975118
0.0001094640134
0.0001092377267
0.0001090133499
0.0001189092119
0.0001188968244
0.0001188702742
0.0001188310521
0.0001187800514
0.0001187180108
0.0001186456892
0.0001185611162
0.0001184626111
0.0001183551267
0.0001182303989
0.0001180974033
0.0001179568836
0.0001178073996
0.0001176427569
0.0001174721664
0.0001172875451
0.000117094918
0.0001168924309
0.0001166793264
0.0001164596549
0.0001162354371
0.0001159946922
0.0001157540277
0.0001155057396
0.0001152524973
0.0001149918908
0.0001147286987
0.0001144584842
0.0001141882882
0.0001139111876
0.0001136379619
0.0001133649193
0.0001130885154
0.0001128071272
0.0001125298821
0.0001122587796
0.0001119854283
0.0001117162312
0.0001114508188
0.000111185137
0.0001109268146
0.0001106758626
0.0001104250865
0.000110179395
0.0001099336146
0.000109693839
0.0001094614317
0.0001092362022
0.0001090128311
0.0001188889685
0.0001188765862
0.0001188500476
0.0001188108509
0.0001187598901
0.0001186978934
0.0001186256298
0.0001185394567
0.0001184410504
0.0001183320458
0.0001182074299
0.0001180746077
0.0001179342861
0.0001177834137
0.0001176190497
0.0001174487763
0.000117262975
0.0001170707852
0.0001168672757
0.000116654751
0.0001164342625
0.0001162121388
0.0001159707811
0.0001157296166
0.0001154822486
0.0001152287381
0.0001149691829
0.000114705948
0.0001144368756
0.000114166867
0.0001138909948
0.0001136190216
0.0001133463853
0.0001130712595
0.0001127904397
0.000112514492
0.0001122446636
0.0001119720095
0.0001117040896
0.0001114394622
0.0001111750276
0.0001109179161
0.0001106681392
0.000110418242
0.0001101736979
0.0001099288539
0.000109690196
0.0001094588709
0.00010923469
0.0001090123165
0.0001188687413
0.0001188563648
0.0001188298389
0.0001187906834
0.0001187397509
0.0001186778138
0.0001186055986
0.0001185178322
0.0001184195295
0.0001183089863
0.0001181845212
0.000118051876
0.0001179117596
0.0001177595129
0.000117595437
0.0001174254567
0.0001172385343
0.0001170467838
0.0001168422701
0.0001166303365
0.0001164090472
0.0001161871945
0.0001159470571
0.0001157054068
0.0001154589601
0.0001152051912
0.0001149466836
0.0001146834107
0.0001144154921
0.0001141456515
0.0001138709964
0.0001136002632
0.0001133280282
0.0001130541667
0.0001127739076
0.0001124992432
0.0001122306751
0.0001119587213
0.0001116920538
0.000111428203
0.0001111650036
0.0001109090917
0.0001106604795
0.0001104114533
0.0001101680469
0.0001099241316
0.0001096865822
0.0001094563306
0.00010923319
0.000109011806
0.000118848531
0.0001188361609
0.0001188096573
0.0001187705365
0.0001187196345
0.00011865776
0.0001185848054
0.0001184962438
0.0001183980499
0.0001182859773
0.0001181616698
0.0001180292089
0.0001178893057
0.0001177356989
0.0001175719208
0.0001174007362
0.0001172142154
0.0001170229141
0.0001168174286
0.0001166060803
0.0001163840075
0.000116161521
0.0001159235174
0.0001156814092
0.0001154358697
0.0001151818515
0.0001149243877
0.0001146610812
0.0001143943099
0.0001141246358
0.0001138511883
0.0001135816817
0.0001133098433
0.0001130367126
0.0001127575268
0.0001124841321
0.0001122168109
0.0001119455494
0.0001116801218
0.0001114170394
0.0001111550635
0.0001109003403
0.0001106528825
0.0001104047198
0.0001101624417
0.0001099194473
0.0001096829975
0.0001094538106
0.0001092317019
0.0001090112996
0.0001188283385
0.0001188159769
0.0001187895081
0.000118750411
0.0001186995494
0.0001186377331
0.0001185631799
0.000118474693
0.0001183766128
0.0001182630203
0.0001181388771
0.0001180066081
0.000117866926
0.0001177119734
0.000117548517
0.0001173761292
0.0001171900193
0.0001169991764
0.0001167927467
0.0001165819813
0.0001163591414
0.0001161360361
0.0001159001599
0.0001156576138
0.0001154129735
0.0001151587279
0.0001149022903
0.0001146389543
0.0001143733225
0.0001141038148
0.0001138315812
0.0001135632726
0.0001132918263
0.0001130192039
0.0001127412938
0.0001124691556
0.0001122030687
0.0001119324917
0.0001116682918
0.00011140597
0.0001111452064
0.0001108916612
0.0001106453476
0.000110398041
0.0001101568817
0.0001099148007
0.0001096794415
0.0001094513109
0.0001092302258
0.0001090107973
0.0001188081743
0.0001187958315
0.0001187693792
0.0001187303077
0.0001186795037
0.0001186177341
0.0001185415885
0.000118453203
0.0001183552194
0.0001182401167
0.0001181161447
0.0001179840749
0.0001178446218
0.0001176883509
0.0001175252201
0.0001173516367
0.0001171659471
0.0001169748521
0.0001167682131
0.000116558038
0.0001163358328
0.0001161107383
0.0001158769821
0.0001156340094
0.000115390268
0.0001151358109
0.0001148803872
0.0001146170322
0.0001143525253
0.0001140831839
0.0001138121536
0.000113545032
0.0001132739734
0.0001130018534
0.000112725206
0.0001124543117
0.0001121891907
0.0001119195465
0.0001116565626
0.0001113949938
0.0001111354314
0.0001108830537
0.0001106378745
0.0001103914166
0.0001101513668
0.0001099101917
0.0001096759143
0.0001094488314
0.0001092287616
0.000109010299
0.0001169499161
0.0001167438275
0.0001165342496
0.0001163127136
0.0001160856255
0.0001158531577
0.0001156105929
0.0001153677498
0.0001151130885
0.0001148586743
0.0001145953184
0.0001143319142
0.0001140627391
0.0001137929018
0.0001135269563
0.0001132562814
0.0001129846583
0.0001127092612
0.0001124395984
0.0001121751233
0.0001119067123
0.0001116449329
0.0001113841099
0.0001111257379
0.0001108745175
0.0001106304629
0.0001103848464
0.0001101458968
0.0001099056202
0.0001096724157
0.0001094463719
0.0001092273093
0.0001090098048
)
;

boundaryField
{
    front_top
    {
        type            wedge;
    }
    front_middle
    {
        type            wedge;
    }
    front_bottom
    {
        type            wedge;
    }
    back_top
    {
        type            wedge;
    }
    back_middle
    {
        type            wedge;
    }
    back_bottom
    {
        type            wedge;
    }
    axis_top
    {
        type            symmetryPlane;
    }
    axis_middle
    {
        type            symmetryPlane;
    }
    axis_bottom
    {
        type            symmetryPlane;
    }
    wall_top
    {
        type            calculated;
        value           nonuniform 0();
    }
    wall_middle
    {
        type            calculated;
        value           nonuniform 0();
    }
    wall_bottom
    {
        type            calculated;
        value           uniform 0.0001089022317;
    }
    inlet
    {
        type            calculated;
        value           nonuniform 0();
    }
    outlet
    {
        type            calculated;
        value           nonuniform 0();
    }
    procBoundary1to0
    {
        type            processor;
        value           nonuniform List<scalar> 
51
(
0.0001187880407
0.000118775706
0.0001187492715
0.0001187102275
0.0001186594836
0.000118597764
0.0001185200322
0.000118431753
0.000118332274
0.0001182172759
0.0001180934772
0.0001179616173
0.000117821224
0.0001176648304
0.0001175020227
0.0001173272597
0.0001171419992
0.0001171419992
0.0001169251207
0.0001167195896
0.0001165099272
0.0001162897534
0.0001160606952
0.0001158290674
0.0001155873614
0.0001153449888
0.0001150905568
0.000114837148
0.0001145737945
0.0001143114856
0.0001140424837
0.0001137738224
0.0001135090426
0.0001132387624
0.000112967616
0.0001126934571
0.0001124250139
0.0001121611778
0.0001118939882
0.000111633402
0.0001113733178
0.0001111161255
0.0001108660522
0.0001106231125
0.0001103783303
0.0001101404718
0.0001099010861
0.0001096689457
0.0001094439326
0.0001092258689
0.0001090093146
)
;
    }
    procBoundary1to2
    {
        type            processor;
        value           nonuniform List<scalar> 
51
(
0.0001192566354
0.0001192452151
0.0001192207575
0.0001191846097
0.0001191375452
0.0001190802865
0.0001190109678
0.0001189282305
0.0001188363813
0.0001187360168
0.0001186277474
0.0001185051874
0.0001183725623
0.0001182237699
0.0001180669676
0.0001179041212
0.0001177283664
0.0001175426548
0.0001173473085
0.0001171396862
0.000116924595
0.0001166964101
0.0001164620518
0.000116223079
0.0001159662608
0.0001157078717
0.0001154436016
0.0001151702414
0.0001148930686
0.0001146075705
0.0001143204732
0.0001140262498
0.0001137324264
0.0001134424
0.0001131234263
0.0001131234263
0.0001128240737
0.0001125280404
0.0001122389251
0.0001119468295
0.0001116606208
0.0001113761193
0.0001110945127
0.0001108211192
0.0001105536134
0.0001102862462
0.0001100228256
0.0001097620685
0.0001095093788
0.0001092645119
0.0001090224652
)
;
    }
}


// ************************************************************************* //
