/*--------------------------------*- C++ -*----------------------------------*\
  =========                 |
  \\      /  F ield         | OpenFOAM: The Open Source CFD Toolbox
   \\    /   O peration     | Website:  https://openfoam.org
    \\  /    A nd           | Version:  7
     \\/     M anipulation  |
\*---------------------------------------------------------------------------*/
FoamFile
{
    version     2.0;
    format      ascii;
    class       volVectorField;
    location    "0.0024";
    object      U;
}
// * * * * * * * * * * * * * * * * * * * * * * * * * * * * * * * * * * * * * //

dimensions      [0 1 -1 0 0 0 0];

internalField   nonuniform List<vector> 
1167
(
(-1.158475335e-06 -2.092923597e-18 -0.04989895707)
(-3.017111014e-06 -3.554224262e-18 -0.04989788172)
(-4.75067393e-06 -4.909042068e-18 -0.04989554501)
(-6.521575086e-06 -7.520712828e-18 -0.0498919307)
(-8.279867941e-06 -4.717929124e-18 -0.04988690306)
(-1.004627928e-05 -6.815876014e-18 -0.0498802362)
(-1.187589167e-05 -7.556780539e-18 -0.04987160821)
(-1.384071727e-05 -1.071692749e-17 -0.04986060667)
(-1.601953438e-05 -1.330783979e-17 -0.04984673624)
(-1.849492749e-05 -1.341215038e-17 -0.04982942691)
(-2.134928438e-05 -1.501528597e-17 -0.04980803501)
(-2.466072117e-05 -1.621770159e-17 -0.04978183541)
(-2.850160933e-05 -1.742444872e-17 -0.04975000827)
(-3.293782289e-05 -1.904347141e-17 -0.04971162238)
(-3.802738035e-05 -1.930877082e-17 -0.04966561606)
(-4.381977613e-05 -2.008880596e-17 -0.04961077432)
(-5.035529952e-05 -2.122653158e-17 -0.04954570295)
(-5.766147603e-05 -2.117579927e-17 -0.04946879983)
(-6.574899207e-05 -2.128971908e-17 -0.04937822287)
(-7.461080712e-05 -2.147156486e-17 -0.04927184941)
(-8.421752709e-05 -2.165496986e-17 -0.0491472321)
(-9.451315786e-05 -2.180097397e-17 -0.04900154811)
(-0.0001054122981 -2.187400338e-17 -0.04883153911)
(-0.0001167955837 -2.185292848e-17 -0.04863344634)
(-0.0001285064927 -2.171954326e-17 -0.04840293585)
(-0.0001403492784 -2.144269345e-17 -0.04813501928)
(-0.000152087392 -2.09445562e-17 -0.04782396772)
(-0.0001634449422 -2.095381166e-17 -0.04746322676)
(-0.0001741099174 -2.079524769e-17 -0.04704533119)
(-0.0001837416716 -2.0982326e-17 -0.04656182978)
(-0.000191981122 -2.072476436e-17 -0.04600322358)
(-0.0001984653804 -2.043759193e-17 -0.04535892683)
(-0.0002028450112 -2.009715431e-17 -0.04461725537)
(-0.0002048047721 -1.969585862e-17 -0.04376545034)
(-1.332465626e-06 -1.384629521e-18 -0.04991232822)
(-3.471008057e-06 -1.717745221e-18 -0.04991123436)
(-5.467096288e-06 -3.337159435e-18 -0.04990886164)
(-7.504212885e-06 -4.951921147e-18 -0.04990521784)
(-9.51382876e-06 -5.976009382e-18 -0.04990019838)
(-1.150288418e-05 -7.370135207e-18 -0.04989361949)
(-1.351271005e-05 -9.110097239e-18 -0.0498852036)
(-1.560229403e-05 -1.084083454e-17 -0.04987457976)
(-1.784186046e-05 -1.239919121e-17 -0.04986128392)
(-2.030753056e-05 -1.361227388e-17 -0.04984476444)
(-2.307730701e-05 -1.471385734e-17 -0.04982438549)
(-2.622701125e-05 -1.555949836e-17 -0.04979942346)
(-2.982718766e-05 -1.643464734e-17 -0.04976905624)
(-3.394127249e-05 -1.727792371e-17 -0.0497323471)
(-3.862510434e-05 -1.808839133e-17 -0.04968822457)
(-4.392659348e-05 -1.882057666e-17 -0.04963545838)
(-4.988418274e-05 -1.952243928e-17 -0.04957263253)
(-5.652257848e-05 -2.007318243e-17 -0.04949811562)
(-6.385086346e-05 -2.058087846e-17 -0.04941002514)
(-7.186195886e-05 -2.102409065e-17 -0.049306186)
(-8.052661874e-05 -2.139599672e-17 -0.0491840855)
(-8.979103143e-05 -2.168786457e-17 -0.04904081955)
(-9.957323254e-05 -2.189469253e-17 -0.04887303316)
(-0.0001097596694 -2.201138952e-17 -0.04867685425)
(-0.0001202024162 -2.203517137e-17 -0.04844782072)
(-0.0001307178667 -2.195832376e-17 -0.048180803)
(-0.000141086219 -2.178609307e-17 -0.04786992319)
(-0.0001510532022 -2.156285775e-17 -0.04750847574)
(-0.0001603344625 -2.127094866e-17 -0.0470888522)
(-0.000168623086 -2.092626294e-17 -0.04660247616)
(-0.0001755997811 -2.079149031e-17 -0.04603975526)
(-0.0001809466329 -2.059088871e-17 -0.04539005453)
(-0.0001843627622 -2.031256886e-17 -0.04464169806)
(-0.0001855825735 -1.994881041e-17 -0.04378200241)
(-0.0001843933848 -1.950367468e-17 -0.04279734376)
(-0.000180653304 -1.898109659e-17 -0.04167325434)
(-0.0001743055874 -1.837064431e-17 -0.04039455398)
(-0.0001653904848 -1.765765186e-17 -0.03894550419)
(-0.0001540529676 -1.681585693e-17 -0.03730998143)
(-0.0001405439099 -1.585308058e-17 -0.03547166257)
(-0.0001252175391 -1.477773584e-17 -0.03341420825)
(-0.0001085239601 -1.35997058e-17 -0.03112144597)
(-9.099806244e-05 -1.231958256e-17 -0.0285775468)
(-7.324441824e-05 -1.094453759e-17 -0.02576718199)
(-5.591981173e-05 -9.479310677e-18 -0.0226756547)
(-3.970997746e-05 -6.158875148e-18 -0.01928900969)
(-2.530976691e-05 -6.307518677e-18 -0.01559411532)
(-1.345954855e-05 -4.606935678e-18 -0.01157870259)
(-5.067638147e-06 -2.830086173e-18 -0.007231312322)
(-9.023316238e-07 -9.728913085e-19 -0.002540971473)
(-1.47960231e-06 2.213248471e-18 -0.04992659139)
(-3.855254588e-06 9.948755307e-18 -0.04992547868)
(-6.075117839e-06 5.861023318e-19 -0.04992306649)
(-8.341650522e-06 -3.269900398e-18 -0.04991938074)
(-1.057197951e-05 -5.05485617e-18 -0.04991434038)
(-1.276305347e-05 -5.77913659e-18 -0.04990779399)
(-1.494486183e-05 -1.003329627e-17 -0.04989950342)
(-1.716349432e-05 -1.109237542e-17 -0.04988913717)
(-1.947901952e-05 -1.241734969e-17 -0.04987626632)
(-2.195967979e-05 -1.375633476e-17 -0.04986036414)
(-2.467798631e-05 -1.519782877e-17 -0.04984080828)
(-2.770599579e-05 -1.465462545e-17 -0.04981687966)
(-3.111186417e-05 -1.578130366e-17 -0.04978775457)
(-3.49574449e-05 -1.629030697e-17 -0.04975249014)
(-3.929717167e-05 -1.781245114e-17 -0.04971000414)
(-4.41776282e-05 -1.899638301e-17 -0.04965905051)
(-4.963461339e-05 -1.859024083e-17 -0.04959819183)
(-5.569037935e-05 -1.884780381e-17 -0.0495257678)
(-6.235379545e-05 -1.983990886e-17 -0.04943985646)
(-6.96168026e-05 -2.057226525e-17 -0.04933823243)
(-7.745022342e-05 -2.118018432e-17 -0.04921832021)
(-8.580219698e-05 -2.164926393e-17 -0.04907713873)
(-9.459408304e-05 -2.199690067e-17 -0.04891124223)
(-0.0001037181231 -2.227822394e-17 -0.04871665306)
(-0.0001130349069 -2.244466484e-17 -0.04848879128)
(-0.0001223727227 -2.244301499e-17 -0.04822239907)
(-0.0001315279785 -2.22860874e-17 -0.04791146573)
(-0.0001402671461 -2.195914316e-17 -0.04754915373)
(-0.0001483320154 -2.142891642e-17 -0.0471277329)
(-0.0001554468405 -2.110169985e-17 -0.04663852475)
(-0.0001613285974 -2.078230578e-17 -0.04607186619)
(-0.0001656993241 -2.07461869e-17 -0.04541709305)
(-0.0001683004668 -2.053603617e-17 -0.04466255228)
(-0.0001689085194 -2.015147548e-17 -0.04379564228)
(-0.0001673498994 -1.957168553e-17 -0.04280288492)
(-0.0001635159418 -1.929904255e-17 -0.04167002134)
(-0.0001573739746 -1.887667259e-17 -0.04038214001)
(-0.0001489765297 -1.839214294e-17 -0.03892382145)
(-0.0001384667499 -1.738296498e-17 -0.0372793028)
(-0.0001260785062 -1.631003562e-17 -0.0354326473)
(-0.0001121334889 -1.514360039e-17 -0.0333679122)
(-9.703447994e-05 -1.38666637e-17 -0.03106931913)
(-8.125528221e-05 -1.243654871e-17 -0.0285214165)
(-6.53282079e-05 -1.092757388e-17 -0.02570922194)
(-4.982920139e-05 -9.256430318e-18 -0.02261834337)
(-3.535832779e-05 -7.438261487e-18 -0.01923508323)
(-2.252324375e-05 -5.947637719e-18 -0.01554651524)
(-1.197273317e-05 -4.362637006e-18 -0.01154052167)
(-4.506638249e-06 -2.671190635e-18 -0.007205743998)
(-8.022578712e-07 -9.167447909e-19 -0.002531278485)
(-1.601855684e-06 -2.066672405e-18 -0.04994160346)
(-4.174798519e-06 -3.649400702e-18 -0.04994047258)
(-6.58221671e-06 -4.570478045e-18 -0.04993802107)
(-9.041839273e-06 -5.768640883e-18 -0.04993428884)
(-1.146030767e-05 -6.804416445e-18 -0.04992921226)
(-1.382797448e-05 -7.51721297e-18 -0.04992266386)
(-1.616684189e-05 -7.550713642e-18 -0.04991443851)
(-1.851143935e-05 -1.027357212e-17 -0.04990424022)
(-2.091046179e-05 -1.222229069e-17 -0.04989167524)
(-2.342360115e-05 -1.361529224e-17 -0.04987624562)
(-2.611648833e-05 -1.498644843e-17 -0.04985734782)
(-2.905644045e-05 -1.631042704e-17 -0.04983427142)
(-3.230864171e-05 -1.780440078e-17 -0.04980619323)
(-3.59330507e-05 -1.9486408e-17 -0.04977216464)
(-3.998296137e-05 -1.97846654e-17 -0.04973109247)
(-4.450323872e-05 -2.021309548e-17 -0.04968171485)
(-4.952697094e-05 -2.054332201e-17 -0.04962257324)
(-5.507507134e-05 -2.061265554e-17 -0.04955197776)
(-6.115599928e-05 -2.02306787e-17 -0.04946796801)
(-6.77606587e-05 -2.051623244e-17 -0.04936827076)
(-7.48604942e-05 -2.141692321e-17 -0.04925025023)
(-8.240518987e-05 -2.19099267e-17 -0.04911085279)
(-9.031945021e-05 -2.202935344e-17 -0.04894654721)
(-9.850115381e-05 -2.27991605e-17 -0.04875325817)
(-0.0001068192201 -2.345984854e-17 -0.04852629771)
(-0.0001151134713 -2.335176098e-17 -0.04826029245)
(-0.0001231958134 -2.320354141e-17 -0.04794911383)
(-0.0001308525019 -2.295998042e-17 -0.04758580989)
(-0.0001378496888 -2.257837738e-17 -0.0471625477)
(-0.0001439403066 -2.202077866e-17 -0.04667056644)
(-0.00014887398 -2.1647018e-17 -0.04610015039)
(-0.0001524080303 -2.167479841e-17 -0.04544062187)
(-0.0001543205946 -2.149451119e-17 -0.04468036026)
(-0.0001544236015 -2.112787985e-17 -0.04380684877)
(-0.0001525756456 -2.092254764e-17 -0.04280674755)
(-0.0001486943898 -2.020619797e-17 -0.04166599011)
(-0.0001427651929 -1.936887078e-17 -0.04036990626)
(-0.0001348484718 -1.83971026e-17 -0.03890335869)
(-0.0001250829365 -1.782147859e-17 -0.03725089954)
(-0.0001136854863 -1.716201943e-17 -0.03539692656)
(-0.0001009481331 -1.647593678e-17 -0.03332583912)
(-8.723207641e-05 -1.511524802e-17 -0.03102219838)
(-7.295846609e-05 -1.236670369e-17 -0.02847087641)
(-5.859815835e-05 -1.173997537e-17 -0.02565718774)
(-4.465894894e-05 -9.558512115e-18 -0.0225670043)
(-3.166912906e-05 -7.696177858e-18 -0.01918685325)
(-2.016361624e-05 -5.82718762e-18 -0.01550399003)
(-1.071493843e-05 -3.83918186e-18 -0.01150643443)
(-4.032498458e-06 -2.251117655e-18 -0.007182924357)
(-7.177621131e-07 -5.863126832e-19 -0.002522627787)
(-1.701215989e-06 -6.918366648e-18 -0.04995723124)
(-4.434942307e-06 -1.988484398e-17 -0.04995608335)
(-6.995784589e-06 -1.537211724e-17 -0.04995359467)
(-9.613799425e-06 -1.053873412e-17 -0.0499498166)
(-1.218901781e-05 -1.004166196e-17 -0.04994469727)
(-1.470679541e-05 -1.168038084e-17 -0.04993812714)
(-1.718300261e-05 -9.955351945e-18 -0.04992992723)
(-1.964370495e-05 -1.195490224e-17 -0.04991983292)
(-2.21267125e-05 -1.391717497e-17 -0.04990748257)
(-2.468255061e-05 -1.332719798e-17 -0.04989240806)
(-2.736937645e-05 -1.458247102e-17 -0.04987402843)
(-3.024865604e-05 -1.736691874e-17 -0.04985164614)
(-3.338161649e-05 -1.82225644e-17 -0.04982444151)
(-3.68259933e-05 -1.934144891e-17 -0.04979146171)
(-4.063339225e-05 -2.034770989e-17 -0.04975160329)
(-4.484605662e-05 -2.114181825e-17 -0.0497035892)
(-4.949534214e-05 -2.280903797e-17 -0.04964593917)
(-5.460205771e-05 -2.356225265e-17 -0.04957693391)
(-6.017316935e-05 -2.346901712e-17 -0.04949457583)
(-6.61985689e-05 -2.356233052e-17 -0.0493965453)
(-7.265089312e-05 -2.370948077e-17 -0.04928014896)
(-7.948135965e-05 -2.390654232e-17 -0.04914226501)
(-8.661812188e-05 -2.405387323e-17 -0.04897928227)
(-9.396446678e-05 -2.404634501e-17 -0.04878703557)
(-0.0001013973983 -2.400767629e-17 -0.04856073818)
(-0.0001087679133 -2.408392336e-17 -0.0482949132)
(-0.0001159025983 -2.413875952e-17 -0.0479833277)
(-0.0001226064039 -2.420994536e-17 -0.04761893114)
(-0.0001286679153 -2.435882603e-17 -0.04719380409)
(-0.000133866279 -2.470004847e-17 -0.04669912001)
(-0.0001379802254 -2.517986139e-17 -0.04612512531)
(-0.000140798092 -2.401484042e-17 -0.04546114029)
(-0.0001421294937 -2.358351847e-17 -0.04469558342)
(-0.0001418162199 -2.403474882e-17 -0.04381602251)
(-0.0001397435068 -2.257485758e-17 -0.04280924773)
(-0.0001358496344 -2.138733658e-17 -0.04166136857)
(-0.0001301332935 -2.022915117e-17 -0.04035793094)
(-0.0001226595033 -1.902354288e-17 -0.03888404792)
(-0.00011356117 -1.825999641e-17 -0.03722454768)
(-0.0001030388817 -1.742291609e-17 -0.03536411849)
(-9.13578729e-05 -1.652174931e-17 -0.03328745706)
(-7.884277126e-05 -1.553044443e-17 -0.03097941876)
(-6.586946513e-05 -1.377782017e-17 -0.02842515591)
(-5.285641382e-05 -1.182493844e-17 -0.02561024059)
(-4.025381872e-05 -9.773992384e-18 -0.02252077518)
(-2.852959058e-05 -7.614780159e-18 -0.01914348491)
(-1.815766603e-05 -5.785305667e-18 -0.0154657878)
(-9.646718978e-06 -3.816848972e-18 -0.01147582988)
(-3.630261654e-06 -2.785771101e-18 -0.007162441451)
(-6.462047356e-07 -6.023941555e-19 -0.002514863014)
(-1.780193385e-06 9.260901899e-18 -0.04997335206)
(-4.641545514e-06 -1.688007639e-18 -0.04997218892)
(-7.323593214e-06 -2.550378773e-18 -0.04996966689)
(-1.006769376e-05 -6.225841981e-18 -0.04996584608)
(-1.276990087e-05 -6.885509409e-18 -0.04996068283)
(-1.541127962e-05 -1.079554174e-17 -0.04995408171)
(-1.800269859e-05 -1.359263375e-17 -0.04994588304)
(-2.056492502e-05 -1.320631628e-17 -0.04993584851)
(-2.312704699e-05 -1.298945753e-17 -0.04992364535)
(-2.572970546e-05 -1.56628657e-17 -0.04990883381)
(-2.842309239e-05 -1.590135448e-17 -0.04989085703)
(-3.126251753e-05 -1.630470524e-17 -0.04986903353)
(-3.43046762e-05 -1.624060265e-17 -0.04984255041)
(-3.760400032e-05 -1.735043365e-17 -0.04981045316)
(-4.120894288e-05 -1.948134102e-17 -0.04977162986)
(-4.51595383e-05 -2.14895785e-17 -0.04972478851)
(-4.948643144e-05 -2.225719356e-17 -0.04966842679)
(-5.420967833e-05 -2.324753704e-17 -0.04960079671)
(-5.933470141e-05 -2.454244133e-17 -0.04951986509)
(-6.485135233e-05 -2.515623344e-17 -0.04942326706)
(-7.073283698e-05 -2.517281073e-17 -0.0493082545)
(-7.693183993e-05 -2.567737165e-17 -0.04917164144)
(-8.338018867e-05 -2.563613494e-17 -0.04900974223)
(-8.99864927e-05 -2.493754865e-17 -0.04881830917)
(-9.663570683e-05 -2.429951588e-17 -0.04859246578)
(-0.0001031895692 -2.436923584e-17 -0.0483266426)
(-0.0001094885756 -2.438067429e-17 -0.04801451482)
(-0.0001153550399 -2.436963851e-17 -0.04764894715)
(-0.0001205981543 -2.434866404e-17 -0.04722194792)
(-0.000125020665 -2.432094215e-17 -0.04672463851)
(-0.0001284271718 -2.41577732e-17 -0.04614723921)
(-0.0001306330405 -2.360408388e-17 -0.04547907677)
(-0.0001314748073 -2.30330092e-17 -0.04470861255)
(-0.0001308194087 -2.240358978e-17 -0.04382349691)
(-0.0001285739292 -2.170281179e-17 -0.04281064194)
(-0.0001246929848 -2.088035073e-17 -0.04165631724)
(-0.0001191850849 -1.998261648e-17 -0.04034626172)
(-0.0001121173782 -1.903808323e-17 -0.03886581107)
(-0.0001036163029 -1.808774856e-17 -0.03720003643)
(-9.386710449e-05 -1.689704211e-17 -0.03533388035)
(-8.311103017e-05 -1.563195729e-17 -0.03325229913)
(-7.164069074e-05 -1.444243644e-17 -0.03094040486)
(-5.979293314e-05 -1.301740823e-17 -0.0283835945)
(-4.794145608e-05 -1.141393367e-17 -0.02556766568)
(-3.648759704e-05 -9.765734969e-18 -0.02247892397)
(-2.584827395e-05 -8.011227448e-18 -0.01910427098)
(-1.644608498e-05 -6.273928929e-18 -0.01543127188)
(-8.736006313e-06 -4.518326797e-18 -0.01144818982)
(-3.287617579e-06 -2.736118806e-18 -0.007143944478)
(-5.853128348e-07 -9.342259185e-19 -0.002507849848)
(-1.84026156e-06 -2.936859087e-18 -0.04998985473)
(-4.79846537e-06 -4.85431588e-18 -0.04998867893)
(-7.57274766e-06 -4.12404456e-18 -0.04998612833)
(-1.041413056e-05 -8.223565044e-18 -0.04998226942)
(-1.321505641e-05 -1.075704862e-17 -0.04997706467)
(-1.595418517e-05 -1.228312971e-17 -0.04997042971)
(-1.863904963e-05 -1.331103683e-17 -0.0499622189)
(-2.128568952e-05 -1.346998503e-17 -0.04995221481)
(-2.391704813e-05 -1.33320817e-17 -0.04994011003)
(-2.656550199e-05 -1.600329748e-17 -0.04992549092)
(-2.927288822e-05 -1.638055964e-17 -0.04990782419)
(-3.208771734e-05 -1.697950055e-17 -0.04988644621)
(-3.506120954e-05 -1.772417371e-17 -0.04986055372)
(-3.824328974e-05 -1.875664915e-17 -0.04982919352)
(-4.167922212e-05 -1.897908301e-17 -0.04979124689)
(-4.540733264e-05 -1.950485311e-17 -0.04974540731)
(-4.945753617e-05 -2.034453628e-17 -0.04969015115)
(-5.38480497e-05 -2.131099694e-17 -0.04962370286)
(-5.858292902e-05 -2.221437022e-17 -0.04954399453)
(-6.365286469e-05 -2.291314157e-17 -0.04944861783)
(-6.903131557e-05 -2.339295546e-17 -0.04933477322)
(-7.467275844e-05 -2.37253953e-17 -0.04919921387)
(-8.051241409e-05 -2.404094237e-17 -0.04903818521)
(-8.646415462e-05 -2.419972684e-17 -0.0488473636)
(-9.242062798e-05 -2.426347274e-17 -0.04862179149)
(-9.825382096e-05 -2.428580783e-17 -0.04835581674)
(-0.0001038172317 -2.422176042e-17 -0.0480430341)
(-0.0001089492262 -2.400264495e-17 -0.04767623555)
(-0.0001134777698 -2.361764998e-17 -0.04724736943)
(-0.000117226869 -2.30123245e-17 -0.04674751621)
(-0.000120023902 -2.247272396e-17 -0.04616687945)
(-0.0001217077646 -2.227336555e-17 -0.0454947983)
(-0.0001221380032 -2.181566804e-17 -0.04471977899)
(-0.0001212025675 -2.113148908e-17 -0.04382955122)
(-0.0001188263702 -2.056823287e-17 -0.04281114028)
(-0.0001149771002 -1.980023332e-17 -0.04165096141)
(-0.0001096704764 -1.880941782e-17 -0.04033492659)
(-0.0001029740916 -1.756565003e-17 -0.03884856954)
(-9.500754816e-05 -1.711509022e-17 -0.03717717607)
(-8.594186522e-05 -1.531796728e-17 -0.03530591256)
(-7.599704044e-05 -1.565816358e-17 -0.03321996344)
(-6.543757649e-05 -1.304603667e-17 -0.03090466644)
(-5.456662789e-05 -1.147587452e-17 -0.02834563382)
(-4.371953642e-05 -1.002711395e-17 -0.02552886244)
(-3.325605312e-05 -8.30182821e-18 -0.02244083873)
(-2.354987814e-05 -6.820880535e-18 -0.01906862297)
(-1.49802085e-05 -5.563753339e-18 -0.01539991476)
(-7.956649068e-06 -4.130608413e-18 -0.01142308684)
(-2.994647472e-06 -2.561443801e-18 -0.007127145567)
(-5.333154851e-07 -8.842693042e-19 -0.002501478897)
(-1.882709086e-06 -1.623109105e-17 -0.05000663965)
(-4.909630324e-06 -1.154850141e-17 -0.05000545347)
(-7.750311079e-06 -1.311568713e-17 -0.05000287878)
(-1.066308439e-05 -1.033387534e-17 -0.04999898705)
(-1.353705217e-05 -1.647355869e-17 -0.04999374566)
(-1.634983271e-05 -1.515161614e-17 -0.04998707808)
(-1.910691715e-05 -1.617021113e-17 -0.04997884959)
(-2.182009955e-05 -1.506422132e-17 -0.04996885841)
(-2.450793639e-05 -1.492643432e-17 -0.04995681802)
(-2.719642946e-05 -1.547154691e-17 -0.04994233826)
(-2.991981456e-05 -1.634437826e-17 -0.04992490844)
(-3.271931931e-05 -1.728782971e-17 -0.04990388334)
(-3.563991177e-05 -1.829868734e-17 -0.0498784713)
(-3.872672127e-05 -1.74384159e-17 -0.04984772237)
(-4.20219464e-05 -1.799159119e-17 -0.0498105126)
(-4.556201265e-05 -1.798518771e-17 -0.04976552237)
(-4.937499808e-05 -1.849735767e-17 -0.04971120814)
(-5.347699559e-05 -1.995265611e-17 -0.04964576833)
(-5.787164246e-05 -2.102674881e-17 -0.04956710089)
(-6.254967168e-05 -2.17718551e-17 -0.04947275595)
(-6.748491938e-05 -2.21970146e-17 -0.04935988545)
(-7.263434251e-05 -2.226856139e-17 -0.04922518552)
(-7.793625538e-05 -2.301772516e-17 -0.04906483803)
(-8.330972631e-05 -2.353759607e-17 -0.04887444959)
(-8.865470588e-05 -2.391586468e-17 -0.04864898967)
(-9.385286275e-05 -2.422705623e-17 -0.04838273233)
(-9.876983048e-05 -2.456602495e-17 -0.04806920217)
(-0.0001032587001 -2.419830361e-17 -0.04770112862)
(-0.0001071644695 -2.389726138e-17 -0.04727041061)
(-0.000110330138 -2.296487631e-17 -0.04676809671)
(-0.0001126031166 -2.265567764e-17 -0.04618438127)
(-0.0001138428353 -2.229459002e-17 -0.04550861977)
(-0.0001139283376 -2.183588803e-17 -0.04472936421)
(-0.0001127651366 -2.126982449e-17 -0.04383441923)
(-0.0001102927432 -2.05975072e-17 -0.04281091503)
(-0.0001064891705 -1.97976373e-17 -0.04164539923)
(-0.0001013755453 -1.886194424e-17 -0.04032393944)
(-9.501858843e-05 -1.778286549e-17 -0.038832246)
(-8.753100908e-05 -1.656900866e-17 -0.03715579523)
(-7.90707962e-05 -1.551049439e-17 -0.03527995158)
(-6.983912661e-05 -1.434995523e-17 -0.03319010194)
(-6.007591562e-05 -1.322172789e-17 -0.03087178335)
(-5.005519031e-05 -1.199753186e-17 -0.02831079815)
(-4.007935947e-05 -1.080578684e-17 -0.02549332142)
(-3.047265567e-05 -9.558320741e-18 -0.0224060021)
(-2.157199952e-05 -7.945976359e-18 -0.01903604451)
(-1.371973612e-05 -6.298295453e-18 -0.01537127216)
(-7.286961591e-06 -4.594265189e-18 -0.01140016114)
(-2.743083645e-06 -2.820662618e-18 -0.00711180226)
(-4.887103131e-07 -9.692999207e-19 -0.002495657824)
(-1.909591947e-06 -3.059404938e-18 -0.05002361631)
(-4.980250016e-06 -5.296126464e-18 -0.05002242177)
(-7.86425489e-06 -6.811096344e-18 -0.05001982734)
(-1.082440149e-05 -8.760268192e-18 -0.05001590843)
(-1.374762235e-05 -1.048022826e-17 -0.05001063674)
(-1.661138739e-05 -1.163673142e-17 -0.05000394067)
(-1.942035386e-05 -1.256348585e-17 -0.04999569439)
(-2.218290217e-05 -1.365212718e-17 -0.04998570743)
(-2.491358782e-05 -1.46148976e-17 -0.04997370991)
(-2.763334543e-05 -1.534432264e-17 -0.04995933162)
(-3.037003095e-05 -1.623997404e-17 -0.04994208265)
(-3.31581946e-05 -1.708980069e-17 -0.04992133589)
(-3.603670565e-05 -1.776865053e-17 -0.04989631219)
(-3.904572575e-05 -1.797560531e-17 -0.04986606641)
(-4.222377084e-05 -1.927123918e-17 -0.0498294711)
(-4.560481039e-05 -2.047206328e-17 -0.04978519527)
(-4.921404952e-05 -2.090184514e-17 -0.04973167738)
(-5.306568047e-05 -2.132823494e-17 -0.0496670907)
(-5.716371567e-05 -2.181644329e-17 -0.04958930052)
(-6.149835773e-05 -2.227023626e-17 -0.04949581794)
(-6.604395251e-05 -2.265106116e-17 -0.04938374853)
(-7.075966116e-05 -2.296476852e-17 -0.04924973526)
(-7.558691144e-05 -2.326053493e-17 -0.04908990137)
(-8.044999179e-05 -2.348483356e-17 -0.04889978965)
(-8.525580161e-05 -2.360770464e-17 -0.04867430401)
(-8.989511723e-05 -2.360644071e-17 -0.04840765281)
(-9.424486052e-05 -2.346572015e-17 -0.04809329947)
(-9.8171575e-05 -2.336444001e-17 -0.04772391985)
(-0.0001015356174 -2.312244047e-17 -0.04729137214)
(-0.0001041968078 -2.298157461e-17 -0.04678668048)
(-0.0001060201916 -2.270995395e-17 -0.04620003554)
(-0.0001068829399 -2.234764014e-17 -0.04552081226)
(-0.0001066807174 -2.189131523e-17 -0.04473760792)
(-0.000105334032 -2.13408598e-17 -0.0438382976)
(-0.0001027940514 -2.069566941e-17 -0.04281010836)
(-9.904680964e-05 -1.994647376e-17 -0.04163970818)
(-9.411737314e-05 -1.909343594e-17 -0.04031330562)
(-8.807089475e-05 -1.814099782e-17 -0.03881676888)
(-8.101339502e-05 -1.709378372e-17 -0.03713574304)
(-7.309100222e-05 -1.595536522e-17 -0.03525576962)
(-6.448808379e-05 -1.470696994e-17 -0.033162416)
(-5.542316445e-05 -1.355372862e-17 -0.03084139675)
(-4.614502021e-05 -1.230166721e-17 -0.02827868382)
(-3.69277359e-05 -1.096907631e-17 -0.02546061253)
(-2.806509578e-05 -9.563993893e-18 -0.02237397905)
(-1.986258242e-05 -7.985369311e-18 -0.01900611957)
(-1.263110667e-05 -6.344247816e-18 -0.01534497276)
(-6.708922861e-06 -4.633189597e-18 -0.01137911283)
(-2.526079132e-06 -2.84601448e-18 -0.00709771306)
(-4.502654257e-07 -9.780990243e-19 -0.002490310193)
(-1.922502597e-06 -2.584872412e-18 -0.05004070281)
(-5.014571132e-06 -4.999077823e-18 -0.05003950196)
(-7.921262007e-06 -7.235744669e-18 -0.05003689221)
(-1.090678634e-05 -1.022505575e-17 -0.0500329526)
(-1.385768024e-05 -7.413202551e-18 -0.05002765765)
(-1.675172692e-05 -8.866657982e-18 -0.05002093898)
(-1.959326572e-05 -9.182720065e-18 -0.05001267775)
(-2.23884058e-05 -1.215847462e-17 -0.05000269239)
(-2.514791545e-05 -1.462766125e-17 -0.04999072529)
(-2.788890399e-05 -1.420033122e-17 -0.0499764228)
(-3.063394308e-05 -1.569574598e-17 -0.04995931305)
(-3.341159164e-05 -1.696186535e-17 -0.04993878581)
(-3.625486777e-05 -1.827067044e-17 -0.04991407462)
(-3.919890166e-05 -1.989024654e-17 -0.04988424031)
(-4.227855855e-05 -2.042571456e-17 -0.04984815345)
(-4.55241025e-05 -2.165315221e-17 -0.04980447377)
(-4.895748265e-05 -2.248815984e-17 -0.04975162349)
(-5.259200358e-05 -2.238836705e-17 -0.04968775153)
(-5.643110396e-05 -2.252771e-17 -0.04961069234)
(-6.046435615e-05 -2.276491201e-17 -0.04951792047)
(-6.466738368e-05 -2.301923259e-17 -0.04940649782)
(-6.900111163e-05 -2.325012058e-17 -0.0492730181)
(-7.34101782e-05 -2.342724026e-17 -0.04911355005)
(-7.782363988e-05 -2.351401109e-17 -0.04892357849)
(-8.215491666e-05 -2.347691293e-17 -0.04869794823)
(-8.630341369e-05 -2.325976571e-17 -0.04843080939)
(-9.015644049e-05 -2.278791453e-17 -0.04811557192)
(-9.359280197e-05 -2.282837864e-17 -0.047744866)
(-9.648661313e-05 -2.260028231e-17 -0.04731051631)
(-9.871266414e-05 -2.286273715e-17 -0.04680352856)
(-0.0001001513783 -2.260609023e-17 -0.04621409393)
(-0.0001006952243 -2.22647537e-17 -0.04553160859)
(-0.0001002541166 -2.183745655e-17 -0.04474471397)
(-9.876120803e-05 -2.132090239e-17 -0.04384135199)
(-9.617717287e-05 -2.070792238e-17 -0.04280883879)
(-9.2494315e-05 -1.999334753e-17 -0.04163395099)
(-8.774023499e-05 -1.918051215e-17 -0.04030302511)
(-8.197824969e-05 -1.827001929e-17 -0.03880207135)
(-7.530803302e-05 -1.726040675e-17 -0.0371168859)
(-6.786495225e-05 -1.615552357e-17 -0.03523316881)
(-5.981842429e-05 -1.495644008e-17 -0.03313664914)
(-5.136824705e-05 -1.366275653e-17 -0.0308132007)
(-4.274125889e-05 -1.226971491e-17 -0.02824894811)
(-3.418709261e-05 -1.076912905e-17 -0.0254303718)
(-2.597334095e-05 -9.154579635e-18 -0.02234440237)
(-1.83785109e-05 -7.41948124e-18 -0.01897849772)
(-1.168658303e-05 -5.938760405e-18 -0.01532070435)
(-6.207668592e-06 -4.359030423e-18 -0.01135969009)
(-2.337997833e-06 -2.685944736e-18 -0.007084708898)
(-4.169673065e-07 -9.242612845e-19 -0.002485371905)
(-1.923156075e-06 -2.172239246e-18 -0.05005782483)
(-5.017039098e-06 -3.809677035e-18 -0.05005661963)
(-7.927150161e-06 -5.126055777e-18 -0.0500539992)
(-1.091788436e-05 -6.577080795e-18 -0.05005004571)
(-1.387747526e-05 -8.011625412e-18 -0.05004473483)
(-1.678333681e-05 -9.318424231e-18 -0.05003800081)
(-1.963912104e-05 -1.057437492e-17 -0.05002972962)
(-2.245071778e-05 -1.185022479e-17 -0.05001974705)
(-2.522562256e-05 -1.308051703e-17 -0.0500078046)
(-2.797704688e-05 -1.42537472e-17 -0.0499935614)
(-3.072364575e-05 -1.537050176e-17 -0.04997656085)
(-3.348885399e-05 -1.64628614e-17 -0.04995620786)
(-3.630036793e-05 -1.760241695e-17 -0.04993174799)
(-3.918877639e-05 -1.898298644e-17 -0.04990224842)
(-4.21843663e-05 -1.922637765e-17 -0.04986657945)
(-4.531279299e-05 -1.941865589e-17 -0.0498233936)
(-4.859357872e-05 -2.049828189e-17 -0.0497710976)
(-5.203942236e-05 -2.130461848e-17 -0.04970781774)
(-5.56522542e-05 -2.195073144e-17 -0.04963135996)
(-5.942095397e-05 -2.248286081e-17 -0.04953916404)
(-6.332258102e-05 -2.291777705e-17 -0.04942825091)
(-6.731978065e-05 -2.32606097e-17 -0.0492951689)
(-7.136052873e-05 -2.35128443e-17 -0.04913593663)
(-7.537819681e-05 -2.367341839e-17 -0.04894598641)
(-7.929240643e-05 -2.373980712e-17 -0.04872010945)
(-8.301051068e-05 -2.371461493e-17 -0.04845240452)
(-8.642939711e-05 -2.35981058e-17 -0.04813623464)
(-8.943892673e-05 -2.339044712e-17 -0.04776419127)
(-9.192564198e-05 -2.30566637e-17 -0.0473280713)
(-9.377746501e-05 -2.254737548e-17 -0.04681886715)
(-9.488830823e-05 -2.242993224e-17 -0.04622677345)
(-9.516383802e-05 -2.215750428e-17 -0.04554120865)
(-9.452601833e-05 -2.176534042e-17 -0.04475085687)
(-9.291849528e-05 -2.126912986e-17 -0.04384372265)
(-9.030994342e-05 -2.067151864e-17 -0.04280720429)
(-8.669765771e-05 -1.997157014e-17 -0.04162817737)
(-8.21107861e-05 -1.917229912e-17 -0.04029309439)
(-7.661046654e-05 -1.827424018e-17 -0.03878809365)
(-7.029039429e-05 -1.727256022e-17 -0.03709910742)
(-6.327634851e-05 -1.616839007e-17 -0.0352119785)
(-5.57243512e-05 -1.496371667e-17 -0.03311258171)
(-4.781777815e-05 -1.365442844e-17 -0.03078693463)
(-3.976434245e-05 -1.223964023e-17 -0.02822130023)
(-3.179250228e-05 -1.071625937e-17 -0.02540229135)
(-2.414724609e-05 -9.080248229e-18 -0.02231696228)
(-1.708384148e-05 -7.332215492e-18 -0.01895288399)
(-1.086309012e-05 -5.860999776e-18 -0.01529820457)
(-5.770863484e-06 -4.29924392e-18 -0.01134168161)
(-2.174179782e-06 -2.648086558e-18 -0.007072648115)
(-3.879841474e-07 -9.10887444e-19 -0.002480789327)
(-1.91296908e-06 -9.235534604e-19 -0.05007491556)
(-4.990782883e-06 -1.407191605e-18 -0.05007370829)
(-7.886666113e-06 -1.884769776e-18 -0.05007108249)
(-1.086489501e-05 -2.394349206e-18 -0.05006712176)
(-1.381587748e-05 -8.439020943e-18 -0.05006180231)
(-1.671665115e-05 -9.640824201e-18 -0.05005506101)
(-1.957020224e-05 -1.172640363e-17 -0.05004678628)
(-2.23826802e-05 -1.141794669e-17 -0.05003680974)
(-2.51598907e-05 -1.143107626e-17 -0.05002489057)
(-2.791136175e-05 -1.426029638e-17 -0.05001069724)
(-3.065195677e-05 -1.500340256e-17 -0.04999378529)
(-3.340113391e-05 -1.580230197e-17 -0.04997357241)
(-3.618215269e-05 -1.642458938e-17 -0.0499493151)
(-3.902065771e-05 -1.678326156e-17 -0.04992008728)
(-4.19416736e-05 -1.792101387e-17 -0.04988476033)
(-4.496723356e-05 -1.82921523e-17 -0.04984198022)
(-4.811510912e-05 -1.893427031e-17 -0.0497901395)
(-5.13960699e-05 -2.038662323e-17 -0.04972734378)
(-5.481026646e-05 -2.143794688e-17 -0.04965137293)
(-5.834688017e-05 -2.22297409e-17 -0.04955963385)
(-6.198358427e-05 -2.284469329e-17 -0.04944910944)
(-6.568437976e-05 -2.331072013e-17 -0.04931630591)
(-6.940061868e-05 -2.360943024e-17 -0.04915719585)
(-7.306995729e-05 -2.380782778e-17 -0.04896716399)
(-7.66179242e-05 -2.394952688e-17 -0.04874095329)
(-7.995909685e-05 -2.406941178e-17 -0.04847261706)
(-8.299914241e-05 -2.41998824e-17 -0.04815547729)
(-8.563787486e-05 -2.392730244e-17 -0.04778209246)
(-8.777296742e-05 -2.366832265e-17 -0.04734423671)
(-8.930388921e-05 -2.264277677e-17 -0.0468328932)
(-9.013650793e-05 -2.244650058e-17 -0.04623826211)
(-9.018770523e-05 -2.213198211e-17 -0.0455497849)
(-8.938962708e-05 -2.171512397e-17 -0.0447561861)
(-8.769475809e-05 -2.120495218e-17 -0.043845529)
(-8.507834321e-05 -2.060180206e-17 -0.04280528763)
(-8.154175287e-05 -1.990421848e-17 -0.04162242806)
(-7.711484959e-05 -1.9111916e-17 -0.04028350823)
(-7.185638365e-05 -1.822527657e-17 -0.03877478246)
(-6.585449146e-05 -1.723713215e-17 -0.03708230617)
(-5.922636169e-05 -1.613479818e-17 -0.03519205199)
(-5.211608965e-05 -1.493728295e-17 -0.03309002651)
(-4.469261391e-05 -1.365138863e-17 -0.03076237711)
(-3.714693628e-05 -1.228063704e-17 -0.02819549368)
(-2.968910158e-05 -1.082848359e-17 -0.02537611083)