/*--------------------------------*- C++ -*----------------------------------*\
  =========                 |
  \\      /  F ield         | OpenFOAM: The Open Source CFD Toolbox
   \\    /   O peration     | Website:  https://openfoam.org
    \\  /    A nd           | Version:  7
     \\/     M anipulation  |
\*---------------------------------------------------------------------------*/
FoamFile
{
    version     2.0;
    format      ascii;
    class       volScalarField;
    location    "0.0003";
    object      generalizedNewtonian:nu;
}
// * * * * * * * * * * * * * * * * * * * * * * * * * * * * * * * * * * * * * //

dimensions      [0 2 -1 0 0 0 0];

internalField   nonuniform List<scalar> 
1166
(
2044.695962
2037.759317
1969.086339
1962.372394
1949.788384
1930.133479
1904.983753
1874.719859
1839.823542
1800.805853
1758.23045
1712.54674
1664.258444
1613.834342
1561.674874
1508.25878
1453.910355
1399.069903
1344.012335
1289.106709
1234.591797
1180.74685
1127.806409
1075.940239
1025.367098
976.1820752
928.5315916
882.5125865
838.173913
795.6003801
754.7988754
715.7805867
678.5774963
643.1387306
609.4486653
577.48644
547.1862378
518.5113467
491.4045363
465.794194
441.6349329
418.8472431
397.3657006
377.1392636
358.0852045
340.1492418
323.2663574
307.3704168
292.4159956
278.3358228
265.093432
252.579762
1896.564688
1890.092938
1877.896509
1858.863421
1834.450207
1805.088123
1771.28852
1733.515525
1692.248739
1648.050307
1601.32153
1552.534879
1502.122612
1450.465257
1397.989601
1345.010069
1291.897974
1238.918825
1186.369496
1134.498839
1083.504514
1033.611855
984.9403806
937.6652892
891.8807206
847.6649088
805.1210414
764.2555987
725.1135569
687.715597
652.0349138
618.0756221
585.8033929
555.1723412
526.1624279
498.7013164
472.7380507
448.2263109
425.0862505
403.2666881
382.7033939
363.324831
345.0836119
327.9020525
311.7273506
296.5030437
282.1655511
268.6774039
255.9801995
243.9844504
1827.092063
1820.8236
1808.956039
1790.508155
1766.870117
1738.440757
1705.669611
1669.099496
1629.186252
1586.369732
1541.170827
1493.976055
1445.225532
1395.320476
1344.618428
1293.486567
1242.220206
1191.130141
1140.481828
1090.498497
1041.413889
993.3717525
946.5754774
901.1171231
857.1131528
814.6598878
773.7906181
734.5760753
697.0258298
661.1397435
626.9387964
594.3785038
563.4417986
534.0998369
506.2919091
479.984315
455.1156502
431.6213065
409.4604575
388.5542261
368.8491156
350.2869611
332.7970574
316.3338279
300.8288247
286.2300539
272.4874373
259.5436166
247.3680921
235.8564896
1760.583867
1754.532075
1742.990459
1725.096665
1702.168284
1674.638681
1642.925172
1607.49741
1568.844728
1527.43844
1483.679717
1438.050986
1390.924276
1342.7017
1293.740689
1244.369299
1194.908386
1145.642486
1096.817284
1048.676629
1001.389006
955.179791
910.1467398
866.442248
824.1566625
783.3526447
744.1219242
706.468137
670.4275346
636.0077233
603.1859396
571.9668012
542.3057976
514.1633443
487.517073
462.2947306
438.453908
415.9407511
394.6873273
374.6512833
355.7599715
337.9565772
321.1909252
305.3948532
290.525122
276.519818
263.3298828
250.9112929
239.215866
228.1688968
1696.852403
1691.007542
1679.815794
1662.51008
1640.327192
1613.635775
1582.897416
1548.613938
1511.197134
1471.0969
1428.796472
1384.65631
1339.117556
1292.521486
1245.232521
1197.576579
1149.85986
1102.346728
1055.293347
1008.89686
963.3873754
918.8873259
875.5782892
833.5454806
792.8911877
753.6983709
715.9961952
679.8481641
645.2481788
612.2009483
580.7201834
550.7598059
522.3059647
495.3214219
469.751705
445.568783
422.702905
401.1042177
380.7276405
361.5012918
343.3802001
326.3008965
310.206971
295.0532608
280.7750435
267.331808
254.6664679
242.7363432
231.5048516
220.8857014
1635.9509
1630.294786
1619.416604
1602.634121
1581.137008
1555.302769
1525.549064
1492.320934
1456.108033
1417.328701
1376.379131
1333.727389
1289.692262
1244.677204
1199.007064
1153.012392
1106.971797
1061.156286
1015.788897
971.1061799
927.2555145
884.444135
842.7565562
802.3335756
763.249969
725.5656913
689.3582574
654.6228725
621.394758
589.674425
559.4386226
530.6928
503.3835433
477.4823247
452.9550749
429.7391072
407.7991906
387.0753166
367.511752
349.0647651
331.6646567
315.2681458
299.8175326
285.2587338
271.5496383
258.6295441
246.4615483
234.9948797
224.1960588
213.9886847
1577.672113
1572.210141
1561.656771
1545.409946
1524.577659
1499.526014
1470.703018
1438.557514
1403.499958
1365.967349
1326.390364
1285.114222
1242.56785
1199.068878
1154.974843
1110.573499
1066.15353
1021.960564
978.2395708
935.1691437
892.9581004
851.7158615
811.6132612
772.7175243
735.1276241
698.9113507
664.0909971
630.7250668
598.80029
568.3271996
539.3010716
511.684464
485.4682127
460.6017812
437.0440728
414.7615928
393.6900507
373.7917087
355.0082653
337.282815
320.575697
304.8201914
289.9752788
275.9869599
262.8048306
250.3882266
238.6824354
227.6571152
217.2672663
207.4464781
1521.970892
1516.684561
1506.428707
1490.673737
1470.500371
1446.253149
1418.344228
1387.199269
1353.284174
1316.973504
1278.65501
1238.772133
1197.632137
1155.621216
1113.030544
1070.169533
1027.302467
984.6848886
942.5240976
901.0321616
860.3477327
820.6562137
782.0344707
744.6148677
708.4558833
673.6173409
640.15139
608.0627254
577.3882781
548.1073103
520.2100598
493.689247
468.4957775
444.6101744
421.9832709
400.5674716
380.3325063
361.2099837
343.1602179
326.1299208
310.0638288
294.9242302
280.6481938
267.1974568
254.5200619
242.5707836
231.3112972
220.6946446
210.696493
201.2381964
1468.724171
1463.616764
1453.670912
1438.421684
1418.868309
1395.364494
1368.340621
1338.206702
1305.353432
1270.201878
1233.160643
1194.568641
1154.826352
1114.221812
1073.088554
1031.704954
990.3394761
949.2250479
908.578838
868.5727798
829.3904685
791.1360534
753.9672739
717.9379908
683.1466402
649.6328902
617.4320436
586.5885078
557.0847109
528.9383791
502.126781
476.6241784
452.4192071
429.4553804
407.7065105
387.1274242
367.6657598
349.2886543
331.9306969
315.5533197
300.1056713
285.5357655
271.8064959
258.8592875
246.6591021
235.1563254
224.3125528
214.0911826
204.4547812
195.3457817
1417.8839
1412.941003
1403.281074
1388.495243
1369.563582
1346.80845
1320.622412
1291.412391
1259.621301
1225.612539
1189.755388
1152.467459
1114.02654
1074.793576
1035.055708
995.0968129
955.1717352
915.5046974
876.2986298
837.7371275
799.9609246
763.1225129
727.3012347
692.6261128
659.1249011
626.870174
595.8940067
566.2065825
537.838489
510.7604228
484.9753319
460.4560006
437.1666903
415.0907849
394.1712307
374.3782004
355.6637889
337.976048
321.2826092
305.5211165
290.6548598
276.6340263
263.4110759
250.9484808
239.1935145
228.1156771
217.6666424
207.8152421
198.5276743
189.7428297
1369.33935
1364.559652
1355.18964
1340.869068
1322.500623
1300.428393
1275.060756
1246.794418
1216.003715
1183.08282
1148.420134
1112.322491
1075.165744
1037.24
998.8472694
960.2600252
921.7117605
883.4336611
845.6110505
808.4199155
772.0087275
736.4934229
701.9992401
668.5768957
636.3261974
605.2671625
575.4472181
546.8821352
519.5671254
493.5215536
468.7057205
445.1123197
422.7090621
401.4559731
381.3345143
362.2834831
344.2709232
327.2501673
311.1716925
296.0022131
281.6831465
268.1801972
255.4435325
243.4314406
232.1068374
221.4232543
211.3526044
201.8497883
192.8923019
184.4162946
1322.985632
1318.354085
1309.248566
1295.355637
1277.561675
1256.189883
1231.613509
1204.219856
1174.418876
1142.560082
1108.987504
1074.086678
1038.142906
1001.480277
964.3842103
927.1000751
889.8838427
852.9252645
816.43282
780.5526596
745.4373921
711.2058848
677.9459225
645.7535454
614.6662447
584.7612397
556.0392116
528.53059
502.2398682
477.1496978
453.2686985
430.5505147
408.9808697
388.5259894
369.1422208
350.8045196
333.4547744
317.0614711
301.5773324
286.9566388
273.1644143
260.1463956
247.8711936
236.2897695
225.3672748
215.0654403
205.3451384
196.1784313
187.5281437
179.3487767
1278.736686
1274.255921
1265.42565
1251.969346
1234.71396
1213.991041
1190.177509
1163.662575
1134.787278
1103.91847
1071.445452
1037.654056
1002.888096
967.4402481
931.5706842
895.5556872
859.5920683
823.9176747
788.6787462
754.0626023
720.1836942
687.1681845
655.1021087
624.0579525
594.1100019
565.2752592
537.6109643
511.1063523
485.7775047
461.6172829
438.6007898
416.7255965
395.9451247
376.2405345
357.5710547
339.8943402
323.1824937
307.3802349
292.4573267
278.365109
265.0626563
252.5127905
240.6667704
229.4976656
218.9563254
209.0137095
199.6308297
190.7772151
182.4250758
174.5205009
1236.551261
1232.211097
1223.636266
1210.582824
1193.854196
1173.778533
1150.696166
1124.978578
1097.001967
1067.1243
1035.65905
1002.961087
969.3238555
935.0255248
900.3580886
865.527286
830.7975418
796.315175
762.3024555
728.8702342
696.1833176
664.3191953
633.3874314
603.4520231
574.5654605
546.7773993
520.0939729
494.5561859
470.1403409
446.8532657
424.6766427
403.5830177
383.5629957
364.5658573
346.5698313
329.5318953
313.4125296
298.1802428
283.7832277
270.1931291
257.3594169
245.2470119
233.8176907
223.0305268
212.8558701
203.2499144
194.1889049
185.6331635
177.5617725
169.9212115
1196.333312
1192.127703
1183.808221
1171.154151
1154.923837
1135.436446
1113.039014
1088.1232
1061.009193
1032.04455
1001.588611
969.9272723
937.3608486
904.1922597
870.6392889
836.9852131
803.3886528
770.0862615
737.2059939
704.9348367
673.3528211
642.6043937
612.7439655
583.8625115
555.9960602
529.185655
503.4607803
478.8173072
455.2816153
432.820799
411.4352364
391.0999044
371.7846343
353.4696099
336.1067823
319.6740602
304.1249686
289.4239516
275.5356802
262.4123558
250.0276899
238.3308406
227.2935531
216.8753324
207.0423152
197.7628286
189.0005326
180.7317554
172.9231751
165.5361659
1158.000777
1153.91745
1145.833763
1133.548739
1117.792493
1098.898581
1077.190985
1053.011526
1026.713302
998.6649993
969.1425289
938.4680804
906.9502309
874.8236087
842.3794687
809.799187
777.3236381
745.1126441
713.3504122
682.1503189
651.6563533
621.9421789
593.1236372
565.2300697
538.3380155
512.462892
487.6348891
463.8648414
441.1432278
419.479688
398.8409372
379.2221274
360.5869778
342.907011
326.1564608
310.2894405
295.2844395
281.0914076
267.6795366
255.0094645
243.0407707
231.7442547
221.0750417
211.0082813
201.5016624
192.5288565
184.0554142
176.0544747
168.5014138
161.3495397
1121.462545
1117.497165
1109.646145
1097.724576
1082.437496
1064.082666
1043.005998
1019.558306
994.0750603
966.8573012
938.238029
908.5260634
877.9749073
846.8832131
815.4522138
783.9276616
752.4996387
721.3514882
690.6316421
660.4772066
630.9981083
602.3011731
574.4464155
547.5168915
521.5333715
496.5565223
472.5813651
449.6316077
427.7009056
406.7785676
386.8623432
367.9147461
349.9266664
332.8564042
316.6783048
301.3602756
286.8605581
273.1552876
260.194652
247.9521295
236.3857333
225.4628751
215.1504237
205.4107063
196.2183904
187.5337548
179.3363947
171.5907672
164.2790376
157.3530027
1086.677322
1082.8253
1075.179782
1063.585895
1048.73372
1030.911091
1010.465413
987.7044405
962.9597928
936.564043
908.8172223
879.9959944
850.4053684
820.261583
789.8191501
759.2939104
728.8712238
698.7313772
669.0072938
639.8440258
611.3413437
583.596802
556.6811976
530.6491638
505.5545922
481.4101571
458.2585101
436.082851
414.9009251
394.6946556
375.4515353
357.1549385
339.7691637
323.2836072
307.6507801
292.8488625
278.8396408
265.5874057
253.0622641
241.2200428
230.0383875
219.4722396
209.4956788
200.0725988
191.1734165
182.7689459
174.8283646
167.3294356
160.2435036
153.5351493
1053.507412
1049.766522
1042.340855
1031.079601
1016.659116
999.3522399
979.4740745
957.359275
933.3489612
907.7253205
880.7903786
852.8538424
824.1407279
794.9176782
765.4219902
735.8438876
706.3923927
677.1958309
648.4349791
620.202576
592.6350829
565.7918946
539.7651599
514.5958892
490.3316401
467.0004213
444.6118873
423.1864678
402.7062611
383.1834242
364.5842504
346.8979719
330.0986861
314.1551434
299.0478141
284.7324593
271.1887714
258.3727003
246.2553133
234.8024676
223.9782626
213.7557649
204.0947147
194.9744111
186.3549943
178.215035
170.5223484
163.254773
156.3878308
149.8829378
1021.941533
1018.306561
1011.094261
1000.139582
986.1019146
969.2720644
949.9602779
928.4899667
905.1502501
880.2573627
854.1298252
826.9949342
799.1345075
770.8022017
742.1919074
713.542183
684.9829977
656.7132182
628.8421326
601.5205094
574.8179458
548.8499116
523.6531777
499.3102
475.8336915
453.2679881
431.6177936
410.8925989
391.0958403
372.2070638
354.2271539
337.1192573
320.8736981
305.4554965
290.8385744
276.9949198
263.8852336
251.4878544
239.7580596
228.6733249
218.1948101
208.2941103
198.9402963
190.1013908
181.7526012
173.860844
166.4066207
159.3577819
152.7003505
146.3890552
991.8564763
988.32011
981.3070962
970.6531775
957.0019634
940.6436323
921.8626571
900.9720132
878.2884188
854.1219287
828.7160416
802.3639979
775.3313925
747.8237104
720.0870377
692.2768399
664.5943546
637.1808924
610.1831025
583.7049484
557.8531726
532.69678
508.3142667
484.7373398
462.0245081
440.176679
419.2314718
399.1763808
380.0206028
361.7488055
344.3447579
327.7966931
312.069689
297.1541487
283.0065089
269.6064736
256.918353
244.9106659
233.5558844
222.8158637
212.6689018
203.074434
194.0114293
185.4443395
177.349909
169.6992608
162.4676342
155.6318639
149.1696538
143.0465102
963.241858
959.7926106
952.9657311
942.594073
929.303636
913.3596571
895.0778232
874.7652779
852.7140132
829.1930848
804.500581
778.9084948
752.6358368
725.9371882
698.99315
672.0062104
645.1480998
618.5623594
592.3875149
566.7217679
541.67018
517.3002366
493.6787964
470.8511482
448.848764
427.7020901
407.4130728
388.004779
369.4537516
351.7678082
334.9190839
318.8957568
303.6741907
289.2253381
275.5302147
262.5481951
250.2615921
238.6289402
227.6269812
217.2220103
207.3840596
198.0863842
189.2954445
180.9900158
173.1358352
165.7157914
158.6968042
152.0629427
145.7887271
139.8435433
935.9944685
932.6198512
925.9531654
915.8297616
902.8836303
887.3631092
869.5780135
849.7966991
828.3180261
805.440392
781.4357599
756.539342
731.0140161
705.0613902
678.8882807
652.6932556
626.6156922
600.830327
575.4249096
550.5437473
526.2417293
502.6245044
479.722636
457.6039299
436.2835735
415.7946031
396.1454649
377.3386056
359.3754172
342.2360654
325.9213323
310.3964696
295.6529127
281.6564856
268.3847998
255.8092363
243.89685
232.6257089
221.956947
211.8715352
202.3306953
193.3129602
184.7861141
176.7258236
169.1060012
161.900699
155.0881815
148.643673
142.5514391
136.7735527
237.8151196
226.8828085
216.5382598
206.7507909
197.4969986
188.7426511
180.4692052
172.6424862
165.2454739
158.2470742
151.6298483
145.3685734
139.4478657
133.8320433
)
;

boundaryField
{
    front_top
    {
        type            wedge;
    }
    front_middle
    {
        type            wedge;
    }
    front_bottom
    {
        type            wedge;
    }
    back_top
    {
        type            wedge;
    }
    back_middle
    {
        type            wedge;
    }
    back_bottom
    {
        type            wedge;
    }
    axis_top
    {
        type            symmetryPlane;
    }
    axis_middle
    {
        type            symmetryPlane;
    }
    axis_bottom
    {
        type            symmetryPlane;
    }
    wall_top
    {
        type            calculated;
        value           nonuniform List<scalar> 
24
(
246.5454137
238.1964565
230.3074962
222.8387667
215.7671646
209.0654532
202.707372
196.6783893
190.9500679
185.5045704
180.3282386
175.4003237
170.7067118
166.2348475
161.9690044
157.8972551
154.010487
150.2949831
146.7405845
143.3428259
140.088557
136.9701708
133.9826733
131.1189826
)
;
    }
    wall_middle
    {
        type            calculated;
        value           nonuniform 0();
    }
    wall_bottom
    {
        type            calculated;
        value           nonuniform 0();
    }
    inlet
    {
        type            calculated;
        value           nonuniform 0();
    }
    outlet
    {
        type            calculated;
        value           nonuniform 0();
    }
    procBoundary8to7
    {
        type            processor;
        value           nonuniform List<scalar> 
51
(
909.9628781
906.6796855
900.2005126
890.3372292
877.7292697
862.607425
845.2516145
825.9739116
805.0696915
782.8031899
759.4299468
735.2199213
710.3902912
685.1535993
659.7330509
634.2717891
608.9604792
583.9086982
559.2615864
535.1027483
511.5370092
488.6164439
466.416335
444.9584245
424.2961499
404.4283503
385.3876211
367.15837
349.7476517
333.140911
317.3235439
302.2820914
287.9859699
274.4238794
261.5556405
249.3646681
249.3646681
231.9982202
221.3884534
211.3516755
201.8523465
192.8685789
184.3707153
176.3340656
168.7345436
161.5458101
154.7476715
148.314209
142.2295761
136.4709483
131.0112977
)
;
    }
    procBoundary8to9
    {
        type            processor;
        value           nonuniform List<scalar> 
51
(
2123.716908
2116.544503
2024.83132
2024.83132
2004.574704
1978.630271
1947.37755
1911.363219
1871.129987
1827.158304
1779.977707
1730.089812
1677.92523
1624.023959
1568.72935
1512.523103
1455.702564
1398.699495
1341.761004
1285.244605
1229.365456
1174.382229
1120.517353
1067.916262
1016.776671
967.1859348
919.2555535
873.0861545
828.7009495
786.1576847
745.4732397
706.6337716
669.6509436
634.4836353
601.0895278
569.4509542
539.4939685
511.1627588
484.4143012
459.1622124
435.3490362
412.9094572
391.764665
371.861998
353.1235892
335.483657
318.8883233
303.2638621
288.5657878
274.7402907
261.6764333
)
;
    }
}


// ************************************************************************* //
