/*--------------------------------*- C++ -*----------------------------------*\
  =========                 |
  \\      /  F ield         | OpenFOAM: The Open Source CFD Toolbox
   \\    /   O peration     | Website:  https://openfoam.org
    \\  /    A nd           | Version:  7
     \\/     M anipulation  |
\*---------------------------------------------------------------------------*/
FoamFile
{
    version     2.0;
    format      ascii;
    class       volScalarField;
    location    "0.0003";
    object      rho;
}
// * * * * * * * * * * * * * * * * * * * * * * * * * * * * * * * * * * * * * //

dimensions      [1 -3 0 0 0 0 0];

internalField   nonuniform List<scalar> 
1166
(
966.546722
966.5134367
966.1132765
966.0802767
966.0095725
965.9052393
965.7697391
965.6050154
965.4130164
965.1956651
964.9549888
964.6923943
964.4097191
964.1085954
963.7903326
963.456725
963.1087173
962.7480503
962.3755468
961.9927563
961.60048
961.1998891
960.7920191
960.3775775
959.9578212
959.5331542
959.1045549
958.6727635
958.2382248
957.8018914
957.3640888
956.9253063
956.4864303
956.0475056
955.6090755
955.1717491
954.7356085
954.3011973
953.8688278
953.4386037
953.0110951
952.5862995
952.1644286
951.745988
951.3308102
950.9192703
950.5114752
950.1074278
949.7075992
949.3117384
948.9201963
948.5329302
965.6901813
965.6575133
965.5875181
965.4841741
965.3497917
965.1865002
964.9963677
964.7810414
964.5422761
964.2821776
964.0019779
963.7034308
963.3880695
963.0571549
962.7122919
962.3545031
961.9852962
961.6055771
961.2165646
960.8193089
960.4146403
960.0037602
959.5871637
959.1659708
958.7407844
958.3122077
957.8812663
957.4481769
957.0136805
956.5784294
956.1426515
955.7070487
955.2719667
954.8376703
954.4048804
953.9736233
953.544265
953.1173139
952.6927201
952.270934
951.8521702
951.4364529
951.0243104
950.6155646
950.2105286
949.8093949
949.4120755
949.0190734
948.6300812
948.2454288
965.2770119
965.2446089
965.1752785
965.0729312
964.9398369
964.7780185
964.5893787
964.376001
964.1394835
963.8814069
963.6037507
963.3077427
962.9949997
962.6669558
962.3248667
961.9701683
961.6038984
961.2273025
960.8414667
960.4473264
960.0460449
959.6382014
959.2250554
958.8070825
958.3851261
957.9600271
957.5321582
957.1024246
956.6712451
956.2390484
955.8066522
955.3741818
954.9422016
954.5112285
954.0813828
953.6532514
953.2270366
952.8028854
952.3814131
951.9625328
951.5466058
951.1339014
950.7243679
950.3185
949.9161984
949.5176911
949.1232006
948.7325861
948.3463204
947.9641093
964.8737619
964.8416637
964.772886
964.6713328
964.5392672
964.3789571
964.1920743
963.9804144
963.7458529
963.4901483
963.2146409
962.9211902
962.6110203
962.2856572
961.9464312
961.5945427
961.2312393
960.8576672
960.4748468
960.0839223
959.6855692
959.281124
958.8710056
958.4562708
958.0375841
957.6154903
957.1910049
956.7643708
956.3363283
955.9074289
955.4779607
955.0486953
954.6198505
954.1917622
953.765131
953.3399295
952.9166322
952.4955647
952.0767896
951.6608797
951.2477879
950.8377405
950.431111
950.0277905
949.6282402
949.2323853
948.8404021
948.452492
948.0685112
947.6889365
964.4796979
964.4478958
964.3797524
964.2791347
964.1482839
963.989186
963.8037678
963.5940367
963.3614457
963.1076817
962.8346297
962.5434291
962.2358601
961.9131103
961.5765759
961.2274793
960.8670542
960.4963819
960.1166104
959.72855
959.3334645
958.9318755
958.5249955
958.1133229
957.6976781
957.2788656
956.8572791
956.4338625
956.0089032
955.582915
955.1566916
954.7303396
954.3044907
953.8795357
953.455644
953.0334893
952.6130758
952.1947446
951.7789755
951.3657017
950.9553984
950.5481203
950.1440182
949.7435034
949.3464198
948.9532046
948.5637576
948.1782519
947.7968705
947.4195194
964.0949449
964.0633793
963.9957423
963.8958715
963.7661111
963.6084465
963.4246315
963.2164282
962.9857744
962.7341859
962.4630904
962.1744259
961.8691962
961.54903
961.2150939
960.8687389
960.5110811
960.1432968
959.7663119
959.3813368
958.9889978
958.5906276
958.1866035
957.7780031
957.3654284
956.9494747
956.5311264
956.1105773
955.6886115
955.2657409
954.8422694
954.4190251
953.9960853
953.5739445
953.1531036
952.7336198
952.316069
951.9006006
951.4874213
951.0770149
950.6692776
950.2646629
949.8632566
949.4651647
949.0707854
948.6799261
948.2930163
947.9099316
947.5308995
947.1560127
963.7189089
963.6876248
963.62059
963.521606
963.3928736
963.2363416
963.0539839
962.8475937
962.618691
962.3690084
962.100269
961.8136439
961.510902
961.1931199
960.8617994
960.5180608
960.1631372
959.7980477
959.4239714
959.0416999
958.6524652
958.2567584
957.8558296
957.4500888
957.0404196
956.627572
956.2119305
955.7944546
955.3753755
954.9553444
954.5349435
954.1143796
953.6943822
953.2751162
952.8569247
952.4403637
952.0254507
951.6127219
951.202315
950.7943594
950.3893899
949.9872665
949.5884257
949.1929348
948.8008852
948.412614
948.02794
947.647337
947.2706012
946.8980108
963.3515595
963.3204969
963.2539365
963.1556517
963.0280098
962.8728251
962.691891
962.4869384
962.2599398
962.0122679
961.7453826
961.4611532
961.1605591
960.8452785
960.5164033
960.1752536
959.8229169
959.4605652
959.089136
958.7097797
958.3231424
957.9304933
957.5322145
957.1294188
956.7226304
956.3125462
955.8999297
955.4851072
955.0689774
954.6518063
954.2340926
953.816507
953.3991518
952.9826761
952.5672911
952.1532443
951.7411844
951.3310127
950.9232028
950.517941
950.1153235
949.7158771
949.3194339
948.926423
948.5368462
948.1508292
947.7686543
947.3901751
947.0158659
946.6454253
962.9924831
962.961685
962.8956907
962.7982402
962.6714976
962.5173785
962.3378674
962.1346556
961.9092641
961.6634017
961.3987081
961.1163768
960.8181841
960.5051561
960.1787342
959.8400461
959.4902838
959.1305087
958.7618106
958.3850315
958.0013035
957.6111597
957.2158463
956.8157069
956.411758
956.0045003
955.5945079
955.1826596
954.7691537
954.3547887
953.9399061
953.5248708
953.1103957
952.6965
952.2837671
951.8724915
951.4628295
951.0553831
950.6500474
950.2472887
949.8472783
949.450107
949.0562467
948.6655111
948.2783385
947.8946705
947.5147178
947.1386377
946.7663722
946.3982763
962.6415405
962.6109508
962.5454028
962.4486106
962.3229321
962.1701072
961.991916
961.7900596
961.5664518
961.3224551
961.0595021
960.7794876
960.4833312
960.1726324
959.8485278
959.5122597
959.1649879
958.8077658
958.4416117
958.0675405
957.6863305
957.299049
956.9061805
956.5089502
956.1076049
955.7030516
955.2958841
954.8865487
954.4759216
954.0641484
953.6519524
953.2396939
952.8276481
952.4165167
952.0063157
951.5976008
951.190603
950.7854525
950.3827511
949.9823788
949.5848016
949.1901307
948.7984784
948.4102176
948.0251911
947.6438942
947.2661555
946.8922653
946.5222518
946.1561864
962.298438
962.2681025
962.2030986
962.1071085
961.9822613
961.8304412
961.6535702
961.4533409
961.2312446
960.9889435
960.7281236
960.4499041
960.1559659
959.8474198
959.5255911
959.1917105
958.8468212
958.4920959
958.1284543
957.7569027
957.378347
956.9935293
956.6035027
956.2086546
955.8100889
955.4081214
955.0035783
954.5970137
954.1888034
953.7798282
953.3701648
952.9604847
952.5511272
952.1423324
951.7348341
951.3285539
950.9240107
950.5214324
950.1209579
949.7231367
949.3278403
948.9355433
948.5462537
948.1601499
947.7775156
947.3982541
947.0228417
946.6510116
946.2831829
945.919196
961.9630373
961.9328984
961.8683155
961.7729463
961.6490641
961.498454
961.3228375
961.1238877
960.9034661
960.6629898
960.4038138
960.1277162
959.835744
959.5293416
959.2097789
958.8781189
958.5356634
958.1832618
957.8221285
957.4530273
957.0769585
956.6947728
956.3071536
955.9150373
955.5188184
955.1195828
954.7175676
954.3135416
953.9080486
953.5013994
953.0944477
952.6872181
952.2803438
951.8741852
951.4689412
951.0652467
950.6630417
950.2628542
949.8648525
949.4692086
949.0763767
948.686229
948.2992616
947.9153869
947.5348984
947.1579252
946.7844846
946.4149042
946.0489744
945.6871716
961.6349933
961.6050921
961.5410179
961.4463988
961.3233311
961.1736697
960.9992557
960.8018841
960.5829457
960.3439948
960.0868275
959.8124857
959.5225383
959.2182604
958.9007668
958.5714604
958.231148
957.8812291
957.5223475
957.1557456
956.7820878
956.4023711
956.0172889
955.62753
955.2340104
954.8370595
954.4377015
954.036146
953.6331196
953.2291126
952.8244099
952.4197879
952.0152983
951.6115671
951.2088381
950.8073297
950.4076276
950.0096775
949.6140243
949.2207353
948.8300397
948.4422561
948.0572985
947.6757334
947.297332
946.922492
946.5511837
946.1835807
945.8198037
945.4598532
961.3142507
961.2845351
961.2208586
961.126826
961.00461
960.8561229
960.6829747
960.486812
960.2693622
960.0322063
959.7765929
959.5041721
959.2161863
958.9138375
958.5985987
958.2712643
957.9333931
957.585534
957.2291521
956.8647448
956.4936075
956.1162061
955.7335508
955.3462863
954.9550916
954.5607632
954.1636272
953.7646759
953.3640388
952.9624353
952.5602675
952.1578422
951.7559069
951.3544493
950.9540752
950.5549759
950.1574201
949.7618971
949.3683644
948.9773912
948.5889045
948.2032287
947.8205583
947.4409412
947.0647679
946.6918523
946.3226924
945.957042
945.5952735
945.2372975
961.0003971
960.9709123
960.9077298
960.8144255
960.6930648
960.5454742
960.3733691
960.17868
959.9627211
959.7269759
959.4731966
959.2025512
958.9163678
958.616155
958.3027449
957.977776
957.6418397
957.2964087
956.9420533
956.5801627
956.2111229
955.8362098
955.4558094
955.0709733
954.6821858
954.2901546
953.8955783
953.4987752
953.1006829
952.7013677
952.301549
951.9015874
951.5018041
951.1027944
950.7045832
950.3078049
949.912546
949.519147
949.1279624
948.7389737
948.3527709
947.9691595
947.588605
947.2111228
946.8368965
946.4661377
946.0988006
945.7352469
945.3752659
945.0193362
960.6935794
960.6642701
960.6014636
960.5087137
960.3880732
960.2415525
960.0707336
959.8772008
959.6625233
959.4285272
959.1763122
958.9073575
958.6231694
958.324673
958.0134986
957.6903815
957.3567132
957.0132777
956.6613063
956.301452
955.9348452
955.5619807
955.1840739
954.8013998
954.4150255
954.0253176
953.6330156
953.2386902
952.842699
952.4458358
952.0482193
951.6505898
951.2531367
950.8562423
950.4604042
950.0656743
949.6727215
949.2814909
948.892416
948.5056794
948.1213926
947.7399937
947.3613577
946.9859979
946.6137406
946.2449548
945.8796169
945.5179075
945.1599472
944.8057427
960.3931935
960.3640569
960.3017159
960.2096526
960.089903
959.9442669
959.7744345
959.5821616
959.3690408
959.1363882
958.8857685
958.6186451
958.3360581
958.0396457
957.7302557
957.409228
957.0775364
956.7362779
956.3863785
956.0287659
955.6642419
955.2937663
954.9179013
954.5376584
954.1533562
953.7660592
953.3759766
952.9839088
952.5902697
952.1954944
951.8002855
951.4047352
951.0095739
950.6148889
950.2211555
949.8287305
949.4377331
949.048768
948.6617089
948.2770746
947.8948896
947.5154332
947.1389297
946.7653853
946.3952167
946.0282147
945.664892
945.3050002
944.9489381
944.5965453
960.0994966
960.0705709
960.0085854
959.9170466
959.7979781
959.6532008
959.4845994
959.2935751
959.0816593
958.8505249
958.6015475
958.3359067
958.0552661
957.7605506
957.4530818
957.1339961
956.8042827
956.4651181
956.1172492
955.7617687
955.3993973
955.0310581
954.6574633
954.2792934
953.8973717
953.5120688
953.1243651
952.7343969
952.3430011
951.9504853
951.5573604
951.1641218
950.7709174
950.3785165
949.9868673
949.5965526
949.2077546
948.8207136
948.4358322
948.0530576
947.6730007
947.2954864
946.9209481
946.5494007
946.1810503
945.8160593
945.4544533
945.0965271
944.7421323
944.391645
959.8119388
959.783175
959.7215364
959.6305769
959.5123615
959.3685891
959.2009274
959.0109664
958.800512
958.5708042
958.323188
958.0593716
957.7803185
957.4873679
957.1817891
956.8644925
956.5368794
956.1995406
955.8538416
955.5002826
955.1401329
954.7738205
954.4024082
954.0263966
953.6465762
953.2635635
952.8778377
952.4901669
952.1007615
951.7105138
951.3195037
950.9283425
950.537379
950.1468863
949.7574575
949.3690876
948.9824122
948.5974059
948.2144626
947.8337989
947.455542
947.0800901
946.7073172
946.3377828
945.9712367
945.608125
945.2483571
944.8921947
944.5396344
944.1908122
959.530549
959.5019889
959.4407865
959.3504034
959.2328373
959.089854
958.9232038
958.7345754
958.5253036
958.2968326
958.0509363
957.7885746
957.5111435
957.2200121
956.9160452
956.6008372
956.274922
955.9397102
955.5957907
955.2444435
954.886125
954.522053
954.1525482
953.7787695
953.4009788
953.0200991
952.6365196
952.2508521
951.863709
951.4753571
951.0865662
950.6973834
950.3085164
949.9201279
949.5326324
949.1464158
948.7615611
948.3786567
947.9975859
947.6189044
947.2425975
946.868973
946.4982
946.1303582
945.7657608
945.4043133
945.0464513
944.6919161
944.3411946
943.9939959
959.2551662
959.2267607
959.1658895
959.075995
958.9591003
958.8171109
958.6515206
958.4638951
958.255792
958.0288957
957.7842962
957.5234287
957.247726
956.9581085
956.656131
956.3425349
956.0185901
955.6851478
955.3432781
954.9937767
954.6375839
954.2753687
953.9080659
953.5361271
953.1605504
952.7815614
952.4001401
952.0165022
951.6314022
951.2451877
950.8582781
950.4712532
950.0842252
949.6979666
949.3124249
948.928172
948.5453564
948.1642452
947.7852142
947.4082724
947.0339602
946.6621045
946.2932177
945.9271849
945.5643488
945.2047442
944.8485299
944.4958261
944.146669
943.8012586
958.9854305
958.9572156
958.8967634
958.8074864
958.6913553
958.5501107
958.3853868
958.198892
957.9921466
957.7664219
957.5232049
957.2639528
956.9896628
956.7018658
956.4014795
956.0896629
955.7675063
955.435893
955.0959386
954.7483256
954.3940884
954.0338567
953.6684926
953.2986411
952.9249353
952.54809
952.1684863
951.787014
951.4037885
951.0196403
950.6347209
950.2496189
949.8646925
949.4802166
949.0967498
948.7142816
948.3334629
947.9542217
947.5770449
947.2020465
946.8294417
946.4595214
946.0922734
945.7281284
945.3669095
945.0091485
944.6545602
944.3035935
943.9560621
943.6123109
958.7216141
958.6935504
958.633411
958.5445951
958.4290627
958.288551
958.1249384
957.939546
957.7338516
957.5094157
957.2676775
957.009734
956.7371098
956.4508635
956.1520762
955.8420514
955.5215112
955.1918694
954.8535724
954.5080032
954.155503
953.7973325
953.4337964
953.0659658
952.6941843
952.3192746
951.9417272
951.5620899
951.1809508
950.7985668
950.4157205
950.0324581
949.649508
949.2669809
948.8853369
948.5048677
948.125746
947.7484753
947.3729976
946.999909
946.6290614
946.2609192
945.8954699
945.532986
945.1735961
944.8173892
944.4645775
944.1151294
943.7693341
943.4270649
947.9223035
947.546776
947.1732027
946.8017376
946.4327628
946.0662069
945.7025862
945.341702
944.9840657
944.6294691
944.2783094
943.9304743
943.5862548
943.2455809
)
;

boundaryField
{
    front_top
    {
        type            wedge;
    }
    front_middle
    {
        type            wedge;
    }
    front_bottom
    {
        type            wedge;
    }
    back_top
    {
        type            wedge;
    }
    back_middle
    {
        type            wedge;
    }
    back_bottom
    {
        type            wedge;
    }
    axis_top
    {
        type            symmetryPlane;
    }
    axis_middle
    {
        type            symmetryPlane;
    }
    axis_bottom
    {
        type            symmetryPlane;
    }
    wall_top
    {
        type            calculated;
        value           nonuniform List<scalar> 
24
(
948.3400188
948.0536967
947.7737827
947.4997403
947.2316203
946.9692294
946.712278
946.4609558
946.2148053
945.9737747
945.7378939
945.5068092
945.2805178
945.0589735
944.841888
944.6292333
944.4210076
944.2169284
944.0169096
943.8210817
943.629115
943.4409225
943.2565391
943.0758573
)
;
    }
    wall_middle
    {
        type            calculated;
        value           nonuniform 0();
    }
    wall_bottom
    {
        type            calculated;
        value           nonuniform 0();
    }
    inlet
    {
        type            calculated;
        value           nonuniform 0();
    }
    outlet
    {
        type            calculated;
        value           nonuniform 0();
    }
    procBoundary8to7
    {
        type            processor;
        value           nonuniform List<scalar> 
51
(
958.4631589
958.4352376
958.3754032
958.2870458
958.1722844
958.0327017
957.8699099
957.6854452
957.4809656
957.2578466
957.0173104
956.7608935
956.4897579
956.2049421
955.907934
955.5994115
955.2807947
954.9527318
954.6164113
954.2724871
953.9220107
953.5655256
953.2040392
952.8379189
952.4681823
952.0950531
951.7195276
951.3417716
950.9625222
950.5821279
950.2010472
949.8198059
949.4385698
949.0580412
948.6781657
948.2995718
948.2995718
947.7229333
947.3490782
946.9773187
946.6075854
946.2402979
945.8755159
945.5134726
945.1543607
944.7982312
944.4453578
944.0956719
943.7495219
943.4067419
943.0677107
)
;
    }
    procBoundary8to9
    {
        type            processor;
        value           nonuniform List<scalar> 
51
(
966.9909659
966.9573293
966.4421216
966.4421216
966.3368359
966.1999408
966.0335319
965.8397468
965.6205093
965.377451
965.112489
964.8273183
964.5232972
964.2024101
963.865608
963.5147775
963.1507271
962.7752187
962.3889449
961.9934573
961.589477
961.1781086
960.7603923
960.3369421
959.9089515
959.4768626
959.0414657
958.603646
958.1637195
957.7224712
957.2804353
956.8379406
956.3957326
955.9540566
955.5132172
955.0739449
954.6362822
954.2005546
953.7673523
953.3366026
952.9087011
952.4839283
952.0622838
951.644258
951.2297969
950.8190297
950.4123357
950.0095357
949.6110241
949.2167368
948.8267672
)
;
    }
}


// ************************************************************************* //
