/*--------------------------------*- C++ -*----------------------------------*\
  =========                 |
  \\      /  F ield         | OpenFOAM: The Open Source CFD Toolbox
   \\    /   O peration     | Website:  https://openfoam.org
    \\  /    A nd           | Version:  7
     \\/     M anipulation  |
\*---------------------------------------------------------------------------*/
FoamFile
{
    version     2.0;
    format      ascii;
    class       volScalarField;
    location    "0.0003";
    object      T;
}
// * * * * * * * * * * * * * * * * * * * * * * * * * * * * * * * * * * * * * //

dimensions      [0 0 0 1 0 0 0];

internalField   nonuniform List<scalar> 
1166
(
411.2790498
411.3265111
411.8973537
411.94445
412.0453681
412.1943127
412.3877989
412.6230876
412.8974373
413.2081449
413.5523593
413.928117
414.3328377
414.7642331
415.2204754
415.6990386
416.1986122
416.7167397
417.252279
417.8030396
418.3679034
418.9452159
419.5335133
420.131801
420.7382877
421.3524095
421.9727695
422.5983106
423.228401
423.8616689
424.4976494
425.1356372
425.7743464
426.4137131
427.0529457
427.6911537
428.3282135
428.963326
429.5960281
430.2261602
430.8528787
431.4761772
432.0957346
432.7107969
433.3215981
433.9275736
434.5285526
435.1245173
435.7147587
436.2996324
436.8786053
437.4517256
412.5014282
412.548092
412.6480855
412.7957468
412.987804
413.2212496
413.4931674
413.8012455
414.1430196
414.5155234
414.9170403
415.3451052
415.7975669
416.2726623
416.7681309
417.2825456
417.8137778
418.3605612
418.9211745
419.4941359
420.0782763
420.6718868
421.274275
421.8838416
422.4997308
423.121084
423.7464262
424.3754526
425.0070945
425.6404091
426.2750677
426.9100496
427.5448506
428.1790823
428.8116882
429.4426245
430.0713497
430.6971118
431.3199752
431.9392696
432.5546695
433.1661281
433.7728566
434.3751042
434.9723968
435.5644371
436.1513409
436.7323508
437.3079066
437.8775055
413.0918423
413.1381671
413.2372957
413.3836575
413.5740358
413.8055717
414.0755828
414.38113
414.7199704
415.0898866
415.4880885
415.9128627
416.3619353
416.8332925
417.3251731
417.8355536
418.3629796
418.9056941
419.4621655
420.0310757
420.6107737
421.200448
421.7982999
422.4036611
423.0153274
423.632094
424.2534324
424.8780378
425.5053089
426.1346273
426.7648059
427.3956632
428.0263758
428.6561869
429.2849171
429.9117035
430.536243
431.1583134
431.7770039
432.3924322
433.0040576
433.6114729
434.2147426
434.8131255
435.4067553
435.9952821
436.5783635
437.1561938
437.728059
438.2943803
413.6685693
413.7144968
413.812917
413.9582645
414.1473284
414.3768964
414.6446135
414.9479502
415.2842636
415.6510785
416.0465189
416.4679624
416.9136969
417.3815739
417.8697228
418.3764572
418.9000188
419.4387916
419.9913374
420.5560349
421.1319364
421.7171347
422.3110457
422.9121588
423.5195276
424.1323766
424.7492433
425.3697837
425.9929294
426.6178822
427.2442259
427.8708368
428.4973965
429.1234126
429.7478571
430.3707649
430.9914355
431.6093838
432.22451
432.8359634
433.443803
434.0476853
434.6470486
435.2420413
435.8319706
436.4169332
436.9966557
437.5708259
438.139643
438.7023859
414.2326245
414.2781654
414.3757575
414.5198833
414.7073603
414.935377
415.2012105
415.5020245
415.8357795
416.2001004
416.592327
417.0108683
417.453211
417.9176907
418.4023403
418.9054397
419.4252487
419.9602431
420.5087989
421.069776
421.6413747
422.2228652
422.8125139
423.4096179
424.0130039
424.6215184
425.2346014
425.8508898
426.4699727
427.0911068
427.7131387
428.3359137
428.9585094
429.5803524
430.2011916
430.8200357
431.4368724
432.0511947
432.6622895
433.2702462
433.8743557
434.4745269
435.0705264
435.6617355
436.2483722
436.8297777
437.4060867
437.9770295
438.5423213
439.102087
414.7837969
414.8290352
414.9259793
415.0691491
415.2552115
415.4813529
415.7450958
416.0439532
416.3751874
416.7366661
417.1263835
417.5415991
417.9809133
418.442025
418.9232958
419.4228182
419.93902
420.4702381
421.015168
421.5720895
422.1401241
422.7173666
423.3032918
423.8963564
424.4957033
425.100482
425.7092728
426.3218034
426.936939
427.5539391
428.1723635
428.7910043
429.4097486
430.0278712
430.6446355
431.259953
431.8729736
432.4834706
433.0911328
433.6952396
434.295934
434.8925377
435.4849129
436.0728915
436.6558731
437.2341295
437.8070123
438.3746922
438.9368185
439.4932396
415.322907
415.367777
415.4639328
415.6059418
415.7906734
416.015364
416.2772177
416.5737003
416.9026709
417.2616842
417.6483071
418.0608993
418.4969586
418.9549768
419.4328305
419.9289427
420.4415709
420.9692777
421.5103906
422.0637944
422.6277319
423.2015162
423.7833561
424.3726752
424.9682073
425.5688757
426.1741331
426.7825917
427.3939216
428.0071787
428.6215162
429.2366336
429.8514638
430.4657637
431.0790278
431.6904362
432.2999575
432.9067977
433.5107461
434.1116039
434.7085739
435.301852
435.8907833
436.475257
437.0551258
437.6298787
438.1997708
438.7640872
439.3231164
439.8764318
415.8499701
415.8945562
415.9901044
416.1312174
416.3145232
416.5374484
416.7974537
417.0920922
417.4185703
417.7749573
418.1591968
418.5686416
419.0019239
419.4566668
419.931336
420.4240648
420.9333187
421.4574381
421.9950986
422.5446641
423.1052249
423.6749651
424.2533515
424.8387868
425.4305257
426.0275683
426.6288149
427.2337991
427.8412183
428.4506889
429.061486
429.6726307
430.2839731
430.894561
431.5040816
432.1121679
432.7178614
433.3213006
433.9217811
434.5190202
435.1128669
435.7025339
436.2882582
436.8693945
437.4459281
438.017661
438.584162
439.1456354
439.701364
440.2517816
416.3655517
416.4097912
416.5045974
416.6446166
416.8267658
417.0483241
417.3064747
417.5988251
417.9232288
418.2772693
418.6586291
419.0656323
419.4957605
419.9475752
420.4190361
420.9085524
421.4144373
421.9351894
422.4692625
423.0154657
423.572184
424.138668
424.7131291
425.2950867
425.8830787
426.4763901
427.0741964
427.6752254
428.2791951
428.8849447
429.4919781
430.0997635
430.7072567
431.3144283
431.9204196
432.5247942
433.1273167
433.7270956
434.3242775
434.9181675
435.5085033
436.0951415
436.6773739
437.2554649
437.8287545
438.3973167
438.9608269
439.519039
440.0720258
440.6192467
416.8698262
416.9137983
417.0080319
417.1472064
417.3279574
417.547814
417.8042512
418.0948603
418.4169266
418.7685306
419.1476507
419.551598
419.9790879
420.4278524
420.8962895
421.3826415
421.8852662
422.4026724
422.9334161
423.4760547
424.0294852
424.5921815
425.1634607
425.7415596
426.3261351
426.9158801
427.5099402
428.1076742
428.7078093
429.3101384
429.9136068
430.5176887
431.1219813
431.7254541
432.3280806
432.9290406
433.5279891
434.1247284
434.7183646
435.3090663
435.8961371
436.4794028
437.0586872
437.6334276
438.203845
438.7691939
439.3297159
439.8849676
440.4348939
440.9793757
417.3631906
417.4068284
417.5003463
417.6384657
417.8181484
418.036714
418.2914309
418.5798997
418.9000127
419.2494162
419.6257212
420.0273553
420.4519334
420.8978916
421.3633536
421.8465764
422.3460854
422.8602149
423.3876627
423.9269973
424.4769294
425.0364043
425.6039116
426.1789061
426.7597961
427.3461348
427.9367289
428.5307785
429.1277421
429.7263366
430.3264534
430.9271105
431.5278108
432.128201
432.7272001
433.3249196
433.9205912
434.5138729
435.104553
435.6918129
436.2758331
436.8559031
437.4320006
438.0038506
438.5710217
439.1336456
439.6910032
440.2434782
440.7904347
441.3320976
417.8458204
417.8892057
417.9821827
418.119504
418.2979216
418.5148953
418.7679799
419.0548023
419.3727187
419.7197269
420.0939133
420.4927525
420.9147731
421.3579277
421.8204177
422.3007417
422.7970489
423.308141
423.832287
424.3684062
424.915071
425.471068
426.0354233
426.606792
427.184615
427.7673224
428.3545793
428.9452718
429.5386124
430.1341515
430.7306425
431.3280508
431.9254483
432.5223043
433.1183242
433.71257
434.3051252
434.895206
435.4825569
436.0669165
436.6476047
437.224801
437.7977616
438.3666052
438.9308856
439.4904
440.0451105
440.5945181
441.1389215
441.6775995
418.3181898
418.3612623
418.4535697
418.5899038
418.7672686
418.9830215
419.2345427
419.519281
419.8352695
420.180306
420.5518383
420.9484023
421.3677708
421.808139
422.2679317
422.7451533
423.2386692
423.7464821
424.2676873
424.8005083
425.3440046
425.8967488
426.4577519
427.0260286
427.600259
428.1799759
428.7636949
429.3511184
429.9411913
430.5332005
431.1267326
431.7206505
432.3148788
432.9084968
433.501143
434.0924929
434.6816787
435.2687745
435.8529695
436.4341564
437.0119879
437.5859833
438.1562602
438.7219686
439.2834367
439.8400627
440.3918789
440.9386152
441.4800794
442.0162583
418.7803574
418.823191
418.9149867
419.0505658
419.2268202
419.4410219
419.6908824
419.9740627
420.2881082
420.630776
421.0003027
421.3943436
421.8111419
422.2489969
422.705813
423.1804752
423.6707567
424.1758931
424.6937864
425.2237412
425.7638983
426.3136024
426.8714023
427.436376
428.0075486
428.5837705
429.1645765
429.7485244
430.3354315
430.9242496
431.5143928
432.1054127
432.6962118
433.2868071
433.8763052
434.4644205
435.0507525
435.6345735
436.2159395
436.7940019
437.3688599
437.9400245
438.5071977
439.0702979
439.6287354
440.1827747
440.7316642
441.275758
441.8144896
442.3479793
419.2328969
419.2754256
419.3665686
419.5011851
419.6763197
419.8893662
420.1378818
420.4191156
420.7312079
421.0720543
421.4391623
421.8308822
422.2453316
422.6803643
423.1348118
423.6063335
424.0941052
424.5960199
425.1112784
425.6378877
426.1753106
426.7217116
427.2765482
427.8383043
428.4062883
428.9794796
429.5568678
430.1379965
430.7214996
431.3072849
431.894301
432.4820204
433.0699716
433.6572779
434.2439004
434.8289011
435.4121474
435.9931315
436.5713228
437.1467412
437.7185056
438.2868946
438.8512091
439.4114156
439.9672312
440.5183301
441.064769
441.6059978
442.1423179
442.6730039
419.6755773
419.7178798
419.8085383
419.9424401
420.1166462
420.3282824
420.5750967
420.8548362
421.1652709
421.5037997
421.8688712
422.2583845
422.6701969
423.1030062
423.5544854
424.0236026
424.5083709
425.0076824
425.5197761
426.0437285
426.5779184
427.1216468
427.6731613
428.2320782
428.796854
429.3669661
429.9413437
430.5191605
431.0998994
431.6824016
432.2664965
432.8510986
433.4359299
434.0204269
434.6038544
435.1861327
435.7662705
436.3443427
436.9197026
437.4920723
438.061279
438.6266643
439.1884043
439.7457272
440.2988801
440.8473038
441.3910218
441.9297534
442.4633071
442.9916607
420.1092517
420.1513314
420.2413741
420.3743677
420.5473948
420.7578837
421.0034245
421.2815141
421.5898869
421.9266776
422.2896604
422.6767552
423.0864935
423.5165378
423.9656943
424.4320528
424.9142313
425.4106663
425.9200389
426.4410257
426.9724826
427.5130322
428.0618739
428.617548
429.1796044
429.746499
430.3179365
430.8927534
431.4703503
432.0500939
432.6309559
433.212803
433.7945612
434.3761009
434.9567199
435.5358884
436.1134262
436.6884342
437.2610927
437.8306267
438.396992
438.9597655
439.5186055
440.0734924
440.6237969
441.1698188
441.7107843
442.2470513
442.7780138
443.3038986
420.5335316
420.5753322
420.6649161
420.7972328
420.9693805
421.1787553
421.4226639
421.6991143
422.0059277
422.3407205
422.7015392
423.0867132
423.4938687
423.9217011
424.3683279
424.8321326
425.3117102
425.8053799
426.312083
426.8302541
427.3588666
427.8965959
428.4424215
428.9953667
429.5542427
430.1185201
430.6867738
431.2588134
431.8334181
432.4101416
432.9882369
433.5669775
434.1461466
434.7246098
435.3024415
435.8787784
436.4533471
437.0257868
437.5954959
438.1625452
438.7260218
439.2861762
439.8423561
440.3945296
440.94238
441.4856548
442.0243049
442.5578793
443.0865877
443.6098571
420.9491944
420.9907859
421.0799218
421.2114796
421.382496
421.5905411
421.8332338
422.1083078
422.4131845
422.7461057
423.1051607
423.487911
423.8929964
424.3185101
424.762644
425.2241089
425.7008991
426.1921849
426.6960058
427.211659
427.7373171
428.2723767
428.815305
429.3653871
429.9214818
430.4826989
431.0483475
431.6173099
432.1892846
432.7629661
433.3382403
433.9142104
434.4903629
435.0662949
435.6411294
436.2148707
436.7865752
437.356275
437.9233811
438.4875653
439.0486316
439.6059804
440.1597897
440.7092184
441.254628
441.7953444
442.331491
442.8626668
443.388865
443.9098708
421.3561825
421.3975038
421.4860607
421.6168613
421.7870376
421.9940613
422.2354298
422.5087319
422.8120699
423.1433883
423.5001528
423.8810083
424.2839663
424.7070746
425.1491118
425.6077928
426.0823726
426.5708272
427.0723264
427.5850295
428.108294
428.6403629
429.1807868
429.7278875
430.2812966
430.8396746
431.4024619
431.9687699
432.5377063
433.1088841
433.6811749
434.2545114
434.8278516
435.4009549
435.9732077
436.5440369
437.1133154
437.6801675
438.24476
438.8062621
439.3646881
439.9195725
440.4706552
441.017808
441.560555
442.0990261
442.6325615
443.1615354
443.6852101
444.2040082
421.7547136
421.7958348
421.883963
422.014131
422.1834321
422.389134
422.6291037
422.9011066
423.2029205
423.53214
423.887221
424.2661178
424.6667864
425.0879256
425.5273093
425.9838919
426.4558565
426.9419923
427.4407671
427.9510454
428.4714777
429.0011078
429.5385877
430.0832734
430.633718
431.1896036
431.7495034
432.3131097
432.879321
433.4476314
434.0174275
434.5878575
435.158757
435.7289854
436.2986181
436.8668072
437.4333289
437.9977826
438.5596057
439.1187777
439.6744895
440.2269895
440.7755073
441.3202042
441.8605603
442.3965131
442.9278153
443.4542764
443.9758309
444.4921686
422.1452942
422.1861624
422.2737331
422.4030796
422.5713689
422.7761058
423.0149527
423.2854663
423.5854767
423.913176
424.266443
424.6431983
425.0420296
425.4607464
425.8980484
426.3522812
426.8218879
427.3056105
427.8018487
428.3096318
428.8274719
429.3544695
429.8893822
430.4312821
430.9792566
431.5322701
432.0897741
432.6504704
433.2141962
433.7797353
434.3468684
434.9147301
435.4827932
436.0506511
436.617477
437.1832833
437.7471026
438.3090367
438.8683581
439.4248907
439.9783076
440.5281683
441.0744821
441.616599
442.1547722
442.6881992
443.2172943
443.7413767
444.2607133
444.7747774
422.5275161
422.5681876
422.6553532
422.7841022
422.9516157
423.1554016
423.3927664
423.6618269
423.9604734
424.2864771
424.6377842
425.0128374
425.4094565
425.8261366
426.2613383
426.7131957
427.1806876
427.6617809
428.1558514
428.6609042
429.1764638
429.7007069
430.2332062
430.7724095
431.3178275
431.8682661
432.4230154
432.9812794
433.5422
434.1054047
434.6697445
435.2351531
435.8005567
436.3657915
436.9301753
437.493274
438.0548278
438.6140861
439.1711286
439.7250644
440.2761054
440.8235539
441.3674192
441.9072869
442.4429551
442.9742813
443.5009383
444.0229621
444.5399099
445.0519594
438.3563515
438.9132635
439.4677157
440.0194727
440.5679596
441.1132744
441.6546402
442.1923436
442.7256131
443.2547485
443.7791471
444.2989657
444.8137582
445.323618
)
;

boundaryField
{
    front_top
    {
        type            wedge;
    }
    front_middle
    {
        type            wedge;
    }
    front_bottom
    {
        type            wedge;
    }
    back_top
    {
        type            wedge;
    }
    back_middle
    {
        type            wedge;
    }
    back_bottom
    {
        type            wedge;
    }
    axis_top
    {
        type            symmetryPlane;
    }
    axis_middle
    {
        type            symmetryPlane;
    }
    axis_bottom
    {
        type            symmetryPlane;
    }
    wall_top
    {
        type            convectiveRadiativeHeatFlux;
        mode            convectiveRadiative;
        kappaMethod     fluidThermo;
        kappa           none;
        alphaAni        Anialpha;
        h               uniform 165;
        Ta              constant 513.15;
        emissivityNozzle 0.95;
        emissivityFilament 0.95;
        dNozzle         2;
        dFilament       1.65;
        refValue        uniform 513.15;
        refGradient     nonuniform List<scalar> 
24
(
6549.149484
6518.727358
6488.737939
6459.301258
6430.565107
6402.468444
6374.886084
6348.058847
6321.717759
6295.820006
6270.312333
6245.265785
6220.759654
6196.82731
6173.324141
6150.258563
6127.641278
6105.427503
6083.612072
6062.231253
6041.230098
6020.601474
6000.437169
5980.702986
)
;
        valueFraction   nonuniform List<scalar> 
24
(
0.003203308996
0.003202423268
0.00320147556
0.003200548162
0.003199709501
0.003198937453
0.003198182482
0.00319755368
0.003196938147
0.003196314896
0.003195653098
0.003195005023
0.003194409646
0.00319388526
0.003193371663
0.003192873104
0.003192393702
0.003191924046
0.003191464719
0.003191026174
0.003190596446
0.003190175329
0.003189808263
0.00318948232
)
;
        value           nonuniform List<scalar> 
24
(
437.7373923
438.1615978
438.576557
438.9830494
439.3809846
439.7706349
440.1524169
440.5260356
440.8921582
441.2508503
441.6020556
441.9462899
442.283547
442.6138855
442.937726
443.2551011
443.5660046
443.8708499
444.1697579
444.4625258
444.749639
445.0312208
445.3072122
445.5777675
)
;
    }
    wall_middle
    {
        type            fixedValue;
        value           nonuniform 0();
    }
    wall_bottom
    {
        type            fixedValue;
        value           nonuniform 0();
    }
    inlet
    {
        type            fixedValue;
        value           nonuniform 0();
    }
    outlet
    {
        type            zeroGradient;
    }
    procBoundary8to7
    {
        type            processor;
        value           nonuniform List<scalar> 
51
(
422.9021748
422.9426617
423.0294319
423.1575852
423.32407
423.5266169
423.762917
424.0307733
424.3278134
424.6520749
425.0018186
425.3748467
425.7695047
426.1843163
426.6171483
427.0670451
427.5319669
428.0109965
428.5024255
429.0053231
429.5181747
430.0402055
430.5699588
431.1069129
431.6495894
432.1976729
432.7497101
433.305466
433.8638631
434.4243936
434.9863854
435.5490654
436.1121896
436.6747199
437.2367349
437.7973018
437.7973018
438.651965
439.2066292
439.7586186
440.3080297
440.8542314
441.3971269
441.9363609
442.4716366
443.002869
443.5296394
444.05204
444.5695395
445.082375
445.5899687
)
;
    }
    procBoundary8to9
    {
        type            processor;
        value           nonuniform List<scalar> 
51
(
410.6459173
410.6938356
411.4282099
411.4282099
411.57838
411.7736837
412.0111683
412.287825
412.6009526
412.9482688
413.3270834
413.7350226
414.1701933
414.6298032
415.1125376
415.6157377
416.1382867
416.6776963
417.2330094
417.8020304
418.3837539
418.9766184
419.5791512
420.1904898
420.8089315
421.4338549
422.0641322
422.6984941
423.3364925
423.9769965
424.619236
425.2627363
425.9064145
426.5499128
427.1927854
427.8339631
428.4733783
429.1105489
429.7446039
430.3756406
431.0030694
431.6264684
432.2458265
432.8604107
433.4702874
434.0752531
434.6747352
435.2689833
435.8574007
436.4400671
437.0168293
)
;
    }
}


// ************************************************************************* //
