/*--------------------------------*- C++ -*----------------------------------*\
  =========                 |
  \\      /  F ield         | OpenFOAM: The Open Source CFD Toolbox
   \\    /   O peration     | Website:  https://openfoam.org
    \\  /    A nd           | Version:  7
     \\/     M anipulation  |
\*---------------------------------------------------------------------------*/
FoamFile
{
    version     2.0;
    format      ascii;
    class       volScalarField;
    location    "0.0003";
    object      thermo:alpha;
}
// * * * * * * * * * * * * * * * * * * * * * * * * * * * * * * * * * * * * * //

dimensions      [1 -1 -1 0 0 0 0];

internalField   nonuniform List<scalar> 
1166
(
0.0001207057884
0.0001207135583
0.0001208069696
0.0001208146729
0.0001208311777
0.0001208542486
0.0001208802733
0.0001209119108
0.0001209487869
0.0001209882874
0.0001210212271
0.0001210571667
0.0001210958546
0.0001211370674
0.0001211792674
0.000121215705
0.0001212532473
0.0001212876523
0.0001213222022
0.0001213534197
0.0001213833155
0.0001214104365
0.0001214343656
0.0001214566801
0.0001214736334
0.0001214906082
0.0001215077403
0.0001215164042
0.0001215209507
0.0001215202053
0.0001215194574
0.0001215187078
0.0001215060144
0.0001214930447
0.0001214800897
0.0001214619983
0.000121443031
0.0001214241389
0.0001214010811
0.000121375639
0.0001213451066
0.000121314768
0.0001212846383
0.0001212494162
0.0001212123236
0.0001211714126
0.0001211308738
0.0001210907076
0.0001210509608
0.000121010188
0.0001209657715
0.0001209189781
0.0001208955535
0.0001209018279
0.0001209152714
0.0001209351201
0.0001209609301
0.0001209895418
0.0001210155639
0.0001210450342
0.0001210777124
0.0001211133104
0.0001211516594
0.0001211887591
0.0001212232038
0.000121258166
0.0001212910634
0.0001213239183
0.0001213540281
0.0001213829705
0.0001214093076
0.0001214328962
0.0001214546845
0.0001214717971
0.0001214884494
0.0001215052853
0.0001215155749
0.0001215208
0.0001215203409
0.000121519601
0.0001215188587
0.0001215087329
0.0001214958562
0.0001214829847
0.0001214663566
0.0001214474695
0.000121428648
0.0001214071015
0.0001213824353
0.0001213526927
0.0001213223685
0.0001212922448
0.0001212584852
0.0001212228255
0.0001211818546
0.0001211412213
0.0001211009569
0.0001210610803
0.0001210215702
0.0001209769881
0.0001209313629
0.0001208823274
0.0001209749085
0.000120981132
0.0001209910776
0.0001210050852
0.0001210233009
0.0001210454479
0.0001210712658
0.0001211004694
0.00012113284
0.0001211681612
0.0001211996465
0.0001212319773
0.0001212640951
0.0001212953882
0.0001213263353
0.0001213552619
0.0001213830841
0.0001214085806
0.0001214317032
0.0001214529246
0.0001214701069
0.0001214864093
0.0001215029236
0.0001215147666
0.000121519911
0.0001215204755
0.0001215197445
0.0001215190103
0.0001215114754
0.0001214987046
0.0001214859278
0.0001214708018
0.0001214520155
0.0001214332729
0.0001214132922
0.0001213886964
0.000121360529
0.0001213302364
0.0001213001352
0.0001212679112
0.0001212323871
0.000121192749
0.0001211520374
0.0001211116902
0.0001210716976
0.0001210320821
0.0001209888003
0.0001209444303
0.0001208951891
0.0001208478335
0.0001210323442
0.0001210367373
0.0001210461504
0.0001210600493
0.0001210781243
0.0001211000648
0.0001211256422
0.0001211546107
0.0001211841257
0.0001212120545
0.0001212421462
0.000121271136
0.000121300724
0.0001213295329
0.0001213571977
0.0001213837175
0.0001214083141
0.0001214308309
0.0001214514429
0.0001214685929
0.0001214845159
0.0001215006824
0.0001215139873
0.0001215190436
0.000121520608
0.0001215198869
0.0001215191617
0.0001215142272
0.0001215015791
0.0001214889056
0.0001214753151
0.0001214566468
0.0001214379968
0.0001214193797
0.0001213951238
0.0001213685917
0.0001213383601
0.0001213082878
0.0001212776698
0.0001212421471
0.0001212040704
0.0001211633077
0.0001211228849
0.0001210827909
0.0001210430718
0.0001210011862
0.0001209567196
0.0001209087239
0.000120859774
0.0001208166207
0.0001210862771
0.0001210906297
0.000121099956
0.0001211137269
0.0001211316356
0.0001211534102
0.0001211778
0.0001212007075
0.0001212261118
0.0001212533461
0.0001212793933
0.0001213071718
0.000121333594
0.0001213599151
0.0001213849339
0.0001214085686
0.0001214303255
0.0001214502834
0.0001214672863
0.0001214827979
0.0001214985903
0.0001215132452
0.0001215182058
0.0001215207374
0.0001215200273
0.0001215193118
0.0001215169725
0.0001215044611
0.0001214919041
0.0001214793167
0.0001214613434
0.0001214428018
0.0001214242821
0.0001214016962
0.000121376856
0.000121346706
0.0001213166804
0.0001212868034
0.0001212522336
0.0001212157922
0.0001211750041
0.0001211345167
0.0001210943451
0.00012105453
0.0001210141222
0.0001209695159
0.000120922908
0.0001208737637
0.0001208288636
0.0001207860608
0.0001211389357
0.0001211432559
0.0001211525129
0.0001211661816
0.000121181913
0.0001211991336
0.0001212192105
0.000121241951
0.0001212649752
0.0001212889749
0.0001213148355
0.0001213386042
0.0001213634964
0.0001213867989
0.0001214094072
0.0001214302348
0.000121449492
0.0001214662196
0.0001214812884
0.0001214966767
0.0001215123593
0.0001215174056
0.0001215208626
0.0001215201645
0.0001215194597
0.000121518749
0.0001215073351
0.0001214949084
0.0001214824398
0.0001214660859
0.0001214476695
0.0001214292631
0.0001214083919
0.0001213841403
0.0001213552487
0.0001213252895
0.0001212954683
0.0001212626216
0.0001212273322
0.0001211870939
0.0001211465609
0.0001211063383
0.0001210664346
0.0001210268605
0.0001209828543
0.0001209377171
0.0001208883939
0.0001208416881
0.0001207986946
0.0001207529202
0.0001211870686
0.0001211904856
0.0001211978073
0.0001212086186
0.0001212226792
0.0001212397761
0.0001212584685
0.0001212781567
0.0001212999923
0.0001213227355
0.0001213446519
0.0001213680269
0.0001213893802
0.0001214108949
0.0001214306085
0.0001214491162
0.0001214654265
0.0001214800199
0.0001214949725
0.0001215102527
0.0001215166517
0.0001215209824
0.0001215202975
0.0001215196043
0.0001215189044
0.0001215101849
0.0001214979033
0.0001214855674
0.0001214708537
0.000121452587
0.0001214343043
0.0001214151878
0.0001213910593
0.0001213639628
0.0001213340959
0.0001213043454
0.000121273285
0.000121238034
0.00012119955
0.0001211589952
0.0001211187374
0.0001210787624
0.0001210391138
0.0001209967109
0.0001209522368
0.0001209036402
0.0001208550738
0.0001208119021
0.0001207675291
0.0001207200276
0.0001212271916
0.0001212305844
0.0001212378543
0.0001212485893
0.0001212609463
0.0001212757498
0.0001212930096
0.0001213125606
0.0001213316303
0.0001213518286
0.0001213735053
0.0001213927484
0.0001214130993
0.000121431498
0.0001214492054
0.0001214649422
0.0001214790258
0.0001214935098
0.0001215083566
0.0001215159529
0.0001215206667
0.000121520425
0.0001215197446
0.0001215190565
0.0001215129938
0.0001215008763
0.000121488684
0.0001214756259
0.0001214575288
0.0001214393865
0.0001214212206
0.0001213980753
0.0001213728213
0.0001213430769
0.0001213134104
0.0001212838395
0.0001212490059
0.0001212123437
0.0001211718035
0.0001211315166
0.0001210914925
0.0001210517837
0.0001210110609
0.0001209664778
0.0001209194773
0.0001208702679
0.0001208256631
0.0001207827322
0.0001207350529
0.0001206868619
0.0001212643353
0.0001212672732
0.0001212735686
0.0001212828647
0.000121294955
0.0001213096569
0.0001213252751
0.0001213418476
0.0001213602288
0.0001213790557
0.0001213969761
0.0001214160906
0.0001214329568
0.000121449811
0.0001214648031
0.0001214783412
0.0001214923219
0.0001215067029
0.0001215153186
0.0001215199122
0.000121520546
0.0001215198795
0.0001215192041
0.0001215157441
0.0001215038079
0.000121491774
0.0001214796592
0.0001214624727
0.0001214444898
0.0001214264695
0.0001214051645
0.0001213813211
0.0001213521986
0.0001213226384
0.0001212931614
0.0001212602208
0.0001212252318
0.0001211849435
0.0001211446492
0.0001211046111
0.0001210648462
0.0001210253636
0.000120981205
0.0001209358795
0.0001208865228
0.0001208399571
0.0001207968591
0.0001207507051
0.000120703245
0.0001206518755
0.0001212978127
0.0001213007308
0.0001213069836
0.0001213162168
0.0001213264931
0.0001213389564
0.0001213534884
0.0001213699503
0.0001213856194
0.0001214021386
0.0001214199412
0.0001214350404
0.0001214509861
0.000121465047
0.0001214780021
0.0001214914435
0.0001215053247
0.0001215147583
0.0001215192224
0.0001215206591
0.0001215200079
0.0001215193463
0.0001215184175
0.0001215066798
0.0001214948206
0.0001214828665
0.0001214673967
0.0001214495952
0.0001214317375
0.0001214123021
0.0001213886218
0.0001213614329
0.0001213320049
0.0001213026422
0.0001212716506
0.0001212367425
0.0001211983857
0.0001211581098
0.0001211180774
0.0001210782765
0.0001210387535
0.0001209963928
0.0001209519638
0.0001209033347
0.000120854762
0.0001208115116
0.0001207669623
0.0001207192951
0.0001206694255
0.0001206176052
0.0001213284907
0.0001213309646
0.0001213362659
0.0001213440941
0.0001213542758
0.0001213666571
0.0001213797213
0.0001213932773
0.0001214083138
0.0001214237628
0.0001214378059
0.0001214527859
0.0001214657132
0.0001214780464
0.0001214909106
0.0001215042565
0.0001215142822
0.0001215186069
0.0001215207632
0.0001215201285
0.0001215194817
0.0001215188243
0.0001215094737
0.0001214978065
0.0001214860293
0.0001214722778
0.0001214546847
0.0001214370036
0.000121419251
0.0001213959681
0.0001213707511
0.000121341492
0.000121312256
0.0001212830602
0.0001212484635
0.0001212120993
0.0001211718838
0.0001211318636
0.0001210920526
0.0001210525054
0.0001210120145
0.0001209675124
0.0001209206766
0.0001208714561
0.0001208266682
0.0001207836486
0.0001207359423
0.0001206876527
0.0001206355828
0.0001205857793
0.0001213558435
0.0001213583014
0.0001213635683
0.000121371346
0.0001213800264
0.0001213902231
0.0001214021127
0.0001214155821
0.0001214283651
0.0001214413129
0.0001214552675
0.0001214668424
0.0001214785131
0.0001214907607
0.0001215035343
0.0001215139006
0.0001215180757
0.0001215208568
0.0001215202399
0.0001215196093
0.0001215189668
0.0001215121706
0.000121500717
0.0001214891304
0.0001214770919
0.0001214597296
0.0001214422464
0.0001214246757
0.0001214033343
0.0001213799726
0.0001213510596
0.0001213219755
0.0001212929168
0.0001212603654
0.0001212257538
0.000121185924
0.000121145941
0.0001211061585
0.0001210665933
0.0001210272625
0.0001209834885
0.0001209385206
0.00012088919
0.0001208423069
0.0001207991482
0.000120753164
0.0001207055541
0.0001206542293
0.0001206024282
0.0001205562008
0.000121380979
0.0001213830034
0.0001213873414
0.0001213937473
0.0001214020793
0.0001214122118
0.0001214232076
0.0001214338345
0.0001214456227
0.0001214581973
0.0001214684768
0.0001214794428
0.0001214910326
0.0001215031953
0.0001215136245
0.0001215176393
0.0001215209386
0.0001215203408
0.0001215197277
0.0001215191014
0.0001215147507
0.0001215035305
0.0001214921518
0.0001214806349
0.0001214647059
0.0001214474429
0.0001214300753
0.0001214106933
0.0001213875398
0.0001213606772
0.0001213317737
0.0001213028758
0.0001212724178
0.0001212379354
0.0001212001984
0.0001211602846
0.0001211205504
0.0001210809903
0.0001210416585
0.0001209998646
0.0001209555441
0.000120907419
0.0001208584039
0.0001208151231
0.000120770937
0.0001207231487
0.0001206735211
0.0001206214831
0.0001205731087
0.0001205272222
0.0001214026941
0.0001214047059
0.000121409017
0.0001214153832
0.0001214229193
0.0001214309142
0.0001214402369
0.0001214507987
0.0001214611805
0.0001214706601
0.0001214808775
0.0001214917668
0.0001215032782
0.0001215134651
0.0001215173084
0.0001215210072
0.00012152043
0.0001215198357
0.0001215192268
0.0001215171931
0.0001215062264
0.0001214950747
0.0001214837677
0.0001214695887
0.000121452576
0.0001214354271
0.000121418017
0.0001213950976
0.0001213703136
0.0001213416313
0.0001213129088
0.0001212841679
0.0001212502633
0.0001212146735
0.0001211748725
0.0001211351982
0.0001210956773
0.0001210563585
0.0001210166116
0.0001209722596
0.0001209261137
0.0001208769477
0.0001208315505
0.0001207884906
0.0001207412874
0.0001206934341
0.0001206411758
0.0001205906039
0.0001205444856
0.0001204969795
0.0001214231461
0.0001214247337
0.0001214281356
0.0001214331593
0.0001214396936
0.0001214476402
0.0001214569068
0.0001214648053
0.0001214734376
0.0001214828608
0.0001214930049
0.0001215038232
0.0001215134343
0.0001215170944
0.0001215209154
0.0001215205058
0.0001215199319
0.0001215193417
0.0001215187364
0.000121508784
0.0001214978794
0.0001214868012
0.0001214743517
0.0001214576156
0.0001214407076
0.0001214236586
0.0001214026178
0.0001213798219
0.0001213515049
0.0001213229861
0.0001212944313
0.0001212627058
0.0001212285606
0.0001211896566
0.0001211500706
0.000121110627
0.0001210713345
0.0001210322268
0.0001209893404
0.0001209452136
0.0001208960114
0.0001208484063
0.0001208052401
0.0001207599462
0.0001207122361
0.0001206614819
0.0001206094816
0.0001205623294
0.0001205164391
0.0001204661227
0.0001214396659
0.000121441244
0.0001214446256
0.0001214496195
0.0001214561151
0.0001214622921
0.0001214691201
0.000121476856
0.0001214854372
0.0001214947905
0.000121504872
0.0001215135441
0.0001215170089
0.0001215206481
0.0001215205668
0.0001215200148
0.0001215194448
0.000121518858
0.0001215111817
0.0001215005485
0.0001214897157
0.000121478698
0.0001214625342
0.0001214458921
0.0001214290891
0.0001214100713
0.0001213875339
0.0001213613612
0.0001213330798
0.0001213047362
0.0001212752296
0.0001212412683
0.0001212046021
0.000121165147
0.0001211257968
0.0001210865569
0.0001210474936
0.0001210067567
0.0001209626201
0.0001209155042
0.0001208665153
0.0001208224121
0.0001207790997
0.000120731245
0.0001206823766
0.0001206301713
0.0001205807337
0.000120534623
0.000120486029
0.0001204358842
0.0001214558394
0.0001214573954
0.0001214598873
0.0001214635672
0.0001214683539
0.0001214741753
0.0001214809638
0.0001214886494
0.0001214971683
0.0001215064679
0.0001215138073
0.000121517064
0.0001215205093
0.0001215206115
0.0001215200829
0.0001215195345
0.0001215189678
0.000121513397
0.000121503058
0.000121492491
0.0001214817197
0.0001214673046
0.0001214509587
0.0001214344223
0.0001214174269
0.0001213951771
0.0001213711661
0.0001213431649
0.0001213150515
0.000121286857
0.0001212540537
0.0001212196724
0.0001211803896
0.0001211411541
0.0001211020132
0.0001210630024
0.0001210241335
0.0001209803566
0.0001209353948
0.0001208863616
0.0001208399819
0.0001207969402
0.0001207507423
0.0001207031191
0.0001206514424
0.000120599677
0.0001205533606
0.0001205065642
0.0001204561564
0.0001204062681
0.0001214679704
0.0001214691266
0.0001214716043
0.0001214752633
0.0001214800227
0.0001214858098
0.0001214925492
0.0001215001848
0.0001215086555
0.000121514237
0.0001215172725
0.0001215205111
0.0001215206382
0.0001215201347
0.0001215196094
0.0001215190643
0.0001215154065
0.0001215053846
0.0001214951055
0.0001214846015
0.0001214718984
0.0001214558797
0.0001214396325
0.0001214231863
0.0001214027209
0.0001213805856
0.0001213531962
0.000121325345
0.0001212973918
0.0001212668822
0.0001212333056
0.0001211957532
0.0001211566648
0.0001211176564
0.0001210787227
0.0001210399217
0.000120998392
0.0001209544862
0.0001209066001
0.0001208579229
0.0001208148131
0.0001207707017
0.0001207229518
0.0001206732687
0.0001206211249
0.0001205726314
0.0001205265339
0.0001204770506
0.0001204268789
0.0001203772603
0.0001214794647
0.0001214806145
0.0001214830783
0.0001214867141
0.0001214914395
0.0001214971863
0.0001215038881
0.0001215114813
0.0001215148468
0.0001215176473
0.0001215206662
0.0001215206452
0.0001215201685
0.000121519668
0.0001215191459
0.0001215171856
0.0001215075051
0.0001214975371
0.0001214873222
0.0001214762858
0.0001214606233
0.0001214446927
0.0001214285404
0.0001214101332
0.0001213883129
0.0001213631377
0.0001213355894
0.0001213079022
0.0001212797172
0.0001212463863
0.0001212111996
0.0001211723144
0.0001211334489
0.0001210946302
0.0001210559172
0.0001210166936
0.0001209728292
0.0001209271975
0.0001208783799
0.0001208330524
0.0001207901468
0.0001207432409
0.0001206956234
0.000120643312
0.0001205924134
0.0001205461239
0.0001204985452
0.0001204481232
0.0001203982112
0.0001203488284
0.0001214907125
0.0001214918541
0.0001214943005
0.0001214979133
0.0001215026126
0.000121508328
0.0001215133509
0.0001215156506
0.000121518202
0.0001215209875
0.0001215206308
0.0001215201826
0.0001215197086
0.0001215192112
0.0001215186919
0.0001215093949
0.0001214997646
0.0001214898595
0.0001214796971
0.0001214651596
0.0001214495767
0.0001214337436
0.0001214173805
0.0001213959073
0.0001213729518
0.0001213457496
0.0001213183546
0.0001212908106
0.0001212594706
0.0001212263017
0.0001211880434
0.0001211493549
0.0001211106977
0.0001210720882
0.0001210335674
0.0001209914338
0.0001209477759
0.0001208993113
0.0001208516307
0.000120808677
0.0001207639589
0.0001207163255
0.0001206660207
0.000120613949
0.0001205662194
0.000120520142
0.0001204699614
0.0001204197698
0.000120370118
0.0001203209651
0.0001215017201
0.0001215028555
0.0001215052887
0.000121508882
0.0001215129133
0.0001215146444
0.0001215166632
0.0001215189507
0.0001215209807
0.0001215205931
0.0001215201752
0.0001215197296
0.0001215192586
0.0001215187638
0.0001215110288
0.0001215017624
0.0001214921903
0.0001214823375
0.0001214694578
0.0001214542584
0.0001214387679
0.0001214230156
0.0001214033352
0.0001213819677
0.0001213557805
0.0001213287134
0.0001213014726
0.0001212725206
0.0001212396294
0.0001212038119
0.0001211653493
0.0001211268753
0.000121088401
0.0001210500032
0.0001210102658
0.0001209666762
0.0001209205622
0.0001208719781
0.0001208275415
0.000120784785
0.0001207373598
0.0001206892231
0.0001206370034
0.0001205867977
0.0001205405434
0.0001204923709
0.0001204419416
0.0001203920093
0.000120342579
0.0001202936792
0.000121512502
0.0001215129363
0.0001215136733
0.0001215147617
0.0001215161776
0.0001215178996
0.0001215199079
0.0001215208835
0.0001215205303
0.0001215201447
0.0001215197292
0.0001215192863
0.0001215188177
0.0001215123802
0.0001215035042
0.0001214942904
0.0001214847711
0.0001214734855
0.0001214587013
0.000121443584
0.0001214281786
0.0001214105618
0.000121389572
0.0001213656429
0.0001213389531
0.0001213120391
0.000121284928
0.0001212529202
0.0001212195783
0.0001211813903
0.0001211431256
0.0001211048428
0.0001210665774
0.0001210283568
0.0001209857997
0.0001209420968
0.00012089355
0.000120846712
0.0001208039289
0.0001207587891
0.0001207112857
0.0001206605454
0.0001206085577
0.000120561422
0.0001205153287
0.0001204646804
0.0001204144813
0.0001203647949
0.0001203155948
0.0001202669299
0.0001215158087
0.0001215161508
0.000121516884
0.0001215179668
0.0001215193754
0.0001215210367
0.0001215207572
0.0001215204405
0.0001215200891
0.0001215197056
0.0001215192927
0.000121518852
0.0001215134216
0.0001215049634
0.0001214961346
0.0001214869738
0.000121477209
0.0001214628732
0.000121448161
0.0001214331326
0.0001214175503
0.0001213969737
0.0001213752956
0.0001213490254
0.000121322473
0.0001212956972
0.0001212661341
0.0001212337095
0.0001211974261
0.0001211594135
0.0001211213549
0.0001210832549
0.000121045186
0.0001210051106
0.000120961817
0.0001209154007
0.0001208670703
0.0001208233742
0.0001207805837
0.0001207330186
0.0001206845455
0.0001206324312
0.0001205827547
0.0001205365453
0.0001204879613
0.000120437533
0.0001203875854
0.000120338114
0.0001202891597
0.0001202407046
0.0001208430915
0.0001208004955
0.0001207551118
0.0001207077537
0.0001206567574
0.0001206048677
0.0001205581659
0.0001205117601
0.0001204611294
0.0001204109291
0.0001203612154
0.0001203119723
0.0001202632411
0.0001202133742
)
;

boundaryField
{
    front_top
    {
        type            wedge;
    }
    front_middle
    {
        type            wedge;
    }
    front_bottom
    {
        type            wedge;
    }
    back_top
    {
        type            wedge;
    }
    back_middle
    {
        type            wedge;
    }
    back_bottom
    {
        type            wedge;
    }
    axis_top
    {
        type            symmetryPlane;
    }
    axis_middle
    {
        type            symmetryPlane;
    }
    axis_bottom
    {
        type            symmetryPlane;
    }
    wall_top
    {
        type            calculated;
        value           nonuniform List<scalar> 
24
(
0.0001208943858
0.0001208579954
0.0001208262448
0.0001207951602
0.0001207625594
0.0001207291072
0.0001206963256
0.0001206607484
0.0001206259033
0.000120592737
0.0001205626669
0.0001205332082
0.0001205030982
0.0001204717341
0.0001204410013
0.0001204108957
0.0001203814172
0.0001203525257
0.000120324209
0.0001202964856
0.0001202693088
0.0001202426664
0.0001202150803
0.0001201869499
)
;
    }
    wall_middle
    {
        type            calculated;
        value           nonuniform 0();
    }
    wall_bottom
    {
        type            calculated;
        value           nonuniform 0();
    }
    inlet
    {
        type            calculated;
        value           nonuniform 0();
    }
    outlet
    {
        type            calculated;
        value           nonuniform 0();
    }
    procBoundary8to7
    {
        type            processor;
        value           nonuniform List<scalar> 
51
(
0.0001215189597
0.0001215193001
0.0001215200296
0.0001215210341
0.0001215208381
0.0001215205996
0.0001215203215
0.0001215200064
0.000121519657
0.0001215192759
0.0001215188649
0.0001215141244
0.0001215061127
0.0001214976967
0.0001214889205
0.0001214798041
0.0001214667405
0.0001214524734
0.0001214378472
0.0001214228903
0.0001214041363
0.0001213836566
0.0001213588865
0.0001213327384
0.0001213063321
0.0001212792296
0.0001212471562
0.0001212134132
0.0001211757122
0.0001211378974
0.0001211000143
0.0001210621152
0.0001210242167
0.0001209814086
0.0001209374927
0.0001208892296
0.0001208892296
0.000120820477
0.0001207775342
0.0001207301386
0.0001206815053
0.0001206295121
0.000120580211
0.0001205340577
0.0001204852382
0.0001204348208
0.0001203848645
0.0001203353594
0.0001202863549
0.0001202378274
0.0001201856815
)
;
    }
    procBoundary8to9
    {
        type            processor;
        value           nonuniform List<scalar> 
51
(
0.0001205825887
0.0001205922947
0.0001207302057
0.0001207302057
0.000120754783
0.0001207867391
0.0001208255847
0.0001208668273
0.0001209089349
0.0001209556177
0.0001209996711
0.0001210387005
0.0001210803099
0.0001211242275
0.0001211703234
0.0001212093643
0.000121249127
0.0001212850606
0.0001213211095
0.0001213533625
0.0001213840605
0.0001214119111
0.0001214360684
0.0001214584791
0.0001214755868
0.0001214928583
0.0001215102621
0.0001215172469
0.0001215208235
0.0001215200696
0.0001215193145
0.0001215164011
0.0001215033344
0.0001214902834
0.0001214768484
0.0001214577449
0.0001214387114
0.0001214197621
0.0001213952514
0.0001213683541
0.0001213377937
0.0001213074568
0.0001212764309
0.0001212407275
0.000121202282
0.0001211614477
0.0001211210184
0.0001210809762
0.0001210413603
0.000120999411
0.0001209551729
)
;
    }
}


// ************************************************************************* //
