/*--------------------------------*- C++ -*----------------------------------*\
  =========                 |
  \\      /  F ield         | OpenFOAM: The Open Source CFD Toolbox
   \\    /   O peration     | Website:  https://openfoam.org
    \\  /    A nd           | Version:  7
     \\/     M anipulation  |
\*---------------------------------------------------------------------------*/
FoamFile
{
    version     2.0;
    format      ascii;
    class       volScalarField;
    location    "0.0003";
    object      thermo:mu;
}
// * * * * * * * * * * * * * * * * * * * * * * * * * * * * * * * * * * * * * //

dimensions      [1 -1 -1 0 0 0 0];

internalField   nonuniform List<scalar> 
1166
(
7986478.567
7927183.792
7251444.321
7198650.332
7086971.825
6925686.748
6722297.589
6483960.326
6217976.866
5931460.252
5631259.724
5322918.431
5011899.233
4702726.473
4398924.063
4103819.712
3819359.878
3547619.637
3289469.007
3045900.594
2817062.103
2603073.342
2403747.54
2218584.728
2047213.578
1888823.434
1742797.362
1608398.184
1484804.422
1371356.226
1267246.411
1171757.267
1084288.697
1004110.431
930643.1499
863354.8499
801675.9578
745150.8985
693329.8252
645780.2263
602158.2569
562092.8438
525269.9642
491427.7882
460275.7856
431592.4501
405157.8676
380767.5975
358263.5549
337462.8414
318231.7743
300429.9075
6605987.604
6558879.874
6459202.068
6315107.814
6133070.985
5919706.551
5681642.086
5424849.224
5155145.628
4878258.058
4598415.702
4319829.73
4045874.712
3779120.605
3521878.893
3275525.859
3041358.799
2819908.954
2611608.477
2416535.728
2234474.23
2065224.419
1908181.854
1762920.681
1628774.185
1505069.834
1391246.134
1286531.116
1190317.723
1101995.921
1020905.765
946518.1427
878274.7989
815649.99
758220.5459
705504.7122
657106.4111
612676.133
571838.5487
534301.0292
499774.9004
467984.1663
438715.4723
411725.8894
386828.6102
363845.9183
342601.9002
322967.6531
304786.6505
287947.1735
6036931.04
5994669.751
5905350.521
5776197.434
5612935.326
5421337.513
5207142.947
4976174.864
4733437.908
4483557.437
4231057.038
3979237.869
3731244.056
3489543.728
3256001.492
3032172.091
2818970.883
2617121.111
2426975.15
2248593.451
2081959.977
1926680.243
1782527.136
1648914.104
1525348.882
1411303.979
1306122.138
1209290.216
1120191.734
1038246.165
962971.6384
893793.0813
830248.4175
771896.3214
718277.0392
669025.4081
623760.2044
582129.5939
543855.7158
508621.6886
476178.2158
446289.8895
418721.1179
393293.9149
369809.6116
348107.8381
328042.0271
309461.7706
292259.0677
276302.3774
5533801.74
5495810.008
5415380.883
5299015.767
5151843.269
4979295.149
4786245.518
4577634.313
4358239.715
4132363.811
3903534.892
3675269.939
3450105.932
3230370.486
3017820.042
2813749.603
2619145.387
2434639.879
2260558.93
2097080.683
1944029.06
1801359.773
1668598.229
1545431.611
1431374.13
1325894.722
1228568.454
1138789.784
1056083.264
979948.5356
909866.6078
845425.521
786153.3572
731631.9915
681516.2266
635402.3668
592976.1498
553932.1906
517968.4388
484851.4944
454319.0758
426154.2701
400168.3542
376159.8571
353979.1843
333460.6737
314467.5523
296876.3323
280560.0841
265429.1235
5086958.298
5052692.54
4980134.952
4875118.076
4742228.707
4586074.756
4411295.414
4222515.358
4023650.659
3818546.458
3610820.011
3403114.575
3198143.694
2997801.631
2803753.02
2617211.823
2439093.392
2269971.987
2110229.036
1959923.134
1819142.352
1687588.264
1565114.313
1451284.55
1345726.798
1248033.131
1157692.291
1074315.075
997385.3218
926455.2442
861137.9509
800961.8959
745562.0618
694562.8257
647591.7487
604358.5852
564527.0709
527822.8159
494003.8895
462805.6125
434027.4374
407456.4684
382906.1796
360221.2902
339229.1532
319803.8985
301804.6224
285116.415
269634.7832
255254.0437
4689223.908
4658168.21
4592394.877
4497165.466
4376716.35
4235192.422
4076617.496
3904972.697
3724195.639
3537613.799
3348190.596
3158881.044
2971646.051
2788503.972
2610854.114
2439893.616
2276422.288
2121031.942
1974007.882
1835579.865
1705630.518
1584175.051
1470846.149
1365432.976
1267550.948
1176800.395
1092850.922
1015208.693
943507.4006
877339.4229
816286.0875
760023.5367
708145.6496
660328.1849
616266.8189
575634.8815
538181.2687
503635.428
471755.5062
442339.7588
415162.4708
390054.911
366839.6467
345357.039
325476.4318
307049.8772
289971.8517
274121.994
259405.5605
245730.8342
4333799.28
4305614.592
4245908.787
4159432.291
4049898.659
3921034.65
3776660.833
3620391.211
3455484.218
3285129.067
3112204.819
2938924.441
2767550.068
2599617.06
2436599.015
2279492.315
2129103.785
1985933.004
1850359.652
1722469.292
1602373.178
1489851.966
1384836.824
1286973.297
1195998.55
1111587.973
1033334.58
960939.3888
893976.0741
832104.6726
774983.8233
722240.1851
673587.0438
628688.6074
587254.29
549033.2174
513744.7496
481174.6611
451093.6263
423292.4479
397605.6256
373839.5503
351851.7038
331491.1254
312622.1811
295132.3981
278896.6806
263828.2198
249821.335
236797.8231
4015432.662
3989735.139
3935288.017
3856403.594
3756585.045
3639101.263
3507286.294
3364389.8
3213681.611
3057814.545
2899268.643
2740474.787
2583065.726
2428775.816
2278762.773
2134050.151
1995334.478
1863152.079
1737785.608
1619450.507
1508091.199
1403744.583
1306135.246
1215128.637
1130411.007
1051690.8
978673.5726
910985.3991
848351.4312
790404.1784
736827.976
687340.4251
641608.0325
599378.9497
560371.9742
524331.653
491053.8981
460290.3951
431856.7241
405562.3508
381227.9035
358713.8329
337853.855
318527.654
300604.1358
283969.985
268528.0392
254172.9386
240831.5648
228410.0586
3729319.108
3705861.504
3656150.444
3584103.763
3492767.297
3385194.729
3264549.511
3133751.57
2995500.136
2852433.156
2706909.187
2560795.718
2416006.611
2273819.601
2135473.395
2001839.002
1873614.257
1751269.277
1635131.095
1525322.16
1421945.545
1324858.763
1234036.788
1149190.779
1070152.137
996621.4713
928308.3828
864965.0794
806238.7022
751874.1037
701561.2413
655010.6652
611984.7393
572188.1761
535401.0253
501390.6393
469931.5571
440848.1087
413928.3706
389016.105
365948.6235
344573.0341
324768.8546
306393.3935
289345.6334
273511.3557
258797.653
245117.2949
232383.2999
220529.9721
3471561.42
3450056.528
3404475.947
3338396.902
3254730.786
3156140.912
3045387.768
2925154.732
2798137.211
2666545.173
2532444.669
2397900.046
2264261.886
2132978.841
2005068.598
1881393.132
1762596.235
1649122.843
1541269.213
1439211.973
1342968.673
1252553.401
1167783.361
1088593.101
1014682.5
945864.3891
881878.3574
822439.6133
767325.2625
716216.7671
668881.8603
625053.3401
584471.5558
546932.0595
512180.4976
480026.7058
450267.0933
422707.5644
397199.5556
373560.7931
351658.7706
331351.6362
312510.1833
295027.9703
278784.3834
263696.2226
249661.1921
236603.158
224443.2684
213111.1479
3238699.546
3218967.738
3177137.605
3116476.84
3039512.422
2948775.244
2846873.455
2736249.801
2619147.555
2497760.666
2374100.99
2249710.658
2126181.996
2004646.322
1886129.806
1771431.713
1661119.797
1555656.673
1455299.434
1360224.952
1270493.063
1186056.33
1106878.098
1032742.974
963544.9631
899014.0439
838957.5449
783131.3125
731270.2955
683176.5969
638562.0305
597218.824
558913.3394
523418.0511
490560.1467
460112.701
431911.0341
405780.9561
381556.7762
359109.2569
338281.5893
318961.617
301023.1671
284359.0506
268875.0511
254470.0624
241072.7695
228591.8523
216966.7339
206123.8247
3027851.649
3009671.105
2971123.548
2915208.463
2844329.357
2760746.93
2666745.721
2564566.092
2456455.097
2344302.237
2229818.88
2114716.87
2000202.962
1887464.71
1777434.017
1670804.665
1568194.582
1469947.497
1376396.376
1287653.299
1203810.983
1124857.692
1050697.637
981243.8039
916284.0805
855701.9571
799233.9954
746693.3944
697858.2339
652484.5104
610394.361
571329.9685
535107.3216
501525.5685
470384.0943
441527.5474
414761.815
389946.6132
366928.7699
345567.9244
325749.013
307337.4221
290238.7673
274340.6444
259556.0392
245798.472
232985.0838
221050.2754
209917.13
199535.71
2836401.585
2819636.95
2784085.48
2732501.628
2667004.79
2589715.442
2502796.143
2408360.743
2308255.529
2204295.968
2098245.047
1991384.738
1885043.843
1780259.427
1677852.51
1578581.436
1482881.735
1391236.413
1303816.001
1220853.344
1142367.156
1068389.774
998841.776
933610.1082
872589.8702
815565.4305
762411.586
712883.5922
666805.3596
623972.0361
584164.6804
547219.7365
512914.1219
481086.8617
451554.7
424145.7778
398723.5664
375120.7198
353217.8744
332877.6605
313982.4415
296427.5745
280099.2352
264919.8169
250786.7025
237629.3306
225367.8923
213936.1584
203271.6656
193313.8926
2662242.249
2646723.849
2613810.423
2566042.692
2505415.18
2433907.327
2353400.314
2265782.954
2172911.35
2076465.562
1977861.874
1878525.933
1779567.972
1681935.22
1586507.482
1493815.988
1404484.598
1318747.996
1236977.018
1159226.321
1085658.259
1016205.761
950864.626
889527.3215
832068.8522
778361.2363
728201.321
681464.8143
637920.3865
597408.3302
559737.6103
524717.1281
492200.7372
461988.0039
433937.9599
407888.1256
383692.8829
361228.9448
340352.2142
320961.4785
302931.3338
286165.1767
270567.9234
256046.5767
242528.2983
229925.9821
218182.4575
207221.8702
196993.2151
187436.6748
2503354.053
2488982.604
2458496.939
2414240.783
2358008.838
2291594.803
2216787.692
2135450.886
2049125.423
1959337.985
1867590.485
1775030.112
1682726.832
1591658.83
1502460.051
1415868.572
1332216.513
1251960.916
1175249.002
1102332.408
1033188.593
967916.0921
906408.3889
848639.921
794469.4253
743773.8828
696414.7572
652202.7525
611015.5719
572638.7935
536929.4767
503714.4147
472825.9628
444124.8906
417439.0982
392648.017
369603.8228
348184.4246
328276.2304
309755.787
292537.2328
276506.6253
261586.7245
247688.4894
234736.5335
222662.2722
211394.6728
200880.733
191055.6122
181878.2675
2358244.065
2344883.649
2316538.882
2275381.392
2223070.585
2161345.239
2091801.078
2016029.702
1935565.887
1851946.455
1766334.187
1679909.65
1593722.253
1508514.447
1425106.725
1343952.391
1265570.147
1190232.085
1118226.944
1049648.711
984625.2453
923119.203
865173.9917
810652.4578
759513.1285
711599.3654
666793.9027
624950.6502
585900.2368
549516.6215
515613.0618
484063.1577
454700.1607
427381.475
401978.8967
378343.7971
356373.3595
335930.8799
316915.453
299220.6174
282745.2118
267409.1671
253116.3361
239801.9177
227382.0541
215797.8076
204982.6134
194881.4928
185442.127
176613.6597
2225263.107
2212818.806
2186454.496
2148163.193
2099478.721
2041932.365
1977051.822
1906378.877
1831341.509
1753194.648
1673181.245
1592390.937
1511668.695
1431911.624
1353679.894
1277557.405
1203934.904
1133142.667
1065394.811
1000839.118
939544.4395
881558.5119
826828.4024
775338.0986
726953.4595
681620.8684
639171.3903
599499.1684
562452.9536
527886.0907
495676.1858
465654.4914
437708.1054
411682.8348
387459.5267
364917.3989
343930.2859
324405.5579
306220.4976
289291.7821
273520.1084
258824.4943
245127.5899
232350.5601
220434.3881
209305.0153
198915.8835
189202.6293
180123.4979
171625.9697
2103332.94
2091735.933
2067125.593
2031374.253
1985906.186
1932154.271
1871607.561
1805571.593
1735360.929
1662262.326
1587371.264
1511626.673
1435994.345
1361123.528
1287665.783
1216121.594
1146866.742
1080232.351
1016390.605
955517.4539
897668.6223
842890.2458
791159.3182
742422.4156
696622.1174
653631.4171
613381.6062
575707.2451
540511.8136
507647.3057
476986.8822
448404.6165
421755.0746
396940.7842
373816.7642
352284.7675
332229.4289
313546.5802
296146.3416
279925.1596
264814.5436
250719.9151
237576.7966
225310.7867
213859.8027
203165.1049
193168.8217
183824.9038
175079.6971
166896.6001
1991177.561
1980333.686
1957318.871
1923903.224
1881428.815
1831185.913
1774490.391
1712626.551
1646905.058
1578390.102
1508103.453
1437069.545
1366005.459
1295631.601
1226546.367
1159174.351
1093958.303
1031099.111
970879.2711
913366.2424
858707.3785
806875.7187
757905.7784
711727.1985
668288.2942
627500.3148
589251.2046
553450.9122
519954.0646
488674.422
459459.3232
432202.4055
406781.1516
383074.3718
360985.4358
340389.2975
321202.3842
303313.3268
286638.3226
271091.1271
256588.3705
243062.7383
230433.4948
218648.8514
207635.4369
197346.5339
187723.8617
178723.2003
170297.1585
162405.5314
1887894.319
1877752.496
1856224.92
1824938.828
1785126.908
1738018.077
1684867.482
1626901.569
1565202.652
1500832.184
1434861.256
1368050.222
1301188.077
1234956.26
1169830.831
1106357.744
1044783.739
985457.7383
928513.5635
874148.2221
822380.4002
773303.7317
726855.3856
683056.7894
641800.5037
603041.7633
566668.118
532584.7418
500691.5815
470859.6876
443000.1802
416973.6713
392690.9471
370031.1256
348894.8531
329185.6959
310798.0589
293656.5969
277659.5308
262740.3706
248814.5458
235815.8605
223677.909
212336.6354
201739.8196
191827.6905
182559.3673
173879.5113
165755.1726
158138.2176
1792612.453
1783095.809
1762893.024
1733526.746
1696159.728
1651984.121
1602092.897
1547600.804
1489587.829
1429109.316
1366990.123
1304069.689
1241094.58
1178607.655
1117205.428
1057232.713
999067.8781
942942.8155
889068.6253
837559.7233
788508.9679
741934.7319
697860.1894
656226.0071
617016.8721
580121.2553
545494.3867
513012.5251
482597.0906
454133.9044
427516.7564
402651.8177
379418.4923
357740.363
337497.6881
318610.8245
300983.1739
284530.1937
269176.9505
254839.064
241457.7957
228953.3487
217274.776
206355.0609
196145.9961
186594.2845
177654.1395
169282.3109
161437.0638
154083.5118
1704496.759
1695564.67
1676603.86
1649036.881
1613938.002
1572376.947
1525421.282
1474154.916
1419576.564
1362571.352
1304017.111
1244704.589
1185240.457
1126268.539
1068222.409
1011512.993
956466.6348
903311.7899
852258.5582
803402.1041
756847.988
712611.8102
670711.5475
631116.044
593776.7716
558639.7175
525610.7717
494633.9241
465585.1573
438395.9244
412947.7685
389155.24
366919.8307
346142.7595
326744.4519
308620.9557
291705.4888
275902.98
261148.1077
247364.8567
234486.5068
222453.3495
211200.4468
200680.9303
190834.1667
181623.1219
172992.8051
164910.2754
157330.6085
150223.8838
1623001.54
1614593.564
1596740.15
1570778.554
1537715.666
1498555.371
1454365.014
1406056.316
1354560.847
1300783.293
1245534.875
1189481.385
1133309.309
1077528.937
1022586.301
968896.6003
916708.7031
866326.887
817851.766
771477.3185
727214.04
685160.0601
645270.0736
607565.7209
571973.891
538458.0206
506940.3236
477343.0132
449587.2109
423569.0312
399220.7895
376428.143
355121.6143
335198.8043
316581.0256
299184.6864
282925.9721
267739.7255
253542.5192
240280.8566
227878.4799
216285.0895
205438.8534
195291.0293
185792.3103
176896.1865
168562.6525
160749.1654
153423.4792
146547.1869
274618.1673
260003.5921
246339.5709
233559.9844
221610.6631
210426.8101
199965.8554
190167.9245
180996.6723
172400.1365
164344.9187
156788.5166
149700.3903
143044.9663
)
;

boundaryField
{
    front_top
    {
        type            wedge;
    }
    front_middle
    {
        type            wedge;
    }
    front_bottom
    {
        type            wedge;
    }
    back_top
    {
        type            wedge;
    }
    back_middle
    {
        type            wedge;
    }
    back_bottom
    {
        type            wedge;
    }
    axis_top
    {
        type            symmetryPlane;
    }
    axis_middle
    {
        type            symmetryPlane;
    }
    axis_bottom
    {
        type            symmetryPlane;
    }
    wall_top
    {
        type            calculated;
        value           nonuniform List<scalar> 
24
(
291987.6071
279951.391
268728.8113
258236.4345
248421.1556
239226.0584
230596.561
222498.6196
214880.9838
207709.477
200955.0903
194580.6899
188561.84
182874.8933
177492.1606
172394.5688
167565.0695
162981.639
158628.3526
154494.9897
150562.6086
146818.6239
143253.6864
139856.3845
)
;
    }
    wall_middle
    {
        type            calculated;
        value           nonuniform 0();
    }
    wall_bottom
    {
        type            calculated;
        value           nonuniform 0();
    }
    inlet
    {
        type            calculated;
        value           nonuniform 0();
    }
    outlet
    {
        type            calculated;
        value           nonuniform 0();
    }
    procBoundary8to7
    {
        type            processor;
        value           nonuniform List<scalar> 
51
(
1547391.002
1539462.804
1522626.44
1498141.956
1466999.964
1430100.598
1388379.944
1342753.386
1294139.76
1243344.679
1191086.65
1138088.703
1084923.115
1032072.846
980034.1886
929093.3268
879602.7282
831735.1274
785697.2363
741576.8896
699478.3352
659412.3749
621418.2308
585446.0364
551495.8382
519480.432
489372.3593
461068.8091
434509.3902
409602.8978
386266.6414
364422.3933
343973.7124
324856.098
306969.6214
290252.0411
290252.0411
266745.6855
252667.6374
239503.671
227182.971
215655.9121
204864.792
194761.2368
185299.0278
176431.7299
168121.7639
160326.4615
153015.4977
146150.1484
139705.4004
)
;
    }
    procBoundary8to9
    {
        type            processor;
        value           nonuniform List<scalar> 
51
(
8827040.182
8760061.13
7801786.075
7801786.075
7620676.036
7392159.722
7124598.557
6826537.026
6505972.331
6170055.525
5825739.01
5478925.891
5134358.891
4796701.964
4468746.789
4153540.735
3852498.993
3567317.703
3298381.02
3046327.842
2810927.399
2591972.375
2389021.997
2201309.274
2028247.234
1868881.67
1722394.369
1587987.028
1464705.943
1351775.055
1248384.142
1153728.906
1067145.67
987917.7448
915401.4356
849069.913
788335.9638
732707.8706
681766.9214
635055.799
592212.5064
552895.4043
516771.0758
483578.8589
453039.8481
424917.2572
399012.7718
375112.6189
353057.4657
332677.8492
313829.4363
)
;
    }
}


// ************************************************************************* //
