/*--------------------------------*- C++ -*----------------------------------*\
  =========                 |
  \\      /  F ield         | OpenFOAM: The Open Source CFD Toolbox
   \\    /   O peration     | Website:  https://openfoam.org
    \\  /    A nd           | Version:  7
     \\/     M anipulation  |
\*---------------------------------------------------------------------------*/
FoamFile
{
    version     2.0;
    format      ascii;
    class       volScalarField;
    location    "0.0003";
    object      generalizedNewtonian:nu;
}
// * * * * * * * * * * * * * * * * * * * * * * * * * * * * * * * * * * * * * //

dimensions      [0 2 -1 0 0 0 0];

internalField   nonuniform List<scalar> 
1166
(
5379.64362
5360.583748
5323.807067
5267.588136
5195.942297
5110.491308
5013.125647
4905.508231
4789.346748
4666.327792
4537.800702
4405.247445
4269.76012
4132.484183
3994.348541
3856.093988
3718.491298
3582.031052
5108.001359
5090.181425
5056.20791
5003.942352
4937.317721
4857.769449
4767.022376
4666.550068
4557.956309
4442.757156
4322.2249
4197.702956
4070.233443
3940.848238
3810.419084
3679.631565
3549.211017
3419.646739
3291.374878
3164.818277
3040.272045
2917.950285
2798.064646
2680.839246
2566.378622
2454.772603
2346.10732
2240.482984
2137.96292
2038.568296
1942.338091
1849.307758
1759.533716
1673.009638
1589.729567
1509.686943
1432.893167
1359.347018
1288.995662
1221.799361
1157.721534
1096.717817
1038.700421
983.586736
931.3031801
881.7599106
834.8403194
790.4611919
748.6101657
708.7285935
4859.062862
4842.33369
4810.781532
4761.938742
4699.662763
4625.24581
4540.243013
4446.02281
4344.070305
4235.768933
4122.309011
4004.9183
3884.554216
3762.175733
3638.588963
3514.450627
3390.473624
3267.093678
3144.744391
3023.864288
2904.714429
2787.544558
2672.586388
2560.082569
2450.112947
2342.806085
2238.277261
2136.655173
2037.979675
1942.309723
1849.702433
1760.220656
1673.905483
1590.750663
1510.76636
1433.966807
1360.37938
1289.952329
1222.656271
1158.454387
1097.320518
1039.168432
983.9201302
931.5015915
881.8372696
834.8074832
790.3063096
748.2812962
708.6563704
670.9328998
4629.563082
4613.79128
4584.336385
4538.489474
4480.028508
4410.1245
4330.207584
4241.541371
4145.492613
4043.337103
3936.16073
3825.114858
3711.072754
3594.945616
3477.491342
3359.332144
3241.14893
3123.349315
3006.367211
2890.646251
2776.436017
2664.010041
2553.628562
2445.481545
2339.699786
2236.43165
2135.819771
2037.977859
1942.964714
1850.862357
1761.742283
1675.690959
1592.702684
1512.806737
1436.025181
1362.405488
1291.904499
1224.502074
1160.165954
1098.881609
1040.570112
985.1575341
932.5711227
882.7462637
835.5662161
790.9253835
748.7483525
708.9292432
671.4051542
635.7318126
4416.921182
4402.009582
4374.409022
4331.23298
4276.175189
4210.293726
4134.923083
4051.212358
3960.413479
3863.733188
3762.155457
3656.775526
3548.393296
3437.899302
3325.964966
3213.208929
3100.262437
2987.525407
2875.453503
2764.462484
2654.809599
2546.776344
2440.641328
2336.566661
2234.721317
2135.265112
2038.382564
1944.134943
1852.630306
1763.956315
1678.228746
1595.459418
1515.691663
1438.962188
1365.325592
1294.761097
1227.254316
1162.781717
1101.334249
1042.845963
987.246586
934.4670105
884.4508893
837.0845516
792.2676956
749.9231372
709.9299687
672.1927557
636.6693591
602.9202565
4219.185459
4205.057399
4179.114109
4138.338282
4086.331456
4024.044883
3952.708413
3873.409784
3787.290828
3695.510364
3598.949249
3498.670093
3395.380268
3289.960934
3183.009727
3075.162428
2966.971871
2858.86946
2751.334184
2644.711853
2539.283445
2435.348608
2333.177793
2232.931213
2134.805727
2039.001439
1945.643237
1854.842552
1766.711917
1681.378693
1598.892139
1519.303559
1442.666428
1369.044136
1298.436244
1230.836221
1166.231057
1104.618765
1045.944175
990.1428993
937.1518277
886.9210322
839.3406554
794.315201
751.7717546
711.5904392
673.6595468
637.906723
604.2622754
572.3141495
4034.694812
4021.263567
3996.78086
3958.148001
3908.863715
3849.793557
3782.056114
3706.72501
3624.817197
3537.458193
3445.441241
3349.744341
3251.060595
3150.234896
3047.801302
2944.434394
2840.619651
2736.798875
2633.461877
2530.883454
2429.38606
2329.310065
2230.850891
2134.224914
2039.65051
1947.318098
1857.339668
1769.855575
1685.00654
1602.87834
1523.531191
1447.036756
1373.4694
1302.847841
1235.174773
1170.448722
1108.677069
1049.813911
993.8025149
940.5876994
890.12458
842.3085389
797.0489404
754.2780309
713.8789159
675.7410711
639.7781755
605.8923844
574.0077519
543.7657722
3861.956912
3849.135656
3825.929229
3789.211278
3742.369572
3686.189589
3621.69762
3549.962053
3471.885348
3388.484211
3300.57682
3209.038498
3114.575047
3017.921126
2919.638921
2820.409173
2720.636623
2620.810537
2521.338883
2422.532019
2324.748927
2228.281086
2133.337405
2040.159245
1948.996583
1859.971489
1773.247852
1688.982965
1607.299135
1528.265791
1451.97348
1378.510111
1307.912641
1240.194417
1175.366527
1113.447775
1054.40017
998.1764641
944.7312603
894.0234439
845.9551112
800.4410769
757.4200753
716.775704
678.4031744
642.2184582
608.1074859
575.9710969
545.7601827
517.1199918
3699.716242
3687.466198
3665.377613
3630.373446
3585.735687
3532.178119
3470.61458
3402.103853
3327.475873
3247.660827
3163.49635
3075.736626
2985.136348
2892.336703
2797.940075
2702.513826
2606.489276
2510.378506
2414.518837
2319.265904
2224.997336
2131.934634
2040.344265
1950.498099
1862.571991
1776.736638
1693.168604
1612.027185
1533.391414
1457.371561
1384.07134
1313.545357
1245.818965
1180.916894
1118.871193
1059.650639
1003.219321
949.5434126
898.5843232
850.25246
804.4688433
761.1803984
720.2691316
681.6365295
645.2055404
610.8579915
578.4844984
548.0155315
519.3729551
492.2261047
3546.872563
3535.16935
3514.112972
3480.631844
3437.972782
3386.793472
3327.912179
3262.299423
3190.815503
3114.271121
3033.534514
2949.252896
2862.222968
2772.977647
2682.173697
2590.271685
2497.760321
2405.109453
2312.649139
2220.781268
2129.810972
2039.999066
1951.642757
1864.974647
1780.168832
1697.42253
1616.933448
1538.790251
1463.124061
1390.056314
1319.658947
1251.970572
1187.030522
1124.88583
1065.511146
1008.883757
954.9830414
903.7715588
855.1700085
809.1075926
765.5380101
724.342747
685.4297327
648.7298177
614.1221139
581.5002658
550.7869801
521.8785875
494.7015685
468.976413
3402.46482
3391.259812
3371.159714
3339.083629
3298.198866
3249.167267
3192.740561
3129.772932
3061.180445
2987.673141
2910.091797
2829.068272
2745.319797
2659.386329
2571.89874
2483.283443
2394.090217
2304.676506
2215.437396
2126.780824
2038.95017
1952.26648
1867.024852
1783.400017
1701.614896
1621.891287
1544.345839
1469.12461
1396.368194
1326.165566
1258.56998
1193.636427
1131.428357
1071.925401
1015.120035
961.0064521
909.5473574
860.6754494
814.332163
770.4686443
728.9759159
689.7665184
652.7796476
617.8895548
584.9971508
554.0293103
524.8658094
497.4192145
471.6425382
447.2354426
3265.661228
3254.914708
3235.680367
3204.940398
3165.664683
3118.573696
3064.395499
3003.900104
2937.962457
2867.291337
2792.609187
2714.620708
2633.908803
2551.09583
2466.693418
2381.203146
2295.105922
2208.765257
2122.631313
2036.998982
1952.190347
1868.54654
1786.26637
1705.589723
1626.761829
1549.931296
1475.257708
1402.902259
1332.970889
1265.532588
1200.661481
1138.431007
1078.833581
1021.875728
967.5678758
915.8720411
866.7347136
820.111278
775.9488891
734.1495307
694.6351209
657.3426764
622.152363
588.9711991
557.7264777
528.2974991
500.592982
474.5419827
450.0595218
426.8945338
3135.700349
3125.380853
3106.933056
3077.441441
3039.746289
2994.440802
2942.349952
2884.185803
2820.691518
2752.655806
2680.675259
2605.50024
2527.624277
2447.729315
2366.230319
2283.70155
2200.520457
2117.138265
2033.934089
1951.21752
1869.354556
1788.597049
1709.189462
1631.401846
1555.416117
1481.404784
1409.550572
1339.977118
1272.770166
1208.025049
1145.823108
1086.172822
1029.09502
974.6181835
922.7026544
873.3104428
826.4123687
781.9506195
739.8399056
700.0138335
662.4032698
626.8981091
593.4136122
561.8708313
532.156607
504.1845929
477.8675442
453.1083575
429.8536109
407.8559024
3012.165446
3002.223668
2984.465953
2956.112946
2919.8961
2876.318713
2826.136817
2770.125107
2708.935972
2643.322912
2573.906492
2501.318455
2426.163771
2348.967598
2270.251581
2190.49924
2110.109134
2029.566179
1949.159956
1869.279098
1790.233242
1712.266495
1635.674399
1560.674074
1487.450158
1416.207506
1347.088592
1280.196723
1215.649464
1153.535774
1093.882006
1036.724369
982.1107464
929.9986207
880.3674929
833.2054229
788.4485541
746.026011
705.8845456
667.9476543
632.1165033
598.315964
566.459304
536.4413265
508.1838854
481.5909059
456.5617794
433.0328667
410.9257201
390.0141653
2894.747869
2885.158091
2867.991432
2840.633167
2805.724226
2763.758282
2715.350889
2661.303845
2602.279135
2538.906191
2471.894874
2401.754242
2329.158758
2254.529804
2178.475139
2101.363246
2023.698232
1945.833779
1868.146538
1791.010815
1714.666748
1639.435215
1565.571143
1493.270129
1422.759667
1354.202223
1287.719135
1223.451024
1161.494751
1101.895872
1044.712183
989.994049
937.7150852
887.8676761
840.4582575
795.4156376
752.6853928
712.2289889
673.9613714
637.7964347
603.6699158
571.4863209
541.1493943
512.5893032
485.7022817
460.3934605
436.5966153
414.2115828
393.1804746
373.3028632
2782.752565
2773.544115
2756.997626
2730.553968
2696.812965
2656.297068
2609.601871
2557.368329
2500.360897
2439.138818
2374.350254
2306.579054
2236.356005
2164.226087
2090.656885
2016.11653
1941.040672
1865.773428
1790.752251
1716.223769
1642.52916
1569.963747
1498.732367
1429.085555
1361.207202
1295.236839
1231.33876
1169.618286
1110.141396
1052.989408
998.2124627
945.8040317
895.775012
848.1340477
802.8206393
759.7935249
719.0256811
680.4264116
643.9237111
609.464269
576.9428664
546.2756787
517.397965
490.1999049
464.5989954
440.5198029
417.8607855
396.5560168
376.5432824
357.6195058
2675.625608
2666.768103
2650.823416
2625.36278
2592.771636
2553.592724
2508.480478
2458.030758
2402.883265
2343.706805
2281.023146
2215.494203
2147.558256
2077.808527
2006.642745
1934.596022
1861.991
1789.282219
1716.771755
1644.800663
1573.706892
1503.702274
1435.060654
1367.9891
1302.645148
1239.217129
1177.819642
1118.540138
1061.484437
1006.702325
954.2088905
904.0368364
856.1899129
810.6261795
767.3233129
726.2461148
687.3190469
650.4852168
615.6821642
582.8157953
551.8142268
522.6020525
495.0790511
469.171391
444.7939041
421.8510226
400.2758124
379.9861787
360.9201972
342.9074944
2573.290727
2564.725406
2549.271249
2524.692097
2493.252793
2455.38057
2411.72075
2362.938455
2309.594418
2252.333622
2191.723519
2128.284471
2062.590826
1995.08728
1926.290046
1856.586354
1786.412992
1716.137033
1646.087699
1576.649344
1508.03927
1440.554728
1374.428018
1309.834197
1246.986203
1186.008512
1127.010912
1070.124758
1015.399284
962.8726068
912.6007495
864.5817043
818.7939024
775.235955
733.8630866
694.615983
657.4557251
622.3087139
589.09306
557.7508237
528.1952
500.3357738
474.1081926
449.4170515
426.176105
404.3212124
383.7566943
364.4199679
346.2538379
329.0799402
2475.571239
2467.288604
2452.257588
2428.4226
2397.977112
2361.367195
2319.117206
2271.880901
2220.277132
2164.826866
2106.170016
2044.780604
1981.207518
1915.910222
1849.363189
1781.964941
1714.150032
1646.234623
1578.63901
1511.601356
1445.436193
1380.403256
1316.694121
1254.546661
1194.096153
1135.475001
1078.840922
1024.242879
971.7429721
921.421786
873.271364
827.2922127
783.5048727
741.8543472
702.2998304
664.8209512
629.3322323
595.7664313
564.0797041
534.1728979
505.9696536
479.409802
454.3918494
430.843059
408.6891166
387.8399822
368.2338932
349.7946119
332.4620063
316.0911003
2381.885787
2373.920655
2359.383477
2336.312331
2306.784658
2271.320551
2230.442221
2184.700845
2134.728583
2081.084593
2024.269547
1964.882381
1903.334298
1840.1898
1775.79376
1710.659978
1645.092543
1579.528532
1514.248158
1449.572952
1385.791931
1323.11164
1261.794601
1201.988077
1143.846393
1087.555052
1033.16312
980.7614031
930.4435346
882.2090746
836.0827588
792.091324
750.1866171
710.3480074
672.5564563
636.7327273
602.8264317
570.7872616
540.5249583
511.976819
485.0703978
459.7146209
435.8458923
413.3788196
392.231002
372.346797
353.6347073
336.035841
319.4979246
303.8658826
2292.032787
2284.334127
2270.237921
2247.964175
2219.43312
2185.054693
2145.452913
2101.188181
2052.783423
2000.846447
1945.877364
1888.372079
1828.84905
1767.717199
1705.469808
1642.469283
1579.142181
1515.816015
1452.812773
1390.452547
1328.955299
1268.608065
1209.571648
1152.028077
1096.171253
1042.07266
989.8501855
939.5953586
891.3321053
845.1099866
800.947213
758.818296
718.7234071
680.6323107
644.485068
610.2475278
577.8571117
547.2383653
518.3417054
491.0821455
465.3802629
441.1820849
418.3900322
396.9357548
376.7545469
357.7604586
339.8955711
323.0897328
307.2889703
292.3658716
2206.098865
2198.648168
2184.9164
2163.311025
2135.667906
2102.415987
2064.043823
2021.156774
1974.306812
1923.980274
1870.766706
1815.105117
1757.489762
1698.368486
1638.172926
1577.305217
1516.142632
1455.004514
1394.24448
1334.094383
1274.865703
1216.734935
1159.911375
1104.597305
1050.889136
998.9313812
948.8137146
900.5853612
854.3215948
810.032118
767.7154192
727.393337
689.0243349
652.5698865
618.0123871
585.2763806
554.3065558
525.0578175
497.4407734
471.3934803
446.8501155
423.7228856
401.9515423
381.4597714
362.1710486
344.0309666
326.9561756
310.8950339
295.7960255
281.5261392
2123.716908
2116.544503
2103.234823
2082.283289
2055.452091
2023.227056
1986.078043
1944.525693
1899.135775
1850.430263
1798.859869
1744.995567
1689.232754
1632.071566
1573.881744
1515.092278
1456.014875
1397.039286
1338.406761
1280.452668
1223.371602
1167.398727
1112.745803
1059.534306
1007.935015
958.0362352
909.9131899
863.6681557
819.3020246
776.8448943
736.324203
697.7037853
660.9716121
626.0999451
593.0278519
561.7187714
532.1134134
504.1372047
477.7410716
452.8454638
429.374879
407.2770929
386.463544
366.872839
348.4395685
331.0869635
314.764603
299.4038735
284.9592392
271.3147725
2024.83132
2004.574704
1978.630271
1947.37755
1911.363219
1871.129987
1827.158304
1779.977707
1730.089812
1677.92523
1624.023959
1568.72935
1512.523103
1455.702564
1398.699495
1341.761004
1285.244605
1229.365456
1174.382229
1120.517353
1067.916262
1016.776671
967.1859348
919.2555535
873.0861545
828.7009495
786.1576847
745.4732397
706.6337716
669.6509436
634.4836353
601.0895278
569.4509542
539.4939685
511.1627588
484.4143012
459.1622124
435.3490362
412.9094572
391.764665
371.861998
353.1235892
335.483657
318.8883233
303.2638621
288.5657878
274.7402907
261.6764333
)
;

boundaryField
{
    front_top
    {
        type            wedge;
    }
    front_middle
    {
        type            wedge;
    }
    front_bottom
    {
        type            wedge;
    }
    back_top
    {
        type            wedge;
    }
    back_middle
    {
        type            wedge;
    }
    back_bottom
    {
        type            wedge;
    }
    axis_top
    {
        type            symmetryPlane;
    }
    axis_middle
    {
        type            symmetryPlane;
    }
    axis_bottom
    {
        type            symmetryPlane;
    }
    wall_top
    {
        type            calculated;
        value           nonuniform List<scalar> 
23
(
689.3459575
652.6258057
618.418345
586.5528089
556.8419518
529.1188441
503.2574418
479.10361
456.5303946
435.4421681
415.7023088
397.2302177
379.9232872
363.7041723
348.4927088
334.2114409
320.7995102
308.189968
296.3312529
285.1656538
274.648596
264.7332696
255.3772632
)
;
    }
    wall_middle
    {
        type            calculated;
        value           nonuniform 0();
    }
    wall_bottom
    {
        type            calculated;
        value           nonuniform 0();
    }
    inlet
    {
        type            calculated;
        value           nonuniform 0();
    }
    outlet
    {
        type            calculated;
        value           nonuniform 0();
    }
    procBoundary9to8
    {
        type            processor;
        value           nonuniform List<scalar> 
51
(
2044.695962
2037.759317
2037.759317
1949.788384
1930.133479
1904.983753
1874.719859
1839.823542
1800.805853
1758.23045
1712.54674
1664.258444
1613.834342
1561.674874
1508.25878
1453.910355
1399.069903
1344.012335
1289.106709
1234.591797
1180.74685
1127.806409
1075.940239
1025.367098
976.1820752
928.5315916
882.5125865
838.173913
795.6003801
754.7988754
715.7805867
678.5774963
643.1387306
609.4486653
577.48644
547.1862378
518.5113467
491.4045363
465.794194
441.6349329
418.8472431
397.3657006
377.1392636
358.0852045
340.1492418
323.2663574
307.3704168
292.4159956
278.3358228
265.093432
252.579762
)
;
    }
    procBoundary9to10
    {
        type            processor;
        value           nonuniform List<scalar> 
51
(
5677.670292
5657.182164
5617.222041
5556.490834
5479.077895
5386.826033
5281.799931
5165.919551
5041.011747
4909.014318
4771.340463
4629.656691
4485.084886
4338.892274
4192.038072
4045.352681
3899.661547
3755.468854
3447.171773
3447.171773
3314.346604
3183.846126
3055.880344
2930.639447
2808.305234
2688.991241
2572.765442
2459.693766
2349.822866
2243.245621
2139.938165
2039.923871
1943.218198
1849.843159
1759.826031
1673.136852
1589.762463
1509.681914
1432.90641
1359.403879
1289.121399
1222.0098
1158.036373
1097.136237
1039.221036
984.2037435
932.012482
882.5459833
835.7152605
791.483692
749.3088401
)
;
    }
}


// ************************************************************************* //
