/*--------------------------------*- C++ -*----------------------------------*\
  =========                 |
  \\      /  F ield         | OpenFOAM: The Open Source CFD Toolbox
   \\    /   O peration     | Website:  https://openfoam.org
    \\  /    A nd           | Version:  7
     \\/     M anipulation  |
\*---------------------------------------------------------------------------*/
FoamFile
{
    version     2.0;
    format      ascii;
    class       volScalarField;
    location    "0.0003";
    object      rho;
}
// * * * * * * * * * * * * * * * * * * * * * * * * * * * * * * * * * * * * * //

dimensions      [1 -3 0 0 0 0 0];

internalField   nonuniform List<scalar> 
1166
(
980.1219052
980.0797823
979.9895055
979.8561575
979.6826565
979.471577
979.2256899
978.9471056
978.6380994
978.3011213
977.9379347
977.5509535
977.1417726
976.7124599
976.264783
975.8002756
975.320901
974.8279582
979.3577517
979.3160061
979.2265443
979.0944173
978.9225352
978.7134699
978.4700303
978.1941958
977.8883408
977.5547886
977.1953725
976.8123952
976.4075472
975.9828063
975.5399804
975.0805587
974.606445
974.1190056
973.6196507
973.1099715
972.5912935
972.0647488
971.5315473
970.9930822
970.4503528
969.9043098
969.3558866
968.8060805
968.255712
967.7053357
967.1555774
966.6070126
966.0603307
965.515841
964.9738598
964.4347386
963.8989536
963.3669147
962.838728
962.3146818
961.7951216
961.2803552
960.7704196
960.265491
959.7658528
959.271669
958.7829097
958.299682
957.8223965
957.3507813
978.6120863
978.5707441
978.4821504
978.3513146
978.1811272
977.9741739
977.7331847
977.4601459
977.157431
976.8272997
976.471634
976.0926831
975.6921383
975.2719679
974.8339229
974.3794961
973.9106538
973.4286571
972.934942
972.4311747
971.9185147
971.3981626
970.8713578
970.3395579
969.8035433
969.2643057
968.7227793
968.1800012
967.6365373
967.0930124
966.5500451
966.0082839
965.468258
964.9302125
964.3945445
963.8617033
963.3322536
962.8062604
962.2840445
961.7659245
961.2523283
960.7432709
960.2389426
959.7396081
959.245534
958.7566643
958.273111
957.7952922
957.3229993
956.8562972
977.8846729
977.843745
977.7560407
977.6265224
977.4580556
977.2532079
977.0146596
976.7444145
976.4448247
976.1181336
975.7661897
975.3912657
974.9949803
974.5793195
974.146017
973.6965637
973.2329388
972.7563465
972.2682376
971.7703055
971.2636153
970.7494315
970.2291017
969.7037891
969.1743684
968.6418074
968.1070774
967.5710418
967.0342317
966.4973106
965.9608949
965.4257211
964.8919733
964.3600943
963.8305319
963.3039439
962.7804104
962.2602696
961.7438388
961.2316082
960.7236184
960.2200641
959.721204
959.2273835
958.7385338
958.2547845
957.7765395
957.303664
956.83621
956.3744961
977.1751302
977.1346141
977.0477942
976.9195868
976.7528343
976.5500657
976.3139762
976.0465302
975.7500352
975.4267836
975.0785286
974.7075773
974.3154897
973.9043499
973.4757353
973.0312475
972.5727959
972.1015461
971.6190273
971.1268602
970.6261212
970.1180765
969.6041235
969.0851943
968.5622308
968.036153
967.5080891
966.9785113
966.4481196
965.9175367
965.3876013
964.8585429
964.3308168
963.8049062
963.2814642
962.7606805
962.242882
961.7284092
961.2177602
960.7110463
960.2084577
959.7102591
959.2168519
958.7281676
958.2443539
957.7658144
957.2924638
956.8243535
956.3617946
955.9047492
976.4829847
976.442883
976.3569524
976.230061
976.0650245
975.8643359
975.6306705
975.3660222
975.0725856
974.7527249
974.4080884
974.0411208
973.6531995
973.2465351
972.8225729
972.3830685
971.9296927
971.4637226
970.9868246
970.5003887
970.0055513
969.5036056
968.9958858
968.4831939
967.9665051
967.4468961
966.9251053
966.4017617
965.8775358
965.3532524
964.829305
964.3061243
963.7842299
963.264281
962.7465613
962.2313953
961.7191497
961.2103404
960.7051304
960.2037178
959.7063846
959.2135672
958.7252093
958.2414778
957.7627894
957.2890845
956.8204262
956.3571325
955.8991927
955.4465645
975.807818
975.7681299
975.6830865
975.5575078
975.3941835
975.1955844
974.9642748
974.7023808
974.41194
974.0954776
973.7545158
973.3914111
973.0076232
972.6054253
972.1860655
971.7514851
971.3031502
970.8424392
970.3711783
969.8904033
969.4013532
968.9055208
968.4038154
967.8971869
967.3866638
966.8732509
966.3575086
965.8401572
965.3220142
964.8036299
964.285416
963.7679303
963.2518471
962.7375307
962.2253117
961.7155852
961.2088947
960.7054371
960.2054301
959.7091842
959.2171504
958.7292967
958.2458098
957.7671324
957.2932082
956.8241237
956.3602179
955.9014836
955.4478978
954.9997749
975.1492324
975.1099216
975.0257506
974.9014626
974.739822
974.5432776
974.3142914
974.0551553
973.7677842
973.4545834
973.1172723
972.758001
972.3784261
971.980538
971.565714
971.1360611
970.6927486
970.2374156
969.7716028
969.2963878
968.8131561
968.3231944
967.8273387
967.3265914
966.8221647
966.3146136
965.8046892
965.2932074
964.7808703
964.268075
963.7554192
963.2436009
962.7330534
962.2241205
961.7172285
961.2129575
960.7115222
960.2131706
959.718252
959.2272137
958.7400588
958.256995
957.7785028
957.3045087
956.8351329
956.3707495
955.9113321
955.4568882
955.0077593
954.5639168
974.506762
974.467828
974.3844499
974.2614541
974.1014985
973.9070102
973.6803084
973.423896
973.1395696
972.8296029
972.4959481
972.1404484
971.7650358
971.3714221
970.9612726
970.5364102
970.0980887
969.6480932
969.1876111
968.7178685
968.2404051
967.7560775
967.2658916
966.7710407
966.2723086
965.7703997
965.2661335
964.7603604
964.2534669
963.7460921
963.2389654
962.7325795
962.2272976
961.7235798
961.2220514
960.7229303
960.2265047
959.7331728
959.2433608
958.7571172
958.2746716
957.7965546
957.3226548
956.8531374
956.3884241
955.9284482
955.473258
955.0232355
954.5783157
954.1384826
973.8799657
973.8414359
973.7588769
973.6370727
973.47878
973.2863238
973.0619711
972.8081832
972.5269063
972.220123
971.8900782
971.5383006
971.1670549
970.777697
970.3722501
969.9521125
969.5187923
969.0739869
968.6187329
968.1544964
967.6824945
967.2036215
966.7190521
966.2298048
965.7365367
965.240074
964.7414155
964.2409391
963.7393273
963.2373471
962.7355434
962.2343043
961.7341259
961.2356864
960.7391943
960.2449872
959.7535213
959.2651858
958.7800848
958.2984803
957.8209343
957.3473091
956.8778147
956.412933
955.9525366
955.496725
955.0459332
954.6000384
954.1590744
953.7234736
973.2683898
973.2302596
973.1485587
973.0279262
972.8712464
972.6808278
972.4588609
972.2076093
971.9293419
971.6257738
971.2992558
970.951321
970.5841181
970.1990663
969.7982051
969.382705
968.9544521
968.514624
968.0644948
967.6056588
967.1388918
966.6653487
966.1862913
965.7023276
965.214325
964.7233291
964.229819
963.734484
963.2381349
962.7413632
962.2445861
961.7483385
961.2533586
960.7598342
960.2681606
959.7788607
959.2922727
958.8085646
958.3280699
957.8512789
957.378125
956.9088335
956.443959
955.9832938
955.5269981
955.0755727
954.6288159
954.1868425
953.7500786
953.3182508
972.6716564
972.6339269
972.5530854
972.4337245
972.2785153
972.0901061
971.8704951
971.6218146
971.3464791
971.0462311
970.7231277
970.3791064
970.0158505
969.6351833
969.2387057
968.8279169
968.4044991
967.9695204
967.5246111
967.0707872
966.6090987
966.1409288
965.6669717
965.1880951
964.7053757
964.2194145
963.7309028
963.2406996
962.7494394
962.2575725
961.7656953
961.2745489
960.7843559
960.2955543
959.8087421
959.3241936
958.8421493
958.3630234
957.8872189
957.4147504
956.9459065
956.481179
956.0204117
955.5638169
955.1118731
954.6643809
954.2215449
953.7836993
953.3506388
952.9226143
972.0893609
972.0520263
971.9720324
971.8539269
971.7003521
971.5137495
971.2964953
971.0505097
970.7779735
970.4810598
970.1613574
969.8212042
969.461836
969.0855164
968.693345
968.287281
967.8684675
967.4383658
966.9983646
966.5494048
966.0928548
965.6296459
965.1605933
964.6868059
964.2090119
963.7279037
963.2443921
962.7591539
962.2726746
961.7856237
961.298723
960.8122504
960.3266836
959.8427032
959.3605083
958.8804192
958.4029403
957.9283725
957.456821
956.9886572
956.5242621
956.0635743
955.6068799
955.1545446
954.7064557
954.2628933
953.8240803
953.3898904
952.9606443
952.5363254
971.5210997
971.4841601
971.4050145
971.2881661
971.1362357
970.9515526
970.7365265
970.493249
970.2236042
969.9298964
969.6137736
969.2772131
968.9219444
968.5496479
968.1618641
967.7602396
967.3459068
966.9206509
966.4852933
966.041183
965.5895034
965.1310112
964.6668475
964.1978746
963.7247847
963.2485427
962.7698688
962.289285
961.807539
961.3253293
960.8429927
960.3610487
959.8802671
959.4007626
958.922942
958.447408
957.9743468
957.5039624
957.0367179
956.5728683
956.1124571
955.6558532
955.2032924
954.754759
954.3106186
953.8709647
953.4357605
953.0054071
952.5797663
952.1588958
970.9666962
970.9300951
970.8516967
970.7361138
970.5858387
970.4031824
970.1903269
969.9496884
969.6830378
969.392347
969.0797941
968.7467652
968.3955169
968.0271424
967.6437503
967.24634
966.8366448
966.4158068
965.9849973
965.5456696
965.0985142
964.6447029
964.1852423
963.720821
963.2524596
962.7809252
962.3067765
961.8308432
961.3537988
960.8760414
960.3981864
959.9209417
959.4444883
958.9692719
958.4960016
958.0247371
957.5557894
957.0897212
956.6266479
956.1667271
955.7104188
955.2578133
954.8090016
954.3644447
953.924089
953.4879974
953.0566617
952.6298039
952.2076381
951.7904236
970.4257974
970.3895963
970.3120364
970.1975381
970.0488489
969.8682033
969.6576975
969.4194517
969.1557891
968.8682732
968.5590348
968.2297478
967.8821447
967.5178793
967.1384649
966.745318
966.3399606
965.9233754
965.4972416
965.06224
964.6195478
964.1703287
963.7152633
963.2554277
962.7916419
962.3245003
961.8549178
961.3835427
960.9108364
960.4375213
959.9642201
959.4912036
959.0190073
958.5482813
958.0791255
957.6119174
957.1472883
956.6852402
956.2260409
955.7702494
955.3177958
954.8689041
954.4240884
953.9831835
953.5464272
953.1141598
952.6862011
952.262854
951.8442284
951.4302162
969.8980091
969.8622049
969.7854959
969.6722548
969.525031
969.3462694
969.1381096
968.9024758
968.6415029
968.3571967
968.0511083
967.7254858
967.3814859
967.021173
966.6456147
966.2567429
965.8554171
965.443287
965.021298
964.5905305
964.1523213
963.7073365
963.256707
962.8013137
962.3417849
961.8791224
961.4139514
960.9467973
960.4784942
960.0095766
959.5404078
959.0716397
958.6037951
958.1370813
957.6720026
957.2090286
956.7482737
956.290136
955.8350077
955.3829186
954.9342255
954.4892578
954.0479697
953.6107138
953.1776502
952.7487183
952.324315
951.9043832
951.4889872
951.0784477
969.3830063
969.3475981
969.2717383
969.1597526
969.0141643
968.8372192
968.6312224
968.3982041
968.1399582
967.8586505
967.5559518
967.2335703
966.893339
966.5366095
966.1651034
965.7800364
965.3828471
964.9747704
964.5567722
964.1303808
963.6962398
963.2555324
962.8092114
962.3579356
961.9027941
961.4443937
960.9833236
960.5205328
960.0564662
959.5915828
959.1266555
958.6620746
958.1981594
957.7355477
957.2745387
956.8153645
956.3585661
955.9043458
955.4528506
955.0045759
954.5596522
954.1181613
953.6805799
953.2468722
952.8171191
952.3917832
951.9706606
951.5540187
951.141998
950.7344567
968.880714
968.8456396
968.7704955
968.6597071
968.5157266
968.3407346
968.1368253
967.9062264
967.6508263
967.3723042
967.0728506
966.7538029
966.4170556
966.0639739
965.6962058
965.3149346
964.9217117
964.5173999
964.1036408
963.6811457
963.2511129
962.8145805
962.3722333
961.9252469
961.4742164
961.0197934
960.5630444
960.1043255
959.6441927
959.1835445
958.7226347
958.2618987
957.8021138
957.3434013
956.8861159
956.4309497
955.9779043
955.5272501
955.0796298
954.6349619
954.1934934
953.7557439
953.3215579
952.891229
952.4650154
952.0428291
951.6250661
951.2116699
950.8026623
950.3984194
968.3907049
968.3560157
968.2816964
968.1719845
968.0293731
967.8563046
967.6546288
967.4263228
967.17355
966.8980375
966.6014403
966.2857982
965.9522553
965.6028692
965.2385335
964.8611474
964.4714885
964.0712071
963.6611994
963.2426308
962.8166409
962.383934
961.9457706
961.502743
961.0555629
960.6054152
960.1525707
959.6977216
959.2417784
958.784974
958.3278802
957.8712467
957.4151854
956.9601898
956.5068945
956.055311
955.605862
955.1590489
954.7148659
954.2737215
953.8359137
953.4014293
952.9706984
952.5437592
952.1206479
951.7018992
951.2872434
950.8769311
950.4711366
950.0697234
967.9125403
967.8782303
967.8047224
967.6962063
967.555124
967.3836467
967.1840718
966.9582189
966.7078901
966.435199
966.1416712
965.8290037
965.4989402
965.1527305
964.7920684
964.4180404
964.0321546
963.6355167
963.2292401
962.8145849
962.3922675
961.9636297
961.5292728
961.0900185
960.6470081
960.2005956
959.7516001
959.3008083
958.8485704
958.3956019
957.9424739
957.4894418
957.0371391
956.5859945
956.1361797
955.6882502
955.2424848
954.7990323
954.3584465
953.9207909
953.4862027
953.0552567
952.6277577
952.2039871
951.7842825
951.3684948
950.9570022
950.5497617
950.1468444
949.7485735
967.4460608
967.4120638
967.3392262
967.231872
967.0922977
966.92265
966.7249517
966.5013513
966.2536522
965.9834775
965.6929269
965.3833023
965.0563369
964.713444
964.3560642
963.9855305
963.6031849
963.2100664
962.8075768
962.3964356
961.9780616
961.5530785
961.1224138
960.6871628
960.2477713
959.8051829
959.3600635
958.9128809
958.4644979
958.0153048
957.5657037
957.1164731
956.6678298
956.2201112
955.7740112
955.3295772
954.8871642
954.447343
954.0100668
953.5757121
953.1446215
952.7167422
952.2924947
951.8719747
951.4552047
951.0426555
950.6340847
950.2298052
949.8299161
949.4343476
966.9909659
966.9573293
966.8852629
966.7788721
966.6405489
966.4726801
966.2770448
966.0555422
965.8102093
965.5428117
965.25481
964.9482453
964.6242112
964.2845387
963.9303529
963.5632627
963.1842066
962.7947525
962.3956129
961.9882766
961.5734067
961.1520257
960.7251943
960.2934456
959.8578482
959.4189524
958.9773428
958.534032
958.08923
957.6435487
957.1977314
956.7519633
956.3068059
955.86275
955.4199511
954.9789548
954.540072
954.1034191
953.6695369
953.238504
952.8104408
952.3858993
951.9647282
951.5472449
951.1336644
950.7238904
950.3183725
949.9169703
949.519874
949.1272645
966.4421216
966.3368359
966.1999408
966.0335319
965.8397468
965.6205093
965.377451
965.112489
964.8273183
964.5232972
964.2024101
963.865608
963.5147775
963.1507271
962.7752187
962.3889449
961.9934573
961.589477
961.1781086
960.7603923
960.3369421
959.9089515
959.4768626
959.0414657
958.603646
958.1637195
957.7224712
957.2804353
956.8379406
956.3957326
955.9540566
955.5132172
955.0739449
954.6362822
954.2005546
953.7673523
953.3366026
952.9087011
952.4839283
952.0622838
951.644258
951.2297969
950.8190297
950.4123357
950.0095357
949.6110241
949.2167368
948.8267672
)
;

boundaryField
{
    front_top
    {
        type            wedge;
    }
    front_middle
    {
        type            wedge;
    }
    front_bottom
    {
        type            wedge;
    }
    back_top
    {
        type            wedge;
    }
    back_middle
    {
        type            wedge;
    }
    back_bottom
    {
        type            wedge;
    }
    axis_top
    {
        type            symmetryPlane;
    }
    axis_middle
    {
        type            symmetryPlane;
    }
    axis_bottom
    {
        type            symmetryPlane;
    }
    wall_top
    {
        type            calculated;
        value           nonuniform List<scalar> 
23
(
957.1160624
956.6241647
956.1446243
955.6771839
955.221364
954.7766496
954.3429198
953.9196601
953.5064531
953.1032888
952.7094803
952.3250081
951.9494448
951.5825833
951.224176
950.8738858
950.5316135
950.1969832
949.8699323
949.5501223
949.2374384
948.9316553
948.632529
)
;
    }
    wall_middle
    {
        type            calculated;
        value           nonuniform 0();
    }
    wall_bottom
    {
        type            calculated;
        value           nonuniform 0();
    }
    inlet
    {
        type            calculated;
        value           nonuniform 0();
    }
    outlet
    {
        type            calculated;
        value           nonuniform 0();
    }
    procBoundary9to8
    {
        type            processor;
        value           nonuniform List<scalar> 
51
(
966.546722
966.5134367
966.5134367
966.0095725
965.9052393
965.7697391
965.6050154
965.4130164
965.1956651
964.9549888
964.6923943
964.4097191
964.1085954
963.7903326
963.456725
963.1087173
962.7480503
962.3755468
961.9927563
961.60048
961.1998891
960.7920191
960.3775775
959.9578212
959.5331542
959.1045549
958.6727635
958.2382248
957.8018914
957.3640888
956.9253063
956.4864303
956.0475056
955.6090755
955.1717491
954.7356085
954.3011973
953.8688278
953.4386037
953.0110951
952.5862995
952.1644286
951.745988
951.3308102
950.9192703
950.5114752
950.1074278
949.7075992
949.3117384
948.9201963
948.5329302
)
;
    }
    procBoundary9to10
    {
        type            processor;
        value           nonuniform List<scalar> 
51
(
980.9047133
980.8621962
980.771186
980.636732
980.4617494
980.2488002
980.0005689
979.7193519
979.4072467
979.0669017
978.6999388
978.3089414
977.8954029
977.4615291
977.008965
976.5393321
976.0546191
975.5561158
974.322892
974.322892
973.807308
973.2825181
972.7497037
972.2100869
971.6649541
971.1154098
970.5624245
970.0069838
969.4499647
968.8924722
968.3349896
967.7781808
967.2226363
966.6689372
966.117675
965.5690804
965.0234974
964.4812323
963.9427998
963.4084354
962.8782984
962.3526451
961.831862
961.3161134
960.8054706
960.3000982
959.8003113
959.3061459
958.8176126
958.3348587
957.8581671
)
;
    }
}


// ************************************************************************* //
