/*--------------------------------*- C++ -*----------------------------------*\
  =========                 |
  \\      /  F ield         | OpenFOAM: The Open Source CFD Toolbox
   \\    /   O peration     | Website:  https://openfoam.org
    \\  /    A nd           | Version:  7
     \\/     M anipulation  |
\*---------------------------------------------------------------------------*/
FoamFile
{
    version     2.0;
    format      ascii;
    class       volVectorField;
    location    "0.0003";
    object      U;
}
// * * * * * * * * * * * * * * * * * * * * * * * * * * * * * * * * * * * * * //

dimensions      [0 1 -1 0 0 0 0];

internalField   nonuniform List<vector> 
1166
(
(1.931995251e-08 8.544326427e-20 -0.002115088582)
(5.04632498e-08 1.937834234e-19 -0.002115092029)
(7.968804432e-08 3.44414072e-19 -0.002115099437)
(1.094012651e-07 1.423482725e-19 -0.002115110391)
(1.384784406e-07 5.291052607e-22 -0.002115124619)
(1.666049596e-07 1.059862815e-19 -0.002115141879)
(1.936555715e-07 1.835913446e-19 -0.002115161942)
(2.195555459e-07 2.663541768e-19 -0.002115184594)
(2.44226551e-07 2.101077934e-19 -0.002115209624)
(2.675976203e-07 1.77579191e-19 -0.002115236832)
(2.896085664e-07 1.563168144e-19 -0.002115266029)
(3.102091573e-07 1.419677907e-19 -0.002115297032)
(3.293567885e-07 1.347687117e-19 -0.002115329669)
(3.470120208e-07 1.426668953e-19 -0.002115363776)
(3.631404165e-07 1.547692227e-19 -0.00211539919)
(3.777052157e-07 1.679428879e-19 -0.00211543576)
(3.906907736e-07 1.814038038e-19 -0.002115473338)
(4.020825672e-07 1.954525104e-19 -0.002115511787)
(2.003644906e-08 6.842988069e-20 -0.002116507204)
(5.232912152e-08 1.287755562e-19 -0.002116510421)
(8.260748568e-08 1.74462848e-19 -0.002116517346)
(1.133489273e-07 2.370338904e-19 -0.002116527585)
(1.433736151e-07 3.005704718e-19 -0.002116540884)
(1.723496076e-07 2.205395424e-19 -0.002116557021)
(2.001602181e-07 1.550816711e-19 -0.002116575787)
(2.267339304e-07 8.896001745e-20 -0.00211659699)
(2.519950767e-07 9.341810113e-20 -0.002116620438)
(2.758799909e-07 8.407238216e-20 -0.002116645953)
(2.983326579e-07 6.955657833e-20 -0.00211667336)
(3.193040715e-07 6.164355832e-20 -0.002116702494)
(3.387516316e-07 4.964192427e-20 -0.002116733192)
(3.566335795e-07 8.114870197e-20 -0.002116765302)
(3.729209135e-07 1.036049015e-19 -0.002116798675)
(3.875894256e-07 1.193207466e-19 -0.002116833173)
(4.006181828e-07 1.2988213e-19 -0.002116868666)
(4.119901573e-07 1.36099835e-19 -0.002116905023)
(4.216894463e-07 1.384152723e-19 -0.002116942125)
(4.296951441e-07 1.382228998e-19 -0.002116979856)
(4.359972137e-07 1.351673292e-19 -0.002117018106)
(4.405985359e-07 1.30047003e-19 -0.002117056772)
(4.434937725e-07 1.234506813e-19 -0.002117095754)
(4.446599921e-07 1.154670562e-19 -0.002117134954)
(4.440913108e-07 1.057657883e-19 -0.002117174278)
(4.418105806e-07 1.176507275e-19 -0.002117213638)
(4.378397402e-07 1.277588129e-19 -0.002117252947)
(4.321906583e-07 1.474515263e-19 -0.002117292122)
(4.249095028e-07 1.662514929e-19 -0.00211733108)
(4.160759296e-07 1.751384511e-19 -0.00211736974)
(4.057579988e-07 1.836476647e-19 -0.002117408019)
(3.940128772e-07 1.918531253e-19 -0.002117445828)
(3.808982062e-07 1.998226584e-19 -0.002117483072)
(3.665039065e-07 2.078958059e-19 -0.002117519652)
(3.509311273e-07 2.162388551e-19 -0.002117555466)
(3.342505518e-07 2.253331579e-19 -0.002117590399)
(3.165003105e-07 2.36174983e-19 -0.00211762432)
(2.977345756e-07 2.357302088e-19 -0.002117657091)
(2.780343421e-07 2.371822641e-19 -0.002117688566)
(2.574585233e-07 2.398823301e-19 -0.002117718586)
(2.360384227e-07 2.435335265e-19 -0.002117746975)
(2.138204929e-07 2.48000452e-19 -0.002117773549)
(1.908752643e-07 2.532331461e-19 -0.002117798113)
(1.672548878e-07 2.592363684e-19 -0.002117820458)
(1.429898996e-07 2.661475874e-19 -0.002117840362)
(1.181260532e-07 2.685936994e-19 -0.002117857592)
(9.271349205e-08 2.720056671e-19 -0.002117871906)
(6.678384186e-08 2.71366293e-19 -0.00211788305)
(4.051199487e-08 2.720047087e-19 -0.002117890754)
(1.441248993e-08 2.698622883e-19 -0.002117894744)
(2.062883022e-08 2.238038883e-20 -0.002117884227)
(5.386788373e-08 -1.673307489e-20 -0.002117887239)
(8.501005036e-08 -1.213454481e-19 -0.002117893734)
(1.165976044e-07 1.671755591e-19 -0.002117903345)
(1.474063819e-07 3.794514549e-19 -0.002117915835)
(1.770946855e-07 3.126825369e-19 -0.002117931003)
(2.055534576e-07 2.801065314e-19 -0.002117948659)
(2.327111234e-07 2.566712151e-19 -0.002117968626)
(2.584904145e-07 2.341095321e-19 -0.002117990729)
(2.828272543e-07 1.904057906e-19 -0.002118014802)
(3.056655557e-07 1.357431535e-19 -0.002118040683)
(3.269531214e-07 1.269397647e-19 -0.002118068219)
(3.466491004e-07 1.060180215e-19 -0.002118097262)
(3.647193854e-07 1.267154609e-19 -0.00211812767)
(3.81138589e-07 1.393713889e-19 -0.002118159311)
(3.958850261e-07 1.466296779e-19 -0.002118192056)
(4.089299294e-07 1.499335428e-19 -0.002118225782)
(4.202548105e-07 1.501434513e-19 -0.002118260373)
(4.29849117e-07 1.477645018e-19 -0.002118295718)
(4.376910253e-07 1.438010477e-19 -0.002118331711)
(4.437754595e-07 1.374989693e-19 -0.002118368252)
(4.481059891e-07 1.287666843e-19 -0.002118405247)
(4.506588095e-07 1.174038231e-19 -0.0021184426)
(4.514209053e-07 1.162824817e-19 -0.002118480219)
(4.50415934e-07 1.145083448e-19 -0.00211851802)
(4.476757965e-07 1.197813907e-19 -0.002118555923)
(4.432224939e-07 1.257911195e-19 -0.002118593849)
(4.370875643e-07 1.432938758e-19 -0.002118631717)
(4.293412331e-07 1.603076298e-19 -0.002118669451)
(4.200669985e-07 1.782320062e-19 -0.002118706973)
(4.093306104e-07 1.961254828e-19 -0.002118744201)
(3.971819534e-07 2.056519133e-19 -0.002118781043)
(3.837010944e-07 2.073781275e-19 -0.002118817405)
(3.689968811e-07 2.097699954e-19 -0.002118853191)
(3.53148539e-07 2.128135274e-19 -0.002118888291)
(3.361931517e-07 2.162414853e-19 -0.002118922584)
(3.181767051e-07 2.198467085e-19 -0.002118955933)
(2.991819033e-07 2.235641414e-19 -0.002118988202)
(2.792771916e-07 2.276235756e-19 -0.002119019238)
(2.584955345e-07 2.319974723e-19 -0.002119048874)
(2.3687792e-07 2.36661053e-19 -0.00211907693)
(2.144962538e-07 2.415961766e-19 -0.00211910322)
(1.914110536e-07 2.467801275e-19 -0.002119127544)
(1.676534391e-07 2.464533476e-19 -0.002119149687)
(1.43268036e-07 2.460087946e-19 -0.002119169424)
(1.183192109e-07 2.453246646e-19 -0.002119186521)
(9.283105499e-08 2.44337465e-19 -0.002119200732)
(6.683124305e-08 2.42951956e-19 -0.002119211796)
(4.052591167e-08 2.423900831e-19 -0.00211921945)
(1.441042296e-08 2.399365805e-19 -0.002119223415)
(2.110807961e-08 7.685398261e-20 -0.00211922157)
(5.511329734e-08 1.499118341e-19 -0.002119224408)
(8.695835682e-08 1.935991297e-19 -0.002119230542)
(1.192402655e-07 2.338422494e-19 -0.002119239624)
(1.507004962e-07 2.709673372e-19 -0.002119251435)
(1.809934161e-07 3.034801912e-19 -0.002119265788)
(2.100050423e-07 3.428520663e-19 -0.002119282509)
(2.37656441e-07 3.957475791e-19 -0.002119301432)
(2.638728538e-07 3.742372733e-19 -0.002119322393)
(2.885857607e-07 3.764151224e-19 -0.00211934524)
(3.117391125e-07 3.970208937e-19 -0.002119369823)
(3.332869688e-07 3.532880916e-19 -0.002119396002)
(3.531917438e-07 3.276912086e-19 -0.002119423641)
(3.714166418e-07 2.880109679e-19 -0.002119452612)
(3.879330175e-07 2.600626593e-19 -0.002119482789)
(4.0271588e-07 2.402434144e-19 -0.002119514056)
(4.157377488e-07 2.258891886e-19 -0.002119546295)
(4.269867274e-07 2.1520148e-19 -0.002119579403)
(4.364481876e-07 2.048639133e-19 -0.00211961328)
(4.441051884e-07 2.007515346e-19 -0.002119647825)
(4.499545199e-07 1.9616454e-19 -0.002119682946)
(4.539891366e-07 1.924773918e-19 -0.002119718555)
(4.561825451e-07 1.871680415e-19 -0.002119754564)
(4.565470465e-07 1.841916861e-19 -0.002119790888)
(4.551314149e-07 1.756073463e-19 -0.002119827454)
(4.519700316e-07 1.775077468e-19 -0.002119864187)
(4.470826397e-07 1.755410242e-19 -0.002119901009)
(4.40525408e-07 1.707228357e-19 -0.002119937847)
(4.323926765e-07 1.651162719e-19 -0.002119974629)
(4.227598754e-07 1.687945474e-19 -0.002120011276)
(4.116758427e-07 1.719958267e-19 -0.002120047704)
(3.992088857e-07 1.720711571e-19 -0.002120083821)
(3.854681677e-07 1.739263724e-19 -0.002120119536)
(3.705420154e-07 1.721890648e-19 -0.002120154748)
(3.544698893e-07 1.827349882e-19 -0.002120189339)
(3.372924779e-07 1.909507796e-19 -0.00212022318)
(3.190914148e-07 1.899543061e-19 -0.00212025614)
(2.999420993e-07 1.869051876e-19 -0.002120288073)
(2.798800653e-07 1.947346253e-19 -0.00212031882)
(2.589429711e-07 2.010339135e-19 -0.002120348208)
(2.372031096e-07 2.066105033e-19 -0.002120376057)
(2.147279954e-07 2.121429206e-19 -0.002120402176)
(1.915492292e-07 2.168255316e-19 -0.002120426358)
(1.677078529e-07 2.247973364e-19 -0.002120448383)
(1.432741966e-07 2.26422668e-19 -0.002120468026)
(1.182893272e-07 2.285609541e-19 -0.002120485049)
(9.276698749e-08 2.312379485e-19 -0.0021204992)
(6.676847434e-08 2.345198019e-19 -0.002120510222)
(4.048681013e-08 2.33574462e-19 -0.002120517847)
(1.438925754e-08 2.364688992e-19 -0.002120521793)
(2.149881803e-08 2.127353691e-19 -0.002120521169)
(5.612849411e-08 5.306790717e-19 -0.002120523863)
(8.854752623e-08 5.148382784e-19 -0.002120529696)
(1.213985665e-07 3.442644379e-19 -0.002120538337)
(1.533943236e-07 2.567366849e-19 -0.002120549579)
(1.841829427e-07 2.169055002e-19 -0.002120563244)
(2.136462163e-07 2.025557498e-19 -0.002120579171)
(2.416978054e-07 2.042551947e-19 -0.002120597205)
(2.682655187e-07 2.196844085e-19 -0.002120617195)
(2.932841159e-07 2.514672675e-19 -0.002120639002)
(3.166985209e-07 2.973896386e-19 -0.002120662487)
(3.384594517e-07 2.940634996e-19 -0.002120687519)
(3.585263971e-07 3.039488535e-19 -0.002120713973)
(3.768602076e-07 2.75983799e-19 -0.00212074173)
(3.934299556e-07 2.565903454e-19 -0.002120770674)
(4.082052405e-07 2.447507992e-19 -0.002120800697)
(4.211666593e-07 2.383227393e-19 -0.002120831693)
(4.323147374e-07 2.36183623e-19 -0.002120863566)
(4.416183184e-07 2.190949196e-19 -0.002120896224)
(4.490577544e-07 2.231259084e-19 -0.002120929572)
(4.546382222e-07 2.290736109e-19 -0.002120963524)
(4.583514942e-07 2.367947886e-19 -0.002120997998)
(4.601895781e-07 2.463233735e-19 -0.002121032912)
(4.601853604e-07 2.430422019e-19 -0.002121068194)
(4.583932205e-07 2.386403752e-19 -0.002121103776)
(4.548427614e-07 2.359806915e-19 -0.002121139585)
(4.495752821e-07 2.298610761e-19 -0.002121175546)
(4.426764532e-07 2.075716092e-19 -0.002121211594)
(4.342343456e-07 2.021330567e-19 -0.002121247657)
(4.243023962e-07 1.941783277e-19 -0.002121283653)
(4.129400766e-07 1.843003018e-19 -0.002121319495)
(4.002528856e-07 1.824994644e-19 -0.002121355097)
(3.863372233e-07 1.885326879e-19 -0.002121390363)
(3.712348497e-07 1.931639569e-19 -0.002121425184)
(3.54982394e-07 1.947909012e-19 -0.002121459435)
(3.376593997e-07 1.962014143e-19 -0.002121492989)
(3.193465043e-07 1.95523378e-19 -0.002121525711)
(3.000822698e-07 1.943761663e-19 -0.002121557446)
(2.799025763e-07 1.899106165e-19 -0.002121588028)
(2.58879486e-07 1.830422019e-19 -0.002121617285)
(2.370851656e-07 1.66002727e-19 -0.002121645033)
(2.145527352e-07 1.564456991e-19 -0.002121671073)
(1.913212201e-07 1.540921158e-19 -0.002121695191)
(1.674629e-07 1.531789664e-19 -0.00212171717)
(1.430263991e-07 1.582249913e-19 -0.00212173678)
(1.180375338e-07 1.651621381e-19 -0.002121753775)
(9.254254566e-08 1.699821024e-19 -0.002121767906)
(6.659280452e-08 1.728886031e-19 -0.002121778914)
(4.03571272e-08 1.748808947e-19 -0.002121786527)
(1.432911357e-08 1.760923481e-19 -0.002121790466)
(2.181674275e-08 2.264759816e-20 -0.002121784809)
(5.695381359e-08 5.526829887e-21 -0.002121787379)
(8.983820407e-08 -3.754718884e-20 -0.002121792954)
(1.231491817e-07 -9.523026911e-20 -0.002121801219)
(1.555734994e-07 -1.678436267e-19 -0.002121811976)
(1.867507919e-07 -1.11691122e-19 -0.002121825057)
(2.165712345e-07 -9.672436896e-20 -0.00212184031)
(2.449494789e-07 -1.184491696e-19 -0.002121857594)
(2.718081067e-07 -8.779833665e-20 -0.002121876769)
(2.970757424e-07 -2.869349858e-20 -0.0021218977)
(3.206857096e-07 -1.036458244e-20 -0.002121920262)
(3.425959184e-07 4.557282541e-20 -0.002121944328)
(3.627698798e-07 7.542804787e-20 -0.002121969786)
(3.811609986e-07 1.143095895e-19 -0.002121996522)
(3.977385448e-07 1.393759329e-19 -0.002122024431)
(4.124708736e-07 1.555709232e-19 -0.002122053417)
(4.253447029e-07 1.658654339e-19 -0.002122083381)
(4.363619931e-07 1.719694071e-19 -0.002122114235)
(4.454730416e-07 1.774948492e-19 -0.002122145885)
(4.526625479e-07 1.984315081e-19 -0.002122178248)
(4.579557988e-07 2.171020104e-19 -0.002122211245)
(4.613398314e-07 2.34208569e-19 -0.002122244801)
(4.628288188e-07 2.502570976e-19 -0.00212227884)
(4.624845047e-07 2.658891151e-19 -0.0021223133)
(4.603518168e-07 2.811949711e-19 -0.002122348114)
(4.56457878e-07 2.766381949e-19 -0.002122383212)
(4.508768597e-07 2.724327077e-19 -0.002122418527)
(4.4370885e-07 2.693827956e-19 -0.002122453993)
(4.35013015e-07 2.66386261e-19 -0.002122489535)
(4.248419964e-07 2.643528579e-19 -0.002122525071)
(4.132941122e-07 2.634795322e-19 -0.002122560516)
(4.004709308e-07 2.641316665e-19 -0.002122595783)
(3.864188901e-07 2.666993367e-19 -0.002122630767)
(3.711733481e-07 2.718330931e-19 -0.002122665349)
(3.548095253e-07 2.626861847e-19 -0.002122699408)
(3.37410137e-07 2.556006338e-19 -0.002122732814)
(3.19018259e-07 2.583014003e-19 -0.002122765422)
(2.996699658e-07 2.626548205e-19 -0.002122797071)
(2.794365215e-07 2.540057614e-19 -0.002122827596)
(2.583920344e-07 2.463435324e-19 -0.00212285682)
(2.365720053e-07 2.409403906e-19 -0.002122884551)
(2.140154976e-07 2.316225188e-19 -0.002122910584)
(1.907964912e-07 2.220765276e-19 -0.002122934708)
(1.669655594e-07 2.163754016e-19 -0.0021229567)
(1.425527355e-07 2.173268256e-19 -0.002122976322)
(1.176165216e-07 2.160062819e-19 -0.002122993332)
(9.219560967e-08 2.131919627e-19 -0.002123007478)
(6.631917202e-08 2.086656628e-19 -0.002123018496)
(4.017779118e-08 2.075425449e-19 -0.002123026116)
(1.425911521e-08 2.057570279e-19 -0.002123030059)
(2.206491114e-08 -2.886912047e-20 -0.002123014086)
(5.760101322e-08 -1.366554018e-19 -0.002123016547)
(9.08564859e-08 -2.57440505e-19 -0.002123021901)
(1.245356978e-07 -1.536486501e-19 -0.002123029845)
(1.573047113e-07 -1.304702223e-19 -0.00212304019)
(1.887970799e-07 -1.540400083e-20 -0.00212305278)
(2.189081647e-07 4.962378366e-20 -0.002123067469)
(2.475473443e-07 8.834407454e-20 -0.002123084126)
(2.746205299e-07 1.03888986e-19 -0.002123102616)
(3.000644988e-07 1.184517774e-19 -0.002123122811)
(3.238090242e-07 1.291577197e-19 -0.002123144597)
(3.458109651e-07 1.409994447e-19 -0.002123167856)
(3.660286006e-07 1.51526045e-19 -0.002123192483)
(3.844195511e-07 1.601933783e-19 -0.002123218371)
(4.009688667e-07 1.660729822e-19 -0.002123245427)
(4.15632458e-07 1.687558408e-19 -0.002123273557)
(4.283853401e-07 1.67860146e-19 -0.002123302673)
(4.392126272e-07 1.628697541e-19 -0.002123332688)
(4.480820906e-07 1.914763554e-19 -0.002123363512)
(4.550074196e-07 2.191247848e-19 -0.002123395076)
(4.600035461e-07 2.424005636e-19 -0.002123427308)
(4.630644082e-07 2.649646047e-19 -0.002123460133)
(4.642370733e-07 2.879006043e-19 -0.002123493492)
(4.635920688e-07 2.974265238e-19 -0.002123527322)
(4.611546904e-07 3.088783965e-19 -0.002123561558)
(4.569769191e-07 3.086275707e-19 -0.002123596132)
(4.511587178e-07 3.115618778e-19 -0.002123630985)
(4.437746929e-07 3.189702112e-19 -0.002123666047)
(4.348751647e-07 3.089441375e-19 -0.002123701239)
(4.245468851e-07 3.033480442e-19 -0.002123736482)
(4.128926127e-07 3.004698525e-19 -0.002123771692)
(3.999659858e-07 2.992674871e-19 -0.00212380677)
(3.858016214e-07 2.98999222e-19 -0.002123841604)
(3.704711605e-07 2.993297752e-19 -0.002123876077)
(3.540590224e-07 2.999290024e-19 -0.002123910068)
(3.366112336e-07 3.011033278e-19 -0.002123943436)
(3.181641111e-07 3.03120444e-19 -0.002123976028)
(2.987893564e-07 3.060605201e-19 -0.002124007686)
(2.785619723e-07 3.102688999e-19 -0.00212403824)
(2.575191371e-07 3.165949507e-19 -0.002124067504)
(2.357014919e-07 3.339550041e-19 -0.002124095282)
(2.131849231e-07 3.425329475e-19 -0.002124121369)
(1.900201022e-07 3.427618134e-19 -0.00212414555)
(1.662375247e-07 3.462824779e-19 -0.002124167595)
(1.419017595e-07 3.46880549e-19 -0.002124187267)
(1.170630443e-07 3.4451155e-19 -0.002124204321)
(9.173790581e-08 3.458027077e-19 -0.002124218501)
(6.598019706e-08 3.462783356e-19 -0.002124229544)
(3.997664363e-08 3.456095409e-19 -0.002124237182)
(1.418397143e-08 3.455178723e-19 -0.002124241131)
(2.225457026e-08 1.866958146e-19 -0.002124210499)
(5.809607121e-08 4.836147766e-19 -0.002124212872)
(9.164494991e-08 4.497685307e-19 -0.002124218039)
(1.25620009e-07 5.290038022e-19 -0.002124225711)
(1.586612201e-07 6.704756756e-19 -0.00212423571)
(1.903986111e-07 5.342797423e-19 -0.002124247885)
(2.207304699e-07 4.857372221e-19 -0.002124262099)
(2.495597546e-07 5.028583781e-19 -0.002124278221)
(2.767758234e-07 4.842596731e-19 -0.002124296131)
(3.023301435e-07 3.774155137e-19 -0.002124315706)
(3.261573672e-07 3.187596637e-19 -0.00212433684)
(3.482023985e-07 2.858095804e-19 -0.002124359426)
(3.684165147e-07 2.675159865e-19 -0.002124383365)
(3.867674611e-07 2.58648136e-19 -0.002124408559)
(4.03233207e-07 2.563483713e-19 -0.002124434919)
(4.177654018e-07 2.587909788e-19 -0.002124462348)
(4.30346959e-07 2.646713476e-19 -0.002124490768)
(4.40943102e-07 2.767020234e-19 -0.002124520098)
(4.495517172e-07 2.873413693e-19 -0.002124550262)
(4.56210767e-07 2.831201167e-19 -0.002124581194)
(4.609081768e-07 2.801855598e-19 -0.002124612827)
(4.636682716e-07 2.777035832e-19 -0.002124645095)
(4.645684783e-07 2.74998128e-19 -0.002124677945)
(4.636475895e-07 2.744462189e-19 -0.002124711314)
(4.609432217e-07 2.735312526e-19 -0.002124745135)
(4.565467111e-07 2.72116575e-19 -0.002124779353)
(4.505466128e-07 2.703967666e-19 -0.002124813903)
(4.42990949e-07 2.683917538e-19 -0.002124848712)
(4.339549288e-07 2.662851689e-19 -0.002124883702)
(4.235422455e-07 2.774543717e-19 -0.002124918795)
(4.11812873e-07 2.896248807e-19 -0.002124953898)
(3.988005158e-07 3.029930288e-19 -0.002124988905)
(3.845740728e-07 3.081670407e-19 -0.002125023705)
(3.692194631e-07 3.151387266e-19 -0.002125058181)
(3.527841741e-07 3.137293267e-19 -0.0021250922)
(3.353047583e-07 3.142465792e-19 -0.002125125616)
(3.168545676e-07 3.170346183e-19 -0.002125158276)
(2.975084649e-07 3.139255257e-19 -0.00212519002)
(2.773046173e-07 3.128275842e-19 -0.002125220667)
(2.562867263e-07 3.135609727e-19 -0.002125250029)
(2.345325308e-07 3.160072728e-19 -0.002125277908)
(2.120912344e-07 3.199137111e-19 -0.002125304097)
(1.889937124e-07 3.253144518e-19 -0.002125328371)
(1.653085834e-07 3.253838747e-19 -0.002125350502)
(1.410891272e-07 3.271002956e-19 -0.002125370252)
(1.163630137e-07 3.242758265e-19 -0.002125387371)
(9.117366165e-08 3.151913224e-19 -0.002125401603)
(6.556945354e-08 3.123330379e-19 -0.002125412685)
(3.971219853e-08 3.076187349e-19 -0.002125420345)
(1.407870065e-08 3.091815648e-19 -0.002125424304)
(2.240058064e-08 1.004995104e-19 -0.002125375432)
(5.847016044e-08 2.070575755e-19 -0.002125377734)
(9.222804792e-08 3.618662252e-19 -0.00212538275)
(1.264239921e-07 5.235386451e-19 -0.002125390194)
(1.596745491e-07 5.052543958e-19 -0.002125399899)
(1.915914685e-07 3.759734371e-19 -0.002125411726)
(2.220644404e-07 2.965712255e-19 -0.00212542554)
(2.510106167e-07 2.385540586e-19 -0.002125441211)
(2.783203444e-07 2.789907232e-19 -0.002125458633)
(3.039344377e-07 2.920383098e-19 -0.002125477693)
(3.277879093e-07 2.722943406e-19 -0.002125498288)
(3.498286069e-07 2.606406273e-19 -0.002125520318)
(3.70006977e-07 2.560464821e-19 -0.002125543689)
(3.882795009e-07 2.578446641e-19 -0.00212556831)
(4.045997923e-07 2.676525296e-19 -0.002125594093)
(4.189382523e-07 2.871649234e-19 -0.002125620951)
(4.312984227e-07 2.928569916e-19 -0.00212564881)
(4.41647447e-07 3.106641631e-19 -0.002125677594)
(4.499996059e-07 3.206332676e-19 -0.002125707241)
(4.563774726e-07 3.253735683e-19 -0.002125737689)
(4.607861916e-07 3.096760737e-19 -0.00212576887)
(4.632875408e-07 2.882184699e-19 -0.002125800732)
(4.639418235e-07 2.580443216e-19 -0.002125833221)
(4.6277446e-07 2.490624934e-19 -0.002125866271)
(4.598643516e-07 2.428690302e-19 -0.002125899827)
(4.553127546e-07 2.383226164e-19 -0.002125933832)
(4.491666665e-07 2.346201749e-19 -0.002125968214)
(4.414894692e-07 2.311228685e-19 -0.002126002899)
(4.323854612e-07 2.274061082e-19 -0.002126037816)
(4.219202116e-07 2.341446005e-19 -0.002126072876)
(4.101262281e-07 2.409503096e-19 -0.002126107977)
(3.97070379e-07 2.362068086e-19 -0.002126143016)
(3.828398856e-07 2.353004656e-19 -0.002126177881)
(3.674822526e-07 2.334464208e-19 -0.002126212445)
(3.510342624e-07 2.321759676e-19 -0.002126246569)
(3.335721274e-07 2.310397054e-19 -0.002126280108)
(3.151695408e-07 2.299816606e-19 -0.002126312906)
(2.958649927e-07 2.298058254e-19 -0.002126344793)
(2.757065973e-07 2.295729866e-19 -0.002126375585)
(2.547731523e-07 2.290972577e-19 -0.002126405094)
(2.331113755e-07 2.28222694e-19 -0.002126433118)
(2.107535931e-07 2.268029215e-19 -0.002126459439)
(1.877734018e-07 2.246832301e-19 -0.002126483839)
(1.642223537e-07 2.216873266e-19 -0.002126506084)
(1.401308882e-07 2.19504044e-19 -0.002126525931)
(1.155584323e-07 2.136780155e-19 -0.002126543132)
(9.053913138e-08 2.050654345e-19 -0.00212655743)
(6.509904354e-08 1.974947101e-19 -0.00212656856)
(3.942284335e-08 1.958906088e-19 -0.002126576251)
(1.397336283e-08 1.9333827e-19 -0.002126580226)
(2.251092913e-08 1.652324133e-19 -0.002126510142)
(5.8749515e-08 -1.48217952e-19 -0.002126512385)
(9.264421232e-08 -8.69515937e-21 -0.00212651728)
(1.269809499e-07 8.306916718e-20 -0.00212652454)
(1.603764731e-07 -5.145507272e-20 -0.002126534)
(1.924168644e-07 -7.965506966e-21 -0.002126545534)
(2.229654838e-07 -8.80651645e-21 -0.002126559016)
(2.51964014e-07 -2.1439863e-20 -0.002126574321)
(2.793149447e-07 -2.068485883e-20 -0.002126591346)
(3.049355901e-07 4.255020098e-20 -0.002126609989)
(3.287673807e-07 8.4209811e-20 -0.002126630145)
(3.507461612e-07 1.125653055e-19 -0.002126651724)
(3.708206288e-07 1.329870315e-19 -0.002126674629)
(3.889496331e-07 1.128976089e-19 -0.002126698779)
(4.050858613e-07 8.872419731e-20 -0.002126724088)
(4.192162185e-07 8.64414343e-20 -0.002126750486)
(4.31327157e-07 8.053543186e-20 -0.002126777902)
(4.414113966e-07 6.806285825e-20 -0.002126806265)
(4.49508391e-07 9.142762712e-20 -0.002126835522)
(4.556129994e-07 1.097585374e-19 -0.002126865609)
(4.597645728e-07 1.259894428e-19 -0.002126896471)
(4.620440445e-07 1.405006064e-19 -0.002126928059)
(4.62475102e-07 1.523377884e-19 -0.002126960313)
(4.611140246e-07 1.630094301e-19 -0.002126993174)
(4.580640788e-07 1.723390411e-19 -0.002127026592)
(4.533824027e-07 1.801451578e-19 -0.0021270605)
(4.471245875e-07 1.867332612e-19 -0.002127094826)
(4.393912853e-07 1.922298621e-19 -0.002127129502)
(4.302522011e-07 1.949385427e-19 -0.002127164447)
(4.19738475e-07 1.824305878e-19 -0.002127199564)
(4.079156019e-07 1.647141099e-19 -0.002127234752)
(3.948719589e-07 1.482140059e-19 -0.002127269909)
(3.806537e-07 1.491750286e-19 -0.002127304913)
(3.652977674e-07 1.474224953e-19 -0.00212733963)
(3.488844064e-07 1.445567218e-19 -0.002127373924)
(3.314851521e-07 1.383819308e-19 -0.002127407645)
(3.131382455e-07 1.372524599e-19 -0.002127440629)
(2.938971801e-07 1.412994496e-19 -0.002127472701)
(2.738388995e-07 1.50075245e-19 -0.002127503679)
(2.530089572e-07 1.556771209e-19 -0.002127533369)
(2.314442844e-07 1.584140746e-19 -0.00212756156)
(2.092226368e-07 1.585382369e-19 -0.00212758804)
(1.86392316e-07 1.563911393e-19 -0.002127612585)
(1.629820862e-07 1.528597986e-19 -0.002127634956)
(1.390617199e-07 1.468733712e-19 -0.002127654912)
(1.146745202e-07 1.484179762e-19 -0.002127672205)
(8.983172643e-08 1.55517949e-19 -0.002127686573)
(6.458942592e-08 1.60663244e-19 -0.002127697753)
(3.911923038e-08 1.638792352e-19 -0.002127705476)
(1.38611824e-08 1.625406988e-19 -0.002127709464)
(2.258423982e-08 -1.251424011e-19 -0.002127615824)
(5.893620052e-08 -4.012955144e-19 -0.002127618016)
(9.291868972e-08 -3.167954507e-19 -0.002127622807)
(1.273188954e-07 -3.460358512e-19 -0.00212762992)
(1.607790592e-07 -1.833675366e-19 -0.002127639182)
(1.92885635e-07 -8.766103392e-20 -0.00212765047)
(2.234697403e-07 -2.491070171e-20 -0.002127663676)
(2.524745389e-07 2.787812394e-20 -0.002127678685)
(2.798162036e-07 -2.924967796e-20 -0.002127695385)
(3.053870152e-07 -3.487278532e-20 -0.002127713686)
(3.291345016e-07 -7.261355353e-21 -0.002127733482)
(3.509865752e-07 7.826064602e-21 -0.00212775469)
(3.70894175e-07 1.384397126e-20 -0.002127777219)
(3.888217374e-07 1.598950951e-20 -0.002127800994)
(4.047359626e-07 1.071158342e-20 -0.002127825934)
(4.186336959e-07 -2.490027523e-21 -0.00212785198)
(4.304881718e-07 5.452092044e-21 -0.002127879059)
(4.403223494e-07 2.181153042e-21 -0.002127907117)
(4.48159072e-07 -8.665966987e-21 -0.002127936098)
(4.540135325e-07 -1.360170018e-20 -0.002127965941)
(4.579590615e-07 6.110815969e-21 -0.002127996604)
(4.600322976e-07 3.342501089e-20 -0.002128028029)
(4.602717642e-07 7.116989197e-20 -0.002128060159)
(4.587766183e-07 1.037238673e-19 -0.002128092944)
(4.556143808e-07 1.334466734e-19 -0.002128126325)
(4.508328993e-07 1.469910581e-19 -0.002128160235)
(4.445279948e-07 1.60254626e-19 -0.002128194606)
(4.367733214e-07 1.738143998e-19 -0.002128229364)
(4.275983669e-07 1.88318228e-19 -0.002128264416)
(4.170673163e-07 1.786690654e-19 -0.002128299668)
(4.052677573e-07 1.697375598e-19 -0.002128335021)
(3.9224535e-07 1.745614927e-19 -0.00212837036)
(3.780391907e-07 1.761693286e-19 -0.002128405557)
(3.627327713e-07 1.799027721e-19 -0.002128440484)
(3.463940225e-07 1.849460578e-19 -0.002128474998)
(3.290603738e-07 1.906665457e-19 -0.002128508941)
(3.107921566e-07 1.948718545e-19 -0.002128542146)
(2.916634652e-07 1.975482118e-19 -0.002128574439)
(2.717182053e-07 2.018042237e-19 -0.00212860563)
(2.509985845e-07 2.042043705e-19 -0.00212863552)
(2.295831463e-07 2.064301257e-19 -0.002128663902)
(2.075197716e-07 2.085118384e-19 -0.002128690557)
(1.848386879e-07 2.123452538e-19 -0.002128715256)
(1.616124547e-07 2.128781871e-19 -0.002128737764)
(1.378873807e-07 2.155058192e-19 -0.002128757838)
(1.13685157e-07 2.175815532e-19 -0.002128775224)
(8.904996109e-08 2.205312412e-19 -0.002128789665)
(6.402249472e-08 2.242124452e-19 -0.002128800898)
(3.875892292e-08 2.243498196e-19 -0.002128808652)
(1.372352713e-08 2.26414614e-19 -0.002128812653)
(2.261815437e-08 -1.572566664e-19 -0.002128693591)
(5.902217281e-08 1.036140952e-19 -0.00212869574)
(9.304521092e-08 -6.307987077e-20 -0.002128700446)
(1.274600075e-07 -2.034796803e-19 -0.002128707439)
(1.609046382e-07 -9.542780505e-20 -0.002128716552)
(1.930077388e-07 -3.578943942e-20 -0.00212872765)
(2.235920461e-07 -9.79545264e-21 -0.002128740634)
(2.525454088e-07 1.089310612e-19 -0.002128755401)
(2.798069489e-07 8.875102309e-20 -0.002128771837)
(3.052728512e-07 6.823204657e-20 -0.002128789853)
(3.288790694e-07 4.605992563e-20 -0.002128809356)
(3.50562135e-07 2.03480713e-20 -0.002128830259)
(3.702755992e-07 -5.731000638e-21 -0.002128852489)
(3.87981037e-07 4.757870983e-20 -0.002128875968)
(4.03656829e-07 4.668058559e-20 -0.00212890063)
(4.172945778e-07 4.786558551e-20 -0.002128926413)
(4.288905061e-07 7.989732375e-20 -0.002128953253)
(4.384813655e-07 1.128141912e-19 -0.002128981106)
(4.460685742e-07 9.944753979e-20 -0.002129009909)
(4.517092041e-07 8.92518492e-20 -0.002129039615)
(4.554600927e-07 8.207393604e-20 -0.002129070178)
(4.573442918e-07 7.589751473e-20 -0.002129101536)
(4.574502972e-07 8.716504262e-20 -0.002129133643)
(4.558569351e-07 9.677779653e-20 -0.002129166447)
(4.52606592e-07 1.044103868e-19 -0.002129199881)
(4.477854887e-07 1.123922766e-19 -0.002129233883)
(4.414676849e-07 1.182937457e-19 -0.002129268382)
(4.336844194e-07 1.21956986e-19 -0.002129303289)
(4.244992882e-07 1.219707247e-19 -0.002129338516)
(4.139977429e-07 1.427403207e-19 -0.00212937397)
(4.022248676e-07 1.609758471e-19 -0.00212940954)
(3.892227514e-07 1.788317723e-19 -0.002129445107)
(3.750781138e-07 1.853902632e-19 -0.002129480548)
(3.598541864e-07 1.929717311e-19 -0.002129515728)
(3.435869216e-07 2.130734878e-19 -0.002129550493)
(3.263448443e-07 2.355893739e-19 -0.002129584687)
(3.081980971e-07 2.508019885e-19 -0.002129618141)
(2.891886361e-07 2.587413527e-19 -0.002129650674)
(2.693672986e-07 2.610638975e-19 -0.002129682093)
(2.488093214e-07 2.600618067e-19 -0.002129712199)
(2.275602525e-07 2.553665532e-19 -0.002129740781)
(2.056551846e-07 2.530610773e-19 -0.002129767616)
(1.831672214e-07 2.520609621e-19 -0.002129792476)
(1.601443835e-07 2.510922416e-19 -0.002129815124)
(1.366131248e-07 2.512294333e-19 -0.002129835314)
(1.126276073e-07 2.493248526e-19 -0.002129852794)
(8.82171597e-08 2.451552582e-19 -0.002129867308)
(6.341172572e-08 2.425957445e-19 -0.002129878592)
(3.838790637e-08 2.361538866e-19 -0.002129886378)
(1.359049385e-08 2.340755444e-19 -0.002129890393)
(2.261724292e-08 -8.356345685e-20 -0.002129744536)
(5.90172912e-08 -2.996701901e-19 -0.002129746646)
(9.303401871e-08 -1.541972553e-19 -0.002129751276)
(1.274320457e-07 -1.041362506e-19 -0.002129758166)
(1.608177909e-07 -1.351968172e-19 -0.002129767155)
(1.928383288e-07 -2.220317775e-20 -0.002129778109)
(2.233496037e-07 5.012881639e-20 -0.002129790913)
(2.522008224e-07 9.082457937e-20 -0.002129805477)
(2.793174055e-07 1.206527199e-19 -0.0021298217)
(3.046232536e-07 1.574637559e-19 -0.002129839484)
(3.280295985e-07 1.55870739e-19 -0.002129858754)
(3.494950344e-07 1.229482706e-19 -0.00212987942)
(3.689722173e-07 1.016667748e-19 -0.002129901422)
(3.864277918e-07 1.058895016e-19 -0.00212992468)
(4.018518269e-07 1.195119233e-19 -0.002129949144)
(4.152304528e-07 1.321196333e-19 -0.002129974745)
(4.265932556e-07 1.359074335e-19 -0.002130001438)
(4.359492715e-07 1.37247696e-19 -0.002130029167)
(4.433231392e-07 1.339825245e-19 -0.002130057882)
(4.487824067e-07 1.261222888e-19 -0.002130087541)
(4.523500837e-07 1.337747986e-19 -0.002130118085)