/*--------------------------------*- C++ -*----------------------------------*\
  =========                 |
  \\      /  F ield         | OpenFOAM: The Open Source CFD Toolbox
   \\    /   O peration     | Website:  https://openfoam.org
    \\  /    A nd           | Version:  7
     \\/     M anipulation  |
\*---------------------------------------------------------------------------*/
FoamFile
{
    version     2.0;
    format      ascii;
    class       volVectorField;
    location    "0.0024";
    object      grad(generalizedNewtonian:nu);
}
// * * * * * * * * * * * * * * * * * * * * * * * * * * * * * * * * * * * * * //

dimensions      [0 1 -1 0 0 0 0];

internalField   nonuniform List<vector> 
1166
(
(-209477.9734 0 1226833.386)
(-437174.8351 0 1223197.194)
(-202755.8067 3.091326197e-07 1193571.633)
(-424902.5906 0 1189825.095)
(-688027.1797 0 1183926.959)
(-955886.9385 -4.783784015e-08 1174066.905)
(-1197905.126 -3.825549727e-08 1161732.137)
(-1430978.684 0 1146502.778)
(-1651000.574 2.799936073e-08 1128657.748)
(-1854830.242 -2.49501226e-08 1108831.106)
(-2042787.493 0 1087039.961)
(-2214884.573 2.082238729e-08 1063009.536)
(-2369610.821 0 1037554.829)
(-2508319.97 0 1010340.592)
(-2629549.352 0 982224.4226)
(-2734286.835 0 952921.1114)
(-2822239.709 0 922857.0442)
(-2893875.793 0 891911.2543)
(-2949896.956 -7.27474002e-09 860555.2288)
(-2990509.888 -7.050614076e-09 828654.6524)
(-3017170.926 0 796687.1896)
(-3029244.096 0 764387.1528)
(-3029068.025 -6.536246209e-09 732247.155)
(-3016342.177 0 700237.0818)
(-2992729.653 0 668576.5331)
(-2959741.045 0 637435.5823)
(-2916898.808 0 606766.5089)
(-2866793.458 0 576837.7133)
(-2809417.398 0 547621.9825)
(-2745886.117 0 519262.8773)
(-2678349.384 0 491857.7744)
(-2605799.239 0 465375.1242)
(-2530269.028 0 439925.9254)
(-2453300.737 0 415563.6616)
(-2373851.356 -2.859734959e-09 392236.3419)
(-2293753.712 0 369975.6159)
(-2213621.075 0 348794.748)
(-2133255.632 -1.419748872e-09 328685.2882)
(-2054101.34 -1.418652116e-09 309607.6114)
(-1975831.565 0 291584.9108)
(-1898952.752 0 274569.1834)
(-1824436.248 -1.421295763e-09 258506.7037)
(-1751315.321 0 243388.6302)
(-1680531.169 0 229159.3382)
(-1612408.768 0 215772.2382)
(-1546424.726 0 203228.7678)
(-1483314.205 -1.442770861e-09 191423.599)
(-1422403.163 7.246602762e-10 180376.1872)
(-1363975.343 -1.456562729e-09 170007.6534)
(-1307782.141 7.322386616e-10 160258.17)
(-1256129.25 7.365233097e-10 151167.1921)
(-1217275.768 0 142560.7834)
(-195445.1378 -3.139469288e-07 1161924.351)
(-411222.3468 0 1158282.182)
(-666454.7837 0 1152422.58)
(-927025.0429 -4.858284776e-08 1142548.007)
(-1162473.757 3.885127326e-08 1130175.243)
(-1387023.073 0 1115160.792)
(-1598691.104 0 1097774.067)
(-1796854.263 0 1077747.116)
(-1978053.447 -2.298746896e-08 1055958.484)
(-2143144.384 2.114666692e-08 1032501.131)
(-2292874.319 0 1007220.509)
(-2425531.07 0 980795.5492)
(-2542268.763 0 952902.9964)
(-2642096.446 0 924169.6784)
(-2725771.405 0 894334.3045)
(-2793603.384 1.530154961e-08 863984.1489)
(-2846051.919 0 832963.0816)
(-2884115.521 0 801738.4997)
(-2907459.877 0 770097.6346)
(-2918040.736 0 738498.7937)
(-2915752.394 0 706943.9624)
(-2902262.654 0 675654.7076)
(-2878353.056 0 644745.2511)
(-2844332.587 0 614250.7197)
(-2802648.76 0 584411.6524)
(-2752609.915 0 555230.8039)
(-2696202.998 0 526843.4258)
(-2634970.094 0 499355.7219)
(-2568280.201 0 472750.4098)
(-2498376.219 0 447122.1407)
(-2425692.744 0 422554.1998)
(-2350474.75 0 399000.8321)
(-2274464.337 0 376471.6015)
(-2197163.493 0 355029.1883)
(-2119637.893 0 334637.2449)
(-2043108.882 1.441859479e-09 315266.4181)
(-1966727.106 1.440745643e-09 296951.9181)
(-1891767.888 0 279639.1487)
(-1818564.286 -1.441585063e-09 263286.1287)
(-1746691.666 0 247891.213)
(-1677167.406 0 233356.1702)
(-1609472.448 0 219737.1408)
(-1544099.311 -1.454140112e-09 206939.4173)
(-1481467.618 -7.296571404e-10 194888.2348)
(-1420871.148 0 183613.4234)
(-1363001.626 0 172999.5683)
(-1307173.487 -7.396233304e-10 163082.7493)
(-1253356.997 -7.436422569e-10 153784.9668)
(-1204278.358 0 145054.2305)
(-1167233.309 -7.526694223e-10 136854.399)
(-189309.6558 -3.188362179e-07 1130032.489)
(-399652.6425 0 1126542.583)
(-646796.819 0 1121100.691)
(-897961.8937 0 1111635.089)
(-1125563.556 3.945632809e-08 1099299.731)
(-1344028.78 0 1084072.912)
(-1548799.125 0 1066734.335)
(-1738709.146 -2.573330092e-08 1047247.743)
(-1914827.172 0 1025528.531)
(-2074465.382 0 1002321.79)
(-2217957.833 0 977643.7806)
(-2345979.489 -1.875247746e-08 951400.0562)
(-2457212.12 8.868283111e-09 924096.0225)
(-2552658.711 8.441648895e-09 895553.5503)
(-2632144.247 0 866344.6875)
(-2696370.666 0 836361.9967)
(-2745842.159 0 806018.2719)
(-2780527.854 7.271931148e-09 775159.9316)
(-2801984.991 0 744211.8051)
(-2810304.948 0 713212.5185)
(-2807101.954 0 682411.0582)
(-2792523.307 0 651796.5923)
(-2767610.494 0 621562.2344)
(-2734377.679 0 591888.3508)
(-2692295.348 0 562809.5986)
(-2643581.656 0 534458.7663)
(-2588686.778 0 506922.85)
(-2528174.557 -3.042874094e-09 480233.9522)
(-2464148.396 -3.017169051e-09 454460.6558)
(-2396081.992 0 429709.7976)
(-2325430.73 0 405953.6393)
(-2253429.564 -2.961713951e-09 383181.7577)
(-2179552.766 1.474750674e-09 361481.6658)
(-2105407.001 1.47001948e-09 340802.7586)
(-2031216.485 1.466568578e-09 321159.333)
(-1957133.357 0 302555.6416)
(-1884446.036 -1.463183263e-09 284918.7413)
(-1812492.194 -1.463109703e-09 268309.3715)
(-1742020.394 -1.464035756e-09 252632.7359)
(-1673685.961 0 237811.3336)
(-1606846.481 0 223917.0459)
(-1542412.55 0 210828.2517)
(-1480029.745 0 198565.3001)
(-1419824.543 7.410205409e-10 187052.541)
(-1362261.876 0 176207.8615)
(-1306727.85 -7.474071873e-10 166077.4938)
(-1253666.333 0 156541.5176)
(-1202325.48 7.552234563e-10 147652.283)
(-1155228.776 0 139327.7449)
(-1119582.662 0 131442.2224)
(-182770.3708 0 1099171.718)
(-387930.2948 0 1095598.296)
(-627923.6626 0 1089892.747)
(-871008.0803 0 1080251.378)
(-1090711.383 0 1067968.102)
(-1301027.636 0 1053304.398)
(-1499720.855 0 1036153.437)
(-1684084.23 0 1016854.379)
(-1852968.782 -2.370904075e-08 995786.1701)
(-2007347.308 0 972867.3896)
(-2145755.223 0 948402.679)
(-2267997.595 0 922626.0844)
(-2374865.189 0 895519.9799)
(-2465789.985 0 867594.4324)
(-2541654.953 0 838790.8278)
(-2602461.198 7.890931009e-09 809454.9639)
(-2648473.167 0 779497.5119)
(-2680853.935 0 749310.1162)
(-2699901.447 0 718969.2528)
(-2707080.703 0 688699.4924)
(-2702157.384 -6.846405767e-09 658523.1855)
(-2686662.019 0 628632.3998)
(-2662084.279 0 599198.925)
(-2628247.494 0 570288.8631)
(-2587441.761 0 542019.4265)
(-2539245.861 0 514499.891)
(-2485284.882 0 487772.9866)
(-2427051.107 0 461891.5086)
(-2364282.927 0 436992.2418)
(-2298820.712 0 413034.9387)
(-2230663.2 0 390075.7568)
(-2160563.356 0 368134.6856)
(-2090063.814 0 347180.7814)
(-2018408.452 0 327284.0431)
(-1946889.89 0 308396.4092)
(-1876322.84 0 290464.6303)
(-1806159.98 0 273562.1785)
(-1737527.595 0 257564.9226)
(-1670109.508 0 242505.5191)
(-1604289.634 0 228329.2057)
(-1540819.892 0 214960.9558)
(-1478958.97 0 202446.0568)
(-1419387.03 0 190665.5688)
(-1361974.022 0 179613.0277)
(-1306661.241 0 169260.0168)
(-1253885.946 0 159507.557)
(-1203024.417 0 150415.3969)
(-1154214.141 0 141860.4036)
(-1109145.274 0 133892.0111)
(-1074903.116 0 126360.2964)
(-176525.1706 0 1068213.296)
(-375779.5649 0 1064824.234)
(-607822.1512 0 1059139.989)
(-842579.4213 0 1049619.773)
(-1056578.936 0 1037356.567)
(-1261206.491 0 1022824.548)
(-1452329.12 0 1006026.438)
(-1630006.91 -2.654106324e-08 987179.0886)
(-1794172.406 0 966269.3455)
(-1942137.089 0 943751.9317)
(-2075064.321 0 919680.6318)
(-2192750.14 0 894163.305)
(-2294822.274 0 867669.1086)
(-2382102.389 0 840178.2657)
(-2454094.806 0 811973.0938)
(-2511362.701 0 783031.7185)
(-2554670.888 0 753717.2366)
(-2584520.352 0 724143.8618)
(-2602022.253 0 694508.5948)
(-2607133.65 0 664868.2577)
(-2601404.636 0 635413.4107)
(-2585546.621 0 606287.1899)
(-2560228.715 0 577615.0932)
(-2527296.188 0 549488.446)
(-2486456.058 0 522043.3667)
(-2439653.944 0 495305.9384)
(-2387185.192 0 469390.7392)
(-2330022.823 0 444378.5658)
(-2269894.884 0 420272.6825)
(-2206034.715 0 397134.0149)
(-2140123.012 0 374971.6359)
(-2073047.477 0 353771.6634)
(-2004542.584 0 333615.0897)
(-1936106.071 0 314406.7015)
(-1867455.996 0 296243.3265)
(-1799293.824 0 279048.1658)
(-1732545.017 1.509112245e-09 262755.5813)
(-1666404.879 0 247419.2723)
(-1601902.293 0 232936.8689)
(-1539173.528 0 219316.3648)
(-1478074.592 0 206535.9353)
(-1419248.457 0 194477.7746)
(-1362098.467 0 183206.0626)
(-1307181.391 0 172602.2001)
(-1254454.952 0 162653.6006)
(-1203785.509 -7.708681248e-10 153352.6187)
(-1155435.864 0 144593.1768)
(-1108623.586 0 136433.7457)
(-1065660.026 0 128748.8336)
(-1032756.137 0 121551.5948)
(-170829.2738 0 1037383.207)
(-364834.8142 0 1034051.226)
(-589897.4403 0 1028493.562)
(-816765.7978 0 1019276.514)
(-1023186.459 0 1007522.318)
(-1220777.034 0 993254.5064)
(-1406832.487 0 976586.2857)
(-1578607.415 -2.69544034e-08 957974.7429)
(-1735723.446 0 937441.9302)
(-1879226.445 0 915096.7217)
(-2006856.884 0 891388.4819)
(-2119640.734 0 866465.3839)
(-2217980.587 0 840417.9783)
(-2300925.527 0 813461.9771)
(-2369311.621 0 785652.4341)
(-2423494.136 0 757324.8539)
(-2464165.848 0 728629.2084)
(-2492061.999 0 699730.6871)
(-2507342.612 0 670723.024)
(-2511494.366 7.222339244e-09 641774.304)
(-2504629.393 7.061312677e-09 613060.2448)
(-2488108.914 0 584706.416)
(-2463281.346 0 556794.0444)
(-2430088.683 0 529488.4792)
(-2390582.871 0 502815.1012)
(-2344350.771 0 476903.965)
(-2293226.32 -3.218583719e-09 451821.9039)
(-2238312.395 0 427603.5943)
(-2179334.086 0 404317.5342)
(-2118127.244 0 381912.0987)
(-2054438.938 0 360544.0668)
(-1989333.952 0 340144.592)
(-1923990.343 0 320667.2517)
(-1857784.283 0 302229.908)
(-1792046.715 0 284717.9393)
(-1726896.999 0 268174.6195)
(-1662379.484 0 252556.6716)
(-1599407.228 0 237756.4469)
(-1537484.794 0 223888.5018)
(-1477349.655 0 210825.2032)
(-1419127.387 0 198516.6401)
(-1362513.436 0 186994.0444)
(-1308130.183 0 176122.2063)
(-1255475.9 0 165977.4507)
(-1205035.097 0 156437.1811)
(-1156729.922 0 147500.0308)
(-1110301.759 0 139147.8773)
(-1065731.659 0 131271.3771)
(-1024472.705 0 123944.8018)
(-993025.0753 0 116995.0853)
(-164970.5896 0 1007555.326)
(-353520.8869 0 1004289.05)
(-571479.139 0 998789.5326)
(-791202.5596 0 989710.3991)
(-991936.1918 0 978009.7653)
(-1183127.277 0 963979.8636)
(-1361826.452 0 947673.8261)
(-1527778.3 0 929264.7149)
(-1680138.193 0 908953.2913)
(-1817458.16 0 887132.1263)
(-1940958.193 -2.125095688e-08 863881.0799)
(-2049568.098 0 839402.6309)
(-2143167.253 -1.886753595e-08 813814.3356)
(-2222462.279 0 787258.2427)
(-2287408.241 0 760038.9321)
(-2338867.509 0 732338.8535)
(-2377178.264 0 704286.9373)
(-2402713.738 0 676017.4743)
(-2416634.191 7.521649285e-09 647673.7081)
(-2419224.751 0 619465.9162)
(-2411930.707 0 591480.2513)
(-2395212.92 0 563897.8899)
(-2369936.639 6.90215664e-09 536798.807)
(-2337756.421 0 510248.0965)
(-2298347.901 -3.347637325e-09 484394.3223)
(-2253793.03 0 459239.7902)
(-2204105.881 0 435002.9592)
(-2150298.466 0 411607.908)
(-2093754.556 3.209558425e-09 389032.8441)
(-2034124.08 0 367468.5115)
(-1972988.932 0 346797.2483)
(-1910461.087 -1.575283619e-09 327126.6246)
(-1847057.735 0 308424.1951)
(-1783953.844 0 290606.3258)
(-1720608.347 0 273806.5773)
(-1657998.439 0 257894.4499)
(-1596374.65 0 242821.7996)
(-1535663.048 0 228666.3664)
(-1476753.572 0 215284.7991)
(-1419045.345 0 202760.4377)
(-1363119.942 7.811683971e-10 190968.7434)
(-1309174.001 0 179856.9084)
(-1256859.043 0 169473.8156)
(-1206740.187 0 159678.5093)
(-1158398.736 0 150557.5847)
(-1112211.488 0 141975.8674)
(-1067849.504 0 133943.5986)
(-1025034.074 0 126429.5817)
(-985671.5099 0 119350.7457)
(-955647.57 0 112728.5)
(-159670.7068 0 978063.6727)
(-343195.1712 0 974881.7294)
(-554581.0228 7.258580035e-08 969426.8942)
(-766607.5015 0 960471.1498)
(-960297.2493 0 948993.3619)
(-1145420.443 0 935102.8019)
(-1319102.341 0 918953.9243)
(-1479024.348 0 900894.824)
(-1625436.762 0 881111.9538)
(-1759047.191 0 859740.6533)
(-1877252.715 -2.158191106e-08 836974.5627)
(-1981163.467 0 812884.1954)
(-2071058.744 -9.580685828e-09 787710.1035)
(-2146591.247 0 761729.6363)
(-2208740.169 0 735150.7049)
(-2257430.76 0 708061.0791)
(-2293258.265 0 680640.2892)
(-2317037.868 0 653004.6633)
(-2329232.183 0 625400.566)
(-2331173.644 0 597892.9084)
(-2322969.628 0 570700.1981)
(-2305981.776 0 543880.6826)
(-2281216.552 0 517539.8345)
(-2248914.171 0 491807.6879)
(-2210898.383 0 466683.5346)
(-2167101.999 0 442420.7557)
(-2119060.082 0 418905.7485)
(-2067044.383 0 396258.6557)
(-2011806.024 3.259542846e-09 374525.4094)
(-1954785.049 0 353636.5958)
(-1895490.076 0 333754.4803)
(-1835290.325 0 314777.3411)
(-1774607.324 1.593219647e-09 296719.5753)
(-1713530.445 0 279639.3419)
(-1653150.273 0 263400.6066)
(-1592850.874 0 248107.0932)
(-1533558.026 0 233655.5698)
(-1475735.739 0 219997.6894)
(-1418956.864 0 207200.3616)
(-1363987.12 0 195098.1525)
(-1310332.83 0 183790.1517)
(-1258492.108 0 173147.0407)
(-1208625.785 -7.977094165e-10 163130.3854)
(-1160447.061 0 153783.7688)
(-1114414.857 0 144967.9249)
(-1070081.358 0 136763.2126)
(-1027691.226 0 129024.3228)
(-986718.3936 0 121805.6025)
(-948893.1147 0 115041.4365)
(-919934.4269 0 108650.1504)
(-154271.7309 0 948965.1777)
(-332504.9807 0 945836.4822)
(-537132.5234 0 940405.0757)
(-742651.737 -2.706654606e-08 931573.4565)
(-930841.1384 0 920253.5067)
(-1109635.503 0 906650.5031)
(-1276741.015 0 890946.9815)
(-1431966.816 0 873312.8369)
(-1574032.376 0 853948.548)
(-1701594.384 0 832963.1173)
(-1815663.675 0 810529.0644)
(-1915392.267 0 786868.9951)
(-2001260.018 -9.729891698e-09 762266.9877)
(-2073929.911 0 736941.1141)
(-2132898.941 -8.864642256e-09 710934.2732)
(-2178993.749 0 684476.7087)
(-2212668.104 -8.232064208e-09 657655.7516)
(-2234565.314 0 630756.0725)
(-2245711.995 0 603819.1913)
(-2246400.2 7.565055458e-09 577101.1224)
(-2238059.759 0 550589.0821)
(-2220863.195 3.624261772e-09 524574.0664)
(-2195945.636 0 499044.6933)
(-2164616.392 0 474020.7235)
(-2127062.95 0 449790.2194)
(-2084947.848 0 426233.0979)
(-2037905.852 0 403531.4932)
(-1987503.534 -3.338508144e-09 381640.608)
(-1934448.391 0 360611.095)
(-1878881.82 -1.643146888e-09 340527.1184)
(-1822221.857 0 321270.0599)
(-1764064.815 0 303020.5388)
(-1705548.107 0 285661.1173)
(-1647224.437 -1.61284097e-09 269160.3214)
(-1588785.181 0 253593.8863)
(-1531291.126 -1.606581656e-09 238798.8813)
(-1474372.798 0 224934.2424)
(-1418685.658 0 211853.8302)
(-1364563.506 0 199486.8071)
(-1311588.897 0 187918.5858)
(-1260450.414 0 176979.2834)
(-1210719.261 0 166778.0856)
(-1162849.121 -8.101326323e-10 157177.1743)
(-1116885.689 0 148166.9432)
(-1072615.346 0 139756.8357)
(-1030329.014 0 131810.9106)
(-989588.4192 0 124421.0725)
(-950488.4843 0 117443.6644)
(-914208.3994 0 110963.8576)
(-886389.2777 4.193282718e-10 104823.4949)
(-149308.101 0 920199.0569)
(-322654.3411 0 917166.3773)
(-521112.0745 0 911834.4775)
(-719459.5231 0 903237.237)
(-901229.1604 0 892271.3616)
(-1074844.182 0 879022.1915)
(-1237422.722 0 863689.6034)
(-1386777.647 0 846397.1769)
(-1523014.599 1.300626008e-08 827304.8906)
(-1646794.333 0 806655.3968)
(-1755896.228 0 784631.578)
(-1851747.913 0 761544.0932)
(-1934676.355 0 737605.0673)
(-2003746.411 -9.406047099e-09 712805.4502)
(-2060015.973 0 687432.762)
(-2103562.142 0 661542.8503)
(-2135211.714 0 635460.1662)
(-2155664.638 0 609199.6908)
(-2165393.186 0 583056.5929)
(-2165559.868 -3.841435339e-09 556994.7129)
(-2156486.39 3.755788138e-09 531335.7435)
(-2139526.935 0 505976.5961)
(-2114880.398 0 481209.4415)
(-2083819.583 0 457074.3832)
(-2047682.953 0 433548.5257)
(-2006148.455 0 410820.0429)
(-1960967.349 0 388775.3581)
(-1912013.591 1.695250383e-09 367676.8489)
(-1860510.863 0 347412.0762)
(-1807266.908 0 327959.0858)
(-1752217.434 0 309479.9611)
(-1696688.821 0 291802.4748)
(-1640324.428 0 275118.4135)
(-1583970.548 1.637958726e-09 259279.3417)
(-1528152.742 0 244209.5204)
(-1472650.943 0 230060.7669)
(-1418406.323 0 216643.2699)
(-1364927.831 -8.151297782e-10 204083.1153)
(-1312778.98 -1.631291404e-09 192236.7296)
(-1262245.116 0 181051.4402)
(-1212980.294 0 170601.4261)
(-1165572.578 0 160721.8934)
(-1119647.499 8.227493216e-10 151530.1202)
(-1075594.378 0 142871.7159)
(-1033233.413 0 134763.2548)
(-992538.267 8.3279313e-10 127178.0994)
(-953663.7573 0 120018.5484)
(-916080.948 0 113364.684)
(-881388.5968 8.464263497e-10 107077.6788)
(-854741.1496 0 101215.7195)
(-144384.077 1.803968433e-07 892335.4838)
(-312726.9898 0 889410.486)
(-504976.446 0 884199.3602)
(-697588.5559 -2.791615897e-08 875807.5254)
(-874297.0176 -2.23243052e-08 865110.1814)
(-1041848.174 0 852102.522)
(-1198046.599 0 836969.8461)
(-1342635.102 0 819896.4857)
(-1474686.93 1.320881479e-08 801184.808)
(-1592979.812 0 780970.8268)
(-1698722.975 0 759496.5731)
(-1791221.502 0 737049.8347)
(-1870161.959 0 713573.4539)
(-1936459.06 -9.552533416e-09 689406.4376)
(-1989805.049 0 664567.1957)
(-2031209.683 0 639419.0767)
(-2061025.748 0 613948.2441)
(-2079909.844 -4.114442934e-09 588482.4252)
(-2088730.906 0 562966.4549)
(-2087968.367 0 537754.1558)
(-2078820.232 0 512734.0674)
(-2061481.089 0 488219.6579)
(-2037521.806 0 464137.6562)
(-2007294.947 0 440789.2506)
(-1971524.666 0 418092.5565)
(-1931534.814 0 395996.0475)
(-1887313.226 0 374799.6221)
(-1840388.327 1.721651589e-09 354312.1722)
(-1790518.686 0 334775.8825)
(-1738846.281 -1.694724906e-09 316084.4895)
(-1686205.931 0 298178.1208)
(-1632382.913 0 281241.1262)
(-1578548.428 0 265070.5795)
(-1524246.018 0 249825.7107)
(-1470354.65 1.659562667e-09 235385.0789)
(-1417433.986 0 221698.8368)
(-1365067.784 1.655731859e-09 208866.0456)
(-1314043.701 0 196693.8041)
(-1263949.742 0 185320.9203)
(-1215301.919 -1.658817302e-09 174593.9093)
(-1168255.01 0 164493.1782)
(-1122611.058 0 155063.1616)
(-1078815.835 0 146150.4475)
(-1036466.402 0 137863.5345)
(-995923.2473 0 130035.2285)
(-956907.8518 -8.457627438e-10 122736.8598)
(-919515.8826 0 115884.1641)
(-883593.5899 8.546076001e-10 109444.5094)
(-850228.7038 8.596082823e-10 103451.4994)
(-824569.5297 0 97756.82364)
(-139914.5499 0 865204.4286)
(-303683.2492 0 862351.2305)
(-490181.7658 0 857196.4639)
(-676169.9375 2.835091416e-08 848944.0909)
(-846736.0366 -2.267197507e-08 838319.0416)
(-1009127.153 0 825439.0184)
(-1160911.618 0 810601.5568)
(-1300275.698 0 793877.3166)
(-1427217.402 -1.341452363e-08 775592.0164)
(-1542305.746 0 756001.8533)
(-1643795.068 0 735091.4632)
(-1732342.33 0 713074.5229)
(-1808496.021 0 690245.9708)
(-1871523.537 0 666586.0013)
(-1922633.592 0 642494.9002)
(-1961823.745 0 617931.9191)
(-1989920.944 0 593253.4368)
(-2007497.77 4.178519636e-09 568389.2045)
(-2015210.76 -8.125874728e-09 543718.8878)
(-2014028.784 3.962017122e-09 519128.9338)
(-2004268.239 0 494947.4948)
(-1987362.984 0 471076.6194)
(-1963589.964 0 447888.1548)
(-1934171.761 0 425179.2187)
(-1899349.333 3.616558086e-09 403186.3284)
(-1860104.102 0 381946.9568)
(-1817679.347 0 361359.8223)
(-1771859.548 -1.748463908e-09 341682.6056)
(-1724110.585 0 322715.7972)
(-1674213.501 0 304709.0825)
(-1623170.781 0 287527.0699)
(-1571740.082 -1.70182853e-09 271117.1228)
(-1519542.469 -1.694811055e-09 255619.4845)
(-1467676.538 0 240831.6634)
(-1415881.91 0 226963.9437)
(-1364813.514 1.682817546e-09 213840.0963)
(-1314792.021 1.68151757e-09 201417.2394)
(-1265537.143 8.407165167e-10 189780.5257)
(-1217718.424 0 178744.6601)
(-1170965.643 0 168455.7956)
(-1125776.564 0 158747.4268)
(-1082117.154 0 149644.3702)
(-1039928.342 0 141138.8281)
(-999480.4201 0 133087.4465)
(-960448.1904 0 125606.7141)
(-923157.5107 0 118530.0716)
(-887261.7733 0 111960.8241)
(-852806.111 -4.339584599e-10 105760.6796)
(-820773.1807 -4.364977403e-10 99978.35999)
(-796056.3237 -8.784526706e-10 94520.92238)
(-135365.6076 0 838244.4894)
(-294328.7817 0 835421.0793)
(-474982.961 0 830276.1348)
(-655413.5051 0 822138.8631)
(-821079.0447 0 811809.5681)
(-978120.7017 0 799241.2167)
(-1124231.244 0 784756.1328)
(-1259312.976 0 768509.0543)
(-1382902.903 0 750819.508)
(-1493027.393 0 731607.2464)
(-1590824.806 0 711177.6633)
(-1676412.912 0 689815.4982)
(-1748919.743 1.035031684e-08 667449.8096)
(-1809610.981 0 644524.7655)
(-1858125.851 0 620972.2168)
(-1895456.65 0 597184.1518)
(-1921863.082 0 573069.0507)
(-1938175.151 0 549058.7353)
(-1945112.409 -4.126212002e-09 525008.9834)
(-1943119.686 0 501271.0933)
(-1933403.321 0 477720.1582)
(-1916411.879 0 454761.8303)
(-1893347.62 0 432182.8513)
(-1864246.592 0 410293.0073)
(-1830569.945 0 388951.2652)
(-1792580.106 0 368418.0538)
(-1751048.16 0 348648.4954)
(-1707120.984 0 329533.1572)
(-1660629.324 0 311349.45)
(-1612883.942 0 293862.5731)
(-1563685.889 0 277330.8108)
(-1513826.275 0 261575.9176)
(-1463879.202 0 246545.4304)
(-1413720.514 0 232407.2724)
(-1364271.087 0 218947.9757)
(-1315132.059 0 206340.687)
(-1266913.609 0 194408.1563)
(-1219789.165 0 183146.6367)
(-1173640.521 0 172602.9626)
(-1129005.494 0 162606.9646)
(-1085547.441 0 153309.8074)
(-1043732.681 0 144526.4927)
(-1003239.809 0 136321.2412)
(-964242.2385 0 128618.0429)
(-926942.5892 0 121363.9565)
(-891036.3069 0 114614.4863)
(-856703.3919 0 108219.3752)
(-823544.9783 0 102293.0141)
(-792833.6529 0 96677.86877)
(-769108.6345 0 91451.13794)
(-131124.1143 0 811592.6411)
(-285636.5342 6.457335601e-08 808884.8242)
(-460933.4776 0 803854.3153)
(-635571.3289 0 795955.1061)
(-795692.8988 2.338364287e-08 785862.998)
(-947886.1254 0 773700.4693)
(-1090131.869 0 759758.5572)
(-1220745.821 0 744010.0461)
(-1339155.961 0 726667.2044)
(-1445973.527 0 707920.0676)
(-1540370.677 0 688054.3905)
(-1622102.213 1.111358449e-08 667079.9717)
(-1692203.565 0 645420.9297)
(-1749939.9 0 622973.2403)
(-1796488.986 0 600162.5172)
(-1831770.802 9.209633083e-09 576908.5402)
(-1856832.457 0 553600.8433)
(-1872072.451 4.309682355e-09 530237.1923)
(-1878040.501 0 507010.6885)
(-1875717.84 0 483913.0639)
(-1865701.716 0 461293.7513)
(-1849114.753 0 438963.7568)
(-1826064.428 0 417240.7006)
(-1797935.938 0 395939.7861)
(-1764919.555 0 375437.587)
(-1728277.114 0 355500.3892)
(-1688080.215 0 336395.979)
(-1645224.409 -1.803347766e-09 318066.3128)
(-1600699.723 1.78811377e-09 300403.2151)
(-1554319.851 0 283664.6938)
(-1507222.192 -1.764244037e-09 267600.8255)
(-1459092.936 0 252432.1173)
(-1410812.899 1.748010764e-09 238001.2828)
(-1362846.754 -1.742402915e-09 224313.2187)
(-1315015.995 0 211443.0726)
(-1268052.077 0 199189.7021)
(-1221612.066 8.671499995e-10 187735.7799)
(-1176290.264 0 176889.0769)
(-1132053.374 0 166696.8858)
(-1088995.604 0 157153.7219)
(-1047497.02 0 148112.8426)
(-1007184.624 0 139710.2197)
(-968431.7247 0 131744.0594)
(-930986.6642 8.783260141e-10 124346.9088)
(-895118.4565 0 117369.939)
(-860668.3548 0 110837.058)
(-827590.8535 0 104724.2798)
(-795847.184 0 98962.71029)
(-766264.5245 0 93608.30965)
(-743413.6198 0 88509.42831)
(-127065.1749 -3.837996403e-07 785689.3192)
(-277048.514 0 783123.1509)
(-446967.9041 0 778212.4076)
(-616455.2043 2.969622854e-08 770530.6469)
(-772235.4863 0 760808.2941)
(-919932.4767 0 748989.455)
(-1056898.111 0 735239.9846)
(-1182943.175 0 719861.9636)
(-1298092.022 0 703079.3321)
(-1400644.464 0 684782.2754)
(-1491295.187 0 665356.6537)
(-1570596.057 0 645121.1093)
(-1637390.295 0 623923.9696)
(-1693047.172 0 602208.0126)
(-1737249.589 0 579969.1528)
(-1771001.193 0 557465.1271)
(-1794763.026 0 534916.837)
(-1808918.345 4.376799752e-09 512202.0557)
(-1814167.729 -4.255732843e-09 489690.0427)
(-1811478.192 0 467367.1349)
(-1801515.283 -4.057496337e-09 445430.0759)
(-1784740.701 0 423927.7348)
(-1762309.563 0 402788.4277)
(-1734553.61 0 382365.8357)
(-1702722.087 0 362414.9326)
(-1666843.977 0 343279.6786)
(-1628209.645 0 324721.1567)
(-1586774.521 0 307036.5792)
(-1543454.88 0 290090.6979)
(-1499029.358 -1.802788778e-09 273849.1174)
(-1453254.548 0 258465.6785)
(-1407183.124 0 243712.8938)
(-1360659.323 0 229858.6296)
(-1314399.324 0 216683.3494)
(-1268528.47 0 204223.3199)
(-1223098.622 0 192510.6484)
(-1178694.829 1.761309345e-09 181362.7324)
(-1134996.27 0 170966.0741)
(-1092601.664 0 161111.4768)
(-1051245.097 0 151906.9272)
(-1011195.279 0 143254.21)
(-972631.3932 0 135091.6481)
(-935258.5784 0 127487.8396)
(-899428.9878 -8.920047381e-10 120280.7705)
(-864879.9135 -8.956268319e-10 113597.447)
(-831846.9777 0 107263.5117)
(-800071.3138 0 101384.8608)
(-769535.2832 0 95834.72074)
(-741076.0042 0 90648.54953)
(-719054.1036 -4.600686088e-10 85759.82801)
(-123376.9641 0 760543.7093)
(-269151.828 0 758105.7101)
(-434066.2521 4.106888863e-08 753347.636)
(-598476.0193 0 745909.2665)
(-749135.8334 0 736330.1486)
(-891758.3762 0 724831.8817)
(-1025102.033 0 711422.131)
(-1147664.872 0 696511.1267)
(-1257980.209 0 679947.4003)
(-1357099.854 0 662210.6055)
(-1445207.794 0 643557.1495)
(-1520824.49 0 623757.7748)
(-1585369.272 0 603293.069)
(-1638458.851 0 582195.9385)
(-1680889.658 0 560647.4911)
(-1713195.498 0 539015.7733)
(-1735450.354 0 516991.3772)
(-1748527.456 0 495108.2502)
(-1753253.899 0 473165.588)
(-1750221.141 0 451662.5665)
(-1740212.243 0 430303.0281)
(-1723598.671 0 409461.1755)
(-1701443.858 0 389089.2913)
(-1674575.424 0 369258.8487)
(-1643265.889 0 350132.442)
(-1608724.726 0 331505.202)
(-1570983.632 -1.878230616e-09 313730.2224)
(-1531217.474 0 296524.8373)
(-1489377.988 0 280218.4843)
(-1446252.338 0 264590.3014)
(-1402282.317 0 249662.0347)
(-1357620.011 -1.810345394e-09 235564.4868)
(-1313112.431 0 222081.1186)
(-1268441.2 0 209434.6587)
(-1224321.459 0 197399.2748)
(-1180650.185 0 186073.6726)
(-1137703.813 0 175413.4416)
(-1095917.015 0 165296.6533)
(-1054994.226 8.948907397e-10 155872.3139)
(-1015427.903 0 146923.8886)
(-976911.1774 0 138609.9035)
(-939760.539 0 130746.8225)
(-903888.4317 -9.026845202e-10 123381.9951)
(-869323.7464 0 116488.9611)
(-836230.0309 0 109979.0593)
(-804386.686 0 103935.5331)
(-773920.0885 0 98195.51127)
(-744480.6445 0 92880.05146)
(-717149.1304 -4.643309592e-10 87831.92165)
(-696030.4749 0 83147.96814)
(-119819.4986 1.979235112e-07 735787.3529)
(-261405.4456 0 733403.6054)
(-421352.1252 0 728886.0516)
(-580716.7858 0 721761.227)
(-727393.8149 0 712439.4186)
(-866067.4739 0 701390.5442)
(-994649.5652 0 688374.3983)
(-1112504.169 0 673746.5967)
(-1219959.163 0 657727.5556)
(-1316233.552 0 640681.8508)
(-1400426.018 0 622367.5038)
(-1473699.339 0 603255.7121)
(-1535500.177 0 583374.7528)
(-1586545.993 0 562926.1783)
(-1627410.303 0 542277.5016)
(-1657840.258 0 521080.3392)
(-1678842.415 0 499904.0124)
(-1691016.897 4.514186486e-09 478539.5168)
(-1695119.494 0 457514.4686)
(-1691792.486 0 436503.1431)
(-1681479.339 0 415960.0349)
(-1665297.388 0 395642.0684)
(-1643602.461 0 376008.7859)
(-1617366.016 0 356805.6781)
(-1586995.497 0 338259.46)
(-1553180.954 1.928916386e-09 320405.8474)
(-1516904.37 0 303109.7592)
(-1478155.459 0 286660.6832)
(-1437981.036 1.872963794e-09 270775.6104)
(-1396204.155 0 255739.551)
(-1353747.74 0 241341.3606)
(-1310830.98 0 227698.3641)
(-1267672.985 0 214808.8234)
(-1224893.849 9.125419282e-10 202484.8624)
(-1182223.246 9.103997166e-10 190952.4086)
(-1140339.304 0 179963.3871)
(-1099002.326 0 169688.2795)
(-1058643.227 0 159982.0834)
(-1019445.261 -9.088274202e-10 150832.3032)
(-981226.5298 0 142290.9961)
(-944330.1554 0 134170.0707)
(-908505.9534 0 126633.896)
(-874084.7263 9.167425779e-10 119487.2246)
(-840832.9559 9.20004561e-10 112845.0751)
(-808969.7435 0 106577.7729)
(-778365.5241 0 100712.9177)
(-748957.5187 0 95215.01788)
(-720706.2504 0 90034.61362)
(-694364.8138 0 85214.69874)
(-673973.7509 0 80637.84845)
(-116401.0596 0 711960.3486)
(-254409.8554 0 709610.702)
(-409967.0311 0 705153.5684)
(-564430.2291 0 698237.3783)
(-706486.9095 0 689160.5313)
(-840514.6793 0 678184.8272)
(-965256.5568 0 665635.8284)
(-1080133.943 0 651676.9256)
(-1183828.612 0 636247.6467)
(-1276313.238 0 619552.1783)
(-1358139.562 0 601911.9542)
(-1428421.04 0 583312.383)
(-1488017.432 0 564062.826)
(-1537414.306 0 544487.6626)
(-1576047.394 0 524214.3559)
(-1605070.268 0 503824.6037)
(-1624837.639 0 483117.7087)
(-1636265.204 0 462674.2435)
(-1639805.313 0 442149.9377)
(-1635989.318 0 422014.7091)
(-1625749.097 0 401986.7435)
(-1609604.896 0 382565.5489)
(-1588523.657 0 363413.4798)
(-1562760.319 0 344970.047)
(-1533415.553 0 326957.7275)
(-1500635.42 0 309713.704)
(-1465277.179 0 293091.0852)
(-1428000.188 0 277118.0319)
(-1388831.089 0 261920.5071)
(-1348720.372 0 247256.141)
(-1307621.698 0 233455.5094)
(-1266363.628 0 220239.7789)
(-1224744.698 0 207782.0337)
(-1183270.384 0 195976.8887)
(-1142383.354 0 184756.2099)
(-1101840.842 0 174249.9284)
(-1062243.121 0 164232.1138)
(-1023362.07 0 154914.0253)
(-985642.9045 0 146078.3508)
(-948866.22 0 137802.752)
(-913197.9634 0 130026.1003)
(-878872.3377 0 122686.6935)
(-845638.235 0 115860.9645)
(-813751.9389 0 109369.9392)
(-783021.7865 0 103366.3532)
(-753611.3226 0 97658.72301)
(-725300.0234 0 92369.7786)
(-698092.6808 0 87360.33712)
(-672731.532 0 82698.81259)
(-653059.2411 0 78285.71025)
(-113049.3588 2.04136281e-07 688788.5547)
(-247095.3517 0 686481.6543)
(-398207.0618 0 681872.8583)
(-548123.8347 0 675076.2397)
(-686025.165 0 666416.346)
(-816777.9786 0 655858.8677)
(-938150.0462 0 643796.8302)
(-1048737.683 -1.64758583e-08 630066.6913)
(-1148997.427 0 615125.8562)
(-1239003.701 0 599140.761)
(-1317400.69 0 581913.3598)
(-1385385.684 0 563978.8999)
(-1443231.923 0 545572.4823)
(-1490043.267 0 526300.744)
(-1527120.668 0 506811.1466)
(-1554559.291 0 486855.911)
(-1573514.635 4.803887647e-09 467033.1722)
(-1584156.515 0 447134.8251)
(-1587094.495 4.527098956e-09 427422.2427)
(-1583053.394 -4.414649296e-09 407825.5729)
(-1572691.735 0 388674.5316)
(-1556895.183 -2.114967269e-09 369770.6871)
(-1535985.036 -2.077120651e-09 351482.546)
(-1511023.165 2.043930581e-09 333509.5327)
(-1482234.784 0 316292.3479)
(-1450641.47 0 299493.9512)