/*--------------------------------*- C++ -*----------------------------------*\
  =========                 |
  \\      /  F ield         | OpenFOAM: The Open Source CFD Toolbox
   \\    /   O peration     | Website:  https://openfoam.org
    \\  /    A nd           | Version:  7
     \\/     M anipulation  |
\*---------------------------------------------------------------------------*/
FoamFile
{
    version     2.0;
    format      ascii;
    class       volTensorField;
    location    "0.0024";
    object      grad(U);
}
// * * * * * * * * * * * * * * * * * * * * * * * * * * * * * * * * * * * * * //

dimensions      [0 0 -1 0 0 0 0];

internalField   nonuniform List<tensor> 
1166
(
(0.0009951177694 -3.262387437e-15 -6.232925725e-05 -1.596830578e-14 0.00162745515 0 4.812022237e-06 7.835207822e-16 0.01272509946)
(0.001316724773 -3.463606765e-15 -0.0001473308862 -2.470380961e-15 0.001423505946 0 1.251359335e-05 -1.29829149e-15 0.01272531354)
(0.0009800843891 3.297691644e-15 -6.301593438e-05 1.127317002e-14 0.001602920009 -2.948118397e-13 4.769525542e-06 3.883848141e-15 0.01264145215)
(0.001296768482 3.519041059e-15 -0.0001487559241 8.578066233e-16 0.001402017941 0 1.248315488e-05 6.564713617e-16 0.01264176964)
(0.001261828997 1.297540886e-15 -0.0002425640556 -5.687785528e-16 0.001336620903 0 1.985077473e-05 -1.666450727e-15 0.0126424044)
(0.00126533953 3.810662984e-15 -0.0003358027649 -4.566627197e-16 0.001318567459 9.124343902e-14 2.742861787e-05 -3.677520908e-15 0.01264328816)
(0.00123763944 2.362791269e-15 -0.0004288953766 -1.830399197e-15 0.001304658615 3.648328521e-14 3.449236467e-05 -5.314232013e-15 0.0126444514)
(0.001198037475 -1.168008512e-15 -0.0005222260171 -1.240107622e-15 0.001289676211 0 4.093838076e-05 -2.179986977e-15 0.0126459274)
(0.001152086548 -1.59460339e-16 -0.0006156497841 -9.322326127e-16 0.001272973169 -2.67022712e-14 4.700400165e-05 -5.257063139e-16 0.01264772362)
(0.001101532644 9.324002747e-16 -0.0007092172443 -8.800866953e-16 0.001254674309 2.379429111e-14 5.280308675e-05 -1.055364209e-15 0.01264989893)
(0.001045568955 1.894268358e-15 -0.000803352914 -9.354449767e-16 0.001234917197 0 5.80855161e-05 -5.059702161e-16 0.01265234268)
(0.0009840960235 1.439726444e-15 -0.00089822225 -1.066579764e-15 0.001213592703 -1.985777597e-14 6.274834298e-05 5.837886609e-16 0.01265493684)
(0.0009183069172 1.152600572e-15 -0.0009936325672 -1.028217568e-15 0.001190792249 0 6.705627719e-05 3.365419598e-16 0.01265772477)
(0.0008487969791 9.455818981e-16 -0.001089576624 -1.079483868e-15 0.001166640967 0 7.10500956e-05 4.303964989e-17 0.01266068614)
(0.0007761980932 6.011609164e-16 -0.001186019943 -1.01699914e-15 0.001141263068 0 7.477216925e-05 -9.489008261e-16 0.01266390194)
(0.0007008139866 1.339959355e-15 -0.001283145382 -1.015714888e-15 0.001114802623 0 7.804099883e-05 -1.374235342e-15 0.01266729935)
(0.0006227422947 2.099074817e-15 -0.001380864533 -1.059708001e-15 0.001087357518 0 8.087645531e-05 -1.329469189e-15 0.01267089915)
(0.0005423019042 6.769072308e-16 -0.001478969872 -1.136603945e-15 0.001059022882 0 8.336406282e-05 -1.533233399e-15 0.01267461128)
(0.0004598214915 -6.624607927e-16 -0.001577330942 -1.024738353e-15 0.001029888856 1.387546543e-14 8.546843998e-05 -2.034815217e-15 0.01267846295)
(0.0003759319965 -2.917589559e-16 -0.001675762096 -9.636186209e-16 0.001000044724 1.344797912e-14 8.715238901e-05 -2.25046903e-15 0.01268241356)
(0.000291015751 -1.342951261e-16 -0.00177406712 -9.018477166e-16 0.0009696029127 0 8.834995627e-05 -1.676425154e-15 0.01268647423)
(0.0002048608466 -7.038794627e-16 -0.001871692336 -8.623245448e-16 0.0009386488104 0 8.925888209e-05 -1.376373561e-15 0.01269054955)
(0.0001175849088 -1.479229909e-15 -0.00196816827 -7.746157517e-16 0.0009072394232 1.246690027e-14 8.991854328e-05 -1.294734115e-15 0.01269459547)
(2.947824879e-05 -1.631301831e-15 -0.002063080279 -6.845593497e-16 0.0008754425275 0 9.027725342e-05 -9.146709567e-16 0.01269861797)
(-5.879590378e-05 -4.193294113e-16 -0.002155948356 -5.946788971e-16 0.000843316367 0 9.025971426e-05 -6.544026838e-16 0.01270259219)
(-0.0001469150868 7.005527014e-16 -0.002246212765 -6.053550952e-16 0.000810952773 0 8.984856561e-05 -4.498507518e-16 0.01270649503)
(-0.0002350788128 4.648895087e-16 -0.002333065665 -6.052707388e-16 0.0007784090211 0 8.91567219e-05 -2.812915393e-16 0.01271026773)
(-0.0003231267353 3.347429025e-16 -0.002415759925 -5.976412746e-16 0.0007457390066 0 8.817424789e-05 -1.28721395e-16 0.01271388152)
(-0.0004110030868 2.543002858e-16 -0.002493534625 -5.882253833e-16 0.0007129924821 0 8.685485926e-05 1.852802234e-17 0.01271730832)
(-0.0004982010145 2.677012699e-16 -0.002565450592 -5.770063506e-16 0.000680211015 0 8.522124984e-05 -1.255522092e-17 0.01272052641)
(-0.0005845890674 -1.766282014e-16 -0.002630519109 -5.707698012e-16 0.0006474577681 0 8.332990249e-05 -1.175849085e-16 0.01272350325)
(-0.0006705048681 -6.010059419e-16 -0.002687655618 -5.382305182e-16 0.0006147673458 0 8.123663358e-05 -3.783354451e-16 0.01272620116)
(-0.0007553688006 -4.445250322e-16 -0.002735844426 -5.120772127e-16 0.0005821711396 0 7.884480733e-05 -5.945745593e-16 0.0127286185)
(-0.0008389257427 1.050105519e-16 -0.002774037576 -4.907456912e-16 0.0005497216865 0 7.61041124e-05 -7.615035822e-16 0.01273075065)
(-0.0009216494507 6.876087815e-16 -0.002800866355 -4.94048777e-16 0.0005174515426 1.090902313e-14 7.318878797e-05 -1.063565082e-15 0.01273255841)
(-0.001003601 6.405993485e-16 -0.002815031962 -5.017555734e-16 0.0004853803489 0 7.012221878e-05 -1.011511846e-15 0.01273402872)
(-0.001084572644 5.72022835e-16 -0.0028153283 -5.005776915e-16 0.0004535305501 0 6.683138758e-05 -9.783491644e-16 0.01273516384)
(-0.001164494432 9.81443486e-17 -0.002800366093 -5.037750305e-16 0.000421924651 5.415912139e-15 6.337175079e-05 -9.484557237e-16 0.01273596704)
(-0.00124327572 -7.020311874e-16 -0.002768765526 -4.842281346e-16 0.0003905818973 5.411728348e-15 5.97547321e-05 -8.780564729e-16 0.01273644598)
(-0.001320588787 -9.53351044e-16 -0.002719186675 -4.584412425e-16 0.0003595225357 0 5.593579029e-05 -8.185758008e-16 0.01273661764)
(-0.00139647979 -7.750349001e-16 -0.002650201714 -4.322915552e-16 0.000328772372 0 5.193346034e-05 -8.546893053e-16 0.012736507)
(-0.001471325828 -3.71370508e-16 -0.002560350298 -4.156370365e-16 0.0002983443981 5.421813062e-15 4.779669229e-05 -9.085954849e-16 0.01273613627)
(-0.001545005589 -2.654526985e-16 -0.002448115375 -4.044884958e-16 0.0002682463153 0 4.360272115e-05 -8.239158709e-16 0.01273552467)
(-0.001617510961 -4.637905984e-16 -0.002312075718 -3.935250397e-16 0.0002384918637 0 3.931570016e-05 -7.646692941e-16 0.01273471435)
(-0.001688864391 -4.66523955e-16 -0.002150880162 -3.780489561e-16 0.0002090862734 0 3.484944432e-05 -7.638887908e-16 0.01273374711)
(-0.001759000497 -2.64031422e-16 -0.001963032548 -3.670153209e-16 0.0001800395568 0 3.02781183e-05 -7.881017628e-16 0.01273267951)
(-0.001828227299 -1.809733187e-16 -0.001747031547 -3.594357571e-16 0.0001513567525 5.50373406e-15 2.567562791e-05 -7.4450198e-16 0.01273156221)
(-0.001896777936 -3.461743631e-16 -0.00150139433 -3.509440866e-16 0.0001230367922 -5.528719149e-15 2.110526096e-05 -6.494428818e-16 0.0127304535)
(-0.001964939962 -4.605766247e-16 -0.00122476868 -3.40149835e-16 9.507709166e-05 5.556345859e-15 1.652435139e-05 -7.099471537e-16 0.01272941524)
(-0.002027795285 -1.324786874e-16 -0.0009158189121 -3.293820411e-16 6.746872355e-05 -5.586537641e-15 1.184452761e-05 -6.042414604e-16 0.01272850432)
(-0.002068800271 1.541288513e-16 -0.0005729990745 -3.271937545e-16 4.033454097e-05 -5.619226911e-15 7.148570634e-06 -5.44140892e-16 0.01272781538)
(-0.002189908728 7.633482e-17 -0.0001960478863 -3.252271242e-16 1.406623724e-05 0 2.549254734e-06 -5.560145405e-16 0.0127274309)
(0.0009661792569 8.814526281e-15 -6.352021715e-05 2.24543205e-14 0.001580402281 2.994031227e-13 4.844579398e-06 -3.528621792e-15 0.01256143117)
(0.001277913102 1.04256858e-14 -0.0001499475828 -2.685313826e-16 0.001382201557 0 1.267297939e-05 -2.167189499e-15 0.01256169401)
(0.00124259304 8.612834519e-15 -0.0002447114395 -3.739233513e-15 0.001317404909 0 1.996521153e-05 -1.500900453e-15 0.0125622524)
(0.001245533434 6.631193094e-15 -0.0003391400223 -4.991232784e-15 0.001299182547 9.266442825e-14 2.722587141e-05 -1.614548123e-15 0.01256321292)
(0.001218795869 -4.063033436e-15 -0.0004331809477 -5.049799405e-15 0.001285205298 -3.705146147e-14 3.417810755e-05 1.048026374e-15 0.0125646367)
(0.001181286626 -9.51479635e-15 -0.0005271289138 -2.047034034e-15 0.001270471944 0 4.084746761e-05 7.221153034e-16 0.01256636004)
(0.001136674569 -3.783062638e-15 -0.00062138008 -7.084079672e-16 0.001254302204 0 4.698985394e-05 6.492162117e-16 0.01256834683)
(0.001085975052 -6.626359265e-16 -0.0007160424772 -5.250664075e-16 0.001236435014 0 5.257193417e-05 7.668457211e-16 0.01257056257)
(0.001030798866 -7.564877551e-16 -0.0008107976954 -4.040901331e-16 0.001216944316 2.192255874e-14 5.801405849e-05 1.228293136e-15 0.01257306931)
(0.0009708234132 7.721865616e-16 -0.0009060480849 -2.732593598e-16 0.001196029415 -2.016703312e-14 6.306844705e-05 1.894463456e-15 0.01257573939)
(0.0009059069494 2.266019629e-15 -0.001002067791 -4.579958866e-16 0.001173645641 0 6.752319581e-05 1.744448552e-15 0.01257853927)
(0.0008373271793 4.100031991e-15 -0.001098763166 -5.911396351e-16 0.001149899048 -1.760951233e-14 7.153069939e-05 1.882944648e-15 0.01258152548)
(0.0007657333436 4.011517494e-15 -0.001196130169 -9.759094318e-16 0.001124938303 0 7.510282647e-05 1.497246997e-15 0.01258471196)
(0.0006913687917 1.563005537e-15 -0.001294061862 -1.056692577e-15 0.001098894283 0 7.830605235e-05 1.316969234e-15 0.01258811071)
(0.0006142919694 1.430671118e-15 -0.001392439751 -1.048426324e-15 0.00107187465 0 8.117280621e-05 1.257580905e-15 0.01259162726)
(0.0005348285873 2.367821917e-15 -0.001491157731 -1.093739581e-15 0.001043960337 -1.459269486e-14 8.367673844e-05 1.376837473e-15 0.01259527669)
(0.0004536822788 2.411003441e-15 -0.001590121979 -1.186910882e-15 0.001015250618 0 8.573787141e-05 9.923628772e-16 0.01259903299)
(0.0003711963142 -2.670882393e-16 -0.001689127269 -1.225366001e-15 0.0009858599196 0 8.734060917e-05 8.004487331e-16 0.01260289423)
(0.0002872134477 -1.876028715e-15 -0.001787715079 -1.058545056e-15 0.0009558775099 0 8.864068003e-05 6.529775048e-16 0.01260677263)
(0.0002019037658 -9.034733314e-16 -0.001885484544 -9.532124365e-16 0.0009253636118 0 8.966558869e-05 6.225079434e-16 0.01261062462)
(0.0001156988932 -1.036021226e-15 -0.001982132948 -8.979581133e-16 0.0008943923586 0 9.030888512e-05 4.513416606e-16 0.01261445861)
(2.910230755e-05 -1.289847323e-15 -0.002077191731 -8.042745877e-16 0.0008630349625 0 9.055671577e-05 8.920964824e-17 0.01261825436)
(-5.774347142e-05 -8.294996732e-16 -0.002170094523 -7.378185585e-16 0.0008313770023 0 9.04502884e-05 -2.443352963e-16 0.01262198409)
(-0.0001448172163 -5.216761327e-16 -0.002260136573 -6.908986039e-16 0.0007994745372 0 9.005363849e-05 -1.955992041e-16 0.01262558787)
(-0.000231851816 -3.678255993e-16 -0.002346645145 -6.53656654e-16 0.0007673898548 0 8.935642996e-05 -1.704325328e-16 0.01262903836)
(-0.0003187936191 -2.978782642e-16 -0.002428870223 -6.2404585e-16 0.0007351776195 0 8.835704718e-05 -1.545101367e-16 0.01263230951)
(-0.0004052194254 -2.451248655e-16 -0.002506000688 -5.973861727e-16 0.0007028851409 0 8.702500603e-05 -1.417616671e-16 0.01263537763)
(-0.00049096579 3.023567191e-17 -0.002577189742 -5.748306589e-16 0.0006705752411 0 8.535006359e-05 -1.572745422e-16 0.01263821714)
(-0.0005762927796 8.185645143e-16 -0.002641354511 -5.658244067e-16 0.0006382888612 0 8.345539378e-05 -1.087054799e-16 0.01264078565)
(-0.0006607796871 1.024796894e-15 -0.002697519104 -5.878146703e-16 0.0006060595045 0 8.128368337e-05 -2.691984615e-16 0.01264307466)
(-0.0007440414501 8.297154647e-16 -0.002744731328 -5.883004078e-16 0.000573937905 0 7.874081873e-05 -4.568732018e-16 0.01264508844)
(-0.0008265035868 1.330404712e-15 -0.002781699258 -5.97522842e-16 0.0005419649079 0 7.598787966e-05 -6.2892263e-16 0.01264678474)
(-0.0009083557299 9.314767395e-16 -0.002807167294 -6.221070963e-16 0.0005101591407 0 7.309111468e-05 -5.413900828e-16 0.01264814108)
(-0.0009891535702 2.626231365e-17 -0.002819964656 -6.147190227e-16 0.0004785441651 0 6.999117659e-05 -4.172330835e-16 0.01264916544)
(-0.001068911682 -3.101039941e-16 -0.002818790761 -5.984820192e-16 0.0004471516726 0 6.670733783e-05 -3.729654579e-16 0.01264985665)
(-0.001147760489 -6.336312002e-16 -0.002802353577 -5.747339288e-16 0.0004159977983 -5.500257412e-15 6.323637765e-05 -3.404445064e-16 0.01265021911)
(-0.001225179253 -6.589844534e-16 -0.002769307349 -5.50137566e-16 0.0003851022275 -5.496008464e-15 5.959240385e-05 -4.225993827e-16 0.01265026928)
(-0.00130116474 -2.526936364e-16 -0.002718303775 -5.299839363e-16 0.0003544957796 0 5.57607949e-05 -6.62099133e-16 0.01265002739)
(-0.001376130538 2.412921719e-16 -0.002647990629 -5.215926068e-16 0.0003241922714 5.499210598e-15 5.172561438e-05 -8.544831851e-16 0.01264950215)
(-0.001450257603 2.006695013e-16 -0.002556865181 -5.195717079e-16 0.0002942017879 0 4.760189968e-05 -9.319410877e-16 0.01264872292)
(-0.001523349742 -3.214541112e-18 -0.002443501349 -5.097809748e-16 0.0002645287181 0 4.34067269e-05 -9.792974396e-16 0.01264772722)
(-0.001594624486 2.698134126e-16 -0.002306522532 -5.029425068e-16 0.0002351870223 0 3.911499584e-05 -1.053548528e-15 0.01264657161)
(-0.001664521021 3.516674037e-16 -0.002144567742 -5.034511786e-16 0.000206203098 5.54710431e-15 3.470208216e-05 -1.161533009e-15 0.01264529751)
(-0.001733860421 -2.251401484e-16 -0.00195626333 -4.981073401e-16 0.0001775732134 5.566842196e-15 3.01457965e-05 -1.215329233e-15 0.01264393909)
(-0.001802599209 -6.571781789e-16 -0.001740129738 -4.813665631e-16 0.0001492956645 0 2.554927324e-05 -1.243662857e-15 0.01264256064)
(-0.001871041414 -4.043844131e-17 -0.001494752207 -4.653886252e-16 0.0001213679911 0 2.095297699e-05 -1.272924503e-15 0.01264122839)
(-0.00193851344 5.955166126e-17 -0.001218718683 -4.670253191e-16 9.378005594e-05 5.642878192e-15 1.64123891e-05 -1.372100357e-15 0.01264002006)
(-0.002000212882 -3.896767649e-16 -0.0009107842081 -4.546727442e-16 6.654751369e-05 5.673540168e-15 1.18286224e-05 -1.406717664e-15 0.01263900093)
(-0.002040774232 -8.35971837e-17 -0.0005695944539 -4.447069346e-16 3.978222648e-05 0 7.12368484e-06 -1.398290669e-15 0.01263823361)
(-0.002159715065 7.557621593e-17 -0.000194828341 -4.411342329e-16 1.386868355e-05 5.742411974e-15 2.529023685e-06 -1.396400674e-15 0.01263781336)
(0.0009511827908 -1.581210287e-15 -6.398591962e-05 -2.255811256e-14 0.001555890608 3.040659122e-13 4.910733846e-06 -4.494570902e-15 0.01248437025)
(0.001258555585 -1.154312429e-15 -0.0001509882054 -6.161419903e-15 0.001360754 0 1.287530296e-05 -1.35908191e-15 0.01248472258)
(0.001224949205 2.867509459e-16 -0.0002465501827 -3.554992188e-15 0.001297271708 0 2.019991026e-05 1.123554137e-15 0.01248547043)
(0.001228775308 -3.366083883e-15 -0.0003420643802 -2.800136103e-15 0.001279885533 0 2.726639146e-05 3.431901437e-15 0.01248658228)
(0.00120194777 -3.196677883e-15 -0.0004372107408 -7.165580967e-16 0.001266539999 -3.762848672e-14 3.399618673e-05 5.51619056e-15 0.01248801275)
(0.001163901599 -2.842000752e-16 -0.0005321788744 -5.950794027e-16 0.001252061144 0 4.044558272e-05 2.301063629e-15 0.01248966232)
(0.0011202667 -3.655575322e-16 -0.0006271169753 -4.303195163e-16 0.001236026815 0 4.663013828e-05 5.761457557e-16 0.01249162767)
(0.00107097665 -7.325780208e-16 -0.0007223485396 -3.505028095e-16 0.001218523396 2.454118816e-14 5.240078116e-05 2.332102576e-16 0.01249379071)
(0.001015964621 -1.331874532e-15 -0.0008179905708 -1.766550534e-16 0.001199395472 0 5.772406688e-05 -1.05122556e-17 0.01249615101)
(0.0009568019136 5.195837413e-17 -0.0009139694786 -2.000108082e-17 0.001178727868 0 6.276496971e-05 -2.065068559e-16 0.01249879972)
(0.000893539012 1.170743068e-15 -0.001010607348 -1.441898471e-16 0.001156713575 0 6.732786166e-05 1.439764973e-16 0.01250164947)
(0.0008261915553 1.780558325e-15 -0.001108025248 -2.052091157e-16 0.001133380514 1.788375612e-14 7.132042461e-05 4.563669833e-16 0.0125046891)
(0.0007556045363 2.340907585e-15 -0.00120607247 -3.716654517e-16 0.001108845301 -1.691490767e-14 7.489124015e-05 2.015867506e-15 0.01250788274)
(0.0006820158654 2.068550634e-15 -0.001304589808 -4.894031619e-16 0.001083224233 -3.220233496e-14 7.813979691e-05 2.219781e-15 0.01251119057)
(0.000605800424 1.884541885e-15 -0.001403506146 -5.831692141e-16 0.001056607338 0 8.104040581e-05 1.967530622e-15 0.01251461114)
(0.0005276360993 1.593969661e-15 -0.001502806688 -6.494585166e-16 0.001029104073 0 8.347906831e-05 1.975546354e-15 0.01251815153)
(0.0004478331975 1.24244982e-15 -0.001602311083 -6.900451796e-16 0.001000834117 0 8.545853624e-05 2.177672901e-15 0.01252179289)
(0.0003662489022 8.293253799e-16 -0.001701615107 -7.060345469e-16 0.000971890163 -1.387010793e-14 8.712699009e-05 2.328388643e-15 0.01252545975)
(0.0002831141431 4.299819475e-16 -0.001800373215 -7.029678317e-16 0.0009423345604 0 8.850902661e-05 1.579312292e-15 0.01252911076)
(0.0001990920553 -2.08514126e-18 -0.001898340798 -6.839012489e-16 0.0009122486961 0 8.949386695e-05 1.093346777e-15 0.01253275703)
(0.0001144488589 4.117156807e-16 -0.001995119313 -6.466787234e-16 0.0008817242391 0 9.006727043e-05 7.711132733e-16 0.01253637717)
(2.898042406e-05 8.558025907e-16 -0.002090163511 -6.614388366e-16 0.0008508330692 0 9.0290075e-05 4.558925186e-16 0.01253991738)
(-5.694137704e-05 5.810426289e-16 -0.002182835992 -6.631989479e-16 0.0008196230205 0 9.02145073e-05 2.182178898e-16 0.01254333741)
(-0.0001428190049 4.096965662e-16 -0.002272563198 -6.555748976e-16 0.0007881703302 0 8.980699528e-05 5.862681062e-17 0.01254661565)
(-0.0002286121132 2.976725585e-16 -0.00235864604 -6.447859579e-16 0.0007565373128 0 8.907992166e-05 -6.272972486e-17 0.01254972679)
(-0.0003140767087 2.149824279e-16 -0.002440339005 -6.337645008e-16 0.0007247801086 0 8.801656362e-05 -1.701213278e-16 0.01255264587)
(-0.0003991118207 2.596096071e-16 -0.002516869935 -6.19567482e-16 0.0006929569549 0 8.658458918e-05 -2.766302595e-16 0.01255535072)
(-0.0004838263452 1.272749234e-16 -0.002587212959 -6.121218245e-16 0.0006611127822 0 8.491241689e-05 -3.792400128e-16 0.01255779386)
(-0.0005679025546 3.096496494e-16 -0.002650434191 -5.957110215e-16 0.0006292842891 1.150958653e-14 8.298771981e-05 -3.977536038e-16 0.01255995636)
(-0.0006507888563 8.697086065e-16 -0.002705628905 -5.941794955e-16 0.0005975206214 0 8.07206927e-05 -1.000517887e-16 0.01256184685)
(-0.0007328150326 1.093730423e-15 -0.002751632143 -6.07165938e-16 0.0005658740825 0 7.820775231e-05 -1.863563028e-17 0.01256342993)
(-0.0008144139014 4.685694385e-16 -0.002787270555 -6.206199889e-16 0.0005343645019 5.649021055e-15 7.550710448e-05 3.158556597e-17 0.01256467286)
(-0.0008951385045 -2.397346512e-16 -0.002811379974 -5.988323074e-16 0.0005030132443 -5.625727365e-15 7.261492017e-05 2.571766526e-16 0.01256558316)
(-0.0009748472225 -1.155106229e-16 -0.002822749318 -5.81851489e-16 0.0004718540133 -5.607679291e-15 6.952774721e-05 2.427440787e-16 0.01256615983)
(-0.001053571883 2.097911167e-16 -0.00282015445 -5.709246413e-16 0.0004409073901 -1.118903029e-14 6.622394658e-05 1.289173087e-16 0.01256639444)
(-0.001131226701 3.256963133e-16 -0.002802287586 -5.666377509e-16 0.0004101980326 0 6.27339477e-05 -9.671780292e-17 0.01256630851)
(-0.001207658005 8.306401544e-16 -0.002767846019 -5.627932843e-16 0.0003797440973 5.581601193e-15 5.905921845e-05 -3.622416645e-16 0.01256592196)
(-0.001282398258 1.133740342e-15 -0.002715457824 -5.770725751e-16 0.0003495700274 5.581320585e-15 5.524891365e-05 -4.872301296e-16 0.01256526019)
(-0.001356134947 5.560174567e-16 -0.002643748363 -5.828917825e-16 0.0003197053795 5.584853195e-15 5.133437474e-05 -5.025053972e-16 0.01256433466)
(-0.001429415404 2.591919935e-16 -0.002551407503 -5.768117776e-16 0.000290144346 0 4.725973273e-05 -4.266401483e-16 0.01256316016)
(-0.001501443106 3.601034923e-16 -0.002437074957 -5.710651128e-16 0.0002608935173 0 4.303138988e-05 -4.044849518e-16 0.01256180016)
(-0.001571981408 4.958565535e-16 -0.0022993724 -5.690514989e-16 0.0002319725646 0 3.867250883e-05 -3.771899744e-16 0.012560305)
(-0.001641058881 3.974051107e-16 -0.002136857481 -5.694008822e-16 0.0002033924699 0 3.426926509e-05 -3.021747878e-16 0.01255872187)
(-0.001709305969 1.771785301e-16 -0.001948182887 -5.634904575e-16 0.0001751677034 -5.653538062e-15 2.982888162e-05 -2.510360137e-16 0.01255709307)
(-0.001777377717 1.280552997e-16 -0.001732050349 -5.57463401e-16 0.0001472877621 0 2.529683783e-05 -3.207567086e-16 0.01255546629)
(-0.001845291081 3.824002665e-16 -0.00148709388 -5.512931312e-16 0.0001197467283 5.702264307e-15 2.072263179e-05 -3.832347766e-16 0.01255391793)
(-0.001912541323 3.048015682e-16 -0.001211998516 -5.522990246e-16 9.253498346e-05 0 1.611666376e-05 -3.224785523e-16 0.01255252681)
(-0.001973436847 1.233346882e-17 -0.0009053902395 -5.445738892e-16 6.566078346e-05 -5.761897707e-15 1.154583582e-05 -3.440301349e-16 0.0125513847)
(-0.002013370865 9.010849808e-17 -0.000565950026 -5.385632888e-16 3.925957237e-05 0 6.985146331e-06 -3.87621607e-16 0.0125505504)
(-0.002131457883 6.521131481e-17 -0.0001935304415 -5.334539094e-16 1.36892748e-05 0 2.48397361e-06 -3.817041874e-16 0.01255008226)
(0.0009372095981 -2.621952136e-15 -6.479748173e-05 -2.087858069e-14 0.001533430482 0 4.707120376e-06 1.897084818e-15 0.01240972287)
(0.001239903877 -3.400588036e-15 -0.0001528839098 -4.68256517e-15 0.001340896819 0 1.230962987e-05 1.161340488e-15 0.01241009108)
(0.001206774312 -3.31327504e-15 -0.0002494627703 -1.572828503e-15 0.001278188482 0 1.937194305e-05 1.032771712e-15 0.01241092316)
(0.001210627261 -4.520363003e-15 -0.0003456612809 -1.895829599e-16 0.001261034338 0 2.645410795e-05 1.248312594e-15 0.01241209983)
(0.001184810629 -7.587224018e-17 -0.0004411776417 1.023935856e-15 0.001247876952 0 3.348259317e-05 -5.956760198e-17 0.01241352121)
(0.001148079208 3.256596762e-15 -0.0005366932046 4.709197026e-17 0.001233802904 0 4.009947274e-05 -8.267491381e-17 0.01241517375)
(0.001104688376 1.554683954e-15 -0.0006324710607 -2.628955386e-16 0.001218200426 0 4.618004e-05 -1.865351169e-16 0.01241706005)
(0.001055745925 9.111023204e-16 -0.0007284139999 -3.650886277e-16 0.001200954195 0 5.191864655e-05 -8.616712329e-17 0.01241918132)
(0.001001995978 4.416692055e-16 -0.00082476152 -4.084941501e-16 0.001182143067 2.261070323e-14 5.723202479e-05 -9.102597694e-16 0.01242152879)
(0.0009436532008 2.635749407e-16 -0.0009216455332 -3.859388363e-16 0.001161863026 0 6.209099257e-05 -9.550022603e-16 0.0124241145)
(0.0008812630271 3.553748005e-16 -0.001019081983 -3.826215473e-16 0.001140185138 0 6.652186059e-05 -5.4745125e-16 0.01242693148)
(0.0008151168973 -1.524511262e-15 -0.001117104149 -3.813367488e-16 0.001117243657 0 7.053980637e-05 -3.093710187e-16 0.01242990494)
(0.000745322931 -1.122682917e-15 -0.001215616414 -1.174300193e-16 0.001093106607 0 7.421672265e-05 1.690551403e-16 0.01243298585)
(0.0006726194709 1.759438997e-15 -0.001314607655 -1.716632349e-16 0.001067865562 0 7.751020384e-05 4.502327255e-16 0.0124361743)
(0.0005977131971 2.167116533e-15 -0.001414095416 -3.15230519e-16 0.001041644689 0 8.031726703e-05 6.743639553e-16 0.0124394943)
(0.0005208535558 1.678001831e-15 -0.001513919066 -3.968461179e-16 0.001014569004 -1.505075647e-14 8.266138075e-05 8.457442622e-16 0.01244291879)
(0.0004419194177 1.267052445e-15 -0.001613715498 -4.577322942e-16 0.000986733875 0 8.469225791e-05 6.168407072e-16 0.01244637276)
(0.0003611741759 1.776313844e-15 -0.001713194586 -4.848980334e-16 0.0009582043467 0 8.64283102e-05 3.300164344e-16 0.01244981702)
(0.0002792982073 2.243437569e-15 -0.00181216774 -5.768170503e-16 0.000929066454 0 8.775440484e-05 -3.756566827e-17 0.01245326521)
(0.000196599823 1.83455471e-15 -0.001910291475 -6.35857535e-16 0.0008994172254 0 8.865597928e-05 -5.100664324e-16 0.01245669823)
(0.0001129443332 1.185327894e-15 -0.002007035876 -6.822547103e-16 0.000869334866 1.305848268e-14 8.922612647e-05 -8.431931181e-16 0.01246006065)
(2.859114616e-05 6.81003116e-16 -0.002101853908 -6.811129572e-16 0.0008388739202 0 8.949277896e-05 -5.395983471e-16 0.01246330903)
(-5.598939955e-05 6.09299426e-16 -0.002194274747 -6.796642893e-16 0.0008081073692 0 8.938215841e-05 -3.530963347e-16 0.01246643106)
(-0.0001406348614 5.151580145e-16 -0.002283635421 -6.748428749e-16 0.0007771023943 0 8.893237392e-05 -2.250765892e-16 0.01246939789)
(-0.000225131769 4.920174394e-16 -0.002369240037 -6.682218199e-16 0.0007459196367 0 8.814966546e-05 -1.310468767e-16 0.01247218069)
(-0.0003092517151 5.20407277e-16 -0.002450339062 -6.612683397e-16 0.0007146190634 0 8.703312484e-05 -5.245306836e-17 0.01247475791)
(-0.0003931365866 5.696583039e-16 -0.002526021633 -6.597326681e-16 0.0006832562937 0 8.566095136e-05 3.121088835e-17 0.0124770831)
(-0.0004767016513 5.020295787e-16 -0.002595438129 -6.576301786e-16 0.0006518659494 0 8.400374307e-05 -3.603981473e-17 0.01247912667)
(-0.0005593516225 -3.310940963e-16 -0.002657716194 -6.520747689e-16 0.0006204939372 0 8.200315898e-05 -1.265115617e-16 0.01248090218)
(-0.0006411016895 -5.098175241e-16 -0.002711804088 -6.07682558e-16 0.0005891945109 0 7.972014039e-05 -9.616820965e-17 0.01248238365)
(-0.0007221760106 2.883993911e-16 -0.002756569062 -5.926889118e-16 0.0005579992175 0 7.723163777e-05 -4.868281391e-17 0.01248352775)
(-0.0008026073476 1.353937076e-16 -0.002790887328 -5.910675457e-16 0.0005269387304 0 7.455133438e-05 9.169348162e-17 0.01248433831)
(-0.0008823248186 1.898451446e-17 -0.002813629384 -5.732868404e-16 0.0004960346894 0 7.166786161e-05 3.543487834e-17 0.01248481787)
(-0.0009608053958 5.956340896e-16 -0.002823552231 -5.658861264e-16 0.0004653133894 0 6.863331477e-05 -3.256364725e-17 0.01248496408)
(-0.001038212721 1.227846073e-15 -0.002819454925 -5.728804145e-16 0.0004348120226 0 6.541743924e-05 -6.610529445e-17 0.01248478296)
(-0.001114773689 1.627493012e-15 -0.002800172476 -5.94159693e-16 0.0004045425916 0 6.193502745e-05 -6.583123404e-17 0.01248427513)
(-0.001190072058 1.171047124e-15 -0.002764385952 -6.144594706e-16 0.0003745259388 0 5.824278516e-05 -7.243209297e-17 0.01248347794)
(-0.001264245683 4.256643939e-16 -0.002710714181 -6.151205035e-16 0.0003447855235 0 5.442715948e-05 2.00051418e-17 0.01248241103)
(-0.001337219631 -5.327536415e-17 -0.002637761453 -6.085862143e-16 0.0003153316773 0 5.056252158e-05 6.922997462e-17 0.01248109745)
(-0.001409060531 -2.769114082e-16 -0.002544291798 -5.920340681e-16 0.0002861854031 0 4.656845084e-05 5.49210013e-17 0.01247957685)
(-0.001479940636 -2.459954287e-16 -0.002429073153 -5.778749881e-16 0.0002573511822 0 4.235658925e-05 5.590464703e-17 0.01247789192)
(-0.001549503461 -2.530616308e-16 -0.002290676299 -5.64684349e-16 0.0002288403581 0 3.804737772e-05 7.378373017e-17 0.01247608806)
(-0.001618118138 -3.026130896e-16 -0.002127723404 -5.520788256e-16 0.0002006664255 0 3.370122772e-05 1.091280378e-16 0.01247421347)
(-0.00168588395 -1.11200224e-16 -0.001938869775 -5.386239569e-16 0.0001728264615 0 2.934080126e-05 1.112326317e-16 0.01247232018)
(-0.001752994229 6.884596069e-17 -0.001722850826 -5.323664294e-16 0.0001453286812 0 2.494617204e-05 1.041812525e-16 0.01247047194)
(-0.001820092685 -3.393308212e-17 -0.00147845977 -5.255932634e-16 0.0001181640536 0 2.043912586e-05 9.544378848e-17 0.01246872735)
(-0.0018866309 -1.502303557e-16 -0.001204421722 -5.166748109e-16 9.132217179e-05 0 1.585163301e-05 1.573730271e-16 0.01246717437)
(-0.001947602738 -9.355967423e-18 -0.0008994272379 -5.073390134e-16 6.480983713e-05 0 1.123949827e-05 1.587856408e-16 0.0124658946)
(-0.001987578456 1.346211401e-16 -0.0005619814387 -5.033922072e-16 3.874449005e-05 0 6.775082801e-06 1.658058263e-16 0.01246497768)
(-0.002103268422 4.080647037e-17 -0.0001920675882 -4.98134306e-16 1.350429235e-05 0 2.447867229e-06 1.788316569e-16 0.01246448957)
(0.0009239558664 1.003617225e-15 -6.530535896e-05 -4.809242595e-15 0.001511567185 0 4.670035319e-06 1.663543832e-15 0.01233754603)
(0.001222617763 6.414354656e-16 -0.0001541695564 -2.498757918e-15 0.001321874663 0 1.215176718e-05 4.466248736e-16 0.01233786718)
(0.001190178044 -9.451490095e-17 -0.0002516023437 -1.567070766e-15 0.001260238342 0 1.904961872e-05 -4.814894839e-16 0.01233853798)
(0.001193530986 -3.01736255e-16 -0.0003486164014 -1.051539755e-15 0.00124343497 0 2.599575491e-05 -1.256689724e-15 0.01233950491)
(0.001167326077 -4.941531703e-17 -0.0004450717743 -7.556319539e-16 0.00123033075 0 3.274541268e-05 -2.439748913e-15 0.01234075728)
(0.001131106707 1.101446722e-16 -0.0005413800033 -6.575987213e-16 0.001216259028 0 3.919623647e-05 -1.681446685e-15 0.01234237579)
(0.001089125282 -3.575247892e-16 -0.0006377227314 -5.651861308e-16 0.001200821705 0 4.533837647e-05 -1.491937358e-15 0.01234424797)
(0.001041313031 1.346908506e-15 -0.0007343864771 -4.078518073e-16 0.001183906669 2.531153034e-14 5.101407152e-05 -1.501180465e-15 0.01234636525)
(0.0009881556861 9.594527515e-16 -0.0008315233356 -7.175885366e-16 0.001165418151 0 5.61726397e-05 -8.274201244e-16 0.01234872326)
(0.0009309217535 -1.000199958e-15 -0.0009290642786 -5.363516622e-16 0.001145446492 0 6.097211083e-05 -2.317527676e-16 0.0123512907)
(0.0008695555235 -6.436681738e-16 -0.00102707913 -4.149654253e-16 0.001124159753 0 6.540967364e-05 4.358734194e-16 0.01235401487)
(0.0008039345436 -3.524724516e-16 -0.001125565738 -3.467466982e-16 0.001101577065 0 6.948452723e-05 5.834647566e-16 0.01235684538)
(0.0007350664942 8.384554383e-17 -0.001224576244 -3.04535933e-16 0.001077783498 0 7.313983135e-05 2.666973327e-16 0.01235980156)
(0.0006637091211 5.623615984e-16 -0.001324161123 -3.121842314e-16 0.001052916687 0 7.628658139e-05 -9.067494599e-17 0.0123629066)
(0.0005900517251 6.919498726e-16 -0.001424166052 -3.337214797e-16 0.001027105582 0 7.89784768e-05 -4.867839308e-17 0.012366122)