/*--------------------------------*- C++ -*----------------------------------*\
  =========                 |
  \\      /  F ield         | OpenFOAM: The Open Source CFD Toolbox
   \\    /   O peration     | Website:  https://openfoam.org
    \\  /    A nd           | Version:  7
     \\/     M anipulation  |
\*---------------------------------------------------------------------------*/
FoamFile
{
    version     2.0;
    format      ascii;
    class       surfaceScalarField;
    location    "0.0024";
    object      phi;
}
// * * * * * * * * * * * * * * * * * * * * * * * * * * * * * * * * * * * * * //

dimensions      [1 0 -1 0 0 0 0];

internalField   nonuniform List<scalar> 
2257
(
3.62191297e-15
4.567072792e-11
1.336390117e-10
3.510882927e-15
4.566721704e-11
1.374292702e-14
1.336287796e-10
3.018923875e-14
2.16686842e-10
5.229093567e-14
2.950444698e-10
7.945424936e-14
3.688980156e-10
1.110481442e-13
4.384371872e-10
1.464242851e-13
5.03845246e-10
1.849874028e-13
5.652990366e-10
2.261229337e-13
6.22969294e-10
2.69155834e-13
6.770206579e-10
3.135609474e-13
7.276117703e-10
3.586963839e-13
7.748956471e-10
4.04093237e-13
8.190195406e-10
4.491877737e-13
8.601253632e-10
4.935473228e-13
8.983495656e-10
5.366740117e-13
9.338235543e-10
5.78201815e-13
9.666736077e-10
6.176943165e-13
9.970212056e-10
6.548946964e-13
1.024982989e-09
6.894136541e-13
1.050671135e-09
7.210221199e-13
1.074193286e-09
7.494295914e-13
1.095652878e-09
7.744346838e-13
1.115149143e-09
7.95894674e-13
1.132777256e-09
8.136041052e-13
1.14862856e-09
8.274824294e-13
1.162790623e-09
8.373846631e-13
1.17534748e-09
8.432495472e-13
1.186379592e-09
8.45053466e-13
1.195964012e-09
8.427187237e-13
1.204174664e-09
8.36248197e-13
1.211082388e-09
8.256794832e-13
1.216754826e-09
8.110038149e-13
1.221256866e-09
7.922515514e-13
1.224650624e-09
7.694629047e-13
1.226995571e-09
7.427019154e-13
1.228348461e-09
7.120159514e-13
1.228763708e-09
6.77505693e-13
1.228293307e-09
6.392689557e-13
1.226986978e-09
5.973713586e-13
1.224892204e-09
5.519220753e-13
1.222054406e-09
5.030250568e-13
1.218517054e-09
4.507553881e-13
1.214321576e-09
3.952709115e-13
1.209507537e-09
3.366161059e-13
1.204112784e-09
2.749478519e-13
1.198173427e-09
2.103732637e-13
1.191723956e-09
1.429251374e-13
1.184797366e-09
7.278825725e-14
1.177424898e-09
1.169636599e-09
3.406538913e-15
4.56638105e-11
1.333406636e-14
1.336188521e-10
2.928289157e-14
2.166708931e-10
5.070367167e-14
2.95023049e-10
7.703424484e-14
3.68871685e-10
1.076756094e-13
4.384065458e-10
1.420252949e-13
5.038108963e-10
1.794244129e-13
5.652616375e-10
2.193163438e-13
6.229294021e-10
2.611099544e-13
6.769788643e-10
3.041697303e-13
7.275687105e-10
3.480049489e-13
7.748518119e-10
3.920342345e-13
8.189755113e-10
4.358277367e-13
8.600815697e-10
4.788553071e-13
8.98306538e-10
5.207320057e-13
9.337816776e-10
5.610052099e-13
9.666333345e-10
5.993813713e-13
9.969828295e-10
6.3546007e-13
1.02494691e-09
6.689773036e-13
1.050637618e-09
6.996277736e-13
1.074162636e-09
7.271965399e-13
1.09562531e-09
7.514869413e-13
1.115124852e-09
7.722917185e-13
1.132756451e-09
7.894951402e-13
1.148611357e-09
8.029444463e-13
1.162777174e-09
8.1255099e-13
1.175337873e-09
8.182667586e-13
1.186373876e-09
8.200092721e-13
1.19596227e-09
8.177487708e-13
1.204176925e-09
8.115062324e-13
1.211088631e-09
8.012727857e-13
1.21676506e-09
7.870370481e-13
1.221271101e-09
7.688521385e-13
1.224668809e-09
7.467635237e-13
1.227017659e-09
7.20793808e-13
1.22837443e-09
6.910414709e-13
1.22879346e-09
6.575908905e-13
1.228326758e-09
6.204961402e-13
1.227024073e-09
5.798727599e-13
1.224932828e-09
5.357474198e-13
1.222098532e-09
4.882928623e-13
1.218564509e-09
4.376182312e-13
1.214372251e-09
3.837541263e-13
1.209561401e-09
3.268620475e-13
1.204169676e-09
2.669662844e-13
1.198233323e-09
2.042388741e-13
1.191786684e-09
1.387906274e-13
1.184862814e-09
7.064988214e-14
1.177493039e-09
1.169707249e-09
3.30105211e-15
4.566050945e-11
1.292139139e-14
1.336092318e-10
2.838591872e-14
2.166554286e-10
4.917239165e-14
2.950022626e-10
7.47277986e-14
3.688461296e-10
1.044384341e-13
4.383768352e-10
1.377464716e-13
5.037775883e-10
1.740590549e-13
5.652253249e-10
2.127464745e-13
6.228907147e-10
2.53273593e-13
6.769383372e-10
2.95086179e-13
7.275268979e-10
3.376035267e-13
7.748092945e-10
3.803691491e-13
8.189327457e-10
4.2284657e-13
8.600390923e-10
4.646242609e-13
8.982647603e-10
5.052403014e-13
9.337410616e-10
5.443664152e-13
9.665942084e-10
5.815911768e-13
9.969456047e-10
6.166173338e-13
1.024911884e-09
6.491242561e-13
1.050605111e-09
6.788947132e-13
1.074132865e-09
7.056597457e-13
1.095598544e-09
7.292192204e-13
1.115101293e-09
7.494224125e-13
1.132736248e-09
7.661078083e-13
1.148594672e-09
7.791679092e-13
1.162764114e-09
7.885143845e-13
1.175328527e-09
7.940672813e-13
1.186368323e-09
7.957600899e-13
1.195960577e-09
7.935997963e-13
1.204179085e-09
7.875780705e-13
1.211094653e-09
7.776501035e-13
1.216774988e-09
7.638629112e-13
1.221284889e-09
7.462343974e-13
1.224686437e-09
7.247976072e-13
1.227039096e-09
6.996321017e-13
1.228399596e-09
6.707570917e-13
1.228822335e-09
6.383078967e-13
1.228359207e-09
6.023619226e-13
1.227060019e-09
5.629188437e-13
1.224972271e-09
5.201469945e-13
1.222141304e-09
4.740944039e-13
1.218610561e-09
4.249012584e-13
1.214421444e-09
3.726718538e-13
1.20961363e-09
3.174162944e-13
1.204224932e-09
2.593102907e-13
1.198291429e-09
1.983694381e-13
1.191847625e-09
1.347875346e-13
1.184926396e-09
6.866362621e-14
1.177559162e-09
1.169775913e-09
3.202093537e-15
4.565730735e-11
1.253136328e-14
1.335999025e-10
2.752802999e-14
2.16640432e-10
4.768662106e-14
2.94982104e-10
7.2466775e-14
3.688213495e-10
1.013086426e-13
4.383479933e-10
1.336288142e-13
5.037452681e-10
1.688426415e-13
5.651901111e-10
2.063995503e-13
6.228531578e-10
2.457290927e-13
6.768990076e-10
2.862894687e-13
7.274863376e-10
3.27582737e-13
7.747680012e-10
3.690672403e-13
8.188912612e-10
4.103092475e-13
8.599978503e-10
4.508391586e-13
8.982242304e-10
4.902963158e-13
9.337016044e-10
5.282586504e-13
9.665562461e-10
5.64398194e-13
9.969094652e-10
5.983800603e-13
1.024877902e-09
6.299548705e-13
1.050573536e-09
6.588419846e-13
1.074103978e-09
6.848164407e-13
1.09557257e-09
7.076942711e-13
1.115078415e-09
7.273047658e-13
1.132716638e-09
7.435078235e-13
1.148578468e-09
7.562006064e-13
1.162751421e-09
7.652927906e-13
1.175319435e-09
7.706813297e-13
1.186362934e-09
7.723595743e-13
1.195958899e-09
7.702870788e-13
1.204181157e-09
7.644455924e-13
1.211100494e-09
7.54845649e-13
1.216784588e-09
7.414662797e-13
1.221298268e-09
7.243711857e-13
1.224703532e-09
7.036107016e-13
1.227059856e-09
6.791818173e-13
1.228424025e-09
6.512142083e-13
1.228850303e-09
6.197254995e-13
1.228390696e-09
5.84816544e-13
1.227094928e-09
5.465859766e-13
1.225010502e-09
5.050620185e-13
1.222182828e-09
4.604078996e-13
1.218655215e-09
4.126678909e-13
1.214469184e-09
3.619325177e-13
1.209664365e-09
3.083334698e-13
1.204278531e-09
2.518707434e-13
1.198347891e-09
1.927424157e-13
1.191906753e-09
1.309558499e-13
1.184988182e-09
6.668838308e-14
1.17762343e-09
1.169842601e-09
3.106592846e-15
4.565420076e-11
1.216013126e-14
1.33590849e-10
2.67151638e-14
2.166258769e-10
4.628210755e-14
2.94962537e-10
7.031714449e-14
3.687973144e-10
9.829250341e-14
4.38320018e-10
1.296514803e-13
5.037139092e-10
1.638396577e-13
5.651559229e-10
2.00277024e-13
6.228167204e-10
2.384521585e-13
6.768608325e-10
2.77843163e-13
7.274469466e-10
3.179046052e-13
7.747279398e-10
3.581839355e-13
8.188509819e-10
3.982058898e-13
8.599578283e-10
4.375800011e-13
8.981848563e-10
4.758740588e-13
9.336633104e-10
5.127320739e-13
9.66519388e-10
5.47805592e-13
9.968743916e-10
5.808138682e-13
1.024844894e-09
6.114639787e-13
1.050542886e-09
6.395132107e-13
1.074075929e-09
6.647355776e-13
1.095547348e-09
6.869546637e-13
1.115056196e-09
7.05998084e-13
1.132697594e-09
7.217489247e-13
1.148562718e-09
7.340831486e-13
1.162739087e-09
7.429054031e-13
1.175310612e-09
7.481714249e-13
1.186357668e-09
7.498235432e-13
1.195957246e-09
7.478399135e-13
1.204183141e-09
7.422101678e-13
1.211106124e-09
7.328928571e-13
1.216793905e-09
7.199465885e-13
1.221311214e-09
7.033443648e-13
1.224720135e-09
6.831853106e-13
1.227080015e-09
6.595306081e-13
1.22844768e-09
6.323814136e-13
1.228877452e-09
6.018528583e-13
1.228421224e-09
5.679819336e-13
1.227128799e-09
5.308574575e-13
1.225047626e-09
4.9061102e-13
1.222223074e-09
4.472344097e-13
1.218698592e-09
4.008975419e-13
1.214515521e-09
3.516436672e-13
1.209713619e-09
2.995491958e-13
1.204330626e-09
2.447685945e-13
1.198402672e-09
1.872970393e-13
1.191964225e-09
1.273283235e-13
1.185048151e-09
6.483084147e-14
1.177685927e-09
1.169907432e-09
3.014205174e-15
4.565118655e-11
1.179926336e-14
1.335820639e-10
2.592250994e-14
2.166117537e-10
4.490708126e-14
2.949435524e-10
6.824390958e-14
3.687739776e-10
9.540773207e-14
4.382928541e-10
1.258409329e-13
5.03683476e-10
1.590226779e-13
5.651227412e-10
1.944161651e-13
6.227813269e-10
2.314744385e-13
6.768237742e-10
2.69702159e-13
7.274087188e-10
3.086071257e-13
7.746890348e-10
3.477115623e-13
8.188118774e-10
3.865983285e-13
8.599189415e-10
4.248259286e-13
8.981466287e-10
4.620133897e-13
9.336261229e-10
4.977996236e-13
9.664836018e-10
5.318738961e-13
9.968403174e-10
5.639310528e-13
1.024812836e-09
5.93698642e-13
1.050513118e-09
6.209359323e-13
1.074048692e-09
6.454465797e-13
1.095522837e-09
6.670265702e-13
1.115034616e-09
6.855440555e-13
1.132679077e-09
7.008499472e-13
1.148547412e-09
7.128401867e-13
1.162727096e-09
7.214415707e-13
1.175302011e-09
7.265788965e-13
1.186352531e-09
7.282283563e-13
1.195955597e-09
7.262995068e-13
1.20418507e-09
7.208358896e-13
1.211111588e-09
7.11839874e-13
1.216802901e-09
6.992590759e-13
1.221323795e-09
6.831886628e-13
1.224736205e-09
6.636316265e-13
1.227099573e-09
6.406632025e-13
1.228470648e-09
6.143610504e-13
1.228903754e-09
5.846870483e-13
1.228450898e-09
5.518174264e-13
1.227161669e-09
5.158167744e-13
1.225083627e-09
4.767086499e-13
1.222262182e-09
4.346435993e-13
1.218740657e-09
3.895962018e-13
1.214560568e-09
3.417525161e-13
1.209761463e-09
2.911511177e-13
1.204381227e-09
2.378862966e-13
1.198455937e-09
1.821069383e-13
1.192020004e-09
1.237730977e-13
1.185106485e-09
6.308080889e-14
1.17774662e-09
1.169970513e-09
2.927269086e-15
4.564825929e-11
1.145833599e-14
1.335735328e-10
2.5173296e-14
2.165980387e-10
4.361021069e-14
2.949251155e-10
6.62654369e-14
3.687513224e-10
9.263685054e-14
4.382664827e-10
1.222008877e-13
5.036539119e-10
1.5443552e-13
5.650905065e-10
1.888003702e-13
6.227469621e-10
2.247959764e-13
6.767877786e-10
2.619231115e-13
7.273715917e-10
2.997104165e-13
7.746512475e-10
3.377135876e-13
8.187738743e-10
3.754830186e-13
8.598811721e-10
4.126160462e-13
8.981094957e-10
4.487400864e-13
9.335899988e-10
4.835161175e-13
9.664488258e-10
5.166269195e-13
9.968072066e-10
5.477717441e-13
1.024781692e-09
5.76696275e-13
1.050484194e-09
6.03161857e-13
1.074022226e-09
6.26976068e-13
1.095499023e-09
6.479704744e-13
1.115013621e-09
6.659718394e-13
1.132661075e-09
6.80869149e-13
1.148532514e-09
6.925136298e-13
1.162715452e-09
7.008937581e-13
1.175293631e-09
7.059445879e-13
1.18634748e-09
7.075424704e-13
1.195953999e-09
7.057226106e-13
1.20418689e-09
7.004209554e-13
1.211116889e-09
6.91672152e-13
1.21681165e-09
6.795111274e-13
1.221335956e-09
6.638862035e-13
1.22475183e-09
6.449288238e-13
1.22711853e-09
6.226678408e-13
1.228492909e-09
5.970850914e-13
1.228929337e-09
5.683255476e-13
1.228479658e-09
5.363732774e-13
1.227193621e-09
5.013964912e-13
1.225118603e-09
4.634488694e-13
1.22230013e-09
4.225342929e-13
1.218781572e-09
3.788195683e-13
1.214604283e-09
3.322717463e-13
1.209808011e-09
2.831005542e-13
1.204430398e-09
2.31323709e-13
1.198507714e-09
1.770430888e-13
1.192074285e-09
1.203795103e-13
1.185163149e-09
6.129683743e-14
1.177805702e-09
1.170031809e-09
2.843315016e-15
4.564541597e-11
1.113029195e-14
1.335652459e-10
2.445313416e-14
2.165847159e-10
4.236272798e-14
2.949072059e-10
6.438040674e-14
3.687293047e-10
9.001016998e-14
4.38240853e-10
1.187345152e-13
5.036251876e-10
1.500476711e-13
5.650591934e-10
1.834421931e-13
6.227135675e-10
2.184176964e-13
6.767528031e-10
2.545048467e-13
7.273355045e-10
2.912417912e-13
7.746145106e-10
3.281722688e-13
8.187369438e-10
3.648754851e-13
8.598444689e-10
4.009687667e-13
8.980734024e-10
4.360868282e-13
9.335548808e-10
4.699007274e-13
9.664150119e-10
5.020830194e-13
9.967750243e-10
5.323658151e-13
1.024751409e-09
5.604797919e-13
1.05045608e-09
5.862204719e-13
1.073996485e-09
6.093913319e-13
1.095475852e-09
6.29807149e-13
1.114993206e-09
6.473418703e-13
1.132643541e-09
6.618117721e-13
1.148518045e-09
6.731886813e-13
1.162704075e-09
6.813586128e-13
1.175285461e-09
6.862604761e-13
1.186342578e-09
6.878720137e-13
1.195952388e-09
6.860948152e-13
1.204188667e-09
6.809829124e-13
1.211122001e-09
6.725146928e-13
1.216820118e-09
6.606794046e-13
1.221347791e-09
6.455682054e-13
1.224766941e-09
6.271331275e-13
1.227136965e-09
6.054892475e-13
1.228514553e-09
5.806803916e-13
1.228954146e-09
5.527075594e-13
1.22850763e-09
5.21729213e-13
1.227224599e-09
4.876991441e-13
1.225152634e-09
4.507947707e-13
1.222337034e-09
4.110592313e-13
1.218821307e-09
3.6850913e-13
1.214646833e-09
3.233234975e-13
1.209853197e-09
2.754657641e-13
1.204478256e-09
2.251408885e-13
1.198558038e-09
1.723158285e-13
1.19212711e-09
1.171457357e-13
1.185218319e-09
5.97013176e-14
1.177863147e-09
1.170091511e-09
2.764669296e-15
4.56426513e-11
1.08221304e-14
1.335571884e-10
2.377613789e-14
2.165717619e-10
4.119075394e-14
2.948897913e-10
6.259639278e-14
3.68707899e-10
8.751072064e-14
4.382159386e-10
1.154388624e-13
5.035972594e-10
1.458831305e-13
5.650287491e-10
1.783558379e-13
6.226810948e-10
2.123765283e-13
6.767187824e-10
2.47481395e-13
7.273003997e-10
2.832031991e-13
7.745787888e-10
3.191106046e-13
8.187010364e-10
3.548124604e-13
8.59808767e-10
3.89919618e-13
8.980382953e-10
4.240919942e-13
9.335207084e-10
4.569773309e-13
9.663821265e-10
4.8829455e-13
9.967437071e-10
5.17745783e-13
1.024721958e-09
5.451157068e-13
1.05042871e-09
5.701467722e-13
1.073971454e-09
5.926975479e-13
1.095453301e-09
6.126024423e-13
1.114973301e-09
6.29643122e-13
1.1326265e-09
6.43774344e-13
1.148503913e-09
6.548501567e-13
1.162692999e-09
6.628319388e-13
1.175277479e-09
6.676360744e-13
1.186337774e-09
6.69195613e-13
1.195950828e-09
6.675311407e-13
1.204190331e-09
6.625415958e-13
1.211126991e-09
6.543181238e-13
1.216828342e-09
6.428660709e-13
1.221359243e-09
6.281592289e-13
1.224781648e-09
6.103007115e-13
1.227154823e-09
5.89212439e-13
1.228535641e-09
5.65074938e-13
1.228978283e-09
5.379397146e-13
1.228534766e-09
5.077764163e-13
1.227254763e-09
4.747508805e-13
1.225185659e-09
4.388029001e-13
1.222372982e-09
4.001277615e-13
1.218859982e-09
3.587543405e-13
1.214688206e-09
3.147415475e-13
1.209897209e-09
2.68251864e-13
1.204524746e-09
2.192167416e-13
1.198607074e-09
1.678462619e-13
1.19217848e-09
1.140837472e-13
1.185272081e-09
5.813945693e-14
1.177919091e-09
1.17014965e-09
2.690154544e-15
4.563996115e-11
1.053034516e-14
1.335493482e-10
2.313439251e-14
2.165591578e-10
4.007694162e-14
2.948728488e-10
6.090508227e-14
3.686870709e-10
8.514635521e-14
4.381916974e-10
1.12324928e-13
5.035700809e-10
1.41956893e-13
5.649991171e-10
1.735648938e-13
6.226494868e-10
2.066851738e-13
6.766856621e-10
2.408437294e-13
7.272662411e-10
2.756014993e-13
7.74544031e-10
3.105609583e-13
8.186660769e-10
3.453119681e-13
8.59774016e-10
3.795041246e-13
8.980041031e-10
4.127625423e-13
9.3348745e-10
4.447935063e-13
9.663500956e-10
4.75272426e-13
9.967132281e-10
5.039721312e-13
1.024693258e-09
5.306071044e-13
1.050402075e-09
5.550202053e-13
1.073947041e-09
5.7697158e-13
1.09543135e-09
5.963322443e-13
1.11495394e-09
6.129777719e-13
1.132609854e-09
6.267451512e-13
1.148490146e-09
6.375917477e-13
1.162682153e-09
6.453486476e-13
1.175269722e-09
6.500420765e-13
1.186333081e-09
6.516183365e-13
1.195949252e-09
6.499782711e-13
1.204191971e-09
6.451941903e-13
1.211131775e-09
6.37166388e-13
1.216836369e-09
6.260247342e-13
1.221370385e-09
6.117817921e-13
1.224795891e-09
5.943579581e-13
1.227172247e-09
5.739120128e-13
1.228556087e-09
5.503866365e-13
1.229001809e-09
5.239542844e-13
1.228561198e-09
4.946479405e-13
1.227284069e-09
4.624463036e-13
1.225217861e-09
4.275203202e-13
1.222407908e-09
3.898045237e-13
1.218897698e-09
3.495189219e-13
1.214728492e-09
3.06662796e-13
1.209940065e-09
2.613259983e-13
1.204570082e-09
2.136279289e-13
1.198654772e-09
1.635197743e-13
1.192228588e-09
1.11214502e-13
1.185324386e-09
5.663175412e-14
1.177973674e-09
1.170206282e-09
2.619903202e-15
4.563734124e-11
1.025545308e-14
1.335417127e-10
2.253034815e-14
2.165468829e-10
3.902962678e-14
2.948563495e-10
5.931891865e-14
3.686667816e-10
8.293563738e-14
4.381680806e-10
1.094134276e-13
5.035436031e-10
1.382814496e-13
5.649702491e-10
1.690800542e-13
6.226186882e-10
2.013369588e-13
6.766534052e-10
2.346036406e-13
7.272329744e-10
2.684798683e-13
7.745101548e-10
3.025379655e-13
8.186320188e-10
3.364181701e-13
8.597401358e-10
3.697253132e-13
8.97970796e-10
4.021535952e-13
9.334550217e-10
4.333537185e-13
9.663188955e-10
4.630862771e-13
9.966834956e-10
4.910393243e-13
1.024665305e-09
5.170394662e-13
1.050376075e-09
5.408240275e-13
1.073923257e-09
5.622542828e-13
1.09540992e-09
5.811114678e-13
1.114935083e-09
5.973404325e-13
1.132593625e-09
6.108317323e-13
1.148476655e-09
6.213846366e-13
1.1626716e-09
6.290153171e-13
1.175262092e-09
6.335712192e-13
1.186328525e-09
6.350991305e-13
1.195947724e-09
6.335710617e-13
1.2041935e-09
6.288843836e-13
1.211136461e-09
6.211498939e-13
1.216844104e-09
6.102733267e-13
1.221381262e-09
5.963689055e-13
1.224809795e-09
5.794556147e-13
1.227189161e-09
5.595035902e-13
1.228576039e-09
5.366700784e-13
1.229024642e-09
5.10872327e-13
1.228586996e-09
4.822942612e-13
1.227312647e-09
4.509487978e-13
1.225249206e-09
4.168530631e-13
1.222442004e-09
3.801790987e-13
1.218934372e-09
3.408606149e-13
1.21476781e-09
2.991146856e-13
1.209981811e-09
2.548834451e-13
1.204614314e-09
2.083303075e-13
1.198701325e-09
1.595075167e-13
1.192277411e-09
1.084383603e-13
1.185375456e-09
5.529534201e-14
1.178026817e-09
1.170261577e-09
2.554920708e-15
4.563478632e-11
1.00008531e-14
1.335342667e-10
2.197136194e-14
2.165349124e-10
3.806331886e-14
2.948402575e-10
5.784849611e-14
3.686469964e-10
8.08786571e-14
4.381450505e-10
1.067093753e-13
5.035177724e-10
1.348646784e-13
5.649420938e-10
1.64889571e-13
6.225886633e-10
1.963583313e-13
6.766219365e-10
2.28817826e-13
7.272005149e-10
2.618535227e-13
7.744771191e-10
2.950965176e-13
8.185987758e-10
3.281337474e-13
8.597070986e-10
3.606479088e-13
8.979382818e-10
3.922670928e-13
9.334234025e-10
4.227393943e-13
9.662884232e-10
4.517280715e-13
9.966545069e-10
4.790436845e-13
1.024637989e-09
5.044014591e-13
1.050350717e-09
5.276526896e-13
1.073900005e-09
5.48538448e-13
1.095389034e-09
5.670009451e-13
1.11491662e-09
5.828459576e-13
1.13257778e-09
5.959874097e-13
1.148463513e-09
6.063569114e-13
1.16266123e-09
6.137820583e-13
1.175254667e-09
6.183007444e-13
1.186324006e-09
6.19763839e-13
1.195946261e-09
6.1825547e-13
1.204195008e-09
6.137572751e-13
1.21114096e-09
6.061908358e-13
1.21685167e-09
5.956614062e-13
1.221391791e-09
5.820498825e-13
1.224823407e-09
5.655372778e-13
1.227205673e-09
5.46136699e-13
1.22859544e-09
5.238191715e-13
1.22904696e-09
4.987380231e-13
1.228612077e-09
4.707992328e-13
1.227340586e-09
4.402059786e-13
1.225279799e-09
4.069477688e-13
1.222475262e-09
3.711073531e-13
1.218970212e-09
3.328326732e-13
1.214806085e-09
2.920283013e-13
1.210022616e-09
2.489175182e-13
1.204657424e-09
2.034187613e-13
1.198746823e-09
1.557574379e-13
1.192325072e-09
1.058924541e-13
1.185425321e-09
5.395937945e-14
1.17807875e-09
1.170315537e-09
2.494636127e-15
4.563229169e-11
9.765412058e-15
1.33526996e-10
2.145453888e-14
2.165232233e-10
3.716781289e-14
2.948245443e-10
5.649713839e-14
3.686276671e-10
7.899326167e-14
4.381225544e-10
1.042113696e-13
5.034925542e-10
1.316987096e-13
5.649146065e-10
1.610372309e-13
6.225593248e-10
1.91768075e-13
6.765912056e-10
2.234668772e-13
7.271688161e-10
2.55759343e-13
7.744448266e-10
2.882181776e-13
8.18566317e-10
3.205154563e-13
8.596748013e-10
3.522588742e-13
8.979065384e-10
3.831842266e-13
9.333924772e-10
4.129305369e-13
9.662586768e-10
4.412944551e-13
9.96626143e-10
4.679680888e-13
1.024611316e-09
4.9279371e-13
1.050325892e-09
5.154814967e-13
1.073877318e-09
5.359547691e-13
1.095368561e-09
5.539863375e-13
1.114898589e-09
5.695151547e-13
1.132562252e-09
5.823478117e-13
1.148450681e-09
5.924570603e-13
1.162651121e-09
5.997900714e-13
1.175247334e-09
6.041725586e-13
1.186319624e-09
6.05682506e-13
1.195944751e-09
6.041735504e-13
1.204196517e-09
5.997699643e-13
1.211145363e-09
5.92446007e-13
1.216858994e-09
5.82108601e-13
1.221402129e-09
5.689020777e-13
1.224836613e-09
5.527303659e-13
1.227221845e-09
5.337689873e-13
1.228614401e-09
5.1200346e-13
1.229068725e-09
4.874419587e-13
1.228636638e-09
4.602317499e-13
1.227367796e-09
4.302754704e-13
1.225309756e-09
3.978021272e-13
1.222507735e-09
3.627661246e-13
1.219005248e-09
3.253045716e-13
1.214843547e-09
2.854776618e-13
1.210062443e-09
2.432811888e-13
1.204699621e-09
1.98908841e-13
1.198791196e-09
1.522563206e-13
1.192371725e-09
1.035704784e-13
1.185474006e-09
5.274186038e-14
1.178129579e-09
1.170368278e-09
2.441010257e-15
4.562985068e-11
9.554597962e-15
1.335198824e-10
2.099034927e-14
2.165117875e-10
3.636258578e-14
2.94809172e-10
5.526149458e-14
3.686087682e-10
7.725658965e-14
4.381005593e-10
1.019308623e-13
5.0346788e-10
1.288318627e-13
5.648877055e-10
1.57524461e-13
6.225306322e-10
1.87586846e-13
6.765611432e-10
2.186205625e-13
7.271377824e-10
2.501983973e-13
7.744132488e-10
2.819825134e-13
8.185345329e-10
3.135628912e-13
8.596432209e-10
3.446562616e-13
8.97875445e-10
3.748941452e-13
9.333622393e-10
4.040231306e-13
9.662295479e-10
4.317663913e-13
9.965983997e-10
4.579080297e-13
1.024585174e-09
4.821694118e-13
1.05030163e-09
5.044357127e-13
1.073855051e-09
5.244614015e-13
1.095348535e-09
5.421793908e-13
1.114880871e-09
5.573454154e-13
1.132547086e-09
5.699607875e-13
1.148438065e-09
5.79838422e-13
1.162641243e-09
5.869790476e-13
1.175240193e-09
5.91345538e-13
1.186315257e-09
5.927831398e-13
1.195943313e-09
5.913987558e-13
1.204197901e-09
5.870545351e-13
1.211149707e-09
5.798623657e-13
1.216866186e-09
5.697894477e-13
1.221412201e-09
5.568230709e-13
1.22484958e-09
5.410949927e-13
1.227237573e-09
5.224873963e-13
1.228633009e-09
5.011894565e-13
1.229090023e-09
4.771571346e-13
1.228660671e-09
4.504622219e-13
1.227394491e-09
4.212393452e-13
1.225338979e-09
3.893977917e-13
1.222539577e-09
3.551677094e-13
1.219039478e-09
3.184389758e-13
1.214880275e-09
2.794393794e-13
1.210101442e-09
2.381470888e-13
1.204740913e-09
1.946504253e-13
1.198834693e-09
1.490524834e-13
1.192417323e-09
1.013354095e-13
1.185521723e-09
5.168661159e-14
1.178179227e-09
1.170419965e-09
2.391077095e-15
4.56274596e-11
9.360139083e-15
1.335129133e-10
2.05635054e-14
2.165005842e-10
3.562164676e-14
2.947941139e-10
5.414483996e-14
3.68590245e-10
7.571029938e-14
4.380789938e-10
9.988521482e-14
5.034437051e-10
1.262398391e-13
5.648613509e-10
1.543821313e-13
6.225024899e-10
1.838564151e-13
6.765316689e-10
2.142568677e-13
7.27107382e-10
2.452368846e-13
7.743822688e-10
2.763723757e-13
8.185033974e-10
3.073534803e-13
8.596122398e-10
3.378211859e-13
8.978449773e-10
3.674595102e-13
9.33332601e-10
3.960350138e-13
9.662009724e-10
4.23232532e-13
9.965712022e-10
4.488551111e-13
1.024559551e-09
4.726557504e-13
1.05027783e-09
4.944787282e-13
1.073833228e-09
5.141806445e-13
1.095328833e-09
5.315181363e-13
1.114863533e-09
5.464658059e-13
1.132532138e-09
5.58799922e-13
1.148425731e-09
5.685449771e-13
1.162631498e-09
5.755126765e-13
1.175233225e-09
5.797594589e-13
1.186311011e-09
5.812320739e-13
1.195941841e-09
5.798380908e-13
1.204199295e-09
5.756654716e-13
1.21115388e-09
5.685533095e-13
1.216873299e-09
5.586788931e-13
1.221422076e-09
5.459951869e-13
1.224862264e-09
5.305214246e-13
1.227253047e-09
5.12374271e-13
1.228651156e-09
4.914267038e-13
1.229110971e-09
4.67889527e-13
1.228684208e-09
4.416863167e-13
1.227420694e-09
4.129777151e-13
1.225367687e-09
3.818190502e-13
1.222570736e-09
3.481912449e-13
1.219073106e-09
3.122787608e-13
1.214916188e-09
2.739774263e-13
1.210139744e-09
2.335306669e-13
1.20478136e-09
1.908411276e-13
1.198877382e-09
1.461281483e-13
1.192462036e-09
9.935284674e-14
1.185568499e-09
5.062513029e-14
1.178227955e-09
1.17047059e-09
2.347809449e-15
4.562511179e-11
9.192644881e-15
1.335060685e-10
2.019671319e-14
2.164895801e-10
3.498932778e-14
2.947793213e-10
5.317632154e-14
3.68572058e-10
7.43481528e-14
4.38057822e-10
9.807982915e-14
5.034199734e-10
1.239856809e-13
5.64835445e-10
1.516121538e-13
6.224748635e-10
1.805455936e-13
6.765027355e-10
2.104340815e-13
7.270774935e-10
2.40843103e-13
7.743518597e-10
2.714442589e-13
8.184727962e-10
3.018743236e-13
8.595818098e-10
3.317793188e-13
8.978150723e-10
3.609382116e-13
9.333034421e-10
3.889894613e-13
9.661729211e-10
4.157485425e-13
9.965444431e-10
4.408886858e-13
1.024534411e-09
4.643148957e-13
1.050254403e-09
4.857510494e-13
1.073811792e-09
5.050895032e-13
1.095309494e-09
5.221559229e-13
1.114846467e-09
5.368043097e-13
1.13251749e-09
5.49001792e-13
1.148413534e-09
5.585270807e-13
1.162621973e-09
5.654461159e-13
1.175226306e-09
5.695663384e-13
1.18630689e-09
5.710019261e-13
1.195940405e-09
5.696709642e-13
1.204200626e-09
5.65504496e-13
1.211158046e-09
5.586089372e-13
1.216880194e-09
5.488515598e-13
1.221431833e-09
5.364093072e-13
1.224874706e-09
5.211973003e-13
1.227268259e-09
5.033001331e-13
1.228669053e-09
4.827948055e-13
1.229131476e-09
4.595949673e-13
1.228707408e-09
4.339173902e-13
1.227446372e-09
4.056488295e-13
1.225395956e-09
3.750240349e-13
1.22260136e-09
3.419911873e-13
1.219106139e-09
3.066451485e-13
1.214951534e-09
2.690922437e-13
1.210177296e-09
2.292906732e-13
1.204821161e-09
1.874615075e-13
1.198919211e-09
1.434798609e-13
1.192506017e-09
9.759466533e-14
1.185614384e-09
4.968129396e-14
1.178275868e-09
1.170520272e-09
2.310891151e-15
4.56228009e-11
9.045834196e-15
1.334993335e-10
1.987415776e-14
2.164787518e-10
3.443073644e-14
2.947647647e-10
5.232360719e-14
3.685541651e-10
7.317897018e-14
4.380369666e-10
9.655551294e-14
5.033965968e-10
1.220419716e-13
5.648099585e-10
1.49222023e-13
6.224476834e-10
1.777308452e-13
6.764742267e-10
2.071316329e-13
7.270480927e-10
2.370847091e-13
7.743219067e-10
2.672094891e-13
8.184426715e-10
2.971381904e-13
8.595518811e-10
3.266320329e-13
8.977855785e-10
3.553120374e-13
9.332747621e-10
3.829793262e-13
9.661452538e-10
4.092822762e-13
9.965181402e-10
4.341040489e-13
1.024509589e-09
4.571415747e-13
1.050231366e-09
4.783022189e-13
1.073790631e-09
4.972986385e-13
1.095290498e-09
5.141127511e-13
1.114829653e-09
5.28534411e-13
1.132503068e-09
5.40492318e-13
1.148401576e-09
5.499370221e-13
1.162612528e-09
5.566896312e-13
1.175219554e-09
5.608345739e-13
1.186302745e-09
5.621923507e-13
1.195939047e-09
5.608699858e-13
1.204201949e-09
5.5676104e-13
1.211162155e-09
5.499077515e-13
1.216887047e-09
5.403934825e-13
1.221441348e-09
5.280700922e-13
1.224887029e-09
5.131305162e-13
1.227283198e-09
4.954498667e-13
1.228686734e-09
4.752018162e-13
1.229151724e-09
4.523895787e-13
1.22873022e-09
4.270339132e-13
1.227471727e-09
3.993090557e-13
1.225423681e-09
3.690798947e-13
1.22263159e-09
3.365927848e-13
1.219138626e-09
3.01750122e-13
1.214986377e-09
2.647597989e-13
1.210214287e-09
2.25600595e-13
1.204860321e-09
1.843740703e-13
1.198960438e-09
1.411559497e-13
1.192549236e-09
9.594695487e-14
1.185659593e-09
4.891488366e-14
1.1783229e-09
1.170569186e-09
2.279011567e-15
4.562052189e-11
8.920795762e-15
1.334926918e-10
1.960640647e-14
2.164680662e-10
3.397891606e-14
2.947503922e-10
5.164691215e-14
3.685364971e-10
7.22132059e-14
4.380164003e-10
9.52670863e-14
5.03373543e-10
1.204284458e-13
5.647847972e-10
1.472676497e-13
6.224208442e-10
1.753779293e-13
6.764461164e-10
2.044147046e-13
7.270190559e-10
2.339691519e-13
7.742923522e-10
2.636676888e-13
8.184129729e-10
2.932544458e-13
8.595222943e-10
3.223324961e-13
8.977565004e-10
3.506881638e-13
9.332464064e-10
3.779443899e-13
9.661179976e-10
4.039653286e-13
9.964921192e-10
4.284281265e-13
1.024485127e-09
4.512319399e-13
1.050208562e-09
4.720604509e-13
1.073769803e-09
4.908804865e-13
1.095271678e-09
5.074190572e-13
1.114813114e-09
5.216817044e-13
1.132488805e-09
5.334398988e-13
1.148389817e-09
5.427183732e-13
1.16260325e-09
5.494131838e-13
1.175212859e-09
5.53444381e-13
1.186298714e-09
5.548669981e-13
1.195937625e-09
5.534770061e-13
1.204203339e-09
5.494448533e-13
1.211166188e-09
5.426451638e-13
1.216893847e-09
5.331830888e-13
1.22145081e-09
5.210671968e-13
1.224899145e-09
5.062350339e-13
1.227298031e-09
4.888551927e-13
1.228704113e-09
4.687831275e-13
1.229171796e-09
4.462632955e-13
1.22875274e-09
4.212266892e-13
1.227496764e-09
3.937895004e-13
1.225451118e-09
3.6401272e-13
1.222661366e-09
3.318810385e-13
1.219170758e-09
2.976009815e-13
1.215020657e-09
2.610354471e-13
1.210250852e-09
2.224602798e-13
1.204898896e-09
1.817470063e-13
1.199001151e-09
1.39135668e-13
1.192591847e-09
9.455623348e-14
1.185704172e-09
4.817991557e-14
1.178369277e-09
1.170617366e-09
2.25682314e-15
4.561826506e-11
8.833280603e-15
1.334861153e-10
1.940653123e-14
2.164574929e-10
3.362118986e-14
2.947361775e-10
5.109669366e-14
3.685190216e-10
7.143796612e-14
4.37996059e-10
9.427197825e-14
5.033507089e-10
1.191589074e-13
5.647599103e-10
1.456966723e-13
6.223943064e-10
1.735474486e-13
6.764182656e-10
2.022661221e-13
7.269903373e-10
2.314805844e-13
7.742631378e-10
2.609182374e-13
8.183835353e-10
2.901645814e-13
8.59493048e-10
3.189933035e-13
8.977276717e-10
3.470041311e-13
9.332183956e-10
3.740093025e-13
9.660909924e-10
3.997276377e-13
9.964664009e-10
4.239746951e-13
1.02446088e-09
4.46484846e-13
1.050186052e-09
4.671467068e-13
1.073749141e-09
4.857085965e-13
1.095253116e-09
5.021438116e-13
1.114796679e-09
5.161832634e-13
1.132474766e-09
5.278753334e-13
1.148378125e-09
5.369806871e-13
1.162594144e-09
5.435973707e-13
1.175206242e-09
5.475733833e-13
1.186294738e-09
5.488902312e-13
1.195936308e-09
5.47572985e-13
1.204204656e-09