/*--------------------------------*- C++ -*----------------------------------*\
  =========                 |
  \\      /  F ield         | OpenFOAM: The Open Source CFD Toolbox
   \\    /   O peration     | Website:  https://openfoam.org
    \\  /    A nd           | Version:  7
     \\/     M anipulation  |
\*---------------------------------------------------------------------------*/
FoamFile
{
    version     2.0;
    format      ascii;
    class       volVectorField;
    location    "0.0024";
    object      U;
}
// * * * * * * * * * * * * * * * * * * * * * * * * * * * * * * * * * * * * * //

dimensions      [0 1 -1 0 0 0 0];

internalField   nonuniform List<vector> 
1166
(
(2.047546021e-08 2.008952707e-19 -0.002139776169)
(5.339676507e-08 9.270554156e-20 -0.002139778233)
(2.016677687e-08 -1.418673429e-19 -0.002140569109)
(5.259073404e-08 -3.226440349e-20 -0.002140571196)
(8.284157926e-08 3.529912367e-20 -0.002140575782)
(1.133871766e-07 3.897408425e-20 -0.002140582598)
(1.429411956e-07 2.003777058e-19 -0.002140591506)
(1.711335067e-07 1.647419349e-19 -0.002140602425)
(1.978189803e-07 1.458145629e-19 -0.002140615271)
(2.229340329e-07 1.559090683e-19 -0.00214062997)
(2.464321467e-07 1.859085929e-19 -0.00214064645)
(2.682272738e-07 2.369212652e-19 -0.002140664658)
(2.882754708e-07 2.486727256e-19 -0.002140684535)
(3.065521268e-07 2.840639138e-19 -0.002140706025)
(3.230451358e-07 2.884465939e-19 -0.00214072907)
(3.377605425e-07 3.077043942e-19 -0.002140753615)
(3.507026486e-07 3.408280352e-19 -0.002140779612)
(3.61883834e-07 3.884853166e-19 -0.002140807007)
(3.71323091e-07 3.68405122e-19 -0.002140835746)
(3.790467528e-07 3.6337453e-19 -0.002140865771)
(3.850976e-07 3.577308906e-19 -0.002140897026)
(3.895157645e-07 3.583843394e-19 -0.002140929449)
(3.92335392e-07 3.335093503e-19 -0.002140962968)
(3.935995175e-07 3.072341615e-19 -0.00214099751)
(3.933513082e-07 2.781743408e-19 -0.002141032994)
(3.916538832e-07 2.923343962e-19 -0.002141069337)
(3.885588396e-07 3.011890402e-19 -0.002141106445)
(3.841192849e-07 3.073054179e-19 -0.002141144218)
(3.783890052e-07 3.117608284e-19 -0.002141182548)
(3.714197929e-07 3.151817547e-19 -0.002141221319)
(3.632774098e-07 3.198554561e-19 -0.002141260405)
(3.540141987e-07 3.101745316e-19 -0.002141299675)
(3.43681819e-07 3.022461098e-19 -0.002141338984)
(3.323456698e-07 2.97359617e-19 -0.002141378184)
(3.200608653e-07 3.049841024e-19 -0.002141417118)
(3.068752181e-07 3.162995111e-19 -0.002141455615)
(2.928384596e-07 3.224438725e-19 -0.002141493502)
(2.780005928e-07 3.314791322e-19 -0.002141530595)
(2.624096352e-07 3.252471108e-19 -0.002141566705)
(2.461142985e-07 3.135520605e-19 -0.002141601635)
(2.29167208e-07 3.012503633e-19 -0.002141635184)
(2.116121891e-07 2.943152056e-19 -0.002141667145)
(1.934888919e-07 2.921679259e-19 -0.002141697305)
(1.748407801e-07 2.880226167e-19 -0.002141725447)
(1.557046565e-07 2.813662132e-19 -0.002141751352)
(1.361202246e-07 2.772850616e-19 -0.0021417748)
(1.161228847e-07 2.753899524e-19 -0.002141795567)
(9.574258422e-08 2.73287759e-19 -0.002141813429)
(7.500712581e-08 2.679281883e-19 -0.002141828159)
(5.393825481e-08 2.634729515e-19 -0.002141839534)
(3.26632129e-08 2.650761229e-19 -0.002141847333)
(1.153385724e-08 2.666301715e-19 -0.00214185133)
(1.988347515e-08 -2.825626883e-19 -0.002141344817)
(5.184740679e-08 9.960615439e-21 -0.00214134692)
(8.165060338e-08 2.318349721e-19 -0.002141351542)
(1.117202157e-07 4.287757345e-19 -0.002141358422)
(1.408098484e-07 5.535735919e-19 -0.002141367422)
(1.685851977e-07 2.716912468e-19 -0.002141378447)
(1.949175278e-07 1.102058489e-19 -0.002141391411)
(2.19693224e-07 9.347835266e-20 -0.002141406249)
(2.42845594e-07 8.078893714e-20 -0.002141422889)
(2.643454503e-07 6.106296889e-20 -0.002141441259)
(2.841244978e-07 1.107276037e-19 -0.002141461307)
(3.021529405e-07 1.557191732e-19 -0.002141482977)
(3.18424259e-07 2.758598798e-19 -0.002141506217)
(3.329406674e-07 3.193635873e-19 -0.002141530972)
(3.457089988e-07 3.382281992e-19 -0.002141557189)
(3.567367388e-07 3.74205133e-19 -0.002141584812)
(3.660453217e-07 4.276520422e-19 -0.002141613785)
(3.736702894e-07 4.645006022e-19 -0.002141644053)
(3.79646276e-07 4.199295914e-19 -0.002141675554)
(3.840027395e-07 3.965965783e-19 -0.002141708221)
(3.867796831e-07 3.877313218e-19 -0.002141741983)
(3.880210683e-07 3.611457949e-19 -0.002141776766)
(3.877823842e-07 3.437249189e-19 -0.002141812488)
(3.861104092e-07 3.333434914e-19 -0.002141849064)
(3.830583965e-07 3.265784768e-19 -0.002141886395)
(3.786792684e-07 3.214934853e-19 -0.002141924381)
(3.73024984e-07 3.171703371e-19 -0.002141962911)
(3.661583122e-07 3.138860602e-19 -0.002142001867)
(3.58132894e-07 3.179443434e-19 -0.002142041125)
(3.489997823e-07 3.379726903e-19 -0.002142080547)
(3.388213701e-07 3.480760761e-19 -0.002142119992)
(3.276561481e-07 3.61713125e-19 -0.002142159311)
(3.15550274e-07 3.853673081e-19 -0.002142198342)
(3.025531325e-07 3.878103547e-19 -0.002142236917)
(2.887197059e-07 3.861403208e-19 -0.00214227486)
(2.740954677e-07 3.7962439e-19 -0.002142311989)
(2.587281585e-07 3.696292355e-19 -0.002142348116)
(2.426731887e-07 3.626670052e-19 -0.002142383044)
(2.259746986e-07 3.631464843e-19 -0.002142416573)
(2.086738842e-07 3.685485626e-19 -0.002142448499)
(1.908073499e-07 3.6809571e-19 -0.002142478609)
(1.724179676e-07 3.684546762e-19 -0.002142506691)
(1.535575818e-07 3.743132917e-19 -0.002142532527)
(1.342555276e-07 3.765652499e-19 -0.0021425559)
(1.145415909e-07 3.693768429e-19 -0.00214257659)
(9.444398618e-08 3.620471684e-19 -0.002142594376)
(7.398388331e-08 3.683057043e-19 -0.002142609037)
(5.320178835e-08 3.634636177e-19 -0.002142620353)
(3.22159445e-08 3.601432404e-19 -0.002142628106)
(1.137186964e-08 3.616803804e-19 -0.002142632078)
(1.957508706e-08 2.837769511e-19 -0.002142103923)
(5.104289298e-08 2.311280791e-19 -0.002142106042)
(8.040278049e-08 2.202786971e-19 -0.002142110696)
(1.100608133e-07 2.406956384e-19 -0.002142117629)
(1.387648382e-07 7.873354427e-20 -0.002142126712)
(1.661421778e-07 7.883441514e-20 -0.002142137841)
(1.920775475e-07 6.655910493e-20 -0.00214215093)
(2.165106378e-07 6.198121989e-20 -0.0021421659)
(2.393436593e-07 3.538127158e-20 -0.002142182686)
(2.605214763e-07 4.544209688e-21 -0.00214220122)
(2.800254626e-07 3.506451583e-20 -0.00214222144)
(2.97812452e-07 5.381198204e-20 -0.002142243294)
(3.138689851e-07 1.06730821e-19 -0.002142266728)
(3.281929886e-07 1.482169253e-19 -0.002142291688)
(3.407848714e-07 1.883220087e-19 -0.002142318116)
(3.516601329e-07 2.213417437e-19 -0.002142345956)
(3.608474991e-07 2.490018704e-19 -0.002142375154)
(3.683753353e-07 2.678807292e-19 -0.002142405651)
(3.74267417e-07 2.795192766e-19 -0.00214243738)
(3.785603777e-07 2.834989135e-19 -0.002142470274)
(3.81301359e-07 2.796212704e-19 -0.002142504262)
(3.825350893e-07 2.97245276e-19 -0.002142539268)
(3.822999291e-07 3.088021834e-19 -0.002142575207)
(3.806509833e-07 3.166772508e-19 -0.00214261199)
(3.776411275e-07 3.222411841e-19 -0.002142649521)
(3.733236623e-07 3.262554729e-19 -0.002142687693)
(3.677560415e-07 3.29030634e-19 -0.002142726398)
(3.609914677e-07 3.342295174e-19 -0.002142765516)
(3.530805836e-07 3.33005347e-19 -0.002142804917)
(3.440826606e-07 3.432378006e-19 -0.002142844467)
(3.340609329e-07 3.58339154e-19 -0.002142884022)
(3.230611647e-07 3.745955689e-19 -0.002142923429)
(3.111303011e-07 3.718536258e-19 -0.002142962529)
(2.983233737e-07 3.679804753e-19 -0.002143001151)
(2.846878582e-07 3.686381015e-19 -0.002143039123)
(2.702740785e-07 3.73492123e-19 -0.002143076261)
(2.551283373e-07 3.771626592e-19 -0.002143112377)
(2.393012219e-07 3.945765736e-19 -0.002143147278)
(2.228471593e-07 4.057950642e-19 -0.002143180763)
(2.057959882e-07 4.084399098e-19 -0.002143212628)
(1.881852412e-07 4.120599824e-19 -0.002143242667)
(1.700614164e-07 4.169857775e-19 -0.002143270668)
(1.514645325e-07 4.236130817e-19 -0.002143296417)
(1.324368242e-07 4.261511677e-19 -0.002143319699)
(1.130011019e-07 4.27609989e-19 -0.002143340298)
(9.318238071e-08 4.289752465e-19 -0.002143357997)
(7.300163505e-08 4.358176851e-19 -0.00214337258)
(5.249288682e-08 4.35553437e-19 -0.002143383831)
(3.179269529e-08 4.360594378e-19 -0.002143391535)
(1.12247603e-08 4.373840884e-19 -0.002143395482)
(1.929251005e-08 2.626771441e-19 -0.002142846823)
(5.029803539e-08 1.755973328e-19 -0.002142848969)
(7.922003331e-08 9.752963944e-20 -0.002142853681)
(1.084397482e-07 1.619632375e-20 -0.002142860694)
(1.367200748e-07 -1.122226192e-19 -0.002142869866)
(1.637194016e-07 -5.963695249e-21 -0.00214288109)
(1.893073414e-07 4.07571636e-20 -0.00214289429)
(2.133888931e-07 6.515514849e-20 -0.002142909388)
(2.359008801e-07 8.134760105e-20 -0.002142926312)
(2.567940226e-07 8.484874292e-20 -0.002142945001)
(2.760241409e-07 9.237962684e-20 -0.002142965392)
(2.935722547e-07 9.967604115e-20 -0.002142987427)
(3.09414001e-07 3.261503905e-20 -0.002143011052)
(3.23539651e-07 5.17449646e-20 -0.002143036205)
(3.359590064e-07 1.010485663e-19 -0.002143062834)
(3.466932842e-07 1.360232026e-19 -0.002143090882)
(3.557637024e-07 1.649451133e-19 -0.002143120294)
(3.631880031e-07 1.835259143e-19 -0.002143151002)
(3.689977175e-07 2.292405391e-19 -0.002143182943)
(3.732356385e-07 2.643401513e-19 -0.002143216049)
(3.759435786e-07 2.940191716e-19 -0.002143250246)
(3.771582483e-07 3.057420885e-19 -0.002143285455)
(3.769286394e-07 3.171388616e-19 -0.002143321589)
(3.753056658e-07 3.260891373e-19 -0.002143358559)
(3.723410965e-07 3.340005078e-19 -0.002143396265)
(3.680898561e-07 3.418753749e-19 -0.002143434602)
(3.626078476e-07 3.503759174e-19 -0.002143473457)
(3.559423628e-07 3.594711612e-19 -0.002143512708)
(3.481484684e-07 3.656585288e-19 -0.002143552226)
(3.392880642e-07 3.49997462e-19 -0.002143591876)
(3.294120458e-07 3.504581677e-19 -0.002143631512)
(3.185717602e-07 3.581400374e-19 -0.002143670981)
(3.068138344e-07 3.544587159e-19 -0.002143710121)
(2.94188152e-07 3.585278438e-19 -0.002143748765)
(2.80752163e-07 3.70481973e-19 -0.002143786737)
(2.665477829e-07 3.910763789e-19 -0.002143823856)
(2.516225551e-07 4.129886249e-19 -0.002143859936)
(2.360259479e-07 4.213211333e-19 -0.002143894785)
(2.197985178e-07 4.237888316e-19 -0.002143928203)
(2.029879563e-07 4.200919487e-19 -0.002143959988)
(1.856301176e-07 4.170566952e-19 -0.002143989935)
(1.677651644e-07 4.142272639e-19 -0.002144017837)
(1.494344719e-07 4.111424739e-19 -0.002144043482)
(1.306667111e-07 4.072939427e-19 -0.002144066659)
(1.114980693e-07 4.08561291e-19 -0.002144087154)
(9.195080304e-08 4.088234896e-19 -0.002144104754)
(7.204483761e-08 4.078379927e-19 -0.002144119248)
(5.181259294e-08 4.056389019e-19 -0.002144130426)
(3.137557778e-08 4.075810858e-19 -0.002144138079)
(1.107308071e-08 4.084085547e-19 -0.002144141995)
(1.90174419e-08 6.045514261e-20 -0.002143574052)
(4.958450018e-08 9.376344542e-20 -0.002143576214)
(7.810751299e-08 9.699635244e-20 -0.002143580967)
(1.06926331e-07 9.051652169e-20 -0.00214358804)
(1.347976752e-07 8.280722831e-20 -0.002143597291)
(1.613914181e-07 8.725231197e-20 -0.002143608615)
(1.866067024e-07 8.809028335e-20 -0.002143621928)
(2.103598411e-07 7.215873905e-20 -0.002143637149)
(2.325633633e-07 1.430852812e-19 -0.002143654213)
(2.531656537e-07 1.180341287e-19 -0.002143673054)
(2.721446013e-07 1.002951505e-19 -0.002143693607)
(2.894556266e-07 9.08811971e-20 -0.002143715814)
(3.050766524e-07 8.572215813e-20 -0.002143739613)
(3.190104726e-07 9.381365715e-20 -0.002143764951)
(3.312697454e-07 1.077136531e-19 -0.002143791772)
(3.418672995e-07 1.206179362e-19 -0.002143820018)
(3.50814147e-07 1.752045339e-19 -0.002143849625)
(3.581363263e-07 2.27794421e-19 -0.00214388053)
(3.638712653e-07 2.831640675e-19 -0.002143912667)
(3.680574039e-07 3.431623318e-19 -0.002143945968)
(3.707308589e-07 3.789576402e-19 -0.002143980355)
(3.719329525e-07 3.608041604e-19 -0.002144015745)
(3.717108807e-07 3.504357407e-19 -0.002144052055)
(3.701152043e-07 3.4327885e-19 -0.00214408919)
(3.671980487e-07 3.378257526e-19 -0.00214412705)
(3.63012846e-07 3.326607828e-19 -0.002144165528)
(3.576078341e-07 3.256891867e-19 -0.002144204508)
(3.51039581e-07 3.388530302e-19 -0.002144243868)
(3.433656553e-07 3.483772393e-19 -0.00214428348)
(3.346382051e-07 3.546458252e-19 -0.002144323205)
(3.249112299e-07 3.639408766e-19 -0.002144362896)
(3.142289713e-07 3.635648548e-19 -0.0021444024)
(3.026397057e-07 3.674215845e-19 -0.002144441556)
(2.901922622e-07 3.716633079e-19 -0.002144480197)
(2.769378256e-07 3.764369123e-19 -0.002144518146)
(2.62936607e-07 3.815000942e-19 -0.002144555225)
(2.482282625e-07 3.862262801e-19 -0.002144591246)
(2.328532005e-07 3.926351345e-19 -0.002144626021)
(2.168568932e-07 3.979331601e-19 -0.002144659351)
(2.002789062e-07 4.021627457e-19 -0.002144691036)
(1.831671328e-07 4.055651304e-19 -0.002144720875)
(1.655538163e-07 4.082703572e-19 -0.002144748663)
(1.47471895e-07 4.105940879e-19 -0.00214477419)
(1.289607317e-07 4.12786839e-19 -0.002144797248)
(1.100456843e-07 4.150715985e-19 -0.002144817628)
(9.076091936e-08 4.17447011e-19 -0.002144835121)
(7.112363732e-08 4.168897607e-19 -0.002144849519)
(5.116127576e-08 4.164297926e-19 -0.002144860619)
(3.098990244e-08 4.161326091e-19 -0.002144868215)
(1.093469279e-08 4.159184772e-19 -0.002144872103)
(1.874775738e-08 6.702876331e-20 -0.002144285987)
(4.888058377e-08 1.226477059e-19 -0.002144288171)
(7.699806956e-08 1.532516811e-19 -0.002144292961)
(1.054076543e-07 1.627919145e-19 -0.002144300087)
(1.329004682e-07 1.731574629e-19 -0.002144309405)
(1.59146923e-07 1.900852729e-19 -0.002144320818)
(1.840182245e-07 2.141677599e-19 -0.002144334236)
(2.074378051e-07 2.390171894e-19 -0.002144349581)
(2.29347982e-07 1.780643539e-19 -0.002144366781)
(2.496811481e-07 1.121819231e-19 -0.002144385769)
(2.683937878e-07 4.205071784e-20 -0.002144406478)
(2.854666209e-07 3.200788132e-20 -0.002144428844)
(3.008818983e-07 2.5604243e-21 -0.002144452813)
(3.146403852e-07 6.288527613e-20 -0.002144478328)
(3.267457115e-07 1.067850683e-19 -0.002144505332)
(3.372017953e-07 1.442372708e-19 -0.00214453376)
(3.460289764e-07 1.819211153e-19 -0.00214456355)
(3.532587036e-07 2.212570317e-19 -0.002144594638)
(3.589246224e-07 2.640250896e-19 -0.002144626959)
(3.630585671e-07 2.695926769e-19 -0.002144660438)
(3.656977418e-07 2.855869674e-19 -0.002144694997)
(3.668886646e-07 3.097195776e-19 -0.002144730552)
(3.666765858e-07 3.318861586e-19 -0.002144767017)
(3.651099454e-07 3.282929661e-19 -0.002144804296)
(3.622410219e-07 3.290859333e-19 -0.002144842289)
(3.581173172e-07 3.37118368e-19 -0.002144880886)
(3.527951892e-07 3.480469401e-19 -0.002144919968)
(3.46329617e-07 3.577912523e-19 -0.002144959415)
(3.387734323e-07 3.688111396e-19 -0.002144999098)
(3.3017121e-07 3.698995535e-19 -0.002145038874)
(3.205740419e-07 3.722018142e-19 -0.002145078598)
(3.10043724e-07 3.648373495e-19 -0.002145118113)
(2.986189793e-07 3.675086094e-19 -0.00214515726)
(2.863463952e-07 3.6973528e-19 -0.002145195873)
(2.732817897e-07 3.714805247e-19 -0.002145233777)
(2.594733459e-07 3.726705177e-19 -0.002145270794)
(2.449721261e-07 3.732515304e-19 -0.002145306738)
(2.298085791e-07 3.816080722e-19 -0.002145341419)
(2.140255056e-07 3.892966084e-19 -0.002145374643)
(1.97680569e-07 3.968075176e-19 -0.002145406212)
(1.808043659e-07 4.046082739e-19 -0.002145435926)
(1.63432115e-07 4.060273545e-19 -0.002145463583)
(1.455931693e-07 4.081409526e-19 -0.002145488978)
(1.273195037e-07 4.11089895e-19 -0.002145511906)
(1.08651341e-07 4.147295465e-19 -0.002145532159)
(8.961330848e-08 4.190475653e-19 -0.002145549536)
(7.02328852e-08 4.178879933e-19 -0.002145563831)
(5.052965753e-08 4.171884633e-19 -0.002145574844)
(3.061509996e-08 4.16826728e-19 -0.002145582376)
(1.080562445e-08 4.167257296e-19 -0.002145586229)
(1.849869925e-08 9.900991402e-20 -0.002144982982)
(4.82275037e-08 2.143536671e-19 -0.002144985184)
(7.596688917e-08 3.343588026e-19 -0.002144990013)
(1.039972191e-07 2.342417411e-19 -0.002144997196)
(1.311134398e-07 2.18705796e-19 -0.002145006591)
(1.569950297e-07 2.356301938e-19 -0.002145018093)
(1.815378693e-07 2.677966905e-19 -0.002145031615)
(2.046614182e-07 3.075441254e-19 -0.002145047078)
(2.26283139e-07 2.45181847e-19 -0.002145064405)
(2.463431538e-07 1.865172964e-19 -0.002145083526)
(2.648091927e-07 1.273856873e-19 -0.002145104378)
(2.816581484e-07 1.050249182e-19 -0.0021451269)
(2.968811222e-07 5.927988224e-20 -0.002145151034)
(3.104679906e-07 1.040844124e-19 -0.002145176718)
(3.224141456e-07 1.252534533e-19 -0.00214520389)
(3.327338898e-07 1.406209478e-19 -0.002145232487)
(3.414519261e-07 1.526278115e-19 -0.002145262449)
(3.485963716e-07 1.627794014e-19 -0.002145293709)
(3.541941223e-07 1.62359059e-19 -0.002145326197)
(3.582773649e-07 1.645763606e-19 -0.002145359838)
(3.608856341e-07 1.842481747e-19 -0.002145394551)
(3.620641247e-07 2.261459422e-19 -0.002145430255)
(3.618638582e-07 2.590329811e-19 -0.002145466857)
(3.603302306e-07 2.895287119e-19 -0.002145504264)
(3.57508131e-07 3.12042449e-19 -0.002145542371)
(3.534430566e-07 3.369507086e-19 -0.002145581066)
(3.48195213e-07 3.585509054e-19 -0.002145620233)
(3.41831806e-07 3.581402592e-19 -0.002145659748)
(3.343878944e-07 3.623580683e-19 -0.002145699478)
(3.25907674e-07 3.615397681e-19 -0.002145739283)
(3.164458005e-07 3.637332825e-19 -0.002145779017)
(3.060516107e-07 3.72717943e-19 -0.002145818525)
(2.947830091e-07 3.735639698e-19 -0.002145857646)
(2.826792254e-07 3.717289038e-19 -0.002145896213)
(2.697907266e-07 3.719535068e-19 -0.002145934055)
(2.561777724e-07 3.74045337e-19 -0.002145970992)
(2.418701792e-07 3.784289955e-19 -0.00214600684)
(2.269091966e-07 3.858420445e-19 -0.002146041411)
(2.113386074e-07 3.812217039e-19 -0.002146074514)
(1.952026145e-07 3.784248427e-19 -0.002146105955)
(1.785509455e-07 3.759555239e-19 -0.002146135531)
(1.614051817e-07 3.757753151e-19 -0.002146163047)
(1.437973216e-07 3.737699453e-19 -0.002146188299)
(1.25757303e-07 3.821344163e-19 -0.002146211087)
(1.073189649e-07 3.885014732e-19 -0.00214623121)
(8.85195785e-08 3.934514785e-19 -0.002146248466)
(6.937289402e-08 3.971907616e-19 -0.002146262657)
(4.991105863e-08 3.999481495e-19 -0.002146273583)
(3.023677064e-08 4.018223495e-19 -0.002146281053)
(1.06657911e-08 4.028201259e-19 -0.002146284871)
(1.825594685e-08 4.027312721e-20 -0.002145665423)
(4.759352397e-08 2.829660961e-20 -0.002145667643)
(7.496856531e-08 -4.987605469e-21 -0.002145672509)
(1.026333873e-07 -1.439232355e-19 -0.002145679746)
(1.2940753e-07 5.283229265e-20 -0.00214568921)
(1.549714658e-07 1.586909856e-19 -0.0021457008)
(1.792044099e-07 2.282689358e-19 -0.002145714422)
(2.020237342e-07 2.781287301e-19 -0.002145729994)
(2.233637512e-07 3.102467276e-19 -0.002145747436)
(2.431693216e-07 3.332943598e-19 -0.002145766685)
(2.614062248e-07 3.613068339e-19 -0.002145787677)
(2.780551235e-07 3.186465505e-19 -0.002145810349)
(2.930930506e-07 2.954953095e-19 -0.002145834637)
(3.065063413e-07 2.242435296e-19 -0.002145860476)
(3.183027573e-07 1.647645436e-19 -0.002145887806)
(3.284993569e-07 1.552635624e-19 -0.002145916564)
(3.371177522e-07 1.380461484e-19 -0.002145946687)
(3.441791005e-07 1.621480523e-19 -0.002145978106)
(3.497106374e-07 1.802229834e-19 -0.002146010748)
(3.537466751e-07 2.400750779e-19 -0.002146044537)
(3.563279002e-07 2.396237627e-19 -0.002146079393)
(3.57503361e-07 2.431506578e-19 -0.002146115228)
(3.573163954e-07 2.445024934e-19 -0.002146151953)
(3.558130028e-07 2.721862057e-19 -0.002146189471)
(3.530334168e-07 2.914146994e-19 -0.002146227674)
(3.490309985e-07 3.010130811e-19 -0.002146266451)
(3.438674006e-07 3.019893563e-19 -0.002146305686)
(3.375880324e-07 2.928236134e-19 -0.002146345252)
(3.30245702e-07 2.963300207e-19 -0.002146385013)
(3.21881666e-07 3.064557821e-19 -0.002146424831)
(3.12544653e-07 3.234494635e-19 -0.00214646456)
(3.022936502e-07 3.364442868e-19 -0.002146504042)
(2.911705061e-07 3.35109246e-19 -0.002146543119)
(2.792285821e-07 3.329300157e-19 -0.002146581625)
(2.665127857e-07 3.362852099e-19 -0.002146619389)
(2.530663065e-07 3.360431606e-19 -0.002146656233)
(2.389435589e-07 3.41583345e-19 -0.00214669197)
(2.241776649e-07 3.44680841e-19 -0.002146726417)
(2.088124281e-07 3.491803457e-19 -0.002146759386)
(1.928849318e-07 3.521860608e-19 -0.002146790685)
(1.764316419e-07 3.535428616e-19 -0.002146820116)
(1.594988644e-07 3.608096333e-19 -0.002146847481)
(1.421071669e-07 3.694914857e-19 -0.002146872583)
(1.242918356e-07 3.755453769e-19 -0.002146895224)
(1.060834392e-07 3.83441275e-19 -0.002146915208)
(8.750944786e-08 3.903556055e-19 -0.00214693234)
(6.858986637e-08 3.964466978e-19 -0.002146946422)
(4.93468741e-08 4.020473272e-19 -0.002146957262)
(2.990092293e-08 4.074336808e-19 -0.002146964669)
(1.054946629e-08 4.128388845e-19 -0.002146968456)
(1.803515449e-08 2.418549792e-19 -0.002146333615)
(4.701468076e-08 5.604702014e-20 -0.002146335854)
(7.405505467e-08 -1.153407557e-19 -0.002146340758)
(1.013852858e-07 6.60418544e-21 -0.00214634805)
(1.278313161e-07 9.088953202e-20 -0.002146357584)
(1.530752934e-07 1.757148777e-19 -0.002146369252)
(1.770069351e-07 2.566692178e-19 -0.002146382963)
(1.995469658e-07 3.376087032e-19 -0.002146398635)
(2.206293371e-07 4.255659258e-19 -0.002146416195)
(2.402047146e-07 4.329684014e-19 -0.002146435573)
(2.582369728e-07 4.627100356e-19 -0.002146456704)
(2.746908778e-07 4.359627969e-19 -0.002146479519)
(2.89543238e-07 4.374410378e-19 -0.00214650395)
(3.027962392e-07 3.34464968e-19 -0.002146529937)
(3.144584753e-07 3.164504907e-19 -0.002146557418)
(3.245439355e-07 2.909192814e-19 -0.00214658633)
(3.330671742e-07 2.706125066e-19 -0.002146616606)
(3.400500663e-07 2.586387321e-19 -0.002146648173)
(3.455216017e-07 2.465694862e-19 -0.00214668096)
(3.49517001e-07 2.391309801e-19 -0.002146714888)
(3.520735338e-07 2.813935902e-19 -0.002146749875)
(3.532387073e-07 2.670718003e-19 -0.002146785835)
(3.530695862e-07 2.795017798e-19 -0.002146822671)
(3.515940839e-07 3.022715471e-19 -0.002146860284)
(3.488575854e-07 3.057965031e-19 -0.002146898569)
(3.449189043e-07 3.191916448e-19 -0.002146937416)
(3.398276835e-07 3.366845166e-19 -0.002146976705)
(3.336370601e-07 3.434472901e-19 -0.002147016305)
(3.263882778e-07 3.342082442e-19 -0.002147056084)
(3.181333403e-07 3.388403969e-19 -0.002147095902)
(3.089148319e-07 3.419249339e-19 -0.00214713561)
(2.987830582e-07 3.456875949e-19 -0.002147175055)
(2.878034421e-07 3.492094666e-19 -0.002147214075)
(2.760145052e-07 3.571197724e-19 -0.002147252506)
(2.634605347e-07 3.611882165e-19 -0.002147290178)
(2.501773334e-07 3.524536385e-19 -0.002147326914)
(2.362122045e-07 3.501363171e-19 -0.002147362532)
(2.21629867e-07 3.383039454e-19 -0.002147396846)
(2.064557782e-07 3.471702158e-19 -0.002147429672)
(1.90724121e-07 3.61303558e-19 -0.002147460817)
(1.744672956e-07 3.747349756e-19 -0.002147490092)
(1.577200239e-07 3.891703323e-19 -0.0021475173)
(1.405280284e-07 4.062221464e-19 -0.002147542244)
(1.229160045e-07 4.041059611e-19 -0.002147564733)
(1.049219981e-07 4.050493197e-19 -0.002147584572)
(8.656435442e-08 4.083064561e-19 -0.002147601569)
(6.78564774e-08 4.069618469e-19 -0.002147615536)
(4.88249549e-08 4.071893091e-19 -0.002147626281)
(2.958090488e-08 4.086196025e-19 -0.002147633622)
(1.043350274e-08 4.0400151e-19 -0.00214763737)
(1.783008468e-08 2.521750994e-19 -0.002146987879)
(4.647724424e-08 1.72533593e-19 -0.002146990134)
(7.320508516e-08 1.269672262e-19 -0.002146995069)
(1.002182867e-07 1.647347706e-19 -0.002147002406)
(1.263583151e-07 5.752815558e-20 -0.002147011998)
(1.513124855e-07 1.576537517e-19 -0.002147023741)
(1.749733209e-07 2.394236842e-19 -0.002147037544)
(1.972646003e-07 3.138742357e-19 -0.002147053323)
(2.181190091e-07 3.846162164e-19 -0.002147071002)
(2.374864226e-07 3.988579976e-19 -0.002147090509)
(2.553175086e-07 4.16264591e-19 -0.002147111771)
(2.715785993e-07 4.350452776e-19 -0.002147134717)
(2.862658343e-07 4.570115159e-19 -0.002147159287)
(2.993785041e-07 4.141355166e-19 -0.002147185418)
(3.109220063e-07 4.394612061e-19 -0.002147213047)
(3.209034599e-07 4.150812209e-19 -0.002147242106)
(3.29338601e-07 3.971014709e-19 -0.002147272526)
(3.362502662e-07 3.264040754e-19 -0.002147304235)
(3.416695371e-07 2.951341588e-19 -0.002147337158)
(3.456295961e-07 2.554759907e-19 -0.002147371217)
(3.481706654e-07 2.665453041e-19 -0.002147406328)
(3.493349931e-07 2.836449856e-19 -0.002147442402)
(3.491627576e-07 2.897951277e-19 -0.002147479343)
(3.477121484e-07 2.954644146e-19 -0.002147517043)
(3.450257209e-07 3.045047965e-19 -0.002147555403)
(3.411499536e-07 3.144821873e-19 -0.002147594312)
(3.361258428e-07 3.331527258e-19 -0.002147633644)
(3.300031762e-07 3.553546359e-19 -0.002147673272)
(3.228479451e-07 3.450143201e-19 -0.002147713058)
(3.146934837e-07 3.464535314e-19 -0.002147752864)
(3.055864433e-07 3.497926852e-19 -0.002147792543)
(2.955743472e-07 3.56218944e-19 -0.002147831941)
(2.847117452e-07 3.665291713e-19 -0.002147870898)
(2.73065286e-07 3.814667356e-19 -0.002147909247)
(2.606575673e-07 3.938619378e-19 -0.00214794682)
(2.475282063e-07 4.015568939e-19 -0.00214798344)
(2.33724755e-07 4.044674992e-19 -0.002148018931)
(2.192939654e-07 4.009373853e-19 -0.00214805311)
(2.042904895e-07 3.879994227e-19 -0.002148085787)
(1.887338574e-07 3.792791038e-19 -0.002148116777)
(1.726580811e-07 3.790484697e-19 -0.002148145889)
(1.560940816e-07 3.78705018e-19 -0.002148172934)
(1.390777392e-07 3.814074072e-19 -0.002148197721)
(1.216528471e-07 3.72683275e-19 -0.002148220057)
(1.038420485e-07 3.667771631e-19 -0.002148239754)
(8.567754802e-08 3.603767903e-19 -0.002148256619)
(6.716633297e-08 3.624244167e-19 -0.00214827047)
(4.83331482e-08 3.645938962e-19 -0.002148281122)
(2.928456478e-08 3.609293276e-19 -0.002148288396)
(1.032295879e-08 3.539715453e-19 -0.002148292112)
(1.764237008e-08 -1.903236063e-19 -0.002147628425)
(4.59854163e-08 5.809151312e-20 -0.002147630698)
(7.242805961e-08 2.267488057e-19 -0.002147635667)
(9.915443114e-08 3.583304812e-19 -0.002147643056)
(1.250232133e-07 1.98480993e-19 -0.002147652717)
(1.497260265e-07 2.336669478e-19 -0.002147664543)
(1.731491484e-07 2.325744074e-19 -0.002147678442)
(1.952163418e-07 2.107355562e-19 -0.002147694331)
(2.158630489e-07 1.676424303e-19 -0.002147712127)
(2.350290165e-07 2.780895211e-19 -0.002147731754)
(2.526667653e-07 3.60398366e-19 -0.002147753141)
(2.687628891e-07 4.230948646e-19 -0.002147776222)
(2.833083731e-07 4.745094428e-19 -0.002147800934)
(2.962989468e-07 5.105561294e-19 -0.00214782721)
(3.077333023e-07 4.921872939e-19 -0.002147854984)
(3.176203761e-07 4.714052996e-19 -0.002147884188)
(3.259761979e-07 4.554993356e-19 -0.002147914749)
(3.328267426e-07 4.505085426e-19 -0.002147946597)
(3.38200053e-07 3.933758249e-19 -0.002147979654)
(3.421317571e-07 3.970930019e-19 -0.00214801384)
(3.446614998e-07 3.353223631e-19 -0.00214804907)
(3.458245331e-07 3.511237516e-19 -0.002148085253)
(3.456605382e-07 3.297577367e-19 -0.00214812229)
(3.442250001e-07 3.060898495e-19 -0.002148160081)
(3.415857299e-07 3.059875973e-19 -0.002148198514)
(3.377661995e-07 2.838285491e-19 -0.002148237477)
(3.328055358e-07 2.69461002e-19 -0.002148276848)
(3.267540128e-07 2.601280795e-19 -0.002148316498)
(3.196631945e-07 2.842207093e-19 -0.002148356292)
(3.116000902e-07 3.051140825e-19 -0.002148396082)
(3.025956188e-07 3.063276113e-19 -0.002148435727)
(2.926974558e-07 3.065999654e-19 -0.002148475073)
(2.819555452e-07 3.118376925e-19 -0.002148513963)
(2.704150234e-07 3.226014835e-19 -0.00214855223)
(2.581348443e-07 3.41410172e-19 -0.0021485897)
(2.451455558e-07 3.71586678e-19 -0.002148626203)
(2.314927679e-07 3.917355106e-19 -0.002148661564)
(2.172144329e-07 4.04331048e-19 -0.002148695601)
(2.023488488e-07 4.009107068e-19 -0.002148728132)
(1.869457775e-07 3.902460058e-19 -0.002148758965)
(1.710263522e-07 3.783697398e-19 -0.002148787918)
(1.546304731e-07 3.660732125e-19 -0.0021488148)
(1.377878623e-07 3.5233026e-19 -0.002148839426)
(1.205298542e-07 3.440636082e-19 -0.00214886161)
(1.028883496e-07 3.331044566e-19 -0.002148881164)
(8.488403508e-08 3.190045146e-19 -0.002148897903)
(6.654412903e-08 3.06226334e-19 -0.002148911641)
(4.788604633e-08 2.886228832e-19 -0.002148922204)
(2.902177632e-08 2.774294787e-19 -0.002148929412)
(1.023465309e-08 2.748952688e-19 -0.002148933094)
(1.747981077e-08 -1.406373289e-19 -0.002148255545)
(4.555848776e-08 1.705831765e-19 -0.002148257836)
(7.17549028e-08 4.011344184e-19 -0.002148262842)
(9.823723752e-08 6.149417663e-19 -0.002148270285)
(1.238664356e-07 6.114922986e-19 -0.002148280017)
(1.483386646e-07 4.652339444e-19 -0.002148291932)
(1.715528868e-07 3.796355085e-19 -0.00214830593)
(1.93423108e-07 3.244679365e-19 -0.002148321924)
(2.138714253e-07 2.743450107e-19 -0.002148339831)
(2.328598562e-07 3.454123403e-19 -0.002148359577)
(2.503482816e-07 4.066577862e-19 -0.002148381094)
(2.663037449e-07 4.711237383e-19 -0.002148404313)
(2.807255751e-07 5.421265702e-19 -0.002148429168)
(2.936047558e-07 5.604405757e-19 -0.00214845559)
(3.049417841e-07 5.216757613e-19 -0.00214848351)
(3.147447557e-07 4.960277569e-19 -0.002148512858)
(3.230337762e-07 4.789262322e-19 -0.002148543564)
(3.298310397e-07 4.781299306e-19 -0.002148575552)
(3.351667501e-07 4.404306075e-19 -0.002148608744)
(3.39077152e-07 4.075377616e-19 -0.002148643059)
(3.415960313e-07 3.777076618e-19 -0.002148678409)
(3.427566344e-07 3.608306038e-19 -0.002148714701)
(3.426072527e-07 3.497910348e-19 -0.002148751837)
(3.412037697e-07 3.413067706e-19 -0.002148789716)
(3.385858961e-07 3.363447044e-19 -0.002148828227)
(3.348101089e-07 3.335289231e-19 -0.002148867245)
(3.299081466e-07 3.286603878e-19 -0.002148906654)
(3.239231298e-07 3.311778428e-19 -0.002148946326)
(3.169023728e-07 3.36926049e-19 -0.002148986124)
(3.08898419e-07 3.493057516e-19 -0.002149025906)
(2.999819691e-07 3.499652398e-19 -0.002149065519)
(2.901852032e-07 3.522113744e-19 -0.002149104816)
(2.795511201e-07 3.520298277e-19 -0.002149143638)
(2.681169738e-07 3.482280438e-19 -0.002149181821)
(2.559319466e-07 3.372846546e-19 -0.002149219195)
(2.430639083e-07 3.506520011e-19 -0.002149255585)
(2.295385862e-07 3.365892213e-19 -0.002149290819)
(2.153953877e-07 3.592354487e-19 -0.002149324717)