/*--------------------------------*- C++ -*----------------------------------*\
  =========                 |
  \\      /  F ield         | OpenFOAM: The Open Source CFD Toolbox
   \\    /   O peration     | Website:  https://openfoam.org
    \\  /    A nd           | Version:  7
     \\/     M anipulation  |
\*---------------------------------------------------------------------------*/
FoamFile
{
    version     2.0;
    format      ascii;
    class       volScalarField;
    location    "0.0009";
    object      generalizedNewtonian:nu;
}
// * * * * * * * * * * * * * * * * * * * * * * * * * * * * * * * * * * * * * //

dimensions      [0 2 -1 0 0 0 0];

internalField   nonuniform List<scalar> 
1167
(
412.9167212
411.5923993
409.3883747
405.5586446
400.7825711
395.0946508
388.5931825
381.3962003
373.6157852
365.3633578
356.7304642
347.7993334
338.6578775
329.3729873
320.000833
310.6093083
301.2310489
291.915023
282.690094
384.4230147
383.1467454
381.2906478
377.7780014
373.4510183
368.2962305
362.4063907
355.8902734
348.8534513
341.3899874
333.5787645
325.5009358
317.2346562
308.8314203
300.3526299
291.8439398
283.3420354
274.892048
266.5116311
258.237057
250.079099
242.0628269
234.1953817
226.493022
218.9594205
211.6056241
204.4327429
197.4480005
190.6493427
184.0421401
177.6217981
171.3922973
165.3476323
159.4911568
153.8150907
148.3223683
143.0050245
137.8662973
132.897997
128.1036334
123.475486
119.0176905
114.7234719
110.5965635
106.631078
102.8299949
99.18810502
95.71152529
92.40430868
89.20373441
355.9221448
354.6902708
353.1601283
349.9453597
346.0389341
341.395251
336.0910017
330.2282568
323.9013794
317.1872951
310.1611268
302.9041786
295.4702071
287.9125193
280.288894
272.6298235
264.9778621
257.3598058
249.8014437
242.3273875
234.9494992
227.6900193
220.5516116
213.553286
206.6923441
199.9850747
193.4263512
187.028571
180.7851746
174.705885
168.7836973
163.0255355
157.4253082
151.9875162
146.7064757
141.5851503
136.6191528
131.8105197
127.1557544
122.6565084
118.3102206
114.1186595
110.0795337
106.1944106
102.4609142
98.87999188
95.44840071
92.17183346
89.05582178
86.0301817
327.7539608
326.5679923
325.33395
322.4035315
318.8979646
314.737212
309.9861732
304.7397629
299.0756305
293.0664882
286.7869508
280.2989813
273.651848
266.9002334
260.0828461
253.232914
246.3889478
239.567407
232.7985631
226.0935803
219.472155
212.9433691
206.518595
200.2047979
194.0084688
187.9351725
181.9884262
176.1715583
170.4865802
164.9351648
159.5185004
154.23712
149.092311
144.0832106
139.211157
134.4749287
129.8765953
125.4146332
121.091394
116.9054045
112.8594319
108.9522252
105.1859042
101.5591526
98.07341675
94.72658333
91.51858019
88.45264935
85.53793486
82.69614901
300.2466211
299.1136168
298.1463245
295.4869494
292.3551797
288.6438059
284.4078611
279.7287902
274.6794057
269.3287822
263.7433529
257.9712003
252.0614801
246.0619737
240.0016475
233.9171505
227.8320193
221.7674372
215.7456767
209.774921
203.8761029
198.0500728
192.3129815
186.6632781
181.1131633
175.6604904
170.3143132
165.0713502
159.9394634
154.9144377
150.0032716
145.2016822
140.5164701
135.9427181
131.4872332
127.145457
122.9245712
118.8203745
114.8395199
110.978533
107.2437037
103.6318332
100.1481394
96.78911014
93.5592124
90.45365804
87.47520899
84.62497041
81.91536355
79.26212296
273.7035114
272.6283762
271.8912376
269.4833777
266.6953023
263.3961664
259.6289413
255.4704226
250.986881
246.2460766
241.2965164
236.184107
230.9587853
225.6527287
220.2963066
214.9221275
209.5454284
204.1907955
198.8689301
193.5941662
188.3758936
183.2205827
178.136394
173.1250301
168.1940186
163.3425718
158.5767971
153.8947475
149.3018389
144.79581
140.3813654
136.0570366
131.8267819
127.6896972
123.6495032
119.7064107
115.8639841
112.1230606
108.487023
104.9569973
101.5361568
98.22514324
95.02639547
91.93981636
88.96707608
86.10612129
83.35774542
80.7250308
78.2205745
75.75756672
248.3640911
247.3490085
246.8037849
244.6294057
242.1516278
239.2244644
235.8833463
232.1987056
228.2362573
224.0467076
219.675841
215.169401
210.566659
205.895417
201.187835
196.4644296
191.742979
187.0428489
182.3703506
177.7424486
173.1599872
168.6334574
164.1631407
159.7555157
155.4106623
151.1325099
146.920513
142.7776587
138.703229
134.6998919
130.7672698
126.9085141
123.1231911
119.4149327
115.7838776
112.2345049
108.7672395
105.3868718
102.0939323
98.8932682
95.7853293
92.7739683
89.8591205
87.043636
84.32683118
81.70929221
79.18951072
76.77339725
74.47200632
72.19913606
224.4063229
223.4550464
223.0660528
221.104804
218.9074506
216.316351
213.3600989
210.1073666
206.6120511
202.9193283
199.0716985
195.1134627
191.0729199
186.9784157
182.8578183
178.7257913
174.6025973
170.4983268
166.4232992
162.3865113
158.3906343
154.4433237
150.5426055
146.6958023
142.8985415
139.1573255
135.4667426
131.8329715
128.2506686
124.7258676
121.2542922
117.8421113
114.485895
111.1919079
107.9582743
104.791524
101.6907491
98.66240928
95.70607942
92.82801507
90.02768772
87.31036398
84.67484146
82.12568185
79.66058329
77.28225272
74.98730824
72.7841383
70.68224657
68.59664734
201.9586553
201.0735373
200.81041
199.0465635
197.1020709
194.8125146
192.2038676
189.3365655
186.2578941
183.0093752
179.6336496
176.163521
172.6259553
169.0500849
165.4542784
161.8545118
158.2678408
154.7002268
151.1643115
147.6619826
144.1993923
140.7777397
137.3989591
134.0639882
130.7723111
127.5245114
124.3190911
121.1568633
118.0362087
114.9584711
111.9229245
108.9313768
105.984
103.0833919
100.2310182
97.43013012
94.68296847
91.99305919
89.36298243
86.79627888
84.29504707
81.86219144
79.49900075
77.20783032
74.98862765
72.84217541
70.76689525
68.77071342
66.86346272
64.96088839
181.1102555
180.2928887
180.1290161
178.5461416
176.827362
174.8081089
172.5082119
169.9821723
167.2732997
164.4215332
161.4630955
158.4255971
155.3359626
152.2184251
149.0878163
145.9617809
142.8502535
139.7614868
136.703941
133.6784522
130.6920987
127.7417107
124.8317977
121.9585931
119.1242307
116.324892
113.5618732
110.8317188
108.1356084
105.4710661
102.8399524
100.240578
97.67567843
95.14481056
92.65186957
90.1973214
87.78574202
85.41810754
83.09926917
80.83039171
78.61563742
76.45580956
74.35420567
72.31125691
70.32890043
68.40614153
66.54330353
64.74694629
63.0284545
61.30327474
161.9060623
161.1559936
161.0674064
159.6487081
158.1318583
156.3511856
154.3234351
152.0989459
149.717525
147.2166
144.6246614
141.9676779
139.2727657
136.5568768
133.8354605
131.1241189
128.4293788
125.7614599
123.1235439
120.5194708
117.951311
115.4185201
112.9225624
110.4602692
108.0325416
105.6349089
103.2684822
100.9284592
98.6163569
96.32821163
94.0662066
91.82734382
89.61467955
87.42673474
85.26753886
83.13675517
81.03902088
78.97468371
76.9487035
74.96154066
73.01770573
71.11719047
69.26407825
67.45759268
65.70106238
63.9920385
62.33242512
60.72750545
59.18982911
57.635976
144.3476845
143.6629123
143.6301956
142.3612973
141.0216081
139.4508361
137.6630979
135.7044633
133.6130285
131.4181873
129.1466279
126.8240261
124.4718291
122.1053737
119.7409725
117.3888201
115.0567015
112.7530671
110.4792658
108.2408917
106.036344
103.8675473
101.732444
99.63037076
97.55883141
95.515907
93.49922779
91.50647787
89.53592473
87.58580481
85.65513943
83.74300953
81.84958768
79.97525356
78.12129069
76.2890816
74.48069862
72.69816648
70.94404908
69.22031316
67.52937435
65.87275382
64.2526345
62.66973829
61.12564157
59.61929979
58.15184659
56.72885534
55.36266957
53.97292565
128.4032531
127.7816828
127.7883891
126.6537775
125.4708753
124.0851688
122.5088108
120.7853288
118.9464475
117.0186223
115.0263893
112.9943727
110.9388528
108.8751938
106.8180753
104.775076
102.7555231
100.7640077
98.80386374
96.87826097
94.98614207
93.1296464
91.30507807
89.51343188
87.74986918
86.0143809
84.3021485
82.61270669
80.94193335
79.28967222
77.65255228
76.03113905
74.42330768
72.83072845
71.25241526
69.69092691
68.14615006
66.62125277
65.11671108
63.63555009
62.17832406
60.74766378
59.34405283
57.9694048
56.62378197
55.30741822
54.02018179
52.76870886
51.56353605
50.32997572
114.0134208
113.4518246
113.4860575
112.47302
111.4287821
110.2060183
108.8163041
107.2981694
105.6792874
103.9837911
102.2355512
100.4537073
98.6538173
96.85141197
95.05697258
93.2786562
91.52521574
89.79930409
88.10588531
86.44549061
84.81931464
83.22700858
81.66707091
80.13839003
78.63785075
77.16409232
75.71317813
74.28384783
72.87229817
71.47769314
70.09670206
68.72926717
67.37311445
66.02918591
64.69621235
63.37599713
62.068063
60.77490739
59.49645393
58.23531341
56.99135712
55.76721894
54.56239649
53.37937637
52.21702801
51.07654546
49.956694
48.86483942
47.80973194
46.72309433
101.1015496
100.5963952
100.6489634
99.74555347
98.82360124
97.74462959
96.51856551
95.17934842
93.75208798
92.2592375
90.72174714
89.15573873
87.57625056
85.99707006
84.42673089
82.87438494
81.34583164
79.84487753
78.37577671
76.93842241
75.53544109
74.16474926
72.82666972
71.51845112
70.23891879
68.98498561
67.75462993
66.54488508
65.35361286
64.17816798
63.01670977
61.86735712
60.72906292
59.60084713
58.48245593
57.37372879
56.27509018
55.18707497
54.11035125
53.04571151
51.99379789
50.95555512
49.93128514
48.92187815
47.92704772
46.94711724
45.98113286
45.03604468
44.11929799
43.16936919
89.57629061
89.12357589
89.18738293
88.38233453
87.56860486
86.61596871
85.53275404
84.34990882
83.08983926
81.77365295
80.41797734
79.03796714
77.64834807
76.25954234
74.88016714
73.51914893
72.18042449
70.86909547
69.58746661
68.33708992
67.11923957
65.93288536
64.77831557
63.65275985
62.5559929
61.48415566
60.43666124
59.40945466
58.40173195
57.40965154
56.43256143
55.4672855
54.51372778
53.56945799
52.63497566
51.70856199
50.79126606
49.88198998
48.98189782
48.09022002
47.2081069
46.33500734
45.47178284
44.61795006
43.77393366
42.93894934
42.11280527
41.30103322
40.51083753
39.68655327
79.33603993
78.93149668
79.00143173
78.28495072
77.56639071
76.7242643
75.76637422
74.720467
73.60725864
72.44390913
71.24562866
70.02666
68.79963387
67.57355621
66.35746152
65.15785769
63.97923433
62.82668341
61.70146713
60.60643116
59.5415284
58.5073369
57.50300195
56.52753342
55.57952396
54.65693522
53.75809263
52.88051942
52.02245895
51.18130917
50.35555615
49.54293908
48.74241598
47.95218152
47.17170828
46.39965343
45.63601817
44.87975625
44.13111173
43.3891323
42.65429865
41.92558391
41.20357074
40.48701378
39.77665223
39.07077709
38.36977119
37.67781429
37.00170819
36.29203142
70.2742106
69.91373741
69.98651694
69.34874114
68.71387031
67.9690581
67.12137985
66.19601457
65.21086459
64.18056452
63.1189342
62.03951941
60.95216258
59.8655937
58.78852343
57.725762
56.6826649
55.66271129
54.66813917
53.70139848
52.76241002
51.85269128
50.97069326
50.11681377
49.28890516
48.48642432
47.70699368
46.94955228
46.21158996
45.49184172
44.78797733
44.0988837
43.42254628
42.7581036
42.10389877
41.45935951
40.82320721
40.19495191
39.57351266
38.9584185
38.34879852
37.74407698
37.14350319
36.54635359
35.95219595
35.35981832
34.76897983
34.18336863
33.6086929
33.00248086
62.28303573
61.96238336
62.03538739
61.46807181
60.90720927
60.24827075
59.49785325
58.67862307
57.80526811
56.89111223
55.94902161
54.99014841
54.02336953
53.05732781
52.09864676
51.15226853
50.22364805
49.31505615
48.429697
47.56892935
46.73393321
45.92527141
45.14270164
44.38620183
43.65450756
42.94717596
42.26239145
41.59941965
40.95611266
40.33163104
39.7238367
39.13197588
38.55402699
37.98938014
37.43616009
36.89395439
36.36098863
35.83687487
35.3198084
34.80949416
34.30407139
33.80327274
33.30521614
32.8095846
32.31493491
31.82054245
31.32531238
30.83293984
30.34716965
29.833474
55.25663685
54.97191447
55.04375649
54.53944652
54.04407832
53.46106444
52.79690788
52.07061296
51.29541519
50.48312497
49.64552231
48.79149948
47.92941462
47.06733122
46.21039934
45.36400659
44.53216461
43.71764397
42.92355163
42.15078127
41.401336
40.67509247
39.97293392
39.29421846
38.63895995
38.00618352
37.39537785
36.80529355
36.23509822
35.68345846
35.14947029
34.63180917
34.12956755
33.64145117
33.16656983
32.70368079
32.25178289
31.80955329
31.37583286
30.94927414
30.52853214
30.11223612
29.69888463
29.28739498
28.87634714
28.46472336
28.0511965
27.63905905
27.23038366
26.79826406
49.09386371
48.84139325
48.9113052
48.46321101
48.02586297
47.51042874
46.92200112
46.27766137
45.58895758
44.86672031
44.12032533
43.35798294
42.58760826
41.81542726
41.04646187
40.28602869
39.53695634
38.80263666
38.08516104
37.38621808
36.70719642
36.04857948
35.41122852
34.79477114
34.19964976
33.62501188
33.07097391
32.53636362
32.02107694
31.52385739
31.04450087
30.58172295
30.13523581
29.70372002
29.2868136
28.88309715
28.49197531
28.11179363
27.74175164
27.3799272
27.02533909
26.67580322
26.3302712
25.98676848
25.64430729
25.30105848
24.95626267
24.61178467
24.26921493
23.90786217
43.69925094
43.47558689
43.54319479
43.1452362
42.75960794
42.30362866
41.78217841
41.21031949
40.59827687
39.95528216
39.28921269
38.60757989
37.91744815
37.22383755
36.53187239
35.84556331
35.16791691
34.50220169
33.84988265
33.21320402
32.59286266
31.99016111
31.40533157
30.83897916
30.29101941
29.7616472
29.25051032
28.75755649
28.28229405
27.82460034
27.38389836
26.96002275
26.55229681
26.16049908
25.78381829
25.42181279
25.07337468
24.73773813
24.4134683
24.09939837
23.79374908
23.49499535
23.20132663
22.91117363
22.62294281
22.33500509
22.04635733
21.75817326
21.47123737
21.17071773
38.98409858
38.78606725
38.85136208
38.49825775
38.1581108
37.75477876
37.29272675
36.7851696
36.24121304
35.66813297
35.07308058
34.46299398
33.84333085
33.21883677
32.59436751
31.97285739
31.35765042
30.75103877
30.15497203
29.57113239
29.00048558
28.44424975
27.90271954
27.37674228
26.86626326
26.37183918
25.89321767
25.43075816
24.98420224
24.5537976
24.13933018
23.74093643
23.35841955
22.99179207
22.64076032
22.30502903
21.98403009
21.67706741
21.38314903
21.10107203
20.82933777
20.56639647
20.31048305
20.05999367
19.81312701
19.56841354
19.32444238
19.08225242
18.84115306
18.59252798
34.7549694
34.44151172
34.14169005
33.78509565
33.37581481
32.92565933
32.44183291
31.93079591
31.39894267
30.85213813
30.29493472
29.73194628
29.16681607
28.60251029
28.0420932
27.48723873
26.94021294
26.4019946
25.87410006
25.35708638
24.85193538
24.35892296
23.87874502
23.41144698
22.95760529
22.51715909
22.09072977
21.67821073
21.28029015
20.89688264
20.52861669
20.17548176
19.83787311
19.51565801
19.20887427
18.91706907
18.63973065
18.37587455
18.12442309
17.88393481
17.65293188
17.42968431
17.21262754
16.99994552
16.79064293
16.58464578
16.38101486
16.17554296
)
;

boundaryField
{
    front_top
    {
        type            wedge;
    }
    front_middle
    {
        type            wedge;
    }
    front_bottom
    {
        type            wedge;
    }
    back_top
    {
        type            wedge;
    }
    back_middle
    {
        type            wedge;
    }
    back_bottom
    {
        type            wedge;
    }
    axis_top
    {
        type            symmetryPlane;
    }
    axis_middle
    {
        type            symmetryPlane;
    }
    axis_bottom
    {
        type            symmetryPlane;
    }
    wall_top
    {
        type            calculated;
        value           nonuniform List<scalar> 
23
(
87.61484297
84.52353422
81.27672762
77.93288087
74.51967542
71.05134324
67.53788827
63.98967366
60.41774166
56.83394551
53.2520298
49.68629315
46.15252928
42.66756374
39.24884255
35.91353718
32.6784475
29.55845782
26.56696187
23.7151903
21.01206599
18.46315333
16.07123657
)
;
    }
    wall_middle
    {
        type            calculated;
        value           nonuniform 0();
    }
    wall_bottom
    {
        type            calculated;
        value           nonuniform 0();
    }
    inlet
    {
        type            calculated;
        value           nonuniform 0();
    }
    outlet
    {
        type            calculated;
        value           nonuniform 0();
    }
    procBoundary6to5
    {
        type            processor;
        value           nonuniform List<scalar> 
51
(
34.86720333
34.6919808
34.6919808
31.18042655
30.90221194
30.63817838
30.32310868
29.96088783
29.56160332
29.13123
28.67543425
28.2000009
27.70941326
27.20790829
26.69963383
26.18735066
25.67414316
25.16215675
24.65337412
24.14940699
23.65144648
23.16067014
22.67774722
22.20350932
21.73839487
21.28295941
20.83755266
20.4025703
19.97846263
19.56555831
19.16448627
18.77553467
18.39956199
18.03686768
17.68830949
17.35421733
17.03522905
16.73158334
16.44346438
16.17073312
15.91299116
15.66960918
15.43956363
15.22170536
15.01453689
14.81654552
14.62610554
14.44204664
14.26395279
14.08974343
13.91997954
)
;
    }
    procBoundary6to7
    {
        type            processor;
        value           nonuniform List<scalar> 
51
(
441.045777
439.6678898
437.1058291
432.9408824
427.6984793
421.4481913
414.3122867
406.413596
397.8704451
388.7989819
379.3168769
369.5087344
359.4616669
349.269998
338.9874896
328.6830606
318.4085087
308.2025626
298.1162564
273.5868495
273.5868495
264.6303909
255.8365969
247.2266816
238.8063949
230.592062
222.5839012
214.7939945
207.2197115
199.8680431
192.7348281
185.8232404
179.1284309
172.6504553
166.3848448
160.328742
154.4778472
148.8280616
143.3757911
138.1161066
133.0460233
128.1606181
123.4580186
118.9341206
114.5873556
110.4144237
106.4139609
102.5836379
98.92495527
95.44309901
92.08424415
)
;
    }
}


// ************************************************************************* //
