/*--------------------------------*- C++ -*----------------------------------*\
  =========                 |
  \\      /  F ield         | OpenFOAM: The Open Source CFD Toolbox
   \\    /   O peration     | Website:  https://openfoam.org
    \\  /    A nd           | Version:  7
     \\/     M anipulation  |
\*---------------------------------------------------------------------------*/
FoamFile
{
    version     2.0;
    format      ascii;
    class       surfaceScalarField;
    location    "0.0009";
    object      phi;
}
// * * * * * * * * * * * * * * * * * * * * * * * * * * * * * * * * * * * * * //

dimensions      [1 0 -1 0 0 0 0];

internalField   nonuniform List<scalar> 
2260
(
-6.275877082e-15
4.559057118e-11
-2.459212573e-14
1.334055217e-10
-5.425146176e-14
2.163290366e-10
-9.452348539e-14
2.945656248e-10
-1.446713807e-13
3.683126893e-10
-2.039397264e-13
4.377606209e-10
-2.7152086e-13
5.030929016e-10
-3.465692191e-13
5.64486335e-10
-4.282388473e-13
6.221112757e-10
-5.156628252e-13
6.761318005e-10
-6.078248576e-13
7.267058003e-10
-7.037446203e-13
7.739852829e-10
-8.024918605e-13
8.181166685e-10
-9.028881433e-13
8.592406069e-10
-1.003930777e-12
8.974925042e-10
-1.104540308e-12
9.330027088e-10
-1.203543905e-12
9.658962299e-10
-1.300011856e-12
9.962936658e-10
1.024310526e-09
-8.366049487e-15
4.559893723e-11
-3.278061652e-14
1.334299362e-10
-7.22922301e-14
2.163685482e-10
-1.258922292e-13
2.946192248e-10
-1.925525031e-13
3.683793495e-10
-2.711916178e-13
4.378392601e-10
-3.606977964e-13
5.031824078e-10
-4.599317881e-13
5.64585569e-10
-5.67737833e-13
6.222190818e-10
-6.828379902e-13
6.762469007e-10
-8.039108254e-13
7.268268731e-10
-9.297210261e-13
7.741110931e-10
-1.058852615e-12
8.182458001e-10
-1.189867827e-12
8.593716221e-10
-1.321487344e-12
8.976241237e-10
-1.452151578e-12
9.331333731e-10
-1.580561093e-12
9.660246394e-10
-1.705292908e-12
9.964183976e-10
-1.824984133e-12
1.024430217e-09
-1.938397564e-12
1.050171559e-09
-2.044187132e-12
1.073749047e-09
-2.141318728e-12
1.095265658e-09
-2.22853868e-12
1.114819722e-09
-2.305028123e-12
1.132506248e-09
-2.369702779e-12
1.148415853e-09
-2.421982571e-12
1.162636155e-09
-2.461006883e-12
1.175250603e-09
-2.486422603e-12
1.186339875e-09
-2.497628662e-12
1.195980723e-09
-2.494518367e-12
1.204247373e-09
-2.476764791e-12
1.211210348e-09
-2.444497481e-12
1.216937853e-09
-2.397689208e-12
1.221494619e-09
-2.336686672e-12
1.224943239e-09
-2.261736452e-12
1.22734302e-09
-2.173392233e-12
1.228751335e-09
-2.072167878e-12
1.229222477e-09
-1.958802581e-12
1.228808964e-09
-1.834033254e-12
1.227560409e-09
-1.698756515e-12
1.225524826e-09
-1.553890861e-12
1.222747476e-09
-1.400473439e-12
1.219272226e-09
-1.239550231e-12
1.215140276e-09
-1.072256493e-12
1.210391654e-09
-8.997150857e-13
1.205063832e-09
-7.231423227e-13
1.199193275e-09
-5.436781124e-13
1.192814023e-09
-3.62579761e-13
1.185959274e-09
-1.809308566e-13
1.178659891e-09
1.170945967e-09
-1.088670264e-14
4.560982393e-11
-4.265411768e-14
1.334617036e-10
-9.404067267e-14
2.164199348e-10
-1.636960639e-13
2.946888802e-10
-2.502251869e-13
3.684658787e-10
-3.521912281e-13
4.379412261e-10
-4.681163287e-13
5.032983329e-10
-5.964954219e-13
5.647139481e-10
-7.357195644e-13
6.223583059e-10
-8.841057458e-13
6.763952869e-10
-1.040008373e-12
7.269827757e-10
-1.201709734e-12
7.742727944e-10
-1.36734492e-12
8.184114353e-10
-1.535203168e-12
8.595394803e-10
-1.703447527e-12
8.977923681e-10
-1.870219711e-12
9.333001452e-10
-2.033866128e-12
9.661882858e-10
-2.192480422e-12
9.965770119e-10
-2.344526294e-12
1.024582263e-09
-2.488242321e-12
1.050315275e-09
-2.622184885e-12
1.07388299e-09
-2.744830183e-12
1.095388303e-09
-2.854879265e-12
1.114929771e-09
-2.951076638e-12
1.132602445e-09
-3.032349918e-12
1.148497126e-09
-3.097734585e-12
1.162701539e-09
-3.146432599e-12
1.175299301e-09
-3.177766141e-12
1.186371209e-09
-3.19125936e-12
1.195994216e-09
-3.186528012e-12
1.204242642e-09
-3.163431268e-12
1.211187251e-09
-3.121883139e-12
1.216896305e-09
-3.062088947e-12
1.221434825e-09
-2.984233861e-12
1.224865384e-09
-2.888849769e-12
1.227247636e-09
-2.776389603e-12
1.228638875e-09
-2.647694919e-12
1.229093783e-09
-2.503457178e-12
1.228664727e-09
-2.344783124e-12
1.227401735e-09
-2.172571679e-12
1.225352615e-09
-1.988155065e-12
1.22256306e-09
-1.792617703e-12
1.219076689e-09
-1.587444691e-12
1.214935103e-09
-1.373863893e-12
1.210178073e-09
-1.153465912e-12
1.204843434e-09
-9.275886046e-13
1.198967397e-09
-6.978539039e-13
1.192584288e-09
-4.656534173e-13
1.185727073e-09
-2.325604065e-13
1.178426798e-09
1.170713406e-09
-1.391895467e-14
4.562374289e-11
-5.453089167e-14
1.335023156e-10
-1.201944112e-13
2.164855983e-10
-2.091484444e-13
2.947778343e-10
-3.19573182e-13
3.685763034e-10
-4.496005575e-13
4.380712535e-10
-5.97314034e-13
5.034460464e-10
-7.607032638e-13
5.648773373e-10
-9.37662942e-13
6.225352656e-10
-1.126078496e-12
6.765837024e-10
-1.323824006e-12
7.271805212e-10
-1.528576664e-12
7.744775471e-10
-1.738081697e-12
8.186209403e-10
-1.950128699e-12
8.597515273e-10
-2.162302575e-12
8.98004542e-10
-2.372434427e-12
9.335102771e-10
-2.578240052e-12
9.663940915e-10
-2.777519384e-12
9.967762912e-10
-2.968241823e-12
1.024772986e-09
-3.148261005e-12
1.050495294e-09
-3.315839841e-12
1.074050569e-09
-3.469001727e-12
1.095541465e-09
-3.606295663e-12
1.115067065e-09
-3.726025394e-12
1.132722175e-09
-3.827065875e-12
1.148598166e-09
-3.90805715e-12
1.162782531e-09
-3.968217368e-12
1.175359461e-09
-4.00654836e-12
1.18640954e-09
-4.022651032e-12
1.196010319e-09
-4.015898098e-12
1.204235889e-09
-3.986273066e-12
1.211157626e-09
-3.933544182e-12
1.216843576e-09
-3.85806881e-12
1.22135935e-09
-3.759982901e-12
1.224767298e-09
-3.640002864e-12
1.227127656e-09
-3.498629205e-12
1.228497501e-09
-3.336914859e-12
1.228932068e-09
-3.155693207e-12
1.228483505e-09
-2.956301324e-12
1.227202343e-09
-2.739868146e-12
1.225136182e-09
-2.507988001e-12
1.22233118e-09
-2.262034737e-12
1.218830735e-09
-2.003799733e-12
1.214676868e-09
-1.734830886e-12
1.209909104e-09
-1.457085299e-12
1.204565688e-09
-1.172225207e-12
1.198682537e-09
-8.822861901e-13
1.192294349e-09
-5.889677695e-13
1.185433755e-09
-2.943067921e-13
1.178132137e-09
1.1704191e-09
-1.755858167e-14
4.564130147e-11
-6.878720621e-14
1.335535442e-10
-1.515912862e-13
2.165684024e-10
-2.637169055e-13
2.948899599e-10
-4.028432182e-13
3.687154297e-10
-5.665783517e-13
4.382349886e-10
-7.524370288e-13
5.03631905e-10
-9.578253169e-13
5.650827256e-10
-1.180091541e-12
6.227575318e-10
-1.416584511e-12
6.768201954e-10
-1.664477893e-12
7.274284146e-10
-1.920891129e-12
7.747339603e-10
-2.183054094e-12
8.188831033e-10
-2.448022624e-12
8.600164959e-10
-2.712903373e-12
8.982694227e-10
-2.974961866e-12
9.337723356e-10
-3.231270876e-12
9.666504005e-10
-3.479263603e-12
9.97024284e-10
-3.716226003e-12
1.025009948e-09
-3.939740692e-12
1.050718809e-09
-4.147441255e-12
1.074258269e-09
-4.337129948e-12
1.095731154e-09
-4.506838521e-12
1.115236774e-09
-4.654691389e-12
1.132870028e-09
-4.779155827e-12
1.148722631e-09
-4.878746217e-12
1.162882121e-09
-4.952366953e-12
1.175433082e-09
-4.998975793e-12
1.186456148e-09
-5.017931397e-12
1.196029275e-09
-5.00865564e-12
1.204226613e-09
-4.970958427e-12
1.211119929e-09
-4.90474966e-12
1.216777367e-09
-4.8102674e-12
1.221264867e-09
-4.68788868e-12
1.22464492e-09
-4.538269134e-12
1.226978036e-09
-4.362242028e-12
1.228321474e-09
-4.160853009e-12
1.228730679e-09
-3.935346265e-12
1.228257998e-09
-3.687121315e-12
1.226954118e-09
-3.417785116e-12
1.224866845e-09
-3.129059937e-12
1.222042454e-09
-2.822843871e-12
1.218524519e-09
-2.501119409e-12
1.214355144e-09
-2.16600364e-12
1.209573988e-09
-1.819690088e-12
1.204219374e-09
-1.464422461e-12
1.19832727e-09
-1.102526335e-12
1.191932453e-09
-7.362601102e-13
1.185067488e-09
-3.680207155e-13
1.177763898e-09
1.170051079e-09
-2.192084168e-14
4.566322231e-11
-8.587418024e-14
1.336174975e-10
-1.892251794e-13
2.166717534e-10
-3.291385097e-13
2.950298732e-10
-5.02677925e-13
3.688889691e-10
-7.0680591e-13
4.384391166e-10
-9.383638677e-13
5.03863463e-10
-1.194100368e-12
5.653384621e-10
-1.470722277e-12
6.230341537e-10
-1.764801665e-12
6.771142748e-10
-2.072780603e-12
7.277363935e-10
-2.391153585e-12
7.750523333e-10
-2.716365251e-12
8.192083149e-10
-3.044732154e-12
8.603448628e-10
-3.372785942e-12
8.985974765e-10
-3.696951116e-12
9.340965008e-10
-4.013767257e-12
9.669672166e-10
-4.319985127e-12
9.973305018e-10
-4.612261995e-12
1.025302225e-09
-4.887734567e-12
1.050994281e-09
-5.14335068e-12
1.074513885e-09
-5.376619795e-12
1.095964423e-09
-5.584949618e-12
1.115445104e-09
-5.766284028e-12
1.133051362e-09
-5.918553318e-12
1.1488749e-09
-6.040186868e-12
1.163003755e-09
-6.129652768e-12
1.175522548e-09
-6.1859273e-12
1.186512423e-09
-6.208022018e-12
1.196051369e-09
-6.195477894e-12
1.204214069e-09
-6.147860265e-12
1.211072312e-09
-6.065282655e-12
1.21669479e-09
-5.947833126e-12
1.221147418e-09
-5.796181607e-12
1.224493268e-09
-5.610932329e-12
1.226792787e-09
-5.393291144e-12
1.228103833e-09
-5.144341968e-12
1.22848173e-09
-4.865772641e-12
1.227979429e-09
-4.559119088e-12
1.226647465e-09
-4.22649803e-12
1.224534224e-09
-3.869849991e-12
1.221685806e-09
-3.491637551e-12
1.218146307e-09
-3.094127625e-12
1.213957634e-09
-2.680064258e-12
1.209159925e-09
-2.251958369e-12
1.203791269e-09
-1.81272243e-12
1.197888034e-09
-1.365024016e-12
1.191484754e-09
-9.118090593e-13
1.184614274e-09
-4.558444412e-13
1.177307933e-09
1.169595234e-09
-2.714124479e-14
4.569036355e-11
-1.063247249e-13
1.33696681e-10
-2.342689785e-13
2.167996976e-10
-4.074369346e-13
2.952030412e-10
-6.221489843e-13
3.691036812e-10
-8.746018136e-13
4.386915694e-10
-1.160860438e-12
5.041497216e-10
-1.476898153e-12
5.656544998e-10
-1.818570088e-12
6.233758256e-10
-2.18154391e-12
6.774772486e-10
-2.561467731e-12
7.281163174e-10
-2.954012022e-12
7.754448776e-10
-3.354641851e-12
8.196089448e-10
-3.758925068e-12
8.60749146e-10
-4.162529772e-12
8.990010812e-10
-4.560991528e-12
9.344949625e-10
-4.950199092e-12
9.673564242e-10
-5.325972624e-12
9.977062754e-10
-5.684423741e-12
1.025660676e-09
-6.021856353e-12
1.051331714e-09
-6.334714125e-12
1.074826743e-09
-6.619871596e-12
1.096249581e-09
-6.874243429e-12
1.115699476e-09
-7.095338316e-12
1.133272457e-09
-7.280638698e-12
1.1490602e-09
-7.428305153e-12
1.163151421e-09
-7.536453407e-12
1.175630696e-09
-7.603921483e-12
1.186579891e-09
-7.629485672e-12
1.196076934e-09
-7.61265942e-12
1.204197243e-09
-7.552907343e-12
1.211012559e-09
-7.450399172e-12
1.216592281e-09
-7.305265017e-12
1.221002284e-09
-7.118305868e-12
1.224306309e-09
-6.890311233e-12
1.226564792e-09
-6.622685222e-12
1.227836207e-09
-6.316828315e-12
1.228175873e-09
-5.974703913e-12
1.227637305e-09
-5.598267333e-12
1.226271028e-09
-5.189997502e-12
1.224125954e-09
-4.752332563e-12
1.221248141e-09
-4.288181735e-12
1.217682156e-09
-3.80036664e-12
1.213469819e-09
-3.292157544e-12
1.208651716e-09
-2.766649363e-12
1.20326576e-09
-2.227357628e-12
1.197348742e-09
-1.677526635e-12
1.190934923e-09
-1.120767644e-12
1.184057515e-09
-5.603963405e-13
1.176747562e-09
1.169034838e-09
-3.33772898e-14
4.572374084e-11
-1.307536655e-13
1.337940574e-10
-2.880737699e-13
2.169570177e-10
-5.009554423e-13
2.954159228e-10
-7.648463305e-13
3.693675721e-10
-1.075039258e-12
4.390017624e-10
-1.426685014e-12
5.045013674e-10
-1.814788216e-12
5.66042603e-10
-2.234151935e-12
6.237951894e-10
-2.679476502e-12
6.779225731e-10
-3.14544525e-12
7.285822861e-10
-3.626595335e-12
7.759260277e-10
-4.117387531e-12
8.20099737e-10
-4.612452501e-12
8.612442109e-10
-5.106305935e-12
8.994949347e-10
-5.593610022e-12
9.349822666e-10
-6.069269532e-12
9.678320837e-10
-6.528142717e-12
9.981651486e-10
-6.96560663e-12
1.02609814e-09
-7.376977803e-12
1.051743085e-09
-7.758141225e-12
1.075207906e-09
-8.105099088e-12
1.096596539e-09
-8.414344622e-12
1.116008721e-09
-8.682650023e-12
1.133540762e-09
-8.907215139e-12
1.149284766e-09
-9.085612895e-12
1.163329819e-09
-9.215825251e-12
1.175760908e-09
-9.296245769e-12
1.186660312e-09
-9.325664165e-12
1.196106352e-09
-9.303294566e-12
1.204174873e-09
-9.228751432e-12
1.210938016e-09
-9.102036402e-12
1.216465566e-09
-8.923564696e-12
1.220823812e-09
-8.694105199e-12
1.224076849e-09
-8.414853467e-12
1.22628554e-09
-8.087304735e-12
1.227508658e-09
-7.713381205e-12
1.22780195e-09
-7.295253004e-12
1.227219176e-09
-6.835506324e-12
1.225811282e-09
-6.3369327e-12
1.223627381e-09
-5.802684972e-12
1.220713894e-09
-5.236082257e-12
1.217115553e-09
-4.640737389e-12
1.212874474e-09
-4.020403384e-12
1.208031382e-09
-3.379014841e-12
1.202624372e-09
-2.72062703e-12
1.196690354e-09
-2.049329102e-12
1.190263625e-09
-1.369356958e-12
1.183377542e-09
-6.848218166e-13
1.176063027e-09
1.168350016e-09
-4.081009912e-14
4.576455094e-11
-1.598701846e-13
1.339131175e-10
-3.522040337e-13
2.171493516e-10
-6.124313818e-13
2.956761502e-10
-9.349612881e-13
3.69690102e-10
-1.314027639e-12
4.393808287e-10
-1.743668171e-12
5.049310079e-10
-2.217694952e-12
5.665166298e-10
-2.729749102e-12
6.243072435e-10
-3.273374991e-12
6.78466199e-10
-3.842013545e-12
7.291509247e-10
-4.428905726e-12
7.765129199e-10
-5.027378352e-12
8.206982096e-10
-5.630785438e-12
8.61847618e-10
-6.23239513e-12
9.000965444e-10
-6.82581225e-12
9.355756837e-10
-7.404640598e-12
9.68410912e-10
-7.962785112e-12
9.987232931e-10
-8.494484223e-12
1.026629839e-09
-8.994121282e-12
1.052242722e-09
-9.456720981e-12
1.075670506e-09
-9.877375585e-12
1.097017193e-09
-1.025196782e-11
1.116383313e-09
-1.057646583e-11
1.13386526e-09
-1.084767324e-11
1.149555973e-09
-1.106251036e-11
1.163544656e-09
-1.121876422e-11
1.175917162e-09
-1.13143396e-11
1.186755887e-09
-1.134801458e-11
1.196140027e-09
-1.131869213e-11
1.204145551e-09
-1.122613287e-11
1.210845457e-09
-1.107019944e-11
1.216309633e-09
-1.085160213e-11
1.220605215e-09
-1.057114621e-11
1.223796394e-09
-1.023045214e-11
1.225944846e-09
-9.831211416e-12
1.227109418e-09
-9.375895186e-12
1.227346633e-09
-8.867014557e-12
1.226710296e-09
-8.3078247e-12
1.225252092e-09
-7.70158081e-12
1.223021137e-09
-7.052207026e-12
1.22006452e-09
-6.363586726e-12
1.216426933e-09
-5.640204336e-12
1.212151091e-09
-4.886439407e-12
1.207277617e-09
-4.107179551e-12
1.201845112e-09
-3.307137163e-12
1.195890312e-09
-2.491402551e-12
1.189447891e-09
-1.664911928e-12
1.182551052e-09
-8.32782133e-13
1.175230897e-09
1.167517234e-09
-4.964956756e-14
4.581420051e-11
-1.944984785e-13
1.340579664e-10
-4.284793525e-13
2.173833325e-10
-7.450286707e-13
2.959926995e-10
-1.137340798e-12
3.700824141e-10
-1.598373033e-12
4.398418609e-10
-2.1208172e-12
5.054534521e-10
-2.697128312e-12
5.670929409e-10
-3.319576018e-12
6.249296912e-10
-3.980308615e-12
6.791269316e-10
-4.671224236e-12
7.298418403e-10
-5.384150738e-12
7.772258464e-10
-6.111006716e-12
8.214250656e-10
-6.843555319e-12
8.625801666e-10
-7.57372257e-12
9.008267116e-10
-8.293681034e-12
9.362956422e-10
-8.995604806e-12
9.691128358e-10
-9.672217539e-12
9.993999058e-10
-1.031634192e-11
1.027273964e-09
-1.092137524e-11
1.052847755e-09
-1.148108558e-11
1.076230216e-09
-1.198973247e-11
1.09752584e-09
-1.244218515e-11
1.116835766e-09
-1.28337311e-11
1.134256806e-09
-1.316041586e-11
1.149882658e-09
-1.341866405e-11
1.163802904e-09
-1.360574673e-11
1.176104245e-09
-1.371926994e-11
1.18686941e-09
-1.375772492e-11
1.196178482e-09
-1.371992282e-11
1.204107749e-09
-1.360553733e-11
1.210731072e-09
-1.341454632e-11
1.216118642e-09
-1.314776155e-11
1.22033843e-09
-1.280629595e-11
1.223454928e-09
-1.239204332e-11
1.225530594e-09
-1.19071799e-11
1.226624554e-09
-1.135460964e-11
1.226794063e-09
-1.073748726e-11
1.226093173e-09
-1.005964976e-11
1.224574254e-09
-9.325122528e-12
1.22228661e-09
-8.538548688e-12
1.219277946e-09
-7.70468014e-12
1.215593065e-09
-6.828842289e-12
1.211275254e-09
-5.916342406e-12
1.206365117e-09
-4.973015784e-12
1.200901785e-09
-4.004534472e-12
1.194921831e-09
-3.017011624e-12
1.188460368e-09
-2.016330761e-12
1.181550371e-09
-1.008699795e-12
1.174223266e-09
1.166508534e-09
-6.013584948e-14
4.587433636e-11
-2.355805828e-13
1.342334111e-10
-5.189789095e-13
2.176667308e-10
-9.023790632e-13
2.963760997e-10
-1.377519733e-12
3.705575548e-10
-1.935841214e-12
4.404001824e-10
-2.568479635e-12
5.060860905e-10
-3.266298146e-12
5.677907594e-10
-4.019960657e-12
6.256833537e-10
-4.819858214e-12
6.799268292e-10
-5.65617787e-12
7.306781599e-10
-6.519091779e-12
7.780887603e-10
-7.398697544e-12
8.223046713e-10
-8.285017267e-12
8.634664864e-10
-9.168362409e-12
9.017100567e-10
-1.003907718e-11
9.37166357e-10
-1.088781473e-11
9.699615734e-10
-1.170568076e-11
1.000217772e-09
-1.248397992e-11
1.028052263e-09
-1.321480941e-11
1.053578585e-09
-1.389048255e-11
1.07690589e-09
-1.450424353e-11
1.098139601e-09
-1.504970795e-11
1.11738123e-09
-1.552140158e-11
1.1347285e-09
-1.591436871e-11
1.150275625e-09
-1.622454016e-11
1.164113075e-09
-1.644844024e-11
1.176328145e-09
-1.658345042e-11
1.18700442e-09
-1.662758227e-11
1.196222614e-09
-1.657967384e-11
1.20405984e-09
-1.643916934e-11
1.210590567e-09
-1.620631716e-11
1.21588579e-09
-1.588194143e-11
1.220014054e-09
-1.546764607e-11
1.223040633e-09
-1.496555523e-11
1.225028503e-09
-1.437853919e-11
1.226037538e-09
-1.370992945e-11
1.226125453e-09
-1.296375982e-11
1.225347004e-09
-1.214446979e-11
1.223754964e-09
-1.125711148e-11
1.221399251e-09
-1.030708449e-11
1.218327919e-09
-9.300295405e-12
1.214586275e-09
-8.242944133e-12
1.210217902e-09
-7.141585017e-12
1.205263758e-09
-6.003011076e-12
1.199763211e-09
-4.834179358e-12
1.193752999e-09
-3.642267847e-12
1.187268456e-09
-2.43441158e-12
1.180342515e-09
-1.21796253e-12
1.173006817e-09
1.165290572e-09
-7.254283135e-14
4.594687919e-11
-2.841918832e-13
1.344450602e-10
-6.260707239e-13
2.180086096e-10
-1.088588265e-12
2.968386172e-10
-1.661763952e-12
3.711307305e-10
-2.335277618e-12
4.410736961e-10
-3.098445158e-12
5.06849258e-10
-3.940276476e-12
5.686325908e-10
-4.849472155e-12
6.265925494e-10
-5.814403419e-12
6.808917605e-10
-6.823287847e-12
7.316870444e-10
-7.864291688e-12
7.791297641e-10
-8.925346697e-12
8.233657263e-10
-9.994516289e-12
8.645356559e-10
-1.106005861e-11
9.027755991e-10
-1.211025479e-11
9.382165531e-10
-1.313394221e-11
9.709852608e-10
-1.412019149e-11
1.001204021e-09
-1.505866823e-11
1.028990739e-09
-1.593966185e-11
1.054459579e-09
-1.675399802e-11
1.077720226e-09
-1.749346561e-11
1.098879069e-09
-1.815035058e-11
1.118038115e-09
-1.871809849e-11
1.135296248e-09
-1.919066582e-11
1.150748192e-09
-1.956325733e-11
1.164485667e-09
-1.983159732e-11
1.176596485e-09
-1.999268428e-11
1.187165507e-09
-2.004404099e-11
1.19627397e-09
-1.998443733e-11
1.204000237e-09
-1.981313576e-11
1.210419265e-09
-1.953061301e-11
1.215603267e-09
-1.91378088e-11
1.21962125e-09
-1.863682162e-11
1.222539645e-09
-1.803016163e-11
1.224421843e-09
-1.732143599e-11
1.225328812e-09
-1.651460289e-11
1.22531862e-09
-1.561465293e-11
1.224447054e-09
-1.46268555e-11
1.222767167e-09
-1.355740433e-11
1.2203298e-09
-1.241269414e-11
1.217183209e-09
-1.119993741e-11
1.213373519e-09
-9.92644171e-12
1.208944407e-09
-8.600199676e-12
1.203937516e-09
-7.229171294e-12
1.198392183e-09
-5.821834897e-12
1.192345662e-09
-4.386601608e-12
1.185833223e-09
-2.932148001e-12
1.178888061e-09
-1.467080761e-12
1.17154175e-09
1.163823491e-09
-8.71770884e-14
4.603405628e-11
-3.415323532e-13
1.346994154e-10
-7.524002346e-13
2.184194775e-10
-1.308258776e-12
2.973944757e-10
-1.997137471e-12
3.718196092e-10
-2.806654658e-12
4.418832133e-10
-3.724011527e-12
5.077666149e-10
-4.736018413e-12
5.696445976e-10
-5.829061144e-12
6.276855922e-10
-6.989233426e-12
6.820519327e-10
-8.202449391e-12
7.329002603e-10
-9.45438495e-12
7.803816997e-10
-1.073058844e-11
8.246419298e-10
-1.201678904e-11
8.658218565e-10
-1.32987141e-11
9.040575241e-10
-1.456237256e-11
9.394802116e-10
-1.57942867e-11
9.722171749e-10
-1.698122739e-11
1.002390962e-09
-1.811085125e-11
1.030120363e-09
-1.917126101e-11
1.055519988e-09
-2.015157371e-11
1.078700539e-09
-2.104166056e-11
1.099769155e-09
-2.183239737e-11
1.118828852e-09
-2.251566576e-11
1.135979516e-09
-2.308434542e-11
1.151316872e-09
-2.353247691e-11
1.164933798e-09
-2.385506341e-11
1.176919071e-09
-2.404835128e-11
1.187358795e-09
-2.410951144e-11
1.196335131e-09
-2.403695349e-11
1.203927679e-09
-2.382996025e-11
1.210212272e-09
-2.348902219e-11
1.215262329e-09
-2.301545151e-11
1.219147679e-09
-2.241170108e-11
1.221935895e-09
-2.168097618e-11
1.223691118e-09
-2.082754628e-11
1.224475383e-09
-1.985634991e-11
1.224347424e-09
-1.877331488e-11
1.223364019e-09
-1.758492131e-11
1.221578773e-09
-1.629853909e-11
1.219043418e-09
-1.492195431e-11
1.215806624e-09
-1.34637552e-11
1.21191532e-09
-1.193275959e-11
1.207413411e-09
-1.033849559e-11
1.202343252e-09
-8.690508809e-12
1.196744196e-09
-6.998926429e-12
1.19065408e-09
-5.273753203e-12
1.18410805e-09
-3.525398981e-12
1.177139707e-09
-1.764022762e-12
1.169780374e-09
1.162059468e-09
-1.043780565e-13
4.613843434e-11
-4.089326755e-13
1.350039701e-10
-9.009065406e-13
2.189114514e-10
-1.566530459e-12
2.980600997e-10
-2.391512611e-12
3.726445913e-10
-3.361085263e-12
4.428527859e-10
-4.459979533e-12
5.088655092e-10
-5.672410585e-12
5.708570287e-10
-6.982157372e-12
6.289953389e-10
-8.372662472e-12
6.834424378e-10
-9.827092487e-12
7.343546903e-10
-1.132826827e-11
7.818828755e-10
-1.285901218e-11
8.261726737e-10
-1.440220584e-11
8.673650502e-10
-1.59407087e-11
9.05596027e-10
-1.745787577e-11
9.409973787e-10
-1.893735536e-11
9.736966545e-10
-2.036338493e-11
1.003816991e-09
-2.172102418e-11
1.031478003e-09
-2.299594516e-11
1.056794909e-09
-2.417507169e-11
1.079879665e-09
-2.524603839e-11
1.100840122e-09
-2.61979475e-11
1.119780761e-09
-2.70207822e-11
1.136802351e-09
-2.77060924e-11
1.152002182e-09
-2.824643795e-11
1.165474144e-09
-2.863595246e-11
1.177308586e-09
-2.886986625e-11
1.187592709e-09
-2.89449442e-11
1.196410209e-09
-2.885904597e-11
1.203841781e-09
-2.861151244e-11
1.209964739e-09
-2.820274348e-11
1.21485356e-09
-2.763454553e-11
1.218579481e-09
-2.69097052e-11
1.221211055e-09
-2.603232345e-11
1.222813736e-09
-2.500738564e-11
1.223450445e-09
-2.384108413e-11
1.223181122e-09
-2.254039511e-11
1.22206333e-09
-2.111334281e-11
1.220151721e-09
-1.956862541e-11
1.217498701e-09
-1.791581165e-11
1.21415381e-09
-1.616503067e-11
1.210164539e-09
-1.432705635e-11
1.205575437e-09
-1.241310313e-11
1.200429299e-09
-1.043476694e-11
1.19476586e-09
-8.404001598e-12
1.188623315e-09
-6.332859322e-12
1.182036908e-09
-4.233672967e-12
1.17504052e-09
-2.118601841e-12
1.167665302e-09
1.159940866e-09
-1.245188755e-13
4.626295321e-11
-4.878588841e-13
1.353673101e-10
-1.074825727e-12
2.194984182e-10
-1.86904194e-12
2.988543159e-10
-2.853534081e-12
3.736290835e-10
-4.010768484e-12
4.440100203e-10
-5.322590369e-12
5.101773311e-10
-6.770272483e-12
5.723047108e-10
-8.334588371e-12
6.305596548e-10
-9.995923733e-12
6.851037732e-10
-1.173418935e-11
7.36092956e-10
-1.352903563e-11
7.836777217e-10
-1.536009284e-11
8.280037309e-10
-1.720685e-11
8.692118073e-10
-1.904897178e-11
9.074381488e-10
-2.086658508e-11
9.42814992e-10
-2.264004592e-11
9.754701154e-10
-2.435061164e-11
1.005527557e-09
-2.598016359e-11
1.033107554e-09
-2.75116427e-11
1.058326388e-09
-2.892909871e-11
1.081297121e-09
-3.021771436e-11
1.102128738e-09
-3.136417596e-11
1.120927223e-09
-3.235636896e-11
1.137794544e-09
-3.318396412e-11
1.152829777e-09
-3.383785143e-11
1.166128031e-09
-3.431086863e-11
1.177781603e-09
-3.459708901e-11
1.187878929e-09
-3.469255648e-11
1.196505676e-09
-3.459452906e-11
1.203743753e-09
-3.43022019e-11
1.209672412e-09
-3.381593233e-11
1.214367291e-09
-3.313792929e-11
1.217901478e-09
-3.227146598e-11
1.220344591e-09
-3.122155367e-11
1.221763824e-09
-2.999414339e-11
1.222223035e-09
-2.85967934e-11
1.221783772e-09
-2.70378541e-11
1.22050439e-09
-2.532709681e-11
1.218440964e-09
-2.347492371e-11
1.215646527e-09
-2.149296657e-11
1.212171853e-09
-1.939329375e-11
1.208064866e-09
-1.718898302e-11
1.203371126e-09
-1.489332584e-11
1.198133641e-09
-1.252037815e-11
1.192392912e-09
-1.008427801e-11
1.186187215e-09
-7.599595073e-12
1.179552225e-09
-5.080887189e-12
1.172521813e-09
-2.542829298e-12
1.165127245e-09
1.157398037e-09
-1.480020377e-13
4.641095525e-11
-5.798912839e-13
1.357991993e-10
-1.277647303e-12
2.201961742e-10
-2.22188703e-12
2.997985556e-10
-3.392538672e-12
3.747997351e-10
-4.768869891e-12
4.453863515e-10
-6.329440177e-12
5.117379014e-10
-8.052165367e-12
5.74027436e-10
-9.914397627e-12
6.324218871e-10
-1.189292351e-11
6.870822991e-10
-1.396402234e-11
7.381640548e-10
-1.610372996e-11
7.858174294e-10
-1.828790204e-11
8.30187903e-10
-2.049222322e-11
8.714161285e-10
-2.269269818e-11
9.096386237e-10
-2.486555105e-11
9.449878449e-10
-2.698749928e-11
9.775920636e-10
-2.903614875e-11
1.007576207e-09
-3.098974853e-11
1.035061154e-09
-3.282793686e-11
1.060164577e-09
-3.453132031e-11
1.083000504e-09
-3.608216937e-11
1.103679587e-09
-3.746411858e-11
1.122309172e-09
-3.866260955e-11
1.138993035e-09
-3.966476065e-11
1.153831928e-09
-4.045957946e-11
1.16692285e-09
-4.103795962e-11
1.178359983e-09
-4.139271118e-11
1.188233681e-09
-4.151860698e-11
1.196631572e-09
-4.141230902e-11
1.203637455e-09
-4.107244353e-11
1.209332546e-09
-4.049945251e-11
1.213794299e-09
-3.96956638e-11
1.21709769e-09
-3.866509628e-11
1.219314024e-09
-3.74135294e-11
1.220512257e-09
-3.594826787e-11
1.220757773e-09
-3.427822645e-11
1.220113731e-09
-3.241362152e-11
1.218639785e-09
-3.036608655e-11
1.216393429e-09
-2.814830149e-11
1.213428742e-09
-2.577416748e-11
1.209797719e-09
-2.32583213e-11
1.20554902e-09
-2.061641449e-11
1.200729219e-09
-1.786447944e-11
1.195381706e-09
-1.501938255e-11
1.189547815e-09
-1.209806095e-11
1.183265893e-09
-9.118027075e-12
1.176572191e-09
-6.09661923e-12
1.169500405e-09
-3.051518948e-12
1.162082144e-09
1.154346518e-09
-1.752548334e-13
4.658621008e-11
-6.867077863e-13
1.363106523e-10
-1.513082013e-12
2.210225485e-10
-2.63152976e-12
3.009170034e-10
-4.018425319e-12
3.761866307e-10
-5.649394171e-12
4.470173204e-10
-7.499268293e-12
5.135877755e-10
-9.542147644e-12
5.760703153e-10
-1.175145685e-11
6.346311963e-10
-1.409990282e-11
6.894307451e-10
-1.655970634e-11
7.406238583e-10
-1.910277109e-11
7.883604941e-10
-2.170060062e-11
8.327857326e-10
-2.43246587e-11
8.740401866e-10
-2.694666126e-11
9.122606263e-10
-2.95384037e-11
9.475795873e-10
-3.207245423e-11
9.801261141e-10
-3.452201828e-11
1.010025771e-09
-3.686130157e-11
1.037400437e-09
-3.906582247e-11
1.062369098e-09
-4.111229778e-11
1.08504698e-09
-4.29793297e-11
1.105546619e-09
-4.464695835e-11
1.123976801e-09
-4.609750422e-11
1.140443581e-09
-4.731496769e-11
1.155049392e-09
-4.828588596e-11
1.167893768e-09
-4.899866973e-11
1.179072767e-09
-4.944438744e-11
1.188679399e-09
-4.961608358e-11
1.196803268e-09
-4.950948217e-11
1.203530854e-09
-4.912230949e-11
1.208945373e-09
-4.845491109e-11
1.213126901e-09
-4.750955998e-11
1.216152338e-09
-4.629101893e-11
1.218095483e-09
-4.480583198e-11
1.21902707e-09
-4.306284296e-11
1.219014784e-09
-4.107248053e-11
1.218123369e-09
-3.884718813e-11
1.216414493e-09
-3.640075705e-11
1.213946998e-09
-3.374866596e-11
1.210776651e-09
-3.09074761e-11
1.206956529e-09
-2.789504795e-11
1.202536591e-09
-2.473004422e-11
1.197564215e-09
-2.143200312e-11
1.192083665e-09
-1.802104248e-11
1.186136855e-09
-1.451772022e-11
1.179762571e-09
-1.09429587e-11
1.172997429e-09
-7.317702411e-12
1.165875148e-09
-3.663133354e-12
1.158427575e-09
1.150683385e-09
-2.067216345e-13
4.679293172e-11
-8.100515725e-13
1.369139822e-10
-1.78497211e-12
2.21997469e-10
-3.104672421e-12
3.022367037e-10
-4.74148952e-12
3.778234478e-10
-6.666924442e-12
4.489427553e-10
-8.851586535e-12
5.157724376e-10
-1.126526986e-11
5.784839987e-10
-1.387691358e-11
6.3724284e-10
-1.665473305e-11
6.922085645e-10
-1.95663903e-11
7.435355156e-10
-2.257902862e-11
7.913731324e-10
-2.565936657e-11
8.358660705e-10
-2.877413392e-11
8.771549539e-10
-3.189003429e-11
9.153765267e-10
-3.497402366e-11
9.506635767e-10
-3.799380375e-11
9.831458942e-10
-4.091758461e-11
1.012949551e-09
-4.371489891e-11
1.040197752e-09
-4.635635965e-11
1.065010558e-09
-4.881425106e-11
1.087504871e-09
-5.106255446e-11
1.107794922e-09
-5.307722513e-11
1.125991471e-09
-5.483644967e-11
1.142202805e-09
-5.632063919e-11
1.156533581e-09
-5.751285456e-11
1.169085984e-09
-5.839858373e-11
1.179958496e-09
-5.89662241e-11
1.189247039e-09
-5.920672007e-11
1.197043764e-09
-5.911406718e-11
1.203438201e-09
-5.868484645e-11
1.208516153e-09
-5.791870055e-11
1.212360755e-09
-5.681778671e-11
1.215051425e-09
-5.538722748e-11
1.216664924e-09
-5.363448705e-11
1.21727433e-09
-5.156981281e-11
1.21695011e-09
-4.920551307e-11
1.215759069e-09
-4.65563864e-11
1.213765366e-09
-4.363892791e-11
1.211029539e-09
-4.047178898e-11
1.207609512e-09
-3.707486927e-11
1.20355961e-09
-3.346983869e-11
1.198931561e-09
-2.967913671e-11
1.193773513e-09
-2.572654627e-11
1.188131075e-09
-2.163623278e-11
1.182046541e-09
-1.743323545e-11
1.175559573e-09
-1.314266643e-11
1.16870686e-09
-8.790037283e-12
1.161522519e-09
-4.400736126e-12
1.154038274e-09
1.146282649e-09
-2.42850871e-13
4.703578259e-11
-9.516848417e-13
1.376228162e-10
-2.097208958e-12
2.231429931e-10
-3.648120296e-12
3.03787615e-10
-5.572186467e-12
3.797475139e-10
-7.836254333e-12
4.512068232e-10
-1.040620561e-11
5.183423888e-10
-1.324694635e-11
5.813247394e-10
-1.632247627e-11
6.4031837e-10
-1.959600745e-11
6.954820957e-10
-2.30301028e-11
7.469696109e-10
-2.658659209e-11
7.949296217e-10
-3.022695596e-11
8.395064344e-10
-3.391256142e-11
8.808405594e-10
-3.760455705e-11
9.190685223e-10
-4.126454857e-11
9.543235682e-10
-4.485455778e-11
9.867359034e-10
-4.83373514e-11
1.016432345e-09
-5.167693062e-11
1.043537331e-09
-5.48383802e-11
1.068172008e-09
-5.778871545e-11
1.090455206e-09
-6.04964948e-11
1.110502701e-09
-6.293275854e-11
1.128427735e-09
-6.507062001e-11
1.144340667e-09
-6.68860742e-11
1.158349035e-09
-6.835768555e-11
1.170557595e-09
-6.946721898e-11
1.18106803e-09
-7.019936559e-11
1.189979186e-09
-7.054225878e-11
1.197386657e-09
-7.048719961e-11
1.203383142e-09
-7.002906449e-11
1.208058018e-09
-6.91659864e-11
1.211497677e-09
-6.789967565e-11
1.213785114e-09
-6.62350442e-11