/*--------------------------------*- C++ -*----------------------------------*\
  =========                 |
  \\      /  F ield         | OpenFOAM: The Open Source CFD Toolbox
   \\    /   O peration     | Website:  https://openfoam.org
    \\  /    A nd           | Version:  7
     \\/     M anipulation  |
\*---------------------------------------------------------------------------*/
FoamFile
{
    version     2.0;
    format      ascii;
    class       volScalarField;
    location    "0.0009";
    object      T;
}
// * * * * * * * * * * * * * * * * * * * * * * * * * * * * * * * * * * * * * //

dimensions      [0 0 0 1 0 0 0];

internalField   nonuniform List<scalar> 
1167
(
429.748518
429.7853777
429.8643778
429.9810757
430.1329274
430.3174416
430.5327082
430.7767675
431.0477221
431.3434813
431.6624041
432.0029752
432.3632868
432.7419015
433.1376003
433.5484483
433.9736685
434.4116638
434.8613541
429.9830143
430.0197774
430.09857
430.2148631
430.3660873
430.5500934
430.7647972
431.008218
431.2782803
431.5731186
431.8912028
432.230755
432.5898976
432.9675164
433.3618741
433.7716251
434.195661
434.632251
435.08075
435.5394858
436.0078325
436.4844128
436.9685413
437.4591029
437.9554203
438.4565157
438.961764
439.4702936
439.9816081
440.4948608
441.0097016
441.5253026
442.0414321
442.5572518
443.0726997
443.5869371
444.1000129
444.611067
445.1202661
445.6267559
446.1308057
446.6315577
447.1293231
447.6233216
448.1138883
448.6002915
449.0828358
449.5608846
450.0347221
450.5038733
430.2131872
430.2498028
430.3282793
430.4442045
430.5950516
430.7785984
430.9927657
431.2354555
431.5046394
431.7987359
432.1160173
432.4543738
432.8126102
433.1892179
433.5823202
433.991033
434.4136813
434.8491555
435.296296
435.7537506
436.220784
436.6959278
437.1787578
437.6677949
438.162798
438.6623095
439.1661959
439.6731284
440.1830376
440.6946954
441.2080851
441.7221164
442.2367385
442.7510236
443.2649331
443.7776798
444.2891875
444.7987892
445.3064089
445.8114894
446.3139662
446.8133329
447.3095568
447.8021977
448.2912722
448.7763218
449.257438
449.7341301
450.206647
450.6744265
430.4389849
430.4755142
430.553806
430.6694578
430.8199487
431.0030614
431.2166262
431.4585162
431.7270576
432.0204493
432.3366864
432.6741789
433.0315512
433.4069402
433.7990911
434.2067293
434.6281191
435.0625209
435.5082528
435.9645655
436.4301327
436.9040814
437.3854106
437.8732092
438.3666698
438.8648918
439.367208
439.8728217
440.3811314
440.891451
441.403232
441.9158976
442.428898
442.9418119
443.4541079
443.9654785
444.4753754
444.9836032
445.4896256
445.9933488
446.4942452
446.9922638
447.4869391
447.9782615
448.4658168
448.9495701
449.4291942
449.9046308
450.3757123
450.8422696
430.6607593
430.6972084
430.7753276
430.8907242
431.0408823
431.2234841
431.4363652
431.677714
431.9456518
432.2382474
432.5535738
432.8902997
433.2467191
433.6210813
434.0123295
434.4187217
434.8391257
435.2723296
435.7168773
436.1720631
436.6362454
437.1090425
437.5889173
438.0755163
438.5674742
439.0644412
439.5652248
440.0695512
440.5762947
441.0853022
441.5955016
442.1068236
442.6182271
443.1297888
443.6404921
444.1505016
444.6588063
445.1656545
445.6701159
446.172465
446.6718233
447.1684831
447.6616469
448.1516599
448.6377127
449.120182
449.598331
450.0725263
450.5421906
451.0075423
430.8786084
430.9149837
430.9929443
431.1081059
431.2578038
431.4398763
431.6523181
431.8931659
432.1605277
432.4522013
432.7668635
433.1028742
433.4582324
433.8317904
434.2220877
434.6273944
435.046866
435.4788055
435.9223432
436.376197
436.8393057
437.3107799
437.7894696
438.2747387
438.7654047
439.2610092
439.760445
440.2633632
440.7687289
441.2762834
441.7850916
442.2949042
442.8049248
443.3149436
443.8242801
444.3327135
444.8396694
445.3449459
445.8480672
446.3488556
446.8468778
447.342003
447.8338562
448.3223621
448.8071253
449.2881505
449.7650131
450.2378763
450.70624
451.1703785
431.0926306
431.1289394
431.2066765
431.3214629
431.4708244
431.6525579
431.8646012
432.1049933
432.3715269
432.6626425
432.9766961
433.3118217
433.6664144
434.0392288
434.428446
434.8329225
435.2513784
435.6822602
436.124846
436.5774293
437.039519
437.5096711
437.9872808
438.4711666
438.9606832
439.4548578
439.9530958
440.4545349
440.9586631
441.4647088
441.9722332
442.4805058
442.9892195
443.497689
444.0056978
444.51257
445.0181873
445.521904
446.0236925
446.5229288
447.0196205
447.5132194
448.0037673
448.4907739
448.9742534
449.4538079
449.9294303
450.4008831
450.868046
451.3308234
431.3027082
431.3389075
431.4164899
431.5310909
431.6802095
431.8616447
432.0733362
432.3130792
432.5790956
432.8697142
433.1831769
433.5174705
433.8714334
434.2434413
434.6317845
435.0355002
435.4528674
435.8829038
436.324359
436.7759867
437.2370006
437.7060121
438.1825513
438.6651513
439.1535615
439.646359
440.1434402
440.6434405
441.1463636
441.6509312
442.1571876
442.6639548
443.1713534
443.6783185
444.1849682
444.6903357
445.194567
445.6967893
446.1971894
446.6949373
447.1902529
447.6823792
448.1715969
448.6571342
449.139333
449.6174234
450.0918106
450.5618619
451.0278329
451.4892629
431.5090835
431.5452346
431.6227129
431.7371588
431.8860735
432.0672573
432.2784577
432.5177454
432.783379
433.073571
433.3862776
433.7200632
434.0734752
434.4446041
434.8323104
435.2352249
435.651707
436.0809762
436.521346
436.9721276
437.4319902
437.9000796
438.3753906
438.8569819
439.344097
439.835817
440.331542
440.8303957
441.3319088
441.8352676
442.3400562
442.8455751
443.3514771
443.8571549
444.3622781
444.8663302
445.3690204
445.869919
446.3687737
446.8651894
447.3589749
447.8497859
448.3374952
448.8217348
449.3024637
449.779285
450.2523188
450.7210908
451.1858348
451.64597
431.7119416
431.7480558
431.8254541
431.9397802
432.0885363
432.2693436
432.4801873
432.7192068
432.9845342
433.2742065
433.5864255
433.919793
434.2725726
434.6430933
435.0302568
435.4323059
435.848157
436.2765729
436.7161297
437.1661294
437.6249492
438.0921945
438.5663525
439.0470039
439.5328911
440.023593
440.5180095
441.0157733
441.5159148
442.0181058
442.5214606
443.025758
443.5301865
444.0345936
444.5382044
445.0409499
445.5421059
446.0416827
446.5389925
447.0340727
447.5263258
448.015816
448.5020122
448.984948
449.4641907
449.9397526
450.4113641
450.878923
451.3423037
451.8012909
431.9113895
431.9474801
432.0248262
432.1390736
432.2875169
432.4681012
432.6787878
432.9176213
433.1826863
433.4718789
433.7838206
434.1168753
434.4690262
434.839157
435.2257814
435.6271864
436.0425167
436.4700945
436.9090419
437.3581244
437.8162436
438.2825564
438.7558304
439.2355139
439.7203658
440.2100401
440.703297
441.1999627
441.6988497
442.1998534
442.7018803
443.2049191
443.7079706
444.2110503
444.7132413
445.21461
445.7143208
446.2124975
446.7083385
447.2020165
447.6927947
448.1809173
448.6656281
449.1472503
449.6249986
450.0992924
450.5694754
451.0358166
451.4978337
451.9556754
432.1075382
432.1436204
432.2208402
432.3348854
432.4832712
432.6638008
432.8744167
433.1131607
433.37784
433.6669016
433.9786853
434.3113232
434.6632053
435.0330768
435.4191281
435.8201902
436.2350125
436.6620063
437.1004725
437.5487649
438.0063037
438.4717201
438.9442962
439.4229822
439.9070308
440.3955976
440.8879493
441.3834136
441.8812851
442.3809899
442.881913
443.3835797
443.885445
444.3870806
444.8880176
445.3878892
445.8863019
446.3829447
446.8774493
447.3695824
447.8590185
448.345599
448.8289706
449.3090688
449.78551
450.2583953
450.7272619
451.1923274
451.6530241
452.1097184
432.3002764
432.3363141
432.4135445
432.5276173
432.6760353
432.8565983
433.0672448
433.3057934
433.5704374
433.8595016
434.1712386
434.5035936
434.855406
435.2250682
435.6108134
436.0116919
436.4260175
436.8527378
437.2906881
437.7385374
438.1955806
438.6603046
439.1323194
439.6101393
440.0935076
440.5810824
441.0726348
441.5669937
442.0639374
442.5624224
443.0623114
443.5626655
444.0633954
444.5636281
445.0633443
445.5617438
446.0588754
446.5539929
447.0471644
447.5377499
448.0258367
448.5108625
448.9928802
449.4714342
449.9465542
450.4179529
450.8855435
451.3491859
451.8086814
452.264085
432.4898951
432.5259641
432.60326
432.7174267
432.8659624
433.0466619
433.2573072
433.4958993
433.7607073
434.0499323
434.3615509
434.6940407
435.0459657
435.4154431
435.801238
436.2020534
436.6161528
437.0427939
437.4803552
437.9280191
438.3845549
438.8489597
439.3203656
439.797711
440.2803825
440.7672936
441.2580448
441.7515679
442.2475784
442.7450813
443.2439169
443.7431627
444.2427173
444.741727
445.240165
445.7372487
446.2330275
446.7267439
447.2185154
447.7076414
448.1943236
448.6778377
449.1584784
449.6354799
450.1092586
450.5791463
451.0454383
451.5076339
451.9659089
452.4199567
432.6765859
432.7127111
432.790125
432.9044631
433.0532167
433.2340554
433.4448467
433.683758
433.9489035
434.2383514
434.5501786
434.8830129
435.2351487
435.6047887
435.9908645
436.3916598
436.8059672
437.2326566
437.670182
438.1178976
438.5741584
439.0384737
439.5094721
439.9865853
440.4686934
440.9552203
441.4452573
441.9382256
442.4333594
442.9301515
443.4279655
443.926345
444.4247303
444.92273
445.4198695
445.9158243
446.4101934
446.902671
447.3929536
447.8807707
448.365907
448.8480603
449.3271209
449.8027556
450.2750274
450.7435194
451.2084189
451.6692036
452.1262304
452.5788933
432.8604824
432.8966925
432.9742861
433.088886
433.2378509
433.4189538
433.6302033
433.8696195
434.1353074
434.425061
434.7374751
435.0709045
435.423368
435.7935899
436.1801855
436.5812929
436.9961019
437.4229918
437.8609281
438.3087777
438.765275
439.2296945
439.7006824
440.1778146
440.6596768
441.1460933
441.6356758
442.1283433
442.6228389
443.11915
443.6161523
444.1138654
444.6112596
445.1084165
445.6044018
446.0993592
446.5924251
447.0837588
447.5726241
448.0591925
448.542819
449.0236388
449.5011262
449.9753943
450.4460937
450.913215
451.3765662
451.8360258
452.2915989
452.743004
433.0417247
433.0780533
433.1558898
433.270695
433.4200469
433.6017181
433.8136191
434.0537589
434.3199902
434.6105546
434.9238376
435.258009
435.6112685
435.9824015
436.3696357
436.7716337
437.1872565
437.6147675
438.0534911
438.5018078
438.958968
439.4237289
439.8952387
440.372549
440.8547688
441.3411968
441.8309334
442.3234338
442.8178599
443.3138177
443.810526
444.307677
444.8045536
445.3009443
445.7962007
446.2902027
446.7823253
447.2725404
447.7602749
448.245599
448.7279157
449.2074032
449.6834288
450.15635
450.6254813
451.0912209
451.5529884
452.0110846
452.4651187
452.9152405
433.2203603
433.256795
433.3348644
433.4501607
433.600146
433.7825795
433.9953584
434.2363557
434.5035178
434.7952241
435.1097108
435.4448702
435.7994158
436.1718275
436.5601474
436.9634689
437.3801433
437.8089482
438.2487975
438.6981947
439.1565038
439.6221123
440.0946526
440.5726471
441.0557385
441.5426769
442.0330826
442.5258847
443.0207676
443.5168094
444.013735
444.5107227
445.0075632
445.5035373
445.9985052
446.4918322
446.9834015
447.4727007
447.9596455
448.4438242
448.9251259
449.4032608
449.878099
450.3495345
450.8173427
451.2815642
451.7418723
452.1985101
452.6509911
453.0997551
433.3964942
433.4331318
433.5116325
433.6275622
433.778366
433.9617873
434.1756712
434.4177276
434.6862899
434.9795038
435.2953849
435.6321631
435.9884478
436.3623817
436.7525304
437.1576955
437.5759832
438.0066583
438.4480921
438.8993158
439.3591542
439.826515
440.3005518
440.7801099
441.264615
441.7529032
442.2445638
442.7384909
443.2344343
443.7313567
444.2290951
444.7266836
445.2240575
445.7203298
446.2155342
446.7088216
447.2003117
447.6892286
448.1757958
448.659231
449.1398564
449.6169015
450.0907806
450.5608807
451.0274828
451.4901623
451.949095
452.4040604
452.8550896
453.3022241
433.5704409
433.6073331
433.686376
433.8031029
433.9549389
434.1396088
434.3546865
434.5983689
434.868721
435.1638522
435.4815577
435.8205162
436.1790409
436.5551142
436.9477046
437.3551041
437.7759428
438.209123
438.652963
439.1067962
439.5689721
440.0389336
440.5152599
440.9973643
441.4840777
441.9747937
442.4685199
442.9647198
443.4625487
443.9615258
444.4608974
444.9602626
445.458962
445.9566826
446.4528449
446.9471792
447.4392182
447.9287528
448.4154152
448.8989946
449.379246
449.8559638
450.3290937
450.7983648
451.2638742
451.7252721
452.1828681
452.6361703
453.085678
453.5309635
433.7423665
433.7795727
433.8592846
433.9769966
434.1301101
434.3160939
434.5329547
434.7786668
435.0512619
435.3485708
435.6688904
436.0106256
436.3718051
436.7509382
437.1467099
437.5571279
437.9813556
438.4177234
438.8650998
439.3223081
439.7880798
440.2615859
440.7414869
441.227233
441.7174828
442.2118403
442.7090318
443.2088086
443.7099851
444.2123771
444.7148907
445.2174164
445.7189642
446.219499
446.7180973
447.2147884
447.7087543
448.2001119
448.6880723
449.1728546
449.6536864
450.1309517
450.6039542
451.0730632
451.5377586
451.9983414
452.4545088
452.9064536
453.3541514
453.7975969
433.9124422
433.9500298
434.0305552
434.1494663
434.3039197
434.4917656
434.7108293
434.9590364
435.23428
435.5344678
435.8580432
436.2031824
436.5678513
436.9508681
437.350438
437.765096
438.1936745
438.6343699
439.0864484
439.548206
440.018952
440.4972392
440.9823511
441.4730835
441.9687164
442.4681965
442.970896
443.4758757
443.9825895
444.4901457
444.9981087
445.5056337
446.0124083
446.5176144
447.0210226
447.5218878
448.0200801
448.5149136
449.0063067
449.4936733
449.977004
450.4558927
450.9303038
451.4000062
451.8649465
452.3251213
452.7804054
453.2310855
453.6769068
454.1183683
434.0808429
434.1188882
434.2003194
434.3205021
434.4768282
434.6669553
434.8886844
435.1399196
435.4182746
435.7221542
436.0497315
436.3988953
436.7681472
437.156016
437.5604408
437.9804908
438.4144164
438.8610014
439.3190006
439.7870622
440.2642892
440.7492733
441.2413782
441.7392181
442.2422734
442.74926
443.2597531
443.7725907
444.2873463
444.8029912
445.319095
445.8347805
446.3495982
446.8627846
447.3738814
447.8822755
448.3875102
448.8890607
449.3865102
449.8794448
450.3675898
450.8505829
451.3282848
451.8003815
452.2669619
452.7277075
453.1830135
453.632515
454.0767924
454.5155855
434.3686884
434.4905838
434.649142
434.8419926
435.0669119
435.3215399
435.6039365
435.912282
436.2445899
436.59886
436.973742
437.3673325
437.7781389
438.2048732
438.6456939
439.0997864
439.5653651
440.0417208
440.5272949
441.0213872
441.522643
442.0303996
442.543396
443.0611149
443.5823263
444.1066437
444.6327837
445.1605168
445.6885245
446.2166512
446.7436769
447.2693277
447.7925849
448.3130783
448.82992
449.3426754
449.8506138
450.3533567
450.8502959
451.3411168
451.8253385
452.3028439
452.7732492
453.2367504
453.6930224
454.1425649
454.5850462
455.0212579
)
;

boundaryField
{
    front_top
    {
        type            wedge;
    }
    front_middle
    {
        type            wedge;
    }
    front_bottom
    {
        type            wedge;
    }
    back_top
    {
        type            wedge;
    }
    back_middle
    {
        type            wedge;
    }
    back_bottom
    {
        type            wedge;
    }
    axis_top
    {
        type            symmetryPlane;
    }
    axis_middle
    {
        type            symmetryPlane;
    }
    axis_bottom
    {
        type            symmetryPlane;
    }
    wall_top
    {
        type            convectiveRadiativeHeatFlux;
        mode            convectiveRadiative;
        kappaMethod     fluidThermo;
        kappa           none;
        alphaAni        Anialpha;
        h               uniform 165;
        Ta              constant 513.15;
        emissivityNozzle 0.95;
        emissivityFilament 0.95;
        dNozzle         2;
        dFilament       1.65;
        refValue        uniform 513.15;
        refGradient     nonuniform List<scalar> 
23
(
5598.161897
5585.362181
5572.753937
5560.339594
5548.106496
5536.029919
5524.093611
5512.277372
5500.555394
5488.913044
5477.355407
5465.752822
5454.022872
5442.05131
5429.678405
5416.680153
5402.690557
5387.307549
5369.90264
5349.585952
5325.208242
5295.015912
5256.485788
)
;
        valueFraction   nonuniform List<scalar> 
23
(
0.003183148503
0.003182935297
0.003182725574
0.003182522227
0.003182324481
0.003182129526
0.003181937089
0.003181746835
0.003181558342
0.003181380694
0.003181237194
0.003181093336
0.003180948102
0.003180800088
0.003180647334
0.003180487104
0.003180277849
0.003180045795
0.003179783708
0.003179478401
0.003179164149
0.003178820444
0.003178386114
)
;
        value           nonuniform List<scalar> 
23
(
450.7378793
450.9078161
451.0750525
451.2396323
451.4017167
451.5615822
451.7194495
451.8755906
452.0303506
452.1841448
452.3374508
452.491215
452.6465269
452.8048926
452.9684138
453.1400317
453.3236957
453.525379
453.7532933
454.0189649
454.3383645
454.7341189
455.2378861
)
;
    }
    wall_middle
    {
        type            fixedValue;
        value           nonuniform 0();
    }
    wall_bottom
    {
        type            fixedValue;
        value           nonuniform 0();
    }
    inlet
    {
        type            fixedValue;
        value           nonuniform 0();
    }
    outlet
    {
        type            zeroGradient;
    }
    procBoundary6to5
    {
        type            processor;
        value           nonuniform List<scalar> 
51
(
434.2476078
434.286142
434.286142
434.5360407
434.6599541
434.8211466
435.0172176
435.2457833
435.5046099
435.7918452
436.1055397
436.4434205
436.8040361
437.185714
437.586406
438.0050671
438.4398557
438.8895712
439.3528487
439.8283795
440.3151292
440.8117852
441.3175278
441.8311228
442.3518004
442.8785051
443.4104598
443.9467992
444.4866162
445.0292623
445.5736647
446.1194122
446.6651977
447.2107334
447.7547384
448.2967987
448.8357716
449.3710143
449.9015921
450.4267586
450.9457516
451.4577499
451.9621958
452.4583599
452.945907
453.4243817
453.8936285
454.3535451
454.8041602
455.2459105
455.6789097
)
;
    }
    procBoundary6to7
    {
        type            processor;
        value           nonuniform List<scalar> 
51
(
429.509696
429.5466567
429.6258731
429.7428909
429.8951589
430.0804331
430.2963927
430.5411173
430.8128109
431.1096533
431.429505
431.7710083
432.1326288
432.5123028
432.9090821
433.3213732
433.7477508
434.1872592
434.6381784
435.3216221
435.3216221
435.7912217
436.2693826
436.7548078
437.2469742
437.7446218
438.2473544
438.7539744
439.2641572
439.7768615
440.2917862
440.8080264
441.3252995
441.8428468
442.3603413
442.8772031
443.3930987
443.9075858
444.4202883
444.9308897
445.4390079
445.9444383
446.4467978
446.9459309
447.4415013
447.9334037
448.4213483
448.9052054
449.3847678
449.8598777
450.3304874
)
;
    }
}


// ************************************************************************* //
