/*--------------------------------*- C++ -*----------------------------------*\
  =========                 |
  \\      /  F ield         | OpenFOAM: The Open Source CFD Toolbox
   \\    /   O peration     | Website:  https://openfoam.org
    \\  /    A nd           | Version:  7
     \\/     M anipulation  |
\*---------------------------------------------------------------------------*/
FoamFile
{
    version     2.0;
    format      ascii;
    class       volVectorField;
    location    "0.0009";
    object      U;
}
// * * * * * * * * * * * * * * * * * * * * * * * * * * * * * * * * * * * * * //

dimensions      [0 1 -1 0 0 0 0];

internalField   nonuniform List<vector> 
1167
(
(-7.459752436e-08 5.168768412e-20 -0.002164389239)
(-1.938743024e-07 7.203062536e-20 -0.002164391926)
(-3.058212726e-07 -1.529459483e-20 -0.002164403911)
(-4.211203669e-07 1.840316678e-20 -0.00216442085)
(-5.344442172e-07 1.984559733e-19 -0.002164442089)
(-6.449228653e-07 1.113203394e-19 -0.002164466969)
(-7.523275823e-07 2.138153122e-19 -0.002164494792)
(-8.563278497e-07 2.433132829e-19 -0.002164524852)
(-9.56616558e-07 2.539151836e-19 -0.002164556405)
(-1.052924214e-06 3.908211198e-19 -0.002164588674)
(-1.144851487e-06 3.646758929e-19 -0.002164620988)
(-1.231979032e-06 3.863109993e-19 -0.002164652748)
(-1.314020269e-06 4.263504322e-19 -0.002164683299)
(-1.390568611e-06 3.939729676e-19 -0.002164712111)
(-1.461216009e-06 3.761167193e-19 -0.002164738745)
(-1.525657784e-06 3.555986953e-19 -0.002164762729)
(-1.583518474e-06 3.966021303e-19 -0.002164783777)
(-1.634530485e-06 3.761185495e-19 -0.002164801586)
(-1.678410336e-06 3.634119293e-19 -0.002164815964)
(-1.01035881e-07 1.103705683e-19 -0.002165095271)
(-2.625390749e-07 2.766366837e-19 -0.002165096866)
(-4.140247562e-07 5.764433571e-19 -0.002165107876)
(-5.698893161e-07 2.918946704e-19 -0.002165123076)
(-7.228181252e-07 1.121547618e-19 -0.002165141867)
(-8.715310399e-07 2.427866155e-19 -0.002165163611)
(-1.015698007e-06 3.700928915e-19 -0.002165187539)
(-1.154947875e-06 2.788919035e-19 -0.002165212817)
(-1.288902982e-06 3.174021295e-19 -0.002165238576)
(-1.417093917e-06 2.423719179e-19 -0.002165264025)
(-1.5389822e-06 2.714567659e-19 -0.002165288467)
(-1.654165288e-06 3.427937754e-19 -0.002165311162)
(-1.76220448e-06 3.504153001e-19 -0.002165331434)
(-1.862557805e-06 3.562765029e-19 -0.002165348775)
(-1.954838113e-06 3.794908315e-19 -0.002165362647)
(-2.038610466e-06 4.389398892e-19 -0.002165372633)
(-2.113459883e-06 3.639029157e-19 -0.002165378424)
(-2.179073729e-06 3.326880159e-19 -0.002165379721)
(-2.235120814e-06 2.858081603e-19 -0.002165376411)
(-2.281370324e-06 3.103023866e-19 -0.002165368363)
(-2.317603154e-06 3.530067812e-19 -0.002165355614)
(-2.343689113e-06 3.780514937e-19 -0.002165338213)
(-2.359529332e-06 3.967565898e-19 -0.002165316331)
(-2.365102444e-06 3.940552221e-19 -0.002165290174)
(-2.360438661e-06 3.913534611e-19 -0.002165260038)
(-2.345643123e-06 3.891115739e-19 -0.002165226251)
(-2.320878997e-06 3.953716429e-19 -0.002165189211)
(-2.286364809e-06 4.016913659e-19 -0.002165149342)
(-2.242379552e-06 4.138062906e-19 -0.00216510712)
(-2.18925727e-06 4.278435619e-19 -0.002165063025)
(-2.127387517e-06 4.433631289e-19 -0.002165017581)
(-2.057203886e-06 4.613750851e-19 -0.002164971289)
(-1.979198314e-06 4.659150871e-19 -0.002164924685)
(-1.893893932e-06 4.667282199e-19 -0.002164878258)
(-1.801856598e-06 4.694560516e-19 -0.00216483252)
(-1.703677225e-06 4.727814001e-19 -0.002164787918)
(-1.599986719e-06 4.752396672e-19 -0.002164744907)
(-1.491432214e-06 4.770100337e-19 -0.002164703861)
(-1.37868448e-06 4.978292079e-19 -0.00216466515)
(-1.262420882e-06 5.099731176e-19 -0.002164629056)
(-1.143331483e-06 5.020448016e-19 -0.002164595843)
(-1.022109434e-06 4.972360436e-19 -0.002164565676)
(-8.994464507e-07 4.952952155e-19 -0.002164538699)
(-7.760257639e-07 4.960061792e-19 -0.002164514954)
(-6.525191222e-07 4.970637421e-19 -0.00216449445)
(-5.295853535e-07 4.977889115e-19 -0.002164477097)
(-4.078473288e-07 5.030026107e-19 -0.002164462765)
(-2.879200235e-07 5.002296698e-19 -0.002164451235)
(-1.705293851e-07 5.050840545e-19 -0.002164442245)
(-5.661915487e-08 5.074769257e-19 -0.002164435422)
(-1.335812087e-07 1.062583416e-19 -0.002165903179)
(-3.470425589e-07 2.519621505e-19 -0.002165903342)
(-5.47152429e-07 4.895828206e-19 -0.00216591293)
(-7.528777084e-07 6.347792476e-19 -0.0021659257)
(-9.544183428e-07 2.220355308e-19 -0.002165941133)
(-1.150060115e-06 3.075972812e-19 -0.002165958567)
(-1.339418829e-06 2.456908307e-19 -0.002165977099)
(-1.522021536e-06 1.328618479e-19 -0.00216599577)
(-1.697273998e-06 7.751153177e-20 -0.002166013672)
(-1.864509667e-06 -2.210206919e-20 -0.002166029994)
(-2.023166095e-06 7.818059552e-20 -0.002166043904)
(-2.172722785e-06 1.036809901e-19 -0.002166054574)
(-2.312528947e-06 1.796098217e-19 -0.002166061369)
(-2.442020867e-06 2.39549114e-19 -0.002166063692)
(-2.560702691e-06 3.42931291e-19 -0.002166060978)
(-2.668018483e-06 3.609130832e-19 -0.002166052871)
(-2.763560564e-06 2.941914927e-19 -0.00216603901)
(-2.846909588e-06 3.224647673e-19 -0.00216601919)
(-2.917722334e-06 3.525206798e-19 -0.0021659933)
(-2.975730958e-06 3.626230031e-19 -0.0021659613)
(-3.020711449e-06 3.843019477e-19 -0.0021659233)
(-3.052536297e-06 4.023039956e-19 -0.002165879429)
(-3.071126314e-06 4.399326432e-19 -0.002165829985)
(-3.076493252e-06 3.999037418e-19 -0.00216577526)
(-3.068717022e-06 3.755781132e-19 -0.002165715706)
(-3.04796148e-06 3.652982974e-19 -0.002165651754)
(-3.014459338e-06 3.819152897e-19 -0.002165583978)
(-2.968509982e-06 3.861741042e-19 -0.002165512924)
(-2.91048824e-06 4.004921977e-19 -0.002165439249)
(-2.840827874e-06 4.146761881e-19 -0.002165363574)
(-2.760031461e-06 4.303306849e-19 -0.002165286604)
(-2.668654825e-06 4.492035382e-19 -0.002165208996)
(-2.567318954e-06 4.634599279e-19 -0.00216513146)
(-2.456680777e-06 4.654550349e-19 -0.00216505465)
(-2.337449534e-06 4.718507386e-19 -0.002164979247)
(-2.210367395e-06 4.818479793e-19 -0.002164905861)
(-2.076221499e-06 4.954874687e-19 -0.002164835104)
(-1.935819993e-06 5.056689575e-19 -0.00216476751)
(-1.789999248e-06 5.068142949e-19 -0.002164703591)
(-1.639607002e-06 4.966665349e-19 -0.002164643778)
(-1.485509097e-06 4.782398934e-19 -0.002164588458)
(-1.328577601e-06 4.991717991e-19 -0.002164537932)
(-1.169682055e-06 5.041270627e-19 -0.002164492446)
(-1.009687827e-06 5.204865461e-19 -0.002164452153)
(-8.494497131e-07 5.340325904e-19 -0.002164417144)
(-6.898087603e-07 5.508298111e-19 -0.002164387409)
(-5.315605974e-07 5.405855891e-19 -0.002164362873)
(-3.754930794e-07 5.339134412e-19 -0.002164343364)
(-2.225584722e-07 5.427477667e-19 -0.002164328649)
(-7.399731727e-08 5.438861533e-19 -0.002164318358)
(-1.735175184e-07 3.264896484e-20 -0.002166835302)
(-4.50712228e-07 -5.033944054e-21 -0.002166833667)
(-7.104263226e-07 -2.30331569e-19 -0.002166841349)
(-9.772600352e-07 -4.09026538e-21 -0.002166850866)
(-1.238397858e-06 2.033493655e-19 -0.002166861785)
(-1.491616039e-06 6.512899109e-20 -0.002166873374)
(-1.736435935e-06 -1.511776791e-19 -0.002166884615)
(-1.972152835e-06 -8.288446604e-20 -0.002166894489)
(-2.197918918e-06 -1.639731289e-19 -0.002166902058)
(-2.412972159e-06 -7.613698526e-20 -0.002166906386)
(-2.616661962e-06 -4.566980171e-20 -0.002166906504)
(-2.808210976e-06 -6.875609511e-20 -0.002166901599)
(-2.986836781e-06 -3.770586171e-20 -0.002166890988)
(-3.151929907e-06 6.829085282e-20 -0.002166873981)
(-3.30280463e-06 1.195020089e-19 -0.002166850079)
(-3.438853542e-06 1.971172715e-19 -0.002166818893)
(-3.559579479e-06 2.444000601e-19 -0.002166780087)
(-3.66448265e-06 3.064137915e-19 -0.002166733548)
(-3.753209119e-06 4.042505017e-19 -0.002166679178)
(-3.825427769e-06 4.32427175e-19 -0.002166617079)
(-3.880943168e-06 3.857162503e-19 -0.002166547406)
(-3.91961414e-06 3.649541908e-19 -0.002166470455)
(-3.941402732e-06 3.556960241e-19 -0.002166386609)
(-3.94635527e-06 3.552652247e-19 -0.002166296341)
(-3.934620029e-06 3.559157066e-19 -0.002166200219)
(-3.90643133e-06 3.588031689e-19 -0.00216609887)
(-3.862110603e-06 3.670943346e-19 -0.00216599301)
(-3.802059125e-06 3.781982619e-19 -0.00216588339)
(-3.726767606e-06 3.842179111e-19 -0.002165770827)
(-3.636796374e-06 3.919297305e-19 -0.002165656158)
(-3.532782943e-06 3.990362655e-19 -0.002165540257)
(-3.415435642e-06 3.901880572e-19 -0.002165424001)
(-3.285527746e-06 4.255356249e-19 -0.002165308276)
(-3.143884472e-06 4.419121602e-19 -0.002165193959)
(-2.991385426e-06 4.568542302e-19 -0.002165081904)
(-2.828959444e-06 4.719955248e-19 -0.002164972942)
(-2.657579986e-06 4.875586162e-19 -0.002164867853)
(-2.478256263e-06 4.860621426e-19 -0.002164767384)
(-2.292022548e-06 4.949982612e-19 -0.002164672207)
(-2.099938007e-06 5.006561526e-19 -0.002164582953)
(-1.903080545e-06 5.334546798e-19 -0.002164500154)
(-1.702539891e-06 5.197021376e-19 -0.00216442429)
(-1.499405882e-06 5.16462812e-19 -0.002164355735)
(-1.294763237e-06 5.227359445e-19 -0.002164294794)
(-1.08969358e-06 5.242693511e-19 -0.002164241657)
(-8.85256064e-07 5.143678181e-19 -0.002164196434)
(-6.824607028e-07 5.072493952e-19 -0.002164159117)
(-4.823015799e-07 5.093046154e-19 -0.002164129612)
(-2.860110852e-07 4.998644121e-19 -0.002164107721)
(-9.517570492e-08 4.94347329e-19 -0.002164093104)
(-2.223843427e-07 1.940519644e-20 -0.002167918424)
(-5.775443816e-07 -2.47572422e-20 -0.002167914526)
(-9.101760465e-07 -1.366434783e-19 -0.002167919671)
(-1.251799698e-06 -3.019992415e-19 -0.002167924859)
(-1.585901515e-06 -5.858001902e-20 -0.002167929755)
(-1.909620866e-06 -6.828126065e-20 -0.0021679336)
(-2.222274621e-06 -1.80380462e-19 -0.002167935303)
(-2.522874903e-06 -1.111264304e-19 -0.002167933793)
(-2.810393906e-06 -9.794521721e-20 -0.002167928006)
(-3.083963839e-06 -8.135176261e-20 -0.002167916829)
(-3.342657673e-06 -8.397297869e-20 -0.002167899256)
(-3.58545524e-06 -8.47913147e-20 -0.002167874466)
(-3.811521106e-06 -9.973528247e-20 -0.002167841652)
(-4.020036399e-06 -3.323011647e-20 -0.002167800124)
(-4.210151242e-06 -1.974637585e-20 -0.002167749426)
(-4.381214579e-06 1.275931211e-19 -0.002167689124)
(-4.532571637e-06 1.634245716e-19 -0.002167618996)
(-4.663685639e-06 2.098897674e-19 -0.002167538954)
(-4.774133312e-06 2.537059698e-19 -0.002167449009)
(-4.863561551e-06 2.634010971e-19 -0.002167349381)
(-4.931765539e-06 3.110896843e-19 -0.002167240322)
(-4.978611411e-06 2.920793231e-19 -0.002167122316)
(-5.004106715e-06 2.7217422e-19 -0.00216699586)
(-5.00835132e-06 2.990437692e-19 -0.002166861647)
(-4.991576801e-06 3.170901406e-19 -0.002166720384)
(-4.954109389e-06 3.311366051e-19 -0.002166572938)
(-4.89638299e-06 3.421475383e-19 -0.002166420187)
(-4.818929496e-06 3.486512358e-19 -0.002166263136)
(-4.722379532e-06 3.445747893e-19 -0.00216610278)
(-4.607453409e-06 3.640048534e-19 -0.002165940219)
(-4.474956583e-06 3.728111821e-19 -0.00216577652)
(-4.325783073e-06 3.742219847e-19 -0.002165612825)
(-4.160893119e-06 4.081148027e-19 -0.002165450225)
(-3.981318938e-06 4.240825353e-19 -0.002165289861)
(-3.788150776e-06 4.407227704e-19 -0.002165132798)
(-3.582544647e-06 4.590676587e-19 -0.002164980122)
(-3.365701757e-06 4.805678805e-19 -0.00216483283)
(-3.138871431e-06 4.76425471e-19 -0.002164691913)
(-2.903334637e-06 4.99329317e-19 -0.002164558258)
(-2.660406644e-06 5.135177952e-19 -0.002164432722)
(-2.411426183e-06 5.207563666e-19 -0.00216431604)
(-2.157745654e-06 5.17544032e-19 -0.002164208899)
(-1.900722831e-06 5.185741482e-19 -0.002164111851)
(-1.641712432e-06 5.094228742e-19 -0.002164025378)
(-1.382066544e-06 5.011698013e-19 -0.002163949815)
(-1.123106057e-06 4.909711018e-19 -0.002163885411)
(-8.660977226e-07 4.818787085e-19 -0.002163832259)
(-6.122812147e-07 4.759788053e-19 -0.002163790362)
(-3.632248675e-07 4.563310608e-19 -0.002163759578)
(-1.209249362e-07 4.512798666e-19 -0.002163739608)
(-2.820613998e-07 2.461326962e-20 -0.002169184243)
(-7.324041732e-07 1.420050122e-21 -0.002169177486)
(-1.154064075e-06 -4.472616474e-20 -0.002169179262)
(-1.5870675e-06 -8.242734933e-20 -0.002169178768)
(-2.01031024e-06 -5.150268854e-20 -0.002169175829)
(-2.420085651e-06 -5.886380634e-20 -0.002169169711)
(-2.815479507e-06 -8.347430372e-20 -0.002169159243)
(-3.195266064e-06 -7.398403993e-20 -0.002169143212)
(-3.558247651e-06 -6.814751729e-20 -0.002169120358)
(-3.903250756e-06 -7.642955547e-20 -0.002169089465)
(-4.229003706e-06 -1.477346583e-19 -0.00216904953)
(-4.534357142e-06 -7.956187549e-20 -0.002168999613)
(-4.818287048e-06 -6.716017173e-20 -0.00216893882)
(-5.079700217e-06 -4.482041398e-20 -0.002168866532)
(-5.317659223e-06 -3.960148047e-20 -0.002168782244)
(-5.531340941e-06 -5.954841533e-20 -0.002168685568)
(-5.719951536e-06 5.46687574e-20 -0.002168576394)
(-5.88290717e-06 1.163720943e-19 -0.002168454667)
(-6.019675898e-06 1.448238939e-19 -0.002168320581)
(-6.129917656e-06 1.414609622e-19 -0.002168174442)
(-6.213391873e-06 2.003900392e-19 -0.002168016716)
(-6.269996526e-06 2.169132139e-19 -0.00216784803)
(-6.299779462e-06 2.399886962e-19 -0.002167669103)
(-6.302923573e-06 2.639039556e-19 -0.002167480823)
(-6.279754853e-06 2.856287783e-19 -0.002167284127)
(-6.230722474e-06 3.05649796e-19 -0.002167080117)
(-6.156398853e-06 3.249586618e-19 -0.002166869915)
(-6.057482786e-06 3.450605234e-19 -0.002166654779)
(-5.934778976e-06 3.687173546e-19 -0.002166435965)
(-5.789206678e-06 3.687780584e-19 -0.002166214835)
(-5.621782345e-06 3.73852473e-19 -0.002165992731)
(-5.433627072e-06 3.826460185e-19 -0.002165771065)
(-5.225935623e-06 3.86856114e-19 -0.002165551215)
(-4.999992745e-06 4.025639098e-19 -0.002165334589)
(-4.757151017e-06 4.167825238e-19 -0.002165122547)
(-4.498842178e-06 4.306959228e-19 -0.002164916445)
(-4.226549096e-06 4.286627491e-19 -0.002164717574)
(-3.941812787e-06 4.61236806e-19 -0.00216452719)
(-3.646216738e-06 4.659221932e-19 -0.002164346467)
(-3.341386858e-06 4.758316915e-19 -0.002164176515)
(-3.028978318e-06 4.688386175e-19 -0.002164018343)
(-2.710662775e-06 4.856935387e-19 -0.002163872871)
(-2.388120205e-06 4.873897131e-19 -0.002163740893)
(-2.063033159e-06 4.889106543e-19 -0.002163623093)
(-1.737076036e-06 4.909519467e-19 -0.002163520008)
(-1.411888493e-06 4.93854522e-19 -0.002163432044)
(-1.089041272e-06 4.994271407e-19 -0.002163359441)
(-7.700724956e-07 4.953950574e-19 -0.002163302307)
(-4.56946328e-07 4.857254717e-19 -0.002163260587)
(-1.521533471e-07 4.872441207e-19 -0.002163234031)
(-3.548024652e-07 3.172231735e-20 -0.002170670146)
(-9.211368715e-07 2.38033013e-20 -0.002170659824)
(-1.451293798e-06 7.675839484e-23 -0.002170657254)
(-1.99566977e-06 -1.733929292e-20 -0.002170649504)
(-2.527499307e-06 -2.140060144e-20 -0.002170636657)
(-3.04207432e-06 -3.193021468e-20 -0.002170617989)
(-3.538284387e-06 -4.435120019e-20 -0.002170592168)
(-4.014654063e-06 -4.383574629e-20 -0.00217055777)
(-4.469637116e-06 -2.516101593e-20 -0.002170513393)
(-4.901626235e-06 2.60595837e-20 -0.002170457796)
(-5.309084136e-06 2.063953095e-22 -0.002170389856)
(-5.690692639e-06 8.053332973e-21 -0.002170308485)
(-6.045082115e-06 -6.475000276e-20 -0.002170212816)
(-6.370922036e-06 -3.832159105e-20 -0.002170102224)
(-6.667132248e-06 -3.75530745e-20 -0.00216997617)
(-6.932642841e-06 -7.286319438e-20 -0.002169834405)
(-7.16656631e-06 2.805098015e-20 -0.002169676863)
(-7.368183541e-06 8.595186476e-20 -0.002169503629)
(-7.53688864e-06 1.136648322e-19 -0.00216931507)
(-7.672302464e-06 1.294337422e-19 -0.002169111629)
(-7.774159759e-06 1.4798292e-19 -0.00216889404)
(-7.842414653e-06 1.746946508e-19 -0.002168663098)
(-7.877158584e-06 2.063532128e-19 -0.002168419819)
(-7.878688488e-06 2.352104786e-19 -0.002168165299)
(-7.847440336e-06 2.589590547e-19 -0.002167900797)
(-7.784024595e-06 2.807620245e-19 -0.002167627654)
(-7.689187469e-06 3.023771513e-19 -0.002167347329)
(-7.563834325e-06 3.256295916e-19 -0.002167061341)
(-7.408992181e-06 3.541170472e-19 -0.002166771295)
(-7.225825986e-06 3.543469699e-19 -0.002166478831)
(-7.015618332e-06 3.60693268e-19 -0.002166185646)
(-6.779766913e-06 3.709129088e-19 -0.002165893443)
(-6.519765462e-06 3.617400049e-19 -0.002165603964)
(-6.237204636e-06 3.888679688e-19 -0.002165318916)
(-5.933765786e-06 3.963785342e-19 -0.002165040024)
(-5.611212303e-06 4.039497751e-19 -0.002164768953)
(-5.271378386e-06 3.918953539e-19 -0.002164507357)
(-4.916161821e-06 4.034787408e-19 -0.002164256802)
(-4.547514293e-06 4.032936189e-19 -0.002164018818)
(-4.167437841e-06 4.075654246e-19 -0.002163794816)
(-3.777968445e-06 4.315913587e-19 -0.002163586139)
(-3.381165198e-06 4.458584341e-19 -0.002163393988)
(-2.979094688e-06 4.557843172e-19 -0.002163219458)
(-2.57383183e-06 4.6421182e-19 -0.002163063475)
(-2.167436371e-06 4.743152775e-19 -0.002162926827)
(-1.761936512e-06 4.780257104e-19 -0.00216281011)
(-1.359264056e-06 4.888091048e-19 -0.002162713753)
(-9.613212975e-07 4.95455846e-19 -0.00216263799)
(-5.705355896e-07 4.98531467e-19 -0.002162582893)
(-1.899819451e-07 4.837835701e-19 -0.002162548263)
(-4.432808231e-07 3.563921291e-20 -0.002172420435)
(-1.150648392e-06 3.544126937e-20 -0.002172405746)
(-1.812705392e-06 2.333984355e-20 -0.002172397748)
(-2.492488107e-06 1.482727604e-20 -0.002172380961)
(-3.156324751e-06 1.035773645e-20 -0.00217235577)
(-3.798358317e-06 -4.217603243e-21 -0.002172321426)
(-4.417268812e-06 -2.830754709e-20 -0.002172276379)
(-5.011180963e-06 -5.000495878e-20 -0.002172219025)
(-5.578021055e-06 -4.584060563e-20 -0.002172147884)
(-6.115795703e-06 -2.735370911e-20 -0.002172061607)
(-6.622738479e-06 4.912654756e-20 -0.002171958868)
(-7.097129148e-06 1.165745385e-21 -0.002171838502)
(-7.537209995e-06 -1.578089617e-20 -0.002171699682)
(-7.941472106e-06 9.297014725e-21 -0.002171541711)
(-8.308525123e-06 1.464707328e-20 -0.002171364112)
(-8.637057199e-06 2.321575094e-20 -0.002171166757)
(-8.926052646e-06 6.044121939e-20 -0.002170949643)
(-9.174599988e-06 1.104800038e-19 -0.00217071309)
(-9.382047908e-06 1.082589974e-19 -0.002170457612)
(-9.547929385e-06 1.162189727e-19 -0.002170183923)
(-9.671982657e-06 1.079876404e-19 -0.002169892994)
(-9.754194028e-06 1.842025211e-19 -0.002169585903)
(-9.794742107e-06 1.967954051e-19 -0.002169263979)
(-9.794038271e-06 2.299195941e-19 -0.002168928615)
(-9.7526776e-06 2.457906306e-19 -0.002168581434)
(-9.671457847e-06 2.614186107e-19 -0.002168224092)
(-9.551355113e-06 2.772877655e-19 -0.002167858436)
(-9.393524361e-06 2.949267418e-19 -0.002167486313)
(-9.199278761e-06 3.105339008e-19 -0.002167109733)
(-8.97008751e-06 3.245890887e-19 -0.00216673068)
(-8.707565654e-06 3.375452827e-19 -0.002166351257)
(-8.413453374e-06 3.497179927e-19 -0.002165973532)
(-8.089614158e-06 3.618816094e-19 -0.002165599655)
(-7.738020824e-06 3.682427719e-19 -0.002165231714)
(-7.36075735e-06 3.789850627e-19 -0.002164871842)
(-6.95999731e-06 3.727325829e-19 -0.002164522094)
(-6.538003097e-06 4.013348228e-19 -0.002164184536)
(-6.097107599e-06 4.127932084e-19 -0.002163861129)
(-5.639713102e-06 4.216729908e-19 -0.002163553802)
(-5.168277207e-06 4.092636564e-19 -0.002163264352)
(-4.685297393e-06 4.244253525e-19 -0.002162994506)
(-4.193298763e-06 4.347261508e-19 -0.002162745818)
(-3.694817612e-06 4.326726793e-19 -0.00216251973)
(-3.192397741e-06 4.256934797e-19 -0.002162317475)
(-2.688563028e-06 4.004095998e-19 -0.002162140133)
(-2.185798838e-06 4.08856514e-19 -0.002161988542)
(-1.686466581e-06 4.060079391e-19 -0.00216186335)
(-1.192905687e-06 4.3553959e-19 -0.00216176496)
(-7.080934427e-07 4.376810065e-19 -0.002161693594)
(-2.357741763e-07 4.470358724e-19 -0.002161649127)
(-5.50637028e-07 3.780120885e-20 -0.002174487719)
(-1.429061787e-06 3.953813572e-20 -0.002174467724)
(-2.251091329e-06 3.282976779e-20 -0.00217445302)
(-3.095178365e-06 3.786376749e-20 -0.002174425058)
(-3.919218489e-06 5.78975463e-20 -0.002174384568)
(-4.716001869e-06 4.150000441e-20 -0.002174330768)
(-5.48390804e-06 -1.220886337e-20 -0.002174261895)
(-6.220472669e-06 -9.944449276e-20 -0.00217417621)
(-6.923088779e-06 -8.894418262e-20 -0.002174072095)
(-7.589405588e-06 -6.644089376e-20 -0.002173947965)
(-8.217232531e-06 3.039998977e-20 -0.002173802331)
(-8.804319422e-06 3.837232268e-21 -0.002173634026)
(-9.34856955e-06 7.489503256e-20 -0.002173442148)
(-9.848155706e-06 9.678710863e-20 -0.00217322596)
(-1.030128969e-05 5.593905765e-20 -0.002172985135)
(-1.070645566e-05 4.729040184e-20 -0.002172719601)
(-1.106237734e-05 4.924949183e-20 -0.002172429532)
(-1.136795969e-05 4.801520628e-20 -0.002172115485)
(-1.162244782e-05 7.366181681e-20 -0.002171778176)
(-1.182527317e-05 9.015417184e-20 -0.00217141868)
(-1.197620681e-05 9.52813674e-20 -0.002171038226)
(-1.207524857e-05 1.541452585e-19 -0.002170638298)
(-1.21226953e-05 1.950453429e-19 -0.002170220557)
(-1.211908531e-05 2.41567743e-19 -0.002169786828)
(-1.206521966e-05 2.277919625e-19 -0.002169339114)
(-1.196212128e-05 2.529344357e-19 -0.002168879519)
(-1.181105709e-05 2.528322416e-19 -0.002168410294)
(-1.161348884e-05 2.73234444e-19 -0.002167933752)
(-1.137108827e-05 2.676092142e-19 -0.002167452319)
(-1.108570147e-05 3.032571242e-19 -0.002166968452)
(-1.075935615e-05 3.174255773e-19 -0.002166484688)
(-1.039421917e-05 3.300923073e-19 -0.002166003575)
(-9.992611124e-06 3.431614647e-19 -0.002165527703)
(-9.556978709e-06 3.324589647e-19 -0.002165059649)
(-9.08990026e-06 3.608692588e-19 -0.002164601998)
(-8.594055605e-06 3.919895394e-19 -0.002164157301)
(-8.072230727e-06 4.342852645e-19 -0.00216372808)
(-7.527291413e-06 4.434969598e-19 -0.002163316793)
(-6.962188342e-06 4.542549897e-19 -0.00216292582)
(-6.379931619e-06 4.702860787e-19 -0.002162557442)
(-5.783579195e-06 4.566781262e-19 -0.002162213816)
(-5.176216573e-06 4.444713248e-19 -0.002161896944)
(-4.560948283e-06 4.367623517e-19 -0.002161608657)
(-3.940876936e-06 4.311358483e-19 -0.00216135058)
(-3.31908739e-06 4.357453797e-19 -0.002161124121)
(-2.69860746e-06 4.275578458e-19 -0.00216093043)
(-2.08231713e-06 4.229111154e-19 -0.002160770403)
(-1.47307288e-06 4.19209501e-19 -0.002160644661)
(-8.745130232e-07 4.285827145e-19 -0.002160553597)
(-2.911462889e-07 4.394925217e-19 -0.002160497198)
(-6.805862597e-07 3.71640776e-20 -0.002176933951)
(-1.765992456e-06 3.864572893e-20 -0.002176907531)
(-2.781603318e-06 2.332975912e-20 -0.002176884566)
(-3.824609833e-06 3.324196085e-20 -0.002176842846)
(-4.842654879e-06 1.648514571e-19 -0.002176783521)
(-5.826873774e-06 1.580591591e-19 -0.002176705811)
(-6.775203039e-06 7.275146666e-20 -0.002176607763)
(-7.684542008e-06 5.28992604e-21 -0.002176487442)
(-8.551745581e-06 1.186649028e-19 -0.002176342962)
(-9.373968386e-06 1.107438871e-19 -0.002176172483)
(-1.014837774e-05 1.815011487e-19 -0.002175974417)
(-1.087218039e-05 8.007222071e-20 -0.002175747535)
(-1.154291847e-05 5.713978227e-20 -0.002175490805)
(-1.215824498e-05 -1.11952306e-20 -0.002175203557)
(-1.27159598e-05 3.588512814e-20 -0.002174885564)
(-1.321426348e-05 4.622339139e-20 -0.002174536844)
(-1.365153117e-05 4.022394965e-20 -0.002174157853)
(-1.402649651e-05 1.058597946e-20 -0.002173749367)
(-1.433821023e-05 5.197355215e-20 -0.002173312444)
(-1.458602749e-05 8.427288956e-20 -0.002172848521)
(-1.476969069e-05 1.260436027e-19 -0.002172359203)
(-1.488923921e-05 1.40370075e-19 -0.002171846456)
(-1.494509057e-05 1.635425651e-19 -0.002171312356)
(-1.493794887e-05 1.869340137e-19 -0.002170759272)
(-1.486885574e-05 2.249674143e-19 -0.002170189658)
(-1.473912149e-05 2.628472512e-19 -0.002169606183)
(-1.455035942e-05 2.436996298e-19 -0.002169011573)
(-1.430441763e-05 2.721448677e-19 -0.002168408721)
(-1.400340252e-05 2.637705638e-19 -0.002167800543)
(-1.364963179e-05 2.829806803e-19 -0.002167190077)
(-1.324563592e-05 3.020493642e-19 -0.002166580367)
(-1.279411802e-05 3.061942458e-19 -0.002165974544)
(-1.229795992e-05 3.319166298e-19 -0.002165375714)
(-1.176019606e-05 3.402540518e-19 -0.00216478704)
(-1.118400995e-05 3.381348663e-19 -0.00216421164)
(-1.057270747e-05 3.763898464e-19 -0.002163652654)
(-9.929714262e-06 3.637586577e-19 -0.002163113145)
(-9.258551372e-06 4.033104833e-19 -0.002162596156)
(-8.562835615e-06 4.05146216e-19 -0.002162104605)
(-7.846248982e-06 4.264708127e-19 -0.00216164134)
(-7.112529142e-06 4.329394764e-19 -0.002161209029)
(-6.365439568e-06 4.291642621e-19 -0.002160810203)
(-5.608767418e-06 4.301883382e-19 -0.002160447153)
(-4.846285368e-06 4.371692299e-19 -0.002160121966)
(-4.081752046e-06 4.521099948e-19 -0.002159836437)
(-3.318848576e-06 4.519439749e-19 -0.002159592092)
(-2.561083812e-06 4.372125771e-19 -0.002159390116)
(-1.811919512e-06 4.165857005e-19 -0.002159231404)
(-1.075787359e-06 4.014684012e-19 -0.002159116554)
(-3.580731098e-07 4.137441972e-19 -0.002159045702)
(-8.374735937e-07 4.139857495e-20 -0.002179831653)
(-2.172679197e-06 4.268278439e-20 -0.002179797478)
(-3.42195591e-06 -2.092022403e-20 -0.002179764409)
(-4.705227729e-06 -1.577466892e-19 -0.002179705891)
(-5.95759769e-06 -1.587310427e-19 -0.00217962362)
(-7.168181161e-06 3.613039353e-20 -0.002179516876)
(-8.334468826e-06 7.851712442e-20 -0.002179383441)
(-9.4526797e-06 2.888914629e-19 -0.002179221054)
(-1.051902246e-05 1.919018526e-19 -0.0021790275)
(-1.152989706e-05 1.05541248e-19 -0.002178800711)
(-1.248173219e-05 5.926315883e-21 -0.002178539005)
(-1.337122473e-05 3.452276771e-20 -0.002178240964)
(-1.419531428e-05 -1.856463797e-20 -0.00217790547)
(-1.495102615e-05 -1.036704821e-19 -0.002177531972)
(-1.563576624e-05 7.907911911e-21 -0.002177120286)
(-1.624725735e-05 7.368945626e-20 -0.002176670618)
(-1.678349533e-05 7.913119533e-20 -0.002176183724)
(-1.724296667e-05 4.708722677e-20 -0.002175660649)
(-1.76244662e-05 4.859779579e-20 -0.002175102918)
(-1.792727492e-05 6.083893158e-20 -0.00217451236)
(-1.815105099e-05 7.3953526e-20 -0.002173891128)
(-1.829589429e-05 1.012655856e-19 -0.002173241695)
(-1.836232707e-05 1.195111347e-19 -0.002172566728)
(-1.835126478e-05 1.244769807e-19 -0.00217186919)
(-1.8264014e-05 1.813736454e-19 -0.002171152149)
(-1.810224447e-05 2.073348795e-19 -0.002170418916)
(-1.786797015e-05 2.317083749e-19 -0.002169672847)
(-1.756352113e-05 2.263153089e-19 -0.002168917492)
(-1.719152556e-05 2.39343066e-19 -0.002168156406)
(-1.675488555e-05 2.558669949e-19 -0.002167393292)
(-1.625674251e-05 2.724683695e-19 -0.002166631837)
(-1.570046491e-05 3.041936805e-19 -0.002165875837)
(-1.50896221e-05 2.99765078e-19 -0.002165129049)
(-1.442797696e-05 3.324841907e-19 -0.002164395306)
(-1.371945433e-05 3.466033065e-19 -0.002163678383)
(-1.296813404e-05 3.104017775e-19 -0.002162982095)
(-1.217822365e-05 3.110737252e-19 -0.002162310169)
(-1.135405183e-05 3.19647767e-19 -0.002161666315)
(-1.050004628e-05 3.62855128e-19 -0.002161054109)
(-9.620711108e-06 3.722331833e-19 -0.002160477042)
(-8.72060699e-06 3.881533066e-19 -0.002159938407)
(-7.804325231e-06 3.880748612e-19 -0.002159441331)
(-6.876474955e-06 3.933678747e-19 -0.002158988666)
(-5.941643236e-06 4.068062315e-19 -0.002158583025)
(-5.004390536e-06 4.15524448e-19 -0.002158226671)
(-4.069178009e-06 4.189685891e-19 -0.002157921561)
(-3.140269823e-06 4.177836596e-19 -0.002157669232)
(-2.221849144e-06 4.130526336e-19 -0.002157470897)
(-1.319284573e-06 4.039912832e-19 -0.002157327402)
(-4.389820783e-07 4.05249021e-19 -0.002157239068)
(-1.026369072e-06 7.870666219e-20 -0.002183265446)
(-2.662233549e-06 1.444925477e-19 -0.002183221975)
(-4.192784639e-06 6.972239679e-20 -0.002183176679)
(-5.76538398e-06 1.702166442e-20 -0.002183097882)
(-7.299908116e-06 -1.722106328e-19 -0.002182988)
(-8.783153182e-06 -1.708370186e-19 -0.002182846323)
(-1.021215474e-05 4.323606048e-21 -0.002182670239)
(-1.158233434e-05 1.193390212e-19 -0.002182457084)
(-1.288899581e-05 -4.758099936e-20 -0.002182204301)
(-1.412761011e-05 -1.810689144e-20 -0.002181909633)
(-1.529386348e-05 -8.365535262e-20 -0.002181571141)
(-1.638379504e-05 4.395458894e-20 -0.002181187192)
(-1.739352693e-05 1.321642238e-19 -0.002180756671)
(-1.831941935e-05 7.819182969e-20 -0.00218027905)
(-1.915833228e-05 3.595580084e-20 -0.002179754216)
(-1.990737693e-05 -3.658574171e-20 -0.002179182677)
(-2.056415168e-05 -1.116524479e-20 -0.002178565457)
(-2.112673416e-05 1.221795918e-20 -0.002177904008)
(-2.159364283e-05 2.71051865e-20 -0.002177200358)
(-2.196398254e-05 3.751327385e-20 -0.002176456843)
(-2.223731094e-05 3.08557648e-20 -0.002175676294)
(-2.241378199e-05 7.08938523e-20 -0.002174861783)
(-2.249400898e-05 9.187353477e-20 -0.002174016741)
(-2.247914869e-05 1.031805168e-19 -0.002173144812)
(-2.237080138e-05 1.120536012e-19 -0.002172249875)
(-2.217105559e-05 1.074765161e-19 -0.002171335971)
(-2.188239495e-05 1.559110326e-19 -0.002170407283)
(-2.150772689e-05 1.650082072e-19 -0.002169468113)
(-2.105030476e-05 1.944977008e-19 -0.002168522842)
(-2.051373817e-05 2.133648703e-19 -0.002167575934)
(-1.990191373e-05 2.448856745e-19 -0.0021666319)
(-1.921901244e-05 2.820873746e-19 -0.002165695294)
(-1.846944738e-05 2.753916839e-19 -0.002164770693)
(-1.765787437e-05 2.662558283e-19 -0.002163862694)
(-1.678913155e-05 3.09331555e-19 -0.002162975894)
(-1.586824933e-05 3.086182729e-19 -0.002162114875)
(-1.490039781e-05 3.129197388e-19 -0.002161284179)
(-1.389089658e-05 3.418159699e-19 -0.002160488276)
(-1.284516644e-05 3.39169467e-19 -0.00215973154)
(-1.176871934e-05 3.415411219e-19 -0.002159018198)
(-1.066711773e-05 3.518704101e-19 -0.002158352291)
(-9.545964218e-06 3.739311405e-19 -0.002157737627)
(-8.410860176e-06 4.050115096e-19 -0.002157177732)
(-7.267385195e-06 4.015126885e-19 -0.002156675814)
(-6.121062393e-06 4.094398465e-19 -0.002156234707)
(-4.977297758e-06 4.167473281e-19 -0.002155856841)
(-3.841260236e-06 4.242024012e-19 -0.002155544191)
(-2.718004502e-06 4.468726459e-19 -0.002155298322)
(-1.614002987e-06 4.264338211e-19 -0.002155120391)
(-5.368399778e-07 4.236038453e-19 -0.002155010927)
(-1.25309735e-06 1.785119304e-19 -0.002187333739)
(-3.249688356e-06 4.546167661e-19 -0.002187279237)
(-5.11773622e-06 1.759647146e-19 -0.002187219369)
(-7.037645549e-06 1.192622212e-19 -0.002187116377)
(-8.91092821e-06 1.645820732e-19 -0.002186973534)
(-1.072172214e-05 -2.398709319e-20 -0.002186790076)
(-1.246655088e-05 -2.131673746e-20 -0.002186562911)