/*--------------------------------*- C++ -*----------------------------------*\
  =========                 |
  \\      /  F ield         | OpenFOAM: The Open Source CFD Toolbox
   \\    /   O peration     | Website:  https://openfoam.org
    \\  /    A nd           | Version:  7
     \\/     M anipulation  |
\*---------------------------------------------------------------------------*/
FoamFile
{
    version     2.0;
    format      ascii;
    class       volTensorField;
    location    "0.0021";
    object      grad(U);
}
// * * * * * * * * * * * * * * * * * * * * * * * * * * * * * * * * * * * * * //

dimensions      [0 0 -1 0 0 0 0];

internalField   nonuniform List<tensor> 
1166
(
(0.0009951177696 -3.223577505e-15 -6.232925776e-05 -1.562280568e-14 0.001627455151 0 4.812022204e-06 2.280564115e-15 0.01272509946)
(0.001316724773 -3.253174e-15 -0.0001473308864 -2.391667842e-15 0.001423505946 0 1.251359329e-05 -8.026422112e-16 0.01272531354)
(0.0009800843894 7.311075195e-15 -6.301593493e-05 2.527691235e-14 0.00160292001 -2.948118397e-13 4.769525525e-06 3.830825186e-15 0.01264145215)
(0.001296768482 6.280316304e-15 -0.0001487559242 2.007697939e-15 0.001402017941 0 1.248315483e-05 7.177713226e-16 0.01264176964)
(0.001261828998 2.237288216e-15 -0.0002425640556 -2.161358501e-16 0.001336620903 0 1.985077466e-05 -1.390516314e-15 0.0126424044)
(0.001265339531 3.739502502e-15 -0.0003358027648 -4.789389499e-16 0.001318567459 4.562171951e-14 2.742861779e-05 -3.128759845e-15 0.01264328816)
(0.00123763944 1.917347334e-15 -0.0004288953764 -1.643351104e-15 0.001304658615 7.296657042e-14 3.449236461e-05 -3.579788317e-15 0.0126444514)
(0.001198037475 -1.242017484e-15 -0.0005222260168 -1.086499125e-15 0.001289676211 0 4.093838071e-05 -1.576949234e-15 0.01264592739)
(0.001152086548 -3.442140577e-16 -0.0006156497838 -7.822931015e-16 0.001272973169 -2.67022712e-14 4.700400161e-05 -2.471035959e-16 0.01264772361)
(0.001101532644 8.087515432e-16 -0.0007092172441 -7.203349849e-16 0.00125467431 2.379429111e-14 5.280308671e-05 -7.205524061e-16 0.01264989893)
(0.001045568955 2.023612565e-15 -0.0008033529138 -7.826117129e-16 0.001234917198 0 5.808551608e-05 -6.269076796e-16 0.01265234268)
(0.0009840960237 1.805193825e-15 -0.0008982222499 -9.647698773e-16 0.001213592703 -1.985777597e-14 6.274834296e-05 4.220707564e-16 0.01265493684)
(0.0009183069174 1.545105294e-15 -0.0009936325671 -9.695911274e-16 0.00119079225 0 6.705627717e-05 2.106566895e-16 0.01265772477)
(0.0008487969793 1.219570382e-15 -0.001089576624 -1.056200883e-15 0.001166640968 0 7.105009558e-05 -1.428118166e-17 0.01266068614)
(0.0007761980934 7.869215399e-16 -0.001186019943 -1.008991272e-15 0.001141263069 0 7.477216923e-05 -7.9472466e-16 0.01266390193)
(0.0007008139867 1.464608641e-15 -0.001283145382 -1.017620544e-15 0.001114802623 0 7.80409988e-05 -1.292996699e-15 0.01266729935)
(0.0006227422948 2.141107327e-15 -0.001380864533 -1.063355877e-15 0.001087357518 0 8.087645528e-05 -1.271945297e-15 0.01267089915)
(0.0005423019043 7.191132994e-16 -0.001478969872 -1.140111981e-15 0.001059022883 0 8.336406279e-05 -1.468458154e-15 0.01267461128)
(0.0004598214916 -7.494325492e-16 -0.001577330941 -1.033207265e-15 0.001029888856 1.387546543e-14 8.546843995e-05 -1.926992088e-15 0.01267846295)
(0.0003759319965 -4.247252698e-16 -0.001675762096 -9.603354229e-16 0.001000044724 1.344797912e-14 8.715238897e-05 -1.996889338e-15 0.01268241356)
(0.000291015751 -1.34444769e-16 -0.001774067119 -8.970591447e-16 0.0009696029129 0 8.834995624e-05 -1.632656255e-15 0.01268647423)
(0.0002048608465 -6.473301521e-16 -0.001871692335 -8.623245448e-16 0.0009386488107 0 8.925888205e-05 -1.44521366e-15 0.01269054955)
(0.0001175849088 -1.315168594e-15 -0.001968168269 -7.746157517e-16 0.0009072394234 1.246690027e-14 8.991854324e-05 -1.427938175e-15 0.01269459547)
(2.947824867e-05 -1.249275372e-15 -0.002063080278 -6.949992527e-16 0.0008754425278 0 9.027725338e-05 -1.033527338e-15 0.01269861797)
(-5.879590392e-05 -3.993496285e-16 -0.002155948355 -6.239734241e-16 0.0008433163672 0 9.025971421e-05 -7.497120345e-16 0.01270259219)
(-0.0001469150869 3.703605487e-16 -0.002246212764 -6.154443467e-16 0.0008109527732 0 8.984856555e-05 -5.175446345e-16 0.01270649503)
(-0.000235078813 3.406285183e-16 -0.002333065664 -6.081123855e-16 0.0007784090213 0 8.915672184e-05 -3.294283546e-16 0.01271026773)
(-0.0003231267355 2.884248269e-16 -0.002415759924 -6.01850016e-16 0.0007457390068 0 8.817424783e-05 -1.652762313e-16 0.01271388152)
(-0.000411003087 1.900715192e-16 -0.002493534623 -5.882253833e-16 0.0007129924823 0 8.68548592e-05 -1.797623666e-17 0.01271730832)
(-0.0004982010147 5.200677589e-17 -0.00256545059 -5.770063506e-16 0.0006802110151 0 8.522124977e-05 -8.311630346e-17 0.01272052641)
(-0.0005845890677 -1.87379622e-16 -0.002630519107 -5.598720484e-16 0.0006474577682 0 8.332990242e-05 -2.138672777e-16 0.01272350324)
(-0.0006705048684 -4.569938322e-16 -0.002687655616 -5.368781802e-16 0.0006147673459 0 8.12366335e-05 -4.307840094e-16 0.01272620116)
(-0.0007553688008 1.300064794e-17 -0.002735844424 -5.10733178e-16 0.0005821711397 0 7.884480725e-05 -5.590621239e-16 0.0127286185)
(-0.000838925743 5.571425093e-16 -0.002774037574 -5.121405987e-16 0.0005497216866 0 7.610411232e-05 -6.900637349e-16 0.01273075065)
(-0.000921649451 4.605268995e-16 -0.002800866352 -5.12692127e-16 0.0005174515427 1.090902313e-14 7.318878789e-05 -9.108532945e-16 0.0127325584)
(-0.001003601 3.771398209e-16 -0.002815031959 -5.097199476e-16 0.000485380349 0 7.01222187e-05 -9.607824248e-16 0.01273402872)
(-0.001084572644 3.891920682e-16 -0.002815328298 -5.071990895e-16 0.0004535305501 0 6.68313875e-05 -9.595810011e-16 0.01273516384)
(-0.001164494432 1.151333785e-16 -0.002800366091 -5.050972746e-16 0.0004219246511 5.415912139e-15 6.337175071e-05 -9.806958676e-16 0.01273596704)
(-0.001243275721 -6.957424768e-16 -0.002768765524 -4.928160824e-16 0.0003905818974 5.411728348e-15 5.975473202e-05 -8.854740871e-16 0.01273644598)
(-0.001320588788 -1.181743362e-15 -0.002719186672 -4.610835551e-16 0.0003595225358 0 5.59357902e-05 -8.098908045e-16 0.01273661764)
(-0.00139647979 -9.147413659e-16 -0.002650201712 -4.309695627e-16 0.0003287723721 0 5.193346026e-05 -8.436718376e-16 0.012736507)
(-0.001471325828 -4.723835602e-16 -0.002560350296 -4.123278244e-16 0.0002983443981 5.421813062e-15 4.77966922e-05 -9.028872847e-16 0.01273613627)
(-0.001545005589 -3.559439188e-16 -0.002448115373 -4.005099204e-16 0.0002682463154 0 4.360272106e-05 -8.296007407e-16 0.01273552467)
(-0.001617510961 -5.605158551e-16 -0.002312075718 -3.868776572e-16 0.0002384918637 0 3.931570008e-05 -7.856806923e-16 0.01273471435)
(-0.001688864391 -5.801434861e-16 -0.002150880162 -3.70714673e-16 0.0002090862735 0 3.484944424e-05 -7.664520697e-16 0.01273374711)
(-0.001759000498 -4.002435429e-16 -0.001963032549 -3.573130016e-16 0.0001800395568 0 3.027811822e-05 -7.940551229e-16 0.01273267951)
(-0.001828227299 -2.325572443e-16 -0.001747031548 -3.483503552e-16 0.0001513567526 5.50373406e-15 2.567562783e-05 -7.77707556e-16 0.01273156221)
(-0.001896777936 -1.915966349e-16 -0.00150139433 -3.404832532e-16 0.0001230367923 -5.528719149e-15 2.110526089e-05 -6.757546454e-16 0.0127304535)
(-0.001964939963 -2.871120388e-16 -0.001224768678 -3.333671863e-16 9.507709167e-05 5.556345859e-15 1.652435132e-05 -7.125819741e-16 0.01272941524)
(-0.002027795287 -1.678868306e-16 -0.0009158189068 -3.239264379e-16 6.746872354e-05 -1.117307528e-14 1.184452758e-05 -6.263311946e-16 0.01272850432)
(-0.00206880027 -5.04513969e-17 -0.0005729990763 -3.197341484e-16 4.033454092e-05 -5.619226911e-15 7.148570672e-06 -5.557585353e-16 0.01272781538)
(-0.002189908726 -5.078399501e-17 -0.0001960478914 -3.147442762e-16 1.406623724e-05 0 2.549254724e-06 -5.727929956e-16 0.0127274309)
(0.0009661792573 8.489545034e-15 -6.352021775e-05 2.249086873e-14 0.001580402282 2.994031227e-13 4.844579412e-06 -6.400761434e-15 0.01256143117)
(0.001277913103 9.783233979e-15 -0.0001499475832 3.746949524e-17 0.001382201558 0 1.26729794e-05 -2.888636182e-15 0.012561694)
(0.00124259304 7.880496003e-15 -0.0002447114395 -3.261720685e-15 0.00131740491 0 1.996521154e-05 -1.840426802e-15 0.01256225239)
(0.001245533434 3.784081086e-15 -0.000339140022 -4.442621362e-15 0.001299182547 4.633221412e-14 2.722587141e-05 -1.688384043e-15 0.01256321292)
(0.001218795869 -4.084495048e-15 -0.0004331809474 -3.629613992e-15 0.001285205298 -3.705146147e-14 3.417810755e-05 7.927617159e-16 0.0125646367)
(0.001181286626 -7.158893197e-15 -0.0005271289134 -1.563812245e-15 0.001270471945 0 4.084746763e-05 4.503896391e-16 0.01256636004)
(0.001136674569 -3.798469839e-15 -0.0006213800797 -4.303412885e-16 0.001254302204 0 4.698985396e-05 3.164480506e-16 0.01256834683)
(0.001085975052 -1.650943693e-16 -0.0007160424769 -1.740388654e-16 0.001236435014 0 5.25719342e-05 4.194025887e-16 0.01257056257)
(0.001030798866 5.258184179e-16 -0.0008107976951 -2.836659212e-16 0.001216944317 2.192255874e-14 5.801405852e-05 8.250888809e-16 0.01257306931)
(0.0009708234134 1.404447425e-15 -0.0009060480847 -2.437178074e-16 0.001196029416 -2.016703312e-14 6.306844708e-05 1.565806689e-15 0.01257573939)
(0.0009059069496 2.491001163e-15 -0.001002067791 -4.694457837e-16 0.001173645642 0 6.752319584e-05 1.518253409e-15 0.01257853927)
(0.0008373271795 3.629076754e-15 -0.001098763166 -6.018876285e-16 0.001149899048 -3.521902466e-14 7.153069942e-05 1.773569969e-15 0.01258152548)
(0.0007657333438 3.86324089e-15 -0.001196130168 -9.210145262e-16 0.001124938303 0 7.510282651e-05 1.444425866e-15 0.01258471196)
(0.0006913687918 1.955867078e-15 -0.001294061862 -1.047015905e-15 0.001098894283 0 7.830605238e-05 1.277646706e-15 0.01258811071)
(0.0006142919695 1.495940895e-15 -0.001392439751 -1.048426324e-15 0.001071874651 0 8.117280624e-05 1.250526298e-15 0.01259162726)
(0.0005348285874 2.224344443e-15 -0.001491157731 -1.088395576e-15 0.001043960337 -1.459269486e-14 8.367673847e-05 1.386514354e-15 0.01259527669)
(0.0004536822788 1.984433825e-15 -0.001590121979 -1.174869757e-15 0.001015250618 0 8.573787144e-05 1.032329003e-15 0.01259903299)
(0.0003711963143 -2.185385819e-16 -0.001689127268 -1.18535405e-15 0.0009858599199 0 8.734060921e-05 8.226519173e-16 0.01260289423)
(0.0002872134477 -1.35831566e-15 -0.001787715078 -1.047197713e-15 0.0009558775101 0 8.864068006e-05 6.746268132e-16 0.01260677263)
(0.0002019037658 -6.182252755e-16 -0.001885484543 -9.611163539e-16 0.000925363612 0 8.966558872e-05 6.501505747e-16 0.01261062462)
(0.0001156988932 -9.605947005e-16 -0.001982132947 -9.118679636e-16 0.0008943923589 0 9.030888515e-05 4.942186059e-16 0.01261445861)
(2.910230746e-05 -1.355908763e-15 -0.00207719173 -8.163917189e-16 0.0008630349627 0 9.055671579e-05 1.599787496e-16 0.01261825436)
(-5.774347154e-05 -8.936526297e-16 -0.002170094522 -7.437687082e-16 0.0008313770025 0 9.04502884e-05 -1.083276698e-16 0.01262198409)
(-0.0001448172164 -5.474350228e-16 -0.002260136572 -6.98217445e-16 0.0007994745374 0 9.005363849e-05 -1.307056119e-16 0.01262558787)
(-0.0002318518162 -3.342290857e-16 -0.002346645144 -6.594284567e-16 0.0007673898549 0 8.935642996e-05 -1.372950354e-16 0.01262903835)
(-0.0003187936193 -2.015398504e-16 -0.002428870221 -6.325944233e-16 0.0007351776196 0 8.835704717e-05 -1.366388591e-16 0.01263230951)
(-0.0004052194256 -6.976678415e-17 -0.002506000686 -6.0865761e-16 0.0007028851411 0 8.7025006e-05 -1.373553439e-16 0.01263537763)
(-0.0004909657902 2.281239276e-16 -0.002577189741 -5.929685195e-16 0.0006705752413 0 8.535006356e-05 -1.511730137e-16 0.01263821714)
(-0.0005762927798 7.69880886e-16 -0.002641354509 -5.879593469e-16 0.0006382888613 -1.133308934e-14 8.345539374e-05 -1.875651416e-16 0.01264078565)
(-0.0006607796874 6.976879125e-16 -0.002697519102 -6.015486579e-16 0.0006060595046 0 8.128368333e-05 -2.750889751e-16 0.01264307466)
(-0.0007440414503 4.585513117e-16 -0.002744731326 -5.937602724e-16 0.0005739379051 0 7.874081868e-05 -3.96096427e-16 0.01264508844)
(-0.000826503587 9.354224335e-16 -0.002781699256 -5.961648355e-16 0.000541964908 0 7.59878796e-05 -3.805376594e-16 0.01264678474)
(-0.0009083557302 1.003952005e-15 -0.002807167292 -6.099354357e-16 0.0005101591408 0 7.309111462e-05 -3.404922979e-16 0.01264814107)
(-0.0009891535705 3.441996831e-16 -0.002819964654 -6.120228867e-16 0.0004785441652 0 6.999117652e-05 -3.051986495e-16 0.01264916543)
(-0.001068911682 -1.724497149e-16 -0.002818790759 -5.998269226e-16 0.0004471516727 0 6.670733776e-05 -2.76294572e-16 0.01264985664)
(-0.001147760489 -6.056086724e-16 -0.002802353575 -5.794338558e-16 0.0004159977983 -5.500257412e-15 6.323637758e-05 -2.419395862e-16 0.01265021911)
(-0.001225179254 -8.125273973e-16 -0.002769307346 -5.50137566e-16 0.0003851022275 -5.496008464e-15 5.959240378e-05 -3.074511153e-16 0.01265026927)
(-0.00130116474 -3.617184915e-16 -0.002718303772 -5.299839363e-16 0.0003544957797 0 5.576079483e-05 -5.671319419e-16 0.01265002739)
(-0.001376130538 2.176750758e-16 -0.002647990627 -5.195787357e-16 0.0003241922714 5.499210598e-15 5.172561431e-05 -8.027008549e-16 0.01264950215)
(-0.001450257604 2.402088379e-16 -0.002556865179 -5.175552588e-16 0.000294201788 0 4.760189961e-05 -9.079158507e-16 0.01264872291)
(-0.001523349743 8.833477429e-17 -0.002443501347 -5.091075521e-16 0.0002645287182 0 4.340672684e-05 -9.75850705e-16 0.01264772721)
(-0.001594624487 2.083762112e-16 -0.002306522532 -5.04292688e-16 0.0002351870223 0 3.911499579e-05 -1.067507149e-15 0.0126465716)
(-0.001664521022 2.365237368e-16 -0.002144567743 -5.007426315e-16 0.000206203098 5.54710431e-15 3.470208211e-05 -1.192172018e-15 0.0126452975)
(-0.001733860422 -8.415422747e-17 -0.001956263331 -4.960687016e-16 0.0001775732135 5.566842196e-15 3.014579646e-05 -1.261484487e-15 0.01264393909)
(-0.001802599209 -5.630180145e-16 -0.001740129739 -4.830723269e-16 0.0001492956645 0 2.554927321e-05 -1.303954193e-15 0.01264256063)
(-0.001871041415 -2.1684303e-16 -0.001494752208 -4.653886252e-16 0.0001213679911 0 2.095297696e-05 -1.348710818e-15 0.01264122839)
(-0.001938513441 4.709524454e-17 -0.001218718683 -4.635811796e-16 9.378005595e-05 5.642878192e-15 1.641238908e-05 -1.398302098e-15 0.01264002006)
(-0.002000212884 -3.352938924e-16 -0.0009107842048 -4.544996015e-16 6.654751368e-05 5.673540168e-15 1.182862238e-05 -1.434329174e-15 0.01263900093)
(-0.002040774231 -1.466534175e-16 -0.0005695944511 -4.427912204e-16 3.978222644e-05 0 7.123684823e-06 -1.432923154e-15 0.01263823361)
(-0.002159715063 7.618652181e-17 -0.0001948283404 -4.393379767e-16 1.386868354e-05 5.742411974e-15 2.529023672e-06 -1.46199902e-15 0.01263781336)
(0.0009511827912 -5.491212509e-15 -6.39859204e-05 -3.644466767e-14 0.001555890609 3.040659122e-13 4.910733847e-06 -4.55596069e-15 0.01248437025)
(0.001258555585 -3.986661941e-15 -0.000150988206 -7.360090373e-15 0.001360754 0 1.287530295e-05 -1.598812757e-15 0.01248472258)
(0.001224949206 -3.868374563e-16 -0.0002465501828 -3.860041022e-15 0.001297271709 0 2.019991026e-05 6.563645536e-16 0.01248547043)
(0.001228775308 -3.580932067e-15 -0.00034206438 -2.915013481e-15 0.001279885533 0 2.726639147e-05 2.651714492e-15 0.01248658228)
(0.00120194777 -3.154763828e-15 -0.0004372107404 -7.854579137e-16 0.001266539999 -3.762848672e-14 3.399618676e-05 3.414112335e-15 0.01248801275)
(0.0011639016 -1.075660662e-16 -0.0005321788739 -6.800907459e-16 0.001252061145 0 4.044558275e-05 1.309095189e-15 0.01248966232)
(0.0011202667 -3.503470348e-16 -0.0006271169748 -5.345375241e-16 0.001236026816 0 4.663013833e-05 -2.475653948e-16 0.01249162767)
(0.001070976651 -6.471552482e-16 -0.0007223485392 -4.253965722e-16 0.001218523397 2.454118816e-14 5.240078122e-05 -9.721178819e-16 0.01249379071)
(0.001015964621 -1.253903196e-15 -0.0008179905706 -2.717770052e-16 0.001199395472 0 5.772406695e-05 -5.505472327e-16 0.01249615101)
(0.0009568019139 -8.687725326e-17 -0.0009139694784 -9.750526898e-17 0.001178727868 0 6.276496978e-05 -4.104409318e-16 0.01249879972)
(0.0008935390122 9.215245621e-16 -0.001010607348 -2.000052717e-16 0.001156713576 0 6.732786173e-05 1.118356481e-16 0.01250164947)
(0.0008261915555 1.535823601e-15 -0.001108025248 -2.335890998e-16 0.001133380514 1.788375612e-14 7.132042468e-05 4.494695853e-16 0.0125046891)
(0.0007556045364 2.314419969e-15 -0.001206072469 -3.902487242e-16 0.001108845302 -3.382981533e-14 7.489124022e-05 1.702489892e-15 0.01250788274)
(0.0006820158655 2.054788473e-15 -0.001304589807 -5.031614837e-16 0.001083224233 -1.610116748e-14 7.813979698e-05 2.148201656e-15 0.01251119056)
(0.0006058004241 1.774833911e-15 -0.001403506145 -5.925751692e-16 0.001056607338 0 8.104040588e-05 1.982528331e-15 0.01251461114)
(0.0005276360994 1.48201891e-15 -0.001502806687 -6.476494399e-16 0.001029104073 0 8.347906837e-05 2.01423098e-15 0.01251815153)
(0.0004478331976 1.113677099e-15 -0.001602311082 -6.865512799e-16 0.001000834118 0 8.54585363e-05 2.179982831e-15 0.01252179289)
(0.0003662489022 7.583793313e-16 -0.001701615106 -6.924895196e-16 0.0009718901632 -1.387010793e-14 8.712699015e-05 2.236546594e-15 0.01252545975)
(0.0002831141431 4.188662429e-16 -0.001800373214 -6.963826529e-16 0.0009423345607 0 8.850902667e-05 1.583244269e-15 0.01252911075)
(0.0001990920553 -1.580004031e-17 -0.001898340797 -6.726634349e-16 0.0009122486964 0 8.9493867e-05 1.140627448e-15 0.01253275703)
(0.0001144488589 4.222614882e-16 -0.001995119311 -6.34121855e-16 0.0008817242393 0 9.006727047e-05 8.692309568e-16 0.01253637716)
(2.898042401e-05 8.954660878e-16 -0.002090163509 -6.506712277e-16 0.0008508330694 0 9.029007503e-05 5.135511141e-16 0.01253991738)
(-5.694137712e-05 6.316335011e-16 -0.00218283599 -6.541347254e-16 0.0008196230207 0 9.021450732e-05 2.652350897e-16 0.01254333741)
(-0.000142819005 4.624666987e-16 -0.002272563196 -6.511152044e-16 0.0007881703304 0 8.980699529e-05 9.818503129e-17 0.01254661564)
(-0.0002286121134 3.521622383e-16 -0.002358646038 -6.418551127e-16 0.000756537313 0 8.907992167e-05 -1.957678989e-17 0.01254972679)
(-0.0003140767089 2.812666275e-16 -0.002440339004 -6.323175499e-16 0.0007247801088 0 8.801656362e-05 -1.094405611e-16 0.01255264587)
(-0.0003991118209 2.440628498e-16 -0.002516869933 -6.209983538e-16 0.0006929569551 0 8.658458917e-05 -1.808562219e-16 0.01255535072)
(-0.0004838263454 2.569713899e-16 -0.002587212957 -6.121218245e-16 0.0006611127824 0 8.491241687e-05 -2.209911787e-16 0.01255779386)
(-0.0005679025548 3.354373222e-16 -0.002650434189 -6.013309368e-16 0.0006292842893 1.150958653e-14 8.298771978e-05 -1.511673382e-16 0.01255995635)
(-0.0006507888565 4.279287199e-16 -0.002705628903 -5.941794955e-16 0.0005975206215 -1.142609959e-14 8.072069267e-05 6.358593322e-17 0.01256184685)
(-0.0007328150329 4.553243654e-16 -0.002751632141 -5.93303702e-16 0.0005658740826 0 7.820775226e-05 7.626508258e-17 0.01256342993)
(-0.0008144139016 3.218307917e-16 -0.002787270552 -5.916577228e-16 0.000534364502 1.129804211e-14 7.550710443e-05 7.658301654e-17 0.01256467285)
(-0.0008951385048 1.388236065e-16 -0.002811379971 -5.796037471e-16 0.0005030132444 -1.125145473e-14 7.261492011e-05 2.553365469e-16 0.01256558316)
(-0.0009748472228 9.026586231e-17 -0.002822749316 -5.681608657e-16 0.0004718540134 -5.607679291e-15 6.952774715e-05 3.235287707e-16 0.01256615983)
(-0.001053571883 9.219076712e-17 -0.002820154447 -5.57266157e-16 0.0004409073902 -5.594515145e-15 6.622394652e-05 1.868718956e-16 0.01256639443)
(-0.001131226701 2.560359027e-16 -0.002802287583 -5.502727617e-16 0.0004101980327 0 6.273394764e-05 -4.000624103e-17 0.01256630851)
(-0.001207658005 8.539204248e-16 -0.002767846016 -5.491663283e-16 0.0003797440974 5.581601193e-15 5.905921838e-05 -3.501936888e-16 0.01256592195)
(-0.001282398259 1.214031547e-15 -0.002715457821 -5.614023635e-16 0.0003495700275 1.116264117e-14 5.524891358e-05 -4.797535705e-16 0.01256526019)
(-0.001356134948 7.650061843e-16 -0.00264374836 -5.733473556e-16 0.0003197053795 5.584853195e-15 5.133437467e-05 -4.968936217e-16 0.01256433466)
(-0.001429415404 4.014270797e-16 -0.002551407501 -5.693029852e-16 0.0002901443461 0 4.725973266e-05 -4.197309165e-16 0.01256316016)
(-0.001501443106 4.656313882e-16 -0.002437074955 -5.655938303e-16 0.0002608935174 0 4.303138982e-05 -3.923034192e-16 0.01256180016)
(-0.001571981409 5.765081143e-16 -0.0022993724 -5.642522694e-16 0.0002319725646 0 3.867250877e-05 -3.56126781e-16 0.012560305)
(-0.001641058881 4.539159348e-16 -0.002136857482 -5.663063122e-16 0.0002033924699 0 3.426926503e-05 -3.060599288e-16 0.01255872187)
(-0.00170930597 2.048618752e-16 -0.001948182889 -5.6142007e-16 0.0001751677035 -5.653538062e-15 2.982888157e-05 -2.566872184e-16 0.01255709307)
(-0.001777377717 2.414622709e-16 -0.001732050351 -5.56077538e-16 0.0001472877622 0 2.529683778e-05 -3.023933698e-16 0.01255546629)
(-0.001845291081 3.361678938e-16 -0.001487093882 -5.530333242e-16 0.0001197467283 5.702264307e-15 2.072263175e-05 -3.727024794e-16 0.01255391792)
(-0.001912541324 2.049362709e-16 -0.001211998516 -5.498505806e-16 9.253498348e-05 0 1.611666372e-05 -3.35104984e-16 0.01255252681)
(-0.00197343685 2.769758745e-17 -0.0009053902376 -5.435188542e-16 6.566078345e-05 -5.761897707e-15 1.154583579e-05 -3.35132489e-16 0.01255138469)
(-0.002013370865 1.14323793e-16 -0.0005659500191 -5.364408719e-16 3.925957233e-05 0 6.985146313e-06 -3.951899456e-16 0.0125505504)
(-0.002131457881 1.241756344e-16 -0.000193530436 -5.328087548e-16 1.36892748e-05 0 2.483973592e-06 -3.951083515e-16 0.01255008225)
(0.0009372095986 -2.358654403e-15 -6.479748283e-05 -2.164191404e-14 0.001533430483 0 4.707120381e-06 3.354128871e-15 0.01240972287)
(0.001239903878 -3.044663065e-15 -0.0001528839108 -5.172076797e-15 0.00134089682 0 1.230962987e-05 1.522031808e-15 0.01241009108)
(0.001206774312 -2.678300765e-15 -0.0002494627706 -2.00575352e-15 0.001278188483 0 1.937194306e-05 1.159822082e-15 0.01241092316)
(0.001210627261 -2.95961331e-15 -0.0003456612808 -7.349985521e-16 0.001261034339 0 2.645410798e-05 1.276599385e-15 0.01241209983)
(0.001184810629 -4.83796572e-17 -0.0004411776413 1.306159634e-16 0.001247876953 0 3.348259322e-05 -7.870426957e-17 0.0124135212)
(0.001148079208 2.40748117e-15 -0.0005366932041 -3.76735762e-16 0.001233802904 0 4.00994728e-05 -8.261592939e-17 0.01241517375)
(0.001104688376 2.190993984e-15 -0.0006324710603 -6.248036825e-16 0.001218200427 0 4.618004006e-05 -1.653513576e-16 0.01241706005)
(0.001055745926 4.91324676e-16 -0.0007284139995 -8.336190332e-16 0.001200954195 0 5.191864662e-05 -1.632162099e-16 0.01241918132)
(0.001001995978 -1.015413299e-15 -0.0008247615198 -6.155013208e-16 0.001182143067 2.261070323e-14 5.723202487e-05 -8.329064415e-16 0.01242152879)
(0.0009436532011 -5.241967232e-16 -0.000921645533 -4.671891177e-16 0.001161863026 0 6.209099266e-05 -8.575471023e-16 0.01242411449)
(0.0008812630273 2.488949844e-17 -0.001019081983 -4.133257456e-16 0.001140185139 0 6.652186068e-05 -4.4384519e-16 0.01242693148)
(0.0008151168975 -1.137458619e-15 -0.001117104149 -3.990733418e-16 0.001117243657 0 7.053980647e-05 -2.46984503e-16 0.01242990494)
(0.0007453229312 -1.130509674e-15 -0.001215616414 -1.92920746e-16 0.001093106607 0 7.421672274e-05 2.150662265e-16 0.01243298584)
(0.000672619471 1.166336907e-15 -0.001314607655 -1.896279921e-16 0.001067865562 0 7.751020394e-05 5.250577568e-16 0.0124361743)
(0.0005977131972 1.895215284e-15 -0.001414095416 -3.11409543e-16 0.001041644689 0 8.031726712e-05 7.425109177e-16 0.0124394943)
(0.0005208535559 1.580150298e-15 -0.001513919065 -3.784736124e-16 0.001014569005 -1.505075647e-14 8.266138084e-05 9.03496582e-16 0.01244291879)
(0.0004419194177 1.26797764e-15 -0.001613715497 -4.417648886e-16 0.0009867338752 0 8.4692258e-05 6.548229017e-16 0.01244637276)
(0.000361174176 1.801995466e-15 -0.001713194585 -4.711420608e-16 0.0009582043469 0 8.642831028e-05 3.377259898e-16 0.01244981702)
(0.0002792982074 2.294800541e-15 -0.001812167739 -5.667854494e-16 0.0009290664543 0 8.775440491e-05 -4.55161323e-17 0.01245326521)
(0.000196599823 1.795600157e-15 -0.001910291474 -6.277055153e-16 0.0008994172256 0 8.865597933e-05 -5.344045003e-16 0.01245669823)
(0.0001129443332 1.231069744e-15 -0.002007035875 -6.695022858e-16 0.0008693348662 1.305848268e-14 8.922612652e-05 -8.858309598e-16 0.01246006065)
(2.859114613e-05 7.939290032e-16 -0.002101853906 -6.748642145e-16 0.0008388739204 0 8.9492779e-05 -5.898350797e-16 0.01246330903)
(-5.59893996e-05 6.114958933e-16 -0.002194274745 -6.765958275e-16 0.0008081073694 0 8.938215844e-05 -4.092313275e-16 0.01246643105)
(-0.0001406348615 5.038705314e-16 -0.002283635419 -6.733331593e-16 0.0007771023945 0 8.893237394e-05 -2.879733636e-16 0.01246939789)
(-0.0002251317691 4.463396668e-16 -0.002369240035 -6.652453307e-16 0.0007459196369 0 8.814966547e-05 -2.000984597e-16 0.01247218069)
(-0.0003092517152 4.155930881e-16 -0.002450339061 -6.568598841e-16 0.0007146190636 0 8.703312484e-05 -1.223811618e-16 0.01247475791)
(-0.0003931365868 3.634024419e-16 -0.002526021631 -6.524668898e-16 0.0006832562939 0 8.566095135e-05 -3.051837102e-17 0.01247708309)
(-0.0004767016515 1.037721445e-16 -0.002595438127 -6.418010058e-16 0.0006518659495 0 8.400374305e-05 -1.042510158e-16 0.01247912666)
(-0.0005593516227 -3.877727438e-16 -0.002657716192 -6.20683861e-16 0.0006204939374 0 8.200315895e-05 -1.407728643e-16 0.01248090218)
(-0.0006411016897 -2.203903355e-16 -0.002711804086 -5.878514256e-16 0.000589194511 0 7.972014035e-05 -1.430256723e-16 0.01248238365)
(-0.0007221760108 4.053206642e-16 -0.002756569059 -5.786107904e-16 0.0005579992177 0 7.723163772e-05 -1.290488657e-16 0.01248352775)
(-0.0008026073478 1.540355442e-16 -0.002790887326 -5.784618398e-16 0.0005269387305 0 7.455133433e-05 -9.583225151e-17 0.0124843383)
(-0.0008823248188 -6.779094003e-17 -0.002813629381 -5.593382554e-16 0.0004960346895 0 7.166786155e-05 -9.679042987e-17 0.01248481787)
(-0.0009608053961 6.563954824e-16 -0.002823552228 -5.505919067e-16 0.0004653133895 0 6.86333147e-05 -1.181617415e-16 0.01248496408)
(-0.001038212721 1.467934268e-15 -0.002819454922 -5.638641368e-16 0.0004348120227 0 6.541743918e-05 -1.444331424e-16 0.01248478296)
(-0.00111477369 1.86686459e-15 -0.002800172473 -5.872347548e-16 0.0004045425917 0 6.193502739e-05 -1.779975268e-16 0.01248427513)
(-0.001190072058 1.246419284e-15 -0.002764385949 -6.137675117e-16 0.0003745259389 0 5.824278509e-05 -1.748562496e-16 0.01248347794)
(-0.001264245684 3.498642465e-16 -0.002710714179 -6.130447313e-16 0.0003447855236 0 5.442715942e-05 -8.228921664e-17 0.01248241103)
(-0.001337219631 -7.081768111e-17 -0.00263776145 -6.051244042e-16 0.0003153316774 0 5.056252151e-05 1.160087801e-18 0.01248109745)
(-0.001409060531 -2.684292712e-16 -0.002544291796 -5.892610748e-16 0.0002861854032 0 4.656845078e-05 9.59635036e-18 0.01247957685)
(-0.001479940636 -2.254882355e-16 -0.002429073151 -5.75096743e-16 0.0002573511823 0 4.235658919e-05 2.697869845e-17 0.01247789192)
(-0.001549503461 -2.276861116e-16 -0.002290676298 -5.632917859e-16 0.0002288403581 0 3.804737766e-05 5.73858568e-17 0.01247608806)
(-0.001618118138 -2.777847106e-16 -0.002127723404 -5.499836498e-16 0.0002006664255 0 3.370122766e-05 1.026080261e-16 0.01247421346)
(-0.00168588395 -9.192987162e-17 -0.001938869777 -5.365213259e-16 0.0001728264615 0 2.934080121e-05 1.121508488e-16 0.01247232018)
(-0.00175299423 7.826684583e-17 -0.001722850828 -5.309589834e-16 0.0001453286812 0 2.494617199e-05 1.102926393e-16 0.01247047194)
(-0.001820092686 -3.650739449e-17 -0.001478459772 -5.241794281e-16 0.0001181640536 0 2.043912581e-05 1.264452674e-16 0.01246872734)
(-0.001886630901 -1.583252543e-16 -0.001204421723 -5.152539108e-16 9.132217181e-05 0 1.585163297e-05 1.555733742e-16 0.01246717437)
(-0.001947602741 1.848871282e-17 -0.0008994272375 -5.059103925e-16 6.480983713e-05 0 1.123949825e-05 1.61781845e-16 0.0124658946)
(-0.001987578456 2.019609163e-16 -0.0005619814291 -5.024940944e-16 3.874449001e-05 0 6.775082807e-06 1.593717001e-16 0.01246497768)
(-0.00210326842 7.647973421e-17 -0.0001920675792 -4.982472719e-16 1.350429235e-05 0 2.447867214e-06 1.799170911e-16 0.01246448957)
(0.0009239558668 1.040923062e-15 -6.530536039e-05 -4.885807651e-15 0.001511567186 0 4.670035345e-06 1.767115684e-15 0.01233754603)
(0.001222617763 7.102655247e-16 -0.0001541695578 -2.557629178e-15 0.001321874663 0 1.215176722e-05 6.597820739e-16 0.01233786718)
(0.001190178045 1.745417713e-17 -0.0002516023442 -1.633625895e-15 0.001260238343 0 1.904961877e-05 -1.772665268e-16 0.01233853798)
(0.001193530987 -1.399324265e-16 -0.0003486164012 -1.137440186e-15 0.001243434971 0 2.599575496e-05 -7.764237688e-16 0.01233950491)
(0.001167326077 5.010466093e-17 -0.0004450717738 -8.645945554e-16 0.00123033075 0 3.274541274e-05 -1.531231086e-15 0.01234075728)
(0.001131106707 1.671202148e-16 -0.0005413800028 -7.492639976e-16 0.001216259028 0 3.919623655e-05 -1.127363222e-15 0.01234237579)
(0.001089125282 -1.13093436e-16 -0.0006377227309 -6.588059193e-16 0.001200821705 0 4.533837656e-05 -9.308820475e-16 0.01234424797)
(0.001041313032 1.240787619e-15 -0.0007343864768 -5.376228369e-16 0.001183906669 5.062306069e-14 5.101407161e-05 -7.687891681e-16 0.01234636525)
(0.0009881556864 5.564278482e-16 -0.0008315233353 -7.708470608e-16 0.001165418152 0 5.617263979e-05 -4.094334884e-16 0.01234872326)
(0.0009309217537 -1.220064554e-15 -0.0009290642784 -5.544019585e-16 0.001145446493 0 6.097211092e-05 -2.3888207e-17 0.0123512907)
(0.0008695555237 -7.902103354e-16 -0.00102707913 -4.197627135e-16 0.001124159753 0 6.540967374e-05 5.216235063e-16 0.01235401487)
(0.0008039345438 -4.246182632e-16 -0.001125565738 -3.399918924e-16 0.001101577066 0 6.948452734e-05 6.348731662e-16 0.01235684538)
(0.0007350664943 1.685812031e-17 -0.001224576243 -2.938878234e-16 0.001077783498 0 7.313983145e-05 4.598859823e-16 0.01235980156)
(0.0006637091212 4.769710074e-16 -0.001324161123 -2.959668687e-16 0.001052916688 0 7.628658149e-05 -3.187025915e-17 0.0123629066)
(0.0005900517253 6.319312408e-16 -0.001424166051 -3.201397916e-16 0.001027105583 0 7.897847689e-05 -4.061896665e-17 0.01236612199)