/*--------------------------------*- C++ -*----------------------------------*\
  =========                 |
  \\      /  F ield         | OpenFOAM: The Open Source CFD Toolbox
   \\    /   O peration     | Website:  https://openfoam.org
    \\  /    A nd           | Version:  7
     \\/     M anipulation  |
\*---------------------------------------------------------------------------*/
FoamFile
{
    version     2.0;
    format      ascii;
    class       volVectorField;
    location    "0.0021";
    object      U;
}
// * * * * * * * * * * * * * * * * * * * * * * * * * * * * * * * * * * * * * //

dimensions      [0 1 -1 0 0 0 0];

internalField   nonuniform List<vector> 
1166
(
(2.047546022e-08 1.965690852e-19 -0.002139776169)
(5.339676509e-08 8.967148956e-20 -0.002139778233)
(2.016677688e-08 -3.180286487e-19 -0.002140569109)
(5.259073406e-08 -7.523656691e-20 -0.002140571196)
(8.28415793e-08 1.317963384e-20 -0.002140575782)
(1.133871766e-07 4.091716105e-20 -0.002140582598)
(1.429411956e-07 1.795584011e-19 -0.002140591506)
(1.711335068e-07 1.441060439e-19 -0.002140602425)
(1.978189804e-07 1.218471304e-19 -0.002140615271)
(2.22934033e-07 1.27067595e-19 -0.00214062997)
(2.464321468e-07 1.562868701e-19 -0.00214064645)
(2.682272739e-07 2.133702346e-19 -0.002140664658)
(2.882754709e-07 2.344436945e-19 -0.002140684535)
(3.065521269e-07 2.769626164e-19 -0.002140706025)
(3.230451359e-07 2.855344655e-19 -0.00214072907)
(3.377605426e-07 3.080943495e-19 -0.002140753615)
(3.507026487e-07 3.42880834e-19 -0.002140779612)
(3.618838341e-07 3.90549945e-19 -0.002140807007)
(3.713230911e-07 3.720179226e-19 -0.002140835746)
(3.790467529e-07 3.623609717e-19 -0.002140865771)
(3.850976001e-07 3.563699109e-19 -0.002140897026)
(3.895157646e-07 3.573490192e-19 -0.002140929449)
(3.923353921e-07 3.341107244e-19 -0.002140962968)
(3.935995176e-07 3.118209662e-19 -0.00214099751)
(3.933513083e-07 2.916389066e-19 -0.002141032994)
(3.916538833e-07 2.97942157e-19 -0.002141069337)
(3.885588397e-07 3.037543764e-19 -0.002141106445)
(3.84119285e-07 3.088826932e-19 -0.002141144218)
(3.783890053e-07 3.128567265e-19 -0.002141182548)
(3.71419793e-07 3.147918839e-19 -0.002141221318)
(3.632774099e-07 3.144701408e-19 -0.002141260405)
(3.540141988e-07 3.092917388e-19 -0.002141299675)
(3.436818191e-07 3.011552028e-19 -0.002141338984)
(3.323456698e-07 3.093735628e-19 -0.002141378184)
(3.200608654e-07 3.168536518e-19 -0.002141417118)
(3.068752181e-07 3.221350007e-19 -0.002141455615)
(2.928384596e-07 3.270855513e-19 -0.002141493502)
(2.780005929e-07 3.324856353e-19 -0.002141530595)
(2.624096353e-07 3.302115967e-19 -0.002141566705)
(2.461142986e-07 3.148397493e-19 -0.002141601635)
(2.29167208e-07 3.004404059e-19 -0.002141635184)
(2.116121891e-07 2.921396065e-19 -0.002141667145)
(1.934888919e-07 2.889040821e-19 -0.002141697305)
(1.748407801e-07 2.836928234e-19 -0.002141725447)
(1.557046565e-07 2.758446222e-19 -0.002141751352)
(1.361202246e-07 2.703533408e-19 -0.0021417748)
(1.161228847e-07 2.668065822e-19 -0.002141795567)
(9.574258423e-08 2.651866391e-19 -0.002141813429)
(7.500712582e-08 2.626630105e-19 -0.002141828159)
(5.39382548e-08 2.590897538e-19 -0.002141839534)
(3.266321286e-08 2.591054471e-19 -0.002141847333)
(1.153385724e-08 2.580676372e-19 -0.00214185133)
(1.988347516e-08 -2.829954398e-19 -0.002141344817)
(5.184740681e-08 -1.233484035e-21 -0.00214134692)
(8.165060341e-08 2.020350222e-19 -0.002141351542)
(1.117202157e-07 3.820398372e-19 -0.002141358422)
(1.408098484e-07 3.978882027e-19 -0.002141367422)
(1.685851978e-07 2.079997918e-19 -0.002141378447)
(1.949175278e-07 6.707231297e-20 -0.002141391411)
(2.19693224e-07 3.136841889e-20 -0.002141406249)
(2.428455941e-07 5.671672309e-20 -0.002141422889)
(2.643454504e-07 5.534370731e-20 -0.002141441259)
(2.841244979e-07 1.139041748e-19 -0.002141461307)
(3.021529405e-07 1.596879916e-19 -0.002141482977)
(3.184242591e-07 2.604736779e-19 -0.002141506217)
(3.329406675e-07 3.163320512e-19 -0.002141530972)
(3.457089989e-07 3.386080143e-19 -0.002141557189)
(3.567367389e-07 3.738216251e-19 -0.002141584812)
(3.660453218e-07 4.226892266e-19 -0.002141613785)
(3.736702895e-07 4.48390759e-19 -0.002141644053)
(3.796462761e-07 4.161469572e-19 -0.002141675554)
(3.840027396e-07 3.99222554e-19 -0.002141708221)
(3.867796832e-07 3.940657254e-19 -0.002141741983)
(3.880210684e-07 3.664872081e-19 -0.002141776766)
(3.877823843e-07 3.478217915e-19 -0.002141812488)
(3.861104093e-07 3.365396535e-19 -0.002141849064)
(3.830583966e-07 3.298133653e-19 -0.002141886395)
(3.786792685e-07 3.257483652e-19 -0.002141924381)
(3.730249841e-07 3.234212647e-19 -0.002141962911)
(3.661583123e-07 3.235366401e-19 -0.002142001867)
(3.581328941e-07 3.302155443e-19 -0.002142041125)
(3.489997824e-07 3.462922326e-19 -0.002142080547)
(3.388213702e-07 3.508123109e-19 -0.002142119992)
(3.276561481e-07 3.593729611e-19 -0.002142159311)
(3.15550274e-07 3.769955258e-19 -0.002142198342)
(3.025531326e-07 3.872414396e-19 -0.002142236917)
(2.887197059e-07 3.865077276e-19 -0.00214227486)
(2.740954677e-07 3.826923732e-19 -0.002142311989)
(2.587281585e-07 3.708022595e-19 -0.002142348116)
(2.426731887e-07 3.617987152e-19 -0.002142383044)
(2.259746986e-07 3.615543726e-19 -0.002142416573)
(2.086738843e-07 3.670837483e-19 -0.002142448499)
(1.908073499e-07 3.674521284e-19 -0.002142478609)
(1.724179677e-07 3.691611722e-19 -0.002142506691)
(1.535575818e-07 3.722941939e-19 -0.002142532527)
(1.342555276e-07 3.745915377e-19 -0.0021425559)
(1.145415909e-07 3.70487093e-19 -0.00214257659)
(9.444398619e-08 3.622102547e-19 -0.002142594376)
(7.398388332e-08 3.656184087e-19 -0.002142609037)
(5.320178834e-08 3.632874861e-19 -0.002142620353)
(3.221594446e-08 3.586441493e-19 -0.002142628106)
(1.137186964e-08 3.601937565e-19 -0.002142632078)
(1.957508707e-08 4.585218783e-19 -0.002142103923)
(5.1042893e-08 2.76109729e-19 -0.002142106042)
(8.040278052e-08 2.392048071e-19 -0.002142110696)
(1.100608134e-07 2.508439269e-19 -0.002142117629)
(1.387648383e-07 8.679378438e-20 -0.002142126712)
(1.661421778e-07 9.048165806e-20 -0.002142137841)
(1.920775476e-07 8.264179539e-20 -0.00214215093)
(2.165106379e-07 7.475277194e-20 -0.0021421659)
(2.393436594e-07 5.472818733e-20 -0.002142182686)
(2.605214763e-07 2.111220102e-20 -0.00214220122)
(2.800254627e-07 4.852576454e-20 -0.00214222144)
(2.978124521e-07 6.01407721e-20 -0.002142243294)
(3.138689852e-07 1.100313154e-19 -0.002142266728)
(3.281929887e-07 1.533217837e-19 -0.002142291688)
(3.407848715e-07 1.912044366e-19 -0.002142318116)
(3.51660133e-07 2.221956282e-19 -0.002142345956)
(3.608474992e-07 2.476377664e-19 -0.002142375154)
(3.683753354e-07 2.639438105e-19 -0.002142405651)
(3.742674171e-07 2.7549645e-19 -0.00214243738)
(3.785603778e-07 2.791684108e-19 -0.002142470274)
(3.813013591e-07 2.751122589e-19 -0.002142504262)
(3.825350894e-07 2.932637726e-19 -0.002142539268)
(3.822999292e-07 3.05633852e-19 -0.002142575207)
(3.806509834e-07 3.143804833e-19 -0.00214261199)
(3.776411276e-07 3.207992753e-19 -0.002142649521)
(3.733236624e-07 3.257071369e-19 -0.002142687693)
(3.677560416e-07 3.296713712e-19 -0.002142726398)
(3.609914678e-07 3.332538799e-19 -0.002142765516)
(3.530805837e-07 3.374515511e-19 -0.002142804917)
(3.440826607e-07 3.432102756e-19 -0.002142844467)
(3.340609329e-07 3.499385018e-19 -0.002142884022)
(3.230611647e-07 3.562757863e-19 -0.002142923429)
(3.111303011e-07 3.590564024e-19 -0.002142962529)
(2.983233738e-07 3.601349627e-19 -0.002143001151)
(2.846878583e-07 3.614940837e-19 -0.002143039123)
(2.702740785e-07 3.62587733e-19 -0.002143076261)
(2.551283374e-07 3.68108698e-19 -0.002143112377)
(2.393012219e-07 3.843176015e-19 -0.002143147278)
(2.228471594e-07 3.986951444e-19 -0.002143180763)
(2.057959882e-07 4.033624471e-19 -0.002143212628)
(1.881852413e-07 4.084184457e-19 -0.002143242667)
(1.700614164e-07 4.144255252e-19 -0.002143270668)
(1.514645326e-07 4.218598021e-19 -0.002143296417)
(1.324368242e-07 4.248912317e-19 -0.002143319699)
(1.130011019e-07 4.264848486e-19 -0.002143340298)
(9.318238073e-08 4.301890116e-19 -0.002143357997)
(7.300163506e-08 4.337686761e-19 -0.00214337258)
(5.249288682e-08 4.345823085e-19 -0.002143383831)
(3.179269526e-08 4.343560941e-19 -0.002143391535)
(1.12247603e-08 4.368830513e-19 -0.002143395482)
(1.929251006e-08 2.722593291e-19 -0.002142846823)
(5.029803542e-08 1.938833861e-19 -0.002142848969)
(7.922003334e-08 1.24249285e-19 -0.00214285368)
(1.084397483e-07 6.347028002e-20 -0.002142860694)
(1.367200749e-07 -1.445405967e-20 -0.002142869866)
(1.637194016e-07 4.991985654e-20 -0.00214288109)
(1.893073414e-07 9.686509704e-20 -0.00214289429)
(2.133888931e-07 1.480837707e-19 -0.002142909388)
(2.359008802e-07 1.224097754e-19 -0.002142926312)
(2.567940226e-07 1.038165957e-19 -0.002142945)
(2.760241409e-07 9.955083778e-20 -0.002142965392)
(2.935722548e-07 1.045044503e-19 -0.002142987427)
(3.094140011e-07 5.492594286e-20 -0.002143011052)
(3.235396511e-07 5.73832332e-20 -0.002143036205)
(3.359590065e-07 9.967635454e-20 -0.002143062834)
(3.466932843e-07 1.310405572e-19 -0.002143090882)
(3.557637025e-07 1.597617272e-19 -0.002143120294)
(3.631880032e-07 1.785667063e-19 -0.002143151002)
(3.689977176e-07 2.249848281e-19 -0.002143182943)
(3.732356386e-07 2.612151554e-19 -0.002143216049)
(3.759435787e-07 2.884741517e-19 -0.002143250246)
(3.771582484e-07 3.0405734e-19 -0.002143285455)
(3.769286395e-07 3.155114809e-19 -0.002143321589)
(3.753056659e-07 3.244786653e-19 -0.002143358559)
(3.723410966e-07 3.320121459e-19 -0.002143396265)
(3.680898562e-07 3.388126197e-19 -0.002143434602)
(3.626078477e-07 3.45107453e-19 -0.002143473457)
(3.559423629e-07 3.500672819e-19 -0.002143512708)
(3.481484685e-07 3.483726368e-19 -0.002143552226)
(3.392880643e-07 3.386541782e-19 -0.002143591876)
(3.294120458e-07 3.41694516e-19 -0.002143631512)
(3.185717602e-07 3.50183101e-19 -0.002143670981)
(3.068138345e-07 3.462387394e-19 -0.002143710121)
(2.94188152e-07 3.482033883e-19 -0.002143748765)
(2.80752163e-07 3.63815662e-19 -0.002143786737)
(2.66547783e-07 3.871599574e-19 -0.002143823856)
(2.516225552e-07 4.125665509e-19 -0.002143859936)
(2.360259479e-07 4.194162986e-19 -0.002143894785)
(2.197985179e-07 4.214423334e-19 -0.002143928203)
(2.029879564e-07 4.177469215e-19 -0.002143959988)
(1.856301177e-07 4.149129275e-19 -0.002143989935)
(1.677651644e-07 4.123691725e-19 -0.002144017837)
(1.494344719e-07 4.095912546e-19 -0.002144043482)
(1.306667111e-07 4.060058084e-19 -0.002144066659)
(1.114980693e-07 4.074450741e-19 -0.002144087154)
(9.195080307e-08 4.07745358e-19 -0.002144104754)
(7.204483762e-08 4.066678096e-19 -0.002144119248)
(5.181259294e-08 4.043883916e-19 -0.002144130426)
(3.137557774e-08 4.069823595e-19 -0.002144138079)
(1.107308071e-08 4.085372136e-19 -0.002144141995)
(1.901744191e-08 6.139493253e-20 -0.002143574052)
(4.95845002e-08 9.593723355e-20 -0.002143576214)
(7.810751302e-08 1.011074765e-19 -0.002143580967)
(1.069263311e-07 9.790907323e-20 -0.00214358804)
(1.347976753e-07 9.449260145e-20 -0.002143597291)
(1.613914181e-07 9.95709762e-20 -0.002143608615)
(1.866067025e-07 1.022966474e-19 -0.002143621928)
(2.103598411e-07 9.506309022e-20 -0.002143637149)
(2.325633634e-07 1.536724784e-19 -0.002143654213)
(2.531656537e-07 1.231832768e-19 -0.002143673054)
(2.721446014e-07 1.014812728e-19 -0.002143693607)
(2.894556267e-07 8.985357813e-20 -0.002143715814)
(3.050766525e-07 8.39056689e-20 -0.002143739613)
(3.190104726e-07 9.013117356e-20 -0.002143764951)
(3.312697455e-07 1.025203078e-19 -0.002143791772)
(3.418672996e-07 1.145936575e-19 -0.002143820018)
(3.508141471e-07 1.693171366e-19 -0.002143849625)
(3.581363264e-07 2.22935584e-19 -0.00214388053)
(3.638712654e-07 2.800722296e-19 -0.002143912667)
(3.68057404e-07 3.417112029e-19 -0.002143945968)
(3.70730859e-07 3.794447286e-19 -0.002143980355)
(3.719329526e-07 3.627630974e-19 -0.002144015745)
(3.717108807e-07 3.538895873e-19 -0.002144052055)
(3.701152044e-07 3.483859875e-19 -0.00214408919)
(3.671980488e-07 3.444923295e-19 -0.00214412705)
(3.63012846e-07 3.40293786e-19 -0.002144165528)
(3.576078342e-07 3.334954494e-19 -0.002144204508)
(3.510395811e-07 3.457662275e-19 -0.002144243868)
(3.433656554e-07 3.541665717e-19 -0.00214428348)
(3.346382052e-07 3.599527695e-19 -0.002144323205)
(3.2491123e-07 3.649815146e-19 -0.002144362896)
(3.142289713e-07 3.674472316e-19 -0.0021444024)
(3.026397058e-07 3.702373533e-19 -0.002144441556)
(2.901922622e-07 3.738416535e-19 -0.002144480197)
(2.769378257e-07 3.785074905e-19 -0.002144518146)
(2.629366071e-07 3.838877702e-19 -0.002144555225)
(2.482282626e-07 3.893444269e-19 -0.002144591246)
(2.328532005e-07 3.945287536e-19 -0.002144626021)
(2.168568932e-07 3.989076021e-19 -0.002144659351)
(2.002789062e-07 4.024549998e-19 -0.002144691036)
(1.831671328e-07 4.053467449e-19 -0.002144720875)
(1.655538163e-07 4.076484072e-19 -0.002144748663)
(1.47471895e-07 4.096103203e-19 -0.00214477419)
(1.289607317e-07 4.11418536e-19 -0.002144797248)
(1.100456843e-07 4.132282146e-19 -0.002144817628)
(9.076091938e-08 4.14981473e-19 -0.002144835121)
(7.112363734e-08 4.150657737e-19 -0.002144849519)
(5.116127576e-08 4.151021824e-19 -0.002144860619)
(3.098990241e-08 4.152025222e-19 -0.002144868215)
(1.093469279e-08 4.152995059e-19 -0.002144872103)
(1.874775739e-08 6.44904658e-20 -0.002144285987)
(4.888058379e-08 1.160147408e-19 -0.002144288171)
(7.699806959e-08 1.444122579e-19 -0.002144292961)
(1.054076543e-07 1.538657796e-19 -0.002144300087)
(1.329004683e-07 1.644493032e-19 -0.002144309405)
(1.591469231e-07 1.811682198e-19 -0.002144320818)
(1.840182245e-07 2.046936366e-19 -0.002144334236)
(2.074378052e-07 2.362545151e-19 -0.002144349581)
(2.29347982e-07 1.702792199e-19 -0.002144366781)
(2.496811482e-07 1.068785269e-19 -0.002144385769)
(2.683937879e-07 3.920498074e-20 -0.002144406478)
(2.85466621e-07 3.079620863e-20 -0.002144428844)
(3.008818983e-07 2.140665012e-21 -0.002144452813)
(3.146403853e-07 6.157424794e-20 -0.002144478328)
(3.267457116e-07 1.044214197e-19 -0.002144505332)
(3.372017954e-07 1.418976487e-19 -0.00214453376)
(3.460289765e-07 1.814700643e-19 -0.00214456355)
(3.532587036e-07 2.260166137e-19 -0.002144594638)
(3.589246225e-07 2.808561947e-19 -0.002144626959)
(3.630585672e-07 2.794226683e-19 -0.002144660438)
(3.656977419e-07 2.927291157e-19 -0.002144694997)
(3.668886647e-07 3.146430369e-19 -0.002144730552)
(3.666765859e-07 3.402020312e-19 -0.002144767017)
(3.651099455e-07 3.40610806e-19 -0.002144804296)
(3.62241022e-07 3.44540182e-19 -0.002144842289)
(3.581173173e-07 3.504588996e-19 -0.002144880886)
(3.527951893e-07 3.585513522e-19 -0.002144919968)
(3.463296171e-07 3.661111687e-19 -0.002144959415)
(3.387734324e-07 3.75802994e-19 -0.002144999098)
(3.301712101e-07 3.760813085e-19 -0.002145038874)
(3.20574042e-07 3.779515358e-19 -0.002145078598)
(3.100437241e-07 3.701187619e-19 -0.002145118113)
(2.986189794e-07 3.719541825e-19 -0.00214515726)
(2.863463953e-07 3.731622423e-19 -0.002145195873)
(2.732817898e-07 3.73725679e-19 -0.002145233777)
(2.59473346e-07 3.732061979e-19 -0.002145270794)
(2.449721262e-07 3.705962113e-19 -0.002145306738)
(2.298085792e-07 3.808857146e-19 -0.002145341419)
(2.140255056e-07 3.891502673e-19 -0.002145374643)
(1.976805691e-07 3.967163315e-19 -0.002145406212)
(1.808043659e-07 4.044515743e-19 -0.002145435926)
(1.634321151e-07 4.058493096e-19 -0.002145463583)
(1.455931693e-07 4.080016873e-19 -0.002145488978)
(1.273195037e-07 4.109700202e-19 -0.002145511906)
(1.08651341e-07 4.146367238e-19 -0.002145532159)
(8.96133085e-08 4.1896301e-19 -0.002145549536)
(7.023288522e-08 4.177990575e-19 -0.002145563831)
(5.052965753e-08 4.170586817e-19 -0.002145574844)
(3.061509993e-08 4.166245714e-19 -0.002145582376)
(1.080562445e-08 4.164457318e-19 -0.002145586229)
(1.849869925e-08 9.081470558e-20 -0.002144982982)
(4.822750372e-08 1.964088268e-19 -0.002144985184)
(7.59668892e-08 3.146173421e-19 -0.002144990013)
(1.039972192e-07 2.198946509e-19 -0.002144997196)
(1.311134398e-07 2.030174086e-19 -0.002145006591)
(1.569950297e-07 2.17157849e-19 -0.002145018093)
(1.815378693e-07 2.450763999e-19 -0.002145031615)
(2.046614182e-07 2.804684861e-19 -0.002145047078)
(2.262831391e-07 2.151323851e-19 -0.002145064405)
(2.463431539e-07 1.521525182e-19 -0.002145083526)
(2.648091927e-07 8.191265351e-20 -0.002145104378)
(2.816581484e-07 6.97863727e-20 -0.0021451269)
(2.968811222e-07 3.443921073e-20 -0.002145151034)
(3.104679906e-07 8.059096891e-20 -0.002145176718)
(3.224141457e-07 1.082785228e-19 -0.00214520389)
(3.327338899e-07 1.303521576e-19 -0.002145232487)
(3.414519262e-07 1.474419934e-19 -0.002145262448)
(3.485963716e-07 1.605301586e-19 -0.002145293709)
(3.541941224e-07 1.66346419e-19 -0.002145326197)
(3.582773649e-07 1.649335258e-19 -0.002145359838)
(3.608856342e-07 1.858243744e-19 -0.002145394551)
(3.620641248e-07 2.280324786e-19 -0.002145430255)
(3.618638583e-07 2.595502627e-19 -0.002145466857)
(3.603302307e-07 2.913920193e-19 -0.002145504264)
(3.575081311e-07 3.239132147e-19 -0.002145542371)
(3.534430567e-07 3.370342469e-19 -0.002145581066)
(3.481952131e-07 3.569659122e-19 -0.002145620233)
(3.418318061e-07 3.584984049e-19 -0.002145659748)
(3.343878945e-07 3.676328773e-19 -0.002145699478)
(3.259076741e-07 3.647142654e-19 -0.002145739283)
(3.164458005e-07 3.669934643e-19 -0.002145779017)
(3.060516108e-07 3.72081904e-19 -0.002145818525)
(2.947830092e-07 3.768195287e-19 -0.002145857646)
(2.826792255e-07 3.74128963e-19 -0.002145896213)
(2.697907266e-07 3.734821404e-19 -0.002145934055)
(2.561777725e-07 3.745030038e-19 -0.002145970992)
(2.418701792e-07 3.772702179e-19 -0.00214600684)
(2.269091967e-07 3.818547889e-19 -0.002146041411)
(2.113386075e-07 3.797452671e-19 -0.002146074514)
(1.952026145e-07 3.782561177e-19 -0.002146105955)
(1.785509455e-07 3.767423353e-19 -0.002146135531)
(1.614051818e-07 3.777802504e-19 -0.002146163047)
(1.437973217e-07 3.780476119e-19 -0.002146188299)
(1.257573031e-07 3.842869717e-19 -0.002146211087)
(1.07318965e-07 3.896229198e-19 -0.00214623121)
(8.851957853e-08 3.940299479e-19 -0.002146248466)
(6.937289404e-08 3.974507572e-19 -0.002146262657)
(4.991105863e-08 3.999942098e-19 -0.002146273583)
(3.023677061e-08 4.017091496e-19 -0.002146281053)
(1.06657911e-08 4.025846748e-19 -0.002146284871)
(1.825594686e-08 4.33409343e-20 -0.002145665423)
(4.759352399e-08 4.156142309e-20 -0.002145667643)
(7.496856533e-08 9.599468458e-22 -0.002145672509)
(1.026333873e-07 -4.183666409e-20 -0.002145679746)
(1.2940753e-07 8.279470136e-20 -0.00214568921)
(1.549714659e-07 1.631049729e-19 -0.0021457008)
(1.792044099e-07 2.220619795e-19 -0.002145714422)
(2.020237343e-07 2.661503696e-19 -0.002145729994)
(2.233637512e-07 2.934587929e-19 -0.002145747436)
(2.431693217e-07 3.101725252e-19 -0.002145766685)
(2.614062248e-07 3.294794776e-19 -0.002145787677)
(2.780551236e-07 2.745597178e-19 -0.002145810349)
(2.930930507e-07 2.285241938e-19 -0.002145834637)
(3.065063414e-07 1.75311762e-19 -0.002145860476)
(3.183027573e-07 1.137752757e-19 -0.002145887806)
(3.28499357e-07 1.339599867e-19 -0.002145916564)
(3.371177522e-07 1.307875273e-19 -0.002145946687)
(3.441791006e-07 1.519522014e-19 -0.002145978106)
(3.497106374e-07 1.538987988e-19 -0.002146010748)
(3.537466752e-07 2.170214995e-19 -0.002146044537)
(3.563279003e-07 2.384903355e-19 -0.002146079393)
(3.57503361e-07 2.597617712e-19 -0.002146115228)
(3.573163955e-07 2.478414707e-19 -0.002146151953)
(3.558130029e-07 2.656718185e-19 -0.002146189471)
(3.530334169e-07 2.790068321e-19 -0.002146227674)
(3.490309986e-07 2.90200767e-19 -0.002146266451)
(3.438674007e-07 2.95329885e-19 -0.002146305686)
(3.375880325e-07 2.92338128e-19 -0.002146345252)
(3.302457021e-07 2.93059069e-19 -0.002146385013)
(3.218816661e-07 3.000995312e-19 -0.002146424831)
(3.125446531e-07 3.202200037e-19 -0.00214646456)
(3.022936503e-07 3.344393059e-19 -0.002146504042)
(2.911705062e-07 3.338658539e-19 -0.002146543119)
(2.792285821e-07 3.322703967e-19 -0.002146581625)
(2.665127858e-07 3.359539201e-19 -0.002146619389)
(2.530663065e-07 3.358969283e-19 -0.002146656233)
(2.38943559e-07 3.415236745e-19 -0.00214669197)
(2.24177665e-07 3.446970628e-19 -0.002146726417)
(2.088124281e-07 3.492894691e-19 -0.002146759386)
(1.928849319e-07 3.523100624e-19 -0.002146790685)
(1.76431642e-07 3.533693872e-19 -0.002146820116)
(1.594988645e-07 3.596621567e-19 -0.002146847481)
(1.421071669e-07 3.628913356e-19 -0.002146872583)
(1.242918357e-07 3.741404462e-19 -0.002146895224)
(1.060834393e-07 3.828601476e-19 -0.002146915208)
(8.750944789e-08 3.900180482e-19 -0.00214693234)
(6.858986639e-08 3.960654226e-19 -0.002146946422)
(4.93468741e-08 4.015554566e-19 -0.002146957262)
(2.99009229e-08 4.068604547e-19 -0.002146964669)
(1.054946629e-08 4.122618152e-19 -0.002146968456)
(1.803515449e-08 2.495549639e-19 -0.002146333615)
(4.701468077e-08 7.327218116e-20 -0.002146335854)
(7.405505468e-08 -9.480840568e-20 -0.002146340758)
(1.013852858e-07 2.184244469e-20 -0.00214634805)
(1.278313162e-07 9.96305421e-20 -0.002146357584)
(1.530752934e-07 1.802900452e-19 -0.002146369252)
(1.770069351e-07 2.601180752e-19 -0.002146382963)
(1.995469658e-07 3.430557631e-19 -0.002146398635)
(2.206293372e-07 4.353306993e-19 -0.002146416195)
(2.402047146e-07 4.475703833e-19 -0.002146435573)
(2.582369729e-07 4.820308594e-19 -0.002146456704)
(2.746908778e-07 4.50576625e-19 -0.002146479519)
(2.895432381e-07 4.471781499e-19 -0.00214650395)
(3.027962393e-07 3.417565638e-19 -0.002146529937)
(3.144584754e-07 3.161562795e-19 -0.002146557418)
(3.245439356e-07 2.942715543e-19 -0.00214658633)
(3.330671743e-07 2.774587736e-19 -0.002146616606)
(3.400500664e-07 2.580872467e-19 -0.002146648173)
(3.455216017e-07 2.437887033e-19 -0.00214668096)
(3.49517001e-07 2.327284566e-19 -0.002146714888)
(3.520735339e-07 2.653591991e-19 -0.002146749875)
(3.532387074e-07 2.634410073e-19 -0.002146785835)
(3.530695863e-07 2.71583093e-19 -0.002146822671)
(3.51594084e-07 2.802515284e-19 -0.002146860284)
(3.488575855e-07 2.836509638e-19 -0.002146898569)
(3.449189044e-07 3.072918895e-19 -0.002146937416)
(3.398276836e-07 3.268982011e-19 -0.002146976705)
(3.336370602e-07 3.321181258e-19 -0.002147016305)
(3.263882779e-07 3.203252535e-19 -0.002147056084)
(3.181333404e-07 3.303178986e-19 -0.002147095902)
(3.08914832e-07 3.363103449e-19 -0.00214713561)
(2.987830583e-07 3.418300502e-19 -0.002147175055)
(2.878034422e-07 3.469684608e-19 -0.002147214075)
(2.760145053e-07 3.635423683e-19 -0.002147252506)
(2.634605348e-07 3.598204072e-19 -0.002147290178)
(2.501773335e-07 3.558332061e-19 -0.002147326914)
(2.362122046e-07 3.4684451e-19 -0.002147362532)
(2.216298671e-07 3.342573598e-19 -0.002147396846)
(2.064557783e-07 3.432915646e-19 -0.002147429672)
(1.907241211e-07 3.575795749e-19 -0.002147460817)
(1.744672957e-07 3.707191224e-19 -0.002147490092)
(1.577200239e-07 3.841157324e-19 -0.0021475173)
(1.405280284e-07 3.988233427e-19 -0.002147542244)
(1.229160045e-07 3.992043662e-19 -0.002147564733)
(1.049219981e-07 4.019184889e-19 -0.002147584572)
(8.656435445e-08 4.07578707e-19 -0.002147601569)
(6.785647743e-08 4.042654125e-19 -0.002147615536)
(4.88249549e-08 4.03467091e-19 -0.002147626281)
(2.958090486e-08 4.042641173e-19 -0.002147633622)
(1.043350274e-08 4.002736487e-19 -0.00214763737)
(1.783008468e-08 2.558612704e-19 -0.002146987879)
(4.647724425e-08 1.476807676e-19 -0.002146990134)
(7.320508517e-08 6.332746587e-20 -0.002146995069)
(1.002182867e-07 -2.453449456e-20 -0.002147002406)
(1.263583151e-07 5.571447171e-22 -0.002147011998)
(1.513124855e-07 1.350608206e-19 -0.002147023741)
(1.749733209e-07 2.247234739e-19 -0.002147037544)
(1.972646003e-07 3.007847951e-19 -0.002147053323)
(2.181190091e-07 3.829952951e-19 -0.002147071002)
(2.374864227e-07 3.977028526e-19 -0.002147090509)
(2.553175086e-07 4.276085845e-19 -0.002147111771)
(2.715785993e-07 4.625334754e-19 -0.002147134717)
(2.862658343e-07 5.116614897e-19 -0.002147159287)
(2.993785042e-07 4.553702099e-19 -0.002147185418)
(3.109220064e-07 4.874515292e-19 -0.002147213047)
(3.209034599e-07 4.320688501e-19 -0.002147242106)
(3.293386011e-07 3.960349657e-19 -0.002147272526)
(3.362502663e-07 3.212815213e-19 -0.002147304235)
(3.416695372e-07 2.977273504e-19 -0.002147337158)
(3.456295962e-07 2.713680415e-19 -0.002147371217)
(3.481706655e-07 2.705221201e-19 -0.002147406328)
(3.493349932e-07 2.633484829e-19 -0.002147442402)
(3.491627577e-07 2.807340543e-19 -0.002147479343)
(3.477121485e-07 2.920388035e-19 -0.002147517043)
(3.450257209e-07 3.031211828e-19 -0.002147555403)
(3.411499537e-07 3.137019132e-19 -0.002147594312)
(3.36125843e-07 3.259151811e-19 -0.002147633644)
(3.300031763e-07 3.416912496e-19 -0.002147673272)
(3.228479452e-07 3.389235226e-19 -0.002147713058)
(3.146934838e-07 3.40862172e-19 -0.002147752864)
(3.055864434e-07 3.456519636e-19 -0.002147792543)
(2.955743473e-07 3.537895197e-19 -0.002147831941)
(2.847117453e-07 3.661446892e-19 -0.002147870898)
(2.730652861e-07 3.838045398e-19 -0.002147909247)
(2.606575674e-07 3.999385978e-19 -0.00214794682)
(2.475282064e-07 4.021644388e-19 -0.00214798344)
(2.337247551e-07 3.990587806e-19 -0.002148018931)
(2.192939655e-07 3.897987102e-19 -0.00214805311)
(2.042904896e-07 3.818864006e-19 -0.002148085787)
(1.887338575e-07 3.74553312e-19 -0.002148116777)
(1.726580812e-07 3.756512997e-19 -0.002148145889)
(1.560940816e-07 3.770951363e-19 -0.002148172934)
(1.390777392e-07 3.794841451e-19 -0.002148197721)
(1.216528472e-07 3.724131282e-19 -0.002148220057)
(1.038420485e-07 3.659975373e-19 -0.002148239754)
(8.567754805e-08 3.594476945e-19 -0.002148256619)
(6.716633299e-08 3.612928451e-19 -0.00214827047)
(4.83331482e-08 3.630870254e-19 -0.002148281122)
(2.928456476e-08 3.58856195e-19 -0.002148288396)
(1.032295879e-08 3.528689098e-19 -0.002148292112)
(1.764237009e-08 -1.937188644e-19 -0.002147628425)
(4.598541631e-08 4.89206773e-20 -0.002147630698)
(7.242805961e-08 2.108699519e-19 -0.002147635667)
(9.915443115e-08 3.359676785e-19 -0.002147643056)
(1.250232134e-07 1.89328844e-19 -0.002147652717)
(1.497260265e-07 2.141970865e-19 -0.002147664543)
(1.731491485e-07 2.119911075e-19 -0.002147678442)
(1.952163418e-07 1.855144075e-19 -0.002147694331)
(2.15863049e-07 1.300394847e-19 -0.002147712127)
(2.350290165e-07 2.616383072e-19 -0.002147731754)
(2.526667654e-07 3.566743628e-19 -0.002147753141)
(2.687628891e-07 4.296855546e-19 -0.002147776222)
(2.833083732e-07 4.885203544e-19 -0.002147800934)
(2.962989469e-07 5.325245704e-19 -0.00214782721)
(3.077333024e-07 5.078604606e-19 -0.002147854984)
(3.176203762e-07 4.859319878e-19 -0.002147884188)
(3.25976198e-07 4.700637307e-19 -0.002147914749)
(3.328267427e-07 4.607949119e-19 -0.002147946597)
(3.382000531e-07 4.076087309e-19 -0.002147979654)
(3.421317572e-07 4.048614716e-19 -0.00214801384)
(3.446614999e-07 3.5925678e-19 -0.00214804907)
(3.458245332e-07 3.522681671e-19 -0.002148085253)
(3.456605383e-07 3.393124009e-19 -0.00214812229)
(3.442250002e-07 3.266150059e-19 -0.002148160081)
(3.4158573e-07 3.164206696e-19 -0.002148198514)
(3.377661996e-07 2.909377894e-19 -0.002148237477)
(3.328055359e-07 2.765514646e-19 -0.002148276848)
(3.267540129e-07 2.701482013e-19 -0.002148316498)
(3.196631946e-07 2.882899994e-19 -0.002148356292)
(3.116000903e-07 2.997084735e-19 -0.002148396082)
(3.025956189e-07 3.040824179e-19 -0.002148435727)
(2.926974559e-07 3.024819314e-19 -0.002148475073)
(2.819555453e-07 3.064032958e-19 -0.002148513963)
(2.704150235e-07 3.162226535e-19 -0.00214855223)
(2.581348444e-07 3.403206735e-19 -0.0021485897)
(2.451455559e-07 3.716290924e-19 -0.002148626203)
(2.31492768e-07 3.938112467e-19 -0.002148661564)
(2.17214433e-07 4.144967083e-19 -0.002148695601)
(2.023488489e-07 4.059294647e-19 -0.002148728132)
(1.869457775e-07 3.931683036e-19 -0.002148758965)
(1.710263523e-07 3.807666863e-19 -0.002148787918)
(1.546304732e-07 3.686882685e-19 -0.0021488148)
(1.377878624e-07 3.554004876e-19 -0.002148839426)
(1.205298543e-07 3.473841896e-19 -0.00214886161)
(1.028883496e-07 3.361215549e-19 -0.002148881164)
(8.488403511e-08 3.204313911e-19 -0.002148897903)
(6.654412906e-08 3.105403217e-19 -0.002148911641)
(4.788604634e-08 2.949043085e-19 -0.002148922204)
(2.90217763e-08 2.839083713e-19 -0.002148929412)
(1.023465309e-08 2.816225828e-19 -0.002148933094)
(1.747981077e-08 -1.438334062e-19 -0.002148255545)
(4.555848776e-08 1.65121634e-19 -0.002148257836)
(7.17549028e-08 4.065450389e-19 -0.002148262842)
(9.823723753e-08 6.759837798e-19 -0.002148270285)
(1.238664356e-07 6.141453978e-19 -0.002148280017)
(1.483386646e-07 4.601727035e-19 -0.002148291932)
(1.715528868e-07 3.776492203e-19 -0.00214830593)
(1.93423108e-07 3.269267549e-19 -0.002148321924)
(2.138714253e-07 2.891055579e-19 -0.002148339831)
(2.328598562e-07 3.552261752e-19 -0.002148359577)
(2.503482817e-07 4.209078928e-19 -0.002148381094)
(2.663037449e-07 4.94319873e-19 -0.002148404313)
(2.807255751e-07 5.864379229e-19 -0.002148429168)
(2.936047558e-07 5.831865259e-19 -0.00214845559)
(3.049417841e-07 5.363250552e-19 -0.00214848351)
(3.147447558e-07 5.08242645e-19 -0.002148512858)
(3.230337763e-07 4.905801655e-19 -0.002148543564)
(3.298310398e-07 4.802232538e-19 -0.002148575552)
(3.351667502e-07 4.24270772e-19 -0.002148608744)
(3.390771521e-07 4.000098045e-19 -0.002148643059)
(3.415960314e-07 3.785289537e-19 -0.002148678409)
(3.427566344e-07 3.609541973e-19 -0.002148714701)
(3.426072528e-07 3.489405589e-19 -0.002148751837)
(3.412037698e-07 3.390690446e-19 -0.002148789716)
(3.385858962e-07 3.316029068e-19 -0.002148828227)
(3.34810109e-07 3.290576197e-19 -0.002148867245)
(3.299081466e-07 3.243662014e-19 -0.002148906654)
(3.239231299e-07 3.211059933e-19 -0.002148946326)
(3.169023729e-07 3.336560135e-19 -0.002148986124)
(3.088984191e-07 3.484301043e-19 -0.002149025906)
(2.999819692e-07 3.423744915e-19 -0.002149065519)
(2.901852033e-07 3.394251504e-19 -0.002149104816)
(2.795511202e-07 3.369655446e-19 -0.002149143638)
(2.681169739e-07 3.327246059e-19 -0.002149181821)
(2.559319467e-07 3.260254394e-19 -0.002149219195)
(2.430639084e-07 3.327300639e-19 -0.002149255585)
(2.295385863e-07 3.380776613e-19 -0.002149290819)