/*--------------------------------*- C++ -*----------------------------------*\
  =========                 |
  \\      /  F ield         | OpenFOAM: The Open Source CFD Toolbox
   \\    /   O peration     | Website:  https://openfoam.org
    \\  /    A nd           | Version:  7
     \\/     M anipulation  |
\*---------------------------------------------------------------------------*/
FoamFile
{
    version     2.0;
    format      ascii;
    class       volTensorField;
    location    "0.0018";
    object      grad(U);
}
// * * * * * * * * * * * * * * * * * * * * * * * * * * * * * * * * * * * * * //

dimensions      [0 0 -1 0 0 0 0];

internalField   nonuniform List<tensor> 
1167
(
(-10.88269653 -1.935679396e-13 0.6371316435 3.130511769e-13 -17.89266061 0 0.526857884 -2.761528768e-15 29.60509645)
(-14.41349009 -1.063887118e-13 1.478149169 2.8528194e-13 -15.5992883 0 1.274272648 -1.64924081e-13 29.5329822)
(-14.14040004 5.020715444e-14 2.400765472 1.759183102e-13 -14.87006981 -7.036732406e-13 2.011401496 1.015819642e-13 29.38804187)
(-14.327674 1.251475978e-13 3.318864982 6.459230854e-14 -14.72040582 0 2.763200837 -1.108944302e-14 29.1737712)
(-14.16021513 -8.242428545e-14 4.212244402 1.033077947e-13 -14.62044954 4.132311789e-13 3.47999211 -6.248336838e-14 28.89535714)
(-13.90859159 -1.158068002e-13 5.085815161 4.345407235e-14 -14.51625883 -3.476325788e-13 4.159780909 1.153114055e-13 28.5568439)
(-13.62045743 3.658735862e-14 5.942944292 3.780570658e-14 -14.405477 -3.024456527e-13 4.801648756 1.51156147e-13 28.16144327)
(-13.28941417 1.973936693e-14 6.783410618 6.737703913e-14 -14.28568354 0 5.402179349 1.715268773e-13 27.71230356)
(-12.91714099 1.253540387e-14 7.607938433 3.056250849e-14 -14.15558499 -2.445000679e-13 5.958764347 1.747090646e-13 27.21239496)
(-12.50729525 8.154479681e-15 8.41793745 5.623021679e-14 -14.014966 0 6.469577252 1.591466807e-13 26.66436184)
(-12.06232665 1.583474263e-14 9.214952131 7.845859574e-14 -13.86402515 2.09222922e-13 6.933146638 9.067476684e-14 26.07057937)
(-11.58409325 -1.635044202e-14 10.00056458 2.454963728e-14 -13.70310895 1.963970982e-13 7.348296324 6.169836554e-14 25.4332066)
(-11.07426233 -7.070207008e-14 10.77637878 0 -13.53262836 0 7.714172627 9.015421533e-14 24.75423992)
(-10.53428184 -7.312858219e-14 11.54398007 6.630785256e-14 -13.35302182 0 8.030171063 1.048950896e-13 24.03547981)
(-9.965423101 -4.945763819e-14 12.30487401 4.230962532e-14 -13.16472385 -1.692385013e-13 8.295876305 1.113310174e-13 23.27858326)
(-9.368877189 -4.331015993e-15 13.06044113 4.068770988e-14 -12.96816046 -8.137541976e-14 8.511117875 9.055695404e-14 22.48514433)
(-8.745743049 1.504086533e-14 13.81195852 7.858084741e-14 -12.76374407 0 8.675891748 8.027884125e-14 21.65662596)
(-8.097049147 -4.595309468e-14 14.56068491 7.615986658e-14 -12.55187144 7.615986658e-14 8.790349553 8.562325607e-14 20.7944345)
(-11.62326733 2.019421989e-13 0.6865240323 1.087789646e-13 -19.10304639 0 0.5695557199 -9.617314261e-14 31.61442033)
(-15.39324802 -1.180916615e-13 1.591426601 -1.115209297e-13 -16.65840847 1.189556583e-12 1.378767028 -2.33956629e-13 31.53582584)
(-15.09632515 -1.186445532e-13 2.584263885 9.169209241e-14 -15.8798132 0 2.175870402 -1.007069251e-13 31.37759622)
(-15.29194021 3.014886897e-14 3.572995062 3.366678498e-14 -15.71782827 5.386685597e-13 2.98843468 -4.371756563e-15 31.14371078)
(-15.10966643 -2.111775159e-13 4.535376883 8.076908975e-14 -15.60953111 0 3.762928117 1.367860317e-13 30.83996424)
(-14.83524704 -2.458225717e-13 5.476605191 9.059647773e-14 -15.49640068 0 4.496844167 7.070563365e-14 30.47072121)
(-14.52100846 -9.383004801e-14 6.400464986 7.882031924e-14 -15.37587546 0 5.189109182 1.012917044e-13 30.03964379)
(-14.16048148 -7.682115313e-15 7.306811141 3.511824143e-14 -15.2454748 -2.809459314e-13 5.836039635 1.335855847e-13 29.55028858)
(-13.75539835 4.31535309e-14 8.196357969 6.371912854e-14 -15.10385405 0 6.434813593 1.181738802e-13 29.00594719)
(-13.30976773 6.359671681e-14 9.070606749 0 -14.95080938 -2.344663835e-13 6.98343215 1.010252783e-13 28.40960598)
(-12.82637202 5.516452753e-14 9.93119187 8.178833425e-14 -14.7865839 0 7.480322887 8.835993909e-14 27.76399375)
(-12.30737561 -2.719097968e-14 10.77974816 1.023660412e-13 -14.61158194 0 7.924302659 9.901038783e-14 27.07160993)
(-11.75465272 -7.332442163e-14 11.61796008 4.841019197e-14 -14.42627941 -1.936407679e-13 8.314490957 9.177660157e-14 26.33471019)
(-11.1698386 -5.035639928e-14 12.44747387 4.608128048e-14 -14.23117085 0 8.650268918 9.564580189e-14 25.55538137)
(-10.55445664 -2.498147338e-14 13.26976693 4.410522197e-14 -14.02674954 0 8.931332579 7.801588616e-14 24.73559034)
(-9.909901369 -1.569832564e-14 14.0862491 8.482894699e-14 -13.81350105 0 9.157593481 7.123504359e-14 23.87716251)
(-9.237435901 5.67970705e-15 14.89822095 4.095788746e-14 -13.591893 -1.638315498e-13 9.329164968 8.354971684e-14 22.98181757)
(-8.538239224 4.264221362e-16 15.7068811 3.969602431e-14 -13.36237421 0 9.446340337 8.801484441e-14 22.05116354)
(-7.813385214 -1.982670202e-14 16.51347171 7.719598048e-14 -13.12537371 0 9.509543741 7.110037819e-14 21.08671473)
(-7.06382086 3.694086153e-14 17.31926408 3.763924598e-14 -12.88129895 -7.527849196e-14 9.519327033 4.397806524e-14 20.08984934)
(-6.290330931 5.516414529e-14 18.12565635 7.360011046e-14 -12.63053421 7.360011046e-14 9.476318486 4.234848128e-14 19.06177064)
(-5.493487618 3.412731906e-14 18.93433587 7.212874039e-14 -12.37343754 0 9.381157347 2.98649253e-14 18.00345361)
(-4.673601196 1.729443868e-15 19.74740642 1.062570313e-13 -12.11033718 1.416760417e-13 9.234459884 1.911219422e-14 16.91557856)
(-3.830615231 -4.322595595e-14 20.56755019 6.97061085e-14 -11.84152738 6.97061085e-14 9.036746318 1.997613513e-14 15.79843864)
(-2.96399516 -4.096714679e-14 21.39819817 3.435737782e-14 -11.56726067 0 8.788360023 2.119179479e-14 14.6518298)
(-2.072627014 -4.522135907e-14 22.24378773 3.39243016e-14 -11.28774034 0 8.4893889 2.387333334e-14 13.47490136)
(-1.154627096 -1.153189134e-14 23.11006411 0 -11.00311133 -6.70946405e-14 8.139539128 1.619296517e-14 12.26597868)
(-0.2071258305 3.643267257e-14 24.00442648 3.322088754e-14 -10.71344702 0 7.73799133 2.531428852e-16 11.02234291)
(0.7739763296 3.532069813e-14 24.93642765 6.58805007e-14 -10.41873469 0 7.283245366 2.367278863e-14 9.739932155)
(1.794397873 3.318033504e-14 25.91840306 3.270131191e-14 -10.1188575 0 6.772871356 2.523300512e-14 8.41296984)
(2.86195042 5.909763814e-14 26.96626631 0 -9.813569669 -6.50010542e-14 6.203226357 2.3483816e-15 7.033480142)
(3.987125254 8.671034949e-14 28.10055728 3.23348135e-14 -9.502467134 0 5.569089159 -2.598804133e-14 5.590628275)
(5.183880258 3.748453693e-14 29.34781462 8.050370347e-14 -9.184950058 9.660444417e-14 4.863158844 -2.498453546e-14 4.069905922)
(6.470629666 -6.802054599e-15 30.74229784 3.20981747e-14 -8.860175884 0 4.075459271 -2.222807928e-14 2.452097896)
(7.871390403 -2.564327662e-15 32.32783096 6.404564698e-14 -8.527000995 3.202282349e-14 3.192616558 -2.257294109e-14 0.7120875457)
(9.416897726 1.433191815e-14 34.15955229 3.197360389e-14 -8.183912703 0 2.197085734 -2.332131159e-14 -1.182363428)
(11.14550926 -1.728485672e-14 36.30517441 7.98722621e-14 -7.828957347 9.584671452e-14 1.066454643 -4.466430174e-15 -3.271603669)
(13.1034281 -5.982318772e-14 38.84464391 3.194729816e-14 -7.459671397 0 -0.2269164212 2.732859185e-14 -5.604342397)
(15.34365005 -1.977678045e-14 41.86731567 1.598375942e-14 -7.073034967 -3.196751883e-14 -1.715675282 1.599279889e-14 -8.236636818)
(17.92353635 4.751252899e-15 45.46661024 3.200844058e-14 -6.665468801 0 -3.436431375 6.47142028e-15 -11.22937647)
(20.90114323 2.395784462e-15 49.73280476 4.810359391e-14 -6.232886762 3.20690626e-14 -5.428003784 1.908992303e-14 -14.64459221)
(24.33117536 3.156768366e-14 54.74562706 1.607424568e-14 -5.770811146 -3.214849136e-14 -7.729264217 1.830418478e-14 -18.54131626)
(28.26173217 9.4376027e-14 60.56884123 1.612296491e-14 -5.274529773 0 -10.37722463 2.868520783e-16 -22.97209452)
(32.73228358 1.267090846e-13 67.24799776 8.090167265e-15 -4.739267916 1.618033453e-14 -13.40561206 -1.854660353e-14 -27.98101551)
(37.77201157 1.130400487e-13 74.81166577 1.624603647e-14 -4.160351341 0 -16.84352371 -1.665776848e-14 -33.60340376)
(43.39881905 9.089835157e-14 83.27518703 8.159894101e-15 -3.533368997 0 -20.71437692 -2.686782885e-14 -39.86715218)
(49.6329076 1.2138431e-13 92.63743223 8.200668566e-15 -2.854308138 -8.200668566e-15 -25.04294808 -4.979501009e-14 -46.79031675)
(56.54482123 2.108894462e-13 102.8599215 -4.122614502e-15 -2.119308364 -1.649045801e-14 -29.88271313 -9.249009606e-14 -54.36849078)
(64.25787805 2.535584308e-13 113.8784943 8.293475361e-15 -1.323575768 0 -35.31989893 -1.128603526e-13 -62.57978104)
(71.84830681 1.892987658e-13 126.2797587 1.043164853e-15 -0.461261564 2.086329707e-15 -40.83988424 -1.112997541e-13 -71.77491853)
(-12.44177113 6.356415976e-14 0.7418969918 -5.674777646e-14 -20.44069961 3.631857693e-12 0.6160954901 -5.630292589e-14 33.83484535)
(-16.47594462 -1.653685147e-13 1.718511656 -7.757093865e-14 -17.8289483 -1.241135018e-12 1.492552027 2.25951884e-13 33.74886434)
(-16.15229782 -2.420657047e-13 2.790036631 9.566780457e-14 -16.99568675 0 2.354955113 1.652144623e-13 33.57551637)
(-16.35668735 -1.61602739e-13 3.857745645 7.025311175e-14 -16.81990844 0 3.233766056 1.437243189e-13 33.31943875)
(-16.15754979 -1.310153616e-13 4.897257644 8.427118735e-14 -16.70220362 -4.494463325e-13 4.071147507 2.639142402e-13 32.98691775)
(-15.85730029 -8.967844847e-14 5.914065889 9.452468475e-14 -16.57897594 0 4.864050556 9.322321148e-14 32.58287779)
(-15.51342156 -7.456826962e-14 6.912232046 8.223791932e-14 -16.44742769 0 5.611305012 3.92673342e-14 32.11134306)
(-15.11943504 -2.139774034e-14 7.891702547 1.465637867e-13 -16.30500917 0 6.30887126 3.343681289e-14 31.5763637)
(-14.67718356 4.405078436e-14 8.853267255 1.329639003e-13 -16.15033134 0 6.953665306 4.260073607e-14 30.98167533)
(-14.19107193 4.604780557e-14 9.798466707 3.057908749e-14 -15.98320923 0 7.543537886 4.774068173e-14 30.33067164)
(-13.66428788 4.077839547e-14 10.72900042 8.533462595e-14 -15.80394109 0 8.076827346 4.621989761e-14 29.6264667)
(-13.09926821 1.465433787e-14 11.64663116 1.068045693e-13 -15.61300303 0 8.552260336 9.369079293e-14 28.87191516)
(-12.49813297 -6.175542299e-14 12.55309163 1.262730694e-13 -15.41093542 2.02036911e-13 8.968908513 8.686552592e-14 28.06962598)
(-11.86285704 -6.840975864e-14 13.45000753 4.80793362e-14 -15.19830293 0 9.326237418 7.090225791e-14 27.22207364)
(-11.19521355 -2.449178737e-14 14.33893072 4.601759682e-14 -14.97567384 0 9.623991933 4.998491199e-14 26.33152759)
(-10.49680518 -2.601624065e-14 15.2212807 4.425353891e-14 -14.74359991 0 9.862173073 4.297530271e-14 25.40012281)
(-9.769135975 -1.761099787e-14 16.09837293 8.546759156e-14 -14.5026145 0 10.04102573 4.540373205e-14 24.42986628)
(-9.013574253 -1.492475974e-14 16.97144935 8.283443888e-14 -14.25322926 0 10.16099001 6.685003457e-14 23.42263899)
(-8.231351489 -1.112974197e-14 17.84170867 4.027157517e-14 -13.99593092 -8.054315033e-14 10.22266246 6.406299107e-14 22.38018774)
(-7.423590641 1.016297258e-14 18.71045859 7.854252019e-14 -13.73118035 0 10.22677849 5.257019579e-14 21.30410598)
(-6.591214473 4.458248719e-14 19.57921275 0 -13.45941348 -1.535827313e-13 10.17414626 7.449440431e-14 20.19576952)
(-5.73486596 7.172856356e-14 20.44975089 3.762809892e-14 -13.18103406 0 10.06558884 5.270094004e-14 19.05629949)
(-4.854897422 4.832267524e-14 21.32428305 7.390951373e-14 -12.89641049 0 9.901904557 5.333841715e-14 17.88647693)
(-3.951268718 1.569629236e-14 22.20566417 3.636426104e-14 -12.60587158 0 9.683775933 3.728887942e-14 16.68664431)
(-3.023424731 3.185630269e-15 23.09759051 7.169418451e-14 -12.30969935 0 9.411696801 1.96752442e-14 15.45659238)
(-2.070162537 -1.092274934e-14 24.00484462 7.079047676e-14 -12.00812077 7.079047676e-14 9.085870065 5.290369883e-15 14.19539995)
(-1.089437361 -2.717433525e-14 24.93360055 7.000382213e-14 -11.70129744 7.000382213e-14 8.706075763 -2.29087881e-15 12.90126118)
(-0.07815403907 -3.178416389e-14 25.89180126 3.466132462e-14 -11.38931192 0 8.271536092 1.582157311e-14 11.57124358)
(0.9681084458 -2.916625306e-14 26.88964563 6.873703827e-14 -11.07215301 0 7.78073255 3.726296093e-14 10.20097777)
(2.055477669 2.349028374e-14 27.94024379 3.411922064e-14 -10.74969588 -6.823844128e-14 7.231146444 2.87436813e-14 8.784279001)
(3.192261529 8.086675749e-14 29.06051756 3.390972959e-14 -10.421678 0 6.618980984 1.155094188e-14 7.312624807)
(4.389617727 9.224914746e-14 30.27229662 3.373683107e-14 -10.08766853 0 5.938752071 2.081292049e-14 5.774486043)
(5.662361019 8.825962917e-14 31.60363942 3.359771757e-14 -9.747027943 0 5.182790987 2.611850584e-14 4.154488172)
(7.029918839 3.921330863e-14 33.09055365 6.697986329e-14 -9.398859924 6.697986329e-14 4.340620005 2.477160049e-14 2.432342335)
(8.517510047 -2.310079074e-14 34.77897875 6.682262632e-14 -9.041952685 6.682262632e-14 3.398211396 4.065225977e-14 0.581637025)
(10.15733963 -2.892933991e-14 36.72655393 3.335995954e-14 -8.67470904 0 2.337199435 4.187148792e-14 -1.431401426)
(11.98943743 -1.412796703e-14 39.00371113 3.333418948e-14 -8.295071727 0 1.134174349 5.492811373e-14 -3.648904154)
(14.06186002 -1.059544239e-14 41.6933065 3.333251307e-14 -7.90045612 0 -0.239691331 5.01889603e-14 -6.121569675)
(16.42963226 5.439504849e-15 44.88769119 3.335361057e-14 -7.48770241 0 -1.818393464 3.163542272e-14 -8.907604998)
(19.15221388 3.897322926e-15 48.68314131 5.009446037e-14 -7.053074474 3.339630691e-14 -3.640064521 2.999284399e-14 -12.07016771)
(22.28978898 -2.826417666e-15 53.17254637 5.018933567e-14 -6.592314832 3.345955712e-14 -5.745163667 2.781416397e-14 -15.67359762)
(25.89913861 6.960709355e-15 58.43781726 3.354243002e-14 -6.100762605 0 -8.174315616 1.881715937e-14 -19.7791724)
(30.03029899 5.444166264e-14 64.54433193 1.682204663e-14 -5.573514889 -3.364409327e-14 -10.96632598 -1.339383678e-14 -24.44156911)
(34.72443114 1.093037322e-13 71.5385076 3.376380746e-14 -5.005602981 1.688190373e-14 -14.15669764 -2.597478793e-14 -29.70673306)
(40.01203183 1.695210993e-13 79.44910247 8.475227306e-15 -4.39216142 -1.695045461e-14 -17.77620233 -6.258955511e-14 -35.6116093)
(45.91190543 1.792367079e-13 88.29115116 2.554110616e-14 -3.728597019 0 -21.84978689 -8.09552932e-14 -42.18553277)
(52.44563005 1.525752187e-13 98.06220889 1.711248893e-14 -3.010728937 0 -26.40405495 -8.545394385e-14 -49.44746432)
(59.68845043 1.8211927e-13 108.720397 -4.301368495e-15 -2.234523777 -8.602736991e-15 -31.49625348 -1.075776211e-13 -57.39274561)
(67.76991703 2.158494431e-13 120.1979111 8.65307533e-15 -1.39494352 4.326537665e-15 -37.21746139 -1.172438642e-13 -65.99900428)
(75.7110522 1.751180002e-13 133.1142262 1.088395833e-15 -0.4858615847 2.176791665e-15 -43.02276074 -8.809403377e-14 -75.637402)
(-13.34711653 -3.122295255e-13 0.8042034289 -1.185256845e-13 -21.92018546 0 0.6666514229 1.03077605e-13 36.29052182)
(-17.6734176 -3.15056542e-13 1.861548595 2.43026666e-13 -19.12365 0 1.616033009 2.677091407e-13 36.19622593)
(-17.31992868 -1.522033028e-14 3.021493581 2.497695226e-13 -18.22987179 0 2.549397198 1.672020003e-13 36.00587132)
(-17.53360498 -1.140981696e-13 4.177937254 1.467334702e-13 -18.03870628 5.869338807e-13 3.500194977 8.644397899e-14 35.72473532)
(-17.3153111 -1.248471852e-13 5.30398737 1.760121858e-13 -17.9104254 0 4.405936771 1.049511553e-13 35.35968758)
(-16.9859193 3.749976184e-14 6.405427907 1.97428052e-13 -17.77582445 0 5.262990644 6.722242654e-14 34.91632955)
(-16.60858451 -2.671254219e-14 7.486744835 8.588271021e-14 -17.63185521 0 6.070065997 6.212472636e-14 34.39915431)
(-16.17678644 -3.449070387e-14 8.547804785 1.530595049e-13 -17.47588286 0 6.822791534 8.363533348e-15 33.81267098)
(-15.69255733 1.115329845e-14 9.589442825 1.04142653e-13 -17.30646922 0 7.517772114 3.710978387e-14 33.16113436)
(-15.16078085 6.106197949e-14 10.61331877 6.38687099e-14 -17.12345947 -2.554748396e-13 8.152658047 7.865865778e-14 32.44841509)
(-14.58502306 -7.658463269e-15 11.62122217 1.18822218e-13 -16.92721797 2.37644436e-13 8.725649643 9.485582821e-14 31.67807772)
(-13.9680731 -5.887341127e-14 12.61496072 5.576907784e-14 -16.71829348 -2.230763113e-13 9.235378565 1.282852431e-13 30.85341112)
(-13.31245708 -1.473229585e-14 13.59628296 5.274780053e-14 -16.49730903 -2.109912021e-13 9.680950349 1.198132144e-13 29.97749571)
(-12.62043656 -4.265907031e-15 14.56689882 5.021021609e-14 -16.26491836 0 10.06182396 4.171381549e-14 29.05316191)
(-11.89405961 6.523375949e-15 15.52838908 4.805710052e-14 -16.0217672 0 10.37779166 1.368346087e-14 28.08306973)
(-11.13524301 -1.083160761e-14 16.48220062 4.621485915e-14 -15.76848851 0 10.6289615 1.756818151e-14 27.06972158)
(-10.34573705 -3.861347278e-14 17.42967182 4.462776086e-14 -15.50569223 0 10.81570477 1.845185852e-14 26.01547586)
(-9.527150905 -3.269305989e-14 18.37205529 4.325283376e-14 -15.23396235 -1.73011335e-13 10.93862702 1.281256482e-14 24.92252884)
(-8.680948725 -8.09093131e-15 19.31063774 8.411282905e-14 -14.95385445 0 10.99850584 -2.341449886e-14 23.79291541)
(-7.808415447 -1.105395238e-14 20.24676515 4.101176535e-14 -14.66589468 0 10.99627673 -5.894833957e-15 22.62847571)
(-6.910606955 2.365119047e-14 21.18199582 4.009738252e-14 -14.37057629 -1.603895301e-13 10.93294296 1.203266706e-14 21.43080026)
(-5.988311363 7.014910544e-14 22.11825813 3.929577898e-14 -14.0683564 0 10.80954171 2.369098322e-14 20.20118386)
(-5.041953198 6.354210383e-14 23.057981 3.859259449e-14 -13.75965231 0 10.62706691 3.591894813e-14 18.94052266)
(-4.071495992 4.665402107e-14 24.00425507 3.797592812e-14 -13.44483427 0 10.38638946 3.726803211e-14 17.6492271)
(-3.07634078 3.750895488e-14 24.96106467 3.743583801e-14 -13.12421889 0 10.08816961 3.587883385e-14 16.32708529)
(-2.055179034 1.840978377e-14 25.9335554 7.392791599e-14 -12.79806014 1.47855832e-13 9.732739991 3.941968112e-14 14.97310974)
(-1.005811431 -1.766975904e-14 26.92836271 3.65531985e-14 -12.46653889 0 9.319977516 4.474628318e-14 13.58534926)
(0.07508225856 -4.019197005e-14 27.95404439 3.619751744e-14 -12.12974957 0 8.849158911 3.799177741e-14 12.16063514)
(1.192271222 -3.491031993e-14 29.02157628 7.178346909e-14 -11.78768426 0 8.318746226 2.662888832e-14 10.69426435)
(2.352350132 -6.437311101e-15 30.14498574 3.563138685e-14 -11.44021075 0 7.726144305 1.768264526e-14 9.179599003)
(3.564214498 1.334889465e-14 31.34224917 3.54126117e-14 -11.08704825 0 7.067388194 3.231353984e-14 7.607520521)
(4.839723884 4.73430671e-14 32.63648332 0 -10.72773545 -7.046409988e-14 6.336722329 4.358203219e-14 5.96574627)
(6.194577116 7.990463853e-14 34.05741941 3.508677095e-14 -10.36159062 0 5.526084862 5.394563424e-14 4.237948917)
(7.649346464 7.117797805e-14 35.64306406 3.497420802e-14 -9.987659742 0 4.624456987 6.899430626e-14 2.402673287)
(9.230590352 2.930391636e-14 37.44159171 5.23381576e-14 -9.604655697 3.489210506e-14 3.617107876 7.402607792e-14 0.432090603)
(10.97207817 -2.874854674e-14 39.51328002 5.225771336e-14 -9.210888686 6.967695114e-14 2.484776526 8.464385834e-14 -1.709256779)
(12.91569509 -5.809859539e-14 41.93156571 3.48115633e-14 -8.804189027 0 1.202965785 9.702390007e-14 -4.065444491)
(15.11154739 -2.845294244e-14 44.78247169 3.48098125e-14 -8.381838305 0 -0.2584548932 8.476265631e-14 -6.689368003)
(17.61691049 1.229659376e-14 48.16166544 3.483184512e-14 -7.94052358 0 -1.934977788 8.307140001e-14 -9.641639938)
(20.49363348 2.581673536e-14 52.16872847 3.487643405e-14 -7.476334827 3.487643405e-14 -3.866426414 9.127354236e-14 -12.98798129)
(23.80432562 2.796422676e-14 56.89957898 3.494248713e-14 -6.984824004 0 -6.095099034 8.162096279e-14 -16.79535514)
(27.60816577 6.453346781e-14 62.43876514 1.751451657e-14 -6.46112491 -3.502903315e-14 -8.663579504 5.11199906e-14 -21.12762308)
(31.95743622 7.248351005e-14 68.85373706 5.270280305e-14 -5.900119702 3.513520203e-14 -11.61268461 2.532527954e-14 -26.04194598)
(36.89531012 9.572599379e-14 76.19223868 1.763011109e-14 -5.296619847 -3.526022217e-14 -14.97991036 -1.287797439e-15 -31.58645555)
(42.45391811 1.61113129e-13 84.48371081 0 -4.64554112 -1.770170001e-14 -18.79792268 -4.675811015e-14 -37.80008344)
(48.65320589 1.798610218e-13 93.74324146 1.778205999e-14 -3.942079732 0 -23.09337858 -5.324880676e-14 -44.71389162)
(55.51640322 1.913968097e-13 103.9673656 8.93545788e-15 -3.181859348 0 -27.89490987 -7.419642364e-14 -52.34800452)
(63.12403218 2.013506356e-13 115.1109872 0 -2.360644573 0 -33.26391157 -9.081045101e-14 -60.69770466)
(71.61265735 2.108461869e-13 127.1026816 9.036580324e-15 -1.473117857 -4.518290162e-15 -39.29682011 -1.117409752e-13 -69.74023611)
(79.94328974 2.532495183e-13 140.5979412 1.136633619e-15 -0.5128338431 -2.273267239e-15 -45.41571718 -1.386602107e-13 -79.8690692)
(-14.34910517 -2.407780533e-13 0.8744217616 3.716935577e-13 -23.55738133 0 0.721383173 2.042473306e-14 39.00798291)
(-18.99869514 -1.988836608e-13 2.022847681 2.963821373e-13 -20.55648365 0 1.749563803 -3.891258593e-14 38.90440617)
(-18.61187645 -1.453334722e-14 3.282536171 3.133083695e-13 -19.59574332 0 2.759709513 -8.882134059e-14 38.69495202)
(-18.83545723 -8.785137338e-14 4.538974228 1.150381155e-13 -19.3874123 0 3.788392133 2.703941681e-14 38.38560858)
(-18.59561411 -1.224802725e-13 5.762444627 2.146549128e-13 -19.24729141 0 4.768192261 -2.436030186e-14 37.9840757)
(-18.23345043 -4.504408177e-14 6.958963287 2.063764641e-13 -19.099945 0 5.69483255 1.540910393e-14 37.49648143)
(-17.8184925 1.994520444e-14 8.133524787 1.346630067e-13 -18.94202947 -3.591013511e-13 6.566839321 6.210541858e-14 36.92796877)
(-17.34421359 1.054667169e-15 9.285972581 1.599969156e-13 -18.77083735 3.199938313e-13 7.379500151 6.202660056e-14 36.28359548)
(-16.81276579 -8.022969765e-14 10.41710083 1.451505484e-13 -18.58487258 0 8.129087996 8.634616985e-14 35.56813236)
(-16.22956875 -3.227339803e-14 11.52862335 6.676355471e-14 -18.38400706 -2.670542189e-13 8.813013746 9.135072608e-14 34.78599221)
(-15.59870005 -2.911120929e-15 12.62240313 6.210391316e-14 -18.16867947 -2.484156526e-13 9.429326595 1.095393861e-13 33.94128644)
(-14.9234065 -1.929943124e-14 13.70029864 8.744521056e-14 -17.93952979 0 9.976591467 6.459869541e-14 33.03781633)
(-14.2065468 6.240783845e-14 14.76415897 0 -17.69728086 -2.205543626e-13 10.45383372 3.02799339e-14 32.07912115)
(-13.45074284 9.174797211e-14 15.81572423 1.049719815e-13 -17.44267487 2.09943963e-13 10.86050019 -3.4649236e-14 31.06849529)
(-12.6584253 1.609098969e-14 16.85659423 1.004705698e-13 -17.17645521 2.009411396e-13 11.19645926 -9.206616283e-15 30.00907584)
(-11.8318236 -1.627616481e-14 17.88823048 9.661908851e-14 -16.89934525 0 11.46190331 7.659872362e-15 28.90377752)
(-10.97303161 6.833570957e-16 18.91202475 4.665051107e-14 -16.61204384 0 11.65734369 2.71713149e-15 27.75537256)
(-10.08392747 4.689110127e-14 19.92929744 4.521326526e-14 -16.31522158 0 11.78354037 -2.067217505e-14 26.56643521)
(-9.166218471 1.03896032e-14 20.94133994 1.318878555e-13 -16.00951248 1.75850474e-13 11.8414707 -1.827167178e-14 25.33934026)
(-8.221437969 -7.230230644e-14 21.94963458 8.574124122e-14 -15.69551802 8.574124122e-14 11.83227305 1.662906817e-14 24.07622722)
(-7.250820243 -5.579088241e-14 22.95588729 4.191479354e-14 -15.37380147 0 11.7571768 1.254647572e-14 22.77894496)
(-6.2552656 4.452667152e-15 23.96215562 8.215371466e-14 -15.0448828 0 11.6174445 1.79616023e-14 21.44899094)
(-5.235289505 3.659915322e-14 24.97106406 4.034180075e-14 -14.70923428 0 11.41428532 4.600966984e-14 20.08741053)
(-4.190912377 3.074205778e-14 25.98600523 3.969718432e-14 -14.36727535 0 11.14878534 5.933724482e-14 18.69469779)
(-3.121504914 1.650907184e-14 27.01136224 3.913261473e-14 -14.01936448 0 10.82178446 5.233936052e-14 17.27065078)
(-2.025642658 1.037677765e-14 28.05274641 3.863934661e-14 -13.66578868 0 10.4337698 4.892855884e-14 15.81422043)
(-0.9009365865 2.074681956e-14 29.11733412 3.820996984e-14 -13.30675247 -7.641993968e-14 9.984738583 4.125388806e-14 14.32329871)
(0.2562091105 2.061884508e-14 30.21431902 3.783816731e-14 -12.94236449 0 9.474026229 2.958755663e-14 12.79446295)
(1.450916341 -1.461903447e-14 31.35547022 7.503704909e-14 -12.57262062 7.503704909e-14 8.900092004 2.652931461e-14 11.22264734)
(2.690247139 -3.073553575e-14 32.55584923 3.724637705e-14 -12.19738276 0 8.260268207 2.510995877e-14 9.600713759)
(3.98374669 -2.356985448e-14 33.83470801 3.701768557e-14 -11.81635211 0 7.550410174 2.461768729e-14 7.918891491)
(5.344102182 -1.906185381e-14 35.21660831 3.682894018e-14 -11.42903514 0 6.764479825 3.316610872e-14 6.164072235)
(6.787981587 6.76949942e-15 36.73295957 0 -11.03470262 -7.335415245e-14 5.893993029 4.259484819e-14 4.318893136)
(8.337143748 4.444967479e-14 38.42391226 1.827970562e-14 -10.63233819 -7.311882247e-14 4.927352766 4.240756081e-14 2.360617665)
(10.01964678 4.555636547e-14 40.3401869 3.647358736e-14 -10.22057372 0 3.849067578 4.798585165e-14 0.259870921)
(11.87098996 1.244739692e-14 42.54487039 1.820876349e-14 -9.797617117 0 2.638908294 6.642794817e-14 -2.020647191)
(13.93507446 -1.37170961e-14 45.11464146 3.638939483e-14 -9.361176111 0 1.271178584 7.054302782e-14 -4.527157676)
(16.26430141 -6.122634205e-14 48.13907964 5.458134729e-14 -8.908385435 7.277512973e-14 -0.2856725509 8.587120899e-14 -7.314996744)
(18.9184434 -8.071489526e-14 51.71750034 1.820529796e-14 -8.435762966 -3.641059592e-14 -2.068800743 1.068138386e-13 -10.44744987)
(21.96202019 -1.336882891e-14 55.9531895 0 -7.939206814 -3.645720586e-14 -4.119887566 7.674303897e-14 -13.99310313)
(25.46039341 5.017009256e-14 60.94558317 3.652625295e-14 -7.414057187 -3.652625295e-14 -6.483285944 4.678111357e-14 -18.0218817)
(29.47548842 9.703073552e-14 66.78239697 3.661672127e-14 -6.855218842 -3.661672127e-14 -9.203757785 2.045468153e-14 -22.6006207)
(34.0621676 1.547656616e-13 73.53360085 1.836385138e-14 -6.257332425 -3.672770277e-14 -12.32435219 -1.584209773e-14 -27.78929513)
(39.26592247 1.815923562e-13 81.24869082 3.685838905e-14 -5.61496185 0 -15.88477682 -5.107785046e-14 -33.63857342)
(45.12082689 1.912745494e-13 89.95826193 3.700805641e-14 -4.92277519 0 -19.91981312 -6.201342494e-14 -40.18973664)
(51.64822513 2.130634853e-13 99.67784859 1.858803059e-14 -4.175728428 0 -24.45800909 -7.982340451e-14 -47.47586861)
(58.87329989 2.28029376e-13 110.4033032 9.340456858e-15 -3.369220794 -1.868091372e-14 -29.53024286 -9.780411414e-14 -55.51854262)
(66.882461 2.638618345e-13 122.086482 1.408681581e-14 -2.498784377 0 -35.2024528 -1.394674841e-13 -64.31317747)
(75.82012189 2.730900396e-13 134.6523322 4.72308135e-15 -1.558784658 4.72308135e-15 -41.57697084 -1.600061789e-13 -73.83672661)
(84.58211524 2.274811105e-13 148.7957244 2.376302909e-15 -0.5424141105 2.376302909e-15 -48.03996541 -1.429230308e-13 -84.50698394)
(-15.45835191 -2.090882045e-13 0.9536505008 0 -25.36954637 0 0.7803607907 -5.726976278e-14 42.01591162)
(-20.46579862 -1.918389771e-13 2.205097148 2.215190715e-13 -22.1425999 1.417722057e-12 1.89319402 -7.525026157e-14 41.90196252)
(-20.04181202 -1.330240606e-13 3.577542531 1.639189387e-13 -21.10774192 0 2.985924681 2.504357936e-14 41.67112089)
(-20.27612013 -1.753871447e-13 4.946764147 1.60497262e-13 -20.88029215 0 4.098523773 7.451449928e-14 41.33032742)
(-20.01226873 -1.285362498e-13 6.280143449 1.283482397e-13 -20.72698071 0 5.158185071 -6.672739404e-14 40.88807372)
(-19.61350863 -1.013833498e-13 7.583885446 1.619602967e-13 -20.56543502 0 6.159966613 -2.678078821e-14 40.35112077)
(-19.15643845 -9.930523166e-14 8.86333696 1.87877242e-13 -20.39195797 0 7.102255367 -6.52710388e-15 39.72520422)
(-18.63459886 -5.407526288e-14 10.11840405 8.370834345e-14 -20.20376347 -3.348333738e-13 7.979885538 3.257332988e-14 39.01604762)
(-18.05029114 -2.410234076e-14 11.34984932 7.594091366e-14 -19.99929755 0 8.788774602 4.796579927e-14 38.22904444)
(-17.4095254 1.32351345e-14 12.55937187 1.39719358e-13 -19.77846436 0 9.526106563 2.078185242e-14 37.36920285)
(-16.71693535 3.693423638e-14 13.74889677 9.747592281e-14 -19.54178697 0 10.18973869 4.4874305e-14 36.44118976)
(-15.97618703 4.223555259e-14 14.92037639 1.220005807e-13 -19.29000597 0 10.77806472 1.230293367e-14 35.44936981)
(-15.19059772 1.112781607e-13 16.07567824 5.769561345e-14 -19.02394385 -2.307824538e-13 11.29002922 -5.089980273e-14 34.39784181)
(-14.36325267 7.165343813e-14 17.21655056 1.647600014e-13 -18.74445433 2.196800019e-13 11.72509818 -1.701585692e-14 33.29047848)
(-13.49697684 -2.653912419e-14 18.34464564 1.051298382e-13 -18.45238798 0 12.08314698 2.488876545e-14 32.13090228)
(-12.59439432 -2.606477851e-14 19.46147236 5.054987348e-14 -18.1485738 0 12.36446271 2.675804984e-14 30.92255753)
(-11.65794699 -2.002132771e-14 20.568413 4.881390375e-14 -17.83381274 0 12.56967812 2.374176949e-14 29.66866096)
(-10.68987712 -2.77207066e-15 21.66688021 9.462001185e-14 -17.50887154 0 12.69970509 2.467187849e-14 28.37224101)
(-9.69220393 -1.644189286e-14 22.75829586 4.600136145e-14 -17.17447947 0 12.75571812 4.976865507e-14 27.03608202)
(-8.66669374 -3.114702343e-14 23.8441891 0 -16.83132414 -8.971744583e-14 12.73907353 5.848569187e-14 25.66267945)
(-7.614825882 -2.00019062e-14 24.92642122 4.385856948e-14 -16.48004869 0 12.65123865 3.380942499e-14 24.25419414)
(-6.537687707 -4.688539283e-14 26.00731734 1.289453239e-13 -16.12124789 8.596354925e-14 12.49370857 4.225144455e-14 22.81236586)
(-5.435898036 -3.14533564e-14 27.08979114 0 -15.75546045 -8.442526068e-14 12.26793897 6.374914983e-14 21.33843059)
(-4.309507445 5.005667947e-14 28.17755013 0 -15.3831637 -1.66152479e-13 11.97524345 5.123404663e-14 19.83299075)
(-3.157866645 7.493688405e-14 29.27537458 4.094736887e-14 -15.00476403 0 11.61666453 4.087756524e-14 18.29588042)
(-1.97947696 3.865446292e-14 30.38940864 1.212936773e-13 -14.62058822 1.617249031e-13 11.19287396 2.766299954e-14 16.72599163)
(-0.7717636393 1.350952152e-14 31.52749954 3.998193654e-14 -14.23087097 0 10.70400247 3.674924218e-14 15.12105508)