/*--------------------------------*- C++ -*----------------------------------*\
  =========                 |
  \\      /  F ield         | OpenFOAM: The Open Source CFD Toolbox
   \\    /   O peration     | Website:  https://openfoam.org
    \\  /    A nd           | Version:  7
     \\/     M anipulation  |
\*---------------------------------------------------------------------------*/
FoamFile
{
    version     2.0;
    format      ascii;
    class       volVectorField;
    location    "0.0018";
    object      grad(generalizedNewtonian:nu);
}
// * * * * * * * * * * * * * * * * * * * * * * * * * * * * * * * * * * * * * //

dimensions      [0 1 -1 0 0 0 0];

internalField   nonuniform List<vector> 
1167
(
(-801.2531661 0 8223.892901)
(-79.21555424 0 8166.042464)
(-560.2234077 0 8232.981626)
(-1452.377758 0 8224.55413)
(-1588.735178 -1.057871818e-10 8203.555708)
(-1889.218954 8.899394017e-11 8187.985528)
(-2189.66182 7.742608708e-11 8168.920248)
(-2456.450063 0 8143.5273)
(-2698.243405 0 8112.126336)
(-2915.314856 0 8074.264711)
(-3106.054067 -5.356106803e-11 8029.446684)
(-3270.845648 -2.513882857e-11 7977.568238)
(-3410.961111 0 7918.965763)
(-3526.457288 0 7853.238923)
(-3620.467894 2.166252817e-11 7781.107874)
(-3695.574817 2.083210746e-11 7703.674526)
(-3755.120379 0 7621.607178)
(-3803.515027 -1.949692584e-11 7536.126555)
(-782.5701194 0 8026.914435)
(-81.2375255 -3.045264853e-10 7968.959178)
(-541.272632 0 8031.795178)
(-1406.563927 -1.378991513e-10 8021.157286)
(-1539.085192 0 7997.329762)
(-1827.230934 0 7978.228476)
(-2116.905452 0 7954.366639)
(-2373.156323 7.192215845e-11 7924.363155)
(-2603.881945 0 7887.993926)
(-2810.29333 3.001169709e-11 7844.957072)
(-2991.606867 0 7795.118833)
(-3147.737961 0 7738.682354)
(-3278.735097 2.478601829e-11 7674.842333)
(-3386.737569 2.359361561e-11 7604.393741)
(-3474.145913 0 7528.430107)
(-3543.714972 0 7447.03799)
(-3598.411632 2.097043838e-11 7361.835888)
(-3642.125612 0 7273.605762)
(-3679.773571 0 7183.896249)
(-3715.314167 1.927129394e-11 7094.53315)
(-3753.18222 -1.884162828e-11 7006.843295)
(-3798.623005 0 6922.675722)
(-3857.279833 -1.813453333e-11 6844.129848)
(-3934.327657 0 6773.115639)
(-4035.42018 0 6711.930087)
(-4166.871933 0 6662.955497)
(-4334.976329 8.588113984e-12 6628.562333)
(-4546.970006 0 6611.709438)
(-4810.478949 0 6615.434085)
(-5133.076076 0 6642.627408)
(-5522.573525 1.664026987e-11 6696.742433)
(-5985.436954 0 6780.460381)
(-6526.211266 -1.648715847e-11 6895.521257)
(-7144.615007 0 7041.53929)
(-7830.229089 -1.639568563e-11 7213.775938)
(-8558.580352 0 7401.133606)
(-9287.135434 -1.635783928e-11 7583.856441)
(-9952.333199 0 7732.82894)
(-10478.01517 8.183684821e-12 7813.13052)
(-10792.98177 0 7792.041485)
(-10851.12443 -4.104840013e-12 7649.487774)
(-10646.20212 4.115006894e-12 7383.918053)
(-10212.05511 4.127479016e-12 7013.502627)
(-9608.406025 -4.14216564e-12 6568.377173)
(-8902.648945 -2.079492669e-12 6082.278061)
(-8155.534414 2.08893289e-12 5585.595776)
(-7412.996763 2.099371153e-12 5101.027673)
(-6707.790273 2.110778625e-12 4644.764315)
(-6065.941645 0 4230.080367)
(-5503.484612 -2.136401619e-12 3865.05043)
(-762.5560992 0 7812.421904)
(-80.8158868 3.177305647e-10 7754.448688)
(-520.5201532 0 7814.189167)
(-1357.853271 0 7802.579934)
(-1485.82238 1.150582611e-10 7776.189421)
(-1761.378089 0 7754.760002)
(-2038.692688 0 7728.158855)
(-2283.856701 0 7694.636372)
(-2503.728946 0 7654.741938)
(-2699.77526 0 7608.31236)
(-2871.287975 0 7555.139052)
(-3017.509048 0 7494.67795)
(-3140.094558 -2.586072461e-11 7427.536506)
(-3241.030299 0 7354.475949)
(-3321.90951 0 7275.526385)
(-3385.775674 0 7191.999914)
(-3436.234268 0 7104.690527)
(-3476.451041 0 7015.005477)
(-3510.67302 2.061904649e-11 6924.251721)
(-3544.066626 0 6834.168254)
(-3580.50034 3.931717922e-11 6746.070964)
(-3624.482066 0 6661.880213)
(-3681.273803 0 6583.47647)
(-3756.299959 0 6512.822992)
(-3855.176077 0 6452.09776)
(-3983.629392 -9.061181025e-12 6403.50628)
(-4147.771946 -8.960489232e-12 6369.383558)
(-4354.341237 0 6352.637604)
(-4610.010582 0 6355.875848)
(-4922.321961 1.746904097e-11 6382.149477)
(-5299.066034 0 6434.631419)
(-5746.296514 0 6515.747577)
(-6267.491336 0 6627.194272)
(-6861.818199 -8.573422501e-12 6768.395821)
(-7520.033661 -8.553296169e-12 6934.884809)
(-8218.757767 0 7116.104003)
(-8917.29354 0 7293.585646)
(-9556.584005 0 7439.813148)
(-10064.91162 0 7522.148255)
(-10375.26621 -4.274727285e-12 7509.639669)
(-10443.70786 -4.282823311e-12 7382.836503)
(-10262.76887 0 7139.360362)
(-9862.735663 0 6795.340444)
(-9298.274737 0 6378.188243)
(-8632.768266 0 5919.6969)
(-7923.802057 0 5448.557954)
(-7215.507829 0 4986.649374)
(-6540.171339 2.20230067e-12 4550.025963)
(-5923.671742 -2.215187284e-12 4151.958455)
(-5381.537389 -2.229034665e-12 3800.283835)
(-741.1687212 0 7580.532215)
(-79.75678417 0 7523.277469)
(-499.1039857 1.023055964e-10 7580.900987)
(-1306.920664 -7.512753673e-11 7567.981742)
(-1429.653669 6.007882608e-11 7540.771535)
(-1692.993684 0 7517.378555)
(-1957.639793 0 7489.177183)
(-2190.953392 0 7453.970766)
(-2399.663487 0 7412.088937)
(-2584.957556 3.270077947e-11 7363.47652)
(-2745.899434 -3.041848781e-11 7307.989093)
(-2883.130561 2.855376785e-11 7245.661026)
(-2997.79591 2.700687387e-11 7177.26909)
(-3090.989753 0 7102.341392)
(-3165.517136 0 7022.372941)
(-3224.293729 0 6937.727548)
(-3270.089951 0 6849.886017)
(-3306.969337 2.214545088e-11 6759.770972)
(-3339.133235 0 6669.094772)
(-3370.158108 0 6579.218842)
(-3404.621336 2.052985985e-11 6491.581044)
(-3447.533381 0 6408.090233)
(-3503.518046 0 6330.503189)
(-3577.378821 0 6260.803639)
(-3674.305 0 6200.934232)
(-3799.835642 -1.892554649e-11 6153.075054)
(-3960.125953 0 6119.584098)
(-4161.678833 0 6103.100108)
(-4410.852571 0 6106.13819)
(-4714.426208 0 6131.791813)
(-5079.09039 0 6182.737273)
(-5511.06234 1.803880957e-11 6261.518311)
(-6014.132814 0 6369.542128)
(-6586.570695 0 6506.292724)
(-7218.960048 -8.932378896e-12 6667.452207)
(-7890.015132 -8.918649746e-12 6843.057592)
(-8560.832148 0 7015.603892)
(-9175.869028 0 7159.447902)
(-9668.342232 0 7243.720656)
(-9974.740506 0 7239.377625)
(-10052.92722 0 7127.196298)
(-9894.611487 4.483716243e-12 6904.398749)
(-9526.607406 -4.49730586e-12 6584.958867)
(-8999.205443 4.513308438e-12 6194.035719)
(-8371.862571 2.265817601e-12 5761.472082)
(-7699.044213 0 5314.333844)
(-7023.352041 2.287477217e-12 4873.805867)
(-6376.533157 0 4455.772051)
(-5784.243072 0 4073.439209)
(-5261.434792 1.163912826e-12 3734.364168)
(-719.6837866 0 7332.354118)
(-78.35725602 0 7276.368158)
(-476.4740869 0 7331.434068)
(-1255.169562 0 7317.96407)
(-1372.296724 0 7291.003535)
(-1622.581759 0 7266.870987)
(-1875.106194 4.596497294e-11 7237.842304)
(-2096.553212 -4.09592104e-11 7202.015785)
(-2293.477037 0 7159.453061)
(-2467.800092 3.418294001e-11 7110.267378)
(-2618.988919 3.179720354e-11 7054.407247)
(-2747.17736 0 6992.015866)
(-2852.981225 0 6922.897422)
(-2939.036366 -2.687282726e-11 6848.125065)
(-3007.262304 -2.572046586e-11 6768.153258)
(-3060.532557 0 6684.051392)
(-3102.531942 0 6596.71966)
(-3135.840619 0 6507.486259)
(-3165.233127 -4.501772134e-11 6417.823171)
(-3194.808272 -2.194975775e-11 6329.092349)
(-3228.129261 0 6242.883189)
(-3269.646669 0 6160.772745)
(-3324.331324 0 6084.66239)
(-3397.023343 0 6016.35692)
(-3492.599366 0 5957.775624)
(-3616.179979 0 5911.092703)
(-3773.272483 9.781752279e-12 5878.56133)
(-3969.89544 0 5862.560675)
(-4212.549022 -1.920948457e-11 5865.724087)
(-4507.915441 0 5890.822602)
(-4862.161813 0 5940.520151)
(-5280.23415 0 6017.123873)
(-5765.707672 9.389331514e-12 6121.996279)
(-6317.803121 9.359209277e-12 6254.620418)
(-6926.520974 0 6410.771068)
(-7571.428837 4.661443454e-12 6581.15415)
(-8216.720991 0 6749.193425)
(-8809.480155 -9.315216605e-12 6890.920894)
(-9287.169002 4.660556278e-12 6977.018369)
(-9590.011882 9.3330447e-12 6980.216549)
(-9677.445701 0 6881.648796)
(-9540.524775 4.686940323e-12 6678.127867)
(-9202.513868 9.402291909e-12 6381.507904)
(-8710.062767 0 6015.15172)
(-8118.849037 0 5606.892846)
(-7480.373102 0 5182.345368)
(-6835.796943 2.391156956e-12 4762.025349)
(-6216.279385 0 4361.62987)
(-5647.162046 0 3994.223891)
(-5142.791995 -2.433334179e-12 3667.067273)
(-697.7773473 0 7068.344222)
(-76.2172009 -1.814684234e-10 7013.451401)
(-453.7727996 0 7066.097842)
(-1203.583053 0 7053.522018)
(-1315.15604 0 7026.794382)
(-1552.224934 0 7003.458189)
(-1792.108837 0 6974.917393)
(-2001.890525 4.285867184e-11 6939.491517)
(-2187.624645 3.888174779e-11 6897.60558)
(-2351.271111 0 6849.377884)
(-2492.224495 0 6794.338043)
(-2610.65602 0 6732.583142)
(-2708.471223 2.954015409e-11 6664.714471)
(-2787.135098 -5.623808049e-11 6591.293483)
(-2849.192972 0 6512.746545)
(-2897.317719 0 6430.346331)
(-2934.537426 0 6344.840239)
(-2965.030323 0 6257.517185)
(-2991.95024 0 6169.951168)
(-3019.158232 1.148383307e-11 6083.333576)
(-3050.984006 0 5999.23483)
(-3091.769914 -1.10033343e-11 5919.247027)
(-3145.707856 1.080643337e-11 5845.290533)
(-3217.042412 1.063375866e-11 5778.891547)
(-3310.874545 0 5722.111361)
(-3432.302834 -1.03503938e-11 5676.978064)
(-3586.5116 0 5645.627665)
(-3779.203202 0 5630.449699)
(-4016.081057 0 5633.946615)
(-4303.320324 0 5658.666344)
(-4647.261928 -1.983199268e-11 5707.308335)
(-5052.83756 0 5781.929937)
(-5522.379053 0 5883.913307)
(-6054.85658 0 6012.67226)
(-6641.735077 -4.885123886e-12 6164.196394)
(-7262.675284 0 6329.726422)
(-7883.993852 0 6493.637206)
(-8456.133627 4.873602414e-12 6633.195567)
(-8920.204547 4.876687075e-12 6721.101853)
(-9219.804381 0 6731.159136)
(-9315.912927 0 6645.26854)
(-9198.966754 4.904294635e-12 6459.529241)
(-8889.218309 4.919159117e-12 6184.167395)
(-8429.810819 0 5840.814523)
(-7872.748156 2.478354267e-12 5455.323442)
(-7266.918285 0 5052.047783)
(-6652.110772 2.50204558e-12 4650.87371)
(-6058.802313 0 4267.238119)
(-5511.905448 0 3914.008708)
(-5025.180965 -2.546178747e-12 3598.150048)
(-675.4225332 5.562305442e-10 6788.360985)
(-73.6886399 0 6735.011118)
(-432.1481484 1.172146256e-10 6786.124839)
(-1152.891603 8.607589806e-11 6774.732623)
(-1259.091904 -6.883413373e-11 6749.178998)
(-1483.91425 0 6727.015364)
(-1710.99369 0 6700.160134)
(-1909.076857 -4.489341903e-11 6666.552736)
(-2083.746543 0 6626.525183)
(-2236.512555 0 6580.087278)
(-2367.143729 3.485138411e-11 6527.059156)
(-2476.783432 3.27149181e-11 6467.824105)
(-2566.294415 -3.094259488e-11 6402.516633)
(-2637.647073 0 6331.527117)
(-2693.348946 0 6255.896137)
(-2736.291335 0 6176.207963)
(-2769.254236 0 6093.662804)
(-2795.790165 0 6009.398609)
(-2820.258906 -2.467087883e-11 5924.820669)
(-2845.753277 0 5841.240241)
(-2875.739786 0 5760.034913)
(-2914.917806 0 5682.949419)
(-2967.671533 2.26389537e-11 5611.667287)
(-3037.988203 0 5547.745117)
(-3130.516242 1.09801921e-11 5493.276077)
(-3249.75445 -1.084178645e-11 5450.036828)
(-3400.772929 1.072130774e-11 5420.194015)
(-3589.209854 -1.061698407e-11 5406.104774)
(-3820.691034 -2.105459155e-11 5410.05931)
(-4100.902721 0 5434.692213)
(-4435.098904 -1.03867657e-11 5482.403992)
(-4828.257448 0 5555.308352)
(-5283.244035 1.029119437e-11 5654.633981)
(-5797.752795 5.129089408e-12 5779.770901)
(-6363.708828 0 5926.972985)
(-6962.561579 -5.109183818e-12 6087.923131)
(-7561.664185 0 6247.988595)
(-8114.706606 0 6385.509283)
(-8566.25197 0 6475.042229)
(-8862.797836 0 6491.319122)
(-8967.12508 0 6417.160235)
(-8868.6829 2.568564831e-12 6247.767438)
(-8585.497773 2.576349918e-12 5992.200349)
(-8157.302472 2.585517174e-12 5670.320962)
(-7632.587316 0 5306.174529)
(-7057.870781 -2.607801049e-12 4922.960102)
(-6471.575112 2.620832023e-12 4539.946929)
(-5903.46268 -2.63507302e-12 4172.249131)
(-5377.959965 0 3832.529356)
(-4908.191994 0 3527.41919)
(-653.5344085 5.832799794e-10 6493.590411)
(-72.26419851 0 6442.335961)
(-411.9807797 0 6492.238081)
(-1104.246067 0 6481.972673)
(-1204.971037 7.218153074e-11 6458.88434)
(-1418.019151 0 6438.465481)
(-1633.402698 0 6413.925652)
(-1819.974757 4.707658147e-11 6383.000236)
(-1983.434807 0 6345.927946)
(-2125.8222 0 6302.649181)
(-2247.062131 -3.654620356e-11 6253.23885)
(-2347.450929 -3.430584115e-11 6197.549706)
(-2428.588218 0 6135.743343)
(-2492.764846 0 6068.800863)
(-2542.2104 0 5996.900616)
(-2579.517553 0 5921.293831)
(-2608.037737 0 5842.671174)
(-2631.243709 0 5762.489138)
(-2652.344515 0 5681.884978)
(-2675.179922 -2.522801489e-11 5602.109966)
(-2703.618116 0 5524.60026)
(-2741.530091 0 5451.170855)
(-2792.565476 2.37398837e-11 5383.139005)
(-2861.061784 -1.168027343e-11 5322.275175)
(-2951.660905 0 5270.503519)
(-3068.686042 1.136902141e-11 5229.515205)
(-3216.968149 0 5201.569486)
(-3401.231341 1.113328687e-11 5188.780544)
(-3626.924162 0 5193.465898)
(-3900.002091 0 5218.182854)
(-4225.478197 1.089187308e-11 5265.223065)
(-4607.094199 -5.418168829e-12 5336.572362)
(-5047.610518 0 5433.426324)
(-5545.570312 0 5555.18688)
(-6092.259687 0 5698.411711)
(-6670.295547 -5.357642879e-12 5855.099369)
(-7248.803956 0 6011.40825)
(-7784.032706 5.353234981e-12 6147.056274)
(-8223.882459 5.356623242e-12 6237.853138)
(-8517.618624 -5.363480282e-12 6259.850105)
(-8629.597013 -5.373638374e-12 6196.383873)
(-8548.402832 -2.693473883e-12 6042.009957)
(-8290.163022 5.403275105e-12 5804.853924)
(-7891.398974 0 5502.990194)
(-7397.376064 -2.722259947e-12 5158.868983)
(-6852.389865 0 4794.602201)
(-6293.48453 0 4428.84906)
(-5749.650154 -1.381608173e-12 4076.345289)
(-5244.812957 -1.389692553e-12 3749.5419)
(-4791.414304 -1.398379688e-12 3454.709557)
(-632.2830358 -6.123515639e-10 6185.21961)
(-71.56618717 0 6136.134416)
(-393.2274419 0 6184.302208)
(-1058.597765 0 6176.211475)
(-1154.706392 0 6155.666039)
(-1355.985228 0 6138.417518)
(-1560.044098 5.546309657e-11 6116.951677)
(-1736.05082 -4.942295179e-11 6089.550172)
(-1889.223579 -4.483691772e-11 6056.503339)
(-2021.632891 0 6017.607727)
(-2133.128553 -3.836772338e-11 5972.429986)
(-2224.550167 0 5921.199378)
(-2297.932991 0 5864.518249)
(-2354.738422 -3.242578234e-11 5802.279064)
(-2397.678144 0 5735.559827)
(-2429.723793 0 5664.886928)
(-2453.31466 -1.441031506e-11 5591.371692)
(-2472.473347 0 5516.16401)
(-2490.622156 0 5440.399379)
(-2510.566483 2.648541853e-11 5365.313827)
(-2536.362525 0 5292.343105)
(-2572.153396 0 5223.11766)
(-2621.461141 0 5158.953004)
(-2688.266795 0 5101.725957)
(-2776.430271 -1.208804146e-11 5053.050762)
(-2890.391916 -1.193567107e-11 5014.759506)
(-3035.200639 -1.18030368e-11 4989.04143)
(-3215.427996 0 4977.832949)
(-3435.840064 1.158944991e-11 4983.560045)
(-3701.605606 0 5008.534931)
(-4017.97284 5.717370488e-12 5055.076384)
(-4388.909033 0 5125.055353)
(-4815.973874 0 5219.683485)
(-5297.808528 0 5338.323554)
(-5826.503041 -5.633334722e-12 5477.694152)
(-6384.994797 0 5630.398468)
(-6944.337315 1.124066231e-11 5783.113775)
(-7463.077674 5.620048595e-12 5916.963191)
(-7891.892856 -5.623605652e-12 6008.697629)
(-8182.968705 0 6035.878342)
(-8301.821656 0 5982.043018)
(-8236.798992 -2.827720828e-12 5841.526413)
(-8002.067739 0 5621.463364)
(-7631.000113 0 5338.21401)
(-7166.126517 0 5012.882052)
(-6649.630505 0 4666.553665)
(-6117.132757 0 4317.23178)
(-5596.779073 -1.450469676e-12 3979.245876)
(-5112.010583 2.917914009e-12 3664.832166)
(-4674.510634 0 3379.853218)
(-611.7189412 0 5863.211976)
(-71.17777088 0 5816.271887)
(-377.0008141 -1.356369737e-10 5863.266592)
(-1016.563678 -9.960424528e-11 5858.051367)
(-1108.989566 0 5840.329231)
(-1299.921657 0 5826.510503)
(-1492.904963 0 5809.168715)
(-1658.981844 0 5786.312261)
(-1802.46932 4.712876274e-11 5758.032892)
(-1925.002222 0 5724.061305)
(-2027.363714 -2.016444741e-11 5684.326266)
(-2110.866854 0 5639.043216)
(-2176.111753 0 5587.999878)
(-2225.856311 0 5531.803429)
(-2262.515349 0 5471.128583)
(-2288.574208 0 5406.561075)
(-2307.673526 0 5339.025851)
(-2322.465066 0 5269.728859)
(-2336.485751 0 5199.678252)
(-2353.407253 1.39196121e-11 5130.086142)
(-2376.663222 0 5062.433431)
(-2409.639368 0 4998.069879)
(-2456.086041 0 4938.436219)
(-2520.253105 1.288923265e-11 4885.313191)
(-2605.818936 1.270592325e-11 4840.22837)
(-2716.813268 0 4805.13542)
(-2857.487249 -1.240635061e-11 4781.90726)
(-3032.654071 0 4772.63309)
(-3247.417461 6.09092313e-12 4779.618094)
(-3506.302846 0 4805.118415)
(-3813.628333 -6.009614647e-12 4851.329071)
(-4173.549716 0 4920.143936)
(-4587.891464 -5.954318652e-12 5012.676593)
(-5054.432547 0 5128.439478)
(-5565.978366 5.92128336e-12 5264.21469)
(-6106.110528 5.912182199e-12 5413.064625)
(-6647.329401 0 5562.381022)
(-7150.531578 5.907318103e-12 5694.294106)
(-7569.00469 0 5786.758744)
(-7857.545267 5.918623923e-12 5818.52796)
(-7982.557719 0 5773.317176)
(-7932.547955 0 5645.553968)
(-7719.85901 0 5441.264084)
(-7374.971534 0 5175.362514)
(-6937.863744 3.004025701e-12 4867.677022)
(-6448.699881 0 4538.357256)
(-5941.694928 3.03274205e-12 4204.692818)
(-5444.119265 -1.524610637e-12 3880.623856)
(-4978.860859 1.533531775e-12 3578.13024)
(-4556.85804 0 3302.674297)
(-591.856223 0 5527.873662)
(-72.41085726 0 5483.533925)
(-364.1137104 0 5529.915542)
(-979.1211281 0 5527.269983)
(-1068.059756 0 5513.487484)
(-1250.093657 0 5503.315889)
(-1433.661402 6.13561551e-11 5490.568749)
(-1590.301562 0 5472.88999)
(-1724.480047 0 5450.179385)
(-1838.450674 2.281447836e-11 5422.257752)
(-1932.684435 0 5389.186419)
(-2007.661383 -1.992121687e-11 5350.25611)
(-2065.534497 -3.768397866e-11 5305.976756)
(-2108.436621 0 5256.853187)
(-2138.802959 0 5203.099818)
(-2159.190937 0 5145.534824)
(-2172.754916 -1.594143806e-11 5084.974564)
(-2183.320717 0 5022.429364)
(-2193.36503 0 4958.996549)
(-2206.168225 -1.464977197e-11 4895.702599)
(-2225.80141 0 4834.023183)
(-2255.687389 0 4775.220388)
(-2299.142741 0 4720.810316)
(-2359.815764 0 4672.331529)
(-2441.552309 0 4631.372518)
(-2548.575034 0 4599.832119)
(-2685.003093 1.305713173e-11 4579.515291)
(-2854.943524 -6.465039562e-12 4572.536906)
(-3063.075786 -6.410425439e-12 4581.010172)
(-3314.367293 0 4607.255269)
(-3612.882208 0 4653.353327)
(-3961.876394 0 4721.208246)
(-4363.421301 0 4811.881491)
(-4815.278755 -6.246551028e-12 4924.850857)
(-5310.239699 6.23188712e-12 5057.279567)
(-5832.933004 0 5202.385089)
(-6357.042178 0 5348.479402)
(-6845.40351 0 5478.292705)
(-7253.993289 0 5571.279041)
(-7539.777702 -3.114544096e-12 5606.931238)
(-7670.457127 -3.120442785e-12 5569.523642)
(-7634.470461 0 5453.460935)
(-7442.314956 6.275305355e-12 5263.664174)
(-7122.135031 0 5013.8951)
(-6711.594806 -3.161603336e-12 4722.83908)
(-6248.802634 -1.587977993e-12 4409.684319)
(-5766.496496 0 4090.967132)
(-5291.206471 4.813754454e-12 3780.303085)
(-4845.172407 1.613973929e-12 3489.352442)
(-4438.458537 0 3223.096611)
(-573.767805 0 5179.873955)
(-75.43690753 -1.219835544e-10 5138.468923)
(-354.0236598 0 5183.814474)
(-947.1097554 0 5184.25831)
(-1033.979614 0 5174.607279)
(-1207.55957 0 5169.12906)
(-1382.819008 0 5161.396246)
(-1531.507882 0 5149.490833)
(-1657.704422 0 5133.183593)
(-1763.823801 -2.40434488e-11 5112.166576)
(-1849.869604 0 5085.921887)
(-1917.438389 0 5054.448819)
(-1968.457105 0 5018.078159)
(-2004.723722 0 4976.606026)
(-2028.78941 0 4930.839883)
(-2043.559055 0 4881.083677)
(-2052.048294 -1.680017156e-11 4828.38427)
(-2057.335523 0 4773.520966)
(-2062.833306 0 4717.432161)
(-2071.682022 0 4661.249099)
(-2087.168612 0 4606.312411)
(-2112.729227 0 4553.798812)
(-2152.09053 -1.452822627e-11 4505.1982)
(-2208.806461 0 4461.955785)
(-2286.343404 1.409276404e-11 4425.707553)
(-2388.380716 -1.391512417e-11 4398.14116)
(-2519.183735 0 4381.163679)
(-2683.183004 6.813298334e-12 4376.76225)
(-2884.510554 0 4387.084181)
(-3127.46482 0 4414.311529)
(-3416.414419 0 4460.543341)
(-3754.507225 -6.6315727e-12 4527.595222)
(-4143.084505 -1.320845508e-11 4616.585016)
(-4580.470472 0 4726.963591)
(-5059.381907 -6.567586469e-12 4856.177199)
(-5565.100174 -6.557491918e-12 4997.688601)
(-6072.66805 0 5140.502118)
(-6546.801387 6.5520969e-12 5268.164645)
(-6945.909638 -3.278121959e-12 5361.394774)
(-7228.564511 0 5400.225388)
(-7364.200599 3.28853482e-12 5369.824041)
(-7341.127134 0 5264.36401)
(-7168.162393 3.306671788e-12 5087.903464)
(-6871.359438 3.318437709e-12 4853.155066)
(-6486.206513 1.665956307e-12 4577.78635)
(-6048.820607 0 4279.970479)
(-5590.463276 0 3975.555856)
(-5136.856405 0 3677.796631)
(-4709.518228 -1.700915488e-12 3398.005648)
(-4317.817355 0 3140.796572)
(-557.2856876 0 4819.061687)
(-79.77801782 -2.574728064e-10 4780.411289)
(-347.6738104 7.938494284e-11 4824.827216)
(-920.9494633 0 4829.122918)
(-1007.174017 0 4823.548407)
(-1174.101928 0 4823.005367)
(-1342.023379 3.412042618e-11 4821.109244)
(-1483.954507 0 4815.619347)
(-1603.189309 0 4806.198688)
(-1702.031268 -2.537446247e-11 4792.509995)
(-1781.421844 0 4774.163857)
(-1842.582682 0 4751.214125)
(-1886.894848 0 4723.117988)
(-1916.935411 0 4690.469943)
(-1935.220014 0 4653.329017)
(-1944.193047 0 4612.392437)
(-1947.403337 0 4568.31492)
(-1947.830375 3.436792112e-11 4521.952865)
(-1948.101406 -1.670863437e-11 4474.058931)
(-1951.952941 0 4425.784149)
(-1962.93153 1.593032851e-11 4378.327239)
(-1983.976527 7.805929235e-12 4332.865913)
(-2018.343331 0 4290.72165)
(-2069.684683 1.508749357e-11 4253.352678)
(-2141.801099 7.43646046e-12 4222.323055)
(-2238.358849 7.342723532e-12 4199.291104)
(-2362.894219 0 4186.118981)
(-2519.554901 0 4184.695823)
(-2713.000241 -7.129731181e-12 4197.197392)
(-2947.198002 0 4225.72712)
(-3225.817388 0 4272.348802)
(-3552.336188 6.998687801e-12 4338.85684)
(-3927.756763 0 4426.280336)
(-4350.336003 0 4534.308223)
(-4813.338494 0 4660.372315)
(-5302.437651 0 4798.50502)
(-5793.730362 -3.457579991e-12 4937.949229)
(-6253.906831 3.457406193e-12 5063.451653)
(-6643.44056 -6.91918893e-12 5156.488531)
(-6922.759907 0 5197.979239)
(-7062.705567 -3.470583791e-12 5173.825824)
(-7051.318689 0 5077.896228)
(-6896.205203 -6.979449554e-12 4913.652739)
(-6621.607456 0 4692.924443)
(-6260.847747 -1.758181445e-12 4432.36222)
(-5848.054191 -1.766163e-12 4149.125395)
(-5413.244911 0 3858.490859)
(-4981.31527 0 3573.321343)
(-4572.998681 0 3304.517408)
(-4196.531211 0 3056.058027)
(-542.4294626 -3.98161361e-10 4444.272749)
(-85.85447988 4.081977186e-10 4408.712195)
(-345.6895217 0 4452.633225)
(-901.5649046 -6.161491325e-11 4460.6849)
(-987.8942256 9.854580142e-11 4459.921525)
(-1150.255333 0 4464.484673)
(-1312.730383 3.606304501e-11 4468.778234)
(-1448.935095 0 4470.181854)
(-1562.440984 0 4468.316194)
(-1655.740051 0 4462.862829)
(-1729.476768 0 4453.307941)
(-1784.538841 2.341801684e-11 4439.097358)
(-1823.244248 0 4420.374886)
(-1847.640717 0 4397.140603)
(-1860.193507 2.017967725e-11 4369.638682)
(-1864.051053 0 4338.238553)
(-1861.838602 -1.873966198e-11 4303.699116)
(-1856.813629 -1.816231543e-11 4266.633786)
(-1852.134604 0 4227.77128)
(-1850.818443 0 4188.254973)
(-1856.168558 0 4149.054495)
(-1871.607823 0 4111.340345)
(-1900.52223 -1.620543258e-11 4076.369906)
(-1946.044807 0 4045.591918)
(-2011.493629 0 4020.368404)
(-2100.94856 -7.760775534e-12 4002.455825)
(-2218.259105 0 3993.566839)
(-2366.967766 7.59985742e-12 3995.617176)
(-2551.234391 0 4010.663293)
(-2775.441212 0 4040.814144)
(-3043.079614 7.435062303e-12 4088.061112)
(-3357.038889 0 4154.2366)
(-3718.744112 0 4240.279998)
(-4126.172166 0 4346.075109)
(-4572.904496 7.325779317e-12 4469.107027)
(-5045.229124 3.657259732e-12 4603.816697)
(-5520.288122 -3.654434506e-12 4739.884026)
(-5966.593235 0 4863.091833)
(-6346.067698 3.656563707e-12 4955.428941)
(-6621.445154 0 4999.04758)
(-6764.748986 0 4980.29768)
(-6763.774649 3.677263999e-12 4892.902397)
(-6625.175168 0 4739.848627)
(-6371.512847 -3.701533638e-12 4532.211262)
(-6034.01578 3.716564193e-12 4285.577325)
(-5644.861589 1.866718064e-12 4016.19079)
(-5232.737644 -1.876045923e-12 3738.725808)
(-4821.538473 1.886239922e-12 3465.598973)
(-4431.141873 -1.897277117e-12 3207.319083)
(-4069.46697 9.545686076e-13 2967.735215)
(-530.2738147 0 4054.59715)
(-94.48775857 1.440396378e-10 4022.436172)
(-347.9354929 0 4065.799861)
(-889.7102662 -6.522566922e-11 4077.774145)
(-977.8181763 0 4082.158998)
(-1136.843605 0 4092.544541)
(-1295.628914 0 4103.35031)
(-1428.083808 3.401885275e-11 4112.190744)
(-1537.584316 0 4118.577536)
(-1626.453875 0 4121.902453)
(-1695.282001 0 4121.433572)
(-1745.803064 0 4116.998699)
(-1779.674325 0 4108.347968)
(-1799.239141 0 4095.350928)
(-1806.812286 -2.136224633e-11 4078.246299)
(-1805.366704 0 4057.341378)
(-1798.4088 0 4033.144133)
(-1788.033265 0 4006.242032)
(-1777.620858 0 3977.320451)
(-1770.858482 1.82304682e-11 3947.353166)
(-1770.573893 8.912004179e-12 3917.288627)
(-1779.699643 0 3888.135075)
(-1801.834161 0 3861.157044)
(-1840.419904 0 3837.658368)
(-1898.69078 8.320451984e-12 3819.016759)
(-1980.084962 0 3806.87772)
(-2088.404517 8.124277419e-12 3802.868205)
(-2227.799129 0 3808.923126)
(-2401.977884 0 3827.01768)
(-2614.765068 0 3859.200769)
(-2870.136811 0 3907.470719)
(-3170.594349 0 3973.569781)
(-3517.375916 0 4058.557026)
(-3908.87981 0 4162.255675)
(-4338.766199 -7.755084476e-12 4282.52978)
(-4793.779108 0 4413.813765)
(-5252.248998 0 4546.631404)
(-5684.181191 -3.868397123e-12 4667.304364)
(-6053.273096 0 4758.708414)
(-6324.125719 0 4804.006583)
(-6469.641071 0 4789.832318)
(-6477.770061 0 4710.004367)
(-6354.45304 3.904557483e-12 4567.204342)
(-6120.597713 -1.959225433e-12 4371.738897)
(-5805.409399 1.9671811e-12 4138.187263)
(-5439.494473 0 3882.068267)
(-5050.369117 0 3617.502807)
(-4661.111844 -1.99677731e-12 3356.496252)
(-4290.678323 0 3109.035003)
(-3945.024422 0 2877.852222)
(-520.8313266 0 3648.135631)
(-105.1768627 0 3619.30831)
(-354.8229941 0 3661.886021)
(-885.9049773 -6.916336905e-11 3678.49359)
(-977.7342948 0 3688.050711)
(-1135.533621 -4.652922477e-11 3704.642815)
(-1292.291506 -4.048113614e-11 3722.640121)
(-1422.78114 0 3739.496489)
(-1529.7881 0 3754.580333)
(-1615.61055 0 3767.230142)
(-1681.506739 0 3776.874679)
(-1728.603322 0 3783.021599)
(-1758.712266 0 3785.107539)
(-1774.223654 0 3783.323665)
(-1777.7276 0 3777.406406)
(-1771.840793 0 3767.867322)
(-1759.715881 -2.103546181e-11 3754.961479)
(-1744.524521 -1.019369227e-11 3739.114549)
(-1728.816484 9.911724048e-12 3721.081947)
(-1715.942036 0 3701.59221)
(-1709.246115 9.450025469e-12 3681.54404)
(-1711.837365 0 3661.844239)
(-1726.848405 -9.095381782e-12 3643.75524)
(-1757.355736 0 3628.333801)
(-1806.9842 0 3617.035559)
(-1879.392756 0 3611.347048)
(-1977.876321 8.614743251e-12 3612.903776)
(-2106.315973 0 3623.511192)
(-2268.897262 0 3645.141702)
(-2469.155706 0 3679.755093)
(-2710.651104 0 3729.367485)
(-2996.382656 0 3795.646535)
(-3327.126297 0 3879.738815)
(-3701.457 0 3981.449384)
(-4113.393362 -4.111631007e-12 4098.895174)
(-4550.203974 -8.210622791e-12 4226.730397)
(-4991.345438 0 4356.179898)
(-5407.772066 -4.101933832e-12 4473.902187)
(-5765.379933 0 4563.992041)
(-6030.386847 -4.109784355e-12 4610.298702)
(-6176.509244 0 4599.86933)
(-6192.103599 2.063883194e-12 4526.730526)
(-6082.424042 -6.21041577e-12 4393.311451)
(-5866.752545 6.232514015e-12 4209.095018)
(-5572.381477 -4.171881206e-12 3987.791541)
(-5228.140289 0 3744.121524)
(-4859.9956 0 3491.533025)
(-4489.731142 0 3241.496986)
(-4135.381734 0 3003.664584)
(-3804.054144 -1.071513004e-12 2781.534664)
(-514.42432 -4.747617008e-10 3220.853393)
(-117.8727441 1.622429682e-10 3195.50121)
(-367.0213683 0 3237.653609)
(-891.2679057 0 3259.167635)
(-988.1965506 -5.875227593e-11 3274.47137)
(-1147.346418 0 3297.564483)
(-1304.340326 4.300103993e-11 3323.233248)
(-1434.604543 0 3348.71829)
(-1541.04968 -3.476246749e-11 3373.297418)
(-1626.061071 0 3396.264201)
(-1690.429644 0 3416.848765)
(-1735.358078 2.792329613e-11 3434.188311)
(-1763.112651 0 3448.196976)
(-1775.78039 0 3458.357651)
(-1775.804322 0 3464.791697)
(-1766.421977 0 3467.513145)
(-1750.099753 0 3466.937577)
(-1729.78061 0 3463.266613)
(-1708.868229 1.05287174e-11 3457.101814)
(-1690.340621 0 3449.196689)
(-1676.931788 0 3440.212959)
(-1672.031911 0 3431.072407)
(-1679.089355 9.66155874e-12 3422.842397)
(-1701.056736 9.507177775e-12 3416.568537)
(-1741.10918 0 3413.592751)
(-1802.838345 -9.253833687e-12 3415.306096)
(-1890.069571 0 3423.294777)
(-2006.332362 0 3439.312367)
(-2155.446301 0 3465.242802)
(-2341.41824 0 3503.013517)
(-2567.44122 -4.432729027e-12 3554.55973)
(-2836.440709 4.410127431e-12 3621.615875)
(-3149.516867 0 3705.216395)
(-3505.173352 0 3805.445016)
(-3897.697782 4.367575258e-12 3920.313871)
(-4315.088306 0 4045.068258)
(-4737.664646 4.357493519e-12 4171.186077)
(-5137.79998 0 4286.096371)
(-5483.090721 0 4374.807922)
(-5740.986778 0 4421.671665)
(-5886.344836 0 4414.32636)
(-5907.962131 2.192357534e-12 4347.104119)
(-5810.440685 6.597006943e-12 4222.122994)
(-5611.630939 -2.206826919e-12 4048.195361)
(-5337.425049 -2.215788004e-12 3838.405718)
(-5015.390998 2.225846941e-12 3606.888371)
(-4670.65268 2.23696933e-12 3366.674991)
(-4324.449051 -2.249124504e-12 3128.90536)
(-3993.683682 0 2902.504398)
(-3680.817909 1.138213446e-12 2688.316851)
(-511.692297 -5.052641396e-10 2767.368824)
(-133.5582553 0 2745.857999)
(-384.9570861 0 2787.805077)
(-906.8997274 0 2814.444629)
(-1010.912484 6.252698588e-11 2836.15068)
(-1173.470122 0 2866.461945)
(-1333.253057 0 2900.445009)
(-1465.917162 -4.077991579e-11 2935.396007)
(-1574.059956 0 2970.426436)
(-1659.973846 0 3004.534426)
(-1724.482902 0 3036.801279)
(-1769.30619 0 3066.650354)
(-1796.110753 0 3093.475716)
(-1807.218061 0 3116.851983)
(-1805.23085 0 3136.675648)
(-1792.874242 0 3152.983817)
(-1773.249872 0 3165.814577)
(-1748.826848 0 3175.507585)
(-1722.762451 1.120516532e-11 3182.468737)
(-1698.400054 0 3187.285356)
(-1678.618761 0 3190.535845)
(-1666.354082 0 3193.121163)
(-1664.737122 0 3195.855589)
(-1677.187285 0 3199.790013)
(-1707.085419 -1.994819367e-11 3206.12907)
(-1757.466917 9.848372968e-12 3216.201108)
(-1831.987845 4.869466839e-12 3231.469849)
(-1934.712465 -4.822084439e-12 3253.637817)
(-2069.128352 0 3284.496007)
(-2238.976215 0 3325.935606)
(-2447.93789 4.717522492e-12 3379.811537)