/*--------------------------------*- C++ -*----------------------------------*\
  =========                 |
  \\      /  F ield         | OpenFOAM: The Open Source CFD Toolbox
   \\    /   O peration     | Website:  https://openfoam.org
    \\  /    A nd           | Version:  7
     \\/     M anipulation  |
\*---------------------------------------------------------------------------*/
FoamFile
{
    version     2.0;
    format      ascii;
    class       volScalarField;
    location    "0.0018";
    object      p;
}
// * * * * * * * * * * * * * * * * * * * * * * * * * * * * * * * * * * * * * //

dimensions      [1 -1 -2 0 0 0 0];

internalField   nonuniform List<scalar> 
1167
(
1215089.492
1225654.829
1224020.39
1224537.274
1225963.185
1227602.707
1229469.669
1231572.194
1233882.662
1236374.523
1239024.629
1241811.237
1244713.932
1247713.716
1250793.412
1253937.746
1257133.15
1260367.827
1206318.694
1216936.311
1215342.176
1215878.257
1217344.211
1219034.292
1220956.184
1223117.976
1225490.994
1228047.329
1230762.812
1233614.86
1236582.01
1239644.838
1242785.864
1245989.277
1249241.498
1252530.583
1255846.498
1259181.15
1262527.789
1265881.085
1269237.045
1272592.785
1275946.379
1279296.639
1282642.966
1285985.282
1289323.809
1292658.827
1295990.615
1299319.024
1302643.033
1305960.206
1309265.956
1312552.529
1315807.943
1319015.553
1322154.472
1325201.516
1328134.769
1330937.096
1333598.941
1336118.887
1338501.515
1340752.944
1342882.814
1344935.143
1347008.91
1348981.62
1197199.767
1207876.161
1206322.925
1206880.403
1208389.074
1210133.113
1212114.112
1214339.346
1216779.352
1219404.915
1222190.656
1225112.791
1228149.378
1231280.362
1234487.569
1237755.052
1241068.823
1244416.998
1247789.523
1251178.192
1254576.379
1257978.967
1261382.074
1264782.94
1268179.783
1271571.587
1274957.93
1278338.944
1281714.995
1285086.554
1288454
1291817.3
1295175.668
1298526.855
1301866.378
1305186.693
1308476.224
1311718.648
1314893.593
1317978.367
1320951.374
1323795.562
1326501.18
1329066.39
1331495.29
1333793.472
1335970.271
1338070.437
1340194.481
1342214.497
1187710.232
1198452.165
1196940.352
1197521.089
1199075.568
1200876.832
1202920.835
1205214.032
1207725.749
1210425.374
1213286.287
1216283.816
1219395.233
1222599.513
1225878.237
1229214.908
1232595.475
1236007.74
1239441.726
1242889.279
1246343.758
1249800.102
1253254.61
1256704.739
1260148.831
1263586.023
1267016.056
1270439.173
1273855.895
1277266.949
1280672.874
1284073.782
1287468.933
1290856.323
1294231.732
1297587.776
1300913.21
1304192.199
1307404.788
1310528.833
1313543.025
1316430.43
1319181.085
1321792.728
1324268.97
1326614.863
1328839.431
1330988.166
1333163.137
1335231.095
1177825.787
1188639.958
1187169.78
1187776.043
1189379.39
1191241.66
1193352.649
1195718.221
1198306.464
1201085.281
1204026.781
1207105.256
1210296.792
1213580.009
1216935.732
1220347.251
1223800.01
1227281.865
1230782.656
1234294.165
1237809.959
1241325.017
1244835.737
1248339.645
1251835.249
1255321.896
1258799.525
1262268.508
1265729.519
1269183.362
1272630.765
1276072.077
1279506.736
1282932.794
1286346.283
1289740.155
1293103.402
1296420.717
1299672.589
1302837.383
1305894.099
1308825.916
1311622.665
1314281.698
1316806.128
1319200.459
1321473.402
1323671.195
1325897.499
1328013.806
1167520.235
1178412.996
1176985.018
1177619.298
1179274.326
1181201.501
1183383.866
1185826.411
1188496.186
1191359.568
1194387.147
1197552.035
1200829.603
1204197.627
1207636.302
1211128.53
1214659.464
1218216.621
1221789.953
1225371.157
1228953.701
1232532.678
1236104.702
1239667.381
1243219.346
1246760.04
1250289.539
1253808.403
1257317.514
1260817.819
1264310.166
1267794.981
1271271.988
1274739.45
1278193.474
1281627.376
1285030.514
1288387.941
1291680.729
1294887.683
1297988.174
1300965.461
1303809.175
1306516.328
1309089.545
1311532.788
1313854.457
1316101.533
1318379.278
1320544.048
1156766.123
1167743.912
1166358.906
1167023.302
1168733.115
1170728.694
1172986.784
1175511.175
1178267.646
1181220.931
1184340.276
1187597.692
1190967.454
1194426.453
1197954.411
1201533.59
1205148.928
1208787.761
1212439.731
1216096.607
1219751.887
1223400.706
1227039.649
1230666.459
1234279.966
1237879.721
1241465.935
1245039.293
1248600.751
1252151.473
1255692.512
1259224.441
1262747.023
1266258.809
1269756.148
1273232.521
1276677.751
1280077.252
1283412.655
1286663.199
1289808.647
1292832.348
1295723.773
1298479.598
1301101.984
1303594.372
1305964.872
1308261.194
1310590.207
1312803.286
1145535.647
1156604.698
1155263.253
1155959.794
1157727.595
1159795.255
1162133.181
1164744.102
1167592.422
1170641.179
1173858.246
1177214.254
1180682.399
1184238.905
1187862.617
1191535.459
1195241.824
1198968.919
1202706.258
1206445.364
1210179.705
1213904.607
1217616.654
1221313.661
1224994.503
1228658.808
1232306.972
1235939.844
1239558.518
1243164.222
1246758.129
1250341.065
1253912.951
1257472.384
1261016.061
1264537.696
1268027.426
1271471.152
1274850.961
1278146.585
1281338.144
1284409.088
1287348.8
1290153.649
1292825.35
1295366.847
1297785.986
1300131.206
1302510.982
1304771.888
1133801.274
1144967.02
1143669.45
1144400.393
1146228.85
1148372.45
1150794.343
1153496.325
1156441.561
1159591.323
1162911.737
1166372.29
1169945.296
1173605.767
1177332.082
1181105.367
1184909.81
1188732.191
1192561.795
1196390.142
1200210.616
1204018.417
1207810.159
1211583.821
1215338.336
1219073.42
1222789.505
1226487.487
1230168.693
1233834.502
1237486.156
1241124.526
1244749.829
1248360.809
1251954.277
1255524.316
1259061.313
1262551.663
1265977.878
1269320.21
1272559.111
1275678.156
1278666.684
1281520.792
1284241.792
1286832.177
1289299.544
1291693.049
1294122.765
1296430.708
1121536.471
1132803.606
1131550.609
1132317.835
1134209.337
1136431.788
1138941.52
1141738.885
1144785.676
1148041.395
1151470.747
1155041.912
1158725.87
1162496.878
1166332.474
1170213.261
1174122.799
1178047.727
1181977.007
1185901.871
1189815.753
1193713.798
1197592.583
1201450.026
1205285.089
1209097.657
1212888.226
1216657.751
1220407.551
1224139.156
1227853.993
1231553.01
1235236.456
1238903.369
1242550.672
1246172.705
1249760.186
1253299.887
1256774.771
1260165.574
1263453.075
1266621.049
1269658.799
1272562.189
1275332.182
1277970.886
1280485.686
1282926.445
1285404.822
1287758.534
1108717.824
1120090.316
1118882.375
1119687.075
1121643.83
1123947.526
1126548.018
1129444.285
1132596.601
1135962.805
1139506.16
1143193.136
1146993.767
1150881.435
1154832.757
1158827.744
1162849.522
1166884.155
1170920.513
1174949.587
1178964.559
1182960.458
1186933.926
1190882.847
1194806.137
1198703.641
1202575.876
1206423.955
1210249.239
1214053.243
1217837.448
1221603.013
1225350.23
1229078.207
1232784.134
1236462.473
1240104.306
1243696.694
1247223.091
1250664.639
1254002.443
1257220.523
1260308.173
1263261.08
1266079.918
1268766.469
1271327.932
1273814.852
1276340.435
1278738.491
1095327.105
1106807.451
1105644.327
1106487.324
1108510.372
1110897.233
1113590.445
1116587.97
1119848.768
1123328.893
1126989.794
1130796.916
1134719.164
1138728.718
1142801.563
1146916.895
1151057.451
1155208.897
1159359.548
1163500.251
1167624.099
1171725.909
1175802.131
1179850.556
1183870.139
1187860.685
1191822.677
1195757.113
1199665.448
1203549.275
1207410.036
1211248.89
1215066.299
1218861.342
1222631.395
1226371.067
1230071.673
1233720.554
1237301.593
1240796.29
1244186.115
1247455.309
1250593.203
1253595.366
1256462.289
1259195.487
1261802.03
1264333.182
1266903.684
1269343.703
1081353.474
1092941.924
1091823.319
1092704.73
1094793.736
1097263.755
1100050.359
1103150.004
1106520.402
1110115.943
1113896.658
1117826.815
1121873.866
1126009.303
1130208.074
1134448.92
1138713.869
1142988.207
1147259.912
1151519.457
1155759.625
1159975.148
1164162.315
1168318.749
1172443.191
1176535.35
1180595.744
1184625.302
1188625.326
1192597.382
1196542.987
1200463.213
1204358.511
1208228.067
1212069.221
1215876.79
1219642.176
1223353.031
1226993.522
1230545.465
1233990.695
1237313.654
1240503.73
1243556.439
1246472.155
1249252.183
1251903.475
1254477.919
1257091.695
1259572.065
1066796.634
1078491.325
1077416.451
1078334.863
1080488.265
1083039.523
1085917.738
1089117.964
1092596.715
1096306.965
1100207.338
1104260.608
1108433.48
1112696.399
1117023.645
1121393.119
1125786.516
1130188.514
1134586.623
1138971.162
1143334.562
1147671.181
1151977.067
1156249.765
1160487.81
1164690.684
1168858.624
1172992.53
1177093.612
1181163.21
1185202.702
1189213.17
1193194.85
1197146.945
1201066.722
1204949.017
1208785.255
1212563.288
1216267.448
1219879.853
1223382.619
1226760.388
1230002.649
1233104.973
1236067.692
1238892
1241584.898
1244199.074
1246852.152
1249368.414
1051671.353
1063467.314
1062434.31
1063386.737
1065600.552
1068228.919
1071194.06
1074490.162
1078072.827
1081893.553
1085909.603
1090082.931
1094379.235
1098768.11
1103223.153
1107721.734
1112244.833
1116776.868
1121304.903
1125818.739
1130310.611
1134774.602
1139206.435
1143603.263
1147963.414
1152286.215
1156571.618
1160820.178
1165032.942
1169211.124
1173355.81
1177467.906
1181547.564
1185593.724
1189603.636
1193571.951
1197490.122
1201345.971
1205123.887
1208806.188
1212375.13
1215815.463
1219116.763
1222274.661
1225289.458
1228162.247
1230899.958
1233555.681
1236248.291
1238800.894
1036011.919
1047899.627
1046905.543
1047887.268
1050154.435
1052852.114
1055895.984
1059279.231
1062956.803
1066879.134
1071002.639
1075288.346
1079701.061
1084209.899
1088787.714
1093411.575
1098061.979
1102722.693
1107380.683
1112025.36
1116648.464
1121243.697
1125806.588
1130333.885
1134823.503
1139274.305
1143685.989
1148058.741
1152393.119
1156689.965
1160950.077
1165173.85
1169361.169
1173510.585
1177619.024
1181680.81
1185687.206
1189625.805
1193480.956
1197234.998
1200870.26
1204371.595
1207728.749
1210937.477
1213998.174
1216912.058
1219686.449
1222375.563
1225099.598
1227678.573
1019876.588
1031841.634
1030882.606
1031886.23
1034196.496
1036951.349
1040060.732
1043517.086
1047275.06
1051284.484
1055501.068
1059885.077
1064401.153
1069017.729
1073707.534
1078447.063
1083216.757
1088000.026
1092783.332
1097555.99
1102309.467
1107037.096
1111733.923
1116396.398
1121022.147
1125609.603
1130157.916
1134666.931
1139136.841
1143567.942
1147960.628
1152314.921
1156630.142
1160904.519
1165134.433
1169313.828
1173433.456
1177480.457
1181438.848
1185290.6
1189017.739
1192604.952
1196041.877
1199324.183
1202452.199
1205427.016
1208255.612
1210991.849
1213756.912
1216373.328
1003354.081
1015376.086
1014446.646
1015461.626
1017800.433
1020595.479
1023751.311
1027260.337
1031077.389
1035151.889
1039439.258
1043899.879
1048498.097
1053202.314
1057985.097
1062823.015
1067696.108
1072587.884
1077484.647
1082375.321
1087251.091
1092105.139
1096932.06
1101727.728
1106489.18
1111214.402
1115901.893
1120550.646
1125160.155
1129729.998
1134259.613
1138748.298
1143194.472
1147595.547
1151947.056
1156242.194
1160470.89
1164619.663
1168671.939
1172609.228
1176413.266
1180068.656
1183565.034
1186898.175
1190068.633
1193077.973
1195934.37
1198693.983
1201479.047
1204105.329
986568.8768
998619.7934
997712.4616
998725.1768
1001072.72
1003884.979
1007061.658
1010595.381
1014441.716
1018550.488
1022877.557
1027383.58
1032033.138
1036795.177
1041642.43
1046551.871
1051503.854
1056481.832
1061472.489
1066464.887
1071450.132
1076421.247
1081372.882
1086300.762
1091201.565
1096072.828
1100912.788
1105719.985
1110493.211
1115231.52
1119933.711
1124598.226
1129222.786
1133803.816
1138335.939
1142811.172
1147218.209
1151542.278
1155765.354
1159867.489
1163829.131
1167633.724
1171269.955
1174732.874
1178022.452
1181139.456
1184090.287
1186928.304
1189776.695
1192463.208
969685.3991
981728.2864
980834.3892
981827.5352
984158.721
986958.2684
990122.2282
993643.8545
997480.0951
1001581.976
1005906.19
1010414.044
1015071.332
1019847.528
1024716.352
1029655.157
1034645.056
1039669.923
1044716.545
1049774.349
1054834.586
1059890.101
1064935.199
1069965.317
1074976.643
1079965.878
1084930.299
1089867.525
1094775.144
1099650.797
1104492.036
1109295.74
1114058.166
1118774.189
1123436.975
1128036.996
1132561.542
1136994.431
1141316.311
1145506.105
1149543.366
1153410.878
1157096.965
1160596.645
1163910.242
1167039.764
1169995.118
1172835.781
1175684.932
1178347.441
952912.0784
964899.8234
964009.0713
964961.464
967245.9983
969996.4836
973106.535
976570.9423
980348.7971
984392.8614
988661.3286
993117.5148
997728.8026
1002466.163
1007304.898
1012223.786
1017205.16
1022234.45
1027299.54
1032390.905
1037500.974
1042623.66
1047754.019
1052888.214
1058023.098
1063155.907
1068284.088
1073405.345
1078517.279
1083617.104
1088701.75
1093767.303
1098808.815
1103819.747
1108791.389
1113711.95
1118566.059
1123334.326
1127993.787
1132519.552
1136887.277
1141076.062
1145070.98
1148864.246
1152453.546
1155837.296
1159018.416
1162046.137
1165046.071
1167861.479
936487.1259
948364.5637
947465.4437
948352.2845
950553.1595
953210.2389
956215.2807
959565.1227
963221.6455
967139.893
971280.4173
975608.8392
980094.1658
984709.4057
989431.379
994240.5833
999120.5114
1004057.749
1009041.354
1014062.517
1019114.33
1024191.184
1029288.434
1034402.244
1039529.277
1044666.34
1049810.204
1054957.635
1060105.04
1065248.264
1070382.617
1075502.501
1080601.098
1085670.02
1090698.605
1095673.134
1100576.244
1105386.479
1110078.735
1114625.986
1119001.88
1123183.855
1127155.885
1130909.858
1134444.319
1137761.404
1140874.841
1143852.038
1146815.352
1149531.073
920732.7609
932423.1869
931502.586
932298.6841
934378.2807
936897.4178
939747.6493
942928.2561
946404.9759
950136.5332
954087.0839
958225.3775
962523.7748
966958.7278
971510.1921
976161.8335
980900.3707
985715.5296
990599.534
995546.8324
1000553.684
1005617.645
1010737.274
1015911.894
1021141.154
1026424.665
1031761.935
1037152.032
1042593.239
1048082.937
1053617.275
1059190.81
1064796.155
1070423.389
1076059.343
1081686.692
1087283.163
1092821.047
1098267.647
1103587.154
1108743.749
1113705.346
1118446.879
1122951.752
1127209.534
1131209.216
1134940.036
1138435.86
1141826.048
1144986.86
917263.4805
916311.8371
916983.6656
918889.1354
921203.4458
923819.491
926738.791
929930.7231
933357.4201
936985.8702
940787.3656
944736.7246
948812.4771
952996.5306
957274.0793
961633.4288
966065.4831
970563.5558
975123.2719
979741.7366
984417.2579
989149.3518
993938.083
998783.7318
1003686.663
1008647.144
1013664.818
1018738.617
1023866.666
1029045.668
1034270.894
1039535.576
1044830.435
1050142.782
1055455.577
1060746.202
1065985.809
1071139.472
1076167.904
1081030.941
1085691.915
1090121.837
1094301.955
1098223.554
1101887.356
1105318.174
1108611.298
1111896.394
1114813.823
)
;

boundaryField
{
    front_top
    {
        type            wedge;
    }
    front_middle
    {
        type            wedge;
    }
    front_bottom
    {
        type            wedge;
    }
    back_top
    {
        type            wedge;
    }
    back_middle
    {
        type            wedge;
    }
    back_bottom
    {
        type            wedge;
    }
    axis_top
    {
        type            symmetryPlane;
    }
    axis_middle
    {
        type            symmetryPlane;
    }
    axis_bottom
    {
        type            symmetryPlane;
    }
    wall_top
    {
        type            fixedFluxPressure;
        gradient        nonuniform 0();
        value           nonuniform 0();
    }
    wall_middle
    {
        type            fixedFluxPressure;
        gradient        uniform 0;
        value           nonuniform List<scalar> 
23
(
1348981.62
1342214.497
1335231.095
1328013.806
1320544.048
1312803.286
1304771.888
1296430.708
1287758.534
1278738.491
1269343.703
1259572.065
1249368.414
1238800.894
1227678.573
1216373.328
1204105.329
1192463.208
1178347.441
1167861.479
1149531.073
1144986.86
1114813.823
)
;
    }
    wall_bottom
    {
        type            fixedFluxPressure;
        gradient        nonuniform 0();
        value           nonuniform 0();
    }
    inlet
    {
        type            zeroGradient;
    }
    outlet
    {
        type            fixedValue;
        value           nonuniform 0();
    }
    procBoundary3to2
    {
        type            processor;
        value           nonuniform List<scalar> 
51
(
905822.3387
905822.3387
903482.7748
902486.6175
903021.5837
904735.336
906828.2713
909196.5161
911846.001
914751.9406
917882.1298
921209.1548
924709.9048
928364.7705
932157.6239
936075.8152
940109.7778
944253.326
948502.5455
952856.4544
957316.1853
961884.4276
966565.5807
971365.2215
976289.4292
981344.8932
986538.4781
991876.6679
997365.4302
1003009.887
1008813.788
1014779.176
1020905.897
1027190.837
1033627.227
1040203.437
1046901.573
1053695.752
1060550.568
1067420.689
1074252.319
1080987.43
1087569.981
1093952.211
1100098.058
1105979.026
1111558.632
1116780.069
1121616.247
1126178.245
1130378.038
)
;
    }
    procBoundary3to4
    {
        type            processor;
        value           nonuniform List<scalar> 
51
(
1223533.005
1234052.334
1232377.757
1232877.807
1234266.327
1235858.957
1237674.648
1239721.863
1241974.095
1244406.009
1246995.486
1249721.525
1252564.391
1255505.854
1258528.989
1261618.834
1264761.928
1267946.716
1263631.86
1263631.86
1266916.922
1270216.242
1273524.444
1276837.349
1280151.896
1283465.926
1286778.106
1290087.702
1293394.443
1296698.417
1299999.762
1303298.546
1306594.454
1309886.31
1313171.615
1316445.618
1319700.274
1322923.356
1326097.895
1329202.45
1332213.425
1335108.509
1337870.522
1340490.059
1342966.109
1345303.752
1347509.624
1349593.649
1351599.11
1353623.5
1355549.772
)
;
    }
}


// ************************************************************************* //
