/*--------------------------------*- C++ -*----------------------------------*\
  =========                 |
  \\      /  F ield         | OpenFOAM: The Open Source CFD Toolbox
   \\    /   O peration     | Website:  https://openfoam.org
    \\  /    A nd           | Version:  7
     \\/     M anipulation  |
\*---------------------------------------------------------------------------*/
FoamFile
{
    version     2.0;
    format      ascii;
    class       volScalarField;
    location    "0.0018";
    object      thermo:mu;
}
// * * * * * * * * * * * * * * * * * * * * * * * * * * * * * * * * * * * * * //

dimensions      [1 -1 -1 0 0 0 0];

internalField   nonuniform List<scalar> 
1167
(
169318.971
167418.5233
163417.9761
157683.2251
150526.8505
142260.0994
133197.934
123642.7813
113865.7612
104107.6697
94570.61313
85416.38362
76763.74787
68694.48826
61259.6829
54476.57376
48344.63097
42841.40445
165211.565
163334.8772
159385.942
153733.9024
146680.9007
138547.146
129641.0625
120261.4459
110679.4337
101131.6762
91815.22856
82885.13976
74457.02505
66610.3694
59388.40279
52809.01424
46866.06867
41538.85713
36792.65928
32585.955
28873.24155
25607.67797
22742.54918
20233.19802
18038.11471
16119.06006
14441.45291
12974.47777
11690.62382
10565.8369
9579.044473
8711.894192
7948.558241
7275.21678
6679.965981
6152.626947
5684.393111
5267.578864
4895.706518
4563.091511
4264.878969
3996.838127
3755.366007
3537.252334
3339.814811
3160.643433
2997.643477
2849.019075
2713.181923
2588.731047
161175.9779
159323.9193
155432.7028
149861.2623
142917.338
134916.2285
126168.9224
116968.5292
107582.9319
98244.87758
89146.48188
80438.52129
72234.00543
64604.23629
57591.41346
51209.54581
45451.55377
40293.57642
35702.15465
31635.01985
28046.76692
24891.39545
22123.39764
19699.30236
17578.53889
15723.99368
14102.23583
12683.41716
11441.07774
10352.14134
9396.205772
8555.586612
7814.989574
7161.248288
6582.906933
6070.10456
5614.396933
5208.430563
4845.882631
4521.383938
4230.170768
3968.237013
3732.048081
3518.544246
3325.132765
3149.470034
2989.541468
2843.617297
2710.146352
2587.778892
157215.701
155391.2581
151555.2609
146065.8534
139234.7871
131368.8097
122780.057
113760.0529
104571.3217
95442.49563
86561.31453
78075.05675
70088.5069
62671.91379
55863.58734
49674.21877
44095.03162
39101.95294
34659.52011
30726.26931
27257.88661
24208.5565
21533.6588
19190.84673
17140.87677
15347.81845
13779.35313
12406.51619
11203.79658
10148.8603
9222.17048
8406.783406
7687.89043
7052.752933
6490.447056
5991.499983
5547.676921
5152.0274
4798.376066
4481.58232
4197.041688
3940.92063
3709.768252
3500.67323
3311.092406
3138.780493
2981.787118
2838.445234
2707.238789
2586.866681
153332.4651
151533.9079
147753.8668
142351.7398
135631.4376
127904.5797
119476.1718
110635.7009
101643.6263
92723.68638
84058.06651
75788.46306
68016.62241
60809.73959
54199.9849
48198.66317
42793.12841
37958.88326
33660.8876
29857.05007
26503.50113
23555.69117
20970.13872
18705.39152
16723.29887
14988.9813
13471.24466
12142.20121
10977.30414
9954.897599
9056.15509
8264.706912
7566.497382
6949.161652
6402.115706
5916.364432
5483.936919
5098.074033
4752.942309
4443.483223
4165.342861
3914.75357
3688.417926
3483.54128
3297.6277
3128.525473
2974.347851
2833.47994
2704.446594
2585.990524
149524.4692
147752.3055
144030.7734
138716.4072
132108.3352
124520.5571
116254.1839
107594.5553
98798.40004
90084.63015
81631.21404
73575.70992
66016.00399
59012.48558
52598.15559
46778.21022
41541.73428
36861.68048
32702.46468
29023.35591
25780.75182
22930.74408
20430.69899
18240.62155
16323.53945
14645.57196
13176.50581
11889.39311
10760.52405
9769.16937
8897.177134
8128.727285
7450.201139
6849.876416
6317.496353
5844.308598
5422.788597
5046.300621
4709.325864
4406.895616
4134.890943
3889.607268
3667.906126
3467.066456
3284.67519
3118.657387
2967.192403
2828.699116
2701.757433
2585.14661
145792.6269
144048.7906
140387.9211
135159.1479
128667.4943
121217.0636
113112.0645
104632.8679
96031.46763
87521.95948
79279.17768
71434.93797
64081.44876
57278.25382
51052.92088
45410.74406
40337.14552
35806.36025
31781.85444
28222.79854
25086.65072
22330.73906
19913.133
17794.9271
15940.11881
14316.0544
12893.59677
11646.71645
10552.50125
9590.900923
8744.449548
7998.056884
7338.495484
6754.401627
6236.09756
5775.020803
5363.927524
4996.491195
4667.311558
4371.666042
4105.537509
3865.360108
3648.128184
3451.170621
3272.17414
3109.130518
2960.28247
2824.081171
2699.159322
2584.331222
142141.5663
140425.3955
136822.6597
131681.8793
125305.5748
117995.9209
110051.1837
101750.7195
93342.61494
85036.05358
77000.01053
69361.68261
62211.39898
55602.97488
49562.31954
44091.93727
39177.33189
34790.38699
30895.61525
27452.77501
24419.56618
21753.92659
19415.36247
17366.21083
15571.35959
13999.22401
12621.52206
11413.15365
10352.19214
9419.235216
8597.397324
7872.085652
7230.764556
6662.37011
6157.533113
5708.136819
5307.071738
4948.360151
4626.698062
4337.607682
4077.142669
3841.900998
3628.983786
3435.779435
3260.066613
3099.904192
2953.586483
2819.605238
2696.640651
2583.540752
138568.3927
136879.5043
133335.4232
128285.8125
122022.6339
114853.69
107070.2591
98948.17183
90730.88746
82623.50082
74790.31574
67355.25396
60403.13658
53984.33504
48123.57458
42820.17449
38058.82346
33811.64528
30042.2349
26711.00694
23776.90448
21198.4488
18936.17855
16953.30459
15215.93386
13693.69807
12359.12259
11187.93252
10158.88746
9253.408729
8455.290227
7750.385561
7126.541813
6573.295132
6081.483819
5643.335303
5252.002223
4901.687205
4587.312564
4304.553291
4049.574808
3819.136345
3610.384541
3420.822094
3248.297198
3090.938584
2947.074047
2815.251133
2694.190142
2582.771682
135072.88
133411.5338
129930.3852
124968.5477
118822.4768
111790.4404
104167.5619
96222.44274
88193.86997
80282.79323
72650.49773
65413.93632
58654.29595
52421.54351
46734.33534
41593.33789
36980.61391
32867.72287
29219.56112
25996.36655
23157.52177
20662.72315
18473.84762
16554.9218
14873.03351
13398.70363
12105.46838
10970.08947
9971.892737
9092.920857
8317.578756
7632.384438
7025.488008
6486.815337
6007.642177
5580.345503
5198.456089
4856.271917
4548.990106
4272.357735
4022.712065
3796.945194
3592.247476
3406.231726
3236.813186
3082.188052
2940.716363
2810.99964
2691.797008
2582.020627
131656.9726
130025.4779
126604.3988
121730.6203
115701.7747
108809.9366
101345.0921
93574.73437
85733.05698
78016.32451
70579.13871
63535.9937
56965.88322
50912.22199
45394.72693
40409.85593
35940.98386
31958.32833
28426.46791
25307.0828
22560.17576
20146.13029
18027.69276
16170.05927
14541.53294
13113.42046
11860.11626
10759.07317
9790.555918
8937.21273
8183.917835
7517.682048
6927.208756
6402.645777
5935.701942
5518.965163
5146.214996
4811.944542
4511.556663
4240.892283
3996.467893
3775.234922
3574.49622
3391.946449
3225.576973
3073.615172
2934.486183
2806.832517
2689.45097
2581.284353
128321.667
126718.2987
123357.4058
118575.9202
112660.9794
105909.2379
98603.40671
91006.50871
83348.77343
75821.88835
68575.90217
61723.42265
55336.08785
49457.40443
44103.23792
39270.3865
34939.47408
31082.05696
27662.68071
24643.10452
21984.16851
19647.62244
17597.0216
15798.43524
14221.07004
12837.24731
11622.36643
10554.52319
9614.58021
8785.879486
8053.917899
7406.038686
6831.406069
6320.583943
5865.44712
5458.996865
5095.109808
4768.583425
4474.882786
4210.044882
3970.725997
3753.925619
3557.063954
3377.911489
3214.533488
3065.186102
2928.358648
2802.732982
2687.142502
2580.559835
125064.4171
123489.654
120191.8045
115501.3064
109703.6102
103089.5818
95942.17341
88517.36051
81041.28514
73701.49563
66644.42563
59975.92151
53766.74023
48057.43195
42861.4278
38174.4121
33977.04713
30239.68117
26927.85292
24004.20927
21429.87383
19167.45371
17181.60024
15439.58702
13911.4313
12570.23279
11392.09962
10356.11876
9443.752406
8638.810256
7927.351134
7297.254535
6737.91887
6240.402869
5796.754514
5400.275747
5045.021977
4726.040545
4438.869045
4179.750572
3945.407276
3732.952146
3539.895733
3364.093677
3203.644862
3056.87159
2922.312084
2798.686291
2684.863172
2579.844374
121885.2001
120341.5165
117107.6279
112507.7
106829.3376
100355.7611
93364.94981
86110.92236
78814.98685
71659.26162
64785.33678
58296.3131
52260.65157
46714.17154
41671.07125
37124.37143
33054.45794
29432.47536
26223.72888
23391.25895
20897.56496
18706.09185
16782.2454
15094.08164
13612.766
12312.35149
11169.54454
10164.03186
9278.0383
8495.979015
7804.25683
7191.249239
6646.760656
6162.046244
5729.571376
5342.737523
4995.924866
4684.25363
4403.456269
4149.937209
3920.461577
3712.269641
3522.954146
3350.44771
3192.883791
3048.649699
2916.329792
2794.680789
2682.606149
2579.135727
118787.5287
117273.8752
114103.6321
109598.9917
104039.0929
97707.61418
90875.10215
83791.34942
76672.97755
69697.46542
63003.09918
56689.76951
50820.72528
45432.47745
40535.06954
36123.1543
32175.23526
28662.56401
25551.95611
22806.46153
20389.24433
18264.81578
16399.78733
14762.91365
13326.16654
12064.30271
10955.07817
9978.700485
9117.866349
8357.603661
7684.849077
7088.192344
6557.972721
6085.622437
5663.910629
5286.420176
4947.789517
4643.225516
4368.667771
4120.5868
3895.873685
3691.86111
3506.234715
3336.956148
3182.235542
3040.507885
2910.401804
2790.709297
2680.367118
2578.432428
115767.2565
114284.826
111181.3405
106774.7313
101337.171
95148.22042
88475.34618
81561.9897
74619.93294
67822.80311
61304.90786
55160.85998
49453.94893
44216.72971
39459.86483
35175.2049
31343.29626
27934.67622
24916.24245
22252.54204
19907.51216
17846.38114
16036.46155
14447.68671
13052.91697
11827.52516
10749.8615
9800.928663
8963.973371
8224.363402
7569.575364
6988.576315
6471.891233
6011.412271
5599.98369
5231.52817
4900.74366
4603.053454
4334.552046
4091.752503
3871.681506
3671.761556
3489.73945
3323.629401
3171.7057
3032.448401
2904.528254
2786.770867
2678.144949
2577.733912
112823.9946
111374.9775
108343.4272
104036.1317
98726.439
92684.18388
86172.37245
79430.45541
72664.81109
66043.78593
59697.33141
53718.55403
48167.64974
43075.26253
38451.64306
34288.37573
30564.9343
27253.84845
24322.04719
21734.55906
19456.37771
17454.06271
15695.48433
14151.43811
12795.45004
11603.91748
10555.72242
9632.319932
8817.579805
8097.359393
7459.356013
6893.06872
6389.179153
5939.891067
5538.229104
5178.358319
4855.065488
4563.994011
4301.276418
4063.569881
3847.989703
3652.051632
3473.527803
3310.511042
3161.325465
3024.492954
2898.723632
2782.874477
2675.944313
2577.041459
109959.5292
108546.6344
105588.2619
101387.3387
96209.28967
90319.54999
83973.72658
77405.50747
70815.86604
64369.05027
58191.46944
52373.65703
46972.07326
42018.54789
37520.59078
33471.05287
29849.43678
26628.36859
23776.27444
21258.94424
19042.21524
17093.30685
15381.38948
13878.10017
12557.55283
11396.69858
10375.28293
9475.23665
8680.756349
7978.246954
7355.73958
6802.911883
6310.894866
5871.941116
5479.414512
5127.52213
4811.269592
4526.42696
4269.182459
4036.315438
3825.040876
3632.896579
3457.736886
3297.705867
3151.172624
3016.696904
2893.024926
2779.042475
2673.776397
2576.358114
107172.3068
105796.993
102917.1576
98830.95346
93791.32865
88060.28341
81886.24966
75495.73027
69084.0137
62811.67431
56801.03467
51138.78792
45881.82518
41059.2197
36680.01558
32735.68658
29207.71792
26069.18727
23289.11279
20834.60881
18672.79856
16771.59439
15100.969
13633.49524
12344.1921
11210.48202
10212.55619
9333.048442
8556.518838
7869.596809
7260.837511
6720.020962
6238.58924
5808.93007
5424.630084
5079.972125
4770.170565
4491.004703
4238.804776
4010.432322
3803.163749
3614.573387
3442.584338
3285.382444
3141.375444
3009.155528
2887.500211
2775.320045
2671.666455
2575.691556
104460.6693
103126.2078
100334.5413
96368.6153
91478.89604
85915.34387
79920.18421
73713.38749
67483.96846
61386.97123
55540.73688
50030.89448
44912.64277
40214.2871
35945.47152
32098.40243
28654.75596
25589.93751
22873.58991
20473.91266
18359.21399
16498.76112
14863.21666
13425.93496
12162.62285
11051.56222
10073.28435
9210.751394
8449.158689
7775.313021
7177.965551
6647.274825
6174.732686
5753.000878
5375.687499
5037.262899
4733.03806
4458.826713
4211.063642
3986.689754
3782.983831
3597.592102
3428.4779
3273.859682
3132.17592
3002.04476
2882.269573
2771.781456
2669.652767
2575.052713
101825.0684
100537.0281
97838.86448
94004.3618
89275.80326
83892.67141
78087.63927
72072.58248
66030.38943
60110.81459
54428.98852
49069.50797
44084.32911
39503.92384
35336.87886
31578.0196
28209.71747
25208.48483
22546.30954
20192.35733
18116.18229
16288.142
14680.17295
13266.28445
12022.85587
10928.79767
9965.228734
9115.414195
8364.822084
7700.68569
7111.817101
6588.692863
6122.835256
5707.117341
5335.154276
5001.581007
4701.703673
4431.424268
4187.244557
3966.114844
3765.352091
3582.638973
3415.964931
3263.568848
3123.908814
2995.619037
2877.519491
2768.553754
2667.808077
2574.464219
99265.4625
98026.82976
95431.18798
91742.81392
87187.69149
81999.34675
76397.65487
70585.43468
64738.71954
59001.66796
53487.08668
48275.59729
43419.81967
38950.95654
34878.20823
31197.9748
27894.99448
24947.22834
22328.52335
20009.95809
17962.39557
16157.39296
14568.10717
13169.43345
11938.44359
10854.57478
9899.565819
9056.966057
8312.485808
7653.693434
7069.500664
6550.519582
6088.40831
5676.074808
5307.2075
4976.51495
4679.286406
4411.470586
4169.60813
3950.625343
3751.86955
3571.032423
3406.111689
3255.351715
3117.217094
2990.347423
2873.57023
2765.834658
2666.234222
2573.955384
96778.71397
95594.74316
93113.95191
89584.40273
85221.39235
80242.67336
74860.2816
69264.84595
63624.67847
58078.53091
52734.71097
47672.04132
42943.86983
38581.12812
34595.60278
30985.14217
27737.38558
24832.31389
22245.8922
19951.3935
17921.30156
16128.64851
14547.79984
13154.683
11927.13734
10845.21253
9891.14085
9048.819471
8304.216491
7645.108922
7060.534664
6541.188358
6078.804373
5666.306012
5297.407201
4966.829769
4669.840434
4402.385641
4161.002706
3942.585032
3744.473277
3564.343708
3400.179601
3250.210396
3112.887296
2986.836476
2870.874164
2763.937975
2665.113557
2573.583377
93241.45253
90886.46659
87530.41843
83377.77413
78629.62204
73483.79119
68121.66342
62702.40373
57357.49617
52191.32822
47281.21235
42680.75593
38421.42285
34517.57
30969.41291
27767.51272
24894.56258
22329.24103
20047.01729
18022.47815
16230.40591
14646.60132
13248.0062
12013.42842
10923.6733
9961.327589
9110.753852
8358.233727
7691.60744
7100.089138
6574.461112
6106.41339
5688.927785
5315.665074
4981.300571
4681.089752
4410.918311
4167.268771
3947.00182
3747.404193
3566.108551
3401.057553
3250.443695
3112.68487
2986.377874
2870.313749
2763.408137
2664.726672
2573.429613
)
;

boundaryField
{
    front_top
    {
        type            wedge;
    }
    front_middle
    {
        type            wedge;
    }
    front_bottom
    {
        type            wedge;
    }
    back_top
    {
        type            wedge;
    }
    back_middle
    {
        type            wedge;
    }
    back_bottom
    {
        type            wedge;
    }
    axis_top
    {
        type            symmetryPlane;
    }
    axis_middle
    {
        type            symmetryPlane;
    }
    axis_bottom
    {
        type            symmetryPlane;
    }
    wall_top
    {
        type            calculated;
        value           nonuniform 0();
    }
    wall_middle
    {
        type            calculated;
        value           uniform 2530.329233;
    }
    wall_bottom
    {
        type            calculated;
        value           nonuniform 0();
    }
    inlet
    {
        type            calculated;
        value           nonuniform 0();
    }
    outlet
    {
        type            calculated;
        value           nonuniform 0();
    }
    procBoundary3to2
    {
        type            processor;
        value           nonuniform List<scalar> 
51
(
94363.84917
94363.84917
90965.24449
88746.483
85581.69539
81656.57048
77159.21436
72271.09399
67161.42136
61979.27027
56849.23105
51871.32846
47120.86383
42651.46419
38495.82577
34670.71756
31179.61106
28015.90427
25165.75497
22611.06738
20329.59803
18298.54983
16494.99338
14895.8365
13479.64175
12226.367
11117.4479
10136.02083
9267.042528
8497.032918
7813.915095
7207.22219
6667.56035
6186.804278
5757.790299
5374.246303
5030.673031
4722.359176
4445.070449
4195.183367
3969.548078
3765.347242
3580.144395
3411.81476
3258.487674
3118.517674
2990.439826
2872.982734
2765.003221
2665.512353
2573.629458
)
;
    }
    procBoundary3to4
    {
        type            processor;
        value           nonuniform List<scalar> 
51
(
173496.6661
171573.4668
167523.3911
161712.1015
154452.1421
146056.567
136844.7757
127114.4691
117143.6463
107176.6076
97419.67967
88037.7666
79156.86107
70863.56312
63209.15499
56219.02497
49890.72369
44206.4399
37934.79271
37934.79271
33583.69357
29741.3798
26360.41504
23393.50106
20794.94884
18522.06826
16535.36009
14799.05138
13281.27018
11953.58509
10791.01461
9771.75668
8876.711274
8089.300805
7395.240304
6782.18469
6239.528027
5758.038683
5329.823458
4948.088701
4606.925223
4301.33724
4026.874219
3779.836246
3556.882347
3355.207732
3172.352274
3006.129761
2854.674452
2716.358634
2589.727182
)
;
    }
}


// ************************************************************************* //
