/*--------------------------------*- C++ -*----------------------------------*\
  =========                 |
  \\      /  F ield         | OpenFOAM: The Open Source CFD Toolbox
   \\    /   O peration     | Website:  https://openfoam.org
    \\  /    A nd           | Version:  7
     \\/     M anipulation  |
\*---------------------------------------------------------------------------*/
FoamFile
{
    version     2.0;
    format      ascii;
    class       volScalarField;
    location    "0.0018";
    object      thermo:alpha;
}
// * * * * * * * * * * * * * * * * * * * * * * * * * * * * * * * * * * * * * //

dimensions      [1 -1 -1 0 0 0 0];

internalField   nonuniform List<scalar> 
1167
(
0.000120392234
0.0001203805075
0.000120355316
0.0001203179434
0.000120269058
0.0001202069331
0.0001201294681
0.0001200487957
0.000119951234
0.0001198499623
0.0001197326333
0.000119616414
0.0001194873804
0.0001193522438
0.0001192013929
0.0001190435591
0.0001188652027
0.0001186808962
0.0001203666967
0.0001203547852
0.0001203292004
0.0001202912881
0.0001202416715
0.000120175899
0.0001201001241
0.0001200171315
0.0001199179457
0.0001198157481
0.0001196990241
0.0001195817424
0.0001194480442
0.000119312243
0.0001191599529
0.0001189976584
0.0001188181746
0.0001186332265
0.0001184308213
0.0001182105363
0.0001179806065
0.0001177412348
0.0001174894296
0.0001172234606
0.0001169504495
0.0001166627078
0.0001163672718
0.0001160672545
0.0001157602496
0.0001154474682
0.000115127218
0.0001148064402
0.000114475248
0.0001141453751
0.0001138110965
0.0001134838608
0.0001131502033
0.0001128131633
0.0001124799884
0.0001121535169
0.0001118237584
0.0001115016736
0.0001111767982
0.0001108609837
0.000110551858
0.0001102421424
0.0001099339046
0.000109630841
0.0001093366532
0.0001090471895
0.0001203408869
0.0001203287928
0.000120302849
0.0001202643762
0.0001202123296
0.0001201446128
0.0001200707539
0.0001199837206
0.000119886509
0.0001197799674
0.0001196654031
0.0001195470483
0.0001194117645
0.000119271931
0.0001191187093
0.000118951749
0.0001187715424
0.0001185852298
0.0001183791999
0.0001181546697
0.0001179247079
0.0001176814906
0.0001174301188
0.0001171608765
0.0001168849315
0.0001165984602
0.00011630404
0.0001160006694
0.0001156940186
0.0001153835878
0.0001150625869
0.0001147415
0.0001144134135
0.0001140839518
0.0001137532302
0.0001134282414
0.0001130973318
0.0001127620861
0.0001124330541
0.0001121089762
0.0001117835875
0.0001114644419
0.0001111441019
0.0001108328089
0.0001105272399
0.0001102221302
0.0001099178553
0.0001096194683
0.0001093298767
0.000109044858
0.0001203148281
0.0001203025687
0.0001202762452
0.0001202372155
0.000120181718
0.000120114404
0.0001200411782
0.0001199501093
0.0001198549187
0.0001197440549
0.0001196317093
0.000119509138
0.0001193760999
0.0001192317084
0.0001190776222
0.0001189060883
0.0001187252106
0.0001185344869
0.0001183260276
0.0001180994199
0.0001178695272
0.0001176226327
0.0001173681296
0.000117099396
0.0001168206389
0.0001165354942
0.0001162426416
0.0001159374743
0.0001156294396
0.0001153196306
0.0001149996678
0.0001146783557
0.0001143533964
0.0001140243876
0.0001136971524
0.0001133733221
0.0001130460635
0.0001127127291
0.0001123877614
0.0001120660093
0.0001117448735
0.0001114285804
0.000111112631
0.0001108057259
0.0001105035749
0.0001102029043
0.0001099024454
0.0001096085548
0.0001093233773
0.0001090426234
0.0001202885347
0.0001202760966
0.0001202493941
0.0001202076872
0.0001201508514
0.00012008555
0.0001200092602
0.0001199175088
0.0001198219706
0.0001197102126
0.0001195979582
0.0001194709179
0.0001193396725
0.000119191564
0.0001190362912
0.0001188606347
0.0001186791596
0.0001184840916
0.0001182714425
0.0001180447595
0.0001178132612
0.0001175645126
0.0001173067343
0.0001170388857
0.0001167574718
0.0001164708095
0.000116179829
0.0001158755785
0.0001155662705
0.0001152556025
0.0001149383222
0.0001146168152
0.0001142949622
0.0001139664891
0.0001136426822
0.0001133200169
0.0001129943183
0.0001126649073
0.0001123439397
0.0001120244496
0.000111707486
0.0001113939466
0.0001110822589
0.0001107796062
0.0001104807662
0.0001101843855
0.0001098876161
0.000109598055
0.0001093171279
0.0001090404762
0.0001202619982
0.0001202493829
0.0001202214071
0.0001201773344
0.0001201204503
0.0001200564837
0.0001199763298
0.000119886629
0.0001197869212
0.0001196773527
0.0001195641111
0.0001194334509
0.0001193004476
0.0001191514457
0.0001189916991
0.0001188153261
0.0001186333337
0.0001184340284
0.0001182172502
0.0001179905589
0.0001177553778
0.0001175070835
0.0001172461228
0.0001169786996
0.0001166952378
0.0001164064031
0.0001161136404
0.0001158118201
0.0001155043496
0.0001151928925
0.0001148783139
0.0001145567275
0.0001142374886
0.0001139100246
0.0001135896542
0.0001132681321
0.0001129439971
0.0001126184449
0.0001123013963
0.0001119841345
0.0001116712461
0.0001113604007
0.0001110528799
0.0001107543421
0.0001104587191
0.0001101664962
0.0001098733102
0.0001095879243
0.0001093111017
0.0001090384071
0.000120235229
0.0001202215534
0.0001201914026
0.000120146736
0.0001200919809
0.0001200266308
0.0001199431887
0.0001198555747
0.0001197517026
0.0001196443638
0.0001195287487
0.0001193986265
0.0001192611876
0.0001191113693
0.0001189471642
0.0001187701721
0.0001185870519
0.0001183842116
0.0001181634231
0.0001179367737
0.000117697974
0.000117450195
0.0001171861782
0.0001169160278
0.0001166338397
0.0001163437943
0.0001160484447
0.0001157487181
0.0001154435267
0.0001151313586
0.0001148194549
0.0001144978502
0.000114178987
0.0001138548004
0.0001135378391
0.0001132175151
0.0001128949135
0.0001125732036
0.0001122599668
0.0001119449347
0.000111636009
0.0001113278066
0.0001110243642
0.0001107298284
0.0001104373408
0.0001101491606
0.0001098594557
0.000109578119
0.0001093052726
0.0001090364073
0.0001202059568
0.0001201917158
0.0001201611587
0.0001201169684
0.0001200633066
0.0001199942597
0.0001199116501
0.0001198232677
0.0001197177631
0.0001196112807
0.0001194913321
0.0001193637308
0.0001192219105
0.0001190712973
0.0001189026965
0.0001187251031
0.0001185377498
0.0001183330447
0.0001181098591
0.0001178833312
0.0001176410262
0.0001173916178
0.0001171267764
0.0001168539783
0.0001165731275
0.0001162846331
0.0001159866858
0.0001156865013
0.0001153836032
0.0001150708092
0.000114759008
0.0001144399982
0.0001141215547
0.0001138006805
0.0001134870576
0.0001131679617
0.0001128468868
0.000112528971
0.0001122194918
0.0001119066762
0.0001116016336
0.0001112960371
0.0001109965842
0.0001107059631
0.0001104165415
0.0001101320814
0.0001098459928
0.0001095685967
0.0001092996153
0.0001090344678
0.0001201760793
0.000120161648
0.0001201306881
0.0001200887691
0.0001200344396
0.0001199616872
0.0001198812038
0.000119788795
0.0001196855011
0.000119578089
0.0001194538141
0.0001193268548
0.0001191826091
0.0001190303775
0.0001188582786
0.0001186801328
0.0001184885678
0.000118279803
0.0001180565591
0.0001178295395
0.0001175844147
0.000117331839
0.0001170678796
0.0001167924912
0.0001165124282
0.0001162260687
0.0001159264911
0.0001156250645
0.0001153229012
0.0001150110645
0.0001146990843
0.0001143830532
0.0001140650153
0.0001137474444
0.0001134361215
0.0001131192853
0.0001127997789
0.0001124855838
0.0001121791598
0.0001118691994
0.0001115679832
0.0001112649844
0.000110969426
0.0001106826468
0.0001103962335
0.000110115024
0.0001098328635
0.0001095593161
0.000109294105
0.0001090325801
0.0001201459825
0.0001201313629
0.0001201025306
0.0001200603834
0.0001200026623
0.0001199289791
0.0001198506039
0.0001197541708
0.0001196531199
0.0001195447989
0.0001194185459
0.0001192883734
0.0001191432811
0.0001189866863
0.0001188139012
0.000118635255
0.0001184395384
0.0001182267255
0.0001180034768
0.0001177728425
0.0001175281327
0.0001172724203
0.0001170093716
0.0001167314746
0.0001164492596
0.0001161636983
0.0001158667377
0.0001155642331
0.0001152612715
0.0001149520221
0.0001146398624
0.000114326815
0.0001140092475
0.0001136949304
0.0001133846702
0.0001130713256
0.0001127534043
0.0001124428884
0.0001121385124
0.0001118323629
0.0001115349278
0.000111234499
0.00011094278
0.000110659784
0.0001103763323
0.0001100983181
0.0001098200124
0.0001095502375
0.0001092887178
0.000109030736
0.0001201167646
0.0001201033202
0.0001200744881
0.0001200317004
0.0001199705786
0.0001198990891
0.0001198183465
0.00011972058
0.000119620668
0.0001195081726
0.000119384366
0.0001192498697
0.0001191040014
0.0001189430316
0.0001187696339
0.0001185900876
0.000118390661
0.0001181738811
0.0001179506246
0.0001177164036
0.0001174721578
0.0001172133875
0.0001169489855
0.0001166708663
0.0001163865388
0.0001160992466
0.0001158042884
0.0001155039302
0.0001152001852
0.000114893545
0.0001145812584
0.0001142711493
0.0001139540873
0.0001136430118
0.0001133338128
0.0001130228432
0.0001127076061
0.0001124007521
0.0001120984097
0.0001117960385
0.0001115011937
0.0001112044663
0.0001109165435
0.0001106372847
0.000110356778
0.0001100818959
0.0001098073864
0.0001095413229
0.000109283431
0.0001090289276
0.0001200890713
0.0001200754624
0.0001200462827
0.000120000163
0.0001199383441
0.0001198690804
0.0001197844767
0.000119688956
0.0001195881836
0.0001194714861
0.0001193501887
0.0001192114362
0.0001190647843
0.0001188995084
0.0001187254959
0.0001185417677
0.0001183410015
0.0001181212752
0.0001178980715
0.0001176603099
0.0001174158734
0.000117154713
0.0001168876051
0.0001166107105
0.0001163262213
0.0001160352575
0.0001157423008
0.0001154441247
0.0001151396098
0.0001148355412
0.0001145231588
0.0001142144857
0.0001138994128
0.0001135916039
0.000113283432
0.0001129738756
0.0001126622624
0.0001123590823
0.000112058732
0.0001117601123
0.0001114676947
0.0001111747856
0.0001108906255
0.0001106150682
0.0001103374789
0.0001100656951
0.0001097949368
0.0001095325372
0.0001092782234
0.0001090271474
0.0001200612159
0.0001200474481
0.0001200164358
0.0001199684836
0.0001199081492
0.0001198389891
0.0001197505466
0.0001196573081
0.0001195557078
0.0001194354606
0.0001193129152
0.0001191731247
0.0001190243827
0.0001188561997
0.0001186816158
0.0001184937278
0.0001182889257
0.0001180690469
0.0001178458856
0.0001176046403
0.0001173569648
0.0001170965215
0.0001168267022
0.0001165510211
0.0001162679601
0.0001159750368
0.000115680819
0.000115384791
0.0001150795365
0.00011477625
0.0001144655132
0.0001141571203
0.0001138451724
0.0001135405999
0.00011323347
0.0001129252994
0.0001126172902
0.0001123177553
0.0001120193873
0.0001117245215
0.000111434491
0.0001111453742
0.0001108649503
0.0001105922829
0.000110318372
0.0001100496618
0.0001097826209
0.0001095238496
0.0001092730763
0.0001090253889
0.0001200332117
0.0001200179307
0.0001199851537
0.0001199366928
0.0001198787006
0.0001198062477
0.0001197180345
0.0001196257205
0.0001195212298
0.0001194023318
0.0001192756292
0.0001191350632
0.0001189821026
0.0001188132459
0.0001186381439
0.000118446171
0.0001182373656
0.0001180173808
0.0001177910763
0.0001175495767
0.000117298687
0.0001170389743
0.0001167665004
0.0001164901745
0.0001162102969
0.0001159156034
0.0001156199841
0.0001153245777
0.0001150200181
0.0001147163634
0.0001144083904
0.000114100233
0.000113791413
0.0001134899956
0.0001131839174
0.0001128770855
0.0001125726861
0.0001122767266
0.0001119803242
0.0001116891921
0.0001114015252
0.0001111161756
0.0001108394666
0.0001105696055
0.0001102994119
0.0001100337552
0.0001097704056
0.0001095152354
0.0001092679743
0.0001090236465
0.0001200023084
0.000119986864
0.0001199537604
0.000119907093
0.000119849227
0.0001197731746
0.0001196873104
0.0001195942939
0.0001194858584
0.0001193694637
0.0001192387034
0.0001190974496
0.0001189403371
0.0001187709021
0.000118595289
0.0001183993437
0.0001181866433
0.0001179665365
0.0001177366576
0.0001174954441
0.0001172413874
0.0001169820501
0.0001167072454
0.0001164286088
0.0001161474651
0.0001158563647
0.0001155599887
0.0001152635391
0.0001149612801
0.0001146571942
0.0001143519459
0.0001140439632
0.0001137382002
0.0001134389831
0.0001131348127
0.0001128292897
0.0001125284435
0.0001122360141
0.0001119415811
0.0001116541125
0.0001113687847
0.0001110871713
0.000110814172
0.000110547075
0.0001102805745
0.0001100179524
0.0001097582712
0.0001095066796
0.0001092629078
0.0001090219168
0.000119971262
0.0001199556808
0.0001199229459
0.0001198781323
0.0001198182502
0.0001197402134
0.0001196567652
0.0001195631287
0.0001194508682
0.0001193359312
0.0001192023763
0.0001190604883
0.0001188994032
0.0001187294344
0.0001185499149
0.000118353502
0.0001181371376
0.0001179169787
0.0001176835965
0.0001174426492
0.0001171855172
0.0001169233567
0.0001166494295
0.0001163684765
0.0001160853648
0.0001157958783
0.0001155012659
0.0001152037154
0.0001149036807
0.0001145991111
0.0001142964576
0.0001139886388
0.0001136857834
0.0001133873153
0.000113086347
0.000112782114
0.0001124847016
0.0001121957312
0.0001119032262
0.0001116193563
0.0001113363278
0.000111058417
0.0001107890739
0.0001105247117
0.0001102618717
0.0001100022591
0.0001097462188
0.0001094981805
0.0001092578744
0.0001090201982
0.0001199400974
0.000119924868
0.0001198943254
0.0001198491952
0.0001197860197
0.0001197097287
0.0001196265397
0.0001195311881
0.0001194187781
0.0001193010017
0.0001191668976
0.0001190230514
0.0001188596621
0.0001186892763
0.0001185060299
0.0001183059575
0.0001180894119
0.0001178692399
0.0001176325488
0.0001173895637
0.0001171317382
0.000116866839
0.0001165937505
0.0001163132506
0.0001160257768
0.0001157374282
0.0001154444793
0.0001151457756
0.0001148477891
0.0001145426968
0.0001142422369
0.0001139347075
0.0001136346296
0.0001133367944
0.0001130384386
0.0001127358506
0.0001124417477
0.0001121544753
0.0001118654653
0.0001115851004
0.0001113043051
0.0001110300357
0.0001107642677
0.0001105025924
0.0001102433612
0.0001099867189
0.0001097342789
0.0001094897579
0.0001092528849
0.000109018494
0.0001199107281
0.0001198964033
0.0001198657018
0.0001198188601
0.000119754001
0.0001196803225
0.000119596801
0.0001194980819
0.0001193883305
0.0001192671104
0.0001191326454
0.0001189853238
0.0001188216032
0.0001186509815
0.0001184642978
0.0001182608526
0.0001180442725
0.0001178230745
0.0001175843583
0.0001173384379
0.0001170810622
0.0001168135348
0.0001165411869
0.0001162615976
0.0001159721483
0.0001156820613
0.0001153905806
0.0001150907046
0.0001147936144
0.0001144888245
0.0001141880868
0.0001138829749
0.0001135854817
0.0001132881191
0.0001129906197
0.0001126910834
0.000112400107
0.0001121143879
0.0001118287119
0.0001115517002
0.0001112730599
0.0001110022763
0.000110739971
0.000110480899
0.0001102251851
0.0001099714422
0.0001097225287
0.0001094814604
0.0001092479646
0.0001090168116
0.0001198822621
0.0001198679002
0.0001198371183
0.0001197873288
0.0001197232012
0.0001196513852
0.0001195677223
0.0001194659289
0.0001193589658
0.0001192346655
0.0001191000942
0.0001189496798
0.0001187859036
0.0001186152335
0.0001184255721
0.0001182191595
0.0001180027
0.0001177787028
0.0001175402364
0.0001172916795
0.0001170347572
0.0001167648718
0.0001164914379
0.0001162143471
0.0001159230208
0.0001156312812
0.0001153403416
0.0001150399145
0.0001147418915
0.0001144388441
0.0001141376887
0.0001138346859
0.0001135394372
0.000113242377
0.0001129455224
0.0001126487268
0.0001123606155
0.0001120762222
0.0001117936172
0.0001115192579
0.0001112430634
0.0001109755571
0.0001107165305
0.0001104599257
0.0001102075787
0.000109956619
0.0001097111106
0.000109473387
0.0001092431713
0.0001090151701
0.0001198537381
0.000119839386
0.0001198059867
0.0001197560561
0.0001196948494
0.0001196231086
0.0001195390486
0.0001194356503
0.0001193293608
0.0001192041584
0.0001190697817
0.0001189168405
0.0001187533308
0.0001185819079
0.0001183908755
0.0001181821341
0.0001179660127
0.0001177397788
0.0001175017401
0.0001172510471
0.0001169945985
0.0001167227343
0.0001164474259
0.0001161697657
0.0001158804172
0.0001155871497
0.0001152948563
0.0001149954903
0.0001146964719
0.0001143948032
0.0001140930341
0.0001137917186
0.0001134982407
0.0001132012769
0.0001129047713
0.0001126102759
0.0001123245834
0.000112041238
0.0001117613039
0.0001114884996
0.0001112152095
0.0001109506488
0.0001106945964
0.000110440229
0.0001101909859
0.0001099426012
0.0001097002759
0.0001094657002
0.0001092385924
0.0001090135963
0.0001198241673
0.0001198084747
0.000119774838
0.0001197257725
0.0001196670589
0.0001195956875
0.0001195093448
0.000119409124
0.0001193007346
0.0001191761278
0.0001190423727
0.0001188876525
0.0001187248385
0.0001185518028
0.0001183614968
0.000118151259
0.0001179358801
0.0001177081835
0.0001174708379
0.000117218742
0.000116961384
0.000116689641
0.0001164129727
0.0001161339852
0.0001158458786
0.0001155525415
0.00011525905
0.0001149603714
0.0001146603094
0.0001143594916
0.0001140569481
0.0001137567082
0.0001134643834
0.000113167201
0.0001128706849
0.0001125778513
0.0001122939131
0.0001120112062
0.0001117333545
0.0001114616665
0.0001111907261
0.000110928598
0.0001106750488
0.0001104225675
0.0001101760247
0.0001099298993
0.000109690416
0.0001094586784
0.0001092343941
0.0001090121462
0.000119792754
0.0001197772157
0.0001197439076
0.0001196981268
0.0001196399788
0.0001195693196
0.0001194812293
0.0001193844716
0.0001192746784
0.0001191512
0.0001190166367
0.0001188630443
0.0001187015273
0.0001185279288
0.0001183377365
0.0001181283329
0.0001179142337
0.0001176862194
0.0001174499817
0.0001171975305
0.0001169397906
0.0001166688429
0.0001163916286
0.0001161120308
0.0001158243896
0.0001155313938
0.0001152370659
0.0001149386251
0.0001146376499
0.0001143370468
0.0001140336531
0.0001137336944
0.0001134409081
0.0001131439609
0.0001128470022
0.0001125549075
0.0001122718204
0.0001119891975
0.0001117125366
0.0001114413551
0.0001111719111
0.0001109114057
0.0001106595954
0.0001104084166
0.0001101638795
0.0001099194541
0.0001096822034
0.0001094527553
0.0001092308094
0.000109010892
0.000119761328
0.000119746037
0.0001197149803
0.000119670999
0.0001196137855
0.0001195441944
0.0001194550216
0.0001193620715
0.0001192517175
0.0001191300352
0.0001189955616
0.0001188440199
0.0001186845745
0.0001185117405
0.0001183225891
0.000118115351
0.000117903286
0.000117676473
0.0001174420061
0.0001171906718
0.0001169339838
0.000116664244
0.0001163877401
0.0001161086704
0.0001158214977
0.0001155287141
0.0001152342327
0.0001149355808
0.0001146340542
0.0001143329289
0.000114028696
0.0001137280445
0.0001134342675
0.000113136616
0.0001128386619
0.0001125460053
0.0001122624731
0.0001119791373
0.0001117023404
0.000111430774
0.000111161555
0.0001109014675
0.0001106502658
0.0001103995407
0.0001101560043
0.0001099124852
0.000109676589
0.0001094486196
0.0001092282554
0.0001090099749
0.000119716533
0.0001196874528
0.0001196444745
0.0001195885852
0.0001195182129
0.0001194319798
0.000119341695
0.0001192323542
0.000119113231
0.0001189801226
0.000118831551
0.0001186751086
0.0001185046939
0.0001183183812
0.0001181143875
0.0001179053843
0.0001176817591
0.0001174500508
0.0001172018585
0.0001169482526
0.0001166804813
0.0001164065988
0.0001161298564
0.0001158434875
0.0001155510869
0.0001152577487
0.0001149586435
0.0001146574662
0.0001143551683
0.0001140505085
0.0001137481468
0.0001134533238
0.0001131536017
0.000112854185
0.0001125592986
0.0001122736023
0.0001119885866
0.0001117097673
0.0001114365897
0.0001111656617
0.0001109040919
0.0001106516478
0.0001103999439
0.0001101556358
0.0001099115742
0.0001096754212
0.0001094474636
0.0001092273734
0.0001090095957
)
;

boundaryField
{
    front_top
    {
        type            wedge;
    }
    front_middle
    {
        type            wedge;
    }
    front_bottom
    {
        type            wedge;
    }
    back_top
    {
        type            wedge;
    }
    back_middle
    {
        type            wedge;
    }
    back_bottom
    {
        type            wedge;
    }
    axis_top
    {
        type            symmetryPlane;
    }
    axis_middle
    {
        type            symmetryPlane;
    }
    axis_bottom
    {
        type            symmetryPlane;
    }
    wall_top
    {
        type            calculated;
        value           nonuniform 0();
    }
    wall_middle
    {
        type            calculated;
        value           uniform 0.0001089022317;
    }
    wall_bottom
    {
        type            calculated;
        value           nonuniform 0();
    }
    inlet
    {
        type            calculated;
        value           nonuniform 0();
    }
    outlet
    {
        type            calculated;
        value           nonuniform 0();
    }
    procBoundary3to2
    {
        type            processor;
        value           nonuniform List<scalar> 
51
(
0.0001197300962
0.0001197300962
0.0001196884396
0.0001196602639
0.000119618637
0.0001195644707
0.000119493987
0.0001194123702
0.0001193230706
0.0001192169398
0.0001191012379
0.0001189709431
0.0001188264006
0.0001186740506
0.000118507981
0.0001183266292
0.0001181272168
0.0001179225834
0.0001177046094
0.0001174769939
0.0001172345542
0.000116986713
0.0001167221466
0.0001164535133
0.0001161816897
0.0001158954592
0.0001156055365
0.0001153154372
0.0001150160243
0.0001147168096
0.000114412911
0.0001141088684
0.0001138037563
0.0001135060674
0.0001132048151
0.0001129035646
0.0001126043083
0.0001123141582
0.0001120261895
0.000111742691
0.0001114661556
0.0001111907193
0.0001109249085
0.0001106685464
0.0001104138222
0.0001101662424
0.0001099196374
0.0001096809805
0.0001094509428
0.0001092291644
0.0001090100885
)
;
    }
    procBoundary3to4
    {
        type            processor;
        value           nonuniform List<scalar> 
51
(
0.0001204174902
0.0001204059511
0.0001203811585
0.0001203443582
0.0001202961937
0.000120237148
0.0001201613491
0.0001200788433
0.0001199855245
0.0001198823067
0.0001197695164
0.0001196510925
0.0001195267724
0.0001193891275
0.000119243034
0.0001190861937
0.0001189126256
0.0001187290778
0.0001184830105
0.0001184830105
0.0001182671447
0.0001180373457
0.0001178019494
0.0001175497812
0.0001172872523
0.0001170155538
0.0001167284342
0.0001164354057
0.0001161373653
0.0001158282574
0.0001155131476
0.0001151937758
0.0001148704965
0.0001145390819
0.0001142088363
0.000113870966
0.0001135400391
0.0001132049985
0.0001128661789
0.0001125287201
0.000112199632
0.0001118655346
0.0001115400668
0.0001112108488
0.0001108903547
0.0001105775285
0.0001102630223
0.0001099506591
0.0001096427196
0.000109343735
0.0001090496276
)
;
    }
}


// ************************************************************************* //
