/*--------------------------------*- C++ -*----------------------------------*\
  =========                 |
  \\      /  F ield         | OpenFOAM: The Open Source CFD Toolbox
   \\    /   O peration     | Website:  https://openfoam.org
    \\  /    A nd           | Version:  7
     \\/     M anipulation  |
\*---------------------------------------------------------------------------*/
FoamFile
{
    version     2.0;
    format      ascii;
    class       volVectorField;
    location    "0.0018";
    object      U;
}
// * * * * * * * * * * * * * * * * * * * * * * * * * * * * * * * * * * * * * //

dimensions      [0 1 -1 0 0 0 0];

internalField   nonuniform List<vector> 
1167
(
(-0.0001285862607 -2.071960094e-18 -0.01099273339)
(-0.0003342377102 -5.730859244e-18 -0.01098068137)
(-0.0005264390901 -5.691914609e-18 -0.0109547959)
(-0.0007230633889 -4.499952843e-18 -0.01091623091)
(-0.000914989798 -2.391067722e-18 -0.01086600868)
(-0.001100282145 -6.223211419e-18 -0.01080496725)
(-0.001278707917 -5.707839312e-18 -0.0107337691)
(-0.001449911165 -5.278324679e-18 -0.0106530439)
(-0.001613549693 -5.193682667e-18 -0.01056338849)
(-0.001769363359 -4.975523749e-18 -0.01046535697)
(-0.001917149719 -4.986606665e-18 -0.01035946161)
(-0.002056748661 -4.614805733e-18 -0.01024617544)
(-0.002188036686 -5.330391399e-18 -0.01012593441)
(-0.002310923091 -6.232194744e-18 -0.009999139584)
(-0.002425344524 -6.982422856e-18 -0.009866159686)
(-0.002531262681 -7.337996638e-18 -0.009727334247)
(-0.002628661641 -7.094699655e-18 -0.009582976743)
(-0.002717545613 -7.014961247e-18 -0.009433376805)
(-0.0001344612614 -1.112501577e-18 -0.01150618734)
(-0.0003495900614 2.629159554e-18 -0.0114934681)
(-0.0005506243581 -2.587052321e-18 -0.01146617921)
(-0.0007561779975 -1.432495925e-18 -0.0114255188)
(-0.0009567980705 -1.650116917e-18 -0.01137255998)
(-0.001150416513 -6.565643347e-18 -0.01130818425)
(-0.001336775481 -8.163001939e-18 -0.01123308843)
(-0.001515501012 -8.968367474e-18 -0.0111479308)
(-0.001686231552 -8.420312731e-18 -0.01105333674)
(-0.001848692132 -7.922175102e-18 -0.01094988705)
(-0.002002670276 -6.92782451e-18 -0.01083811882)
(-0.002147999905 -6.611205665e-18 -0.01071852843)
(-0.002284555386 -7.508883015e-18 -0.01059157441)
(-0.002412245326 -8.263933357e-18 -0.01045767849)
(-0.002531008689 -8.63048253e-18 -0.01031722979)
(-0.002640812174 -8.81033576e-18 -0.01017058841)
(-0.002741646483 -8.964821266e-18 -0.01001808679)
(-0.002833524012 -8.702584456e-18 -0.009860033761)
(-0.002916476542 -8.943294288e-18 -0.009696715509)
(-0.002990552796 -9.104541263e-18 -0.009528396235)
(-0.003055816011 -8.23876953e-18 -0.00935531937)
(-0.003112341167 -8.023235573e-18 -0.009177706344)
(-0.003160211972 -7.595866884e-18 -0.008995754785)
(-0.003199517623 -7.974233813e-18 -0.008809635329)
(-0.003230348406 -8.386058218e-18 -0.008619487436)
(-0.003252791091 -8.71053108e-18 -0.00842541398)
(-0.003266923576 -9.180519191e-18 -0.00822747361)
(-0.003272807931 -8.924727907e-18 -0.008025671537)
(-0.003270482541 -8.563606309e-18 -0.007819947868)
(-0.003259952553 -8.333536737e-18 -0.007610162345)
(-0.003241177427 -8.022722646e-18 -0.007396075292)
(-0.003214056005 -7.39069327e-18 -0.007177323301)
(-0.003178407654 -6.658219461e-18 -0.006953388336)
(-0.003133948687 -6.796537541e-18 -0.006723558143)
(-0.003080262936 -6.763502769e-18 -0.006486876762)
(-0.003016766661 -6.83330787e-18 -0.006242086955)
(-0.002942669605 -6.559987636e-18 -0.005987566615)
(-0.002856934832 -7.069659358e-18 -0.005721266209)
(-0.002758245214 -7.405232379e-18 -0.005440663841)
(-0.002644986147 -7.34944378e-18 -0.005142754382)
(-0.00251525151 -7.340061155e-18 -0.004824085323)
(-0.002366878362 -7.317973878e-18 -0.004480843097)
(-0.002197504313 -6.933314452e-18 -0.004108978117)
(-0.002004637691 -6.113783463e-18 -0.003704344513)
(-0.001785730567 -5.337535262e-18 -0.003262831826)
(-0.001538257528 -4.714818432e-18 -0.002780466345)
(-0.001259787807 -4.233311212e-18 -0.002253476544)
(-0.0009478911284 -3.276689663e-18 -0.001678416274)
(-0.0005996536756 -1.776895605e-18 -0.001052454519)
(-0.0002115990974 -3.679810694e-19 -0.0003733319535)
(-0.0001408554614 1.054641655e-18 -0.0120550939)
(-0.0003662981116 2.205300474e-18 -0.01204163738)
(-0.0005769419682 -2.237641966e-18 -0.01201279489)
(-0.0007922066951 -4.486113858e-18 -0.01196981819)
(-0.0010022766 -6.464357158e-18 -0.01191383759)
(-0.001204939815 -7.875083477e-18 -0.01184578233)
(-0.001399909588 -8.747322049e-18 -0.01176638831)
(-0.001586790924 -9.704265175e-18 -0.01167634986)
(-0.001765201353 -9.331145915e-18 -0.01157632504)
(-0.0019348498 -8.672975868e-18 -0.01146692595)
(-0.002095513129 -8.251241148e-18 -0.01134871951)
(-0.002247019535 -7.745624356e-18 -0.01122223027)
(-0.002389239777 -7.900385228e-18 -0.01108794228)
(-0.00252208269 -9.072537459e-18 -0.01094630306)
(-0.002645491378 -9.402167089e-18 -0.0107977266)
(-0.002759438181 -9.594394269e-18 -0.01064259598)
(-0.002863922059 -9.939878223e-18 -0.01048126711)
(-0.00295896564 -9.96260792e-18 -0.01031407042)
(-0.003044612206 -1.023379011e-17 -0.01014131345)
(-0.003120923113 -1.019115558e-17 -0.009963281749)
(-0.003187975694 -1.004063507e-17 -0.009780238337)
(-0.003245859318 -9.358749451e-18 -0.009592422789)
(-0.003294672198 -8.706739942e-18 -0.009400049827)
(-0.003334517841 -8.468054527e-18 -0.009203305785)
(-0.0033655006 -8.420970347e-18 -0.009002343936)
(-0.003387720655 -8.411369781e-18 -0.008797278418)
(-0.003401268135 -8.605922054e-18 -0.008588176517)
(-0.003406215836 -8.870586726e-18 -0.008375048951)
(-0.003402611132 -9.134407104e-18 -0.00815783778)
(-0.003390465743 -9.34724554e-18 -0.007936401119)
(-0.00336974339 -8.772437787e-18 -0.007710493545)
(-0.003340344437 -8.078621264e-18 -0.007479740455)
(-0.003302086104 -7.34988434e-18 -0.007243606413)
(-0.00325467853 -6.740896567e-18 -0.007001355669)
(-0.003197695388 -6.756862561e-18 -0.006752002618)
(-0.003130538381 -7.073578622e-18 -0.006494252949)
(-0.003052397618 -7.174269062e-18 -0.006226440385)
(-0.002962212336 -7.27256503e-18 -0.005946465722)
(-0.002858637111 -7.322020632e-18 -0.005651752429)
(-0.002740025189 -7.201678588e-18 -0.005339237768)
(-0.002604434895 -7.267296187e-18 -0.005005410503)
(-0.00244966438 -7.239630426e-18 -0.004646398227)
(-0.002273309346 -7.179303955e-18 -0.004258094344)
(-0.002072833485 -6.564173699e-18 -0.003836298864)
(-0.00184564258 -5.83373951e-18 -0.003376853325)
(-0.001589164617 -4.521541077e-18 -0.002875742328)
(-0.001300922981 -3.698898439e-18 -0.002329160608)
(-0.0009784365563 -2.745323315e-18 -0.001733641348)
(-0.0006187165029 -1.618353445e-18 -0.001086354081)
(-0.0002182038905 -3.245175296e-19 -0.0003850475735)
(-0.0001478106457 7.041027673e-19 -0.01264319581)
(-0.0003844707424 -4.837806471e-18 -0.01262892204)
(-0.0006055647452 -7.881501602e-18 -0.01259835575)
(-0.0008313881372 -5.906509649e-18 -0.01255281283)
(-0.001051727606 -1.016121417e-17 -0.01249348417)
(-0.001264215066 -9.423812983e-18 -0.01242135697)
(-0.001468532521 -9.205583748e-18 -0.01233720981)
(-0.001664260634 -1.000977133e-17 -0.01224177837)
(-0.00185099329 -1.005818293e-17 -0.01213576065)
(-0.002028422119 -9.766533359e-18 -0.0120198057)
(-0.002196312464 -8.699938825e-18 -0.01189451504)
(-0.00235448487 -9.853996238e-18 -0.01176044603)
(-0.002502807231 -1.002766241e-17 -0.01161811444)
(-0.002641190144 -1.017083061e-17 -0.01146799852)
(-0.002769580227 -1.012421729e-17 -0.01131054056)
(-0.002887957204 -1.003767284e-17 -0.01114615208)
(-0.002996329752 -1.033523051e-17 -0.01097521522)
(-0.003094732277 -1.080520108e-17 -0.01079808674)
(-0.003183221786 -1.098496514e-17 -0.01061509872)
(-0.00326187501 -1.096525565e-17 -0.0104265598)
(-0.003330785047 -1.118875916e-17 -0.01023275546)
(-0.003390057994 -1.054767083e-17 -0.01003394636)
(-0.003439809394 -9.913363558e-18 -0.009830365923)
(-0.003480159716 -9.409384198e-18 -0.009622216965)
(-0.003511229744 -9.092374169e-18 -0.009409667061)
(-0.003533135123 -8.762799861e-18 -0.009192842115)
(-0.003545980171 -8.774374408e-18 -0.00897181845)
(-0.003549850524 -9.051743614e-18 -0.008746612507)
(-0.00354480451 -9.427198477e-18 -0.008517167895)
(-0.003530862158 -9.613845825e-18 -0.008283339698)
(-0.003507992632 -9.532860744e-18 -0.008044874731)
(-0.003476098371 -9.408758019e-18 -0.007801385921)
(-0.00343499546 -8.826625837e-18 -0.007552319493)
(-0.00338438854 -8.225928685e-18 -0.007296913812)
(-0.003323840817 -7.789223234e-18 -0.007034150342)
(-0.003252738909 -7.800948064e-18 -0.006762695214)
(-0.003170252647 -8.186734718e-18 -0.006480834669)
(-0.003075295515 -8.599463194e-18 -0.006186415411)
(-0.002966491764 -8.577260038e-18 -0.005876801656)
(-0.002842159091 -8.439174499e-18 -0.005548866696)
(-0.002700315993 -8.242628494e-18 -0.005199032386)
(-0.002538716197 -8.082373283e-18 -0.004823358126)
(-0.002354906941 -7.441598025e-18 -0.0044176687)
(-0.002146299745 -7.186158586e-18 -0.003977697122)
(-0.001910245442 -6.296139019e-18 -0.003499221713)
(-0.001644115782 -5.280346986e-18 -0.002978168458)
(-0.001345378435 -4.207268696e-18 -0.002410680736)
(-0.001011490594 -3.098292096e-18 -0.001793252238)
(-0.0006393756987 -1.954214652e-18 -0.00112303398)
(-0.000225377294 -7.824784803e-19 -0.0003977643536)
(-0.0001553686428 -2.259886917e-18 -0.01327466187)
(-0.0004042185191 -6.436404192e-18 -0.01325948199)
(-0.0006366688199 -7.799341232e-18 -0.01322700155)
(-0.0008739632126 -7.083558381e-18 -0.01317860937)
(-0.001105457026 -9.656956693e-18 -0.01311556512)
(-0.001328612077 -1.023314418e-17 -0.01303892133)
(-0.001543074646 -1.073963125e-17 -0.01294950729)
(-0.001748399736 -9.84218132e-18 -0.01284810501)
(-0.001944154738 -1.06312368e-17 -0.01273545812)
(-0.002130011145 -1.165171528e-17 -0.01261225909)
(-0.002305721094 -1.140114485e-17 -0.01247915071)
(-0.002471097521 -1.169549078e-17 -0.01233672945)
(-0.002626005942 -1.182119314e-17 -0.01218554879)
(-0.002770356988 -1.043210211e-17 -0.01202612169)
(-0.002904102523 -9.89737818e-18 -0.01185892528)
(-0.003027230121 -1.008673394e-17 -0.01168440339)
(-0.003139759516 -1.022311184e-17 -0.01150297053)
(-0.003241739053 -1.008130801e-17 -0.01131501274)
(-0.003333241085 -9.33925358e-18 -0.01112089109)
(-0.003414359746 -9.855184393e-18 -0.01092094159)
(-0.003485206861 -1.066926484e-17 -0.01071547442)
(-0.003545907848 -1.088201948e-17 -0.01050477336)
(-0.003596597627 -1.060051619e-17 -0.01028909304)
(-0.003637416291 -1.024479466e-17 -0.01006865513)
(-0.003668503844 -1.007085985e-17 -0.009843642787)
(-0.003689994094 -9.966399884e-18 -0.009614194199)
(-0.003702008019 -9.898355048e-18 -0.00938039448)
(-0.003704646115 -9.635008172e-18 -0.009142265317)
(-0.003697979301 -9.567021082e-18 -0.008899751748)
(-0.003682037951 -9.856514504e-18 -0.008652705669)
(-0.003656798488 -1.00397733e-17 -0.008400864877)
(-0.00362216676 -1.021120565e-17 -0.008143827132)
(-0.003577958027 -1.032191366e-17 -0.007881017775)
(-0.003523872034 -1.011812019e-17 -0.007611647862)
(-0.003459461968 -9.693549772e-18 -0.007334662865)
(-0.003384098571 -9.479440809e-18 -0.00704868524)
(-0.003296930568 -9.519377647e-18 -0.006751950338)
(-0.00319684401 -9.662278973e-18 -0.006442245754)
(-0.00308243016 -1.031989399e-17 -0.006116870259)
(-0.002951967871 -1.071207409e-17 -0.00577262643)
(-0.00280343133 -1.049931465e-17 -0.005405860622)
(-0.002634524309 -1.008927308e-17 -0.005012553797)
(-0.002442738767 -9.316563099e-18 -0.004588449612)
(-0.002225426474 -8.233724215e-18 -0.004129200921)
(-0.00197987484 -7.17446218e-18 -0.003630507562)
(-0.001703390068 -6.020699151e-18 -0.003088220354)
(-0.001393374399 -4.75467668e-18 -0.002498413565)
(-0.001047212693 -3.477347213e-18 -0.001857522675)
(-0.000661728172 -1.870657056e-18 -0.001162661255)
(-0.0002331521001 -5.395267667e-19 -0.0004115393143)
(-0.0001635708036 2.421419639e-19 -0.01395412765)
(-0.0004256500788 -3.305940123e-18 -0.01393794337)
(-0.000670425216 -4.858198071e-18 -0.01390333522)
(-0.0009201668915 -6.57268637e-18 -0.01385177739)
(-0.001163764249 -9.046406572e-18 -0.01378460881)
(-0.001398494316 -9.781942115e-18 -0.01370295138)
(-0.001623962816 -1.136641326e-17 -0.01360769401)
(-0.001839696097 -1.2114042e-17 -0.01349967281)
(-0.002045232606 -1.259889424e-17 -0.01337968301)
(-0.002240221664 -1.266722108e-17 -0.01324846717)
(-0.002424400752 -1.232846139e-17 -0.01310671637)
(-0.002597573932 -1.188057008e-17 -0.01295507253)
(-0.002759601945 -1.144395955e-17 -0.01279413233)
(-0.002910396627 -9.636089414e-18 -0.01262445095)
(-0.003049914791 -9.932155399e-18 -0.01244654581)
(-0.003178152885 -1.016488014e-17 -0.01226089916)
(-0.003295142837 -1.044000453e-17 -0.01206796225)
(-0.003400947742 -1.055274144e-17 -0.0118681571)
(-0.003495657934 -1.049613487e-17 -0.01166187732)
(-0.003579386808 -1.084616237e-17 -0.01144949007)
(-0.003652266906 -1.106270965e-17 -0.01123133508)
(-0.003714445732 -1.120326305e-17 -0.01100772264)
(-0.003766080632 -1.186815295e-17 -0.01077893069)
(-0.003807334022 -1.17576177e-17 -0.01054520134)
(-0.003838367448 -1.104196165e-17 -0.01030673526)
(-0.003859335567 -1.052149822e-17 -0.01006368465)
(-0.003870378903 -1.041028016e-17 -0.009816144375)
(-0.003871615475 -1.030840286e-17 -0.009564141293)
(-0.003863131193 -1.012763683e-17 -0.00930762076)
(-0.00384496847 -1.004152466e-17 -0.009046430118)
(-0.003817112451 -1.002506984e-17 -0.008780297465)
(-0.003779474266 -1.024116659e-17 -0.008508804378)
(-0.003731869641 -1.033659751e-17 -0.008231352228)
(-0.003673993579 -1.028621531e-17 -0.007947121162)
(-0.003605389571 -1.006513059e-17 -0.007655018387)
(-0.003525412336 -1.020634937e-17 -0.007353618432)
(-0.003433188059 -1.032998595e-17 -0.007041100476)
(-0.003327573976 -1.048825461e-17 -0.006715187867)
(-0.003207125497 -1.082617952e-17 -0.006373107249)
(-0.003070079239 -1.076617621e-17 -0.00601158237)
(-0.00291436024 -1.063343165e-17 -0.005626874835)
(-0.002737616797 -1.041833495e-17 -0.005214876164)
(-0.002537279033 -9.595860975e-18 -0.004771236678)
(-0.002310631317 -8.685560997e-18 -0.004291514896)
(-0.002054889081 -7.654870165e-18 -0.003771316439)
(-0.001767284101 -6.491213907e-18 -0.003206400712)
(-0.001445143826 -5.146156514e-18 -0.002592755472)
(-0.001085770489 -3.365803174e-18 -0.001926739391)
(-0.0006858749462 -1.772016911e-18 -0.001205409923)
(-0.0002415621006 -3.622782202e-19 -0.0004264312989)
(-0.0001724550191 -2.598185128e-19 -0.01468672722)
(-0.0004488646141 -3.808917628e-18 -0.01466942928)
(-0.0007069906571 -8.540820801e-18 -0.01463245718)
(-0.0009702172199 -9.267048589e-18 -0.0145773866)
(-0.001226928485 -7.08210213e-18 -0.0145056418)
(-0.001474202022 -9.000899415e-18 -0.01441842394)
(-0.001711599845 -1.013771684e-17 -0.01431668621)
(-0.001938615239 -1.065612786e-17 -0.0142013269)
(-0.002154754707 -1.209535327e-17 -0.01407320122)
(-0.002359643377 -1.240291923e-17 -0.01393310878)
(-0.002553001344 -1.311806012e-17 -0.01378179485)
(-0.002734621064 -1.237337817e-17 -0.01361995414)
(-0.002904358689 -1.086507603e-17 -0.01344823449)
(-0.003062126148 -1.037001314e-17 -0.01326723994)
(-0.00320788469 -1.054076252e-17 -0.01307753437)
(-0.003341639929 -1.078331199e-17 -0.01287964562)
(-0.003463436693 -1.085493656e-17 -0.01267406748)
(-0.003573354072 -1.088534435e-17 -0.01246126284)
(-0.003671501148 -1.083899311e-17 -0.01224166501)
(-0.003758013065 -1.15109867e-17 -0.01201567701)
(-0.003833045609 -1.160388962e-17 -0.01178367152)
(-0.003896770158 -1.180343478e-17 -0.01154598949)
(-0.003949369099 -1.23928676e-17 -0.01130293662)
(-0.003991030214 -1.252827919e-17 -0.01105477848)
(-0.004021939753 -1.232432894e-17 -0.01080173506)
(-0.004042276135 -1.136250897e-17 -0.01054397366)
(-0.004052201948 -1.130558475e-17 -0.01028159985)
(-0.004051855273 -1.063632116e-17 -0.0100146466)
(-0.004041339846 -1.038450326e-17 -0.009743060041)
(-0.004020712679 -1.041673829e-17 -0.009466681972)
(-0.003989969674 -1.021972709e-17 -0.009185228493)
(-0.003949028345 -1.066170368e-17 -0.00889826314)
(-0.003897706568 -1.116328739e-17 -0.008605162036)
(-0.003835695728 -1.093014568e-17 -0.008305070612)
(-0.003762529415 -1.069367159e-17 -0.007996853318)
(-0.003677546377 -1.053887174e-17 -0.007679033268)
(-0.003579849211 -1.081408916e-17 -0.007349727735)
(-0.003468264524 -1.104517425e-17 -0.007006589357)
(-0.003341309203 -1.086101539e-17 -0.006646765315)
(-0.00319717394 -1.073027492e-17 -0.006266891482)
(-0.00303372996 -1.064617847e-17 -0.005863134779)
(-0.002848564258 -1.0654799e-17 -0.005431285196)
(-0.00263903866 -1.009136011e-17 -0.004966887337)
(-0.002402362752 -8.89536021e-18 -0.004465390994)
(-0.00213567173 -7.647168839e-18 -0.003922291887)
(-0.001836114395 -6.516869121e-18 -0.003333241627)
(-0.001500934314 -5.192996056e-18 -0.002694124075)
(-0.001127341369 -3.357608152e-18 -0.002001202926)
(-0.0007119225865 -2.099408109e-18 -0.001251461544)
(-0.0002506428254 -7.247644746e-19 -0.0004425013755)
(-0.0001820516875 -9.956224414e-18 -0.01547811579)
(-0.0004739429176 -6.436544301e-18 -0.01545958698)
(-0.0007464965926 -8.451241406e-18 -0.01541999619)
(-0.001024298275 -1.054067456e-17 -0.01536103649)
(-0.001295188937 -1.020257067e-17 -0.0152842231)
(-0.001556030681 -1.030270043e-17 -0.01519084798)
(-0.001806338243 -1.047838554e-17 -0.0150819357)
(-0.002045569912 -1.149741468e-17 -0.01495845241)
(-0.002273196016 -1.135504873e-17 -0.01482132023)
(-0.002488813466 -1.102372626e-17 -0.01467140376)
(-0.002692122398 -1.074920221e-17 -0.01450951043)
(-0.002882902783 -1.020357081e-17 -0.01433639528)
(-0.00306100338 -1.04423305e-17 -0.01415276416)
(-0.003226333979 -1.075962778e-17 -0.01395927695)
(-0.003378859988 -1.078862559e-17 -0.01375655239)
(-0.003518595308 -1.098177196e-17 -0.0135451698)
(-0.00364559748 -1.122788903e-17 -0.01332567366)
(-0.003759962259 -1.127297579e-17 -0.01309857428)
(-0.003861818875 -1.124494804e-17 -0.0128643497)
(-0.003951324886 -1.112215004e-17 -0.01262344577)
(-0.004028661171 -1.158975164e-17 -0.01237627448)
(-0.004094025824 -1.190573304e-17 -0.0121232116)
(-0.004147628866 -1.254312662e-17 -0.01186459401)
(-0.004189685587 -1.229645119e-17 -0.01160071465)
(-0.004220409836 -1.240926307e-17 -0.01133181662)
(-0.004240006991 -1.250158461e-17 -0.01105808503)
(-0.004248664948 -1.264739341e-17 -0.01077963765)
(-0.004246544957 -1.271231563e-17 -0.01049651367)
(-0.004233770905 -1.223012338e-17 -0.01020865995)
(-0.004210416942 -1.192021904e-17 -0.009915913232)
(-0.004176492489 -1.182920278e-17 -0.009617977001)
(-0.004131923631 -1.164284836e-17 -0.009314393833)
(-0.00407653138 -1.152966806e-17 -0.009004511519)
(-0.004010004944 -1.137292556e-17 -0.008687438832)
(-0.003931868662 -1.124620682e-17 -0.008361992772)
(-0.003841444829 -1.122144096e-17 -0.008026639459)
(-0.003737811865 -1.136468502e-17 -0.007679428723)
(-0.003619763704 -1.174482812e-17 -0.007317935199)
(-0.003485776271 -1.137688758e-17 -0.006939218371)
(-0.003333990487 -1.060399441e-17 -0.006539816796)
(-0.003162219186 -9.895161774e-18 -0.006115791619)
(-0.002967982427 -9.675390655e-18 -0.00566281891)
(-0.002748567251 -9.444236196e-18 -0.005176324286)
(-0.002501101313 -8.448341943e-18 -0.004651634157)
(-0.002222631859 -7.254470491e-18 -0.004084119006)
(-0.001910216694 -6.230594999e-18 -0.003469306413)
(-0.001561006987 -5.061320671e-18 -0.002802959127)
(-0.001172111136 -3.315746716e-18 -0.002081227967)
(-0.0007399817212 -1.782033628e-18 -0.001301004888)
(-0.0002604307931 -4.759922607e-19 -0.0004598123324)
(-0.0001923809172 -2.101786053e-18 -0.016334488)
(-0.0005009392176 -9.477807406e-18 -0.01631460576)
(-0.0007890316627 -1.104646704e-17 -0.01627212613)
(-0.001082534677 -7.272409335e-18 -0.01620887462)
(-0.001368711273 -9.302687057e-18 -0.01612646894)
(-0.001644192633 -1.054448921e-17 -0.01602629572)
(-0.001908440748 -1.133611802e-17 -0.01590946177)
(-0.002160876298 -9.910402083e-18 -0.01577700753)
(-0.002400930423 -8.864540253e-18 -0.0156299283)
(-0.002628168375 -9.24766915e-18 -0.01546916063)
(-0.002842267421 -8.92449762e-18 -0.01529558201)
(-0.003042990847 -9.393935287e-18 -0.0151100142)
(-0.003230176484 -9.523919913e-18 -0.0149132284)
(-0.003403730996 -9.10571718e-18 -0.01470594928)
(-0.003563620657 -1.021142043e-17 -0.01448885672)
(-0.003709866383 -1.085877838e-17 -0.01426259104)
(-0.003842537681 -1.103475006e-17 -0.01402775352)
(-0.00396174612 -1.165901065e-17 -0.01378491032)
(-0.00406764118 -1.201296275e-17 -0.01353459211)
(-0.004160404142 -1.232949705e-17 -0.01327729314)
(-0.004240241614 -1.241873139e-17 -0.01301347103)
(-0.004307379922 -1.245686236e-17 -0.01274354367)
(-0.004362059083 -1.269654919e-17 -0.01246788481)
(-0.004404524803 -1.229953551e-17 -0.01218681893)
(-0.0044350214 -1.166019308e-17 -0.01190061532)
(-0.004453783618 -1.162809678e-17 -0.01160948017)
(-0.004461027622 -1.186603467e-17 -0.01131354685)
(-0.004456941346 -1.251056912e-17 -0.0110128632)
(-0.004441672254 -1.312106096e-17 -0.01070737708)
(-0.004415314346 -1.2889009e-17 -0.01039691911)
(-0.004377892766 -1.273862049e-17 -0.01008117981)
(-0.004329344982 -1.234303621e-17 -0.009759680287)
(-0.00426949724 -1.204249944e-17 -0.009431736562)
(-0.004198037444 -1.170835989e-17 -0.009096416652)
(-0.004114481864 -1.148504864e-17 -0.00875248669)
(-0.004018136289 -1.172615063e-17 -0.008398349999)
(-0.003908054355 -1.203419174e-17 -0.008031982463)
(-0.003782995613 -1.147602778e-17 -0.007650872914)
(-0.003641392389 -1.075160576e-17 -0.007251983601)
(-0.003481332149 -1.038005261e-17 -0.00683174569)
(-0.00330056477 -9.921917303e-18 -0.006386102649)
(-0.003096538149 -9.502647187e-18 -0.005910604467)
(-0.002866458349 -9.044812812e-18 -0.005400543723)
(-0.002607364127 -8.322864271e-18 -0.004851108272)
(-0.002316207882 -7.471161038e-18 -0.00425752852)
(-0.001989949155 -6.481205446e-18 -0.003615192312)
(-0.001625639022 -5.266633505e-18 -0.002919724411)
(-0.001220276092 -3.889173062e-18 -0.002167145252)
(-0.0007701689212 -2.840076316e-18 -0.001354238345)
(-0.0002709644762 -9.28835437e-19 -0.0004784306738)
(-0.0002034459051 3.232625901e-19 -0.01726256944)
(-0.0005298635301 -3.323001016e-18 -0.01724120658)
(-0.0008346131154 -5.497895018e-18 -0.01719555436)
(-0.0011449569 -5.145887801e-18 -0.01712759232)
(-0.001447545014 -9.879122834e-18 -0.01703904829)
(-0.001738763957 -1.076444021e-17 -0.01693140976)
(-0.002018019743 -1.072777339e-17 -0.01680586906)
(-0.00228469074 -1.074792131e-17 -0.01666354938)
(-0.002538166069 -1.09673906e-17 -0.01650552626)
(-0.002777975982 -9.892670251e-18 -0.01633281357)
(-0.003003769153 -8.845542279e-18 -0.01614636414)
(-0.003215287768 -9.884473835e-18 -0.01594707493)
(-0.003412357125 -1.039213654e-17 -0.01573579038)
(-0.003594874855 -1.041297083e-17 -0.01551330591)
(-0.003762805467 -1.100096197e-17 -0.01528037172)
(-0.003916173725 -1.137858704e-17 -0.01503769587)
(-0.004055058056 -1.160799846e-17 -0.01478594674)
(-0.004179584947 -1.186737048e-17 -0.014525753)
(-0.004289922369 -1.253975262e-17 -0.01425770602)
(-0.004386274365 -1.378725147e-17 -0.01398235808)
(-0.004468874222 -1.369358163e-17 -0.01370021955)
(-0.004537977538 -1.386918937e-17 -0.01341175652)
(-0.004593855063 -1.412262023e-17 -0.01311738645)
(-0.004636784832 -1.42410612e-17 -0.0128174725)
(-0.004667044397 -1.383235656e-17 -0.01251231591)
(-0.004684901043 -1.315169281e-17 -0.01220214779)
(-0.004690602309 -1.237140949e-17 -0.01188711959)
(-0.004684365284 -1.239388671e-17 -0.01156729074)
(-0.004666364431 -1.283216062e-17 -0.01124261325)
(-0.004636717305 -1.233857475e-17 -0.01091291244)
(-0.004595467779 -1.18525708e-17 -0.01057786442)
(-0.004542566828 -1.180929878e-17 -0.01023696754)
(-0.004477848712 -1.164457946e-17 -0.009889504986)
(-0.004401001837 -1.188280966e-17 -0.009534499916)
(-0.004311535342 -1.206320689e-17 -0.009170662783)
(-0.004208739083 -1.243918868e-17 -0.008796328607)
(-0.00409164119 -1.246514099e-17 -0.008409391996)
(-0.003958965642 -1.240261589e-17 -0.008007247789)
(-0.003809098672 -1.17188635e-17 -0.007586751278)
(-0.003640070903 -1.14656848e-17 -0.00714421494)
(-0.003449564807 -1.079264633e-17 -0.006675451758)
(-0.003234950994 -1.014863983e-17 -0.006175872843)
(-0.002993349018 -9.787366981e-18 -0.005640623718)
(-0.002721702666 -9.19511749e-18 -0.005064739175)
(-0.002416863354 -8.717035413e-18 -0.004443294522)
(-0.002075685979 -7.951570304e-18 -0.003771522584)
(-0.001695115214 -6.848446501e-18 -0.003044894288)
(-0.001272033217 -4.867556872e-18 -0.002259283792)
(-0.0008025968036 -3.240092029e-18 -0.001411350977)
(-0.0002822788121 -1.103728877e-18 -0.0004984143816)
(-0.0002152229805 -3.366545806e-18 -0.01826956277)
(-0.0005606550462 -8.926586267e-18 -0.01824659247)
(-0.0008831515581 -3.184901305e-18 -0.01819748346)
(-0.001211453648 -5.803988038e-18 -0.01812439154)
(-0.001531566735 -1.056154381e-17 -0.01802915523)
(-0.001839618434 -1.293947989e-17 -0.01791337379)
(-0.002134957922 -1.547334633e-17 -0.01777832798)
(-0.002416920014 -1.423415463e-17 -0.01762522641)
(-0.002684846736 -1.425244599e-17 -0.01745522957)
(-0.002938227773 -1.442084459e-17 -0.0172694342)
(-0.0031766794 -1.104975165e-17 -0.01706887441)
(-0.003399919176 -9.742066359e-18 -0.01685452822)
(-0.003607751478 -9.902596712e-18 -0.01662731864)
(-0.003800060561 -1.091308852e-17 -0.01638811944)
(-0.003976803926 -1.139505309e-17 -0.01613775876)
(-0.004138005165 -1.147050943e-17 -0.01587702052)
(-0.004283747312 -1.155815327e-17 -0.01560664741)
(-0.004414167019 -1.211873666e-17 -0.01532734182)
(-0.004529448695 -1.236513531e-17 -0.01503976382)
(-0.004629816922 -1.288866247e-17 -0.01474453158)
(-0.004715529517 -1.390004978e-17 -0.01444221837)
(-0.004786870938 -1.447125935e-17 -0.01413334791)
(-0.004844143466 -1.494178317e-17 -0.01381838896)
(-0.004887658581 -1.515492828e-17 -0.01349774993)
(-0.004917728148 -1.493581374e-17 -0.01317177116)
(-0.004934654345 -1.442631478e-17 -0.01284071588)
(-0.004938719258 -1.380535808e-17 -0.01250475919)
(-0.004930172578 -1.281150663e-17 -0.01216397514)
(-0.004909218659 -1.247119586e-17 -0.01181832207)
(-0.004876001677 -1.252479393e-17 -0.01146762308)
(-0.004830588104 -1.238253434e-17 -0.01111154132)
(-0.004772945557 -1.230596247e-17 -0.01074955086)
(-0.004702918611 -1.213683065e-17 -0.01038090015)
(-0.004620198868 -1.187113485e-17 -0.01000456513)
(-0.004524289654 -1.224294272e-17 -0.00961919561)
(-0.004414465965 -1.201115824e-17 -0.0092230527)
(-0.004289730167 -1.184207049e-17 -0.008813942256)
(-0.004148769706 -1.159938749e-17 -0.00838915581)
(-0.003989922445 -1.103682095e-17 -0.007945431645)
(-0.003811159219 -1.052139165e-17 -0.007478951716)
(-0.003610091382 -1.034110482e-17 -0.006985386319)
(-0.003384007611 -1.039378753e-17 -0.006459993817)
(-0.003129935772 -9.79677435e-18 -0.005897758109)
(-0.0028447199 -8.512462159e-18 -0.005293547454)
(-0.0025251057 -7.599772063e-18 -0.004642268418)
(-0.002167838403 -6.676434506e-18 -0.003938984223)
(-0.001769751183 -6.030693882e-18 -0.003178996669)
(-0.001327604873 -5.246313443e-18 -0.002358018572)
(-0.0008373979318 -3.536651234e-18 -0.00147256962)
(-0.0002944183305 -1.247967865e-18 -0.0005198424304)
(-0.0002276502314 -1.876577509e-18 -0.0193630467)
(-0.0005931558297 -5.862805621e-18 -0.01933835179)
(-0.0009344065989 -3.645786403e-18 -0.01928551668)
(-0.001281705483 -7.606268053e-18 -0.01920689217)
(-0.001620393182 -1.069988833e-17 -0.01910443267)
(-0.001946328285 -1.297979491e-17 -0.01897984901)
(-0.002258799852 -1.487549484e-17 -0.01883451702)
(-0.002557098919 -1.39231491e-17 -0.01866973139)
(-0.002840517631 -1.325008029e-17 -0.01848673858)
(-0.00310850061 -1.262138206e-17 -0.01828672099)
(-0.003360627041 -1.167694982e-17 -0.01807079742)
(-0.003596580585 -1.118458549e-17 -0.01784002843)
(-0.003816138345 -1.163660896e-17 -0.01759542162)
(-0.00401916452 -1.211433084e-17 -0.0173379356)
(-0.004205601269 -1.211745473e-17 -0.01706848154)
(-0.004375463527 -1.238954966e-17 -0.01678792772)
(-0.004528832018 -1.211596603e-17 -0.01649709916)
(-0.004665847356 -1.257718928e-17 -0.01619677938)
(-0.00478670373 -1.381491789e-17 -0.01588770888)
(-0.004891641965 -1.421936318e-17 -0.0155705818)
(-0.004980941214 -1.490825554e-17 -0.01524604292)
(-0.005054911449 -1.525451148e-17 -0.01491468357)
(-0.005113884587 -1.554632836e-17 -0.0145770351)
(-0.005158205374 -1.626611882e-17 -0.01423356128)
(-0.005188220835 -1.66675236e-17 -0.0138846497)
(-0.005204269327 -1.548157571e-17 -0.0135306028)
(-0.005206668899 -1.525439784e-17 -0.01317162679)
(-0.005195704824 -1.464207737e-17 -0.01280781783)
(-0.005171614946 -1.404931071e-17 -0.01243914507)
(-0.00513457334 -1.358950657e-17 -0.01206543172)
(-0.005084672136 -1.307228922e-17 -0.01168633068)
(-0.005021899535 -1.261395033e-17 -0.01130129329)
(-0.004946113494 -1.181364965e-17 -0.01090953163)
(-0.004857011494 -1.12141568e-17 -0.01050997236)
(-0.004754093331 -1.075692961e-17 -0.01010120063)
(-0.004636620222 -1.074273086e-17 -0.009681397373)
(-0.004503569356 -1.06578395e-17 -0.009248272509)
(-0.004353591051 -1.058632346e-17 -0.00879900513)
(-0.004184973199 -9.931305037e-18 -0.008330205567)
(-0.003995624128 -9.47209649e-18 -0.007837912288)
(-0.003783080782 -9.221015474e-18 -0.007317640459)
(-0.003544546334 -9.210352027e-18 -0.00676448201)
(-0.003276953042 -8.967348875e-18 -0.006173245436)
(-0.002977041664 -8.328819333e-18 -0.005538619034)
(-0.002641448885 -7.37035955e-18 -0.004855327741)
(-0.002266807611 -6.088343425e-18 -0.004118252414)
(-0.0018498374 -4.844350921e-18 -0.0033225136)
(-0.001387176317 -3.582177964e-18 -0.002463651835)
(-0.0008746634198 -2.093509243e-18 -0.001538038923)
(-0.0003074033708 -7.899333495e-19 -0.0005427400774)
(-0.0002406139161 -1.482869923e-18 -0.02055079646)
(-0.0006270718866 7.899616757e-18 -0.02052427825)
(-0.0009879211428 -7.451275106e-18 -0.02046747782)
(-0.001355101007 -1.154131451e-17 -0.0203829638)
(-0.001713277004 -1.142577084e-17 -0.02027280964)
(-0.002058034467 -1.380099256e-17 -0.02013883349)
(-0.002388602836 -1.509521834e-17 -0.01998250267)
(-0.002704228219 -1.388429591e-17 -0.01980519918)
(-0.003004151614 -1.27406956e-17 -0.01960825376)
(-0.003287768386 -1.112792313e-17 -0.0193929318)
(-0.0035546121 -1.220454815e-17 -0.01916043541)
(-0.00380432606 -1.246163932e-17 -0.0189119095)
(-0.004036652745 -1.316566213e-17 -0.0186484481)
(-0.004251424099 -1.395936161e-17 -0.01837109562)
(-0.004448557261 -1.444542853e-17 -0.01808085264)