/*--------------------------------*- C++ -*----------------------------------*\
  =========                 |
  \\      /  F ield         | OpenFOAM: The Open Source CFD Toolbox
   \\    /   O peration     | Website:  https://openfoam.org
    \\  /    A nd           | Version:  7
     \\/     M anipulation  |
\*---------------------------------------------------------------------------*/
FoamFile
{
    version     2.0;
    format      ascii;
    class       volScalarField;
    location    "0.0006";
    object      generalizedNewtonian:nu;
}
// * * * * * * * * * * * * * * * * * * * * * * * * * * * * * * * * * * * * * //

dimensions      [0 2 -1 0 0 0 0];

internalField   nonuniform List<scalar> 
14000
(
28076.64183
27714.68233
27470.84796
26796.28691
26025.28857
25177.98214
24279.39432
23361.04215
22447.83715
21557.22186
20701.02078
19886.79928
19118.90414
18399.32643
17728.38818
17105.24506
16528.26336
15995.492
15504.9481
15054.46444
14641.60209
14263.84398
13918.89058
13604.5231
13318.30531
13057.75111
12820.26915
12603.00822
12402.86403
12216.31125
12039.47505
11868.13763
11697.5337
11522.4415
11337.43576
11137.02463
10915.85173
10669.09322
10392.86725
10084.60316
9743.512377
9370.917327
8970.275533
8546.895594
8107.559386
7661.05735
7216.855962
6771.21484
6305.774654
5963.923989
13606.9609
13518.68007
13589.54933
13530.96373
13480.16751
13427.99438
13369.99631
13308.1769
13244.88634
13182.03001
13121.28417
13064.1271
13011.80695
12965.26553
12925.29934
12892.64243
12867.60684
12850.11353
12839.91813
12836.39256
12838.45771
12844.62259
12852.86175
12860.66892
12865.10279
12862.72209
12849.73315
12822.2134
12776.34257
12708.69855
12616.68041
12498.95382
12355.70227
12188.78576
12001.85932
11800.169
11590.06076
11378.53158
11172.78662
10979.75065
10805.5979
10655.7225
10534.90436
10447.45377
10397.42278
10388.54108
10425.59635
10519.11861
10679.76213
10870.76629
11610.59955
11562.84777
11660.94253
11671.17713
11702.63554
11746.62994
11797.80212
11856.02578
11921.59946
11994.37185
12073.95456
12159.9477
12251.92141
12349.18334
12450.79797
12555.63276
12662.28694
12769.03672
12873.76815
12974.12041
13067.65245
13151.8301
13224.1305
13282.30579
13324.62634
13350.0678
13358.44335
13350.47715
13327.96481
13293.62163
13250.80742
13203.47527
13155.84217
13112.0402
13076.04301
13051.52453
13041.90669
13050.19601
13078.92295
13130.52322
13207.31607
13311.37893
13444.30932
13607.23765
13800.73411
14024.08027
14275.74858
14556.8154
14867.90554
15137.24626
12072.43538
12030.68178
12130.07056
12158.22916
12212.12633
12282.60718
12364.19687
12456.01826
12557.57397
12667.87072
12785.66166
12909.66717
13038.53128
13170.75458
13304.63356
13438.34712
13570.05421
13697.9019
13820.12896
13935.15288
14041.66957
14138.794
14226.11542
14303.70771
14372.23238
14432.8396
14486.9743
14536.51251
14583.68723
14630.75663
14679.96795
14733.67706
14794.25529
14863.71497
14943.90606
15036.68699
15143.5473
15265.70642
15404.12312
15559.35828
15731.50898
15920.10886
16124.2194
16342.38028
16572.30246
16810.82528
17055.0689
17304.83813
17560.93448
17760.76691
13291.1891
13261.90597
13356.94142
13390.40553
13448.08709
13521.86904
13606.80381
13701.7015
13805.47156
13916.74127
14034.17098
14156.27006
14281.46844
14408.31308
14535.31359
14661.06847
14784.40886
14904.32898
15020.05426
15131.08213
15237.23819
15338.69665
15435.87236
15529.3891
15620.12746
15709.15787
15797.64362
15886.86751
15978.09923
16072.48588
16171.22076
16275.39778
16385.88088
16503.46762
16628.65878
16761.79133
16903.05371
17052.27576
17209.04958
17372.77236
17542.61239
17717.36431
17895.49025
18075.41491
18255.69137
18434.28994
18606.78097
18768.16391
18919.83569
19032.13475
14686.91326
14662.83029
14740.1047
14771.95475
14824.74774
14891.13513
14967.01231
15051.10977
15142.24297
15239.056
15340.32497
15444.76681
15551.10109
15658.31449
15765.52624
15871.90574
15976.84245
16079.95056
16180.98858
16279.92531
16376.93082
16472.271
16566.30305
16659.52061
16752.4416
16845.63379
16939.75209
17035.31243
17132.76343
17232.52881
17334.94992
17440.18726
17548.27201
17659.25454
17772.86585
17888.67662
18006.34505
18125.19124
18244.26915
18362.75906
18479.71755
18593.75645
18703.34841
18807.76339
18908.55477
19007.03485
19065.32237
18932.33863
18238.49321
17316.64741
15880.28414
15867.23773
15925.39722
15951.67814
15993.22561
16044.8164
16103.53074
16168.17531
16237.82025
16311.44335
16388.0055
16466.65709
16546.5919
16627.07955
16707.5875
16787.70018
16867.08968
16945.55865
17023.02485
17099.50248
17175.06929
17249.81092
17323.89528
17397.56491
17470.98068
17544.27137
17617.58084
17690.98368
17764.45807
17837.94133
17911.23069
17984.06641
18056.11344
18126.84458
18195.73779
18262.15499
18325.27489
18384.28044
18438.2698
18486.2167
18527.20596
18560.71183
18584.39865
18594.28006
18590.3167
18505.30397
18053.70747
17200.58871
16190.81182
15443.90506
16777.10863
16768.55996
16807.82601
16828.24761
16859.88796
16898.87068
16943.14634
16991.83884
17044.21388
17099.55462
17157.10568
17216.20717
17276.3627
17337.10316
17398.0326
17458.85591
17519.36107
17579.39945
17638.87042
17697.71509
17755.90415
17813.4323
17870.31886
17926.54915
17982.09054
18036.88812
18090.81406
18143.71009
18195.34127
18245.42712
18293.59347
18339.41411
18382.39189
18421.91734
18457.37093
18488.05431
18513.20676
18532.13624
18544.41924
18549.1736
18540.34456
18514.80656
18515.53331
18498.62241
18127.62327
17333.90909
16463.7248
16065.73671
16386.73612
16857.5849
17286.53739
17283.34534
17311.57141
17328.22795
17352.98733
17383.37171
17417.99745
17456.28761
17497.67539
17541.60372
17587.60845
17635.23025
17684.066
17733.78907
17784.12344
17834.83556
17885.72553
17936.63921
17987.46044
18038.08408
18088.40681
18138.34664
18187.79972
18236.63753
18284.71773
18331.85942
18377.85094
18422.43036
18465.29774
18506.09859
18544.43767
18579.87321
18611.91932
18640.06017
18663.74666
18682.57671
18696.51386
18704.36145
18697.61016
18675.31715
18705.78472
18738.42227
18379.78084
17568.25977
16763.52855
16515.63139
16858.03194
17377.75512
17842.54634
18169.00155
17557.29613
17555.1655
17575.62885
17589.18615
17609.12973
17633.58182
17661.531
17692.53253
17726.20317
17762.13205
17799.91891
17839.23
17879.7556
17921.20751
17963.34092
18005.94866
18048.84189
18091.83829
18134.76798
18177.48453
18219.84078
18261.67759
18302.82957
18343.11958
18382.36244
18420.34198
18456.83933
18491.59876
18524.36496
18554.85273
18582.77352
18607.81244
18629.68187
18648.30847
18664.05096
18675.40297
18672.17098
18656.65897
18713.59265
18780.07744
18424.42391
17594.53337
16811.65519
16629.67392
16985.45784
17464.38218
17879.55371
18241.60687
18619.09184
18843.78053
17655.77646
17654.59699
17670.64891
17681.16978
17696.49656
17715.26186
17736.75174
17760.56632
17786.37184
17813.87203
17842.74674
17872.67743
17903.38886
17934.62934
17966.16421
17997.76948
18029.23228
18060.36085
18090.97579
18120.89464
18149.94452
18177.96043
18204.77658
18230.22695
18254.15116
18276.39383
18296.80514
18315.24552
18331.58096
18345.67813
18357.43563
18367.08378
18375.27428
18380.28413
18370.73694
18351.42624
18418.52941
18505.08616
18170.13287
17365.0612
16614.9669
16455.71388
16786.91747
17214.67569
17586.97721
17917.97135
18265.4816
18500.43126
17663.00442
16012.80201
17673.89568
17671.95028
17684.64867
17692.1026
17703.29939
17717.0387
17732.68266
17749.94536
17768.55654
17788.20248
17808.61553
17829.56077
17850.80389
17872.10701
17893.23802
17913.98183
17934.15426
17953.59616
17972.14772
17989.64147
18005.94096
18020.92431
18034.45404
18046.44321
18056.81576
18065.49482
18072.41544
18077.51129
18080.76916
18082.53262
18083.60516
18082.10001
18065.87874
18040.42299
18107.59809
18202.90594
17889.77187
17117.56873
16402.09007
16260.52554
16572.72737
16963.44963
17302.96137
17607.00344
17932.26636
18151.92421
17315.87583
15664.679
14168.09696
12911.12867
17615.85695
17613.44325
17624.44417
17629.45618
17637.44971
17647.33262
17658.51846
17670.76791
17683.90748
17697.73146
17711.99531
17726.49122
17741.02539
17755.41247
17769.47907
17783.0747
17796.08581
17808.38046
17819.7818
17830.18395
17839.54611
17847.75194
17854.7229
17860.43701
17864.81485
17867.80563
17869.40164
17869.93852
17870.23407
17868.32753
17851.77454
17825.32774
17891.35888
17993.18946
17703.60012
16960.47964
16273.65241
16151.63204
16460.00255
16834.66964
17160.57
17453.5042
17768.02387
17988.13915
17177.16048
15538.1426
14053.6841
12790.05711
11679.80068
10707.73544
17532.41023
17528.90496
17539.09973
17542.53352
17548.62588
17556.25101
17564.91001
17574.40395
17584.55354
17595.23224
17606.30168
17617.58374
17628.91376
17640.15806
17651.21124
17661.97736
17672.33467
17682.12308
17691.2437
17699.68897
17707.37687
17714.18989
17720.09916
17725.01462
17728.86219
17731.98694
17735.17371
17736.48275
17723.43472
17699.38202
17763.95917
17873.21522
17612.47371
16897.1735
16229.86621
16119.81878
16428.73413
16798.19354
17119.76025
17408.26217
17715.45733
17958.80269
17246.03003
15626.47911
14129.33043
12858.2172
11746.38068
10761.20484
9885.498733
9115.183303
17435.13781
17431.00175
17441.47766
17444.01059
17449.08149
17455.54916
17462.92732
17471.06927
17479.82942
17489.07997
17498.72664
17508.64295
17518.70603
17528.80278
17538.82432
17548.66632
17558.22581
17567.39181
17576.08197
17584.24259
17591.77962
17598.56155
17604.51592
17609.9511
17615.6233
17619.68937
17609.8084
17587.59438
17647.96062
17764.10991
17540.43699
16861.71276
16210.32344
16097.80555
16399.14142
16762.6967
17078.55935
17359.27091
17653.67791
17924.07046
17373.69163
15799.75512
14278.30037
12989.39277
11864.68496
10868.12321
9982.656767
9196.603174
8497.88396
7879.257828
17358.48647
17353.41523
17364.32721
17366.16121
17370.588
17376.37603
17382.9799
17390.26719
17398.14607
17406.51085
17415.26429
17424.29337
17433.48348
17442.72706
17451.91889
17460.95266
17469.72824
17478.16652
17486.16125
17493.55639
17500.2954
17506.66955
17513.35745
17518.68508
17510.45064
17488.37433
17541.54107
17660.80047
17474.61179
16837.39752
16199.19105
16070.41265
16355.00508
16711.43472
17021.32487
17292.00847
17568.4851
17855.52577
17504.57029
16021.24299
14469.17949
13154.30347
12011.39365
10999.11025
10098.45537
9297.541508
8585.71622
7951.827407
7384.208155
6876.552758
17306.12437
17300.27996
17311.74431
17312.79999
17316.43766
17321.32741
17326.88421
17332.99529
17339.60118
17346.61835
17353.94595
17361.482
17369.12402
17376.76631
17384.30415
17391.63122
17398.64164
17405.25843
17411.41312
17417.26501
17423.52898
17428.71943
17420.41246
17396.69364
17440.73582
17557.54437
17401.93635
16806.34136
16180.85369
16028.59781
16290.72851
16638.8477
16943.08844
17204.43516
17461.90096
17749.67317
17601.04776
16272.45922
14692.9459
13345.31293
12180.01391
11149.15651
10230.99182
9413.119761
8685.162465
8036.611023
7456.758312
6936.090395
6466.551933
6043.53601
17296.17484
17289.27939
17300.97155
17300.96083
17303.46808
17307.03736
17311.04003
17315.39201
17320.07689
17325.03749
17330.1651
17335.36367
17340.54891
17345.63059
17350.50054
17355.03457
17359.16848
17363.19804
17367.91662
17371.66265
17361.12016
17333.47357
17367.40802
17475.12302
17334.93289
16772.44691
16159.1411
15983.29337
16221.14168
16559.67698
16858.63826
17112.44133
17352.87935
17627.62034
17650.75446
16547.94714
14955.80928
13568.26013
12375.92745
11323.39927
10385.22016
9548.122441
8801.903874
8136.54286
7541.77205
7008.089646
6527.506499
6093.449575
5700.34666
5343.878627
17332.85461
17325.10867
17336.91031
17335.6289
17336.69374
17338.56453
17340.5603
17342.62849
17344.8325
17347.09352
17349.24782
17351.23314
17353.01697
17354.53562
17355.74419
17356.91219
17358.81353
17359.50109
17343.89068
17309.30175
17332.64293
17423.34691
17276.40735
16731.54033
16129.4861
15936.75128
16153.82027
16481.41912
16774.12988
17021.56553
17247.67848
17501.63205
17642.42319
16821.44993
15253.84527
13820.20667
12595.65046
11518.81838
10558.66864
9700.219356
8933.545414
8249.277287
7637.642573
7089.124986
6595.540664
6150.1205
5747.15881
5381.692164
5049.522244
4746.347143
17431.09095
17422.4459
17434.14638
17431.56473
17431.09944
17431.16585
17431.05994
17430.77664
17430.30914
17429.50993
17428.35839
17426.8514
17424.94546
17422.95427
17421.54286
17416.79556
17391.46104
17344.7248
17356.17647
17419.19941
17236.01734
16687.21751
16095.8957
15898.32488
16102.27185
16420.67907
16706.75954
16947.62704
17162.16238
17394.00839
17596.95484
17071.514
15590.02247
14109.12217
12846.15012
11741.33588
10757.0976
9875.833448
9086.988751
8381.665759
7750.88519
7185.521097
6677.131114
6218.669546
5804.239657
5428.717172
5087.619271
4777.119697
4494.078126
4234.075116
17594.2847
17584.95096
17596.35234
17592.54019
17590.49047
17588.59498
17586.24172
17583.39998
17580.03697
17576.06717
17571.47069
17566.75381
17561.87286
17547.27077
17505.72283
17439.47695
17434.88151
17452.72655
17196.89488
16622.68841
16047.73555
15865.90736
16067.40131
16377.96303
16658.89443
16894.58737
17099.64271
17311.53176
17535.22681
17270.00067
15951.41258
14433.95534
13127.7099
11991.90559
10981.80718
10076.35357
9264.196553
8536.641624
7885.252292
7301.27931
6776.404841
6303.384489
5876.092742
5489.248914
5138.203233
4818.921182
4527.84824
4262.012661
4019.023728
3794.214155
17826.5535
17816.23888
17826.41784
17820.56312
17816.05921
17811.2133
17805.19292
17797.87255
17789.67279
17780.68287
17764.16315
17726.62899
17656.92708
17572.47385
17545.83944
17473.24671
17111.1308
16504.95617
15965.43463
15831.10618
16045.14454
16348.52548
16624.07316
16855.53553
17053.39194
17249.26339
17471.33943
17402.30964
16314.23004
14788.29813
13437.37438
12269.58462
11233.96334
10304.81542
9469.368507
8719.154519
8046.398979
7442.985257
6900.690191
6412.129414
5970.965996
5571.761735
5209.735209
4880.700625
4580.994028
4307.402265
4057.087065
3827.643787
3617.222932
3421.016009
18095.8508
18085.62241
18094.96667
18087.312
18080.48047
18072.76674
18059.25877
18031.64573
17980.59277
17896.29874
17776.34307
17672.19404
17594.2763
17368.03716
16896.97823
16283.51837
15819.16882
15776.1471
16021.8284
16319.19384
16588.63558
16816.57171
17010.09845
17195.52501
17407.96688
17464.51226
16639.58568
15154.70261
13765.65278
12567.77382
11509.12371
10559.11994
9702.913565
8931.649266
8238.114898
7615.067671
7054.803479
6550.001518
6094.218435
5681.816799
5307.924236
4968.223334
4658.946907
4376.780054
4118.806893
3882.394273
3665.172774
3465.187546
3281.019438
3107.904964
18511.63321
18488.83897
18470.60246
18419.55965
18348.76687
18252.98284
18125.38736
17959.26386
17789.82135
17644.87644
17419.3033
17024.70696
16501.46612
15965.13367
15657.2977
15728.6891
16002.09856
16295.07457
16559.24011
16784.32325
16976.03708
17156.67433
17360.77865
17488.04219
16909.79419
15522.17083
14110.55689
12887.20452
11809.28756
10841.74536
9967.405903
9177.059135
8463.954884
7821.644191
7243.188344
6721.534641
6250.217554
5823.583196
5436.701621
5085.186575
4765.181317
4473.283755
4206.509124
3962.187808
3737.890092
3531.40391
3340.750524
3164.371642
3001.217361
2846.663033
18134.70097
18082.13325
18005.55394
17860.14657
17688.91493
17523.02406
17334.01282
17071.77859
16724.55503
16311.87405
15881.7367
15559.15337
15508.35501
15698.69507
15984.20846
16276.05833
16539.83475
16765.61719
16959.85513
17142.31146
17344.15013
17508.68014
17125.39544
15876.38766
14466.24379
13225.08506
12132.65039
11151.47619
10262.12565
9454.823089
8723.258464
8062.028799
7465.195222
6926.113903
6438.461364
5996.58411
5595.555513
5231.001234
4899.012452
4596.141647
4319.332255
4065.874036
3833.309452
3619.395515
3422.093182
3239.558835
3070.176479
2912.702556
2766.343757
2626.734992
16337.83929
16305.02089
16252.06554
16157.18846
16020.27513
15843.37145
15644.07729
15438.70892
15281.94598
15282.91087
15454.54654
15717.3543
16009.25296
16294.98575
16554.7157
16779.73916
16977.13459
17164.47655
17368.48415
17550.54418
17296.15356
16195.06355
14813.4878
13565.79647
12465.56618
11476.09081
10576.28317
9755.724182
9008.488356
8329.887372
7715.00759
7158.186532
6653.5574
6195.61339
5779.461583
5400.775462
5055.6573
4740.646962
4452.651617
4188.931428
3947.006627
3724.598826
3519.629858
3330.213265
3154.668273
2991.483174
2839.313996
2697.172987
2564.481186
2437.142305
15256.78534
15242.47579
15220.2922
15185.41211
15160.74014
15197.5262
15318.93278
15503.80679
15734.80148
15995.68044
16263.58948
16520.15067
16753.17372
16960.30537
17147.79795
17330.40637
17529.82346
17707.61374
17507.2516
16515.97576
15176.38365
13930.83883
12825.97223
11829.66504
10920.34823
10087.10951
9324.359307
8628.192014
7994.722173
7419.286463
6896.52772
6421.203794
5988.531266
5594.271048
5234.59699
4906.040704
4605.50128
4330.197195
4077.634307
3845.523477
3631.75154
3434.383834
3251.673285
3082.066551
2924.169273
2776.713927
2638.602797
2509.043056
2387.648618
2270.557168
15800.82839
15819.49945
15901.25927
15995.66014
16128.47052
16293.21207
16480.80396
16681.47673
16884.40269
17078.15253
17257.38536
17424.1482
17583.70782
17746.42617
17926.61875
18069.13342
17838.44593
16884.9447
15581.22022
14341.45889
13231.48088
12226.34649
11305.51186
10457.87543
9678.2647
8963.36586
8310.04534
7714.500019
7172.005239
6677.663857
6226.844658
5815.389068
5439.548376
5095.880915
4781.28885
4492.96363
4228.386218
3985.249927
3761.412209
3554.899315
3363.904181
3186.808958
3022.164988
2868.66193
2725.138049
2590.543519
2463.965867
2344.777824
2232.687574
2124.129922
17162.3052
17169.54692
17265.65959
17345.49023
17451.0721
17568.62852
17690.98836
17816.06543
17942.22987
18068.7643
18198.93806
18341.76823
18495.31234
18564.62397
18219.00456
17235.94647
15965.77742
14746.4272
13641.43441
12633.65281
11705.50066
10847.28764
10054.09747
9323.106665
8651.85377
8037.350839
7475.71731
6962.526487
6493.412356
6064.342924
5671.69072
5312.124389
4982.571586
4680.24411
4402.603032
4147.344321
3912.326621
3695.551168
3495.173629
3309.513203
3137.066478
2976.48202
2826.53438
2686.155326
2554.373121
2430.311266
2313.187803
2202.498188
2098.061985
1996.59855
18314.58877
18304.93229
18392.15508
18441.94608
18513.87919
18599.98505
18695.47339
18798.7608
18913.47695
19038.62932
19140.40723
19059.62868
18511.71223
17464.4127
16242.88007
15071.26968
13993.95817
13000.75807
12079.19694
11221.67824
10424.29819
9685.078056
9002.404611
8374.23386
7797.632148
7268.793201
6783.733378
6338.674897
5930.246989
5555.333627
5211.001821
4894.56195
4603.529528
4335.635312
4088.770705
3860.95165
3650.328027
3455.189335
3273.990885
3105.343969
2947.986735
2800.788501
2662.741753
2532.949027
2410.608365
2294.977611
2185.43275
2081.595851
1983.31795
1887.613329
19334.57606
19319.89069
19403.93017
19447.50786
19512.80759
19590.80539
19673.9084
19729.29826
19659.25515
19285.34919
18498.38837
17426.58819
16293.88873
15209.44596
14194.77659
13245.9744
12355.96192
11520.38537
10737.04941
10005.18163
9324.458302
8694.022617
8111.793736
7574.779689
7079.713645
6623.411387
6202.90418
5815.44228
5458.413907
5129.33756
4825.906705
4545.964834
4287.512555
4048.64909
3827.567716
3622.583167
3432.140385
3254.846183
3089.426581
2934.709457
2789.663361
2653.347339
2524.93542
2403.680917
2288.918051
2180.055289
2076.587085
1978.197698
1884.825018
1793.775276
20243.38107
20219.48976
20263.80577
20236.90946
20157.99303
19950.54908
19529.86792
18854.25022
17974.30074
17003.02065
16023.15927
15074.19057
14166.25454
13301.04543
12476.20909
11691.5344
10947.25079
10244.34561
9584.182849
8967.060808
8392.20912
7857.919711
7361.904845
6901.771822
6475.197502
6080.059397
5714.178507
5375.470429
5061.949263
4771.705471
4502.925481
4253.868423
4022.852409
3808.276776
3608.639026
3422.558343
3248.779474
3086.153221
2933.62781
2790.264225
2655.208852
2527.720609
2407.101877
2292.736957
2184.09656
2080.697494
1982.120014
1888.117285
1798.64518
1711.372856
19501.62448
19373.95423
19154.98676
18767.02262
18251.76348
17627.07624
16922.48421
16172.84127
15405.50187
14637.28898
13878.35378
13134.68922
12409.17921
11705.02564
11025.85359
10374.72897
9754.870003
9168.165239
8615.384322
8096.347478
7610.183822
7155.299684
6730.230488
6333.583911
5963.92548
5619.749479
5299.506392
5001.667699
4724.712277
4467.158311
4227.528749
4004.3717
3796.271351
3601.915708
3420.102766
3249.722018
3089.743527
2939.240254
2797.36639
2663.359723
2536.535461
2416.273965
2302.03415
2193.351508
2089.776419
1990.906882
1896.401795
1806.061245
1719.863551
1635.79247
16562.99967
16443.30519
16220.2654
15883.58751
15466.9327
14987.13009
14460.78714
13902.08524
13322.37557
12729.36229
12131.40791
11534.09046
10944.28043
10367.07739
9807.479155
9269.058117
8754.169967
8264.499257
7800.199059
7360.973567
6946.438962
6556.094802
6189.322509
5845.403213
5523.264973
5221.868893
4940.112134
4676.841743
4430.86039
4200.934769
3985.840585
3784.39876
3595.495277
3418.097275
3251.244523
3094.046462
2945.677764
2805.378173
2672.47883
2546.364426
2426.488616
2312.371914
2203.590551
2099.759374
2000.546579
1905.623495
1814.699354
1727.616957
1644.369956
1563.243348
14110.71495
14027.24445
13863.14683
13620.06438
13314.66257
12956.54234
12555.90291
12122.22167
11663.36992
11188.18719
10703.66746
10216.70521
9733.295833
9258.36085
8795.524496
8348.07767
7917.301561
7504.209581
7109.548178
6733.928303
6377.416474
6039.978317
5721.329663
5420.993504
5138.374019
4872.737853
4623.294502
4389.082379
4169.084404
3962.301392
3767.76355
3584.55722
3411.81539
3248.712265
3094.476974
2948.408998
2809.85445
2678.241459
2553.019135
2433.699667
2319.868816
2211.14954
2107.203059
2007.732098
1912.463408
1821.165249
1733.591795
1649.616559
1569.250299
1491.03869
12315.94361
12251.76176
12121.71901
11930.01246
11686.51757
11398.96209
11074.81596
10721.26528
10345.76117
9955.163429
9555.503394
9152.652688
8750.849605
8354.355977
7965.63505
7586.729415
7219.604985
6865.498354
6525.379685
6199.990078
5889.773084
5594.956046
5315.353438
5050.709219
4800.603678
4564.464963
4341.592208
4131.216273
3932.554543
3744.854101
3567.345688
3399.304749
3240.032179
3088.886549
2945.264262
2808.610109
2678.418529
2554.22381
2435.621544
2322.269088
2213.8039
2109.939172
2010.415194
1914.997106
1823.474946
1735.662717
1651.387996
1570.541395
1493.137823
1417.926983
10953.93404
10901.01603
10792.38758
10632.79927
10429.93205
10189.76542
9918.589187
9622.450189
9307.382743
8978.954256
8642.021311
8300.904282
7959.211447
7619.616374
7285.063859
6957.378658
6638.309828
6329.379243
6031.72504
5745.931424
5472.457988
5211.531481
4963.172975
4727.276611
4503.398215
4291.028571
4089.599187
3898.517347
3717.185278
3545.008703
3381.402401
3225.801692
3077.658125
2936.44728
2801.706083
2672.997359
2549.926385
2432.147219
2319.353686
2211.264397
2107.640519
2008.231431
1912.840346
1821.287164
1733.408691
1649.057363
1568.116907
1490.480031
1416.169566
1344.10467
9890.704437
9845.679186
9752.839447
9616.471554
9442.951205
9237.656058
9005.488776
8751.553416
8481.104766
8197.928789
7906.69392
7610.228215
7312.114612
7014.869427
6720.77437
6432.145879
6150.404232
5876.802479
5612.311654
5357.77119
5113.493692
4879.698464
4656.388339
4443.373702
4240.357194
4046.954446
3862.693762
3687.131326
3519.80319
3360.234553
3207.958039
3062.534376
2923.541111
2790.596666
2663.30196
2541.331939
2424.395909
2312.22553
2204.57652
2101.241099
2002.048049
1906.802592
1815.344761
1727.538183
1643.25431
1562.381676
1484.815344
1410.474095
1339.389738
1270.592799
9039.258253
9000.110246
8919.399524
8800.637519
8649.663225
8470.450341
8267.375537
8045.127877
7807.252601
7557.817079
7300.115901
7037.491008
6772.502093
6508.058174
6245.936086
5987.936868
5735.718379
5490.245645
5252.398682
5022.795994
4801.933954
4589.878666
4386.576731
4191.873366
4005.541039
3827.298952
3656.871841
3493.861354
3337.890977
3188.599174
3045.623585
2908.614858
2777.249675
2651.225152
2530.271906
2414.127438
2302.561794
2195.370767
2092.374447
1993.408605
1898.349812
1807.052101
1719.385713
1635.243245
1554.52006
1477.1165
1402.953117
1331.96539
1264.17664
1198.696374
8338.515928
8303.81454
8232.566313
8127.381946
7993.189196
7833.715013
7652.975114
7454.526121
7241.800471
7018.530534
6787.430424
6551.707808
6313.625294
6075.437659
5839.137443
5606.134051
5377.767054
5155.190543
4939.046686
4729.849927
4527.891746
4333.363525
4146.198803
3966.300492
3793.526103
3627.675384
3468.507153
3315.774531
3169.16808
3028.396174
2893.185442
2763.266703
2638.386794
2518.323268
2402.90345
2291.902161
2185.147434
2082.486217
1983.780038
1888.905885
1797.772551
1710.267882
1626.286803
1545.735578
1468.517912
1394.569987
1323.808423
1256.174551
1191.686582
1129.529338
7744.670993
7713.434625
7649.454286
7554.671881
7433.812786
7290.238029
7127.354402
6948.192415
6756.264121
6554.386134
6345.458739
6131.881012
5916.04812
5699.71024
5484.750255
5272.510458
5064.080733
4860.418861
4662.188427
4469.73856
4283.331917
4103.123453
3929.223939
3761.546754
3600.000149
3444.435759
3294.672126
3150.528049
3011.806221
2878.267537
2749.697003
2625.899164
2506.696002
2391.923844
2281.439146
2175.098972
2072.758048
1974.302845
1879.629515
1788.643749
1701.28317
1617.451331
1537.05415
1460.008811
1386.241827
1315.709287
1248.301074
1183.972714
1122.73736
1063.83072
7228.935943
7200.478538
7142.633592
7056.681862
6947.11479
6817.043198
6669.135068
6506.431369
6332.049536
6148.321139
5958.09494
5763.291511
5566.206318
5368.437095
5171.499771
4976.785023
4785.141894
4597.324605
4413.9847
4235.462771
4062.023856
3893.851276
3731.061102
3573.679485
3421.608408
3274.763546
3133.026821
2996.255048
2864.334656
2737.082018
2614.344732
2495.988934
2381.882766
2271.896939
2165.94626
2063.920197
1965.709547
1871.227857
1780.396856
1693.143772
1609.437486
1529.163614
1452.252778
1378.637177
1308.260102
1241.055046
1176.925891
1115.81792
1057.742673
1001.977681
6774.346832
6748.311249
6695.854528
6617.562003
6517.862728
6399.189626
6264.196662
6115.742106
5956.300927
5788.265091
5613.988325
5435.414749
5254.395619
5072.557113
4891.112655
4711.257227
4533.797779
4359.388849
4188.60471
4021.892918
3859.493675
3701.601075
3548.330053
3399.768867
3255.870157
3116.581836
2981.834062
2851.540234
2725.616302
2603.972196
2486.493174
2373.079585
2263.637416
2158.086504
2056.370157
1958.406575
1864.113498
1773.428758
1686.289904
1602.657554
1522.471868
1445.652515
1372.138294
1301.864351
1234.789481
1170.819958
1109.862401
1051.857989
996.8419436
944.079065
6369.553369
6345.612173
6297.847875
6226.225304
6134.933944
6026.186614
5902.42587
5766.294915
5619.869225
5465.503745
5305.129723
5140.658244
4973.590416
4805.471173
4637.300403
4470.112629
4304.767179
4141.841353
3981.872213
3825.352388
3672.499596
3523.514632
3378.531136
3237.671618
3100.941968
2968.323154
2839.782708
2715.27565
2594.775188
2478.24061
2365.57771
2256.727108
2151.633702
2050.242186
1952.538294
1858.439982
1767.898003
1680.864434
1597.29454
1517.161086
1440.392611
1366.933129
1296.71901
1229.698872
1165.818956
1104.971306
1047.065027
992.0629759
939.9550664
890.0519743
6006.064251
5983.95446
5940.321196
5874.508092
5790.563019
5690.570511
5576.768457
5451.395093
5316.408679
5174.001718
5025.779471
4873.545634
4718.546998
4562.180175
4405.407765
4249.153213
4094.285551
3941.336945
3790.813116
3643.169838
3498.662609
3357.498663
3219.83556
3085.80087
2955.464427
2828.818987
2705.878078
2586.642463
2471.126313
2359.298341
2251.110737
2146.533843
2045.53629
1948.101616
1854.218998
1763.829391
1676.900396
1593.395064
1513.281313
1436.533802
1363.088754
1292.888083
1225.872012
1162.0174
1101.210692
1043.364106
988.3952114
936.2625353
886.9185479
839.7259292
5677.677183
5657.185996
5617.222268
5556.486394
5479.067721
5386.809137
5281.775449
5165.886757
5040.970099
4908.963424
4771.280101
4629.586785
4485.005514
4338.803663
4191.940599
4045.246868
3899.548033
3755.348382
3613.12482
3473.305719
3336.194767
3201.985503
3070.851877
2942.954273
2818.376966
2697.159059
2579.347871
2464.972719
2354.071298
2246.636548
2142.651387
2042.110761
1945.008667
1851.36314
1761.146304
1674.330934
1590.890102
1510.790347
1434.043874
1360.583298
1290.359076
1223.314951
1159.423956
1098.59777
1040.747991
985.7830773
933.6401983
884.2277876
837.5074293
792.8900062
5379.669822
5360.606937
5323.82686
5267.60334
5195.95189
5110.494325
5013.121236
4905.495658
4789.325444
4666.297325
4537.760804
4405.197991
4269.701142
4132.415866
3994.271218
3856.008116
3718.397453
3581.929917
3447.064122
3314.2333
3183.728098
3055.758556
2930.514895
2808.178949
2688.864258
2572.638774
2459.568389
2349.699717
2243.125572
2139.822007
2039.812327
1943.111925
1849.742739
1759.731945
1673.049485
1589.682114
1509.6088
1432.840646
1359.345464
1289.070227
1221.965673
1157.998988
1097.105184
1039.195821
984.1837909
931.9971437
882.5345428
835.7069552
791.4777258
749.304428
5108.037278
5090.214484
5056.237844
5003.967914
4937.337947
4857.783408
4767.029228
4666.549085
4557.946914
4442.738905
4322.197506
4197.666279
4070.187497
3940.793176
3810.355192
3679.559245
3549.130795
3419.559248
3291.280838
3164.718488
3040.167367
2917.841623
2797.95295
2680.725495
2566.263785
2454.657624
2345.993119
2240.370446
2137.852867
2038.461488
1942.235235
1849.20951
1759.440649
1672.922227
1589.648213
1509.611975
1432.824826
1359.285429
1288.940848
1221.751255
1157.679968
1096.682514
1038.671012
983.5627708
931.2841302
881.7451712
834.8292292
790.453046
748.6042219
708.7241201
4859.101084
4842.36927
4810.814272
4761.967418
4699.686469
4625.263665
4540.254203
4446.026644
4344.066226
4235.756513
4122.287968
4004.888488
3884.515631
3762.128494
3638.533322
3514.386955
3390.402403
3267.015488
3144.659896
3023.774225
2904.619594
2787.445801
2672.484613
2559.978679
2450.007826
2342.700607
2238.172291
2136.551535
2037.878132
1942.211004
1849.607228
1760.129595
1673.819108
1590.669444
1510.690711
1433.897067
1360.315776
1289.894989
1222.605236
1158.409606
1097.281831
1039.135582
983.8927792
931.4793216
881.819581
834.7938129
790.2960415
748.27377
708.6508928
670.9287878
4629.598279
4613.824092
4584.366637
4538.516022
4480.050514
4410.141144
4330.218113
4241.545146
4145.489112
4043.325922
3936.141598
3825.087627
3711.037406