/*--------------------------------*- C++ -*----------------------------------*\
  =========                 |
  \\      /  F ield         | OpenFOAM: The Open Source CFD Toolbox
   \\    /   O peration     | Website:  https://openfoam.org
    \\  /    A nd           | Version:  7
     \\/     M anipulation  |
\*---------------------------------------------------------------------------*/
FoamFile
{
    version     2.0;
    format      ascii;
    class       volVectorField;
    location    "0.0006";
    object      grad(generalizedNewtonian:nu);
}
// * * * * * * * * * * * * * * * * * * * * * * * * * * * * * * * * * * * * * //

dimensions      [0 1 -1 0 0 0 0];

internalField   nonuniform List<vector> 
14000
(
(-10930103.21 0 124222101.7)
(-12141809.8 0 118428380.8)
(-20239322.6 0 117988063.4)
(-30668746.01 0 110102927.9)
(-34857314.75 0 101695234.2)
(-38233793.45 0 92786423.31)
(-40478559.41 0 83606858.33)
(-41536686.45 0 74547031.56)
(-41657662.55 0 65887139.84)
(-41089247.51 0 57787516.08)
(-40025707.54 0 50324932.03)
(-38620299.48 0 43519118.98)
(-36992321.46 0 37352721.22)
(-35232013.79 0 31786849.51)
(-33406508.78 0 26771424.21)
(-31565312.34 0 22251808.69)
(-29738998.55 0 18174221.87)
(-27939928.36 0 14489295.24)
(-26177939.46 0 11152925.99)
(-24470248.07 0 8125876.043)
(-22831975.47 0 5373539.584)
(-21264760.3 0 2866397.141)
(-19765699.4 0 580810.0012)
(-18344859.53 0 -1501861.388)
(-17016630.45 0 -3396451.703)
(-15792867.65 0 -5113740.594)
(-14692931.84 0 -6660941.059)
(-13742145.47 0 -8042762.163)
(-12972961.45 0 -9262013.29)
(-12423076.97 0 -10320517.21)
(-12129943.11 0 -11220297.11)
(-12140505.78 0 -11964656.44)
(-12508608.26 0 -12558934.54)
(-13278727.8 0 -13011035.51)
(-14483375.63 0 -13331980.54)
(-16143660.74 0 -13535771.56)
(-18257908.49 0 -13638755.22)
(-20791345.98 0 -13659460.38)
(-23674172.41 0 -13618629.85)
(-26795784.99 0 -13539121.51)
(-30003049.02 0 -13445650.08)
(-33115920.89 0 -13365253)
(-35952189.76 0 -13327351.67)
(-38345628.69 0 -13362781.99)
(-40110402.83 0 -13502194.84)
(-41085660.96 0 -13772874.59)
(-41823055.16 0 -14199474.44)
(-43641473.86 0 -14824230.08)
(-39306102.99 0 -15704757.45)
(-27403320.56 0 -16593399.44)
(-2665819.156 0 45421438.26)
(266958.1864 0 44554594.55)
(-106880.4433 0 43611996.11)
(-2288867.632 0 41723602.22)
(-2211956.354 -4.214602094e-07 39510676.79)
(-2416429.603 0 37052541.04)
(-2672558.357 0 34432892.5)
(-2839378.282 0 31738945.95)
(-2914454.913 0 29038556.03)
(-2907730.774 0 26380252.03)
(-2824551.52 0 23797748.08)
(-2670990.39 0 21313055.43)
(-2456504.157 0 18939397.52)
(-2189082.383 0 16684232.64)
(-1871246.226 0 14551097.53)
(-1513446.445 0 12540865.67)
(-1135514.034 0 10652969.17)
(-751715.7163 0 8886852.786)
(-377558.6136 0 7242957.535)
(-37707.51913 0 5721890.795)
(240599.1777 0 4323716.733)
(425580.7984 0 3048527.223)
(481250.107 -6.93073162e-08 1896958.432)
(372135.7885 0 869079.3686)
(59698.92558 0 -37107.45248)
(-494397.9177 0 -825730.2329)
(-1318920.482 6.564482471e-08 -1503564.029)
(-2429324.583 0 -2080652.128)
(-3823951.218 -6.445692042e-08 -2570726.244)
(-5475776.758 0 -2991231.743)
(-7324900.153 6.359647769e-08 -3362343.342)
(-9281787.407 0 -3706784.573)
(-11235001.41 0 -4049459.284)
(-13054319.5 0 -4416218.764)
(-14603153.69 0 -4832954.554)
(-15761702.15 0 -5324835.457)
(-16438340.65 0 -5915905.262)
(-16570797.62 0 -6627552.187)
(-16130866.34 0 -7477230.718)
(-15128893.31 3.131678596e-08 -8478532.386)
(-13597934.07 0 -9639848.641)
(-11568770.3 0 -10963116.01)
(-9062089.502 0 -12443076.92)
(-6085306.552 0 -14068091.22)
(-2640877.648 0 -15820907.03)
(1329269.351 0 -17675152.92)
(6173819.9 6.418771434e-08 -19600288.35)
(12215154.76 0 -21609169.8)
(17177079.76 0 -23753636.17)
(17713312.43 0 -25439784.04)
(-1441962.009 0 4270685.341)
(1624586.049 0 4140326.022)
(2000109.93 3.644315315e-07 4060524.186)
(923375.0253 0 3817191.989)
(1640544.306 0 3523474.195)
(2090445.549 1.800384978e-07 3179359.231)
(2444647.858 0 2787723.308)
(2816350.48 0 2356654.21)
(3204354.345 -1.266262926e-07 1894148.862)
(3593297.611 0 1408349.092)
(3977072.39 0 907465.7903)
(4353912.147 0 399248.7854)
(4715535.939 -9.620349965e-08 -108979.9145)
(5047907.476 0 -610359.1941)
(5337680.917 8.764841734e-08 -1097865.126)
(5569821.054 -8.428846614e-08 -1564323.089)
(5724896.937 0 -2003693.455)
(5778807.457 0 -2411010.594)
(5708071.499 0 -2782048.391)
(5496445.849 0 -3114172.012)
(5131038.994 0 -3406801.864)
(4601059.74 -7.16691772e-08 -3661704.159)
(3906365.461 0 -3883485.845)
(3062610.785 0 -4079462.556)
(2100324.634 0 -4259812.525)
(1062732.028 0 -4437468.901)
(3163.668658 0 -4627150.751)
(-1013126.947 0 -4845122.176)
(-1915845.263 0 -5108328.137)
(-2644175.957 0 -5432631.773)
(-3144202.822 0 -5831540.967)
(-3372014.308 0 -6315304.596)
(-3305420.401 0 -6889959.846)
(-2936535.949 0 -7555840.399)
(-2265618.606 0 -8307806.453)
(-1297049.847 0 -9136306.538)
(-40821.51736 0 -10027677.23)
(1482872.89 0 -10965685.6)
(3264977.938 0 -11932797.26)
(5309778.941 0 -12911136.02)
(7615130.525 6.372947379e-08 -13883612.41)
(10162587.79 6.388731818e-08 -14833728.65)
(12922150.71 0 -15745384.64)
(15857460.33 0 -16602331.95)
(18891429.23 0 -17386715.28)
(21930165.8 0 -18079161.67)
(25057395.17 0 -18658172.5)
(28376017.69 0 -19093702.97)
(28291728.89 -3.296253651e-08 -19358210.66)
(22734985.56 0 -19379869.18)
(-1260834.806 0 -4826299.556)
(1757762.645 -6.001925364e-07 -4879296.805)
(2444900.528 0 -4870416.703)
(1783540.011 0 -4936616.613)
(2697337.331 0 -5011250.313)
(3339883.577 0 -5095984.554)
(3873976.673 0 -5192008.716)
(4397263.97 0 -5296288.704)
(4904504.968 0 -5404853.543)
(5376823.842 0 -5514218.147)
(5804994.633 0 -5621676.964)
(6183251.75 0 -5724123.346)
(6502767.148 0 -5818309.925)
(6750958.373 0 -5902078.608)
(6915226.837 0 -5973863.166)
(6987030.278 0 -6032918.373)
(6960130.795 0 -6079932.446)
(6831143.191 0 -6116981.942)
(6601926.964 0 -6147913.816)
(6280001.152 0 -6178052.812)
(5880631.374 0 -6213885.522)
(5426132.781 7.278532544e-08 -6263149.833)
(4942601.672 0 -6334224.493)
(4461738.079 -7.034064057e-08 -6435288.511)
(4017680.443 6.93402634e-08 -6573763.814)
(3637781.14 0 -6755595.511)
(3349723.082 0 -6984605.067)
(3185043.499 0 -7262352.624)
(3163673.791 0 -7587302.092)
(3294395.311 0 -7954951.115)
(3589345.984 0 -8359100.783)
(4062054.457 0 -8791576.053)
(4709640.572 -6.498922023e-08 -9242788.522)
(5522442.494 6.478072627e-08 -9703215.348)
(6503481.767 0 -10162934.97)
(7647429.46 6.452931717e-08 -10612403.98)
(8937659.628 6.447946828e-08 -11042382.68)
(10360208.91 6.447622666e-08 -11443788.74)
(11894514.47 0 -11808217.62)
(13509883.23 0 -12126989.29)
(15166128.32 -6.472197213e-08 -12391114.86)
(16819661.03 0 -12591239.47)
(18425279.09 0 -12718432.92)
(19918408.51 0 -12765006.71)
(21214085.29 0 -12725270.09)
(22273165.3 0 -12595549.41)
(23221933.52 0 -12367535.03)
(24228276.44 6.656227983e-08 -12023757.68)
(22207631.23 0 -11566436.37)
(15962032.15 0 -11116611.16)
(-884263.7 0 -7602691.324)
(1860181.956 0 -7653885.967)
(2491609.112 0 -7589311.67)
(1971911.271 0 -7599885.111)
(2848558.314 0 -7596481.175)
(3485210.131 0 -7584343.751)
(4016602.879 0 -7567462.383)
(4516275.34 0 -7544701.927)
(4976852.378 0 -7514076.438)
(5389927.107 1.201427254e-07 -7474540.878)
(5749197.284 0 -7426166.628)
(6045575.03 0 -7368953.059)
(6276192.595 9.922330522e-08 -7303131.11)
(6438877.537 0 -7230122.276)
(6530973.659 9.039968085e-08 -7152326.73)
(6556884.976 8.693426157e-08 -7072626.616)
(6523329.726 8.394878842e-08 -6994595.834)
(6437750.95 0 -6922493.193)
(6311293.153 -7.911185696e-08 -6860725.558)
(6158815.259 0 -6813787.965)
(5998571.128 0 -6785947.284)
(5847586.452 0 -6780526.803)
(5720054.417 -7.259610334e-08 -6799738.716)
(5631762.646 0 -6844787.658)
(5598968.258 0 -6915243.299)
(5633851.512 0 -7009403.39)
(5747198.498 -6.875981844e-08 -7124966.771)
(5946874.07 0 -7257976.544)
(6233063.444 0 -7403249.794)
(6607986.935 0 -7555463.555)
(7074461.056 6.661427277e-08 -7709083.114)
(7625542.933 0 -7857735.208)
(8254956.832 6.600133733e-08 -7994633.573)
(8953073.78 0 -8114086.455)
(9705956.854 0 -8209948.394)
(10504080.37 -6.553427191e-08 -8275587.148)
(11329366.98 0 -8305697.453)
(12158964.66 -6.548035459e-08 -8294778.884)
(12974829.39 0 -8237313.891)
(13757881.4 6.560567497e-08 -8129311.104)
(14480073.42 0 -7967764.851)
(15107015.81 -6.58927263e-08 -7750008.419)
(15616695.76 0 -7474344.146)
(16006048.12 0 -7142916.093)
(16246783.68 0 -6766940.298)
(16191425.52 0 -6359466.637)
(15684667.91 6.723356492e-08 -5818050.644)
(14984716.8 6.759889514e-08 -4700991.96)
(12853137.81 0 -1923439.199)
(8475101.884 0 1357863.602)
(-727234.1904 0 -7637520.107)
(1507940.688 0 -7685578.526)
(2135090.985 0 -7576702.268)
(1827972.625 0 -7555409.717)
(2580695.881 0 -7507642.336)
(3123205.99 0 -7441972.736)
(3572253.22 0 -7364393.99)
(3982578.166 0 -7274899.656)
(4348884.993 0 -7173971.958)
(4667488.301 0 -7062652.666)
(4936730.915 1.134980504e-07 -6941830.512)
(5152107.95 0 -6813402.7)
(5317186.202 1.007685705e-07 -6679628.075)
(5438869.397 9.592080917e-08 -6542636.057)
(5519174.137 0 -6405248.013)
(5562878.713 0 -6270370.45)
(5579759.429 0 -6140479.361)
(5578288.741 8.262953467e-08 -6017951.021)
(5567349.418 0 -5904820.5)
(5558095.061 7.834823327e-08 -5802603.398)
(5559172.864 7.660141045e-08 -5712033.981)
(5576717.374 0 -5632844.67)
(5618554.635 0 -5564303.581)
(5690914.394 0 -5505282.601)
(5797842.617 -7.151683797e-08 -5453657.536)
(5945626.018 0 -5406650.414)
(6134683.607 0 -5361252.112)
(6360487.927 0 -5313903.872)
(6621890.37 0 -5260801.545)
(6917004.502 0 -5198379.728)
(7238273.959 0 -5122524.666)
(7575933.069 -6.730675541e-08 -5029252.597)
(7926724.327 0 -4915035.066)
(8279808.747 0 -4775965.765)
(8617083.167 0 -4609037.449)
(8934699.436 0 -4411384.794)
(9221207.539 0 -4180028.612)
(9450616.534 0 -3913067.939)
(9614036.758 0 -3609058.172)
(9707498.293 0 -3266749.608)
(9702848.513 0 -2885899.076)
(9569703.182 0 -2468536.341)
(9330154.496 6.712173975e-08 -2012287.989)
(9116204.055 -6.736057449e-08 -1509943.807)
(9020418.806 6.763410031e-08 -965553.7314)
(7205567.307 0 -185104.5168)
(-3635152.983 0 1666015.433)
(-39962014.44 0 4670192.423)
(-78980931.62 0 8086319.099)
(-77197700.43 3.474251253e-08 10594829.9)
(-393962.9913 0 -6258765.291)
(1220564.043 0 -6305179.928)
(1661264.993 0 -6191250.052)
(1461647.756 0 -6156985.054)
(2015796.096 0 -6093608.254)
(2421243.649 0 -6011509.845)
(2754098.166 0 -5916843.253)
(3051633.734 0 -5810793.36)
(3314708.022 1.347005998e-07 -5694708.43)
(3538449.72 0 -5570503.46)
(3724604.221 0 -5439585.242)
(3876286.76 0 -5303816.144)
(3994317.37 1.023379018e-07 -5165542.628)
(4083652.007 0 -5026395.558)
(4150594.129 0 -4887823.318)
(4199147.819 0 -4751424.296)
(4234095.135 -8.658392149e-08 -4618389.24)
(4261327.411 0 -4489425.911)
(4286264.178 0 -4364952.425)
(4313282.432 0 -4244883.012)
(4344524.895 7.779437162e-08 -4128619.666)
(4382933.37 0 -4015351.6)
(4433606.593 -7.487487825e-08 -3904066.812)
(4496908.774 0 -3793241.477)
(4570023.1 0 -3681228.98)
(4652957.516 0 -3566168.733)
(4744414.729 -7.091817325e-08 -3445719.948)
(4839347.561 0 -3317866.311)
(4933316.089 0 -3180564.827)
(5019947.333 0 -3031710.767)
(5091946.651 0 -2869167.873)
(5143719.809 0 -2691183.313)
(5164333.718 0 -2496178.075)
(5145237.041 0 -2282185.656)
(5079953.976 6.769542619e-08 -2048158.865)
(4954436.881 0 -1793294.787)
(4758521.198 6.753916323e-08 -1516350.094)
(4485134.175 0 -1217294.496)
(4121641.971 6.75785135e-08 -897704.3439)
(3662864.606 0 -557400.6565)
(3125023.075 6.779317443e-08 -180941.7709)
(2441964.004 0 236960.4873)
(1455281.392 0 561840.2545)
(254168.6708 0 923961.4624)
(-4080260.95 -6.868740801e-08 2344290.04)
(-24989822.86 0 5030923.633)
(-61582207.92 0 7812024.652)
(-89310331.51 3.486040442e-08 8579188.771)
(-85535007.5 0 5498918.356)
(-58390242.99 0 1299981.021)
(-258144.4868 0 -4271964.899)
(828432.7081 0 -4301984.884)
(1184585.976 0 -4211042.877)
(1120842.856 0 -4181792.495)
(1528032.04 0 -4130755.439)
(1827434.148 0 -4066290.748)
(2075530.55 0 -3993070.136)
(2296595.435 0 -3912969.546)
(2492129.901 1.367983755e-07 -3827093.667)
(2659795.878 0 -3736855.034)
(2799248.066 0 -3644004.233)
(2915045.538 0 -3549729.617)
(3010296.282 0 -3455253.289)
(3086292.562 0 -3361801.551)
(3146356.674 0 -3270154.998)
(3194334.591 -9.105948692e-08 -3180866.331)
(3233398.911 0 -3094322.827)
(3266038.678 0 -3010654.744)
(3294357.938 0 -2929758.926)
(3320109.048 0 -2851272.612)
(3344681.087 0 -2774645.436)
(3369431.348 0 -2699367.36)
(3394044.807 -7.604095099e-08 -2624611.676)
(3416933.336 0 -2549252.101)
(3436740.292 0 -2472367.635)
(3450237.725 0 -2393016.727)
(3453755.494 0 -2310121.637)
(3443181.571 1.426436175e-07 -2222660.8)
(3413656.782 0 -2129791.112)
(3359351.407 0 -2030627.51)
(3273867.958 0 -1924587.653)
(3151144.455 6.941949927e-08 -1811120.896)
(2982533.231 0 -1689772.193)
(2761143.767 -6.891146e-08 -1560580.173)
(2480808.602 0 -1423466.477)
(2133056.44 -6.864401984e-08 -1279157.948)
(1714715.124 0 -1130059.433)
(1235689.849 0 -975000.5532)
(684854.5427 0 -790620.1935)
(-176444.3828 0 -577167.5706)
(-1454254.289 0 -547232.4096)
(-1045558.349 0 -547346.2258)
(-716975.341 6.922867601e-08 624494.3482)
(-17462281.03 0 3143162.777)
(-53002512.25 0 5582520.967)
(-76803127.21 0 6048883.251)
(-59296132.57 0 3593337.408)
(-3214872.028 0 -596906.3839)
(38733681.25 0 -5058035.019)
(38600292.08 -3.583307216e-08 -8293645.664)
(-96390.4509 -3.794787188e-06 -2406424.191)
(645299.2341 1.296813824e-06 -2426164.411)
(898021.3559 0 -2368109.88)
(889914.0674 0 -2346903.266)
(1192930.189 0 -2310789.395)
(1427061.707 0 -2265928.361)
(1628115.921 0 -2215522.408)
(1810774.718 3.062776283e-07 -2160901.152)
(1974088.525 0 -2103150.389)
(2119181.823 2.556072167e-07 -2043215.787)
(2247044.98 1.188837867e-07 -1982189.81)
(2358060.891 0 -1921079.033)
(2454440.145 1.055502645e-07 -1860460.567)
(2538427.089 0 -1800891.278)
(2611615.013 0 -1742836.29)
(2675304.594 -9.24776118e-08 -1686566.688)
(2731027.444 0 -1632154.095)
(2780557.326 -1.731009816e-07 -1579493.79)
(2824842.095 0 -1528370.826)
(2863906.049 -1.641320642e-07 -1478514.586)
(2898105.489 0 -1429561.52)
(2927095.728 0 -1381035.89)
(2949166.544 7.722518305e-08 -1332368.137)
(2962745.945 0 -1283057.575)
(2965701.735 1.498209436e-07 -1232634.146)
(2955243.604 0 -1180601.389)
(2927996.97 0 -1126679.692)
(2880142.795 0 -1070570.426)
(2807447.209 -7.182066412e-08 -1012213.096)
(2705323.822 0 -951596.6624)
(2569159.988 0 -888988.8427)
(2393940.333 0 -824737.1755)
(2174946.228 0 -759493.9825)
(1907572.401 0 -694925.1416)
(1593711.981 0 -634075.1709)
(1250775.944 0 -574412.4019)
(845544.1872 -6.965920166e-08 -486513.2666)
(34568.86971 0 -379736.3185)
(-1185024.51 -6.969978713e-08 -519760.0416)
(369809.9961 0 -713380.5249)
(2652528.097 0 369068.3091)
(-14200134.45 -7.009436616e-08 2877900.06)
(-51320022.19 0 5302141.115)
(-71815142.93 0 5778472.357)
(-47300429.68 0 3493374.149)
(4740392.715 0 -445598.9351)
(40634744.7 3.576035158e-08 -4392337.836)
(47108883.32 0 -6716487.415)
(38513528.84 0 -6885604.669)
(29211387.71 -3.639112243e-08 -6125563.531)
(-64338.62944 0 -1155184.933)
(470923.6168 1.317009914e-06 -1161501.495)
(685896.6737 8.121304784e-07 -1123357.492)
(719488.1865 0 -1104093.753)
(960381.367 0 -1074481.433)
(1150393.9 0 -1038004.918)
(1316406.161 0 -996765.2352)
(1469928.48 0 -951316.1822)
(1610624.737 0 -902386.2398)
(1737188.787 0 -850793.5527)
(1850533.216 0 -796990.5546)
(1951917.838 0 -741416.7402)
(2041665.583 0 -684472.1355)
(2120668.843 0 -626392.0863)
(2190311.663 0 -567305.8004)
(2251442.575 0 -507242.3907)
(2304170.464 0 -446160.185)
(2348488.114 0 -383941.5803)
(2384880.818 -8.546703297e-08 -320389.0202)
(2413492.714 0 -255259.9709)
(2433484.397 -8.14858888e-08 -188336.3236)
(2443818.388 0 -119359.2312)
(2443399.427 0 -48135.68249)
(2431020.733 0 25450.57038)
(2404790.526 0 101454.6359)
(2362904.131 0 179793.9437)
(2303218.321 0 260272.5455)
(2223608.575 0 342503.5054)
(2122018.813 0 425964.0672)
(1996184.801 0 509957.7123)
(1843807.53 0 593559.9407)
(1663599.163 0 674650.279)
(1463010.706 0 749638.885)
(1265041.322 0 822366.8527)
(1014834.796 0 927137.2668)
(301787.2565 0 1047456.949)
(-738255.0557 0 878399.3744)
(1689838.445 0 628219.4599)
(5000659.816 0 1669785.22)
(-12185510.16 0 4150910.686)
(-50103004.9 0 6601979.205)
(-69004882.11 0 7167295.927)
(-41700594.46 0 4963948.172)
(8065060.566 0 1073246.512)
(37869815.71 3.597338968e-08 -2594734.944)
(41202481.29 3.613669669e-08 -4391159.182)
(36494574.33 0 -4403796.034)
(35424008.03 3.651460869e-08 -3510384.337)
(29279047.25 0 605774.038)
(-16395377.84 0 6855249.065)
(-35616.62656 0 -369829.6496)
(377695.6089 1.337520512e-06 -370377.9946)
(535356.6362 8.247782813e-07 -345643.3678)
(554866.3567 0 -326180.336)
(737450.5204 0 -298300.7767)
(883799.388 0 -264156.4361)
(1011649.987 0 -224933.0016)
(1127745.979 0 -181138.6271)
(1233528.068 0 -133133.9069)
(1328488.552 0 -81225.46457)
(1411371.416 0 -25835.40103)
(1482509.829 0 32719.40276)
(1542783.806 0 94198.37124)
(1592521.565 0 158441.5659)
(1631774.011 0 225408.666)
(1660472.234 9.538046276e-08 295124.3229)
(1678853.643 0 367572.3907)
(1687218.289 0 442677.8835)
(1685235.921 0 520408.0675)
(1672514.533 0 600828.6849)
(1648960.743 0 683904.1196)
(1614188.404 0 769514.3229)
(1567567.114 0 857569.547)
(1508642.217 0 947780.5858)
(1437108.193 0 1039797.954)
(1352659.539 0 1133177.024)
(1255164.477 -7.544026007e-08 1227426.595)
(1144500.966 0 1321943.771)
(1020243.348 0 1415956.535)
(882881.957 0 1507451.937)
(744669.0408 0 1592929.964)
(632492.5197 0 1677468.593)
(475602.1425 0 1799195.667)
(-176094.675 0 1940179.476)
(-1089681.588 0 1773659.068)
(1881450.718 0 1502363.339)
(6002326.519 0 2501672.513)
(-10125632.29 0 4938263.031)
(-46427278.15 0 7401031.646)
(-64091393.31 0 8026632.268)
(-37834889.57 0 5861100.502)
(7668144.62 0 1971814.846)
(33161374.82 -3.625686558e-08 -1579988.485)
(35516025.07 0 -3111735.899)
(31814840.95 0 -3012845.428)
(31309305.42 3.669947549e-08 -2187004.759)
(27302052.22 0 1830347.033)
(-29554275.65 0 8293486.794)
(-121910158.9 0 14255770.26)
(-158505779.2 -3.753343139e-08 18924556.55)
(-58745.28421 0 131182.3979)
(281720.767 0 135171.9054)
(403073.2475 8.3762306e-07 151487.8082)
(400950.3415 0 169312.2361)
(539443.0621 0 193037.3247)
(644985.5026 0 221773.0606)
(734717.816 0 255107.3106)
(815222.7553 0 292521.7422)
(885103.4518 0 333496.486)
(943796.2583 0 377735.1634)
(992436.6088 0 424993.6194)
(1031161.755 0 474914.687)
(1059276.688 0 527234.6307)
(1076201.744 0 581737.6788)
(1081870.849 0 638223.9689)
(1076901.747 0 696454.0991)
(1062183.239 0 756105.3798)
(1037819.504 0 816984.2176)
(1003049.156 0 879083.2555)
(958004.2719 0 942153.3935)
(903450.9762 0 1005765.345)
(838854.0464 0 1069762.475)
(764800.4917 0 1133861.483)
(682679.3537 0 1197596.277)
(592424.0924 0 1260706.806)
(494027.6365 0 1322855.745)
(387461.7998 0 1383583.544)
(274110.7416 0 1441343.045)
(167650.981 0 1493034.069)
(96578.77961 0 1544644.265)
(-16643.30387 0 1636499.593)
(-638336.2284 -7.384602309e-08 1753735.745)
(-1513317.641 -7.354151965e-08 1563753.638)
(1594061.862 0 1246258.692)
(6119044.632 0 2164003.801)
(-8584097.163 0 4531861.974)
(-42592943.84 0 6973252.771)
(-59056644.69 0 7610959.126)
(-34330225.16 0 5492456.23)
(7317627.518 0 1675634.236)
(29580261.04 0 -1782666.187)
(31225445.36 0 -3230836.567)
(28044726.72 0 -3175973.572)
(27977165.92 0 -2504531.007)
(24603320.73 0 1354699.138)
(-29114896.98 -7.454203792e-08 7778177.19)
(-117429648.1 0 13697498.13)
(-150634594.4 0 18493647.62)
(-134187782.5 0 19351028.22)
(-117854386.9 0 17157635.84)
(-72886.5369 0 465972.7683)
(231782.0003 0 471118.8187)
(315192.9575 0 479330.2718)
(280373.2079 0 492530.0235)
(386835.41 0 509284.7321)
(462384.0988 0 529352.8525)
(523133.2865 0 552276.4228)
(576884.0732 0 577769.4803)
(623772.3917 0 605535.437)
(661658.2794 0 634959.5125)
(689995.3811 0 665614.3405)
(709405.4218 0 697313.042)
(719900.2771 0 729826.8789)
(721472.2644 0 762813.125)
(714513.5984 0 795854.8472)
(700124.2927 0 828560.4183)
(678347.9046 0 860726.5098)
(647038.5752 0 892357.6463)
(606491.2827 0 923251.0335)
(560070.4153 0 952879.816)
(507091.3793 8.535257652e-08 981068.4742)
(446202.9466 0 1007802.756)
(379857.8418 0 1032725.79)
(307713.6394 0 1055851.12)
(228675.1154 0 1077172.058)
(144714.8582 0 1095291.496)
(68320.10617 0 1107395.925)
(27278.75896 0 1119714.777)
(-55425.58677 0 1173606.55)
(-640294.9925 0 1258982.023)
(-1504490.466 0 1047614.1)
(1461678.396 0 679252.7551)
(6094311.447 0 1493841.913)
(-7158616.716 0 3786649.447)
(-39058839.46 0 6202798.305)
(-54679404.61 0 6840791.267)
(-31186781.28 0 4760152.187)
(7666576.771 0 1009406.522)
(27683560.44 0 -2375617.305)
(28856843.79 -7.42390978e-08 -3774741.483)
(25977929.49 0 -3757451.764)
(26015543.67 0 -3273973.274)
(23257254.09 0 212322.6969)
(-26911228.71 0 6583384.871)
(-111452616.3 0 12565620.84)
(-143982675.1 0 17411990.03)
(-129014828.4 0 18293074.76)
(-113576278.8 0 16105391.84)
(-101505513.2 0 14067269.09)
(-91795492.77 0 12468844.64)
(-105848.7659 0 603974.7356)
(193411.3912 -1.400988854e-06 609715.6904)
(263613.6339 0 611441.2268)
(206363.9929 0 619704.0905)
(296979.7047 0 629443.2107)
(357417.5739 0 640822.0526)
(405232.4971 0 653507.8547)
(446298.409 0 667191.0377)
(481840.2745 0 681777.3934)
(512364.5342 0 697008.7479)
(536279.9798 0 712384.8158)
(552584.8627 -1.205606226e-07 727633.3721)
(561937.8679 1.14029278e-07 742517.2432)
(565422.8909 1.085435723e-07 756795.852)
(563655.0832 0 770255.5336)
(555878.1403 0 782743.8154)
(540028.5926 -9.647551764e-08 794224.654)
(516357.9094 0 804625.9884)
(488705.2444 0 813633.8466)
(457234.1324 0 821077.5655)
(418614.3192 0 827134.3548)
(374124.6124 0 831855.1451)
(324199.5467 -8.342879964e-08 835222.1251)
(267251.9724 0 836119.7324)
(216745.0806 -8.092814413e-08 831735.691)
(200359.7103 0 828123.2629)
(144227.1398 0 866835.7217)
(-395581.1007 0 943452.7307)
(-1252180.159 0 740572.2851)
(1440057.06 0 342065.541)
(6084979.098 0 1043397.3)
(-5603482.258 0 3245899.826)
(-35585475.94 7.58499712e-08 5643796.24)
(-50931751.39 0 6323094.482)
(-28853328.71 0 4314605.451)
(7865125.449 0 622325.9065)
(26483426.47 0 -2701228.696)
(27418481.29 0 -4031414.753)
(24669136.01 0 -3983733.859)
(24574496.06 0 -3637204.013)
(23089489.33 7.553806162e-08 -688704.6142)
(-20693861.48 0 5592429.039)
(-102291724.9 0 11719104.56)
(-138415192.1 -3.811246719e-08 16703364.1)
(-125186652.3 0 17723926.98)
(-109819970.4 3.844094776e-08 15580475.77)
(-98476025.36 0 13583563.65)
(-89039252.53 0 11990473.46)
(-80240034.07 0 10617388.27)
(-72913007.51 -1.965723836e-08 9438162.231)
(-124896.8029 0 589427.3699)
(189740.2002 0 594747.2742)
(247467.3308 -8.77370148e-07 592310.3303)
(165596.4662 0 597731.7072)
(249990.3948 2.576172288e-07 603371.5873)
(303945.5356 0 609590.7001)
(346523.0403 0 616548.6563)
(384075.4268 -1.680171976e-07 624020.8107)
(416692.73 -1.524266145e-07 631709.9799)
(445254.6558 -1.402205198e-07 639544.8149)
(469451.0914 0 647387.0523)
(488338.31 0 655016.8837)
(501924.7997 -1.158051258e-07 662265.3514)
(510239.1118 1.102339878e-07 669044.3015)
(513194.4581 0 675352.8843)
(510632.1259 0 681226.168)
(502054.145 -9.797798999e-08 686591.2097)
(487714.2767 0 691173.7626)
(468890.5375 0 694999.8215)
(444966.7431 0 698574.5686)
(413432.674 8.803177349e-08 701810.2781)
(374586.3487 0 703308.8616)
(341451.6165 0 700649.6073)
(339752.7271 0 699267.9263)
(302356.0837 0 740663.7049)
(-193211.3719 0 826858.2171)
(-1045484.807 0 655325.8752)
(1307685.776 0 250901.2796)
(5959637.607 7.879848606e-08 846598.9826)
(-3884672.381 0 2949927.94)
(-31723839.1 0 5337154.249)
(-47210329.54 -7.735018209e-08 6109525.818)
(-27307561.23 0 4224924.925)
(7211304.269 0 593011.533)
(25007308.43 0 -2696582.099)
(25967295.62 0 -3973215.018)
(23235819.29 0 -3861965.078)
(22852441.25 0 -3584883.93)
(22842679.22 -7.647155275e-08 -1287414.587)
(-12054259.17 0 4768307.387)
(-89885428.1 3.835723106e-08 11078886.73)
(-132464944.6 -3.845223379e-08 16310118.6)
(-122420655.8 0 17738072.62)
(-107146502.6 0 15679572.71)
(-95957157.39 0 13660091.79)
(-86744125.79 0 12067193.77)
(-78495846.93 0 10711695.3)
(-71043234.84 -1.972394122e-08 9521323.225)
(-64220587.87 0 8477462.68)
(-58787261.81 -1.996337258e-08 7587559.256)
(-153136.3296 0 443796.1821)
(184774.5184 0 449676.9878)
(238849.4416 0 446268.7831)
(137406.8302 0 451359.9305)
(221523.5393 0 456301.1862)
(272029.8448 0 461742.8253)
(310152.4633 1.914875664e-07 468024.5707)
(344671.373 0 475029.3358)
(375856.7176 0 482461.0387)
(403367.192 0 490167.1575)
(426753.2808 -1.32465413e-07 498170.3701)
(445338.571 0 506386.3619)
(458967.3572 0 514744.7055)
(467571.6452 1.119507301e-07 523220.078)
(470881.5595 0 531798.2009)
(468729.0809 0 540485.8939)
(461542.7321 0 549293.367)
(448839.266 0 558104.3449)
(428160.4952 0 566869.3228)
(400584.2873 -9.144149208e-08 574843.4859)
(378831.5565 0 579220.448)
(384918.0974 0 584723.6842)
(359699.9762 -1.72095221e-07 634271.6611)
(-97431.63707 0 735475.5542)
(-952873.6816 0 601531.8704)
(1033456.813 8.241633638e-08 208748.9309)
(5616628.253 0 718004.1639)
(-2392520.705 0 2716056.873)
(-27916868.65 0 5083908.233)
(-43623832.99 0 5975584.75)
(-26418351.68 0 4267024.798)
(5783530.001 0 731562.1336)
(23233230.74 -7.823088437e-08 -2536128.867)
(24531289.92 0 -3809054.25)
(21779044.36 0 -3656301.681)
(20939414.28 0 -3398160.983)
(21975107.1 0 -1787763.711)
(-2931036.281 7.761336748e-08 3799340.627)
(-74932956.76 0 10270394.37)
(-125203563.2 0 15794092.29)
(-120297971 0 17875493.9)
(-105097323.8 0 16003958.28)
(-93911325.59 0 13929758.1)
(-84931948.47 0 12309260.43)
(-76973642.98 -3.946842698e-08 10943848.37)
(-69723443.9 0 9746128.247)
(-63197119.48 -1.99228586e-08 8694418.46)
(-57492506.37 0 7781219.122)
(-52423223.77 0 6992585.626)
(-48414290.86 0 6319422.396)
(-176483.6111 0 216855.9042)
(185420.7104 0 223245.5668)
(230449.8857 0 220524.8182)
(104349.4858 0 226986.5239)
(185127.3926 2.657037731e-07 233711.4411)
(229295.0854 0 241485.3121)
(260487.4201 0 250599.5405)
(289008.622 0 260884.7121)
(315223.4845 0 272076.7058)
(337999.8245 -1.44622009e-07 284005.6853)
(356684.7929 1.345283774e-07 296711.8801)
(370979.1102 0 310136.067)
(380516.9149 0 324171.987)
(384960.1397 0 338758.6895)
(383991.8667 0 353906.5651)
(377272.4842 0 369678.6464)
(365286.4077 0 385947.9511)
(348749.2749 9.794016005e-08 401392.9054)
(334146.0783 0 412843.9082)
(344032.9063 0 425625.8166)
(330416.7807 0 486528.0448)
(-100510.6984 0 606408.1101)
(-970875.9196 0 509536.5485)
(664132.595 0 146987.6529)
(5056204.674 0 615039.0171)
(-1400450.214 0 2527824.509)
(-24563493.42 0 4866263.255)
(-40250505.48 0 5868049.217)
(-25819422.68 0 4349307.257)
(4010519.207 0 935408.4525)
(21318519.03 0 -2320008.435)
(23135992.05 0 -3643060.36)
(20434585.76 0 -3486326.626)
(19120330.63 0 -3203464.455)
(20494396.46 0 -2195307.24)
(5057611.705 0 2648017.691)
(-58311840.53 0 9213051.131)
(-115665670.8 0 15029662.77)
(-118318784.9 0 17929613.86)
(-103504759.8 3.948647112e-08 16418118.03)
(-92181114.51 0 14274707.92)
(-83356948.51 0 12605600.63)
(-75649933.02 0 11219170.54)
(-68632979.13 0 10006566.33)
(-62269766.57 0 8937473.486)
(-56620553.04 2.013252822e-08 8003555.509)
(-51685361.24 -2.023312938e-08 7195419.65)
(-47383947.5 0 6497010.47)
(-43517154.55 0 5887035.646)
(-40443469.2 0 5358583.116)
(-208222.0633 0 -96254.51073)
(173343.2482 0 -89503.73456)
(209453.6093 0 -90698.89214)
(57915.85826 0 -82389.47441)
(132209.5136 -2.698417427e-07 -73239.46029)
(166126.6034 0 -62502.5293)
(186458.2315 0 -49837.4881)
(205352.2797 0 -35458.44469)
(223170.1608 0 -19802.85041)
(237654.3254 0 -2886.264932)
(247731.2622 0 15516.05238)
(253724.8368 0 35262.2198)
(255519.2241 -1.213003381e-07 56102.68406)
(252255.4075 1.154648371e-07 77887.90505)
(242770.913 0 100403.5142)
(227932.4803 0 122302.8634)
(218920.9573 0 140438.1032)
(239583.3241 9.946544286e-08 161525.7815)
(235056.2067 -9.671412354e-08 239377.3322)
(-202361.1963 0 384060.9724)
(-1115171.367 0 321992.8898)
(224980.7367 0 14006.80129)
(4297746.91 8.874862475e-08 512703.2)
(-1149332.812 0 2385902.473)
(-22153297.74 0 4689149.464)
(-37350007.7 0 5760178.589)
(-25249848.69 0 4400669.665)
(2296520.858 0 1118200.536)
(19410485.83 0 -2122026.516)
(21780191.05 0 -3526183.232)
(19235478.31 0 -3395198.652)
(17540376.1 0 -3063215.098)
(18657929.4 -8.068653343e-08 -2481483.382)
(10826203.42 0 1394522.76)
(-41232208.08 0 7916361.709)
(-103414978.5 0 14003559.37)
(-116037301.7 0 17776695.1)
(-102354260.5 0 16872038.17)
(-90763468.49 4.00501495e-08 14675651.91)
(-82013603.74 0 12940322.06)
(-74519921.73 4.017736749e-08 11525506.5)
(-67716642.42 0 10295174.62)
(-61511749.75 0 9207078.192)
(-55950070.94 0 8251022.393)
(-51050930.92 2.035366581e-08 7419157.57)
(-46752650.46 0 6698148.589)
(-42957312.94 0 6070236.918)
(-39582899.75 0 5519290.834)
(-36547502.52 0 5031636.538)
(-34166741.98 0 4606197.731)
(-233904.3047 0 -488547.9552)
(161716.0771 0 -482233.305)
(181530.0394 0 -482257.464)
(374.8521916 0 -472979.6978)
(64372.0113 0 -462251.1415)
(84691.30261 0 -449608.4216)
(90574.6694 0 -434780.3749)
(97056.01967 0 -418052.5148)
(103234.3488 0 -399455.3195)
(103839.5559 0 -378661.5574)
(99131.92261 0 -355994.582)
(91928.49898 0 -331790.4445)
(82000.62165 0 -306194.5782)
(68931.69826 0 -280674.3111)
(61386.52716 0 -258037.6579)
(81353.29366 0 -224475.8018)
(68585.21031 -2.084510861e-07 -117444.7075)
(-419201.0569 -1.010144801e-07 66967.79783)
(-1410825.366 0 41350.78018)
(-280496.9694 0 -176334.505)
(3340945.398 0 453321.4348)
(-1809832.568 0 2354981.969)
(-21013889.06 0 4618505.41)
(-35102678.26 0 5692222.256)
(-24502844.93 0 4415087.727)
(1026563.416 0 1232527.934)
(17681507.8 0 -1991592.816)
(20416532.94 0 -3478814.64)
(18104841.72 0 -3390982.83)
(16183796.58 0 -3008110.198)
(16746473.91 -8.270409717e-08 -2663035.129)
(13947015.66 0 170525.3027)
(-25190729.46 0 6426393.506)
(-88493749.73 0 12749304.74)
(-112627406.7 0 17337249.64)
(-101582246.3 0 17326099.63)
(-89628767.54 0 15136101.17)