/*--------------------------------*- C++ -*----------------------------------*\
  =========                 |
  \\      /  F ield         | OpenFOAM: The Open Source CFD Toolbox
   \\    /   O peration     | Website:  https://openfoam.org
    \\  /    A nd           | Version:  7
     \\/     M anipulation  |
\*---------------------------------------------------------------------------*/
FoamFile
{
    version     2.0;
    format      ascii;
    class       volTensorField;
    location    "0.0006";
    object      grad(U);
}
// * * * * * * * * * * * * * * * * * * * * * * * * * * * * * * * * * * * * * //

dimensions      [0 0 -1 0 0 0 0];

internalField   nonuniform List<tensor> 
14000
(
(-0.0029805026 4.100787131e-17 -0.0001757250278 -2.622978776e-15 -0.004826901452 0 0.0005944225607 -2.917855992e-16 0.008367964108)
(-0.00400638975 -3.186135279e-16 -0.0004605657064 -9.255491727e-16 -0.004247662426 0 0.001558191337 -4.993524308e-16 0.00843453938)
(-0.004042522419 -6.519111122e-16 -0.0007589084439 -3.393573181e-16 -0.004096013842 0 0.00247193038 -6.338233895e-16 0.00858692668)
(-0.00427811499 -7.796657396e-16 -0.001037103057 -3.020668233e-17 -0.00411134279 0 0.003415791367 -5.017595168e-16 0.008808726037)
(-0.004486149611 -9.721381229e-17 -0.001321024723 1.328580905e-16 -0.00416583291 0 0.004364273496 -4.113192822e-16 0.009095533573)
(-0.004711530862 4.199614807e-16 -0.00160548637 2.032135697e-17 -0.004237160135 0 0.005309918227 -4.262819566e-16 0.009442397922)
(-0.004968818544 2.456624294e-16 -0.001889217743 -1.76798909e-17 -0.004321962123 0 0.006253827385 -3.092108514e-16 0.009844331409)
(-0.005253587535 1.475444234e-16 -0.002173405501 -5.514068962e-17 -0.004418381796 0 0.007197126141 -2.090750786e-16 0.0102966623)
(-0.005560168255 9.463263943e-17 -0.002459452127 -5.717039692e-17 -0.004524657869 0 0.008139997161 -1.196665356e-16 0.01079506318)
(-0.005883956074 6.905304374e-17 -0.002748627604 -5.259227727e-17 -0.004639261194 0 0.009082014508 -1.279330971e-16 0.01133553459)
(-0.006220433889 5.121489882e-17 -0.003042165757 -4.89216944e-17 -0.004760831749 0 0.01002221132 -1.315442642e-16 0.01191439614)
(-0.006564870784 3.846697755e-17 -0.00334127214 -4.592268727e-17 -0.004888096796 0 0.01095910972 -1.30085021e-16 0.01252827025)
(-0.006912345332 3.803729416e-17 -0.003647112948 -4.343483604e-17 -0.005019830885 0 0.0118907333 -1.229764849e-16 0.01317405996)
(-0.00725772755 4.230421448e-17 -0.003960798411 -5.168159821e-17 -0.005154835986 0 0.01281466149 -1.436669523e-16 0.01384893833)
(-0.007595649664 4.109878014e-17 -0.004283335993 -5.935846383e-17 -0.005291926708 0 0.01372810358 -1.583183353e-16 0.01455032474)
(-0.007920716214 3.363288241e-17 -0.004615676778 -5.708299158e-17 -0.005429921707 0 0.01462780796 -1.400220521e-16 0.01527586129)
(-0.008227671713 3.558210946e-17 -0.004958837843 -3.674844184e-17 -0.005567660252 0 0.0155100729 -1.453140578e-16 0.0160234048)
(-0.008510534451 4.98766861e-17 -0.005313938759 -7.123253356e-17 -0.005704009453 0 0.01637097083 -1.721172998e-16 0.01679102612)
(-0.008762039424 5.132096555e-17 -0.005682211399 -5.194662477e-17 -0.005837793984 0 0.01720622522 -1.949587769e-16 0.01757701555)
(-0.008974604051 4.386256054e-17 -0.006064897596 -5.065631052e-17 -0.005967770913 0 0.0180111493 -2.129479563e-16 0.01837987663)
(-0.009141156332 4.185280701e-17 -0.006463176935 -6.60358619e-17 -0.006092671508 0 0.01878080626 -2.283260115e-16 0.01919830889)
(-0.009254766012 3.918334091e-17 -0.006878350831 -4.853678358e-17 -0.00621123996 0 0.01951004883 -2.419337944e-16 0.02003120982)
(-0.009307040072 2.072606141e-16 -0.007311918095 -4.766823438e-17 -0.006322225947 0 0.02019354074 -2.700024169e-16 0.02087768964)
(-0.009288341088 3.706411377e-16 -0.007765230552 -4.690654919e-17 -0.006424303171 0 0.0208257559 -3.120200606e-16 0.02173707391)
(-0.009189579505 3.660924099e-16 -0.008239336128 -7.706574866e-17 -0.006516095906 0 0.02140097638 -3.514440976e-16 0.02260886688)
(-0.009000947665 3.621317347e-16 -0.00873494516 -6.087546521e-17 -0.006596230104 0 0.02191336369 -3.72248761e-16 0.02349274282)
(-0.008711663207 1.718963382e-16 -0.009252022985 -9.029848684e-17 -0.006663268999 0 0.0223569895 -3.925959517e-16 0.02438852182)
(-0.008310621495 -6.403764321e-18 -0.009789483816 -8.941983633e-17 -0.00671574699 0 0.02272591621 -3.978360042e-16 0.0252961094)
(-0.007785678652 1.909229645e-16 -0.01034484967 -8.866445155e-17 -0.006752154275 0 0.02301416322 -4.022305917e-16 0.0262154492)
(-0.007124832028 3.890186493e-16 -0.01091393673 -8.802130741e-17 -0.006770928169 0 0.02321569149 -4.211842781e-16 0.02714642531)
(-0.006314756627 2.509521733e-16 -0.01149062548 -7.290071646e-17 -0.006770502183 0 0.02332456302 -4.415353731e-16 0.02808876826)
(-0.005339276621 1.10932555e-16 -0.01206634945 -8.703481266e-17 -0.006749224229 0 0.02333490629 -4.509207383e-16 0.02904193154)
(-0.004181931833 1.322287514e-16 -0.01262986639 -8.667592535e-17 -0.006705338433 0 0.02324089232 -4.603851802e-16 0.03000491994)
(-0.002826737895 1.662146284e-16 -0.01316757051 -1.151971434e-16 -0.006637039831 0 0.02303681896 -4.717050947e-16 0.03097611412)
(-0.001255529127 1.901790232e-16 -0.01366385537 -1.149267157e-16 -0.006542485363 0 0.02271720303 -4.849422383e-16 0.03195310936)
(0.0005527054672 2.019052171e-16 -0.01410131983 -1.14750072e-16 -0.006419728645 0 0.0222767632 -4.98565028e-16 0.03293254978)
(0.002620181974 2.179714859e-16 -0.01446127521 -1.003287492e-16 -0.006266713985 0 0.02171043181 -5.123497863e-16 0.03390998031)
(0.004969789603 2.381988198e-16 -0.01472438516 -1.003237053e-16 -0.00608129011 0 0.02101341088 -5.266459249e-16 0.0348797607)
(0.007626312998 2.587127249e-16 -0.01487108744 -1.003872036e-16 -0.005861224428 0 0.02018126351 -5.417438661e-16 0.0358350343)
(0.01061720743 1.444913346e-16 -0.01488154301 -1.00515711e-16 -0.005604171333 0 0.01920993046 -5.579350862e-16 0.03676778825)
(0.01397046968 3.605075362e-17 -0.01473529035 -1.007060803e-16 -0.005307663722 0 0.01809573432 -5.671793782e-16 0.03766896145)
(0.01771445577 6.750554537e-17 -0.01441053774 -1.153777233e-16 -0.004969159664 0 0.01683546383 -5.676910867e-16 0.03852864286)
(0.0218786313 9.566725005e-17 -0.01388261952 -1.157274236e-16 -0.004586036983 0 0.01542643516 -5.599477336e-16 0.03933629236)
(0.02649423811 1.209027309e-16 -0.01312191782 -1.088805081e-16 -0.004155609756 0 0.01386656752 -5.539480983e-16 0.04008096867)
(0.03159274077 1.498488715e-16 -0.01209120898 -1.093226307e-16 -0.00367510412 0 0.01215437691 -5.495968846e-16 0.0407515334)
(0.03718846818 1.829028366e-16 -0.01074336372 -1.098189184e-16 -0.003141719459 0 0.01028910039 -5.46864523e-16 0.04133679472)
(0.04328151575 5.791428914e-17 -0.00902116771 -1.103676776e-16 -0.002553073209 0 0.008271531323 -5.455318048e-16 0.04182560808)
(0.0500681757 -6.954245272e-17 -0.006849174738 -1.072684748e-16 -0.001907116826 0 0.006104266401 -5.381675845e-16 0.04220697007)
(0.05806484525 -4.159102986e-17 -0.004088138227 -1.041755926e-16 -0.001197145995 0 0.003782066707 -5.322857481e-16 0.04246973247)
(0.06465515906 -1.377012171e-17 -0.001266782369 -1.057627592e-16 -0.0004093046443 0 0.00128370463 -5.293721381e-16 0.04260044643)
(-0.007645899742 2.231778749e-15 -0.0005571410911 -5.848031787e-15 -0.01240715554 0 0.0003451434516 7.308858639e-17 0.02173841791)
(-0.01018567265 2.794187836e-15 -0.001325025995 -3.895343486e-15 -0.01090481588 0 0.0009009501713 2.119395354e-16 0.02177222991)
(-0.01004370724 3.900275895e-16 -0.00214017599 -3.383761141e-15 -0.01045263836 0 0.001413396176 -1.140356214e-16 0.02183778035)
(-0.01028497316 -9.036865337e-16 -0.002921694089 -2.055366342e-15 -0.01037874722 0 0.001921602249 -3.800703639e-16 0.02193462448)
(-0.01035231548 -4.274211048e-16 -0.003675259951 -1.471932777e-15 -0.01036573363 5.024197213e-14 0.002404266693 -6.15427876e-16 0.02205900268)
(-0.01036858876 -1.293955912e-15 -0.004392409117 -1.19699437e-15 -0.01036167885 0 0.002851525996 -5.369862728e-16 0.0222070435)
(-0.01037693654 -1.990856344e-15 -0.00507113542 -7.002539981e-16 -0.01036086072 0 0.00325924494 -5.039058839e-16 0.02237522015)
(-0.01037399191 -1.702701404e-15 -0.005711228665 -3.839960881e-16 -0.01036102159 0 0.003624244605 -4.911181105e-16 0.02256006814)
(-0.01035290618 -7.374395228e-16 -0.006313132033 -2.032126134e-16 -0.01036009068 0 0.003943590553 -4.891968922e-16 0.02275813511)
(-0.01030825627 3.155649819e-17 -0.006877739802 -1.602339875e-16 -0.01035638133 0 0.004214739678 -4.925887681e-16 0.02296605643)
(-0.01023468125 -3.372079055e-17 -0.007406175898 -1.490507461e-16 -0.01034842175 0 0.004435630328 -5.028763275e-16 0.02318060048)
(-0.01012671413 -1.160709087e-16 -0.00789960932 -1.399136086e-16 -0.01033487714 0 0.004604681866 -5.160698584e-16 0.02339869008)
(-0.009978988214 9.330568197e-17 -0.008359276076 -8.822254694e-17 -0.01031448584 0 0.0047206326 -4.932821971e-16 0.02361743523)
(-0.009786829802 2.819302403e-16 -0.008786445288 -1.049729351e-16 -0.01028607215 0 0.004782547701 -4.704003258e-16 0.02383414295)
(-0.009544948799 -8.402712688e-17 -0.009182322559 -1.004714829e-16 -0.01024858185 0 0.004789908886 -4.569401118e-16 0.02404634651)
(-0.009246660103 -1.514970887e-16 -0.009548124914 -1.159439603e-16 -0.01020093224 0 0.004742541603 -4.435473445e-16 0.0242518184)
(-0.008886707975 2.830399692e-16 -0.009885161582 -9.330186984e-17 -0.01014199211 0 0.004640613143 -4.339947668e-16 0.02444856453)
(-0.008460820592 4.424228845e-16 -0.01019493221 -1.265982929e-16 -0.01007077716 0 0.004484596099 -4.262870204e-16 0.02463481599)
(-0.007963549635 3.610119387e-16 -0.01047907241 -1.230964502e-16 -0.009986348614 0 0.004275365097 -4.204059631e-16 0.02480903527)
(-0.007390073712 2.997956356e-16 -0.01073923276 -1.20038829e-16 -0.009887768494 0 0.004014386148 -4.189519052e-16 0.02496988786)
(-0.006736417294 2.62559272e-16 -0.01097723282 -1.844267673e-16 -0.009774192232 0 0.003703580065 -4.20863125e-16 0.02511623803)
(-0.005998524361 4.104834821e-16 -0.01119521783 -1.643089226e-16 -0.009644836117 0 0.00334517006 -4.25586427e-16 0.02524712784)
(-0.005173435094 5.6286779e-16 -0.01139561529 -1.290949363e-16 -0.009498976088 8.262075925e-15 0.002941770766 -4.101645785e-16 0.02536173346)
(-0.004258812875 5.387080882e-16 -0.0115809287 -2.064272329e-16 -0.009336005581 0 0.002496601288 -3.685731302e-16 0.02545932204)
(-0.003251986632 3.166101894e-16 -0.01175375992 -2.034914465e-16 -0.009155391436 0 0.002013428091 -3.512584256e-16 0.02553923297)
(-0.002151599301 1.175793925e-16 -0.01191694116 -1.854705489e-16 -0.008956661484 0 0.0014964218 -3.203144005e-16 0.02560081616)
(-0.0009580785744 1.277358956e-16 -0.0120733024 -1.986936483e-16 -0.008739471871 -7.825472916e-15 0.0009503240847 -2.766441338e-16 0.0256433928)
(0.0003277082059 1.213492873e-16 -0.01222562607 -1.816248529e-16 -0.008503610909 0 0.0003803483229 -2.693643931e-16 0.02566624106)
(0.001704849067 9.983535662e-17 -0.01237640135 -1.500754627e-16 -0.008248972266 7.68386369e-15 -0.0002077739814 -2.641300506e-16 0.02566857616)
(0.003171184896 1.054838625e-16 -0.01252740382 -1.638855485e-16 -0.007975540575 0 -0.0008077169606 -2.312066621e-16 0.02564954954)
(0.004722038809 1.26815646e-16 -0.01267936185 -1.77686506e-16 -0.007683431746 -7.581290923e-15 -0.001412723647 -1.997443222e-16 0.02560827535)
(0.006350890055 1.338513953e-16 -0.01283118561 -1.473170989e-16 -0.007372933553 0 -0.002015465913 -1.937228926e-16 0.02554388665)
(0.008050392841 1.43271131e-16 -0.01297914061 -1.613806019e-16 -0.007044496233 0 -0.002607947213 -1.889597836e-16 0.02545563794)
(0.009811525757 1.65461402e-16 -0.01311621865 -1.901106666e-16 -0.006698717723 0 -0.003181659339 -1.977182044e-16 0.0253430136)
(0.01162216459 1.791638785e-16 -0.01323143166 -1.896643778e-16 -0.006336371891 0 -0.003727599697 -1.939558009e-16 0.02520584351)
(0.01346741243 1.820750642e-16 -0.01330930771 -1.893728615e-16 -0.005958447665 0 -0.004236147395 -1.90963646e-16 0.0250444202)
(0.01533017509 1.830431606e-16 -0.01333003039 -1.89226571e-16 -0.005566149136 0 -0.004697070391 -1.756753623e-16 0.02485960403)
(0.01719043917 1.896861206e-16 -0.01327007405 -1.746618996e-16 -0.005160901039 0 -0.005099500874 -1.497798192e-16 0.02465290172)
(0.01902445911 2.054088305e-16 -0.01310366379 -1.747724491e-16 -0.004744370703 0 -0.005432057341 -1.139723243e-16 0.02442651999)
(0.02080511508 2.371164038e-16 -0.01280480747 -1.822876858e-16 -0.004318493851 -7.466503611e-15 -0.005682778319 -7.946997932e-17 0.02418338862)
(0.02250289958 1.113775479e-16 -0.01234985439 -1.82632925e-16 -0.003885472632 0 -0.005839096976 -6.225081083e-17 0.02392718184)
(0.0240850744 -1.80803854e-16 -0.01172024217 -1.611150359e-16 -0.003447760732 0 -0.005887976437 -5.619677385e-17 0.02366233218)
(0.02551481147 -3.114781423e-16 -0.01090497688 -1.689489695e-16 -0.00300808631 0 -0.00581596281 -5.009012253e-17 0.02339407467)
(0.02675139901 -2.857198998e-16 -0.009902968851 -1.621783845e-16 -0.002569459323 0 -0.005609335547 -4.366418941e-17 0.02312853226)
(0.02775076153 -2.636486597e-16 -0.008724831273 -1.480335723e-16 -0.002135178887 0 -0.005254106211 -3.685884117e-17 0.02287284396)
(0.02846807314 -2.478656509e-16 -0.007393897729 -1.487055946e-16 -0.001708819672 0 -0.004736260898 -2.944056397e-17 0.02263536155)
(0.02885151639 -2.069039463e-16 -0.005945904056 -1.41976235e-16 -0.001294164747 -7.651771824e-15 -0.004042902298 -2.102443811e-17 0.02242585275)
(0.02881759755 -1.61546798e-16 -0.004430482533 -1.371129205e-16 -0.000895363417 0 -0.003162092783 -2.560107209e-17 0.02225560526)
(0.02829058083 -1.141925985e-16 -0.002915473592 -1.322474789e-16 -0.0005174820359 0 -0.002071277203 -2.886376114e-17 0.02213801194)
(0.027473859 -3.834169742e-17 -0.001080983428 -1.316483777e-16 -0.0001655840149 0 -0.0007315559917 -3.091713207e-17 0.0220912657)
(-0.009060416449 -1.426187786e-15 -0.0005467239305 -6.039769613e-16 -0.01475409566 0 2.417607713e-05 1.434546473e-16 0.02718495008)
(-0.01199683002 1.778154408e-15 -0.001258334169 1.032002105e-15 -0.01293951369 0 6.155927042e-05 4.016184074e-16 0.02716917036)
(-0.01170138802 3.693206867e-15 -0.002015174246 -1.060635351e-15 -0.01234916752 -8.688724793e-14 8.919509089e-05 7.194161752e-16 0.02712803372)
(-0.01182429263 2.975441549e-15 -0.00275413608 -1.620052881e-15 -0.01219913226 0 0.0001052693326 4.701397021e-16 0.02706870121)
(-0.01169584035 9.114875293e-16 -0.003462226062 -1.893484384e-15 -0.01210889452 0 0.0001044590476 3.322533653e-16 0.02699253023)
(-0.01146544966 -4.535710459e-16 -0.004130435298 -1.488106016e-15 -0.01201634883 -4.292452283e-14 8.335376048e-05 2.423400919e-16 0.02690082896)
(-0.01118960278 -1.43884431e-16 -0.004756583044 -1.203500667e-15 -0.01191531362 0 3.932677589e-05 -1.023172554e-16 0.02679498174)
(-0.01086899587 4.919134588e-18 -0.005339153717 -1.007438764e-15 -0.01180422573 0 -2.955630951e-05 -3.921341313e-16 0.02667626866)
(-0.01049967453 9.659543407e-17 -0.005877290938 -8.844744366e-16 -0.01168168632 3.019006077e-14 -0.0001247282837 -6.540455566e-16 0.02654583288)
(-0.01008105382 1.8654024e-16 -0.006371071547 -8.678901868e-16 -0.01154681559 0 -0.0002471316549 -7.170633296e-16 0.02640469449)
(-0.009613836186 2.527547853e-16 -0.006821185766 -8.073173609e-16 -0.0113992095 0 -0.0003970079489 -7.109897248e-16 0.0262537664)
(-0.009097577371 -5.837266359e-17 -0.007228878167 -7.341449418e-16 -0.01123875202 0 -0.0005740618575 -7.331964658e-16 0.0260939013)
(-0.008530781267 -3.673324885e-16 -0.007595860246 -6.719736823e-16 -0.01106531592 1.146835085e-14 -0.0007775185998 -7.768196589e-16 0.02592591785)
(-0.007913025348 -2.807198426e-16 -0.007924311103 -6.183249108e-16 -0.01087879038 0 -0.00100619902 -7.272685483e-16 0.02575059273)
(-0.007244196084 -2.086161732e-16 -0.008216885769 -5.918098853e-16 -0.01067918606 -1.044850556e-14 -0.001258586356 -6.973539502e-16 0.02556869371)
(-0.006523927524 -1.839837921e-16 -0.008476477047 -5.102483834e-16 -0.01046653235 1.004796817e-14 -0.001532659196 -7.046991222e-16 0.02538098727)
(-0.005752083941 -1.255872791e-16 -0.008706155431 -4.54823603e-16 -0.01024090181 9.702903532e-15 -0.001825915618 -6.392628541e-16 0.02518822184)
(-0.004928893896 -7.626662323e-17 -0.008909327394 -4.408110378e-16 -0.01000239317 0 -0.002135614697 -5.103582846e-16 0.02499112778)
(-0.004056681246 -1.573133138e-17 -0.009089540798 -4.286177383e-16 -0.009751160869 0 -0.002458657171 -3.976969248e-16 0.02479038305)
(-0.003138668203 5.340289622e-17 -0.009250284047 -4.005557362e-16 -0.009487543284 0 -0.002791570921 -3.239293311e-16 0.02458659668)
(-0.002176427262 1.146341462e-16 -0.009394964442 -3.916250958e-16 -0.009211953022 0 -0.003130698229 -2.585007478e-16 0.02438030619)
(-0.00117169578 -7.222247254e-17 -0.00952666292 -3.671091745e-16 -0.008924786787 8.543631697e-15 -0.003472127533 -1.992401145e-16 0.02417192542)
(-0.0001286715701 -4.049992111e-16 -0.009647923411 -3.60539881e-16 -0.008626503645 0 -0.003811713262 -1.114407143e-16 0.02396170245)
(0.0009471331886 -2.65233731e-16 -0.009760610537 -3.386525444e-16 -0.008317704856 0 -0.004145250923 -4.935345799e-17 0.02374969525)
(0.002050864242 -1.752391994e-16 -0.009865476039 -3.497332285e-16 -0.007999094041 -8.139246046e-15 -0.004468373385 8.367392652e-18 0.02353577287)
(0.003177077793 -4.912539958e-16 -0.009961829977 -2.825384939e-16 -0.007671415853 0 -0.004776532925 3.111001522e-17 0.02331959504)
(0.004319540687 -4.098970877e-16 -0.01004757892 -2.793988063e-16 -0.007335511624 0 -0.005065254496 5.121970214e-17 0.02310060552)
(0.005471817289 -1.514145127e-16 -0.01011908359 -2.613089955e-16 -0.00699227647 0 -0.005330168681 5.451229826e-17 0.02287806307)
(0.006625909528 -2.745363171e-16 -0.0101709446 -2.591015564e-16 -0.006642673401 0 -0.005566900767 5.673005889e-17 0.02265104718)
(0.007773511803 -4.025301502e-16 -0.01019622671 -2.420914023e-16 -0.006287768356 0 -0.005771125804 5.797679548e-17 0.02241851963)
(0.00890656315 -2.124825017e-16 -0.01018696176 -2.255671592e-16 -0.005928671768 0 -0.005938699072 5.976784803e-17 0.02217939179)
(0.01001550359 -2.530535873e-17 -0.01013469388 -2.244170382e-16 -0.005566546503 0 -0.006065752671 7.605142604e-17 0.02193260483)
(0.01109030902 1.870724106e-16 -0.01003109598 -2.234916564e-16 -0.005202640923 0 -0.00614867598 9.139968386e-17 0.02167723901)
(0.01212115884 2.294172958e-16 -0.009868702853 -2.079230214e-16 -0.004838243741 0 -0.006184147748 1.205131003e-16 0.02141265789)
(0.01309740959 9.9506831e-17 -0.009641666719 -2.074349177e-16 -0.004474686822 0 -0.006169325382 1.481086482e-16 0.02113864112)
(0.01400797757 -5.117223656e-17 -0.009346126847 -1.997190848e-16 -0.004113350857 0 -0.00610187052 1.74617694e-16 0.02085554641)
(0.01484086184 -3.590116505e-16 -0.008980494863 -1.995648018e-16 -0.003755651038 0 -0.0059800363 1.889670944e-16 0.02056444925)
(0.01558418092 -6.411981702e-16 -0.008545654213 -1.773820168e-16 -0.003403060176 0 -0.00580276909 2.022465257e-16 0.02026725821)
(0.0162267376 -7.593918624e-16 -0.008044831254 -1.700986927e-16 -0.00305705664 0 -0.005569781091 2.04336883e-16 0.01996678553)
(0.0167566606 -6.12949715e-16 -0.007483282559 -1.555063139e-16 -0.002719129319 0 -0.005281686168 2.077796385e-16 0.01966672919)
(0.01716217303 -3.099570015e-16 -0.006867991627 -1.48381744e-16 -0.002390781196 -7.597145294e-15 -0.004940055331 2.235430143e-16 0.01937159142)
(0.01743261663 -1.224493982e-16 -0.006207504148 -1.450305228e-16 -0.002073507644 -7.615961811e-15 -0.004547465208 2.229597652e-16 0.01908649045)
(0.01755964094 -1.061083724e-16 -0.005511735489 -1.305500882e-16 -0.001768770057 0 -0.004107601352 1.969573621e-16 0.01881690926)
(0.01753716845 -9.56618716e-17 -0.004791577745 -1.27271341e-16 -0.001477946617 0 -0.00362530862 1.732480196e-16 0.01856837577)
(0.01736160947 -8.693675107e-17 -0.004058547243 -1.24029667e-16 -0.001202319216 0 -0.003106661068 1.515749354e-16 0.01834610244)
(0.01703413202 -8.515974332e-17 -0.003324375471 -1.245927197e-16 -0.0009430308188 0 -0.002559010156 1.318526952e-16 0.01815460857)
(0.01655831526 -7.65550472e-18 -0.002600011479 -1.233181012e-16 -0.0007010199488 0 -0.001990877586 1.140612012e-16 0.01799735372)
(0.01592835402 6.299441564e-17 -0.001894958199 -1.220806702e-16 -0.0004770580158 0 -0.001412161685 1.010495538e-16 0.01787644221)
(0.01513957645 4.977305365e-17 -0.001219377533 -1.194373412e-16 -0.0002719941176 7.858881118e-15 -0.0008350102401 9.384074404e-17 0.0177922512)
(0.01441813492 2.187530063e-17 -0.0004440353849 -1.187359576e-16 -8.649639612e-05 0 -0.0002717973812 9.028608077e-17 0.01774300907)
(-0.008065529462 -5.720515904e-16 -0.0003891826685 -1.737918689e-15 -0.01311982947 0 -0.0001602103641 -2.546792772e-16 0.02647032114)
(-0.01067678601 -1.528373175e-15 -0.0008715196038 -3.493580364e-17 -0.0115139307 1.430970517e-13 -0.000420027404 -7.231726986e-16 0.02644214989)
(-0.0103771214 4.956167369e-16 -0.001387008554 7.324642292e-16 -0.01098850841 0 -0.0006662309563 -3.028564966e-16 0.02637866733)
(-0.01040960822 1.945400026e-15 -0.001900982557 -1.265602279e-16 -0.01083774958 0 -0.0009210564624 -2.798272572e-17 0.02628631856)
(-0.01019530588 1.284979911e-15 -0.002394093549 -4.554409222e-16 -0.01072821023 0 -0.001178232164 1.729839579e-16 0.02616759113)
(-0.009872508909 2.193627666e-15 -0.002860673663 -5.534269211e-16 -0.01060825822 0 -0.001435710901 1.240500759e-16 0.02602523563)
(-0.009493020848 2.98750143e-15 -0.003299885643 -9.444609046e-16 -0.01047381573 0 -0.001693886813 9.389354453e-17 0.0258619889)
(-0.00906057553 2.719489269e-15 -0.003710769893 -1.155144773e-15 -0.0103245755 0 -0.001953083705 7.017217461e-17 0.02568050262)
(-0.008574512007 1.846585706e-15 -0.004092647978 -1.347373353e-15 -0.01016025194 0 -0.002213183146 4.991031236e-17 0.02548333856)
(-0.008037896105 4.830412502e-16 -0.00444535776 -1.322109563e-15 -0.009980884042 0 -0.002473625273 3.059413365e-17 0.0252729332)
(-0.007454820827 1.166481984e-16 -0.004769367673 -1.204213748e-15 -0.009787034974 0 -0.002733687037 1.179471254e-17 0.02505155046)
(-0.006828155048 4.584704861e-16 -0.005065723215 -1.130392805e-15 -0.009579401353 -1.23140663e-14 -0.002992577838 4.45353919e-17 0.02482131035)
(-0.006160335312 7.930684604e-18 -0.005335647753 -1.06915403e-15 -0.009358706512 0 -0.003249115415 -4.059292427e-18 0.02458414214)
(-0.005453826528 -4.305345136e-16 -0.005580610401 -9.744121015e-16 -0.009125668086 0 -0.003501881109 -1.536257991e-17 0.02434178557)
(-0.004711991741 -2.809013626e-16 -0.005802374374 -8.911772317e-16 -0.008881013045 0 -0.003749375578 1.501237327e-17 0.02409575346)
(-0.003938702253 -7.089365701e-16 -0.006002642962 -8.171533318e-16 -0.008625552814 0 -0.003989812323 3.275571744e-17 0.02384734203)
(-0.003137423127 -1.574685864e-15 -0.006183069868 -7.505986331e-16 -0.008360128937 0 -0.004221284461 4.846732204e-17 0.02359761379)
(-0.002312103321 -1.886319946e-15 -0.006345161802 -5.969014127e-16 -0.008085579363 0 -0.004441801726 5.752971376e-17 0.0233473936)
(-0.001467378316 -1.463410124e-15 -0.0064900428 -4.897044747e-16 -0.007802795503 0 -0.004649239992 9.23595965e-17 0.02309725304)
(-0.0006073924721 -1.092567552e-15 -0.006618598888 -4.067938374e-16 -0.00751270492 0 -0.004841642472 1.28169347e-16 0.02284753082)
(0.0002635015346 -1.007482196e-15 -0.006731230241 -3.63139409e-16 -0.007216214882 0 -0.005017079251 1.852028993e-16 0.02259833058)
(0.001140064258 -1.128557801e-15 -0.006827549693 -3.219864292e-16 -0.006914266384 -8.676686935e-15 -0.005173468583 2.623311623e-16 0.02234953688)
(0.002017492437 -1.030005388e-15 -0.006906534151 -2.662943932e-16 -0.006607834564 0 -0.005308782284 2.934929263e-16 0.0221008541)
(0.002890645037 -7.625113494e-16 -0.006966710211 -2.129069361e-16 -0.006297873357 8.385257789e-15 -0.005421233774 3.125778613e-16 0.0218518534)
(0.003753038384 -5.658944415e-16 -0.007006164886 -2.098789961e-16 -0.005985376167 -8.266003537e-15 -0.005509243256 3.683674633e-16 0.02160201377)
(0.004599092705 -3.701309191e-16 -0.007022557879 -1.75351391e-16 -0.005671387788 -8.1618102e-15 -0.005571304608 3.721580369e-16 0.02135081199)
(0.005424365233 -1.43322104e-16 -0.007013438334 -1.5763892e-16 -0.005356911694 0 -0.005606131889 3.477598004e-16 0.02109779722)
(0.006222972984 5.347816252e-17 -0.006976336593 -1.561050126e-16 -0.005042921968 0 -0.005612642066 3.454989505e-16 0.0208426478)
(0.006988204327 5.337406387e-17 -0.006908922129 -1.547862968e-16 -0.004730433294 0 -0.005589957053 3.46443272e-16 0.02058525297)
(0.007714176241 6.097020548e-17 -0.006809382023 -1.536635255e-16 -0.004420465821 0 -0.005537533275 3.35941885e-16 0.0203257949)
(0.008395283391 -1.033544782e-16 -0.006676463892 -1.450840351e-16 -0.004114020045 0 -0.005455099591 3.282211666e-16 0.02006478787)
(0.009025207532 -2.639461602e-16 -0.00650941517 -1.443442812e-16 -0.003812081032 0 -0.005342623773 3.34635074e-16 0.01980310237)
(0.009597254542 -4.254325507e-16 -0.006308216447 -1.134861148e-16 -0.00351564369 7.747318773e-15 -0.005200466267 3.303742281e-16 0.01954195323)
(0.01010629195 -5.693072696e-16 -0.006073579675 -1.282049746e-16 -0.003225697169 -7.722464355e-15 -0.005029284245 3.523091014e-16 0.01928287916)
(0.01054746224 -5.373761223e-16 -0.005806863423 -9.028518405e-17 -0.002943165691 0 -0.004830057225 3.542749303e-16 0.01902766772)
(0.01091548448 -3.694403726e-16 -0.005510064458 -9.014641471e-17 -0.002668957214 -7.692494055e-15 -0.004604156128 3.58743381e-16 0.01877827241)
(0.01120643283 -2.043880766e-16 -0.005185748292 -7.506398052e-17 -0.002403938562 -7.686551605e-15 -0.004353268469 3.420303762e-16 0.01853673367)
(0.01141711914 -3.569024871e-17 -0.004837097663 -7.881321711e-17 -0.002148910561 -7.686165173e-15 -0.0040794953 3.072577578e-16 0.01830507664)
(0.01154509558 1.113926628e-16 -0.004467763069 -7.135232921e-17 -0.001904615009 0 -0.0037852623 2.562243115e-16 0.01808522714)
(0.01158905615 -5.756326834e-17 -0.004081815689 -6.76834755e-17 -0.001671715041 0 -0.003473323385 2.088055672e-16 0.01787893995)
(0.01154888785 -1.161282086e-16 -0.003683690335 -6.027703372e-17 -0.001450790599 7.715460316e-15 -0.003146762396 1.715022943e-16 0.01768774198)
(0.01142583143 2.26377439e-16 -0.003278055895 -6.42029726e-17 -0.001242322954 0 -0.002808951652 1.559198997e-16 0.01751288625)
(0.01122197985 4.545747567e-16 -0.002869689335 -7.386779683e-17 -0.001046689201 0 -0.002463515594 1.424919194e-16 0.01735531786)
(0.01094031333 4.268303004e-16 -0.002463301014 -7.603142114e-17 -0.0008641668907 0 -0.002114205755 1.388697037e-16 0.01721565176)
(0.01058547785 3.985586098e-16 -0.002063411946 -8.397417159e-17 -0.0006949291456 0 -0.001764820718 1.268488611e-16 0.01709416708)
(0.01016380516 3.635354667e-16 -0.001674140949 -8.627255375e-17 -0.0005390282584 0 -0.001419075336 1.235586369e-16 0.01699077868)
(0.009679918063 3.048382277e-16 -0.001299062466 -9.055714873e-17 -0.0003963945454 0 -0.001080520699 1.200411609e-16 0.01690495809)
(0.009129163948 1.815053432e-16 -0.0009414201483 -9.25021264e-17 -0.0002669138228 0 -0.000752625447 1.20621851e-16 0.01683590568)
(0.008499360281 7.23761779e-17 -0.0006050478528 -9.279982763e-17 -0.0001506103879 0 -0.0004390119758 1.203105421e-16 0.01678393677)
(0.007973183791 2.394748535e-17 -0.0002207862792 -9.203192525e-17 -4.7643663e-05 0 -0.0001421879907 1.193866819e-16 0.01675207545)
(-0.00632199023 3.496611661e-15 -0.0002493339813 -7.656917466e-15 -0.01031354025 0 -0.0001989353142 -6.506724682e-17 0.02413567916)
(-0.008340850894 8.604217479e-16 -0.0005425017707 -5.659040923e-15 -0.009034939341 0 -0.000521318707 -1.771200405e-16 0.0241130944)
(-0.008069365522 -1.210628394e-15 -0.0008575693827 -2.691063984e-15 -0.008600970344 0 -0.0008243461366 -3.325106236e-16 0.02406450602)
(-0.008056995961 -4.63666364e-16 -0.001179286995 -1.719105176e-15 -0.008464288843 0 -0.001132629885 -1.717648983e-16 0.0239934061)
(-0.007840934148 -6.639889278e-17 -0.001489184474 -1.310512387e-15 -0.008358796463 0 -0.001436247846 -7.084682607e-17 0.02390171594)
(-0.007530384224 1.767159411e-16 -0.001784365831 -1.102474412e-15 -0.00824307423 0 -0.001731173992 -7.424108884e-19 0.02379156704)
(-0.007166622161 3.170233233e-16 -0.002064774093 -9.779768217e-16 -0.008113580699 0 -0.002016626584 2.123523415e-16 0.02366498707)
(-0.00675443145 3.909902969e-16 -0.002329945156 -8.882304475e-16 -0.007970097666 0 -0.002292040119 4.04936848e-16 0.02352393754)
(-0.006296902007 4.401725963e-16 -0.002579500856 -8.514220253e-16 -0.007812692697 0 -0.002556648366 6.073791055e-16 0.02337029182)
(-0.005798629246 5.019825771e-16 -0.002813166025 -8.391872425e-16 -0.007642037821 0 -0.002809431273 7.585256181e-16 0.02320582274)
(-0.005262837249 1.184140111e-16 -0.003030995181 -7.67607392e-16 -0.007458957954 0 -0.003049518604 7.744928577e-16 0.02303219988)
(-0.004693826267 1.081972008e-16 -0.003233265371 -6.961259055e-16 -0.007264264639 0 -0.003276101384 8.340843735e-16 0.02285091951)
(-0.004096469505 1.44840128e-16 -0.003420179651 -7.046178936e-16 -0.00705898058 -1.182833972e-14 -0.003488207084 9.123827632e-16 0.02266330874)
(-0.003474414501 -4.621080253e-16 -0.003591885505 -6.487294e-16 -0.00684412704 0 -0.003684789718 9.404920074e-16 0.02247053651)
(-0.00283244028 -6.376213832e-16 -0.003748554501 -5.682910287e-16 -0.006620678037 -1.077648173e-14 -0.003864886186 9.791952464e-16 0.02227357749)
(-0.002175647846 -4.969709163e-16 -0.003890274897 -5.26264962e-16 -0.006389728161 -1.036337156e-14 -0.00402759494 9.904919557e-16 0.02207322038)
(-0.001507845277 -3.765439372e-16 -0.004016854138 -4.300087097e-16 -0.006152337722 -1.000747543e-14 -0.00417196398 9.256480866e-16 0.02187010263)
(-0.0008335730086 -5.262417334e-16 -0.00412795005 -4.167606613e-16 -0.005909509439 0 -0.00429713311 7.629499744e-16 0.02166469773)
(-0.0001571755938 -7.202376657e-16 -0.004223092029 -3.315539624e-16 -0.005662288929 9.430868264e-15 -0.004402381892 6.162041079e-16 0.02145735061)
(0.0005175361955 -8.824950925e-16 -0.004301592079 -2.873941482e-16 -0.005411648063 0 -0.004487059746 5.323061213e-16 0.02124830936)
(0.001185222791 -1.251954082e-15 -0.004362486551 -2.458632016e-16 -0.005158545928 0 -0.004550528052 4.546389188e-16 0.02103773098)