/*--------------------------------*- C++ -*----------------------------------*\
  =========                 |
  \\      /  F ield         | OpenFOAM: The Open Source CFD Toolbox
   \\    /   O peration     | Website:  https://openfoam.org
    \\  /    A nd           | Version:  7
     \\/     M anipulation  |
\*---------------------------------------------------------------------------*/
FoamFile
{
    version     2.0;
    format      ascii;
    class       volScalarField;
    location    "0.0006";
    object      p;
}
// * * * * * * * * * * * * * * * * * * * * * * * * * * * * * * * * * * * * * //

dimensions      [1 -1 -2 0 0 0 0];

internalField   nonuniform List<scalar> 
14000
(
1115488.521
1145054.712
1143439.322
1145498.634
1151045.856
1158028.737
1166115.423
1175359.581
1185764.777
1197317.189
1210017.94
1223881.329
1238929.279
1255189.255
1272693.804
1291476.368
1311557.448
1332961.852
1355758.505
1380002.75
1405744.161
1433014.121
1461871.485
1492426.943
1524742.627
1558902.657
1595045.077
1633252.864
1673699.489
1716501.421
1761798.052
1809799.796
1860672.398
1914537.627
1971482.703
2031608.414
2094874.408
2161164.888
2230172.608
2301531.773
2374635.765
2448746.726
2523002.85
2596479.219
2668290.006
2737494.064
2802923.748
2864155.037
2925130.972
2988767.289
1261652.344
1297475.474
1295569.883
1298205.267
1305097.034
1313684.067
1323497.217
1334553.547
1346798.344
1360195.439
1374716.14
1390350.443
1407104.758
1424983.09
1443991.396
1464216.298
1485713.011
1508492.285
1532664.202
1558288.52
1585429.763
1614166.904
1644561.987
1676633.16
1710441.389
1745975.878
1783171.404
1821918.578
1862074.831
1903433.571
1945684.22
1988445.414
2031311.94
2073858.543
2115629.568
2156183.93
2195152.642
2232218.603
2267131.764
2299685.347
2329752.975
2357228.853
2381981.92
2403863.764
2422644.849
2438048.72
2449741.973
2456955.031
2458053.128
2452998.608
1289351.559
1326601.071
1324131.258
1325485.549
1330766.086
1337525.248
1345351.73
1354351.246
1364579.478
1376038.926
1388715.533
1402600.642
1417750.006
1434159.996
1451840.479
1470818.754
1491092.563
1512686.005
1535562.158
1559626.216
1584852.546
1611176.06
1638471.722
1666541.385
1695217.382
1724301.302
1753535.048
1782725.921
1811593.739
1839910.692
1867486.489
1894129.066
1919653.493
1943966.796
1966926.299
1988455.959
2008442.933
2026772.742
2043385.099
2058128.715
2070886.25
2081483.483
2089782.453
2095630.158
2098850.195
2099312.833
2096937.933
2091490.542
2082278.563
2070138.609
1485612.145
1518966.868
1516600.329
1518116.487
1523370.865
1530098.995
1537923.955
1546902.966
1557094.579
1568483.142
1580999.629
1594662.565
1609424.584
1625300.929
1642229.537
1660162.822
1679030.546
1698773.907
1719259.556
1740397.534
1762064.089
1784102.323
1806356.205
1828694.725
1850898.089
1872808.369
1894305.927
1915242.568
1935431.056
1954767.757
1973117.145
1990383.179
2006403.533
2021105.185
2034418.694
2046204.267
2056420.772
2064970.673
2071797.908
2076836.698
2080041.002
2081380.288
2080831.841
2078372.934
2074019.293
2067832.404
2059881.745
2050032.575
2037786.016
2024081.43
1543060.604
1573130.67
1571614.256
1573234.111
1578080.891
1584254.213
1591402.166
1599585.853
1608796.875
1618945.277
1630049.017
1642052.043
1654859.653
1668450.297
1682738.083
1697592.514
1712969.919
1728747.376
1744801.173
1761067.396
1777374.846
1793578.793
1809567.297
1825244.835
1840490.678
1855157.406
1869163.959
1882392.866
1894743.33
1906151.96
1916539.053
1925801.364
1933933.503
1940818.396
1946466.143
1950815.647
1953832.589
1955508.143
1955827.469
1954788.396
1952384.651
1948637.235
1943590.529
1937279.192
1929727.283
1920977.998
1911226.168
1900611.432
1888937.176
1876684.357
1679740.068
1703806.503
1702749.434
1704599.463
1709198.348
1714976.082
1721641.307
1729178.125
1737580.659
1746692.164
1756547.852
1767015.863
1777999.855
1789408.867
1801219.083
1813272.073
1825469.573
1837748.751
1849999.075
1862102.164
1873937.567
1885428.448
1896494.797
1907032.791
1916972.002
1926254.251
1934747.429
1942432.327
1949245.453
1955130.209
1960054.612
1963957.38
1966866.074
1968689.727
1969447.227
1969156.41
1967765.587
1965291.353
1961787.997
1957252.826
1951679.222
1945152.41
1937797.425
1929705.687
1920302.024
1907527.547
1894666.032
1913841.175
2005768.96
2106047.632
1708610.678
1728385.779
1727960.455
1729675.524
1733535.173
1738324.773
1743846.69
1749992.144
1756746.015
1764054.196
1771772.068
1779877.794
1788275.08
1796847.716
1805525.795
1814253.513
1822918.32
1831437.667
1839738.311
1847735.132
1855331.997
1862511.475
1869203.483
1875292.914
1880762.373
1885569.594
1889663.671
1892986.846
1895544.483
1897272.001
1898180.636
1898256.308
1897455.982
1895833.053
1893355.414
1890022.627
1885890.56
1880964.477
1875261.727
1868865.246
1861909.157
1854457.242
1845413.616
1832914.289
1826001.179
1867188.134
1955840.238
2042068.632
2114834.087
2178623.886
1780571.36
1795339.509
1794980.165
1796431.323
1799587.403
1803515.262
1807950.329
1812900.183
1818230.01
1823961.177
1829942.261
1836086.648
1842367.182
1848687.487
1854965.813
1861124.332
1867092.698
1872816.193
1878236.425
1883291.854
1887916.558
1892074.6
1895702.004
1898753.001
1901223.262
1903020.625
1904196.451
1904654.157
1904447.886
1903509.131
1901865.918
1899518.597
1896427.515
1892675.342
1888230.295
1883116.787
1877406.782
1871116.372
1864451.182
1857406.22
1848705.55
1836371.522
1831847.84
1883657.124
1973808.502
2061858.741
2135778.527
2173616.328
2144003.006
2100047.714
1785870.554
1797886.208
1797716.103
1798779.11
1801108.279
1804026.08
1807244.922
1810841.629
1814682.634
1818704.755
1822878.555
1827113.151
1831342.825
1835510.927
1839561.135
1843438.642
1847083.76
1850418.597
1853402.696
1856015.36
1858226.833
1859950.826
1861180.3
1861887.978
1862045.203
1861640.643
1860648.133
1859067.582
1856886.52
1854105.291
1850738.346
1846765.63
1842251.794
1837169.981
1831569.429
1825529.164
1819190.761
1812608.433
1804277.376
1792143.779
1788996.308
1847004.735
1939904.994
2030081.647
2101649.988
2121562.107
2092891.529
2056346.556
2020840.815
1986837.098
1815249.385
1824661.338
1824282.628
1824974.851
1826707.144
1828820.126
1831187.825
1833733.093
1836464.31
1839295.083
1842165.1
1845030.174
1847835.673
1850518.033
1853028.845
1855336.745
1857409.209
1859195.974
1860637.398
1861690.105
1862391.946
1862668.295
1862493.98
1861897.972
1860797.302
1859266.834
1857221.55
1854737.353
1851745.553
1848326.594
1844429.136
1840114.566
1835385.762
1830318.947
1825095.659
1819713.361
1812565.462
1801555.244
1800269.167
1863374.695
1959140.037
2051645.81
2123341.015
2135582.975
2108557.784
2076803.145
2047663.139
2020980.215
1997125.04
1977970.671
1804077.917
1812430.681
1811965.927
1812281.222
1813339.6
1814636.584
1816089.232
1817632.099
1819211.453
1820836.554
1822441.931
1823980.142
1825413.939
1826707.864
1827828.884
1828742.764
1829412.661
1829815.704
1829945.033
1829769.048
1829257.795
1828427.709
1827253.209
1825727.708
1823859.419
1821637.802
1819078.917
1816193.591
1812983.202
1809483.681
1805679.825
1801671.901
1797628.396
1793530.063
1787739.855
1778033.352
1778566.799
1845148.637
1942334.492
2036044.699
2108340.202
2118296.614
2093787.052
2065930.885
2040646.654
2017644.287
1997720.051
1984378.228
1981502.168
1987056.743
1806591.88
1814022.674
1813334.722
1813301.665
1813872.192
1814636.907
1815412.56
1816250.242
1817093.691
1817895.391
1818621.992
1819268.44
1819810.021
1820217.483
1820460.727
1820501.42
1820331.301
1819942.734
1819332.931
1818476.125
1817358.603
1816002.26
1814371.436
1812480.472
1810366.478
1807981.472
1805400.126
1802549.783
1799530.634
1796312.572
1793184.151
1790019.79
1785225.663
1776512.321
1778173.071
1846282.152
1943896.737
2038166.779
2110802.893
2119224.171
2095985.865
2070110.455
2046640.646
2025276.312
2006845.816
1994618.639
1992105.27
1998386.036
2009021.441
2020464.658
1786659.381
1794102.032
1793234.265
1792882.426
1793086.092
1793360.935
1793632.468
1793837.835
1794036.189
1794182.942
1794243.255
1794198.425
1794030.94
1793724.202
1793263.683
1792638.426
1791849.714
1790905.4
1789749.891
1788379.808
1786842.129
1785101.784
1783140.833
1781027.799
1778691.593
1776192.714
1773511.551
1770700.426
1767968.402
1765235.728
1760887.425
1752675.801
1754540.566
1821892.145
1919277.77
2013930.696
2086785.221
2093534.36
2070442.364
2045182.086
2022035.619
2000707.6
1982075.587
1969528.407
1966847.796
1973092.11
1983155.179
1993499.519
2003283.424
2012186.201
1774916.267
1782322.016
1781229.367
1780694.436
1780668.431
1780655.877
1780619.806
1780524.225
1780340.706
1780091.264
1779772.74
1779349.705
1778804.821
1778128.338
1777316.698
1776378.315
1775293.694
1774039.057
1772583.477
1770990.228
1769241.15
1767293.987
1765196.441
1762935.574
1760482.739
1757927.813
1755433.125
1752950.386
1748889.506
1741048.925
1742605.839
1807399.763
1904239.163
1999435.871
2072902.34
2078973.995
2055876.623
2030791.652
2007660.157
1986017.513
1966770.342
1953284.701
1949730.466
1955618.863
1965756.103
1976200.862
1985689.831
1993799.327
2000491.429
2006020.602
1750586.673
1758438.111
1757238.991
1756543.894
1756305.754
1756090.15
1755777.178
1755426.34
1754960.218
1754401.246
1753751.25
1752998.36
1752132.897
1751147.525
1750032.952
1748781.61
1747388.415
1745842.571
1744133.655
1742286.064
1740288.36
1738128.756
1735803.001
1733370.1
1731014.482
1728653.279
1724823.232
1717319.426
1718272.412
1779132.128
1874904.165
1970513.93
2044985.888
2052178.524
2029478.297
2004530.584
1981512.105
1959827.44
1940106.747
1925566.493
1920917.365
1926387.322
1936800.855
1947734.169
1957749.581
1966410.029
1973424.292
1978828.516
1983168.233
1986962.493
1730294.869
1738491.333
1737141.707
1736308.809
1735949.882
1735611.435
1735154.212
1734618.789
1733982.151
1733242.873
1732401.856
1731450.643
1730381.612
1729189.174
1727868.226
1726412.079
1724815.456
1723081.145
1721212.544
1719176.775
1716988.692
1714727.261
1712507.422
1710289.95
1706742.738
1699637.791
1699970.809
1756415.909
1850756.764
1946478.156
2022084.406
2032221.928
2010458.419
1985730.56
1962774.532
1941245.282
1921416.488
1905877.165
1899698.994
1904417.683
1915096.486
1926674.432
1937361.903
1946718.388
1954472.126
1960567.369
1965287.015
1969146.671
1972730.305
1976243.633
1702331.597
1711004.851
1709539.46
1708586.222
1708129.499
1707654.999
1707056.668
1706346.582
1705531.037
1704609.992
1703577.415
1702428.584
1701158.161
1699759.677
1698229.279
1696563.901
1694759.921
1692824.379
1690782.253
1688628.241
1686506.393
1684427.113
1681114.829
1674376.865
1674214.111
1726652.987
1819222.406
1914520.504
1991089.002
2005220.587
1984746.418
1960304.771
1937397.14
1915961.562
1896055.677
1879702.014
1871752.442
1875167.171
1885895.015
1898176.049
1909637.348
1919774.027
1928326.24
1935196.307
1940603.308
1944981.458
1948772.366
1952295.879
1955771.042
1959176.925
1675965.623
1684959.119
1683363.452
1682312.407
1681794.055
1681222.108
1680528.253
1679692.717
1678759.536
1677721.866
1676564.663
1675283.598
1673876.614
1672341.24
1670672.933
1668865.541
1666923.914
1664909.23
1662982.642
1661089.7
1657978.451
1651566.863
1651267.119
1701220.934
1791951.992
1886258.661
1963360.698
1981545.796
1962666.179
1938686.245
1915985.47
1894554.718
1874577.041
1857484.447
1847728.11
1849340.221
1859618.806
1872494.848
1884773.474
1895760.464
1905187.713
1912900.987
1919043.54
1924027.336
1928308.125
1932198.727
1935815.062
1939212.482
1942523.258
1945743.442
1644710.703
1654073.338
1652387.859
1651238.468
1650640.721
1649978.246
1649175.945
1648200.767
1647152.9
1645989.277
1644675.677
1643226.767
1641658.394
1639971.875
1638178.681
1636335.991
1634560.038
1632766.263
1629733.391
1623531.086
1623585.253
1673618.332
1762555.317
1855138.727
1932010.739
1953358.269
1935734.885
1912497.382
1890204.495
1868756.205
1848654.612
1830896.37
1819281.992
1818703.276
1828126.944
1841384.991
1854402.591
1866208.96
1876533.87
1885164.723
1892136.261
1897791.091
1902599.453
1906929.53
1910950.059
1914690.911
1918142.956
1921343.62
1924441.556
1927443.693
1614445.734
1623987.646
1622255.073
1621037.782
1620343.264
1619629.997
1618707.995
1617671.026
1616523.586
1615205.528
1613760.232
1612204.995
1610557.127
1608872.36
1607248.675
1605565.686
1602536.729
1596322.372
1597440.105
1651367.42
1738784.287
1828773.915
1904296.905
1926929.035
1910167.182
1887494.516
1865745.129
1844636.716
1824347.297
1805975.358
1792545.382
1789390.205
1797385.189
1810777.873
1824494.738
1837073.225
1848244.609
1857784.206
1865621.2
1872005.012
1877387.495
1882181.456
1886613.629
1890743.354
1894572.692
1898099.452
1901332.34
1904318.344
1907216.832
1910052.269
1581263.214
1590886.845
1589096.338
1587842.703
1587067.924
1586233.367
1585214.738
1584067.038
1582756.103
1581331.564
1579834.982
1578272.827
1576710.375
1575016.047
1571744.125
1565164.361
1568372.716
1631412.552
1717679.198
1803924.209
1876523.21
1897398.298
1880963.636
1858917.208
1837589.719
1816717.741
1796466.219
1777566.618
1762586.361
1756817.114
1762872.903
1776017.846
1790336.523
1803657.028
1815647.267
1826083.121
1834814.84
1841979.372
1847969.884
1853223.483
1858042.529
1862540.426
1866722.993
1870588.257
1874148.879
1877417.002
1880408.747
1883189.835
1885930.227
1888645.485
1549323.478
1558880.982
1557009.44
1555659.76
1554828.562
1553905.886
1552824.205
1551595.247
1550243.365
1548767.565
1547181.236
1545135.543
1541186.976
1536107.881
1550617.341
1621648.348
1704835.943
1786036.863
1853900.82
1868785.448
1851905.549
1830667.878
1809887.364
1789289.224
1769161.372
1750084.864
1733802.463
1725319.833
1728895.084
1741377.135
1756191.666
1770190.037
1782887.167
1794126.262
1803719.202
1811684.318
1818332.367
1824089.547
1829300.748
1834137.418
1838638.491
1842807.563
1846654.053
1850195.267
1853450.181
1856446.622
1859216.686
1861828.91
1864440.005
1867049.962
1514679.5
1524316.327
1522534.614
1521246.183
1520437.406
1519472.179
1518216.221
1516701.156
1514911.922
1512033.621
1506656.6
1507491.799
1550799.686
1622279.356
1698112.215
1772968.248
1834124.948
1837596.725
1819348.154
1799264.078
1779322.193
1759182.081
1739330.353
1720313.655
1703314.244
1692644.603
1693536.187
1704719.178
1719671.973
1734243.189
1747597.214
1759591.949
1770014.937
1778777.646
1786087.087
1792351.223
1797960.71
1803143.866
1807966.695
1812437.926
1816565.292
1820365.788
1823857.094
1827066.055
1830031.376
1832792.057
1835376.942
1837834.376
1840300.794
1842771.859
1488811.471
1496995.557
1494271.108
1491786.749
1489448.391
1486952.379
1483656.762
1478545.846
1478083.913
1510476.062
1570517.315
1636207.272
1702708.2
1768037.908
1812989.324
1805485.363
1786748.483
1768025.616
1749046.347
1729558.862
1710190.595
1691452.784
1674127.991
1661774.676
1660074.043
1669612.451
1684395.777
1699387.75
1713269.823
1725906.423
1737097.852
1746660.902
1754669.8
1761464.716
1767453.569
1772935.468
1778030.391
1782762.239
1787139.604
1791172.721
1794879.602
1798281.448
1801412.722
1804316.297
1807032.911
1809587.918
1811991.938
1814282.731
1816590.103
1818911.318
1424973.241
1435809.012
1434089.692
1431943.039
1433167.068
1454317.004
1496666.886
1545868.263
1598238.954
1653347.444
1711452.135
1763532.474
1777012.589
1765087.605
1749042.966
1732408.226
1714852.717
1696617.517
1678346.553
1660464.815
1643472.487
1630253.866
1626636.871
1634626.586
1649084.964
1664415.516
1678750.525
1691912.543
1703739.991
1714022.679
1722732.715
1730108.15
1736526.054
1742326.314
1747693.46
1752678.768
1757291.822
1761544.052
1765454.194
1769040.205
1772330.304
1775364.766
1778187.835
1780835.846
1783330.817
1785684.272
1787903.453
1790023.44
1792165.796
1794325.228
1498124.927
1514536.465
1529408.95
1551531.652
1580331.002
1614223.444
1653084.5
1696774.262
1738697.785
1753162.896
1744193.7
1730968.938
1717125.459
1701813.751
1685152.425
1667798.038
1650341.104
1633071.729
1616277.44
1602521.438
1597340.08
1603626.544
1617274.249
1632523.161
1647002.657
1660424.476
1672651.024
1683457.66
1692722.061
1700568.918
1707327.148
1713369.238
1718944.197
1724131.509
1728941.544
1733381.664
1737468.984
1741222.378
1744662.958
1747824.963
1750751.151
1753482.334
1756047.72
1758465.403
1760749.283
1762909.927
1764953.298
1766911.064
1768893.56
1770899.827
1671323.652
1674643.501
1688627.853
1709250.854
1732239.611
1741696.508
1735563.773
1725899.585
1715538.297
1704018.347
1690793.641
1676158.206
1660197.088
1643380.19
1626466.723
1609659.903
1593114.031
1579050.772
1572694.866
1577271.001
1589591.325
1604166.834
1618240.895
1631446.517
1643680.058
1654697.229
1664299.37
1672497.841
1679536.028
1685754.753
1691438.811
1696725.643
1701647.48
1706209.415
1710421.417
1714299.556
1717858.712
1721124.842
1724136.283
1726936.012
1729559.15
1732027.141
1734354.524
1736554.915
1738640.979
1740621.504
1742499.999
1744306.046
1746145.477
1748012.681
1725845.158
1711742.214
1710902.257
1707964.472
1702764.869
1696203.312
1688111.959
1678301.584
1666734.338
1653326.934
1638690.18
1623092.154
1606612.477
1590366.184
1574525.242
1560828.6
1554065.394
1557267.139
1567912.724
1581065.576
1594106.471
1606559.431
1618307.946
1629100.559
1638684.923
1646967.588
1654083.248
1660321.163
1665981.606
1671252.527
1676187.534
1680787.742
1685054.663
1688998.935
1692633.2
1695972.99
1699047.628
1701896.277
1704557.348
1707058.476
1709415.955
1711642.205
1713750.045
1715749.783
1717651.658
1719462.137
1721186.527
1722850.884
1724554.204
1726288.635
1707106.926
1688242.29
1686699.32
1682093.362
1674371.895
1664437.095
1652831.865
1639571.348
1625162.544
1609781.232
1594229.277
1577877.333
1562118.23
1549254.841
1542738.579
1544798.476
1553263.048
1564244.171
1575494.878
1586543.039
1597241.076
1607308.063
1616436.601
1624435.735
1631343.091
1637378.543
1642826.893
1647907.213
1652698.13
1657202.603
1661412.655
1665329.245
1668959.171
1672308.663
1675395.83
1678252.157
1680915.507
1683417.503
1685777.194
1688006.589
1690116.537
1692118.115
1694021.287
1695834.522
1697566.672
1699224.161
1700807.727
1702338.743
1703910.415
1705517.232
1662755.521
1641680.442
1639215.011
1633518.925
1625117.107
1614532.265
1602547.305
1589908.753
1575982.347
1561958.57
1548218.147
1537451.42
1532953.252
1535046.383
1541691.07
1550476.584
1559827.202
1569326.142
1578800.065
1587942.055
1596394.22
1603934.995
1610527.573
1616306.617
1621500.709
1626326.497
1630901.842
1635246.233
1639344.611
1643186.513
1646770.66
1650098.783
1653176.045
1656022.598
1658670.551
1661153.64
1663496.18
1665710.108
1667804.861
1669791.525
1671679.004
1673475.996
1675189.054
1676828.377
1678401.341
1679911.039
1681357.884
1682765.018
1684215.591
1685702.957
1615437.981
1594812.143
1592518.961
1586880.627
1578651.596
1568982.158
1557906.846
1546705.882
1536468.136
1529484.201
1527009.583
1529269.644
1534236.478
1540656.06
1547975.094
1555753.516
1563778.603
1571734.231
1579263.845
1586140.107
1592255.014
1597644.008
1602471.332
1606945.761
1611214.948
1615311.223
1619219.865
1622916.82
1626391.889
1629641.456
1632661.984
1635461.994
1638064.345
1640500.376
1642797.563
1644972.322
1647033.547
1648988.719
1650846.826
1652615.482
1654301.299
1655909.034
1657446.951
1658922.16
1660339.833
1661703.587
1663017.793
1664305.774
1665642.126
1667015.075
1565794.694
1546771.78
1545012.741
1540608.282
1534182.921
1527870.644
1522882.423
1520050.268
1520037.362
1522033.209
1525822.343
1530653.695
1536402.956
1542817.633
1549631.962
1556560.086
1563263.131
1569529.062
1575207.219
1580250.203
1584759.006
1588944.241
1592951.685
1596824.697
1600550.357
1604103.753
1607468.4
1610635.082
1613597.253
1616351.062
1618907.173
1621289.673
1623530.673
1625652.91
1627666.62
1629577.839
1631393.689
1633122.435
1634770.529
1636342.007
1637843.886
1639282.717
1640663.329
1641987.928
1643263.585
1644496.722
1645690.441
1646863.903
1648088.686
1649352.002
1520487.381
1506628.103
1507407.178
1507521.47
1507227.67
1507499.955
1508891.598
1511348.768
1514671.557
1518995.302
1524031.386
1529727.681
1535799.935
1542046.13
1548155.229
1553964.76
1559316.226
1564101.727
1568421.714
1572426.811
1576239.367
1579928.183
1583496.17
1586911.75
1590164.987
1593249.896
1596150.819
1598857.377
1601372.543
1603713.349
1605906.501
1607977.294
1609941.732
1611807.36
1613578.698
1615261.238
1616862.185
1618388.278
1619843.757
1621235.501
1622568.817
1623849.71
1625082.038
1626271.452
1627422.435
1628538.77
1629623.848
1630695.119
1631814.626
1632971.378
1496828.737
1489135.85
1491171.029
1493207.019
1495391.766
1498306.777
1501904.655
1506136.196
1511023.819
1516365.07
1522011.809
1527804.404
1533521.464
1538999.043
1544121.212
1548752.647
1552979.236
1556898.753
1560602.446
1564160.157
1567625.696
1570971.909
1574167.782
1577199.625
1580059.425
1582738.619
1585226.382
1587533.454
1589684.212
1591706.877
1593623.903
1595446.715
1597178.196
1598822.735
1600387.409
1601877.684
1603297.782
1604650.782
1605943.244
1607181.081
1608367.965
1609508.552
1610610.17
1611681.377
1612725.701
1613741.871
1614732.269
1615712.644
1616738.071
1617795.343
1488510.797
1484509.923
1486743.076
1489416.499
1492523.154
1496209.736
1500432.341
1505114.39
1510127.285
1515268.76
1520458.885
1525478.101
1530267.406
1534689.939
1538788.978
1542615.617
1546216.511
1549704.684
1553104.099
1556388.276
1559531.225
1562508.637
1565326.331
1567987.822
1570474.848
1572784.257
1574929.497
1576934.823
1578823.983
1580610.846
1582305.884
1583915.038
1585444.316
1586899.086
1588285.049
1589607.382
1590870.618
1592079.214
1593236.067
1594341.31
1595403.743
1596430.64
1597427.891
1598400.357
1599353.505
1600286.556
1601196.724
1602098.425
1603042.243
1604015.209
1488136.609
1485914.376
1487965.66
1490529.504
1493544.2
1497040.946
1500952.637
1505176.479
1509517.007
1513875.475
1518127.343
1522186.284
1526029.409
1529684.269
1533147.67
1536539.624
1539851.712
1543048.588
1546113.083
1549062.164
1551871.944
1554525.614
1557011.403
1559315.435
1561451.758
1563441.548
1565313.733
1567086.409
1568768.041
1570363.646
1571876.785
1573312.037
1574675.765
1575974.247
1577211.021
1578391.902
1579521.642
1580605.692
1581646.294
1582646.812
1583611.801
1584549.386
1585464.455
1586360.738
1587240.623
1588105.047
1588948.881
1589785.909
1590661.243
1591561.242
1489987.278
1488516.05
1490289.585
1492522.21
1495122.355
1498097.698
1501387.858
1504852.153
1508351.045
1511854.439
1515243.423
1518575.544
1521802.807
1525000.291
1528148.388
1531194.992
1534169.278
1537048.637
1539798.757
1542392.928
1544842.276
1547150.18
1549302.216
1551302.375
1553166.723
1554917.265
1556575.926
1558151.088
1559647.404
1561071.992
1562428.482
1563719.589
1564947.041
1566113.738
1567228.402
1568295.372
1569317.087
1570297.118
1571243.156
1572162.526
1573054.092
1573923.889
1574776.577
1575614.095
1576437.48
1577245.911
1578037.317
1578821.709
1579638.631
1580475.583
1492046.515
1490793.04
1492251.183
1494063.367
1496133.581
1498505.468
1501118.995
1503833.443
1506633.385
1509471.757
1512329.697
1515197.825
1518080.315
1520900.444
1523704.074
1526438.148
1529051.637
1531565.526
1533978.963
1536258.173
1538377.695
1540350.185
1542195.316
1543939.874
1545593.271
1547162.024
1548646.079
1550055.014
1551395.978
1552673.212
1553891.337
1555055.428
1556168.284
1557231.063
1558246.278
1559218.431
1560152.831
1561055.619
1561932.543
1562788.33
1563625.438
1564445.261
1565250.721
1566042.934
1566822.184
1567587.308
1568335.991
1569075.024
1569842.243
1570627.299
1493337.577
1492086.925
1493241.33
1494640.473
1496256.372
1498146.952
1500217.333
1502426.78
1504789.2
1507201.55
1509716.753
1512228.751
1514762.739
1517265.666
1519698.687
1522089.731
1524393.755
1526572.69
1528634.801
1530590.247
1532423.775
1534135.329
1535751.203
1537289.974
1538761.187
1540167.87
1541505.982
1542776.17
1543986.828
1545143.023
1546247.001
1547303.734
1548318.938
1549295.677
1550228.583
1551125.766
1551994.769
1552840.555
1553666.711
1554476.763
1555272.639
1556054.457
1556823.376
1557580.453
1558325.248
1559053.895
1559764.491
1560464.783
1561190.104
1561929.009
1493642.441
1492324.464
1493271.517
1494418.855
1495769.6
1497326.082
1499051.123
1500974.303
1503001.037
1505123.902
1507298.457
1509505.957
1511691.545
1513883.606
1516008.508
1518059.118
1520047.48
1521929.247
1523692.121
1525356.565
1526948.44
1528466.753
1529907.946
1531283.867
1532598.867
1533857.294
1535067.584
1536224.404
1537325.791
1538379.115
1539390.106
1540361.716
1541296.186
1542196.082
1543064.906
1543906.506
1544727.06
1545530.585
1546319.863
1547095.903
1547859.047
1548610.299
1549350.455
1550079.03
1550793.061
1551487.617
1552164.98
1552831.683
1553519.794
1554218.261
1493313.319
1491961.524
1492819.419
1493842.056
1494996.3
1496308.292
1497823.707
1499496.181
1501247.128
1503106.237
1504984.013
1506909.565
1508811.886
1510692.659
1512537.829
1514295.198
1515976.725
1517592.143
1519119.285
1520573.789
1521973.304
1523328.448
1524626.73
1525864.067
1527050.535
1528190.046
1529285.902
1530341.964
1531352.351
1532322.094
1533256.23
1534155.984
1535023.461
1535864.323
1536683.782
1537483.302
1538267.625
1539039.548
1539799.979
1540548.712
1541284.411
1542010.805
1542726.086
1543426.884
1544109.784
1544775.145
1545422.665
1546058.069
1546712.022
1547375.82
1492738.281
1491363.254
1492144.81
1493042.371
1494024.107
1495175.587
1496509.304
1497947.981
1499486.525
1501092.932
1502733.087
1504388.097
1506039.466
1507645.851
1509218.984
1510725.499
1512165.673
1513560.714
1514911.633
1516208.16
1517458.609
1518667.886
1519839.715
1520962.125
1522041.016
1523080.458
1524081.712
1525048.711
1525983.327
1526883.117
1527750.57
1528589.82
1529405.965
1530202.777
1530982.665
1531749.675
1532505.949
1533252.161
1533987.853
1534711.206
1535424.948
1536128.568
1536818.061
1537490.682
1538144.202
1538782.32
1539401.622
1540007.661
1540628.065
1541259.576
1492007.376
1490593.741
1491303.079
1492085.44
1492937.259
1493965.927
1495129.56
1496371.042
1497715.828
1499097.238
1500522.94
1501938.058
1503354.384
1504723.954
1506059.287
1507367.134
1508628.634
1509858.672
1511066.712
1512230.777
1513355.071
1514445.216
1515505.419
1516530.448
1517517.569
1518470.811
1519393.524
1520288.109
1521156.092
1521993.124
1522805.072
1523597.404
1524373.493
1525135.231
1525884.099
1526624.965
1527357.513
1528080.969
1528793.866
1529494.264
1530186.678
1530865.496
1531528.128
1532172.684
1532799.422
1533410.566
1534002.16
1534577.767
1535167.966
1535769.111
1491161.36
1489711.308
1490353.076
1491042.277
1491804.229
1492699.069
1493699.244
1494784.972
1495944.742
1497128.245
1498344.589
1499549.624
1500752.466
1501932.738
1503093.232
1504246.299
1505369.633
1506468.97
1507548.177
1508598.339
1509617.421
1510608.716
1511573.702
1512512.756
1513420.189
1514300.971
1515157.637
1515989.879
1516796.239
1517581.212
1518349.644
1519104.547
1519847.915
1520580.543
1521304.494
1522022.664
1522733.197
1523434.816
1524125.554
1524804.702
1525472.318
1526125.249
1526761.215
1527376.736
1527978.246
1528562.967
1529125.746
1529671.844
1530234.647
1530805.337
1490231.442
1488746.439
1489325.081
1489946.36
1490614.302
1491381.538
1492230.094
1493167.298
1494154.343
1495163.765
1496197.742
1497230.452
1498266.886
1499306.76
1500336.584
1501362.125
1502369.738
1503357.145
1504327.015
1505281.763
1506211.157
1507117.58
1508001.641
1508864.065
1509703.552
1510522.392
1511320.003
1512095.656
1512851.811
1513595.481
1514328.555
1515052.926
1515769.174
1516475.503
1517178.076
1517874.941
1518564.636
1519245.255
1519911.411
1520567.014
1521209.568
1521836.093
1522442.638
1523033.114
1523609.249
1524166.005
1524699.327
1525220.185
1525754.628
1526293.502
1489221.105
1487710.523
1488242.182
1488798
1489368.867
1490018.636
1490738.393
1491531.31
1492363.366
1493229.981
1494119.118
1495024.052
1495937.7
1496863.005
1497782.759
1498698.368
1499605.105
1500498.806
1501380.307
1502248.855
1503098.573
1503930.404
1504744.965
1505541.845
1506322.231
1507084.305
1507829.082
1508559.085
1509274.486
1509983.839
1510687.753
1511386.188
1512077.365
1512761.026
1513442.571
1514119.026
1514787.622
1515442.743
1516084.853
1516716.157
1517332.747
1517930.209
1518509.737
1519076.328
1519625.17
1520152.515
1520659.837
1521155.876
1521661.377
1522168.587
1488125.65
1486609.781
1487100.19
1487585.119
1488065.65
1488611.709
1489222.491
1489897.388
1490611.485
1491366.343
1492145.161
1492949.214
1493763.694
1494588.862
1495412.584
1496235.316
1497056.672
1497870.112
1498674.39
1499466.698
1500246.544
1501014.36
1501769.492
1502508.514
1503233.745
1503946.15
1504647.691
1505337.678
1506021.144
1506702.959
1507382.083
1508056.475
1508722.759
1509386.89
1510048.75
1510704.417
1511347.7
1511975.955
1512595.471
1513201.642
1513789.909
1514359.472
1514915.434
1515455.219
1515975.317
1516475.625
1516959.321
1517429.099
1517904.755
1518385.096
1486958.101
1485449.634
1485895.183
1486318.928
1486725.967
1487189.404
1487717.943
1488303.696
1488930.65
1489596.421
1490288.02
1491003.072
1491730.805
1492468.554
1493212.437
1493959.19
1494704.614
1495446.868
1496182.797
1496908.569
1497628.457
1498341.146
1499042.342
1499726.995
1500405.117
1501077.511
1501742.537
1502397.588
1503055.683
1503714.002
1504369.815
1505019.642
1505664.642
1506310.588
1506952.335
1507583.251
1508198.352
1508804.227
1509399.077
1509977.627
1510537.071
1511082.326
1511612.878
1512124.905
1512617.456
1513094.164
1513552.686
1513994.207
1514444.232
1514900.084
1485739.776
1484247.417
1484656.709
1485033.258
1485385.042
1485787.466
1486253.67
1486770.145
1487326.568
1487917.696
1488534.915
1489172.315
1489826.764
1490492.905
1491168.749
1491848.873
1492527.108
1493206.703
1493883.2
1494551.865
1495219.84
1495880.759
1496528.357
1497170.25
1497811.22
1498449.09
1499081.099
1499711.426
1500346.772
1500982.915
1501615.532
1502241.365
1502869.47
1503496.05
1504113.461
1504715.003
1505306.873
1505889.822
1506457.889
1507007.035
1507541.572
1508062.796
1508566.469
1509050.497
1509519.164
1509971.753
1510402.838
1510820.157
1511247.163
1511674.835
1484507.524
1483042.468
1483423.299
1483763.909
1484074.579
1484431.685
1484844.277
1485302.472
1485798.92
1486325.085
1486879.328
1487453.932
1488047.376