/*--------------------------------*- C++ -*----------------------------------*\
  =========                 |
  \\      /  F ield         | OpenFOAM: The Open Source CFD Toolbox
   \\    /   O peration     | Website:  https://openfoam.org
    \\  /    A nd           | Version:  7
     \\/     M anipulation  |
\*---------------------------------------------------------------------------*/
FoamFile
{
    version     2.0;
    format      ascii;
    class       surfaceScalarField;
    location    "0.0006";
    object      phi;
}
// * * * * * * * * * * * * * * * * * * * * * * * * * * * * * * * * * * * * * //

dimensions      [1 0 -1 0 0 0 0];

internalField   nonuniform List<scalar> 
27670
(
-3.322231534e-14
4.528078111e-11
-1.310141966e-13
1.325029631e-10
-2.921862506e-13
2.148790379e-10
-5.168575527e-13
2.926186493e-10
-8.061689952e-13
3.659229427e-10
-1.161997612e-12
4.349848754e-10
-1.586689859e-12
4.999895402e-10
-2.082833582e-12
5.611144865e-10
-2.653059647e-12
6.185300435e-10
-3.299866674e-12
6.72399579e-10
-4.025467579e-12
7.228798205e-10
-4.831653802e-12
7.701210965e-10
-5.719674161e-12
8.142675852e-10
-6.690125497e-12
8.55457572e-10
-7.742852619e-12
8.938236757e-10
-8.876853253e-12
9.294930545e-10
-1.009025432e-11
9.625877144e-10
-1.138027381e-11
9.932246391e-10
-1.274291175e-11
1.021515772e-09
-1.417300309e-11
1.0475685e-09
-1.566414397e-11
1.071485748e-09
-1.72087927e-11
1.093366318e-09
-1.879815532e-11
1.113304801e-09
-2.042176192e-11
1.131391474e-09
-2.206786927e-11
1.147713221e-09
-2.372335036e-11
1.162353241e-09
-2.537320286e-11
1.175390718e-09
-2.700129006e-11
1.186902278e-09
-2.858940041e-11
1.196960351e-09
-3.011792552e-11
1.205634977e-09
-3.156567439e-11
1.212993045e-09
-3.290923724e-11
1.219097941e-09
-3.41233447e-11
1.224010676e-09
-3.518086857e-11
1.227789611e-09
-3.60528939e-11
1.230490668e-09
-3.670785563e-11
1.232166451e-09
-3.711228348e-11
1.232867995e-09
-3.722999802e-11
1.232643246e-09
-3.702302131e-11
1.23153894e-09
-3.645018975e-11
1.229598321e-09
-3.546828529e-11
1.226863801e-09
-3.403155719e-11
1.223375377e-09
-3.209194699e-11
1.219171409e-09
-2.959938332e-11
1.214288865e-09
-2.650155775e-11
1.208762696e-09
-2.274436963e-11
1.202626758e-09
-1.827255251e-11
1.195913867e-09
-1.302968437e-11
1.188655474e-09
-6.958564515e-12
1.180881842e-09
1.172620718e-09
-8.395618268e-14
4.536473729e-11
-3.301075957e-13
1.327491145e-10
-7.297572223e-13
2.152786875e-10
-1.274608265e-12
2.931635004e-10
-1.956714228e-12
3.666050486e-10
-2.768299611e-12
4.357964608e-10
-3.701615531e-12
5.009228561e-10
-4.748796071e-12
5.62161667e-10
-5.901824152e-12
6.196830716e-10
-7.152239052e-12
6.736499939e-10
-8.491101174e-12
7.242186827e-10
-9.908900681e-12
7.71538896e-10
-1.13954796e-11
8.157541641e-10
-1.294002831e-11
8.570021207e-10
-1.453120927e-11
8.954148566e-10
-1.615669767e-11
9.311185429e-10
-1.78033836e-11
9.642344004e-10
-1.945781179e-11
9.948790673e-10
-2.11054771e-11
1.023163437e-09
-2.273138345e-11
1.049194406e-09
-2.431999855e-11
1.073074363e-09
-2.585525393e-11
1.094901573e-09
-2.732063129e-11
1.114770178e-09
-2.869961847e-11
1.132770462e-09
-2.997525315e-11
1.148988855e-09
-3.113064563e-11
1.163508633e-09
-3.214914728e-11
1.17640922e-09
-3.301450013e-11
1.187767631e-09
-3.371084305e-11
1.197656694e-09
-3.422288635e-11
1.20614702e-09
-3.453633642e-11
1.213306495e-09
-3.463817509e-11
1.219199779e-09
-3.451674907e-11
1.22388925e-09
-3.416195431e-11
1.227434816e-09
-3.35657163e-11
1.22989443e-09
-3.272238271e-11
1.231323118e-09
-3.162880727e-11
1.23177442e-09
-3.028485931e-11
1.231299298e-09
-2.869364762e-11
1.229947728e-09
-2.686212456e-11
1.227766798e-09
-2.480104701e-11
1.224802723e-09
-2.252531381e-11
1.221099644e-09
-2.005449477e-11
1.21670059e-09
-1.741282433e-11
1.211647194e-09
-1.462973957e-11
1.205979611e-09
-1.173997667e-11
1.199736996e-09
-8.783443923e-12
1.192957334e-09
-5.805786559e-12
1.185677816e-09
-2.858409023e-12
1.177934464e-09
1.169762309e-09
-9.824785491e-14
4.546298515e-11
-3.846276784e-13
1.330354943e-10
-8.463331417e-13
2.157403929e-10
-1.469964354e-12
2.937871316e-10
-2.241506751e-12
3.67376591e-10
-3.146468399e-12
4.367014224e-10
-4.170051841e-12
5.019464396e-10
-5.297185147e-12
5.632888003e-10
-6.512521139e-12
6.208984076e-10
-7.800522591e-12
6.749379954e-10
-9.145576592e-12
7.255637367e-10
-1.053215137e-11
7.729254708e-10
-1.194445486e-11
8.171664676e-10
-1.336689004e-11
8.584245559e-10
-1.478398822e-11
8.968319548e-10
-1.618034536e-11
9.325149001e-10
-1.754095122e-11
9.655950062e-10
-1.885094803e-11
9.961890641e-10
-2.009598242e-11
1.024408472e-09
-2.126265014e-11
1.050361074e-09
-2.233793085e-11
1.074149643e-09
-2.330950891e-11
1.095873151e-09
-2.416592739e-11
1.115626596e-09
-2.489704665e-11
1.133501581e-09
-2.549368561e-11
1.149585494e-09
-2.594777038e-11
1.163962718e-09
-2.625285596e-11
1.176714306e-09
-2.640340991e-11
1.187918185e-09
-2.639575728e-11
1.197649041e-09
-2.622770158e-11
1.205978964e-09
-2.589852732e-11
1.212977321e-09
-2.540917756e-11
1.218710429e-09
-2.476256086e-11
1.223242634e-09
-2.396287999e-11
1.226635135e-09
-2.301643875e-11
1.228947989e-09
-2.193098246e-11
1.230237662e-09
-2.071612805e-11
1.230559566e-09
-1.938338228e-11
1.229966552e-09
-1.794543414e-11
1.22850978e-09
-1.641692702e-11
1.226238291e-09
-1.48136616e-11
1.223199458e-09
-1.315297717e-11
1.21943896e-09
-1.145300335e-11
1.215000616e-09
-9.732453692e-12
1.209926645e-09
-8.010417906e-12
1.204257575e-09
-6.305766424e-12
1.198032344e-09
-4.636635084e-12
1.191288203e-09
-3.019770213e-12
1.184060951e-09
-1.469972547e-12
1.176384667e-09
1.168292337e-09
-8.596523902e-14
4.554895038e-11
-3.369365847e-13
1.332864656e-10
-7.406632268e-13
2.161441196e-10
-1.283535941e-12
2.943300043e-10
-1.951012563e-12
3.680440677e-10
-2.727863936e-12
4.374782738e-10
-3.598387357e-12
5.02816963e-10
-4.546724657e-12
5.642371376e-10
-5.55679561e-12
6.219084785e-10
-6.612531973e-12
6.759937318e-10
-7.698327295e-12
7.26649532e-10
-8.798652799e-12
7.740257963e-10
-9.898665998e-12
8.182664808e-10
-1.09837876e-11
8.595096775e-10
-1.204028224e-11
8.978884494e-10
-1.305509464e-11
9.335297125e-10
-1.401610741e-11
9.66556019e-10
-1.491192852e-11
9.970848852e-10
-1.573245081e-11
1.025228994e-09
-1.646844175e-11
1.051097065e-09
-1.71117772e-11
1.074792979e-09
-1.765556407e-11
1.096416938e-09
-1.809417451e-11
1.116065207e-09
-1.84229305e-11
1.133830337e-09
-1.863879796e-11
1.149801362e-09
-1.873992886e-11
1.164063849e-09
-1.872554283e-11
1.17669992e-09
-1.859605978e-11
1.187788701e-09
-1.83534812e-11
1.197406463e-09
-1.800072481e-11
1.205626208e-09
-1.754209713e-11
1.212518693e-09
-1.69827767e-11
1.218151109e-09
-1.632946216e-11
1.222589319e-09
-1.558963553e-11
1.225895308e-09
-1.477148696e-11
1.22812984e-09
-1.388446079e-11
1.229350635e-09
-1.293826497e-11
1.22961337e-09
-1.194340248e-11
1.228971689e-09
-1.091060068e-11
1.227476978e-09
-9.850870706e-12
1.225178561e-09
-8.775225344e-12
1.222123812e-09
-7.694501853e-12
1.218358236e-09
-6.619198539e-12
1.213925313e-09
-5.559423561e-12
1.20886687e-09
-4.52464441e-12
1.203222796e-09
-3.523555024e-12
1.197031255e-09
-2.564016058e-12
1.190328664e-09
-1.653029793e-12
1.183149965e-09
-7.968550728e-13
1.175528492e-09
1.167495482e-09
-6.648582729e-14
4.561543621e-11
-2.597983869e-13
1.334797782e-10
-5.69819402e-13
2.164541406e-10
-9.852475202e-13
2.947454324e-10
-1.4938037e-12
3.685526238e-10
-2.082517307e-12
4.380669874e-10
-2.738025375e-12
5.03472471e-10
-3.446735574e-12
5.649458478e-10
-4.195028813e-12
6.226567718e-10
-4.969707056e-12
6.7676841e-10
-5.757647373e-12
7.274374723e-10
-6.546241978e-12
7.748143909e-10
-7.323684807e-12
8.190439237e-10
-8.078661179e-12
8.602646539e-10
-8.800698623e-12
8.986104869e-10
-9.480480455e-12
9.342094943e-10
-1.010932399e-11
9.671848625e-10
-1.067968091e-11
9.976552422e-10
-1.118515128e-11
1.025734464e-09
-1.162003775e-11
1.051531951e-09
-1.198002987e-11
1.075152971e-09
-1.226192773e-11
1.096698836e-09
-1.246356013e-11
1.116266839e-09
-1.258368556e-11
1.133950462e-09
-1.262206278e-11
1.149839739e-09
-1.257966413e-11
1.16402145e-09
-1.245817682e-11
1.176578432e-09
-1.226031057e-11
1.187590835e-09
-1.198963888e-11
1.197135791e-09
-1.165036801e-11
1.205286937e-09
-1.124735401e-11
1.212115679e-09
-1.078635368e-11
1.217690109e-09
-1.027312052e-11
1.222076086e-09
-9.714394084e-12
1.225336582e-09
-9.11674345e-12
1.227532189e-09
-8.487194669e-12
1.228721087e-09
-7.832881255e-12
1.228959056e-09
-7.1608917e-12
1.2282997e-09
-6.478290748e-12
1.226794377e-09
-5.791957753e-12
1.224492228e-09
-5.108618163e-12
1.221440473e-09
-4.434678192e-12
1.217684296e-09
-3.776106042e-12
1.213266741e-09
-3.13847696e-12
1.208229241e-09
-2.526961557e-12
1.20261128e-09
-1.946442342e-12
1.196450735e-09
-1.400872392e-12
1.189783094e-09
-8.93112179e-13
1.182642205e-09
-4.251558195e-13
1.175060536e-09
1.167070326e-09
-4.868287645e-14
4.566411909e-11
-1.905228152e-13
1.336216181e-10
-4.177601725e-13
2.16681378e-10
-7.214353297e-13
2.950491076e-10
-1.09183307e-12
3.689230216e-10
-1.518711492e-12
4.384938658e-10
-1.99145648e-12
5.03945216e-10
-2.499448763e-12
5.654538401e-10
-3.031962109e-12
6.231892851e-10
-3.578932769e-12
6.773153807e-10
-4.130215052e-12
7.279887546e-10
-4.676469393e-12
7.753606453e-10
-5.208942483e-12
8.195763967e-10
-5.719708771e-12
8.607754202e-10
-6.201261302e-12
8.990920394e-10
-6.647250324e-12
9.346554833e-10
-7.052150614e-12
9.675897628e-10
-7.41116104e-12
9.980142526e-10
-7.720444374e-12
1.026043748e-09
-7.97708333e-12
1.05178859e-09
-8.179152167e-12
1.07535504e-09
-8.325484135e-12
1.096845168e-09
-8.415672955e-12
1.116357028e-09
-8.450193677e-12
1.133984983e-09
-8.43022115e-12
1.149819766e-09
-8.357433144e-12
1.163948662e-09
-8.234554762e-12
1.176455554e-09
-8.064539095e-12
1.18742082e-09
-7.85094609e-12
1.196922198e-09
-7.597801986e-12
1.205033793e-09
-7.309368919e-12
1.211827246e-09
-6.990466776e-12
1.217371207e-09
-6.645676644e-12
1.221731296e-09
-6.280240027e-12
1.224971145e-09
-5.899236788e-12
1.227151186e-09
-5.507636131e-12
1.228329486e-09
-5.11067091e-12
1.228562091e-09
-4.713413828e-12
1.227902443e-09
-4.320600536e-12
1.226401564e-09
-3.93689917e-12
1.224108527e-09
-3.566923978e-12
1.221070498e-09
-3.214819062e-12
1.217332191e-09
-2.88443925e-12
1.212936361e-09
-2.579428728e-12
1.20792423e-09
-2.302408483e-12
1.20233426e-09
-2.055180994e-12
1.196203508e-09
-1.839623487e-12
1.189567537e-09
-1.576866129e-12
1.182379448e-09
-9.570207973e-13
1.17444069e-09
1.166113305e-09
-3.49070858e-14
4.569902617e-11
-1.362300769e-13
1.337229411e-10
-2.981766184e-13
2.168433245e-10
-5.140946823e-13
2.952650256e-10
-7.767030463e-13
3.691856299e-10
-1.078384967e-12
4.387955477e-10
-1.411104919e-12
5.04277936e-10
-1.767031486e-12
5.658097667e-10
-2.138357761e-12
6.235606114e-10
-2.517447915e-12
6.776944708e-10
-2.897309158e-12
7.283686158e-10
-3.271184918e-12
7.75734521e-10
-3.632949381e-12
8.199381612e-10
-3.977199016e-12
8.611196698e-10
-4.29915615e-12
8.994139965e-10
-4.594610752e-12
9.34950938e-10
-4.860205649e-12
9.678553577e-10
-5.093275592e-12
9.982473225e-10
-5.291845943e-12
1.026242318e-09
-5.454638308e-12
1.051951382e-09
-5.581207876e-12
1.075481609e-09
-5.671491886e-12
1.096935452e-09
-5.726043464e-12
1.11641158e-09
-5.746274791e-12
1.134005214e-09
-5.733875622e-12
1.149807367e-09
-5.691036026e-12
1.163905823e-09
-5.620353061e-12
1.176384871e-09
-5.524945651e-12
1.187325412e-09
-5.407963561e-12
1.196805216e-09
-5.273111583e-12
1.204898941e-09
-5.124084329e-12
1.211678219e-09
-4.964714268e-12
1.217211836e-09
-4.799197271e-12
1.221565779e-09
-4.631402516e-12
1.224803351e-09
-4.465457027e-12
1.226985241e-09
-4.305502981e-12
1.228169532e-09
-4.155388513e-12
1.228411977e-09
-4.018968832e-12
1.227766023e-09
-3.900002976e-12
1.226282598e-09
-3.80193253e-12
1.224010456e-09
-3.728134529e-12
1.2209967e-09
-3.681327484e-12
1.217285384e-09
-3.663638023e-12
1.212918672e-09
-3.676685695e-12
1.207937278e-09
-3.722290596e-12
1.202379865e-09
-3.615603061e-12
1.19609682e-09
-3.164769376e-12
1.189116703e-09
-2.391684911e-12
1.181606363e-09
-1.327442739e-12
1.173376448e-09
1.164785862e-09
-2.510322448e-14
4.57241294e-11
-9.816264088e-14
1.337960005e-10
-2.149491517e-13
2.16960111e-10
-3.705071209e-13
2.954205836e-10
-5.594157852e-13
3.693745386e-10
-7.759284115e-13
4.390120604e-10
-1.014272678e-12
5.045162802e-10
-1.268512115e-12
5.660640061e-10
-1.533147872e-12
6.238252472e-10
-1.802578225e-12
6.779639012e-10
-2.071806101e-12
7.286378437e-10
-2.336269386e-12
7.759989843e-10
-2.59171286e-12
8.201936047e-10
-2.834505143e-12
8.613624621e-10
-3.061557562e-12
8.99641049e-10
-3.270365855e-12
9.351597462e-10
-3.459009094e-12
9.680440009e-10
-3.626089949e-12
9.984144034e-10
-3.770755955e-12
1.026386984e-09
-3.892681193e-12
1.052073308e-09
-3.992115452e-12
1.075581044e-09
-4.069687851e-12
1.097013024e-09
-4.126557861e-12
1.11646845e-09
-4.164347711e-12
1.134043004e-09
-4.184786909e-12
1.149827806e-09
-4.190388118e-12
1.163911424e-09
-4.183355809e-12
1.176377839e-09
-4.166732618e-12
1.187308789e-09
-4.143196594e-12
1.19678168e-09
-4.116026601e-12
1.204871771e-09
-4.088363206e-12
1.211650555e-09
-4.063396554e-12
1.21718687e-09
-4.044678413e-12
1.221547061e-09
-4.035273374e-12
1.224793946e-09
-4.038552612e-12
1.22698852e-09
-4.057780881e-12
1.22818876e-09
-4.095824035e-12
1.22845002e-09
-4.155783829e-12
1.227825983e-09
-4.240246415e-12
1.226367061e-09
-4.351543554e-12
1.224121754e-09
-4.491153325e-12
1.221136309e-09
-4.660135197e-12
1.217454366e-09
-4.860436175e-12
1.213118973e-09
-4.855549793e-12
1.207932391e-09
-4.51357838e-12
1.202037894e-09
-3.856773709e-12
1.195440016e-09
-2.91331633e-12
1.188173245e-09
-1.78892221e-12
1.180481969e-09
-8.159616922e-13
1.172403488e-09
1.163969901e-09
-1.879125772e-14
4.574292066e-11
-7.330640538e-14
1.338505157e-10
-1.60361606e-13
2.170471662e-10
-2.76326765e-13
2.955365488e-10
-4.172232402e-13
3.695154351e-10
-5.787584567e-13
4.391735956e-10
-7.56820048e-13
5.046943418e-10
-9.470164478e-13
5.662542025e-10
-1.145334048e-12
6.240235648e-10
-1.347958041e-12
6.781665252e-10
-1.551261366e-12
7.28841147e-10
-1.75205952e-12
7.761997825e-10
-1.947542661e-12
8.203890878e-10
-2.135307842e-12
8.615502273e-10
-2.313381879e-12
8.99819123e-10
-2.480228704e-12
9.353265931e-10
-2.634747927e-12
9.681985202e-10
-2.776377732e-12
9.985560332e-10
-2.904945363e-12
1.026515552e-09
-3.020621708e-12
1.052188984e-09
-3.123861881e-12
1.075684284e-09
-3.215723191e-12
1.097104886e-09
-3.297416218e-12
1.116550143e-09
-3.370468457e-12
1.134116056e-09
-3.43668725e-12
1.149894025e-09
-3.498035445e-12
1.163972772e-09
-3.55673749e-12
1.176436541e-09
-3.615090972e-12
1.187367142e-09
-3.675552153e-12
1.196842141e-09
-3.740662804e-12
1.204936882e-09
-3.812906368e-12
1.211722799e-09
-3.895016606e-12
1.21726898e-09
-3.989351939e-12
1.221641396e-09
-4.098534861e-12
1.224903128e-09
-4.224920185e-12
1.227114905e-09
-4.37066302e-12
1.228334503e-09
-4.53799504e-12
1.228617352e-09
-4.728308576e-12
1.228016296e-09
-4.942801332e-12
1.226581554e-09
-5.181963566e-12
1.224360916e-09
-5.447326049e-12
1.221401672e-09
-5.480045092e-12
1.217487085e-09
-5.175664665e-12
1.212814592e-09
-4.555292243e-12
1.207312019e-09
-3.644378441e-12
1.20112698e-09
-2.651146848e-12
1.194446784e-09
-1.790370864e-12
1.187312469e-09
-1.066582962e-12
1.179758181e-09
-4.739480902e-13
1.171810853e-09
1.163495953e-09
-1.492127912e-14
4.575784194e-11
-5.837165741e-14
1.338939661e-10
-1.279491867e-13
2.171167437e-10
-2.208925462e-13
2.956294921e-10
-3.341334071e-13
3.696286759e-10
-4.645966139e-13
4.393040588e-10
-6.090816891e-13
5.048388269e-10
-7.645862294e-13
5.66409707e-10
-9.280854244e-13
6.241870639e-10
-1.096850225e-12
6.7833529e-10
-1.268393118e-12
7.290126899e-10
-1.440489328e-12
7.763718787e-10
-1.611232013e-12
8.205598305e-10
-1.779084364e-12
8.617180796e-10
-1.942855936e-12
8.999828946e-10
-2.101665292e-12
9.354854024e-10
-2.254940883e-12
9.683517958e-10
-2.402469643e-12
9.98703562e-10
-2.544405604e-12
1.026657488e-09
-2.681315236e-12
1.052325894e-09
-2.813699628e-12
1.075816668e-09
-2.942571995e-12
1.097233758e-09
-3.069191094e-12
1.116676762e-09
-3.19470435e-12
1.13424157e-09
-3.320919377e-12
1.15002024e-09
-3.449175468e-12
1.164101028e-09
-3.581527197e-12
1.176568892e-09
-3.719507761e-12
1.187505123e-09
-3.865269098e-12
1.196987902e-09
-4.020426202e-12
1.205092039e-09
-4.187064133e-12
1.211889437e-09
-4.366866854e-12
1.217448783e-09
-4.561607345e-12
1.221836136e-09
-4.772850922e-12
1.225114372e-09
-5.002025624e-12
1.22734408e-09
-5.250004193e-12
1.228582482e-09
-5.517515418e-12
1.228884863e-09
-5.804263445e-12
1.228303045e-09
-6.111764127e-12
1.226889054e-09
-6.166767571e-12
1.224415919e-09
-5.881142718e-12
1.221116047e-09
-5.274561511e-12
1.216880504e-09
-4.369863281e-12
1.211909894e-09
-3.424246346e-12
1.206366402e-09
-2.592011839e-12
1.200294745e-09
-1.877511286e-12
1.193732284e-09
-1.2747906e-12
1.186709749e-09
-7.720940624e-13
1.179255485e-09
-3.536680666e-13
1.171392427e-09
1.163142285e-09
-1.273947e-14
4.577058141e-11
-4.978733852e-14
1.339310139e-10
-1.092345749e-13
2.17176191e-10
-1.889413509e-13
2.957091989e-10
-2.866548682e-13
3.697263895e-10
-4.001027325e-13
4.394175066e-10
-5.269278553e-13
5.04965652e-10
-6.649154581e-13
5.665476947e-10
-8.120433302e-13
6.243341918e-10
-9.663197718e-13
6.784895664e-10
-1.12604191e-12
7.29172412e-10
-1.289736596e-12
7.765355734e-10
-1.456178837e-12
8.207262728e-10
-1.624405357e-12
8.618863061e-10
-1.793713852e-12
9.001522031e-10
-1.963666433e-12
9.35655355e-10
-2.134106402e-12
9.685222357e-10
-2.305122854e-12
9.988745784e-10
-2.476966692e-12
1.026829331e-09
-2.650136562e-12
1.052499064e-09
-2.825397979e-12
1.07599193e-09
-3.003530186e-12
1.09741189e-09
-3.185553677e-12
1.116858785e-09
-3.372599151e-12
1.134428615e-09
-3.565827777e-12
1.150213469e-09
-3.766543601e-12
1.164301744e-09
-3.976027837e-12
1.176778377e-09
-4.195560434e-12
1.187724656e-09
-4.426496383e-12
1.197218838e-09
-4.669972621e-12
1.205335515e-09
-4.927281713e-12
1.212146746e-09
-5.199364675e-12
1.217720866e-09
-5.487115063e-12
1.222123887e-09
-5.790979505e-12
1.225418236e-09
-6.111024991e-12
1.227664125e-09
-6.446852217e-12
1.228918309e-09
-6.799487175e-12
1.229237498e-09
-6.885264289e-12
1.228388822e-09
-6.627709785e-12
1.2266315e-09
-6.044925017e-12
1.223833135e-09
-5.157604965e-12
1.220228727e-09
-4.243364525e-12
1.215966263e-09
-3.427959657e-12
1.211094489e-09
-2.716100073e-12
1.205654542e-09
-2.102289564e-12
1.199680935e-09
-1.575353647e-12
1.193205348e-09
-1.120030795e-12
1.186254426e-09
-7.173175819e-13
1.178852771e-09
-3.492556468e-13
1.171024365e-09
1.162793029e-09
-1.168129812e-14
4.57822627e-11
-4.57917763e-14
1.339651244e-10
-1.007302404e-13
2.172311294e-10
-1.747941087e-13
2.957832628e-10
-2.662639986e-13
3.698178594e-10
-3.733129503e-13
4.395245556e-10
-4.943173297e-13
5.050866564e-10
-6.27568676e-13
5.66680946e-10
-7.715709324e-13
6.244781941e-10
-9.249880378e-13
6.786429835e-10
-1.086680854e-12
7.293341049e-10
-1.255634567e-12
7.767045271e-10
-1.431033831e-12
8.20901672e-10
-1.612269566e-12
8.620675419e-10
-1.798934712e-12
9.003388682e-10
-1.990883883e-12
9.358473042e-10
-2.188113979e-12
9.687194658e-10
-2.390791225e-12
9.990772557e-10
-2.599188996e-12
1.027037729e-09
-2.813776908e-12
1.052713651e-09
-3.035195497e-12
1.076213348e-09
-3.264032911e-12
1.097640728e-09
-3.501139214e-12
1.117095892e-09
-3.747378717e-12
1.134674855e-09
-4.003443663e-12
1.150469534e-09
-4.270431354e-12
1.164568732e-09
-4.548933719e-12
1.177056879e-09
-4.840126719e-12
1.188015849e-09
-5.144446035e-12
1.197523158e-09
-5.46295829e-12
1.205654027e-09
-5.795769869e-12
1.212479557e-09
-6.143350826e-12
1.218068447e-09
-6.505307785e-12
1.222485844e-09
-6.881156367e-12
1.225794085e-09
-7.271879411e-12
1.228054849e-09
-7.390562117e-12
1.229036992e-09
-7.166282272e-12
1.229013218e-09
-6.615505483e-12
1.227838045e-09
-5.756970245e-12
1.225772965e-09
-4.880740292e-12
1.222956905e-09
-4.095050352e-12
1.219443037e-09
-3.405205641e-12
1.215276419e-09
-2.806756426e-12
1.21049604e-09
-2.289503257e-12
1.205137289e-09
-1.839047592e-12
1.199230479e-09
-1.437247073e-12
1.192803547e-09
-1.066400306e-12
1.185883579e-09
-7.108597547e-13
1.178497231e-09
-3.581412326e-13
1.170671646e-09
1.162434888e-09
-1.142448308e-14
4.579368719e-11
-4.476049345e-14
1.339984604e-10
-9.860674354e-14
2.172849757e-10
-1.715633667e-13
2.958562194e-10
-2.621684502e-13
3.699084644e-10
-3.69073885e-13
4.39631461e-10
-4.908957547e-13
5.052084783e-10
-6.265049026e-13
5.668165551e-10
-7.746944536e-13
6.246263836e-10
-9.344663119e-13
6.788027554e-10
-1.10497384e-12
7.295046124e-10
-1.2855158e-12
7.76885069e-10
-1.475546857e-12
8.210917031e-10
-1.674675609e-12
8.622666706e-10
-1.882657259e-12
9.005468499e-10
-2.099386781e-12
9.360640337e-10
-2.324875893e-12
9.689449549e-10
-2.55915383e-12
9.993115336e-10
-2.802546624e-12
1.027281122e-09
-3.055482535e-12
1.052966587e-09
-3.318246834e-12
1.076476112e-09
-3.591336249e-12
1.097913817e-09
-3.875424769e-12
1.11737998e-09
-4.17081558e-12
1.134970245e-09
-4.478313612e-12
1.150777032e-09
-4.79832632e-12
1.164888744e-09
-5.131420264e-12
1.177389973e-09
-5.478110916e-12
1.188362539e-09
-5.838554151e-12
1.197883601e-09
-6.212894614e-12
1.206028368e-09
-6.600837392e-12
1.2128675e-09
-7.001681085e-12
1.21846929e-09
-7.41664565e-12
1.222900808e-09
-7.565867588e-12
1.225943307e-09
-7.375468484e-12
1.227864449e-09
-6.860113947e-12
1.228521637e-09
-6.036317923e-12
1.228189422e-09
-5.203147769e-12
1.227004875e-09
-4.455849552e-12
1.225025666e-09
-3.800085232e-12
1.22230114e-09
-3.232955556e-12
1.218875907e-09
-2.74542143e-12
1.214788885e-09
-2.324178226e-12
1.210074797e-09
-1.952044682e-12
1.204765156e-09
-1.612109824e-12
1.198890544e-09
-1.289388875e-12
1.192480826e-09
-9.719724831e-13
1.185566163e-09
-6.52356903e-13
1.178177615e-09
-3.278078625e-13
1.170347097e-09
1.16210708e-09
-1.164636177e-14
4.580533355e-11
-4.572808177e-14
1.340325421e-10
-1.009446341e-13
2.173401923e-10
-1.759910292e-13
2.959312658e-10
-2.695944553e-13
3.700020679e-10
-3.806270158e-13
4.397424936e-10
-5.079160243e-13
5.053357673e-10
-6.504481986e-13
5.669590873e-10
-8.073618257e-13
6.247832973e-10
-9.778301563e-13
6.789732237e-10
-1.161115315e-12
7.296878976e-10
-1.356652194e-12
7.770806059e-10
-1.563995019e-12
8.212990459e-10
-1.782813044e-12
8.624854886e-10
-2.012884285e-12
9.007769211e-10
-2.254027314e-12
9.363051767e-10
-2.506204161e-12
9.691971318e-10
-2.769474447e-12
9.995748039e-10
-3.044139683e-12
1.027555787e-09
-3.330278126e-12
1.053252726e-09
-3.628097571e-12
1.076773932e-09
-3.938045057e-12
1.098223765e-09
-4.26035849e-12
1.117702294e-09
-4.595357056e-12
1.135305244e-09
-4.943505773e-12
1.151125181e-09
-5.305012514e-12
1.165250251e-09
-5.680026622e-12
1.177764987e-09
-6.068486843e-12
1.188750999e-09
-6.470229883e-12
1.198285344e-09
-6.884428462e-12
1.206442566e-09
-7.312516045e-12
1.213295588e-09
-7.491167877e-12
1.218647942e-09
-7.336133194e-12
1.222745774e-09
-6.859900635e-12
1.225467074e-09
-6.076311155e-12
1.22708086e-09
-5.286208423e-12
1.227731534e-09
-4.578026758e-12
1.22748124e-09
-3.957835452e-12
1.226384683e-09
-3.423651434e-12
1.224491482e-09
-2.96812934e-12
1.221845618e-09
-2.579067758e-12
1.218486846e-09
-2.240387077e-12
1.214450204e-09
-1.935728556e-12
1.209770138e-09
-1.650647105e-12
1.204480074e-09
-1.37354707e-12
1.198613444e-09
-1.097099925e-12
1.192204379e-09
-8.185003836e-13
1.185287563e-09
-5.393040248e-13
1.177898419e-09
-2.644108496e-13
1.170072204e-09
1.161842669e-09
-1.213244217e-14
4.581746599e-11
-4.762339852e-14
1.340680331e-10
-1.05175933e-13
2.173977448e-10
-1.83543191e-13
2.96009633e-10
-2.816008767e-13
3.701001256e-10
-3.982400775e-13
4.398591328e-10
-5.32514971e-13
5.054700422e-10
-6.834124699e-13
5.671099848e-10
-8.502131239e-13
6.249500979e-10
-1.032194665e-12
6.791552052e-10
-1.228729897e-12
7.298844328e-10
-1.439295544e-12
7.772911716e-10
-1.663465011e-12
8.215232154e-10
-1.900901803e-12
8.627229254e-10
-2.151364916e-12
9.010273842e-10
-2.41470214e-12
9.36568514e-10
-2.690834727e-12
9.694732644e-10
-2.979765516e-12
9.998637347e-10
-3.281610377e-12
1.027857632e-09
-3.596419655e-12
1.053567535e-09
-3.924346437e-12
1.077101859e-09
-4.265585586e-12
1.098565004e-09
-4.620356342e-12
1.118057064e-09
-4.98883715e-12
1.135673725e-09
-5.370932196e-12
1.151507276e-09
-5.766665472e-12
1.165645984e-09
-6.175778249e-12
1.1781741e-09
-6.597539818e-12
1.189172761e-09
-7.033429125e-12
1.198721233e-09
-7.242930127e-12
1.206652067e-09
-7.1272974e-12
1.213179955e-09
-6.696462273e-12
1.218217107e-09
-5.96116945e-12
1.222010481e-09
-5.213662405e-12
1.224719567e-09
-4.54376491e-12
1.226410962e-09
-3.958185993e-12
1.227145955e-09
-3.455543317e-12
1.226978598e-09
-3.029679623e-12
1.22595882e-09
-2.670127968e-12
1.224131931e-09
-2.362205043e-12
1.221537695e-09
-2.089565845e-12
1.218214207e-09
-1.838085674e-12
1.214198724e-09
-1.596142251e-12
1.209528195e-09
-1.356125514e-12
1.204240057e-09
-1.11477982e-12
1.198372099e-09
-8.729643479e-13
1.191962564e-09
-6.349997757e-13
1.185049599e-09
-4.070377097e-13
1.177670457e-09
-1.943086129e-13
1.169859475e-09
1.16164836e-09
-1.268254573e-14
4.583014854e-11
-4.982269273e-14
1.341051732e-10
-1.10112318e-13
2.174580344e-10
-1.923285208e-13
2.960918493e-10
-2.953790608e-13
3.702031761e-10
-4.18185434e-13
4.399819392e-10
-5.59845039e-13
5.056117018e-10
-7.194622114e-13
5.67269602e-10
-8.963033151e-13
6.25126939e-10
-1.089706345e-12
6.793486083e-10
-1.299084085e-12
7.300938105e-10
-1.523943835e-12
7.775160313e-10
-1.763879591e-12
8.217631511e-10
-2.01856677e-12
8.629776126e-10
-2.28775682e-12
9.012965743e-10
-2.571277565e-12
9.368520347e-10
-2.869029518e-12
9.697710163e-10
-3.180965197e-12
1.00017567e-09
-3.507038691e-12
1.028183706e-09
-3.847366274e-12
1.053907863e-09
-4.202040207e-12
1.077456533e-09
-4.570977643e-12
1.098933941e-09
-4.954142045e-12
1.118440229e-09
-5.351488538e-12
1.136071071e-09
-5.762624594e-12
1.151918412e-09
-6.187019136e-12
1.166070379e-09
-6.626103457e-12
1.178613184e-09
-6.864605736e-12
1.189411263e-09
-6.789254198e-12
1.198645882e-09
-6.407181471e-12
1.206269994e-09
-5.726354784e-12
1.212499128e-09
-5.019500877e-12
1.217510253e-09
-4.385411409e-12
1.221376391e-09
-3.831375282e-12
1.224165531e-09
-3.357531181e-12
1.225937118e-09
-2.958049275e-12
1.226746473e-09
-2.623670932e-12
1.226644219e-09
-2.341800993e-12
1.22567695e-09
-2.097084369e-12
1.223887214e-09
-1.87508866e-12
1.2213157e-09
-1.664081749e-12
1.2180032e-09
-1.456011017e-12
1.213990653e-09
-1.246976507e-12
1.20931916e-09
-1.037119644e-12
1.204030201e-09
-8.300662818e-13
1.198165045e-09
-6.31464086e-13
1.191763961e-09
-4.467113708e-13
1.184864846e-09
-2.793159241e-13
1.177503061e-09
-1.304784156e-13
1.169710638e-09
1.161517882e-09
-1.319871585e-14
4.584334725e-11
-5.184082007e-14
1.341438154e-10
-1.146029554e-13
2.175207965e-10
-2.002781477e-13
2.961775244e-10
-3.077705706e-13
3.703106685e-10
-4.360761758e-13
4.401102448e-10
-5.842921105e-13
5.057599177e-10
-7.516119256e-13
5.674369218e-10
-9.37322005e-13
6.253126491e-10
-1.140786771e-12
6.79552073e-10
-1.361458862e-12
7.303144826e-10
-1.598871153e-12
7.777534436e-10
-1.852635939e-12
8.220169159e-10
-2.122446699e-12
8.632474234e-10
-2.408066788e-12
9.015821944e-10
-2.70932101e-12
9.371532889e-10
-3.02609551e-12
9.700877908e-10
-3.358316516e-12
1.000507891e-09
-3.705801391e-12
1.02853119e-09
-4.068550848e-12
1.054270612e-09
-4.446450351e-12
1.077834432e-09
-4.83926529e-12
1.099326756e-09
-5.246654363e-12
1.118847618e-09
-5.668220087e-12
1.136492637e-09
-6.105332964e-12
1.152355525e-09
-6.366162033e-12
1.166331208e-09
-6.327482989e-12
1.178574505e-09
-5.993393008e-12
1.189077173e-09
-5.369028285e-12
1.198021517e-09
-4.700791251e-12
1.205601757e-09
-4.099985754e-12
1.211898323e-09
-3.574539125e-12
1.216984807e-09
-3.126349679e-12
1.220928202e-09
-2.750248167e-12
1.22378943e-09
-2.438165497e-12
1.225625036e-09
-2.178633851e-12
1.226486942e-09
-1.958110974e-12
1.226423697e-09
-1.762609187e-12
1.225481448e-09
-1.579847607e-12
1.223704452e-09
-1.401280349e-12
1.221137132e-09
-1.22228994e-12
1.217824209e-09
-1.042210185e-12
1.213810573e-09
-8.639324376e-13
1.209140882e-09
-6.926669296e-13
1.203858935e-09
-5.338632785e-13
1.198006242e-09
-3.914481984e-13
1.191621546e-09
-2.670787142e-13
1.184740476e-09
-1.606454918e-13
1.177396628e-09
-7.170944049e-14
1.169621702e-09
1.161446173e-09
-1.360084036e-14
4.585694809e-11
-5.344956418e-14
1.341836641e-10
-1.182193055e-13
2.175855663e-10
-2.067153792e-13
2.962660205e-10
-3.17830516e-13
3.704217837e-10
-4.5063867e-13
4.402430529e-10
-6.042317334e-13
5.059135108e-10
-7.778981149e-13
5.676105882e-10
-9.709272799e-13
6.255056783e-10
-1.18271333e-12
6.797638591e-10
-1.412749487e-12
7.305445188e-10
-1.66060469e-12
7.780012988e-10
-1.925920096e-12
8.222822313e-10
-2.208404163e-12
8.635299074e-10
-2.507830855e-12
9.01881621e-10
-2.824031847e-12
9.374694899e-10
-3.156861767e-12
9.704206207e-10
-3.506128828e-12
1.000857158e-09
-3.871457096e-12
1.028896519e-09
-4.252598999e-12
1.054651754e-09
-4.649403854e-12
1.078231237e-09
-5.061539317e-12
1.099738892e-09
-5.490399354e-12
1.119276478e-09
-5.761812634e-12
1.13676405e-09
-5.751354132e-12
1.152345066e-09
-5.459931825e-12
1.166039786e-09
-4.889583546e-12
1.178004157e-09
-4.258679576e-12
1.188446269e-09
-3.688748512e-12
1.197451586e-09
-3.189061178e-12
1.20510207e-09
-2.762729067e-12
1.211471991e-09
-2.406554815e-12
1.216628632e-09
-2.113156475e-12
1.220634804e-09
-1.872424168e-12
1.223548697e-09
-1.672003624e-12
1.225424615e-09
-1.49909285e-12
1.226314031e-09
-1.341782248e-12
1.226266386e-09
-1.190631865e-12
1.225330298e-09
-1.040126421e-12
1.223553947e-09
-8.885987471e-13
1.220985605e-09
-7.380771569e-13
1.217673688e-09
-5.932734318e-13
1.21366577e-09
-4.596884378e-13
1.209007297e-09
-3.41595256e-13
1.203740842e-09
-2.411429379e-13
1.197905789e-09
-1.586302789e-13
1.191539034e-09
-9.364833464e-14
1.184675495e-09
-4.569478875e-14
1.177348675e-09
-1.452700927e-14
1.169590534e-09
1.161431646e-09
-1.384477891e-14
4.587079287e-11
-5.439652359e-14
1.342242158e-10
-1.203377186e-13
2.176515075e-10
-2.10507621e-13