/*--------------------------------*- C++ -*----------------------------------*\
  =========                 |
  \\      /  F ield         | OpenFOAM: The Open Source CFD Toolbox
   \\    /   O peration     | Website:  https://openfoam.org
    \\  /    A nd           | Version:  7
     \\/     M anipulation  |
\*---------------------------------------------------------------------------*/
FoamFile
{
    version     2.0;
    format      ascii;
    class       volScalarField;
    location    "0.0006";
    object      T;
}
// * * * * * * * * * * * * * * * * * * * * * * * * * * * * * * * * * * * * * //

dimensions      [0 0 0 1 0 0 0];

internalField   nonuniform List<scalar> 
14000
(
298.1625368
298.1628812
298.1636368
298.1647999
298.1664012
298.1684909
298.1711383
298.1744327
298.1784859
298.1834356
298.1894487
298.1967268
298.2055113
298.2160908
298.2288087
298.2440725
298.2623646
298.2842543
298.3104121
298.3416255
298.3788173
298.4230665
298.4756306
298.5379727
298.6117897
298.6990448
298.8020033
298.9232722
299.0658442
299.2324579
299.4267765
299.6539082
299.9188658
300.2267148
300.5822593
300.9945131
301.4690896
302.015732
302.6420316
303.3596718
304.1790018
305.1113197
306.1702119
307.3691198
308.7240201
310.2517223
311.9685664
313.8941042
316.0488482
318.4536156
298.3139847
298.317847
298.3262778
298.3391365
298.3566173
298.3790731
298.406994
298.4410033
298.4818585
298.5304565
298.5878406
298.6552095
298.7339273
298.8255348
298.9317611
299.0545355
299.1956194
299.3567935
299.5414208
299.7523185
299.9925535
300.2645333
300.5712216
300.9176815
301.3067737
301.7418705
302.2286684
302.7690643
303.3693748
304.0330466
304.7637026
305.5666849
306.4457693
307.4046896
308.4470651
309.5763021
310.7955398
312.1074548
313.5124814
315.013471
316.6093705
318.300664
320.0849074
321.9589604
323.9189436
325.9588469
328.0709848
330.2454111
332.4703554
334.7322252
298.7650003
298.7771821
298.8036667
298.8437791
298.8977894
298.9663505
299.0504167
299.151201
299.2692127
299.4069666
299.5663811
299.7495912
299.9589407
300.1966019
300.4639217
300.7653133
301.1038397
301.4801741
301.8995068
302.3640362
302.8766497
303.440662
304.0593742
304.7342497
305.469606
306.2676079
307.1301857
308.0590788
309.056665
310.1243853
311.2627546
312.4726341
313.7546014
315.1086715
316.5326181
318.0268337
319.5882453
321.2157469
322.9052258
324.6539658
326.458103
328.3130904
330.2139503
332.1553322
334.1315136
336.1367475
338.1650335
340.210241
342.2664707
344.3280672
299.6774919
299.7025022
299.7566953
299.8382947
299.9472905
300.0842854
300.2495273
300.4444557
300.6712923
300.9319996
301.228164
301.5608037
301.93409
302.3491864
302.8083686
303.3148093
303.8696927
304.4759505
305.1362328
305.8504274
306.6221222
307.4525836
308.3429202
309.2940354
310.306664
311.3812546
312.5179575
313.7166914
314.9770549
316.2976052
317.6769852
319.1146272
320.6069153
322.1533523
323.7494901
325.3938941
327.0828666
328.812317
330.5793485
332.3799298
334.2099278
336.0648417
337.9406109
339.8331217
341.7380144
343.6510282
345.567969
347.4847964
349.3975696
351.3025668
301.1376401
301.1778707
301.2646086
301.3946036
301.5671406
301.7822949
302.0406646
302.3418301
302.6873837
303.0796704
303.5178045
304.0053994
304.542189
305.1314582
305.7720132
306.4672893
307.2180212
308.0241318
308.8868624
309.8069986
310.7847458
311.8200677
312.9127577
314.0623965
315.2677576
316.5278409
317.8419366
319.2084195
320.6244257
322.0893901
323.5995224
325.1538551
326.7479524
328.3803198
330.0474115
331.7455679
333.4721473
335.2236777
336.9961247
338.7862297
340.5906004
342.4056794
344.2279457
346.0534515
347.8788048
349.7009717
351.5167571
353.3230965
355.1172146
356.8981839
303.1359618
303.1914151
303.3107955
303.4890732
303.7245387
304.0163916
304.362935
304.7644988
305.2219779
305.7336246
306.3017976
306.9253668
307.6050964
308.3418037
309.1352472
309.9846286
310.8907898
311.8533015
312.8716547
313.9452047
315.0731216
316.253908
317.4863404
318.7694502
320.1016547
321.4799528
322.903493
324.3695232
325.8756468
327.4194432
328.998278
330.6089617
332.2493783
333.9156085
335.6050839
337.3150208
339.0418501
340.7821136
342.5332182
344.2920369
346.0550101
347.8188337
349.581059
351.3388184
353.089047
354.8286087
356.5577933
358.2771855
359.986222
361.6832692
305.597184
305.6661977
305.8148083
306.0361426
306.3262893
306.6834032
307.1069603
307.5934121
308.1442474
308.7557916
309.4293783
310.1638307
310.9570251
311.8091903
312.7193224
313.6863311
314.7090447
315.7861937
316.9164463
318.0983653
319.3296066
320.6088352
321.9344579
323.3039634
324.7148814
326.1658048
327.6527721
329.1748492
330.7278106
332.3102336
333.9184299
335.5497707
337.2018436
338.8706339
340.5538717
342.2487566
343.9515391
345.6595227
347.3701801
349.0803368
350.7864918
352.486867
354.17894
355.859851
357.5311469
359.1929844
360.8435538
362.4808693
364.0989729
365.6800905
308.4173889
308.4972373
308.6689838
308.9242677
309.258681
309.6683572
310.1523506
310.7058219
311.3288902
312.0184319
312.772394
313.5896416
314.4681905
315.4061301
316.4015805
317.4526958
318.5575934
319.7143051
320.9208466
322.1750763
323.4739035
324.8160046
326.1989213
327.6190984
329.0752933
330.5635721
332.082415
333.6277574
335.198099
336.7892328
338.3993065
340.0250539
341.6630484
343.3112257
344.96595
346.6244039
348.2843468
349.9421273
351.5953272
353.2419597
354.8785016
356.5050979
358.122197
359.7285899
361.323764
362.9041682
364.4615398
365.9806206
367.4446167
368.8465203
311.4882661
311.5764317
311.7659089
312.047135
312.4141233
312.8636586
313.3920051
313.9958692
314.6717456
315.4175879
316.2303903
317.107182
318.0454184
319.0428262
320.096847
321.2047583
322.3639169
323.5720092
324.8265297
326.1249547
327.4635487
328.8406074
330.2532421
331.6979338
333.1729341
334.6739401
336.1995563
337.745465
339.3099718
340.8892352
342.4806995
344.0817975
345.6885651
347.2994467
348.9106882
350.519914
352.1251117
353.7221702
355.3108956
356.8898082
358.4596111
360.0197179
361.5679382
363.1022991
364.6122052
366.0849232
367.5034826
368.8635048
370.1647639
371.4078094
314.7165222
314.8107175
315.0130282
315.3122233
315.7026741
316.1805842
316.739958
317.3784196
318.0917129
318.8756081
319.7274779
320.6438905
321.6215958
322.6574476
323.7483473
324.8913026
326.0833668
327.3209486
328.6013668
329.9219876
331.2794528
332.670396
334.0926873
335.542106
337.0168552
338.512969
340.0282707
341.5588713
343.1029258
344.6561497
346.2172126
347.7818021
349.348378
350.9136151
352.4750787
354.0307516
355.578045
357.1179743
358.6492925
360.1724941
361.6845553
363.183949
364.6599609
366.1006694
367.4897559
368.8231808
370.1006984
371.3230987
372.499761
373.6402641
318.0273323
318.1256282
318.3358536
318.6471236
319.0537352
319.5492198
320.1301585
320.7904175
321.5270327
322.3356674
323.212241
324.1528502
325.15382
326.2115824
327.3226185
328.4835618
329.6911266
330.9420475
332.2328365
333.5597422
334.9204088
336.3111899
337.7287226
339.1707615
340.6327496
342.1132989
343.6078133
345.1149223
346.6301261
348.1523942
349.6770122
351.2033903
352.7271321
354.2475648
355.7617162
357.2707021
358.7734849
360.2699672
361.7576363
363.2343733
364.6901329
366.1130666
367.4871784
368.8085942
370.0768051
371.2928158
372.4647973
373.6025319
374.7162971
375.8164998
321.3630576
321.4635182
321.6791046
321.9982684
322.4138131
322.9206183
323.5131888
324.1872088
324.9369626
325.7587167
326.6481345
327.6009678
328.6131848
329.6808815
330.8002809
331.9677287
333.1795294
334.4315754
335.7211073
337.044849
338.3986878
339.7798217
341.1853555
342.6109807
344.0550958
345.5133458
346.9838798
348.4630184
349.9486236
351.4375801
352.9277247
354.4164183
355.9024506
357.3856198
358.8656276
360.3416651
361.8116214
363.2728824
364.7158141
366.1284936
367.4948899
368.8112691
370.0767636
371.2921509
372.4653601
373.6060544
374.7244904
375.8311436
376.9343207
378.0395857
324.6833224
324.7851892
325.0037366
325.3264884
325.7467653
326.259252
326.8575856
327.5371894
328.2932556
329.1207507
330.0148111
330.9714717
331.9864341
333.0555384
334.17475
335.339833
336.5474072
337.7938851
339.0757991
340.38884
341.7301811
343.0969022
344.4845962
345.8912189
347.3133674
348.7477046
350.1923425
351.6430201
353.0989241
354.5558201
356.013897
357.4717834
358.9296639
360.3861238
361.8392444
363.2860904
364.7172112
366.1206325
367.480442
368.792424
370.055465
371.2703511
372.4439916
373.5862187
374.7071618
375.8172741
376.924896
378.0356292
379.1522417
380.2747581
327.9605169
328.0629279
328.2821325
328.6059327
329.028065
329.5415314
330.1418015
330.8221377
331.5785124
332.4057987
333.2991296
334.2538902
335.2656427
336.3301218
337.4432455
338.6010835
339.7997961
341.035672
342.304634
343.6032418
344.928551
346.2768609
347.644556
349.0294932
350.4275669
351.8365781
353.2538711
354.6759896
356.1028127
357.5323683
358.965104
360.3991059
361.8324471
363.2621556
364.678761
366.070402
367.4217881
368.7271723
369.9854616
371.1980786
372.3691139
373.509265
374.6283536
375.7367191
376.8427246
377.9520316
379.0675004
380.1892436
381.3141793
382.4373711
331.1759552
331.2779392
331.4966579
331.8201057
332.2413148
332.753415
333.3515824
334.0299196
334.7829148
335.6060383
336.4943124
337.4430087
338.4475848
339.5036687
340.6070453
341.7537069
342.9397835
344.1614842
345.4142969
346.695531
348.0018413
349.3292113
350.6745611
352.0355228
353.4080023
354.7900129
356.1802228
357.5766158
358.9794489
360.3864911
361.7956686
363.2042466
364.6025945
365.9791589
367.319807
368.6162602
369.8677145
371.0757571
372.2434544
373.3792455
374.4938925
375.5975978
376.6988131
377.8033595
378.9143399
380.0321168
381.1542798
382.2760135
383.3920709
384.4989559
334.3174219
334.4188814
334.6364533
334.9581492
335.3765032
335.885536
336.4794398
337.1531526
337.9002349
338.7164997
339.5969058
340.5366063
341.5309914
342.5756585
343.6663325
344.7989196
345.9694954
347.1741854
348.4085474
349.6697841
350.9545738
352.2591624
353.5799256
354.9150011
356.2620189
357.6194283
358.9867236
360.3615324
361.7415706
363.1243275
364.5003767
365.8582803
367.1855662
368.4706951
369.7133318
370.9144113
372.0777738
373.2089709
374.317506
375.4147729
376.5093575
377.6073097
378.7120734
379.8243725
380.9422297
382.0615368
383.1770171
384.284248
385.3818882
386.4696393
337.3781117
337.4787213
337.6944522
338.0133783
338.4278431
338.9322422
339.5203857
340.1873444
340.9266932
341.7340333
342.6044058
343.5329042
344.514863
345.5458067
346.6214293
347.737605
348.890349
350.0758579
351.2898656
352.5289769
353.7901652
355.0704632
356.3668836
357.6785008
359.0038894
360.340499
361.6858539
363.037259
364.3865304
365.7216079
367.0306861
368.3028868
369.5342101
370.726208
371.8821045
373.0074704
374.1101327
375.1996104
376.2857339
377.3752711
378.4720599
379.5772476
380.6893594
381.8046233
382.9180408
384.0251007
385.123613
386.2128082
387.2926101
388.3625809
340.3535687
340.4530656
340.6663955
340.981733
341.3915526
341.8900363
342.4712615
343.1300982
343.8600366
344.6569188
345.5155952
346.4311516
347.3988875
348.4142751
349.4729734
350.5708527
351.7039279
352.8683615
354.0605265
355.2766795
356.5146087
357.7727627
359.0490688
360.3407096
361.6451181
362.9593284
364.2763363
365.5835806
366.8695337
368.1251034
369.3421441
370.5222017
371.6681442
372.7847292
373.8790097
374.9599846
376.0366396
377.1159616
378.2027011
379.298821
380.4033837
381.5129994
382.6228906
383.7283156
384.8264434
385.9163356
386.9977147
388.0701303
389.1329625
390.1855891
343.2410648
343.3392355
343.549712
343.8608067
344.2654905
344.7570167
345.3304715
345.9796952
346.6992568
347.4844795
348.3301948
349.2314618
350.1835681
351.1819978
352.2223888
353.3005763
354.4126863
355.5553825
356.7259861
357.9221032
359.1412969
360.3803396
361.6367625
362.9071871
364.1855499
365.459056
366.7164824
367.9484821
369.149129
370.3135975
371.4463855
372.5513607
373.6347015
374.704577
375.7696868
376.8371686
377.9119564
378.99659
380.0911708
381.193141
382.297803
383.4000919
384.4964872
385.5857023
386.6673441
387.7410002
388.8060369
389.8618385
390.9076602
391.9426561
346.0389432
346.1359977
346.3432917
346.649572
347.0483845
347.5324746
348.0973709
348.7360392
349.4444074
350.2170868
351.0484706
351.9339808
352.8691676
353.8495293
354.8709101
355.9296913
357.0228012
358.1473497
359.300088
360.4783663
361.6789226
362.8981557
364.1303494
365.3633188
366.5858116
367.7883855
368.9645763
370.111284
371.2275943
372.3174464
373.3867228
374.4426535
375.4935574
376.5466662
377.6071866
378.6781356
379.7601568
380.8514427
381.9481426
383.0452848
384.1385049
385.2255931
386.3061237
387.3797568
388.4458456
389.5036976
390.5525971
391.5916667
392.6199593
393.6365956
348.7467147
348.8421249
349.0466631
349.3480785
349.7399384
350.216782
350.7715337
351.3999363
352.0963914
352.8548607
353.6713371
354.5409911
355.4593806
356.4225723
357.4270433
358.4694168
359.5463804
360.6545726
361.7904384
362.9501455
364.127898
365.312325
366.4923573
367.6585161
368.8038854
369.9246756
371.0202184
372.0921793
373.1445577
374.1831907
375.2167249
376.2524852
377.2958926
378.3504104
379.4172177
380.4951957
381.5809901
382.6699402
383.757429
384.8406515
385.9185491
386.990684
388.0564562
389.1151051
390.1659118
391.2079494
392.2403207
393.2620102
394.2722597
395.2706353
351.3655507
351.4591894
351.6599233
351.956551
352.3418356
352.8098366
353.3553297
353.9724642
354.6558794
355.4013064
356.2038993
357.0590293
357.9629629
358.9119535
359.9022045
360.9299542
361.9913082
363.0821713
364.1961472
365.322904
366.4518132
367.5733975
368.6804104
369.7684262
370.8358745
371.8835175
372.9142848
373.9332152
374.947192
375.9631884
376.9867812
378.0218349
379.0702107
380.1317091
381.2037118
382.2817645
383.3609944
384.4378051
385.5107216
386.5791549
387.6425454
388.7001128
389.751081
390.79458
391.8296221
392.855138
393.8702007
394.8742017
395.8667512
396.8475771
353.8962471
353.9884585
354.1859647
354.4767243
354.8552319
355.315349
355.8511439
356.4579383
357.1309495
357.8646594
358.6554231
359.4988333
360.3906559
361.3267381
362.3028067
363.3142012
364.354251
365.4134574
366.4816055
367.5494517
368.6095829
369.6570336
370.6893925
371.7065014
372.7101951
373.7043594
374.694694
375.6875111
376.6882598
377.700936
378.7278128
379.7692326
380.8234047
381.886709
382.9544403
384.0222936
385.0879911
386.150601
387.2094613
388.2639295
389.3131344
390.356243
391.392232
392.4200193
393.4385241
394.4469395
395.4447543
396.4316026
397.4071728
398.3711261
356.3434182
356.4339499
356.6280159
356.9147724
357.2876403
357.7406809
358.2692643
358.8676524
359.531429
360.2560575
361.0365972
361.8685199
362.7474938
363.668169
364.6232871
365.6038649
366.6004557
367.60421
368.6077345
369.6056476
370.5947925
371.5740911
372.5442771
373.5080347
374.4697894
375.4350351
376.4089366
377.3954988
378.3973122
379.4152003
380.4480717
381.4928574
382.5452331
383.6006811
384.6560996
385.7101085
386.7620161
387.8110814
388.8563876
389.8970553
390.9320717
391.9603353
392.9806579
393.992033
394.993783
395.9854295
396.9666096
397.93693
398.8960199
399.8436235
358.7173878
358.8068676
358.9986776
359.2817501
359.6497144
360.0976425
360.6192908
361.2107347
361.8659267
362.580604
363.349863
364.1677627
365.0256203
365.9153491
366.8284153
367.7565024
368.692441
369.6305867
370.5671766
371.5002421
372.4294418
373.3562327
374.2836918
375.2163206
376.158811
377.1150791
378.0879274
379.0784013
380.0860168
381.108387
382.1417217
383.1812633
384.2230888
385.2653882
386.3072853
387.348067
388.3867844
389.4224487
390.4540816
391.4805395
392.5006188
393.5131424
394.5172108
395.5122073
396.4976613
397.4731515
398.4382404
399.3925542
400.3357898
401.2675692
361.0288413
361.1174174
361.3067914
361.5864543
361.9504978
362.3927242
362.9081141
363.4908766
364.1361409
364.8349798
365.5814641
366.3678567
367.1860117
368.0262155
368.8824276
369.7493603
370.6228385
371.5000755
372.3797227
373.2620226
374.1486377
375.0424775
375.9489338
376.8709375
377.8107632
378.7696304
379.747465
380.7425463
381.7516424
382.7705021
383.7949388
384.8222493
385.8510825
386.8806079
387.9098979
388.9378901
389.9635812
390.9858198
392.0033833
393.0149641
394.0194446
395.0160353
396.004141
396.9832855
397.9529648
398.912705
399.8621545
400.8008879
401.7285527
402.6447824
363.2849036
363.3721109
363.5589863
363.8349582
364.1936109
364.6269026
365.1310175
365.6956716
366.3166961
366.9847161
367.6914763
368.4313844
369.1975744
369.9812372
370.7796991
371.5902167
372.4105387
373.2397374
374.0774191
374.9267002
375.7913934
376.6736831
377.5754795
378.4980209
379.4415191
380.4048283
381.3852427
382.3789246
383.3815681
384.3897438
385.4016653
386.4162967
387.4327225
388.4498341
389.4665045
390.4816113
391.4938833
392.5019947
393.504646
394.5008083
395.4897328
396.4708216
397.443536
398.4073259
399.3617065
400.3062786
401.2405637
402.1642005
403.0766367
403.9776761
365.4810903
365.5658106
365.7471137
366.0142366
366.3584048
366.773253
367.2526874
367.7865712
368.3703474
368.9957184
369.6546601
370.3442914
371.0577069
371.7891994
372.5391042
373.3054138
374.0864183
374.8832114
375.6992544
376.5357122
377.3939087
378.2749144
379.1790929
380.1057817
381.0525078
382.0158369
382.9916569
383.9761534
384.9670067
385.9628593
386.962703
387.9654008
388.9697255
389.9745237
390.9785
391.9802999
392.9784914
393.9718193
394.9593446
395.9403281
396.9141576
397.8802091
398.8378912
399.7867309
400.7262105
401.6558673
402.5752486
403.4839535
404.3816368
405.2679046
367.5814381
367.6613398
367.8321753
368.0834882
368.4050905
368.7925113
369.2393765
369.7351458
370.2779881
370.857848
371.4719184
372.1165706
372.7836652
373.4760749
374.1913607
374.9271836
375.6868217
376.4705963
377.2790034
378.1128198
378.9724828
379.8569111
380.7641675
381.6913746
382.6348269
383.5906322
384.5558061
385.5285633
386.5076762
387.4920028
388.4802561
389.4711493
390.4634069
391.4556195
392.4463338
393.4341055
394.4177444
395.3963438
396.3691548
397.3355093
398.2947286
399.2461908
400.1894016
401.1237167
402.04864
402.9636893
403.8684931
404.7626125
405.6456152
406.5171875
369.5441785
369.6179939
369.7758208
370.0080113
370.3059695
370.6634637
371.0776181
371.5371677
372.0423339
372.5834691
373.162015
373.7687013
374.4072
375.0741003
375.7687467
376.4922362
377.2439743
378.024323
378.8332006
379.6695088
380.5316259
381.417092
382.3225944
383.2442459
384.1785354
385.1232263
386.0768888
387.0383848
388.0063424
388.9793502
389.9560844
390.9350955
391.9148862
392.8938946
393.8707074
394.8442062
395.8134831
396.7777665
397.7363009
398.6883606
399.6333262
400.5705872
401.4995466
402.4196633
403.3304066
404.2313564
405.1219777
406.001686
406.8703357
407.7276613
371.3531403
371.4210545
371.5663718
371.7804374
372.0579598
372.3903068
372.7748567
373.2083379
373.6821574
374.1983338
374.7496533
375.3377415
375.9593996
376.614522
377.3022575
378.0221174
378.7737462
379.555768
380.3667205
381.2044897
382.0658764
382.94699
383.8444207
384.755694
385.6790219
386.6129528
387.5560798
388.5069112
389.4639759
390.4258286
391.390907
392.3576225
393.324369
394.2897712
395.252742
396.2123582
397.1678075
398.1182156
399.0628178
400.0010203
400.9320987
401.8554593
402.7704722
403.6766256
404.5734073
405.460289
406.3368206
407.2027114
408.0574985
408.9010899
373.0169926
373.0811618
373.2176019
373.4174938
373.6773428
373.9931923
374.3593379
374.7726435
375.2313637
375.7312072
376.2717211
376.8504571
377.4666535
378.1187422
378.8064003
379.5276963
380.2811686
381.0648498
381.8755457
382.7099344
383.5646773
384.4368888
385.3244406
386.2256404
387.138994
388.0627842
388.9955714
389.9358447
390.8819852
391.832342
392.7852155
393.7390201
394.6924372
395.6443682
396.5938606
397.5400122
398.481947
399.4188748
400.3500871
401.2748302
402.1924692
403.1022423
404.0036287
404.8960923
405.7790627
406.6521262
407.5149378
408.3672101
409.2087755
410.0393242
374.5628363
374.6238666
374.7547033
374.9480531
375.1995538
375.5046742
375.8613509
376.2665471
376.7174273
377.2121776
377.7491784
378.3264685
378.9428853
379.5968055
380.2862277
381.0093032
381.7629792
382.5442902
383.3500409
384.1771059
385.0227473
385.8853995
386.7634599
387.6552286
388.5589935
389.4730876
390.3958798
391.3256457
392.2606547
393.1991328
394.1394906
395.0803835
396.0207747
396.959681
397.8961099
398.8291326
399.75795
400.6817401
401.5997444
402.5112389
403.4155474
404.3120817
405.2002071
406.0791973
406.9486678
407.8082967
408.6578206
409.4970437
410.3258317
411.1440873
376.0282185
376.0881155
376.2164987
376.4062901
376.6537727
376.9557273
377.3094426
377.7124143
378.1620734
378.6572702
379.1951314
379.774735
380.3933319
381.0491461
381.7392564
382.4609027
383.2111097
383.9862287
384.7839914
385.6024899
386.4398139
387.2941762
388.1637567
389.0465147
389.940972
390.8453547
391.757852
392.6766223
393.5999047
394.5261722
395.454122
396.382603
397.3105527
398.2369303
399.1607548
400.0811037
400.9971292
401.908081
402.8131475
403.7116586
404.6029369
405.4863023
406.3611648
407.2270919
408.0835343
408.9301964
409.7669799
410.5937476
411.4103882
412.2168496
377.439633
377.4992576
377.6272054
377.8165994
378.0637525
378.3660587
378.7206006
379.1246853
379.5768549
380.0741629
380.6148059
381.1963193
381.8160147
382.4711196
383.1589407
383.8755915
384.6191093
385.3872623
386.1779159
386.9887891
387.8182836
388.6645297
389.5256659
390.3998614
391.285226
392.179884
393.0817731
393.9892118
394.9007618
395.8151029
396.7310498
397.6474473
398.5631983
399.4773065
400.3888449
401.296872
402.200562
403.0989723
403.9914051
404.8771741
405.7555535
406.6259732
407.4879455
408.3410403
409.1849601
410.01924
410.8438768
411.6587953
412.4639082
413.2591587
378.8147786
378.8746673
379.0032066
379.1936304
379.4426284
379.7468347
380.1035302
380.5104503
380.9649161
381.4642978
382.0062323
382.5874447
383.2056034
383.8569517
384.5393786
385.250595
385.9878677
386.7493544
387.5331866
388.3373088
389.1597042
389.9981767
390.8510498
391.7163697
392.5921504
393.4764623
394.3675742
395.2639738
396.1643008
397.0671953
397.9715314
398.8761769
399.7801195
400.6823215
401.5818282
402.477726
403.3691524
404.2553495
405.1354924
406.0086408
406.8743956
407.7322136
408.5816744
409.4224473
410.2542642
411.0768105
411.8898882
412.6935464
413.4877467
414.2724612
380.1630223
380.2234564
380.3531598
380.5452009
380.7958905
381.1021502
381.4608811
381.8694642
382.3249734
382.8243698
383.364909
383.9435411
384.5574588
385.2046122
385.8818099
386.5874044
387.3192605
388.0750122
388.8523601
389.6496208
390.4647446
391.2956709
392.1403513
392.996468
393.8623334
394.7362552
395.6166993
396.5022679
397.3916311
398.2835129
399.1767052
400.0700412
400.962461
401.8530327
402.7407554
403.6247624
404.5042085
405.3782454
406.246093
407.1070919
407.9605363
408.8061637
409.6436084
410.4725902
411.2928741
412.1042248
412.9063062
413.6993436
414.4832326
415.2578286
381.4879361
381.5487316
381.6791884
381.8722897
382.1242604
382.4312513
382.7905114
383.1990735
383.6531316
384.1507779
384.687962
385.2631915
385.8730471
386.5155565
387.1885445
387.8890541
388.6153639
389.3653362
390.1368199
390.9272852
391.7349874
392.5577856
393.3935878
394.2404678
395.0966163
395.9604127
396.8305658
397.7056522
398.5843373
399.4653921
400.3476638
401.2299942
402.111296
402.9904279
403.8666292
404.738969
405.6065497
406.4685976
407.3244687
408.1735418
409.0151495
409.8490611
410.6750204
411.4927621
412.3020863
413.1027262
413.8944719
414.6774199
415.4513993
416.2162947
382.7883172
382.8492525
382.9799639
383.1732624
383.424654
383.7311157
384.0894758
384.4958093
384.9478845
385.4423692
385.9767817
386.5482149
387.1547075
387.7928911
388.4611781
389.1571758
389.8780776
390.6221637
391.3871968
392.1709704
392.9709129
393.7852091
394.6119925
395.4495099
396.2961406
397.150364
398.0104946
398.8753447
399.7436622
400.6141833
401.4857292
402.3571862
403.2274718
404.0955604
404.9604066
405.8211765
406.6770982
407.5274698
408.3716667
409.2091978
410.0394491
410.8621751
411.6771813
412.4842292
413.2831264
414.0736642
414.8555392
415.628784
416.3932736
417.1488931
384.0613062
384.1220934
384.2521765
384.4444038
384.6948505
385.0000622
385.3563045
385.7605827
386.2102901
386.7018279
387.2333126
387.8013045
388.4038297
389.0382351
389.701867
390.392803
391.1085828
391.846537
392.6047549
393.3809787
394.1730901
394.9788722
395.7967831
396.6251968
397.4624934
398.3071426
399.157685
400.0126199
400.8707771
401.7309654
402.5919822
403.452731
404.3121901
405.1693255
406.0229255
406.8723627
407.7169063
408.5559246
409.3888856
410.2153282
411.0346951
411.8467512
412.6513265
413.4482293
414.2373067
415.0181052
415.7904823
416.5544457
417.3098312
418.056315
385.30444
385.3647966
385.4942211
385.6855671
385.9348434
386.2383878
386.5925834
386.994927
387.4418839
387.9309212
388.4590752
389.0238981
389.6224533
390.2527568
390.9118031
391.59742
392.3073551
393.0389886
393.789982
394.5584658
395.342458
396.140084
396.9493533
397.7688522
398.5969828
399.4322565
400.2732722
401.1185791
401.9667817
402.8167738
403.6674413
404.5176754
405.3663882
406.2125613
407.0552161
407.8935675
408.7270715
409.5551536
410.3773278
411.1931706
412.0021118
412.8039942
413.5986983
414.3860033
415.1656346
415.9370193
416.7003191
417.4553473
418.2019347
418.9396912
386.5183031
386.578383
386.7072119
386.897672
387.1457847
387.4474104
387.7998967
388.2001305
388.6444588
389.1308704
389.655693
390.2170967
390.8116958
391.4374159
392.0916949
392.7716016
393.4751614
394.2000569
394.9437807
395.7045672
396.4805875
397.2699974
398.0709278
398.8816466
399.7008128
400.5269073
401.3584993
402.1942531
403.0326473
403.8726347
404.7130878
405.5528632
406.3909319
407.2264142
408.058292
408.8859062
409.7087629
410.5263486
411.3382006
412.1439335
412.9428742
413.7351484
414.5204699
415.2985322
416.0689519
416.8314305
417.5859611
418.3323829
419.0704623
419.7998051
387.704361
387.7641635
387.8923938
388.08196
388.3284911
388.6286423
388.979356
389.3771435
389.8191085
390.3024991
390.8241669
391.3816724
391.9721999
392.5929927
393.2418135
393.9157624
394.6127432
395.3306694
396.0672964
396.8205249
397.5886865
398.3699611
399.162608
399.9647692
400.7750847
401.5921095
402.4144115
403.2406331
404.0694182
404.8994816
405.7297561
406.5591976
407.3868627
408.2118587
409.0332708
409.850519
410.6631618
411.4706952
412.2726991
413.0686424
413.8582294
414.641332
415.417611
416.1867899
416.9483303
417.7022048
418.4483162
419.1865064
419.9161683
420.6375435
388.8637315
388.9232486
389.05086
389.2393141
389.4844924
389.7831271
390.1320064
390.527324
390.9667226
391.4468564
391.9650858
392.5183806
393.104352
393.7198197
394.3628163
395.0307173
395.7210991
396.4321261
397.1616936
397.9074386
398.6678162
399.4410647
400.225489
401.0192114
401.8207985
402.6288347
403.4419349
404.2587852
405.0779575
405.8981161
406.7183585
407.5376761
408.3551528
409.1700095
409.981262
410.788571
411.5914241
412.3893551
413.181936
413.9686062
414.749228
415.5234837
416.2910747
417.0515868
417.8046249
418.5502612
419.2882836
420.0182463
420.7400358
421.4537322
389.9974831
390.0567039
390.1836079
390.3709016
390.6147775
390.9117617
391.2584124
391.65129
392.0878467
392.5644434
393.0787978
393.6275085
394.2084773
394.8185319
395.4556372
396.1174444
396.8013082
397.5054867
398.2279123
398.9663072
399.7190245
400.4843558
401.2605884
402.0459561
402.838846
403.6380006
404.442011
405.249511
406.0590365
406.8694565
407.6798477
408.4892666
409.2968811
410.1018591
410.9034036
411.7011768
412.4946648
413.2834185
414.0669752
414.8448245
415.6167896
416.3825469
417.1417862
417.8937853
418.6387606
419.3764491
420.1065402
420.8286092
421.5428556
422.249127
391.1064398
391.1653033
391.291321
391.4775363
391.7199592
392.015098
392.3592984
392.7494479
393.1827127
393.6554948
394.1656211
394.7095796
395.2853707
395.8899996
396.5212467
397.1769203
397.8543096
398.5516733
399.2670007
399.9981405
400.7432372
401.5007032
402.2688328
403.0458121
403.8301311
404.6204693
405.4153954
406.2135624
407.0135825
407.8144172
408.6151922
409.4150198
410.2131025
411.008517
411.800774
412.5894146
413.3739645
414.1540349
414.928798
415.6981772
416.4618286
417.21941
417.9702629
418.7143684
419.4515349
420.1815127
420.9037577
421.6184155
422.3253662
423.0242922
392.191033
392.2494439
392.3746458
392.5596238
392.8003767
393.0933893
393.4348797
393.8219875
394.2516261
394.7204659
395.2261314
395.7653398
396.3359451
396.9351383
397.560524
398.2100275
398.8809682
399.5715873
400.2799163
401.0037538
401.7413033
402.4909447
403.2509943
404.0196704
404.7954406
405.5769551
406.3628367
407.1518561
407.9424545
408.7339493
409.5253975
410.3159571
411.1047946
411.8910587
412.6744094
413.454343
414.230408
415.001852
415.7683199
416.5295649
417.2851997
418.0346482
418.7776517
419.5140858
420.24369
420.9659863
421.6808984
422.3883867
423.0882141
423.7799454
393.2514523
393.3094304
393.4336954
393.6172651
393.8561426
394.1468094
394.4854239
394.869302
395.2952127
395.7599964
396.2611748
396.7956136
397.3610283
397.9547301
398.5742614
399.2176057
399.8821596
400.5660663
401.2674014
401.983979
402.7139796
403.4558487
404.2079165
404.9682466
405.735452
406.5082081
407.2852089
408.0650522
408.8465801
409.6290081
410.4114466
411.1930738
411.9729011
412.7504793
413.5253466
414.296989
415.0647115
415.8279114
416.5864199
417.339805
418.0875515
418.8291962
419.5646644
420.2936807
421.015814
421.730804
422.4386707
423.139236
423.8318804
424.5169743
394.287812
394.3453173
394.4685639
394.6506163
394.8874975
395.1756636
395.5113759
395.8919352
396.3141053
396.7748091
397.2714951
397.8010973
398.3613252
398.9494971
399.5632307
400.2004995
400.8586073
401.5358407
402.2302348
402.9394939
403.662028
404.3961831
405.1402439
405.8921794
406.6509086
407.4150469
408.1832848
408.9541608
409.7268774
410.5005492
411.2742962
412.0471916
412.8184745
413.5877877
414.3545541
415.1181197
415.8776621
416.633073
417.3838761
418.1295963
418.8695988
419.6038425
420.332033
421.053767
421.7686371
422.4767024
423.1777783
423.8712354
424.5573531
425.2360143
395.3003271
395.3573409
395.4795317
395.6600183
395.894852
396.1805078
396.5133095
396.8905282
397.3089513
397.7655185
398.2577197
398.7824498
399.3375154
399.9202045