/*--------------------------------*- C++ -*----------------------------------*\
  =========                 |
  \\      /  F ield         | OpenFOAM: The Open Source CFD Toolbox
   \\    /   O peration     | Website:  https://openfoam.org
    \\  /    A nd           | Version:  7
     \\/     M anipulation  |
\*---------------------------------------------------------------------------*/
FoamFile
{
    version     2.0;
    format      ascii;
    class       volVectorField;
    location    "0.0006";
    object      U;
}
// * * * * * * * * * * * * * * * * * * * * * * * * * * * * * * * * * * * * * //

dimensions      [0 1 -1 0 0 0 0];

internalField   nonuniform List<vector> 
14000
(
(-6.072857285e-08 3.318162925e-20 -0.002000023234)
(-1.593329718e-07 3.464443919e-20 -0.002000029053)
(-2.538642443e-07 2.082731993e-20 -0.002000043687)
(-3.535454693e-07 3.679508571e-21 -0.002000064794)
(-4.564175868e-07 -1.589260317e-20 -0.002000092261)
(-5.622497077e-07 -3.374963018e-21 -0.002000125866)
(-6.716293488e-07 3.704817928e-21 -0.002000165327)
(-7.850704087e-07 7.844049015e-21 -0.002000210398)
(-9.029116723e-07 1.030800405e-20 -0.002000260876)
(-1.025365742e-06 1.198732204e-20 -0.002000316596)
(-1.152536065e-06 1.326707937e-20 -0.002000377422)
(-1.284419552e-06 1.4147037e-20 -0.002000443246)
(-1.420909863e-06 1.485538424e-20 -0.002000513985)
(-1.561801312e-06 1.567885737e-20 -0.00200058958)
(-1.706791632e-06 1.652891488e-20 -0.002000669989)
(-1.855484823e-06 1.727831187e-20 -0.002000755185)
(-2.007401869e-06 1.781776356e-20 -0.002000845157)
(-2.161989569e-06 1.860234036e-20 -0.002000939908)
(-2.318599112e-06 1.96413522e-20 -0.002001039457)
(-2.476475572e-06 2.045505372e-20 -0.002001143839)
(-2.634773802e-06 2.119355773e-20 -0.002001253102)
(-2.792577439e-06 2.190675594e-20 -0.002001367306)
(-2.948900251e-06 2.252944637e-20 -0.002001486529)
(-3.102650817e-06 2.869823955e-20 -0.00200161086)
(-3.252643013e-06 3.465873279e-20 -0.002001740398)
(-3.397621914e-06 4.045582797e-20 -0.002001875247)
(-3.536233258e-06 4.607425233e-20 -0.002002015504)
(-3.667040523e-06 4.588524721e-20 -0.002002161248)
(-3.788517548e-06 4.587793608e-20 -0.002002312521)
(-3.899043641e-06 5.147277756e-20 -0.002002469309)
(-3.996932083e-06 5.724959999e-20 -0.002002631517)
(-4.080383769e-06 5.875066649e-20 -0.002002798949)
(-4.147473231e-06 6.037346463e-20 -0.002002971274)
(-4.19617945e-06 6.239977633e-20 -0.002003147999)
(-4.224393121e-06 6.487658438e-20 -0.002003328458)
(-4.229874611e-06 6.746277632e-20 -0.002003511797)
(-4.210246665e-06 7.015253654e-20 -0.002003696967)
(-4.163000371e-06 7.305190227e-20 -0.002003882733)
(-4.085502772e-06 7.614692949e-20 -0.002004067679)
(-3.974973124e-06 7.944230787e-20 -0.002004250228)
(-3.828473732e-06 7.969693479e-20 -0.002004428647)
(-3.642940846e-06 8.029604735e-20 -0.002004601057)
(-3.415180258e-06 8.126931284e-20 -0.002004765422)
(-3.14187917e-06 8.248639955e-20 -0.002004919522)
(-2.819588058e-06 8.398671347e-20 -0.002005060904)
(-2.44476741e-06 8.579192952e-20 -0.002005186806)
(-2.014141157e-06 8.794685152e-20 -0.002005294064)
(-1.524655394e-06 8.706627277e-20 -0.002005379056)
(-9.694577787e-07 8.64905273e-20 -0.002005437458)
(-3.356165019e-07 8.620993255e-20 -0.002005463288)
(-1.560978314e-07 7.330416093e-20 -0.002003016379)
(-4.09047741e-07 1.472523599e-19 -0.002003034829)
(-6.478374437e-07 2.096973743e-19 -0.002003075767)
(-8.924965018e-07 1.786167067e-19 -0.002003135542)
(-1.135692005e-06 1.650409448e-19 -0.002003212665)
(-1.374942348e-06 1.581494391e-19 -0.002003305557)
(-1.610069209e-06 1.086576743e-19 -0.002003412684)
(-1.840975233e-06 6.82122913e-20 -0.002003532591)
(-2.067393176e-06 3.331296045e-20 -0.002003663907)
(-2.288958993e-06 3.46619892e-20 -0.002003805342)
(-2.505219658e-06 3.471343784e-20 -0.002003955692)
(-2.71564145e-06 3.331697495e-20 -0.002004113837)
(-2.919611237e-06 3.003785962e-20 -0.002004278734)
(-3.1164524e-06 3.674162206e-20 -0.002004449416)
(-3.305448981e-06 4.122600375e-20 -0.002004624985)
(-3.485809919e-06 3.38430909e-20 -0.002004804611)
(-3.656662404e-06 3.523398606e-20 -0.002004987527)
(-3.817124666e-06 4.419630285e-20 -0.00200517303)
(-3.966282314e-06 5.146889646e-20 -0.002005360481)
(-4.103176461e-06 5.720162974e-20 -0.0020055493)
(-4.226846236e-06 6.205950038e-20 -0.002005738968)
(-4.336324456e-06 6.630018112e-20 -0.002005929026)
(-4.430644082e-06 7.588131106e-20 -0.002006119074)
(-4.508872725e-06 8.506798476e-20 -0.00200630878)
(-4.570101548e-06 9.351808776e-20 -0.002006497864)
(-4.613445688e-06 9.536551312e-20 -0.002006686108)
(-4.638085464e-06 9.722371114e-20 -0.00200687335)
(-4.643278825e-06 9.931265799e-20 -0.002007059479)
(-4.62835636e-06 1.009163323e-19 -0.002007244431)
(-4.592720524e-06 1.022912932e-19 -0.002007428179)
(-4.535875482e-06 1.039944156e-19 -0.002007610718)
(-4.457460202e-06 1.059253351e-19 -0.002007792044)
(-4.357253529e-06 1.077649214e-19 -0.002007972121)
(-4.23517447e-06 1.098810923e-19 -0.002008150845)
(-4.091308477e-06 1.122500155e-19 -0.002008328)
(-3.925942652e-06 1.146512994e-19 -0.002008503206)
(-3.739577216e-06 1.170094305e-19 -0.002008675879)
(-3.532939977e-06 1.193469044e-19 -0.002008845188)
(-3.307012024e-06 1.217829332e-19 -0.002009010034)
(-3.063057136e-06 1.244187636e-19 -0.002009169063)
(-2.802632324e-06 1.275256711e-19 -0.002009320687)
(-2.527588013e-06 1.271215097e-19 -0.002009463159)
(-2.240094665e-06 1.233506115e-19 -0.002009594654)
(-1.942658526e-06 1.199732726e-19 -0.002009713385)
(-1.638137233e-06 1.169155985e-19 -0.00200981772)
(-1.329738921e-06 1.141456673e-19 -0.002009906317)
(-1.02097757e-06 1.115397454e-19 -0.002009978241)
(-7.158033766e-07 1.097321251e-19 -0.002010033064)
(-4.190608224e-07 1.0816275e-19 -0.002010070993)
(-1.357735091e-07 1.073808145e-19 -0.002010093035)
(-1.856253296e-07 7.658094319e-21 -0.002007843484)
(-4.85370767e-07 -3.942506774e-20 -0.002007861589)
(-7.653812222e-07 6.450568155e-20 -0.002007900069)
(-1.049036327e-06 1.422873996e-19 -0.002007956403)
(-1.32667645e-06 2.069792936e-19 -0.002008029114)
(-1.594508681e-06 1.911453711e-19 -0.002008116572)
(-1.851629907e-06 1.85526669e-19 -0.002008217216)
(-2.097407771e-06 1.844085056e-19 -0.002008329542)
(-2.331122316e-06 1.856127828e-19 -0.002008452095)
(-2.552067806e-06 1.885004622e-19 -0.002008583488)
(-2.759601841e-06 1.934405426e-19 -0.002008722415)
(-2.95314791e-06 1.990040185e-19 -0.00200886765)
(-3.132140679e-06 1.91502037e-19 -0.002009018064)
(-3.296032918e-06 1.842319859e-19 -0.002009172618)
(-3.444330659e-06 1.803239739e-19 -0.002009330377)
(-3.57656942e-06 1.761594139e-19 -0.002009490505)
(-3.692323974e-06 1.73295622e-19 -0.002009652265)
(-3.791205097e-06 1.714488517e-19 -0.002009815017)
(-3.872872698e-06 1.704795346e-19 -0.00200997822)
(-3.937093015e-06 1.708490968e-19 -0.002010141422)
(-3.983706073e-06 1.723338307e-19 -0.002010304258)
(-4.012589818e-06 1.747912335e-19 -0.002010466436)
(-4.023693392e-06 1.700355004e-19 -0.002010627731)
(-4.017079064e-06 1.613761458e-19 -0.002010787966)
(-3.992911971e-06 1.611829842e-19 -0.002010946996)
(-3.95143441e-06 1.558520305e-19 -0.002011104688)
(-3.892996092e-06 1.457953702e-19 -0.002011260892)
(-3.818035611e-06 1.430373808e-19 -0.002011415426)
(-3.727089714e-06 1.411832554e-19 -0.002011568051)
(-3.620815731e-06 1.349389338e-19 -0.002011718447)
(-3.49996171e-06 1.294011376e-19 -0.002011866207)
(-3.365371371e-06 1.287555555e-19 -0.002012010825)
(-3.218005202e-06 1.286782386e-19 -0.002012151707)
(-3.058914739e-06 1.338382184e-19 -0.002012288185)
(-2.889243946e-06 1.349678168e-19 -0.002012419537)
(-2.710232678e-06 1.364810833e-19 -0.002012545021)
(-2.523207106e-06 1.33698181e-19 -0.002012663904)
(-2.329594629e-06 1.273278595e-19 -0.002012775494)
(-2.130888098e-06 1.176068807e-19 -0.002012879171)
(-1.928646595e-06 1.085530078e-19 -0.002012974407)
(-1.724495652e-06 1.026933164e-19 -0.002013060788)
(-1.520109275e-06 1.011118621e-19 -0.00201313802)
(-1.317187062e-06 9.982833869e-20 -0.002013205943)
(-1.117412357e-06 9.867695766e-20 -0.002013264534)
(-9.22435064e-07 9.767356653e-20 -0.002013313906)
(-7.338309618e-07 9.675561148e-20 -0.002013354305)
(-5.530405966e-07 9.58276523e-20 -0.002013386094)
(-3.813867443e-07 9.65696076e-20 -0.002013409737)
(-2.202628705e-07 9.714546652e-20 -0.00201342577)
(-7.092423284e-08 9.759153464e-20 -0.002013434824)
(-1.650641779e-07 2.178027764e-20 -0.002012663517)
(-4.318960904e-07 2.960728707e-21 -0.002012676406)
(-6.810497937e-07 -4.587062977e-20 -0.00201270282)
(-9.319673543e-07 1.250102199e-20 -0.002012741648)
(-1.175405718e-06 4.868265739e-20 -0.00201279188)
(-1.407662183e-06 7.331593585e-20 -0.002012852396)
(-1.627622324e-06 1.45866799e-19 -0.002012922149)
(-1.83449939e-06 2.080823842e-19 -0.002013000136)
(-2.027514639e-06 2.659686081e-19 -0.002013085385)
(-2.205966887e-06 2.895332236e-19 -0.002013176964)
(-2.369315148e-06 2.875208329e-19 -0.00201327399)
(-2.51712904e-06 2.940511505e-19 -0.002013375642)
(-2.649069e-06 3.060695239e-19 -0.002013481162)
(-2.764875629e-06 2.951092531e-19 -0.002013589855)
(-2.8643705e-06 2.889305843e-19 -0.002013701096)
(-2.947479393e-06 2.841840508e-19 -0.002013814322)
(-3.014217408e-06 2.624664731e-19 -0.002013929032)
(-3.064675539e-06 2.258693747e-19 -0.002014044781)
(-3.099039599e-06 1.933414951e-19 -0.002014161167)
(-3.117584519e-06 1.730153371e-19 -0.002014277831)
(-3.120649767e-06 1.547805339e-19 -0.002014394443)
(-3.108658566e-06 1.38126225e-19 -0.002014510692)
(-3.082117781e-06 1.1656873e-19 -0.00201462627)
(-3.041590877e-06 1.036178583e-19 -0.002014740866)
(-2.987723362e-06 9.160955716e-20 -0.002014854157)
(-2.921249127e-06 8.533735319e-20 -0.002014965806)
(-2.8429423e-06 7.993165095e-20 -0.002015075456)
(-2.753617615e-06 8.07864218e-20 -0.002015182732)
(-2.654164703e-06 8.155646156e-20 -0.002015287245)
(-2.545528282e-06 8.237554699e-20 -0.002015388598)
(-2.428691146e-06 8.333675084e-20 -0.002015486396)
(-2.304672809e-06 7.949410239e-20 -0.002015580253)
(-2.174541708e-06 7.589944075e-20 -0.002015669803)
(-2.039403788e-06 6.781006722e-20 -0.002015754707)
(-1.900361745e-06 6.044227881e-20 -0.002015834665)
(-1.758540739e-06 5.349484753e-20 -0.002015909418)
(-1.615068812e-06 5.072103457e-20 -0.002015978757)
(-1.471055533e-06 4.824865594e-20 -0.002016042525)
(-1.327591187e-06 4.976214504e-20 -0.002016100623)
(-1.18572791e-06 5.100635802e-20 -0.002016153009)
(-1.046470535e-06 4.842476934e-20 -0.002016199701)
(-9.107594319e-07 4.820790394e-20 -0.002016240774)
(-7.7945998e-07 5.363177201e-20 -0.002016276362)
(-6.533597023e-07 5.863781829e-20 -0.00201630665)
(-5.331587504e-07 6.324377146e-20 -0.00201633187)
(-4.194514298e-07 6.744738013e-20 -0.002016352294)
(-3.127190264e-07 7.113242189e-20 -0.002016368226)
(-2.133857738e-07 7.39459196e-20 -0.002016379991)
(-1.219654184e-07 7.494800653e-20 -0.002016387937)
(-3.906625478e-08 7.543666845e-20 -0.002016392439)
(-1.297574824e-07 9.618406246e-20 -0.002017095916)
(-3.389072837e-07 2.119832483e-19 -0.002017104173)
(-5.330740862e-07 1.678270945e-19 -0.002017120456)
(-7.278670557e-07 1.500000925e-19 -0.0020171445)
(-9.158076651e-07 1.445708257e-19 -0.002017175697)
(-1.093814236e-06 1.463244247e-19 -0.002017213381)
(-1.260843748e-06 1.523607659e-19 -0.002017256946)
(-1.416149197e-06 1.604387621e-19 -0.002017305815)
(-1.559050791e-06 1.6953837e-19 -0.00201735943)
(-1.689036994e-06 1.794413392e-19 -0.002017417255)
(-1.805717678e-06 1.907934574e-19 -0.002017478775)
(-1.908792711e-06 1.850190104e-19 -0.002017543507)
(-1.998110167e-06 1.946668291e-19 -0.002017610995)
(-2.073619145e-06 1.912592027e-19 -0.00201768081)
(-2.135350412e-06 1.76783931e-19 -0.002017752544)
(-2.183464931e-06 1.664583501e-19 -0.002017825816)
(-2.218205437e-06 1.578574747e-19 -0.002017900262)
(-2.239880189e-06 1.523352711e-19 -0.00201797553)
(-2.248893695e-06 1.38804309e-19 -0.00201805128)
(-2.245698507e-06 1.264399127e-19 -0.002018127178)
(-2.2308115e-06 1.078456744e-19 -0.002018202895)
(-2.204840824e-06 8.326662996e-20 -0.002018278101)
(-2.16844744e-06 6.744765449e-20 -0.002018352464)
(-2.122320794e-06 5.210483654e-20 -0.002018425658)
(-2.067181181e-06 3.238588496e-20 -0.002018497356)
(-2.003800682e-06 2.572553797e-20 -0.002018567238)
(-1.93298141e-06 2.420051574e-20 -0.002018634996)
(-1.85554327e-06 2.228160506e-20 -0.002018700333)
(-1.772332891e-06 2.014054587e-20 -0.002018762969)
(-1.684200496e-06 1.764587002e-20 -0.002018822647)
(-1.591991748e-06 1.488475979e-20 -0.002018879137)
(-1.49656424e-06 1.196625971e-20 -0.002018932238)
(-1.398755129e-06 1.331244279e-20 -0.00201898178)
(-1.299388915e-06 1.066338359e-20 -0.002019027634)
(-1.199269283e-06 1.098102995e-20 -0.002019069704)
(-1.099158964e-06 1.081512922e-20 -0.002019107933)
(-9.997959518e-07 1.382755922e-20 -0.002019142303)
(-9.018742349e-07 1.957433095e-20 -0.002019172833)
(-8.060393949e-07 2.772135133e-20 -0.002019199579)
(-7.128878242e-07 3.52677294e-20 -0.002019222629)
(-6.229662228e-07 4.23931487e-20 -0.002019242103)
(-5.367680044e-07 4.623575237e-20 -0.00201925815)
(-4.547232082e-07 4.97111677e-20 -0.002019270941)
(-3.772006048e-07 4.991024048e-20 -0.002019280669)
(-3.045183865e-07 5.316106482e-20 -0.002019287546)
(-2.369491647e-07 5.3462525e-20 -0.002019291788)
(-1.746874435e-07 5.382498134e-20 -0.002019293577)
(-1.178394776e-07 5.439735045e-20 -0.002019293094)
(-6.65291859e-08 5.50876911e-20 -0.002019290983)
(-2.113236432e-08 5.585475862e-20 -0.002019288919)
(-9.660022967e-08 4.51371686e-20 -0.002020972138)
(-2.524761674e-07 6.664017998e-20 -0.002020977243)
(-3.973239371e-07 7.093498591e-20 -0.002020986913)
(-5.421234519e-07 7.325526843e-20 -0.002021001238)
(-6.810464233e-07 7.434290425e-20 -0.002021019873)
(-8.117742787e-07 7.468898761e-20 -0.00202104243)
(-9.334605998e-07 7.346258748e-20 -0.002021068564)
(-1.045512323e-06 6.909352437e-20 -0.002021097946)
(-1.147413838e-06 5.711200171e-20 -0.00202113025)
(-1.238815147e-06 2.886142153e-20 -0.002021165157)
(-1.319474701e-06 2.160227473e-20 -0.002021202359)
(-1.389240324e-06 7.597557192e-21 -0.002021241549)
(-1.448107382e-06 -7.15357582e-21 -0.00202128243)
(-1.496176804e-06 -2.759565534e-20 -0.002021324709)
(-1.533602201e-06 -4.711600608e-20 -0.002021368096)
(-1.560620778e-06 -5.58048614e-20 -0.002021412302)
(-1.577576165e-06 -5.518164608e-20 -0.002021457044)
(-1.584856386e-06 -3.575230078e-20 -0.00202150204)
(-1.582896586e-06 -1.788577583e-20 -0.002021547009)
(-1.572196547e-06 -9.444281425e-21 -0.002021591675)
(-1.553316503e-06 -1.166905748e-21 -0.002021635762)
(-1.526852964e-06 -1.20241549e-21 -0.002021679001)
(-1.49341885e-06 -1.039878087e-21 -0.002021721132)
(-1.453654527e-06 3.862652895e-22 -0.002021761908)
(-1.408220947e-06 1.774017426e-21 -0.002021801092)
(-1.357777867e-06 3.049892909e-21 -0.002021838464)
(-1.303010165e-06 4.535627815e-21 -0.002021873823)
(-1.24460847e-06 6.948504774e-21 -0.002021906987)
(-1.183243841e-06 9.437334365e-21 -0.002021937798)
(-1.119584063e-06 1.201603914e-20 -0.002021966123)
(-1.054279724e-06 1.46859e-20 -0.002021991853)
(-9.879686672e-07 2.189541929e-20 -0.002022014907)
(-9.212536563e-07 2.903407839e-20 -0.002022035231)
(-8.547157085e-07 4.036812202e-20 -0.002022052796)
(-7.889174281e-07 5.186037947e-20 -0.002022067599)
(-7.243678911e-07 5.944516515e-20 -0.002022079664)
(-6.615500104e-07 6.402318797e-20 -0.002022089033)
(-6.009215989e-07 6.538197067e-20 -0.002022095776)
(-5.428859205e-07 6.417455816e-20 -0.002022099977)
(-4.878026261e-07 6.016899495e-20 -0.00202210174)
(-4.360086925e-07 6.012900086e-20 -0.002022101185)
(-3.877977917e-07 5.736392542e-20 -0.002022098443)
(-3.433931294e-07 5.230046127e-20 -0.002022093662)
(-3.02943945e-07 4.792982683e-20 -0.002022086981)
(-2.666661601e-07 4.377986238e-20 -0.002022078498)
(-2.353820827e-07 4.252266955e-20 -0.002022068365)
(-2.101123564e-07 4.168672455e-20 -0.002022057426)
(-1.850610573e-07 4.059685101e-20 -0.002022047114)
(-1.387579743e-07 3.926582444e-20 -0.002022038563)
(-5.224054069e-08 3.84819443e-20 -0.002022032839)
(-7.042479497e-08 4.361202482e-20 -0.002024520416)
(-1.837449663e-07 6.254369005e-20 -0.002024523569)
(-2.885340867e-07 6.478906781e-20 -0.002024529305)
(-3.930359678e-07 6.340870648e-20 -0.002024537805)
(-4.929354577e-07 6.02838438e-20 -0.00202454886)
(-5.865261949e-07 5.484564082e-20 -0.002024562239)
(-6.73133206e-07 4.676253195e-20 -0.002024577731)
(-7.523104146e-07 3.578826581e-20 -0.002024595128)
(-8.237247645e-07 2.140865793e-20 -0.002024614225)
(-8.87117802e-07 -1.739487036e-20 -0.00202463481)
(-9.423705657e-07 -5.678796228e-20 -0.002024656678)
(-9.894624537e-07 -8.166189848e-20 -0.002024679617)
(-1.028438429e-06 -1.084571801e-19 -0.002024703414)
(-1.059449938e-06 -1.234420471e-19 -0.002024727857)
(-1.082727055e-06 -1.286374359e-19 -0.002024752737)
(-1.0985413e-06 -1.362745348e-19 -0.00202477784)
(-1.107223154e-06 -1.341850438e-19 -0.002024802954)
(-1.109165521e-06 -1.349875034e-19 -0.002024827873)
(-1.104798568e-06 -1.289149828e-19 -0.002024852392)
(-1.094587392e-06 -1.254299678e-19 -0.002024876312)
(-1.079039683e-06 -1.161369671e-19 -0.002024899442)
(-1.058672367e-06 -1.013925025e-19 -0.002024921603)
(-1.034000139e-06 -8.923755623e-20 -0.002024942625)
(-1.00557552e-06 -7.189597046e-20 -0.002024962354)
(-9.739618117e-07 -5.642991541e-20 -0.002024980647)
(-9.39705889e-07 -4.861363336e-20 -0.002024997379)
(-9.033526194e-07 -4.173520388e-20 -0.002025012439)
(-8.654501593e-07 -3.568391987e-20 -0.002025025738)
(-8.26527533e-07 -3.586831003e-20 -0.002025037202)
(-7.871003649e-07 -3.600737944e-20 -0.002025046776)
(-7.476692409e-07 -3.605338162e-20 -0.002025054426)
(-7.08702628e-07 -3.595425706e-20 -0.002025060133)
(-6.706594312e-07 -4.512129928e-20 -0.002025063898)
(-6.339657621e-07 -5.38449333e-20 -0.002025065735)
(-5.990152015e-07 -5.770161967e-20 -0.002025065675)
(-5.661890077e-07 -6.130978354e-20 -0.002025063765)
(-5.358295913e-07 -6.069775717e-20 -0.002025060063)
(-5.082439159e-07 -6.005238519e-20 -0.002025054638)
(-4.837188719e-07 -5.949952588e-20 -0.002025047571)
(-4.625030655e-07 -5.881134206e-20 -0.002025038952)
(-4.447811229e-07 -5.808417159e-20 -0.002025028882)
(-4.30663933e-07 -5.738499853e-20 -0.002025017452)
(-4.204828827e-07 -5.670288562e-20 -0.002025004696)
(-4.153994823e-07 -5.62970255e-20 -0.002024990706)
(-4.155457147e-07 -5.927804368e-20 -0.002024976493)
(-4.091693036e-07 -6.014757609e-20 -0.002024963657)
(-3.756344552e-07 -6.275200088e-20 -0.0020249536)
(-3.063821173e-07 -6.546992168e-20 -0.002024947508)
(-2.046718605e-07 -6.82702312e-20 -0.002024945824)
(-7.229043215e-08 -7.118958834e-20 -0.002024946534)
(-5.149985713e-08 -9.787273921e-21 -0.002027764183)
(-1.344898392e-07 1.849915604e-19 -0.002027766095)
(-2.114191749e-07 1.537027822e-19 -0.002027769439)
(-2.880350701e-07 1.36430774e-19 -0.002027774371)
(-3.610755953e-07 1.266888202e-19 -0.002027780765)
(-4.292780216e-07 1.217708596e-19 -0.00202778847)
(-4.921697993e-07 1.217405425e-19 -0.002027797347)
(-5.494317601e-07 1.263428955e-19 -0.002027807249)
(-6.008434242e-07 1.161912852e-19 -0.002027818035)
(-6.462582629e-07 1.239277582e-19 -0.002027829559)
(-6.856107909e-07 1.020023424e-19 -0.002027841669)
(-7.189590314e-07 5.703747443e-20 -0.00202785422)
(-7.464074292e-07 2.214277114e-20 -0.00202786706)
(-7.681127825e-07 -6.486751747e-21 -0.002027880041)
(-7.843029163e-07 -3.105716651e-20 -0.002027893015)
(-7.952592135e-07 -5.34043731e-20 -0.00202790584)
(-8.01307446e-07 -6.287105422e-20 -0.002027918376)
(-8.028039151e-07 -8.192406499e-20 -0.002027930488)
(-8.001279037e-07 -8.972946038e-20 -0.002027942048)
(-7.936819165e-07 -9.748217622e-20 -0.002027952936)
(-7.838925859e-07 -8.696680084e-20 -0.002027963039)
(-7.711970507e-07 -6.961493906e-20 -0.002027972259)
(-7.560415277e-07 -5.381745308e-20 -0.002027980505)
(-7.388851157e-07 -5.344423635e-20 -0.002027987698)
(-7.201736265e-07 -5.347402351e-20 -0.002027993771)
(-7.003616732e-07 -6.074085638e-20 -0.002027998669)
(-6.798877151e-07 -6.802842952e-20 -0.002028002352)
(-6.591805485e-07 -8.12998249e-20 -0.00202800479)
(-6.386568236e-07 -9.444469316e-20 -0.002028005968)
(-6.187133541e-07 -1.021567902e-19 -0.002028005879)
(-5.997381383e-07 -1.105215076e-19 -0.00202800453)
(-5.820865909e-07 -1.195716269e-19 -0.00202800194)
(-5.661095498e-07 -1.292089482e-19 -0.002027998134)
(-5.521253198e-07 -1.397064598e-19 -0.002027993149)
(-5.404219836e-07 -1.512126635e-19 -0.002027987027)
(-5.312791154e-07 -1.59462409e-19 -0.00202797982)
(-5.249365209e-07 -1.689505687e-19 -0.002027971584)
(-5.216059707e-07 -1.714624147e-19 -0.002027962383)
(-5.214344264e-07 -1.752868767e-19 -0.002027952289)
(-5.244914717e-07 -1.728729486e-19 -0.002027941358)
(-5.311537227e-07 -1.718445723e-19 -0.002027929574)
(-5.427932426e-07 -1.686819281e-19 -0.002027916981)
(-5.591363719e-07 -1.632479377e-19 -0.002027904756)
(-5.649777438e-07 -1.58785505e-19 -0.002027894722)
(-5.394023529e-07 -1.550770824e-19 -0.002027888532)
(-4.76369059e-07 -1.544867679e-19 -0.002027887517)
(-3.790770434e-07 -1.543720893e-19 -0.002027891604)
(-2.574522264e-07 -1.55124987e-19 -0.002027898684)
(-1.383472719e-07 -1.54261089e-19 -0.002027905881)
(-4.224012333e-08 -1.544813396e-19 -0.002027910893)
(-3.919446284e-08 1.501071019e-19 -0.00203086639)
(-1.022054393e-07 3.562203327e-19 -0.002030867346)
(-1.60418843e-07 3.494381097e-19 -0.002030868898)
(-2.184225316e-07 2.348241059e-19 -0.002030871162)
(-2.737708274e-07 1.585887934e-19 -0.002030874068)
(-3.255052248e-07 1.028636852e-19 -0.002030877522)
(-3.732908962e-07 5.958183366e-20 -0.002030881427)
(-4.169082971e-07 2.487962087e-20 -0.00203088569)
(-4.561904395e-07 -2.739370904e-21 -0.002030890208)
(-4.910841959e-07 -4.249620203e-21 -0.002030894882)
(-5.215827516e-07 -4.620919728e-21 -0.002030899611)
(-5.477399036e-07 -4.769582036e-21 -0.002030904292)
(-5.696789732e-07 -4.445450229e-21 -0.002030908827)
(-5.875694143e-07 -3.702354683e-21 -0.002030913119)
(-6.016195913e-07 -3.278892204e-21 -0.002030917072)
(-6.120721692e-07 -3.269024228e-21 -0.002030920598)
(-6.192013493e-07 -1.536210425e-20 -0.002030923613)
(-6.233198668e-07 -2.720085191e-20 -0.00203092604)
(-6.247670762e-07 -3.918427365e-20 -0.002030927812)
(-6.238840019e-07 -4.112412311e-20 -0.002030928866)
(-6.210085773e-07 -4.428163285e-20 -0.002030929147)
(-6.165026802e-07 -3.898478559e-20 -0.002030928613)
(-6.107390116e-07 -3.446830981e-20 -0.002030927228)
(-6.040782499e-07 -3.773056887e-20 -0.002030924966)
(-5.968796937e-07 -4.129448501e-20 -0.002030921812)
(-5.894942898e-07 -4.485536335e-20 -0.00203091776)
(-5.822650518e-07 -4.864320307e-20 -0.002030912814)
(-5.755235248e-07 -5.259453762e-20 -0.002030906984)
(-5.695862998e-07 -5.100255957e-20 -0.002030900291)
(-5.647567811e-07 -4.998723711e-20 -0.002030892763)
(-5.613166455e-07 -4.917991428e-20 -0.002030884435)
(-5.595364006e-07 -4.857211514e-20 -0.002030875346)
(-5.596589286e-07 -4.320391315e-20 -0.002030865543)
(-5.619057649e-07 -3.797749001e-20 -0.002030855075)
(-5.664848531e-07 -3.726782658e-20 -0.002030843997)
(-5.735617439e-07 -3.636782178e-20 -0.002030832368)
(-5.832379968e-07 -3.941767054e-20 -0.002030820255)
(-5.955344221e-07 -4.225072498e-20 -0.002030807706)
(-6.108415955e-07 -4.484449993e-20 -0.002030794678)
(-6.30680108e-07 -4.713804155e-20 -0.002030781193)
(-6.545232104e-07 -4.920930738e-20 -0.002030768568)
(-6.650697815e-07 -5.105554941e-20 -0.002030758778)
(-6.408700146e-07 -5.278558418e-20 -0.002030753587)
(-5.770263209e-07 -5.080458881e-20 -0.002030754429)
(-4.777048343e-07 -4.822808563e-20 -0.002030760957)
(-3.589926849e-07 -4.61882351e-20 -0.002030770858)
(-2.471416372e-07 -4.378170956e-20 -0.00203078103)
(-1.549168022e-07 -4.115608392e-20 -0.002030789084)
(-8.128171857e-08 -3.998503354e-20 -0.002030794113)
(-2.464460519e-08 -3.869364126e-20 -0.002030796636)
(-3.163982188e-08 2.187337881e-19 -0.002033843396)
(-8.262217784e-08 3.242733208e-19 -0.002033843545)
(-1.299867818e-07 2.802805403e-19 -0.002033843541)
(-1.773373067e-07 1.603119825e-19 -0.002033843493)
(-2.226812001e-07 8.301724323e-20 -0.002033843377)
(-2.653161812e-07 2.466548812e-20 -0.002033843145)
(-3.050072326e-07 -2.46952577e-20 -0.002033842739)
(-3.416296272e-07 -6.990658323e-20 -0.002033842107)
(-3.750983498e-07 -8.891654626e-20 -0.002033841186)
(-4.053754624e-07 -1.114583034e-19 -0.002033839915)
(-4.324959776e-07 -9.961160809e-20 -0.002033838232)
(-4.56538788e-07 -6.2920465e-20 -0.002033836078)
(-4.776214284e-07 -3.484390209e-20 -0.002033833392)
(-4.959055518e-07 2.989842524e-21 -0.002033830121)
(-5.115897857e-07 3.67427147e-20 -0.002033826212)
(-5.248927825e-07 6.80308853e-20 -0.002033821619)
(-5.36045322e-07 7.364556622e-20 -0.002033816302)
(-5.452968882e-07 7.983783785e-20 -0.002033810223)
(-5.529239454e-07 7.677980359e-20 -0.002033803357)
(-5.592259679e-07 7.418709068e-20 -0.002033795684)
(-5.644827841e-07 5.486595308e-20 -0.002033787192)
(-5.689715707e-07 3.690981092e-20 -0.002033777875)
(-5.729913991e-07 2.028343531e-20 -0.002033767738)
(-5.7681809e-07 1.22521958e-20 -0.002033756791)
(-5.807331893e-07 4.571323934e-21 -0.002033745054)
(-5.850022862e-07 4.162868715e-21 -0.002033732554)
(-5.898808444e-07 3.80485593e-21 -0.002033719324)
(-5.956121361e-07 1.010551946e-20 -0.002033705404)
(-6.024249265e-07 1.638998857e-20 -0.002033690839)
(-6.105316398e-07 1.705327052e-20 -0.00203367568)
(-6.201253717e-07 1.812840654e-20 -0.002033659983)
(-6.313876211e-07 1.959779743e-20 -0.002033643806)
(-6.444726119e-07 2.153801024e-20 -0.002033627212)
(-6.595089356e-07 2.391990851e-20 -0.002033610268)
(-6.765451278e-07 2.66958054e-20 -0.002033593053)
(-6.955509544e-07 2.98628939e-20 -0.00203357562)
(-7.169332865e-07 3.341338846e-20 -0.002033557921)
(-7.423182357e-07 3.319652258e-20 -0.002033539964)
(-7.709802221e-07 3.355484957e-20 -0.002033523223)
(-7.838585352e-07 3.064350905e-20 -0.002033509825)
(-7.587737485e-07 2.844315267e-20 -0.002033501595)
(-6.915380445e-07 2.697076073e-20 -0.002033499966)
(-5.868660833e-07 2.255064074e-20 -0.00203350435)
(-4.644094211e-07 1.91029344e-20 -0.002033512252)
(-3.508055393e-07 1.658234515e-20 -0.002033520452)
(-2.55713111e-07 1.487973053e-20 -0.002033526587)
(-1.77352836e-07 1.216998424e-20 -0.002033530067)
(-1.131638184e-07 1.131394548e-20 -0.002033531386)
(-6.09513826e-08 1.094603045e-20 -0.002033531196)
(-1.861852472e-08 1.08374911e-20 -0.00203353055)
(-2.745598927e-08 -3.610761082e-20 -0.002036768464)
(-7.165125877e-08 -1.617137116e-19 -0.002036767922)
(-1.127396722e-07 -9.300282527e-20 -0.002036766589)
(-1.540261218e-07 -6.099375876e-20 -0.002036764584)
(-1.938883476e-07 -4.285694239e-20 -0.002036761923)
(-2.318013213e-07 -3.076110775e-20 -0.002036758593)
(-2.675985108e-07 -2.171219594e-20 -0.002036754582)
(-3.01198445e-07 -1.398299533e-20 -0.002036749868)
(-3.325871191e-07 -6.440683791e-21 -0.002036744429)
(-3.617724222e-07 1.522031136e-21 -0.002036738242)
(-3.887924404e-07 1.039223366e-20 -0.002036731282)
(-4.137371677e-07 2.009412634e-20 -0.002036723524)
(-4.367285711e-07 3.027466512e-20 -0.002036714945)
(-4.579135342e-07 4.075851656e-20 -0.002036705526)
(-4.774600923e-07 5.129353057e-20 -0.002036695252)
(-4.955548545e-07 6.154169811e-20 -0.002036684113)
(-5.124030598e-07 7.196349183e-20 -0.002036672103)
(-5.282224138e-07 8.191909045e-20 -0.00203665922)
(-5.432294093e-07 9.140370032e-20 -0.002036645468)
(-5.576434186e-07 9.042678836e-20 -0.002036630859)
(-5.71696038e-07 8.969706251e-20 -0.002036615411)
(-5.856096495e-07 8.036194598e-20 -0.002036599147)
(-5.99597985e-07 7.186926191e-20 -0.002036582096)
(-6.138756014e-07 6.416806157e-20 -0.002036564293)
(-6.286439961e-07 5.71085714e-20 -0.002036545778)
(-6.440952971e-07 5.0514373e-20 -0.002036526597)
(-6.604098858e-07 4.418876894e-20 -0.002036506799)
(-6.777495341e-07 3.7641417e-20 -0.00203648644)
(-6.962648757e-07 3.104821186e-20 -0.002036465575)
(-7.160862115e-07 2.427336056e-20 -0.002036444265)
(-7.373329683e-07 1.724153845e-20 -0.002036422573)
(-7.600951566e-07 9.843667475e-21 -0.002036400567)
(-7.843746745e-07 7.366472744e-21 -0.002036378328)
(-8.101010171e-07 9.421360783e-21 -0.002036355909)
(-8.376833617e-07 1.069585581e-20 -0.002036333247)
(-8.688711919e-07 1.123196852e-20 -0.002036310336)
(-9.027737126e-07 1.106736248e-20 -0.002036288822)
(-9.186325872e-07 1.019684732e-20 -0.002036271051)
(-8.933977445e-07 8.672259441e-21 -0.002036258982)
(-8.234625231e-07 6.488563849e-21 -0.002036254085)
(-7.139757758e-07 3.597850683e-21 -0.002036255475)
(-5.867236513e-07 4.759371012e-23 -0.002036260356)
(-4.689849342e-07 -4.051165558e-21 -0.002036265267)
(-3.691114442e-07 -8.636934357e-21 -0.002036267736)
(-2.851570623e-07 -1.360382273e-20 -0.002036267321)
(-2.146520417e-07 -1.569043104e-20 -0.002036264541)
(-1.554262916e-07 -1.506228109e-20 -0.002036260048)
(-1.046329485e-07 -1.504096057e-20 -0.002036254917)
(-5.952936989e-08 -1.408019976e-20 -0.002036250344)
(-1.828992141e-08 -1.361333836e-20 -0.002036247391)
(-2.558987172e-08 -1.088996321e-19 -0.002039631884)
(-6.688423282e-08 -4.02255642e-19 -0.002039630799)
(-1.055258922e-07 -3.631687982e-19 -0.002039628401)
(-1.44601463e-07 -2.581941962e-19 -0.002039624826)
(-1.82686112e-07 -2.116396807e-19 -0.002039620121)
(-2.193381471e-07 -1.465722458e-19 -0.002039614319)
(-2.544757861e-07 -1.025581706e-19 -0.002039607443)
(-2.880798041e-07 -7.101403727e-20 -0.002039599513)
(-3.201393403e-07 -4.750515877e-20 -0.002039590539)
(-3.506983772e-07 -2.929949799e-20 -0.002039580537)
(-3.798367288e-07 -1.486563051e-20 -0.002039569517)
(-4.076476723e-07 -3.117654915e-21 -0.002039557491)
(-4.342346157e-07 6.397564121e-21 -0.002039544472)
(-4.597210632e-07 1.370298762e-20 -0.002039530475)
(-4.842496071e-07 1.909905592e-20 -0.002039515516)
(-5.079844445e-07 2.305105305e-20 -0.002039499614)
(-5.310996465e-07 3.858616148e-20 -0.002039482792)
(-5.537662596e-07 5.25684204e-20 -0.002039465076)
(-5.761506704e-07 6.536880072e-20 -0.002039446497)
(-5.984224165e-07 7.727739712e-20 -0.002039427091)
(-6.207581481e-07 8.8614721e-20 -0.002039406892)
(-6.43320304e-07 9.028058603e-20 -0.002039385942)
(-6.662688743e-07 9.237701325e-20 -0.002039364285)
(-6.897642893e-07 9.496300032e-20 -0.002039341967)
(-7.139376786e-07 9.805198415e-20 -0.002039319038)