/*--------------------------------*- C++ -*----------------------------------*\
  =========                 |
  \\      /  F ield         | OpenFOAM: The Open Source CFD Toolbox
   \\    /   O peration     | Website:  https://openfoam.org
    \\  /    A nd           | Version:  7
     \\/     M anipulation  |
\*---------------------------------------------------------------------------*/
FoamFile
{
    version     2.0;
    format      ascii;
    class       volScalarField;
    location    "0.0006";
    object      wallHeatFlux;
}
// * * * * * * * * * * * * * * * * * * * * * * * * * * * * * * * * * * * * * //

dimensions      [1 0 -3 0 0 0 0];

internalField   uniform 0;

boundaryField
{
    front_top
    {
        type            wedge;
    }
    front_middle
    {
        type            wedge;
    }
    front_bottom
    {
        type            wedge;
    }
    back_top
    {
        type            wedge;
    }
    back_middle
    {
        type            wedge;
    }
    back_bottom
    {
        type            wedge;
    }
    axis_top
    {
        type            symmetryPlane;
    }
    axis_middle
    {
        type            symmetryPlane;
    }
    axis_bottom
    {
        type            symmetryPlane;
    }
    wall_top
    {
        type            calculated;
        value           nonuniform List<scalar> 
150
(
47280.05984
42093.23135
39140.91194
36908.99737
35208.27061
33924.89638
32400.48822
30670.41094
29114.02131
27909.14043
27281.51111
26968.45286
26649.17421
26185.72053
25694.76976
25238.21678
24812.59453
24412.48241
24034.09036
23674.58282
23331.6739
23002.84597
22686.46624
22381.05809
22085.48132
21799.14358
21521.6627
21252.9159
20992.62175
20740.47304
20496.1413
20259.3191
20029.67757
19806.88177
19590.62233
19380.62447
19176.65816
18978.4986
18785.93499
18598.7662
18416.79524
18239.83369
18067.71735
17900.25713
17737.27955
17578.61613
17424.11256
17273.66148
17127.07775
16984.21863
16844.99417
16709.2696
16576.89635
16447.81782
16321.89825
16199.00683
16079.1305
15962.07978
15847.83522
15736.27592
15627.32718
15520.92626
15416.96248
15315.40838
15216.14428
15119.15196
15024.3245
14931.62915
14840.99136
14752.34529
14665.66732
14580.84201
14497.91471
14416.74082
14337.32999
14259.62003
14183.53324
14109.10802
14036.22193
13964.85908
13895.01561
13826.59994
13759.60633
13694.01224
13629.74443
13566.79125
13505.14212
13444.72544
13385.51654
13327.53549
13270.70123
13214.98826
13160.3988
13106.89917
13054.44387
13003.00894
12952.60913
12903.1917
12854.72671
12807.19354
12760.60086
12714.90598
12670.08005
12626.10343
12582.97056
12540.67119
12499.1637
12458.43016
12418.45296
12379.23176
12340.74252
12302.95408
12265.84882
12229.40807
12193.62265
12158.48247
12123.94856
12090.00019
12056.61498
12023.76851
11991.44607
11959.61418
11928.22522
11897.23582
11866.5923
11836.22674
11806.05569
11775.9749
11745.81067
11715.34953
11684.29643
11652.23984
11618.60408
11582.60364
11543.07951
11498.42833
11446.39816
11383.85368
11306.37755
11207.81052
11079.67446
10910.20757
10683.28435
10376.85835
9960.819401
9393.907034
8618.805223
7552.875955
6065.975374
3910.000823
)
;
    }
    wall_middle
    {
        type            calculated;
        value           nonuniform List<scalar> 
65
(
297738.4994
182540.5039
143215.5094
123560.0707
111262.071
102568.9222
95974.40066
90739.60705
86450.00518
82851.93536
79779.9896
77120.90329
74794.39665
72741.85971
70919.39447
69293.38207
67837.48097
66531.20265
65358.19394
64305.20184
63361.39046
62517.84645
61767.18353
61103.2371
60520.86953
60015.64869
59583.90525
59222.53447
58928.8354
58700.50544
58535.56573
58432.30418
58389.24979
58405.13622
58478.86502
58609.47406
58796.11944
59038.07806
59334.72431
59685.51458
60090.01102
60547.77717
61058.48612
61621.86165
62237.70245
62905.94595
63626.699
64400.34168
65227.70952
66110.34323
67051.02155
68054.13036
69127.28954
70281.74304
71537.43135
72922.22473
74487.44981
76303.36473
78500.89042
81276.49483
84963.2707
90262.05799
98075.04047
111444.3838
160833.2967
)
;
    }
    wall_bottom
    {
        type            calculated;
        value           nonuniform List<scalar> 
65
(
156388.2067
131869.2669
122836.3295
117849.9639
114628.6556
112290.0906
110476.9983
109003.4875
107761.4668
106687.3005
105737.5569
104883.4761
104103.8644
103383.3411
102710.0973
102075.0992
101471.2417
100892.9378
100335.7415
99796.10801
99271.19497
98758.71916
98256.84242
97764.08334
97279.24792
96801.37563
96329.69485
95863.5862
95402.55322
94946.19867
94494.20812
94046.33504
93602.38717
93162.21556
92725.70603
92292.77221
91863.35011
91437.39369
91014.8711
90595.76139
90180.05201
89767.7368
89358.81392
88953.28167
88551.1463
88152.42281
87757.12806
87365.27918
86976.89392
86591.99166
86210.59431
85832.7273
85458.42093
85087.71296
84720.65202
84357.30114
83997.74261
83642.08594
83290.4773
82943.11141
82600.21171
82261.9621
81928.28192
81600.46873
81304.04538
)
;
    }
    inlet
    {
        type            calculated;
        value           nonuniform List<scalar> 
50
(
-21.89813937
-22.49963345
-23.81949981
-25.85111025
-28.6480752
-32.29820465
-36.92235332
-42.67666097
-49.7565501
-58.40218553
-68.90537264
-81.61796916
-96.96194131
-115.4412351
-137.6556668
-164.3170656
-196.2679277
-234.5028046
-280.1927383
-334.7133649
-399.6766643
-476.9668608
-568.7809674
-677.6742554
-806.6108313
-959.0198841
-1138.858113
-1350.679338
-1599.710744
-1891.934585
-2234.177129
-2634.211382
-3100.866389
-3644.143706
-4275.351026
-5007.235813
-5854.115298
-6832.038063
-7958.964642
-9254.958553
-10742.37333
-12446.06276
-14393.5324
-16615.20648
-19144.73208
-22019.23698
-25279.43555
-28970.00104
-33139.88222
-37842.55969
)
;
    }
    outlet
    {
        type            calculated;
        value           uniform 0;
    }
}


// ************************************************************************* //
