/*--------------------------------*- C++ -*----------------------------------*\
  =========                 |
  \\      /  F ield         | OpenFOAM: The Open Source CFD Toolbox
   \\    /   O peration     | Website:  https://openfoam.org
    \\  /    A nd           | Version:  7
     \\/     M anipulation  |
\*---------------------------------------------------------------------------*/
FoamFile
{
    version     2.0;
    format      ascii;
    class       volScalarField;
    location    "0.0003";
    object      generalizedNewtonian:nu;
}
// * * * * * * * * * * * * * * * * * * * * * * * * * * * * * * * * * * * * * //

dimensions      [0 2 -1 0 0 0 0];

internalField   nonuniform List<scalar> 
1167
(
6.56707096
6.54474415
6.582614453
6.555409868
6.540635162
6.521510018
6.497590014
6.469479716
6.437026381
6.399988787
6.358185572
6.311516206
6.259805469
6.202940117
6.140853542
6.073509839
6.000906557
5.923071275
5.84008777
5.752021043
5.658930057
5.560900622
5.457960353
5.350096949
5.237215754
5.119207321
4.995810516
4.866670848
4.731319911
4.589184198
4.439520802
4.281411959
4.11377719
3.935324184
3.744597876
6.311019964
6.289094832
6.325283746
6.298698979
6.283780693
6.264650288
6.24069287
6.212610886
6.180153336
6.143226207
6.101620985
6.055216364
6.003920664
5.947680503
5.886452261
5.820245636
5.749101363
5.673085584
5.592284739
5.506794238
5.416761169
5.322195885
5.223189167
5.119672931
5.01159651
4.898783221
4.780961365
4.657750929
4.528666483
4.393092145
4.250236678
4.099161554
3.9387421
3.767661469
3.5844464
3.387511255
3.175359879
2.946949712
2.702408651
2.44401224
2.17719293
1.910578627
1.654406224
1.417873499
1.206988959
1.02403797
0.868332776
0.737404182
0.6280236647
0.5368454349
6.071153701
6.049530229
6.083978682
6.057754028
6.04245304
6.022920088
5.998560279
5.970052427
5.937198041
5.899855667
5.857965966
5.811393408
5.760088049
5.704034499
5.643247509
5.577778227
5.507704161
5.433137537
5.354221547
5.271062246
5.183756299
5.092432289
4.997068648
4.897671368
4.79412911
4.686250269
4.57374367
4.456201819
4.333126622
4.203847269
4.067541746
3.923245486
3.769800996
3.605898532
3.430045134
3.240692961
3.036435594
2.816419983
2.581089272
2.333155049
2.078387536
1.825347694
1.583644738
1.361464372
1.163838262
0.9924097269
0.8462509101
0.7229531412
0.6195057035
0.5328303422
5.845341898
5.823941878
5.856614646
5.830561391
5.814618112
5.794409121
5.769370856
5.740074945
5.706481452
5.668421371
5.625847652
5.578755935
5.527110319
5.470935783
5.410297717
5.345289762
5.276063902
5.20274797
5.125474104
5.044415371
4.959679768
4.871346512
4.779441384
4.68393866
4.584695739
4.481514621
4.374086426
4.261974795
4.14463761
4.021380893
3.891370125
3.753611774
3.606929607
3.44999796
3.281345557
3.099486206
2.903110276
2.691562161
2.465588757
2.228245081
1.98550189
1.745716487
1.517816942
1.309052927
1.123635373
0.9627245527
0.8252533295
0.70891072
0.6109037276
0.5283981159
5.631669254
5.610434107
5.641327931
5.615272235
5.598493814
5.577431005
5.551464119
5.521179291
5.486561924
5.447551374
5.404106228
5.356249172
5.304034284
5.24754103
5.186881637
5.122191833
5.053637094
4.981382739
4.905645575
4.826533278
4.744205274
4.658708762
4.570101213
4.478283927
4.383140293
4.284458205
4.181864845
4.074924105
3.963068035
3.845578399
3.72160806
3.590141031
3.450002633
3.299863224
3.138277306
2.963810798
2.775279719
2.572235086
2.355689771
2.128969369
1.89811696
1.671174095
1.456367799
1.260109423
1.085938715
0.9346571568
0.8051290156
0.6951629815
0.6021742031
0.5235503846
5.428423935
5.407324639
5.436434883
5.410220294
5.39249763
5.370470464
5.343397118
5.31198972
5.276203398
5.236067175
5.19161008
5.142887251
5.090002986
5.033089615
4.972305318
4.907828848
4.839886636
4.768658276
4.694325345
4.617088405
4.53703655
4.454280583
4.368789498
4.280504381
4.189295905
4.094880052
3.99689609
3.894889942
3.788268158
3.676300451
3.558125843
3.432716227
3.298905091
3.155370192
3.000705771
2.833544354
2.65282314
2.458281324
2.251169394
2.035006788
1.815802818
1.601212795
1.398778697
1.214170336
1.05037902
0.9079437047
0.7857101513
0.6816183697
0.5932804025
0.5182856199
5.234096453
5.213083122
5.240397212
5.213945183
5.195249406
5.172151822
5.143918098
5.111288743
5.074301652
5.032981163
4.987434121
4.937802999
4.884221134
4.826870328
4.765966904
4.701720601
4.634355775
4.564093352
4.491173615
4.415719345
4.337905604
4.257753245
4.175270502
4.090387745
4.00291341
3.912569326
3.818988682
3.721694737
3.620072078
3.513391808
3.400776609
3.28119967
3.15350378
3.016388292
2.868495998
2.708533206
2.535559331
2.349489244
2.151766544
1.946026381
1.73815913
1.535391244
1.34461375
1.17085197
1.01665281
0.8823667916
0.7668583682
0.6682008706
0.5841907728
0.5126007591
5.04727938
5.026335944
5.051884522
5.025165982
5.005496133
4.981291626
4.951913636
4.918034648
4.87984558
4.837384798
4.790808483
4.740301749
4.686067556
4.628332429
4.567335487
4.503333159
4.436589153
4.367343122
4.295786474
4.222138503
4.146469491
4.068863652
3.989292389
3.907655863
3.823760568
3.737318377
3.64795441
3.555164349
3.45832382
3.35669958
3.249412471
3.135452289
3.01366802
2.882793044
2.741519073
2.588634399
2.423320619
2.245645811
2.057206364
1.86168444
1.664785976
1.473288016
1.293475411
1.129817435
0.9845028096
0.8577491669
0.7484590055
0.6548469667
0.5748783527
0.5064922656
4.866771568
4.845900494
4.869739095
4.842793935
4.822133166
4.796873019
4.766381787
4.731363656
4.691997415
4.648472061
4.600957838
4.549683554
4.494900753
4.436874323
4.375887684
4.312246451
4.246190209
4.177983686
4.107862363
4.035973777
3.962449409
3.887325153
3.810562138
3.732062427
3.651620766
3.568922156
3.483579476
3.395083218
3.302811085
3.206026676
3.103854014
2.995299564
2.879230691
2.754420461
2.619613881
2.473681395
2.315921724
2.146534121
1.96722493
1.781662616
1.595324247
1.414533612
1.245019931
1.090778914
0.9537078288
0.8339349142
0.7304182746
0.6415039476
0.5653204684
0.4999568358
4.691543783
4.670761853
4.692982101
4.665807326
4.644224439
4.61801808
4.586482033
4.550435091
4.510067817
4.465591321
4.417267727
4.365373177
4.31020021
4.252046533
4.191220852
4.128024336
4.062757826
3.995687857
3.927019243
3.856936467
3.785535142
3.712836991
3.638833038
3.563376077
3.486241168
3.407128059
3.325636163
3.241247393
3.153346648
3.061197502
2.963935222
2.860582597
2.750034966
2.631110879
2.502612113
2.363490888
2.213154632
2.051911487
1.88153795
1.705639378
1.52943244
1.358796827
1.198956219
1.05349398
0.9240831533
0.8107962169
0.7126534979
0.6281278188
0.5554987873
0.4929923435
4.520735801
4.500081942
4.520730344
4.493373145
4.470992205
4.443940625
4.411528366
4.374574674
4.333374475
4.288158355
4.239229603
4.186906602
4.13151796
4.0733951
4.012874525
3.950296932
3.88594704
3.820087201
3.75296024
3.68470434
3.615423421
3.545152551
3.473829668
3.401313854
3.327374903
3.251716908
3.173924747
3.093476981
3.009763912
2.922054318
2.829507724
2.73116336
2.625951457
2.512734496
2.390376366
2.25791096
2.114839793
1.961561892
1.799887276
1.633319013
1.466794383
1.305770773
1.155012053
1.017750668
0.8954737867
0.7882253936
0.6950977705
0.6146837643
0.5453990623
0.4855984702
4.35361332
4.333102394
4.352255645
4.324806265
4.301776896
4.274005912
4.240902185
4.203241967
4.161388034
4.115643368
4.066327448
4.013794407
3.958402288
3.900522807
3.840519107
3.77870429
3.715401188
3.650883877
3.585356067
3.518982024
3.451850937
3.38396728
3.315277023
3.245642026
3.174813545
3.102482829
3.028236026
2.951563677
2.871861064
2.788407882
2.700386726
2.606860379
2.506797731
2.399107498
2.282716592
2.156737537
2.02075775
1.875245026
1.722010126
1.564425143
1.407137468
1.255194299
1.112957777
0.9833629448
0.8677448702
0.7661319069
0.677695682
0.6011416675
0.5350109538
0.4777769474
4.189553313
4.169226122
4.186982626
4.159573371
4.136013196
4.107712856
4.07409034
4.035960644
3.993697575
3.94764398
3.898174392
3.845674143
3.790524204
3.733106108
3.673785473
3.612919371
3.550822031
3.487748322
3.423923244
3.359488504
3.294512271
3.229029209
3.162950972
3.096116939
3.028298808
2.959180996
2.888347984
2.81530448
2.739453573
2.660088651
2.576414126
2.487523295
2.39242799
2.290085358
2.179484105
2.059812822
1.930727933
1.792748194
1.647660339
1.498689167
1.350191787
1.20682955
1.072597435
0.9501737219
0.8407805056
0.7444416819
0.6604017253
0.5874789143
0.5243284331
0.4695325731
4.028091975
4.007999726
4.024476288
3.997210791
3.973273028
3.944649588
3.910703226
3.872326469
3.829908265
3.783815368
3.73445085
3.682224517
3.627539795
3.570796192
3.512387682
3.45265319
3.391898973
3.330412951
3.268374449
3.205936325
3.143172804
3.080077486
3.01656898
2.952487495
2.88761047
2.821611058
2.754078423
2.684526095
2.61236805
2.536926011
2.457424864
2.372991626
2.28268019
2.18549868
2.080497607
1.966937475
1.844539514
1.713851658
1.576613216
1.435882263
1.295726751
1.160462567
1.033752713
0.9180496727
0.8144837811
0.7230886884
0.6431790066
0.573679065
0.5133494675
0.4608729842
3.868897533
3.849105053
3.864400485
3.837378106
3.813250944
3.784480888
3.750465858
3.712052475
3.669720038
3.623843457
3.57484199
3.523142166
3.469172813
3.41335356
3.356047906
3.297617172
3.238385612
3.17859112
3.118448446
3.058080758
2.997546844
2.936853348
2.875908605
2.814543552
2.75252999
2.689549891
2.625202466
2.55901104
2.490403734
2.418730559
2.343241627
2.263097702
2.177394684
2.08519355
1.985606391
1.877954568
1.762011245
1.638345985
1.508639671
1.375776192
1.243539813
1.115909917
0.99626992
0.8868744901
0.7887729434
0.7020206038
0.6259990647
0.5597315199
0.5020761561
0.4518087012
3.711766389
3.692308883
3.706504976
3.679852344
3.655722641
3.626983423
3.593117769
3.554940122
3.512934684
3.46751995
3.419137702
3.368225461
3.315213771
3.260513609
3.204515606
3.147585768
3.090004978
3.032051066
2.973891329
2.915654282
2.857410552
2.799131005
2.740722998
2.682029148
2.622822676
2.562785612
2.50152822
2.438584407
2.373400657
2.305349344
2.233709274
2.157682969
2.07640859
1.988998698
1.894625215
1.792672594
1.682954877
1.5660452
1.443544985
1.318167393
1.193434307
1.073012057
0.9600169134
0.8565462567
0.763580013
0.6811950157
0.6088411663
0.5456306978
0.4905144687
0.4423537205
3.556535437
3.537463886
3.550661458
3.524525605
3.500533615
3.472042348
3.438512369
3.400799396
3.359379314
3.314683041
3.267162821
3.217266058
3.165430736
3.112077819
3.057594849
3.002310536
2.946557664
2.890540745
2.834469588
2.778441233
2.722509953
2.666657055
2.610788581
2.554742119
2.498287045
2.441113507
2.382847903
2.323037007
2.261148833
2.196578441
2.128639638
2.056572495
1.979558099
1.8967597
1.807406359
1.710929345
1.607185984
1.49675107
1.381137951
1.262880296
1.145243187
1.031619401
0.9248814262
0.8269806236
0.7388479926
0.6605781745
0.5916896736
0.5313759553
0.4786743223
0.4325252682
3.403165274
3.384533666
3.396841553
3.371328971
3.347625318
3.31957013
3.286593454
3.249542942
3.208934295
3.165189734
3.118763471
3.070109433
3.019684908
2.967878823
2.915072467
2.861626572
2.807806091
2.753866084
2.699957196
2.646194435
2.592630671
2.53922422
2.48587931
2.432442794
2.378687293
2.324314973
2.268959198
2.212181309
2.153475426
2.09225917
2.027875822
1.959605862
1.88667552
1.808299638
1.723767882
1.632553957
1.534545078
1.430294051
1.321239741
1.209743377
1.098820672
0.9916063899
0.8907630054
0.7981059061
0.7145286825
0.6401441909
0.5745353464
0.5169713056
0.4665695263
0.42234367
3.25170463
3.233572793
3.245079592
3.220275081
3.197028441
3.169554175
3.137331739
3.101162207
3.061563442
3.018981277
2.973869069
2.926677655
2.877837188
2.827749153
2.776811545
2.725325753
2.673587642
2.621801971
2.57015223
2.518720294
2.467544066
2.416593339
2.365775817
2.31493117
2.263833413
2.212194215
2.159663579
2.105819395
2.050180441
1.992191064
1.931229216
1.866609552
1.797602962
1.723473689
1.64355629
1.557376479
1.464853165
1.36651055
1.263694495
1.158605098
1.054031671
0.9528628338
0.8575754977
0.769863001
0.6905846639
0.619874405
0.5573747038
0.5024249789
0.4542169375
0.4118322841
3.102288384
3.084683926
3.095451485
3.071451283
3.048800505
3.02205711
2.990746415
2.955642966
2.917256071
2.87602948
2.832414308
2.786857004
2.739778853
2.691597144
2.642649889
2.593268184
2.543708097
2.494191752
2.444853343
2.395799185
2.347054253
2.298573666
2.25026669
2.201980184
2.15349338
2.104533802
2.054758756
2.003764161
1.951091161
1.896210153
1.838532045
1.777411155
1.712162806
1.642103706
1.566611036
1.485250654
1.397955981
1.3052392
1.208353443
1.109330958
1.010756624
0.91529659
0.8252469287
0.7422027795
0.6669865994
0.5997573737
0.5402091847
0.4877490175
0.4416366358
0.4010173245
2.955045563
2.938005599
2.948109025
2.925019067
2.903052969
2.877193245
2.846926175
2.81303618
2.776023896
2.73631881
2.694365265
2.650610658
2.605463333
2.559302363
2.512481667
2.465308715
2.418028247
2.37083933
2.323889015
2.277252419
2.230949444
2.18494396
2.139145013
2.093396079
2.047482424
2.001140309
1.954044454
1.905810847
1.856001958
1.804119019
1.749603932
1.691847247
1.630204653
1.564035335
1.492768752
1.416012323
1.333709144
1.246337589
1.155076822
1.061801848
0.9688917842
0.8788206028
0.7937159508
0.7150833479
0.6437124536
0.5797858846
0.5230446211
0.4729590639
0.4288517388
0.3899274903
2.810181642
2.793741677
2.803260947
2.781131649
2.75994862
2.735077357
2.705998264
2.673450449
2.637941449
2.599897503
2.559751673
2.517925604
2.474814365
2.430798134
2.386209235
2.341328159
2.296402691
2.251610311
2.207076673
2.162890832
2.11905481
2.075524746
2.032211353
1.988964934
1.945581718
1.901806597
1.857325739
1.811777225
1.764742623
1.715747837
1.664269943
1.609738789
1.551553276
1.489113355
1.421886885
1.349513947
1.271962821
1.189675446
1.103740927
1.015902959
0.9283466964
0.8433634084
0.7629324293
0.6884725185
0.6207466178
0.5599579974
0.5058908104
0.4580739011
0.4158879406
0.3785936784
2.667946082
2.652142636
2.661127415
2.639997653
2.619697807
2.595879949
2.568082721
2.53699216
2.503100887
2.466824819
2.428584337
2.388783936
2.347816263
2.306034382
2.263742923
2.221233466
2.178709538
2.136352382
2.094280215
2.052552489
2.011176732
1.970118495
1.929278752
1.888508533
1.847611449
1.806343884
1.764407957
1.72146352
1.677115789
1.630913823
1.582364733
1.530931716
1.476052002
1.417175956
1.353810368
1.285622506
1.212583244
1.135121033
1.054236483
0.9715365552
0.8890409979
0.8088634616
0.7328536229
0.662345166
0.5980796371
0.5402766494
0.4887610331
0.4431150526
0.4027731897
0.3670487334
1.985338342
1.946081392
1.907168429
1.86855788
1.830157993
1.791824945
1.753372894
1.714563973
1.675114581
1.634701519
1.592949399
1.549438244
1.503707627
1.455253747
1.403549473
1.348080044
1.288393845
1.22419322
1.155449001
1.08255863
1.006456142
0.9286143262
0.8509016862
0.7752681208
0.7034433133
0.6366825129
0.5757070604
0.5207486946
0.4716716012
0.4281065058
0.3895373164
0.3553270276
)
;

boundaryField
{
    front_top
    {
        type            wedge;
    }
    front_middle
    {
        type            wedge;
    }
    front_bottom
    {
        type            wedge;
    }
    back_top
    {
        type            wedge;
    }
    back_middle
    {
        type            wedge;
    }
    back_bottom
    {
        type            wedge;
    }
    axis_top
    {
        type            symmetryPlane;
    }
    axis_middle
    {
        type            symmetryPlane;
    }
    axis_bottom
    {
        type            symmetryPlane;
    }
    wall_top
    {
        type            calculated;
        value           nonuniform 0();
    }
    wall_middle
    {
        type            calculated;
        value           nonuniform List<scalar> 
23
(
0.4986093569
0.4962588478
0.4933902513
0.4900173001
0.4861479154
0.4817867813
0.4769367846
0.4715999473
0.4657786268
0.4594764676
0.4526985515
0.4454528369
0.4377498446
0.4296025898
0.4210275845
0.4120443666
0.4026754168
0.3929462328
0.3828850887
0.3725226071
0.3618915004
0.3510263481
0.3399631453
)
;
    }
    wall_bottom
    {
        type            calculated;
        value           nonuniform 0();
    }
    inlet
    {
        type            calculated;
        value           nonuniform 0();
    }
    outlet
    {
        type            calculated;
        value           nonuniform 0();
    }
    procBoundary4to3
    {
        type            processor;
        value           nonuniform List<scalar> 
51
(
2.528618229
2.513458692
2.521945169
2.501858698
2.482493336
2.459813633
2.433350071
2.403791008
2.371596162
2.33716713
2.300909617
2.263223035
2.224464229
2.184963796
2.14504112
2.104925717
2.064849094
2.024947539
2.024947539
1.880139683
1.843330924
1.806857307
1.770675242
1.734687599
1.698752928
1.662692425
1.62628123
1.589252077
1.551299423
1.512066629
1.471159637
1.428142477
1.382545193
1.333884345
1.281677827
1.225505548
1.165096795
1.100434503
1.031881555
0.9603044945
0.8870600158
0.8138668585
0.7425343301
0.6746733006
0.611471051
0.553627437
0.5013843229
0.4546415268
0.4130742921
0.3762117101
0.3434641716
)
;
    }
    procBoundary4to5
    {
        type            processor;
        value           nonuniform List<scalar> 
51
(
6.841699702
6.818833899
6.858286803
6.830143706
6.815184696
6.79564474
6.771274554
6.74263605
6.709595439
6.671850506
6.629305228
6.581739823
6.528978774
6.470891481
6.407379649
6.338370131
6.263827169
6.183740045
6.098137118
6.007054669
5.910569525
5.808728403
5.701532706
5.589012913
5.471063749
5.347552148
5.218297587
5.082949237
4.941066436
4.792102551
4.63536596
4.469976861
4.294895807
4.10887781
3.91048803
3.539995674
3.539995674
3.319949026
3.083259124
2.829692961
2.561061106
2.282317112
2.001973769
1.730753239
1.478908168
1.253614702
1.058001261
0.8917525657
0.7524017279
0.6365086913
0.5404373979
)
;
    }
}


// ************************************************************************* //
