/*--------------------------------*- C++ -*----------------------------------*\
  =========                 |
  \\      /  F ield         | OpenFOAM: The Open Source CFD Toolbox
   \\    /   O peration     | Website:  https://openfoam.org
    \\  /    A nd           | Version:  7
     \\/     M anipulation  |
\*---------------------------------------------------------------------------*/
FoamFile
{
    version     2.0;
    format      ascii;
    class       volScalarField;
    location    "0.0003";
    object      p;
}
// * * * * * * * * * * * * * * * * * * * * * * * * * * * * * * * * * * * * * //

dimensions      [1 -1 -2 0 0 0 0];

internalField   nonuniform List<scalar> 
1167
(
1340711.626
1351192.354
1348862.639
1349596.058
1350889.644
1352325.365
1353995.235
1355883.632
1357965.093
1360220.111
1362631.439
1365182.17
1367856.295
1370638.948
1373516.378
1376475.775
1379505.347
1382594.272
1385732.668
1388911.559
1392122.799
1395359.279
1398614.367
1401882.582
1405158.744
1408438.458
1411718.038
1414994.226
1418264.206
1421525.674
1424776.863
1428016.375
1431243.283
1434457.041
1437657.348
1336799.657
1347284.854
1344970.444
1345673.231
1346949.554
1348365.045
1350010.095
1351871.542
1353923.88
1356148.523
1358527.888
1361045.736
1363686.387
1366435.158
1369278.382
1372203.369
1375198.348
1378252.509
1381355.984
1384499.811
1387675.872
1390876.792
1394096.279
1397328.507
1400568.441
1403811.779
1407054.737
1410294.096
1413527.022
1416751.317
1419965.231
1423167.346
1426356.684
1429532.468
1432694.129
1435840.76
1438970.372
1442078.406
1445155.04
1448182.14
1451131.178
1453965.075
1456644.891
1459139
1461428.867
1463507.363
1465375.471
1467062.231
1468661.176
1470171.131
1332772.01
1343256.372
1340958.419
1341630.491
1342889.284
1344284.234
1345904.341
1347738.986
1349762.474
1351957.015
1354305.581
1356791.739
1359400.283
1362116.842
1364927.849
1367820.717
1370783.639
1373805.851
1376877.435
1379989.292
1383133.443
1386302.444
1389489.908
1392689.997
1395897.794
1399108.9
1402319.559
1405526.583
1408727.264
1411919.431
1415101.289
1418271.446
1421428.846
1424572.565
1427701.675
1430814.63
1433908.422
1436976.843
1440007.917
1442981.057
1445866.06
1448626.317
1451226.252
1453639.664
1455853.695
1457865.738
1459679.839
1461326.631
1462898.392
1464388.089
1328617.442
1339096.602
1336816.454
1337458.379
1338699.928
1340074.608
1341670.694
1343479.239
1345475.404
1347641.152
1349960.382
1352417.033
1354995.939
1357682.857
1360464.375
1363327.954
1366261.849
1369255.282
1372298.23
1375381.683
1378497.31
1381638
1384797.008
1387968.804
1391148.295
1394331.101
1397513.62
1400692.658
1403865.622
1407030.355
1410185.047
1413328.31
1416458.971
1419576
1422678.076
1425763.037
1428826.82
1431861.591
1434853.276
1437779.23
1440608.24
1443304.781
1445836.73
1448182.709
1450334.517
1452293.003
1454064.401
1455680.405
1457231.996
1458706.605
1324325.46
1334795.817
1332534.986
1333147.844
1334372.658
1335728.299
1337301.996
1339086.117
1341056.925
1343196.542
1345488.944
1347918.715
1350470.895
1353131.332
1355886.678
1358724.394
1361632.754
1364600.895
1367618.755
1370677.188
1373768.042
1376883.828
1380018.156
1383165.303
1386320.159
1389478.564
1392636.941
1395792.146
1398941.614
1402083.247
1405215.312
1408336.416
1411445.264
1414540.6
1417620.728
1420682.882
1423721.945
1426728.548
1429686.721
1432572.101
1435352.95
1437995.21
1440470.141
1442760.593
1444862.127
1446778.201
1448516.612
1450109.779
1451647.458
1453111.787
1319886.035
1330344.933
1328105.045
1328690.087
1329899.29
1331237.999
1332791.302
1334553.768
1336501.759
1338618.279
1340887.441
1343293.821
1345822.821
1348460.435
1351193.311
1354008.882
1356895.39
1359841.865
1362838.268
1365875.394
1368944.914
1372039.512
1375152.753
1378278.765
1381412.721
1384550.545
1387688.568
1390823.78
1393953.751
1397076.405
1400190.088
1403293.385
1406384.939
1409463.271
1412526.268
1415570.472
1418589.749
1421573.307
1424503.496
1427354.62
1430094.841
1432691.768
1435119.815
1437365.441
1439427.227
1441310.6
1443024.472
1444601.8
1446131.254
1447589.848
1315289.858
1325735.401
1323517.981
1324076.79
1325272.302
1326596.626
1328132.24
1329876.277
1331805.062
1333901.937
1336151.52
1338538.577
1341048.507
1343667.367
1346381.839
1349179.252
1352047.875
1354976.596
1357955.297
1360974.699
1364026.587
1367103.603
1370199.196
1373307.721
1376424.453
1379545.235
1382666.514
1385785.454
1388899.722
1392007.322
1395106.646
1398196.228
1401274.668
1404340.26
1407390.511
1410421.296
1413425.46
1416390.861
1419298.383
1422121.348
1424828.131
1427388.098
1429778.545
1431988.974
1434020.345
1435879.552
1437576.342
1439144.102
1440670.578
1442127.76
1310528.016
1320959.004
1318765.607
1319300.298
1320484.724
1321797.397
1323318.89
1325047.897
1326961.746
1329043.315
1331277.583
1333649.628
1336144.84
1338749.29
1341449.649
1344233.092
1347087.791
1350002.621
1352967.431
1355972.889
1359010.793
1362073.725
1365155.271
1368249.884
1371352.784
1374459.995
1377568.13
1380674.452
1383776.686
1386872.956
1389961.691
1393041.404
1396110.621
1399167.425
1402208.952
1405230.444
1408223.775
1411175.582
1414065.502
1416866.164
1419546.375
1422077.244
1424438.642
1426622.593
1428631.924
1430474.59
1432160.938
1433724.783
1435253.153
1436713.049
1305592.067
1316008.269
1313840.599
1314353.874
1315529.833
1316834.117
1318345.437
1320063.538
1321966.515
1324037.499
1326261.313
1328623.051
1331108.18
1333702.732
1336393.252
1339166.991
1342011.95
1344916.944
1347871.668
1350866.968
1353894.451
1356946.942
1360017.921
1363101.981
1366194.542
1369291.67
1372390.155
1375487.36
1378581.074
1381669.526
1384751.199
1387824.647
1390888.295
1393940.016
1396976.575
1399992.613
1402979.113
1405921.615
1408798.729
1411582.643
1414242.744
1416751.794
1419091.906
1421257.233
1423252.066
1425085.101
1426767.058
1428332.176
1429866.993
1431333.554
1300474.624
1310876.484
1308736.419
1309231.097
1310401.258
1311701.005
1313206.084
1314918.103
1316814.795
1318879.778
1321097.898
1323454.193
1325934.086
1328523.466
1331208.797
1333977.242
1336816.622
1339715.763
1342664.361
1345653.159
1348673.967
1351719.463
1354783.344
1357860.334
1360946.005
1364036.431
1367128.54
1370219.871
1373308.358
1376392.332
1379470.295
1382540.834
1385602.29
1388652.356
1391687.442
1394701.611
1397685.049
1400622.329
1403491.233
1406263.713
1408909.838
1411403.883
1413729.873
1415883.689
1417870.78
1419700.384
1421383.474
1422954.669
1424500.217
1425977.229
1295168.864
1305557.679
1303446.906
1303925.546
1305093.098
1306392.375
1307895.457
1309605.942
1311501.625
1313565.641
1315783.047
1318138.851
1320618.388
1323207.352
1325892.006
1328659.441
1331497.467
1334394.799
1337341.126
1340327.24
1343344.928
1346386.971
1349447.304
1352520.624
1355602.581
1358689.53
1361778.547
1364867.253
1367953.73
1371036.411
1374113.844
1377184.63
1380247.044
1383298.626
1386335.457
1389351.071
1392334.939
1395270.805
1398135.812
1400901.83
1403539.653
1406024.993
1408343.497
1410492.352
1412477.85
1414309.644
1415998.893
1417580.607
1419140.936
1420632.022
1289668.353
1300046.029
1297965.921
1298431.308
1299599.839
1300902.495
1302408.339
1304121.825
1306021.313
1308089.659
1310311.599
1312671.988
1315155.989
1317749.187
1320437.784
1323208.708
1326049.609
1328949.153
1331897.123
1334884.246
1337902.464
1340944.62
1344004.705
1347077.666
1350159.211
1353245.928
1356335.043
1359424.253
1362511.769
1365596.137
1368676.013
1371750.009
1374816.335
1377872.379
1380913.935
1383934.057
1386921.598
1389859.628
1392724.83
1395489.106
1398123.955
1400606.368
1402923.372
1405073.231
1407062.799
1408901.934
1410601.958
1412198.342
1413777.292
1415285.928
1283966.689
1294335.625
1292287.616
1292742.901
1293915.868
1295225.869
1296739.088
1298460.591
1300368.75
1302446.368
1304677.883
1307047.914
1309541.368
1312143.674
1314840.832
1317619.538
1320467.516
1323373.333
1326326.771
1329318.68
1332340.994
1335386.69
1338449.929
1341525.87
1344610.26
1347699.829
1350791.99
1353884.631
1356976.106
1360065.026
1363150.153
1366230.124
1369303.111
1372366.368
1375415.435
1378442.945
1381437.211
1384380.763
1387249.969
1390016.899
1392653.794
1395138.682
1397459.688
1399615.944
1401614.727
1403465.946
1405181.014
1406795.915
1408397.084
1409926.559
1278057.669
1288420.9
1286406.453
1286854.798
1288035.334
1289356.953
1290881.771
1292616.307
1294538.333
1296630.268
1298876.377
1301261.04
1303768.835
1306384.845
1309094.986
1311885.901
1314745.098
1317661.211
1320623.989
1323624.366
1326654.319
1329707.073
1332776.861
1335858.895
1338949.209
1342044.69
1345142.885
1348241.867
1351340.137
1354436.371
1357529.41
1360617.943
1363700.143
1366773.155
1369832.285
1372869.839
1375873.69
1378825.94
1381702.746
1384476.411
1387119.894
1389612.214
1391942.33
1394109.944
1396122.641
1397990.319
1399724.4
1401361.402
1402988.179
1404541.628
1271935.185
1282296.401
1280316.846
1280760.951
1281952.363
1283289.739
1284830.598
1286582.583
1288523.415
1290634.793
1292900.542
1295304.677
1297831.498
1300465.94
1303193.685
1306001.086
1308875.665
1311806.038
1314781.97
1317794.489
1320835.667
1323898.834
1326978.412
1330069.757
1333169.114
1336273.511
1339380.626
1342488.701
1345596.377
1348702.489
1351805.969
1354905.536
1357999.367
1361084.524
1364156.123
1367206.184
1370222.251
1373186.127
1376073.921
1378858.212
1381512.544
1384016.788
1386360.648
1388544.192
1390575.123
1392463.264
1394220.006
1395882.451
1397538.024
1399118.415
1265592.971
1275956.264
1274012.551
1274454.951
1275660.75
1277017.579
1278579.161
1280353.153
1282317.399
1284453.004
1286743.264
1289171.744
1291722.408
1294379.926
1297129.555
1299957.743
1302851.792
1305800.375
1308793.263
1311821.556
1314877.427
1317954.408
1321047.071
1324150.877
1327262.245
1330378.417
1333497.236
1336617.106
1339736.792
1342855.298
1345971.639
1349084.58
1352192.31
1355291.844
1358378.156
1361443.069
1364473.853
1367452.091
1370353.951
1373152.388
1375821.55
1378341.907
1380703.732
1382907.375
1384960.501
1386872.79
1388655.574
1390346.571
1392033.914
1393644.03
1259024.063
1269393.706
1267486.585
1267930.105
1269153.516
1270533.494
1272119.835
1273920.643
1275913.004
1278077.535
1280397.064
1282854.65
1285433.705
1288118.624
1290894.586
1293747.718
1296665.342
1299636.036
1302649.663
1305697.325
1308771.423
1311865.565
1314974.46
1318093.783
1321220.17
1324350.988
1327484.268
1330618.578
1333752.805
1336886.09
1340017.563
1343146.081
1346269.868
1349385.9
1352489.02
1355570.936
1358618.744
1361613.974
1364532.852
1367348.687
1370036.255
1372576.579
1374960.253
1377187.792
1379266.75
1381206.586
1383018.546
1384740.981
1386462.863
1388105.301
1252220.382
1262601.158
1260731.497
1261178.931
1262422.742
1263829.781
1265444.697
1267276.441
1269301.574
1271499.753
1273853.163
1276344.329
1278956.397
1281673.336
1284479.91
1287362.146
1290307.386
1293304.09
1296342.17
1299412.827
1302508.565
1305623.18
1308751.53
1311889.463
1315033.778
1318182.022
1321332.421
1324483.719
1327634.936
1330785.338
1333934.181
1337080.428
1340222.34
1343356.882
1346478.877
1349579.889
1352646.884
1355661.465
1358600.081
1361436.393
1364145.664
1366709.439
1369118.52
1371373.428
1373481.544
1375452.045
1377296.058
1379052.598
1380811.584
1382488.767
1245173.291
1255570.449
1253739.04
1254192.64
1255459.77
1256897.402
1258545.055
1260411.809
1262473.97
1264710.275
1267102.122
1269631.477
1272281.126
1275034.311
1277875.758
1280791.319
1283768.11
1286794.686
1289860.954
1292958.148
1296079.022
1299217.459
1302368.419
1305527.971
1308693.131
1311861.606
1315031.793
1318202.594
1321373.214
1324543.051
1327711.468
1330877.528
1334039.551
1337194.503
1340337.254
1343459.319
1346547.66
1349583.879
1352544.711
1355404.305
1358138.347
1360728.735
1363166.448
1365451.883
1367592.185
1369596.194
1371474.897
1373267.996
1375066.46
1376780.63
1237873.108
1248292.161
1246499.435
1246961.238
1248254.797
1249726.161
1251410.498
1253316.577
1255420.021
1257698.827
1260133.622
1262705.655
1265397.006
1268190.803
1271071.449
1274024.4
1277036.8
1280097.079
1283195.267
1286322.67
1289472.093
1292637.618
1295814.411
1298998.694
1302187.632
1305379.117
1308571.736
1311764.55
1314956.945
1318148.459
1321338.599
1324526.52
1327710.626
1330887.95
1334053.329
1337198.279
1340309.881
1343369.924
1346355.359
1349240.78
1352002.378
1354622.278
1357091.552
1359410.396
1361585.646
1363625.754
1365541.552
1367373.447
1369213.554
1370966.765
1230308.655
1240755.097
1239001.291
1239473.701
1240796.435
1242304.935
1244029.385
1245978.769
1248127.84
1250453.516
1252935.569
1255554.641
1258292.256
1261131.135
1264055.091
1267049.636
1270101.608
1273199.577
1276333.43
1279494.62
1282676.155
1285872.175
1289077.995
1292290.053
1295505.684
1298723.01
1301940.779
1305158.178
1308374.769
1311590.257
1314804.27
1318016.072
1321224.157
1324425.675
1327615.52
1330785.266
1333922.012
1337007.842
1340020.106
1342933.748
1345725.425
1348377.492
1350880.968
1353235.821
1355448.517
1357527.085
1359482.167
1361354.888
1363238.596
1365032.712
1222466.632
1232946.348
1231231.997
1231717.396
1233071.758
1234620.94
1236389.187
1238385.668
1240584.462
1242961.303
1245495.049
1248165.689
1250954.021
1253842.152
1256813.793
1259854.042
1262949.736
1266089.265
1269262.651
1272461.411
1275678.592
1278908.493
1282146.665
1285389.701
1288635.086
1291881.119
1295126.744
1298371.3
1301614.498
1304856.246
1308096.314
1311334.093
1314568.185
1317795.759
1321011.82
1324208.104
1327371.899
1330485.447
1333526.563
1336470.663
1339294.725
1341981.336
1344521.391
1346914.589
1349166.975
1351286.125
1353282.466
1355197.838
1357126.905
1358963.601
1214332.525
1224851.753
1223177.334
1223677.575
1225066.334
1226659.256
1228475.285
1230522.877
1232775.517
1235207.865
1237797.797
1240524.304
1243367.647
1246309.589
1249333.202
1252423.517
1255567.072
1258752.307
1261969.123
1265209.24
1268465.809
1271733.202
1275007.106
1278284.332
1281562.551
1284840.261
1288116.557
1291390.965
1294663.366
1297933.777
1301202.107
1304467.912
1307729.947
1310985.511
1314229.669
1317454.238
1320646.822
1323789.987
1326861.875
1329838.458
1332697.028
1335420.335
1337999.12
1340432.755
1342726.819
1344888.432
1346927.779
1348887.42
1350863.398
1352744.157
1254437.897
1257723.358
1261023.063
1264331.634
1267644.891
1270959.772
1274274.116
1277586.592
1280896.462
1284203.457
1287507.664
1290809.22
1294108.193
1297404.266
1300696.264
1303981.686
1307255.779
1310510.498
1313733.614
1316908.158
1320012.688
1323023.611
1325918.618
1328680.535
1331299.962
1333775.891
1336113.404
1338319.141
1340403.026
1342408.338
1344432.563
1346358.672
)
;

boundaryField
{
    front_top
    {
        type            wedge;
    }
    front_middle
    {
        type            wedge;
    }
    front_bottom
    {
        type            wedge;
    }
    back_top
    {
        type            wedge;
    }
    back_middle
    {
        type            wedge;
    }
    back_bottom
    {
        type            wedge;
    }
    axis_top
    {
        type            symmetryPlane;
    }
    axis_middle
    {
        type            symmetryPlane;
    }
    axis_bottom
    {
        type            symmetryPlane;
    }
    wall_top
    {
        type            fixedFluxPressure;
        gradient        nonuniform 0();
        value           nonuniform 0();
    }
    wall_middle
    {
        type            fixedFluxPressure;
        gradient        uniform 0;
        value           nonuniform List<scalar> 
23
(
1470171.131
1464388.089
1458706.605
1453111.787
1447589.848
1442127.76
1436713.049
1431333.554
1425977.229
1420632.022
1415285.928
1409926.559
1404541.628
1399118.415
1393644.03
1388105.301
1382488.767
1376780.63
1370966.765
1365032.712
1358963.601
1352744.157
1346358.672
)
;
    }
    wall_bottom
    {
        type            fixedFluxPressure;
        gradient        nonuniform 0();
        value           nonuniform 0();
    }
    inlet
    {
        type            zeroGradient;
    }
    outlet
    {
        type            fixedValue;
        value           nonuniform 0();
    }
    procBoundary4to3
    {
        type            processor;
        value           nonuniform List<scalar> 
51
(
1205889.989
1216455.123
1214820.828
1215337.864
1216763.96
1218403.711
1220270.944
1222373.775
1224684.582
1227176.806
1229827.299
1232614.312
1235517.424
1238517.635
1241597.761
1244742.526
1247938.357
1251173.453
1251173.453
1246652.596
1249987.618
1253334.621
1256688.272
1260044.578
1263400.651
1266754.565
1270105.13
1273451.747
1276794.335
1280133.116
1283468.371
1286800.374
1290128.978
1293453.158
1296770.479
1300076.351
1303363.018
1306618.496
1309826.14
1312965.061
1316012.077
1318945.274
1321747.523
1324409.271
1326929.105
1329311.61
1331562.908
1333692.638
1335744.815
1337818.413
1339790.952
)
;
    }
    procBoundary4to5
    {
        type            processor;
        value           nonuniform List<scalar> 
51
(
1344519.287
1354989.59
1352645.568
1353408.874
1354718.582
1356173.89
1357867.4
1359782.099
1361891.668
1364176.861
1366619.937
1369203.386
1371911.28
1374728.684
1377641.544
1380636.941
1383703.024
1386828.942
1390004.728
1393221.565
1396471.26
1399746.53
1403041.04
1406349.02
1409665.567
1412986.104
1416306.896
1419624.745
1422936.873
1426240.891
1429534.993
1432817.851
1436088.561
1439346.75
1442592.377
1440843.894
1440843.894
1444015.681
1447169.678
1450298.351
1453386.447
1456407.886
1459325.805
1462098.279
1464687.879
1467069.264
1469229.346
1471164.817
1472902.342
1474536.494
1476072.361
)
;
    }
}


// ************************************************************************* //
