/*--------------------------------*- C++ -*----------------------------------*\
  =========                 |
  \\      /  F ield         | OpenFOAM: The Open Source CFD Toolbox
   \\    /   O peration     | Website:  https://openfoam.org
    \\  /    A nd           | Version:  7
     \\/     M anipulation  |
\*---------------------------------------------------------------------------*/
FoamFile
{
    version     2.0;
    format      ascii;
    class       surfaceScalarField;
    location    "0.0003";
    object      phi;
}
// * * * * * * * * * * * * * * * * * * * * * * * * * * * * * * * * * * * * * //

dimensions      [1 0 -1 0 0 0 0];

internalField   nonuniform List<scalar> 
2260
(
-6.188718784e-13
6.481538865e-11
-2.421423378e-12
1.895047805e-10
-5.313343905e-12
3.067574478e-10
-9.189647117e-12
4.1658962e-10
-1.393728073e-11
5.190889676e-10
-1.943856648e-11
6.143787704e-10
-2.557377982e-11
7.026119752e-10
-3.222380262e-11
7.839711396e-10
-3.927175543e-11
8.586616519e-10
-4.660503825e-11
9.269069222e-10
-5.411631844e-11
9.88943564e-10
-6.170456899e-11
1.045017563e-09
-6.927577267e-11
1.095380365e-09
-7.674333469e-11
1.140285659e-09
-8.402814598e-11
1.179986279e-09
-9.105866072e-11
1.214731877e-09
-9.777072619e-11
1.244766679e-09
-1.04107278e-10
1.270327785e-09
-1.100180387e-10
1.291643926e-09
-1.15459099e-10
1.308934228e-09
-1.203926379e-10
1.322407778e-09
-1.247862902e-10
1.332262628e-09
-1.286130683e-10
1.33868597e-09
-1.318506818e-10
1.34185341e-09
-1.344814963e-10
1.341929128e-09
-1.364920455e-10
1.339065581e-09
-1.378726085e-10
1.333402929e-09
-1.386170975e-10
1.325068713e-09
-1.387226742e-10
1.31417713e-09
-1.381892054e-10
1.300827678e-09
-1.370188113e-10
1.285103333e-09
-1.352152629e-10
1.267068009e-09
-1.327830998e-10
1.246762883e-09
-1.297265448e-10
1.224200904e-09
1.199358948e-09
-6.217687829e-13
6.543715743e-11
-2.432864971e-12
1.913158766e-10
-5.339148447e-12
3.096637311e-10
-9.235979407e-12
4.204864508e-10
-1.401077509e-11
5.238637634e-10
-1.954628875e-11
6.199142842e-10
-2.572338422e-11
7.087890707e-10
-3.24232572e-11
7.906710127e-10
-3.952938891e-11
8.657677837e-10
-4.692907444e-11
9.343066076e-10
-5.451485112e-11
9.965293406e-10
-6.218526443e-11
1.052687977e-09
-6.984556528e-11
1.103040666e-09
-7.740809792e-11
1.147848192e-09
-8.47924947e-11
1.187370676e-09
-9.192562497e-11
1.221865007e-09
-9.874157564e-11
1.251582629e-09
-1.051813527e-10
1.276767562e-09
-1.111926367e-10
1.29765521e-09
-1.167294103e-10
1.314471001e-09
-1.217515579e-10
1.327429925e-09
-1.262247388e-10
1.336735809e-09
-1.301197308e-10
1.342580963e-09
-1.33412421e-10
1.3451461e-09
-1.36083342e-10
1.344600049e-09
-1.381173119e-10
1.341099551e-09
-1.39503262e-10
1.334788879e-09
-1.402338256e-10
1.325799277e-09
-1.403050604e-10
1.314248364e-09
-1.397158801e-10
1.300238497e-09
-1.384675214e-10
1.283854975e-09
-1.365629929e-10
1.265163481e-09
-1.340061069e-10
1.244205997e-09
-1.308003564e-10
1.220995153e-09
-1.269471778e-10
1.195505769e-09
-1.224438449e-10
1.167662825e-09
-1.172804124e-10
1.137323665e-09
-1.114358694e-10
1.104252138e-09
-1.048742659e-10
1.068082893e-09
-9.754194261e-11
1.02827389e-09
-8.936960349e-11
9.840513648e-10
-8.02839165e-11
9.343554062e-10
-7.023432066e-11
8.77798527e-10
-5.923652472e-11
8.126456424e-10
-4.743211647e-11
7.368138278e-10
-3.516121865e-11
6.478828643e-10
-2.304575178e-11
5.431065628e-10
-1.208100227e-11
4.194371619e-10
-3.729818662e-12
2.736087417e-10
1.023008518e-10
-6.195406797e-13
6.605669811e-11
-2.42429184e-12
1.931206278e-10
-5.32116517e-12
3.125606045e-10
-9.206861463e-12
4.243721472e-10
-1.397032487e-11
5.286272268e-10
-1.949597279e-11
6.254399322e-10
-2.566640593e-11
7.14959504e-10
-3.236425179e-11
7.973688585e-10
-3.94744303e-11
8.72877962e-10
-4.688533419e-11
9.417175114e-10
-5.449017054e-11
1.004134177e-09
-6.218791755e-11
1.060385724e-09
-6.988384726e-11
1.110736596e-09
-7.748989848e-11
1.155454243e-09
-8.492495038e-11
1.194805728e-09
-9.211479004e-11
1.229054847e-09
-9.899209375e-11
1.258459934e-09
-1.054962327e-10
1.283271701e-09
-1.115729641e-10
1.303731942e-09
-1.171743572e-10
1.320072395e-09
-1.222582591e-10
1.332513827e-09
-1.267882293e-10
1.341265779e-09
-1.30733117e-10
1.346525851e-09
-1.340669172e-10
1.3484799e-09
-1.367683763e-10
1.347301508e-09
-1.388207565e-10
1.343151931e-09
-1.402115918e-10
1.336179715e-09
-1.409322953e-10
1.32651998e-09
-1.409777799e-10
1.314293849e-09
-1.403459519e-10
1.29960667e-09
-1.390372997e-10
1.282546323e-09
-1.370541023e-10
1.263180284e-09
-1.343994226e-10
1.241551318e-09
-1.310760474e-10
1.217671779e-09
-1.270847426e-10
1.191514465e-09
-1.22422181e-10
1.163000264e-09
-1.170780934e-10
1.131979578e-09
-1.110319502e-10
1.098205995e-09
-1.042498809e-10
1.061300823e-09
-9.668361268e-11
1.020707621e-09
-8.827495307e-11
9.756427052e-10
-7.896995837e-11
9.250504115e-10
-6.874648287e-11
8.675750515e-10
-5.765558523e-11
8.015547447e-10
-4.587486466e-11
7.250331072e-10
-3.377069467e-11
6.357786942e-10
-2.196710327e-11
5.313029713e-10
-1.141953282e-11
4.088895914e-10
-3.488966868e-12
2.656781757e-10
9.881188491e-11
-6.126321275e-13
6.666933027e-11
-2.397437403e-12
1.949054331e-10
-5.263174749e-12
3.154263418e-10
-9.10879359e-12
4.28217766e-10
-1.382577795e-11
5.333442112e-10
-1.930135232e-11
6.309155064e-10
-2.542075939e-11
7.210789109e-10
-3.206929906e-11
8.040173982e-10
-3.913413989e-11
8.799428029e-10
-4.65057907e-11
9.490891624e-10
-5.407907425e-11
1.01170746e-09
-6.175404626e-11
1.068060695e-09
-6.943664906e-11
1.118419198e-09
-7.703905615e-11
1.16305665e-09
-8.44798711e-11
1.202246543e-09
-9.168421737e-11
1.236259193e-09
-9.858366914e-11
1.265359385e-09
-1.051161479e-10
1.28980418e-09
-1.112258915e-10
1.309841685e-09
-1.16863051e-10
1.325709554e-09
-1.219837277e-10
1.337634504e-09
-1.265494181e-10
1.345831469e-09
-1.305272356e-10
1.350503668e-09
-1.338892623e-10
1.351841927e-09
-1.366125871e-10
1.350024834e-09
-1.386790223e-10
1.345218367e-09
-1.400746381e-10
1.33757533e-09
-1.407896126e-10
1.327234954e-09
-1.408177721e-10
1.314322008e-09
-1.401561183e-10
1.298945016e-09
-1.388042865e-10
1.281194491e-09
-1.367637775e-10
1.261139775e-09
-1.340370131e-10
1.238824553e-09
-1.306260965e-10
1.214260862e-09
-1.265311973e-10
1.187419565e-09
-1.217485965e-10
1.158217663e-09
-1.162679658e-10
1.126498947e-09
-1.100697758e-10
1.092007805e-09
-1.031230208e-10
1.054354069e-09
-9.538580154e-11
1.012970402e-09
-8.681168425e-11
9.670685879e-10
-7.736560255e-11
9.156043298e-10
-6.705132717e-11
8.57260776e-10
-5.595000573e-11
7.904534232e-10
-4.426735124e-11
7.133504526e-10
-3.238672436e-11
6.238980673e-10
-2.092620506e-11
5.198424521e-10
-1.079833276e-11
3.987617192e-10
-3.268776749e-12
2.581486197e-10
9.554310817e-11
-6.015413338e-13
6.72708716e-11
-2.354245088e-12
1.966581369e-10
-5.169418188e-12
3.18241515e-10
-8.949067479e-12
4.319974153e-10
-1.358817825e-11
5.379833219e-10
-1.897765779e-11
6.36304986e-10
-2.500632299e-11
7.271075762e-10
-3.156309538e-11
8.105741707e-10
-3.853831724e-11
8.86918025e-10
-4.58252814e-11
9.563761266e-10
-5.332122771e-11
1.019203407e-09
-6.092804134e-11
1.075667509e-09
-6.855292855e-11
1.126044086e-09
-7.610873018e-11
1.170612452e-09
-8.351423688e-11
1.20965205e-09
-9.069422997e-11
1.243439186e-09
-9.757957327e-11
1.272244728e-09
-1.041071144e-10
1.296331721e-09
-1.102196089e-10
1.31595418e-09
-1.158656982e-10
1.331355643e-09
-1.209996449e-10
1.342768451e-09
-1.255813571e-10
1.350413182e-09
-1.295760388e-10
1.354498349e-09
-1.329541307e-10
1.355220018e-09
-1.356911992e-10
1.352761902e-09
-1.377674941e-10
1.347294662e-09
-1.39167696e-10
1.338975532e-09
-1.398808706e-10
1.327948129e-09
-1.398997393e-10
1.314340877e-09
-1.392203745e-10
1.298265651e-09
-1.378415775e-10
1.279815694e-09
-1.357639726e-10
1.25906217e-09
-1.329893625e-10
1.236049943e-09
-1.295191844e-10
1.210790684e-09
-1.253532e-10
1.183253581e-09
-1.204873659e-10
1.153351829e-09
-1.149117107e-10
1.120923292e-09
-1.086081041e-10
1.085704199e-09
-1.015490381e-10
1.047295003e-09
-9.369959519e-11
1.005120959e-09
-8.502544574e-11
9.583944385e-10
-7.550948575e-11
9.060883698e-10
-6.517866257e-11
8.469299529e-10
-5.413923015e-11
7.79413991e-10
-4.261824392e-11
7.018294665e-10
-3.100860025e-11
6.122884237e-10
-1.991646905e-11
5.087503209e-10
-1.020981861e-11
3.890550687e-10
-3.065130804e-12
2.51003932e-10
9.247797736e-11
-5.868078168e-13
6.785767941e-11
-2.296817107e-12
1.983681462e-10
-5.044486187e-12
3.209891841e-10
-8.735609576e-12
4.356885387e-10
-1.326944067e-11
5.42517153e-10
-1.854126005e-11
6.415768055e-10
-2.444439749e-11
7.330107137e-10
-3.087199803e-11
8.17001771e-10
-3.771845345e-11
8.937644804e-10
-4.488055288e-11
9.63538226e-10
-5.22584449e-11
1.026581299e-09
-5.975649839e-11
1.083165563e-09
-6.728366537e-11
1.133571253e-09
-7.475396927e-11
1.178082756e-09
-8.208676822e-11
1.216984849e-09
-8.920690939e-11
1.250559327e-09
-9.60447886e-11
1.279082607e-09
-1.025364406e-10
1.302823373e-09
-1.086235251e-10
1.322041264e-09
-1.142532765e-10
1.336985394e-09
-1.193784725e-10
1.347893646e-09
-1.239574119e-10
1.354992122e-09
-1.279536468e-10
1.358494585e-09
-1.31336196e-10
1.358602568e-09
-1.340789919e-10
1.355504698e-09
-1.361608133e-10
1.349376483e-09
-1.375652321e-10
1.340379951e-09
-1.382800757e-10
1.328662973e-09
-1.38296986e-10
1.314357787e-09
-1.376110771e-10
1.297579742e-09
-1.362202309e-10
1.278424848e-09
-1.341243621e-10
1.256966301e-09
-1.313244579e-10
1.233250039e-09
-1.278214113e-10
1.207287637e-09
-1.236145364e-10
1.179046706e-09
-1.18699793e-10
1.148437085e-09
-1.130678137e-10
1.115291313e-09
-1.067022936e-10
1.079338679e-09
-9.957972536e-11
1.040172434e-09
-9.167263587e-11
9.972138696e-10
-8.295854969e-11
9.496803523e-10
-7.34371913e-11
8.965670114e-10
-6.315584517e-11
8.366486067e-10
-5.224134922e-11
7.68499495e-10
-4.09362497e-11
6.905243671e-10
-2.963706296e-11
6.009892371e-10
-1.893362249e-11
4.980468804e-10
-9.64867938e-12
3.797701256e-10
-2.875082749e-12
2.442303353e-10
8.960289462e-11
-5.689971464e-13
6.842667656e-11
-2.227372273e-12
2.000265212e-10
-4.893245371e-12
3.236550572e-10
-8.476770103e-12
4.392720634e-10
-1.288202888e-11
5.469224118e-10
-1.800931803e-11
6.467040945e-10
-2.375716241e-11
7.387585578e-10
-3.002350272e-11
8.232681114e-10
-3.670732886e-11
9.004483066e-10
-4.370951681e-11
9.70540414e-10
-5.093376836e-11
1.03380555e-09
-5.828726374e-11
1.090519058e-09
-6.56811996e-11
1.140965189e-09
-7.303119146e-11
1.185432748e-09
-8.025750495e-11
1.224211162e-09
-8.728541925e-11
1.257587241e-09
-9.404521012e-11
1.285842398e-09
-1.004724241e-10
1.309250587e-09
-1.065078305e-10
1.328076671e-09
-1.12097568e-10
1.342575132e-09
-1.171931342e-10
1.352989213e-09
-1.217513657e-10
1.359550352e-09
-1.257345048e-10
1.362477724e-09
-1.291100435e-10
1.361978107e-09
-1.318505219e-10
1.358245176e-09
-1.339334823e-10
1.351459444e-09
-1.353412835e-10
1.341787752e-09
-1.36060529e-10
1.329382218e-09
-1.360818292e-10
1.314379088e-09
-1.35399332e-10
1.296897245e-09
-1.340099643e-10
1.27703548e-09
-1.319128778e-10
1.254869215e-09
-1.291083508e-10
1.230445512e-09
-1.255966777e-10
1.203775964e-09
-1.213768712e-10
1.1748269e-09
-1.16444952e-10
1.143505166e-09
-1.107924375e-10
1.109638798e-09
-1.044052535e-10
1.072951495e-09
-9.726429682e-11
1.033031478e-09
-8.934964818e-11
9.892992211e-10
-8.065040177e-11
9.409811058e-10
-7.118164265e-11
8.870982521e-10
-6.100816162e-11
8.264751257e-10
-5.027327588e-11
7.577646092e-10
-3.92300963e-11
6.794811875e-10
-2.827401493e-11
5.900331556e-10
-1.797526355e-11
4.87748129e-10
-9.111307509e-12
3.709061696e-10
-2.69657555e-12
2.378156033e-10
8.690631907e-11
-5.487008138e-13
6.89753774e-11
-2.14821533e-12
2.016260358e-10
-4.720707343e-12
3.262275492e-10
-8.181106368e-12
4.427324624e-10
-1.243870767e-11
5.511800131e-10
-1.73994059e-11
6.516647929e-10
-2.296724867e-11
7.443264008e-10
-2.904561925e-11
8.293464821e-10
-3.553837067e-11
9.069410582e-10
-4.235093563e-11
9.773529791e-10
-4.939095523e-11
1.04084557e-09
-5.656886888e-11
1.097696972e-09
-6.379848098e-11
1.148194801e-09
-7.099733275e-11
1.1926316e-09
-7.808701694e-11
1.231300846e-09
-8.499353183e-11
1.264493756e-09
-9.164738219e-11
1.292496249e-09
-9.798389051e-11
1.315587095e-09
-1.039432542e-10
1.334036035e-09
-1.094707911e-10
1.348102669e-09
-1.145169215e-10
1.358035343e-09
-1.190373822e-10
1.364070813e-09
-1.229931614e-10
1.366433503e-09
-1.263504134e-10
1.365335359e-09
-1.290805387e-10
1.360975301e-09
-1.311598616e-10
1.353538767e-09
-1.325694916e-10
1.343197382e-09
-1.332949358e-10
1.330107662e-09
-1.333257778e-10
1.31440993e-09
-1.326551857e-10
1.296226653e-09
-1.312791979e-10
1.275659492e-09
-1.291961299e-10
1.252786147e-09
-1.264055503e-10
1.227654932e-09
-1.22907237e-10
1.200277651e-09
-1.186999281e-10
1.17061959e-09
-1.137799e-10
1.138585138e-09
-1.08139773e-10
1.103998671e-09
-1.017679259e-10
1.066579648e-09
-9.464990148e-11
1.025913453e-09
-8.677337899e-11
9.814226987e-10
-7.813836985e-11
9.323460968e-10
-6.877378493e-11
8.777336674e-10
-5.875929604e-11
8.164606369e-10
-4.825095586e-11
7.472562691e-10
-3.750834617e-11
6.687385778e-10
-2.692189191e-11
5.794467013e-10
-1.703992122e-11
4.778661583e-10
-8.595078119e-12
3.624613265e-10
-2.528028714e-12
2.31748554e-10
8.437829036e-11
-5.26517085e-13
6.950189449e-11
-2.06166781e-12
2.031611866e-10
-4.531906087e-12
3.286977875e-10
-7.857169014e-12
4.460577254e-10
-1.195231886e-11
5.552751629e-10
-1.672915986e-11
6.56441634e-10
-2.209745231e-11
7.496946934e-10
-2.796632835e-11
8.352153579e-10
-3.424494518e-11
9.132196747e-10
-4.084348572e-11
9.839515196e-10
-4.767379781e-11
1.047675882e-09
-5.464990899e-11
1.104673083e-09
-6.168856544e-11
1.155233457e-09
-6.870955059e-11
1.199652584e-09
-7.563613055e-11
1.238227426e-09
-8.239526368e-11
1.271252889e-09
-8.891804045e-11
1.299019026e-09
-9.513986051e-11
1.321808915e-09
-1.010007284e-10
1.339896903e-09
-1.064453259e-10
1.353547267e-09
-1.114234267e-10
1.363013444e-09
-1.15889718e-10
1.368537105e-09
-1.198042691e-10
1.370348053e-09
-1.231321824e-10
1.368663271e-09
-1.258436308e-10
1.36368675e-09
-1.279138996e-10
1.355609035e-09
-1.29322966e-10
1.344606448e-09
-1.30055309e-10
1.330840005e-09
-1.300995541e-10
1.314454175e-09
-1.294478144e-10
1.295574913e-09
-1.280953198e-10
1.274306998e-09
-1.260395218e-10
1.250730349e-09
-1.232792642e-10
1.224894675e-09
-1.198138815e-10
1.196812268e-09
-1.156419105e-10
1.16644762e-09
-1.107600102e-10
1.133703238e-09
-1.051620763e-10
1.098400737e-09
-9.883917295e-11
1.060256744e-09
-9.178160001e-11
1.01885588e-09
-8.39844131e-11
9.736255115e-10
-7.545780602e-11
9.238194897e-10
-6.62429191e-11
8.685187805e-10
-5.643179565e-11
8.066495134e-10
-4.618997863e-11
7.37014452e-10
-3.577991177e-11
6.583285109e-10
-2.558406797e-11
5.692508575e-10
-1.612731378e-11
4.684094042e-10
-8.098272448e-12
3.544322852e-10
-2.368299359e-12
2.260185809e-10
8.2009991e-11
-5.030288198e-13
7.00049233e-11
-1.970000602e-12
2.046281583e-10
-4.331769728e-12
3.310595566e-10
-7.513418352e-12
4.49239374e-10
-1.143557174e-11
5.591973164e-10
-1.601593303e-11
6.610219951e-10
-2.117027621e-11
7.548490364e-10
-2.681341528e-11
8.408584971e-10
-3.286007277e-11
9.192663323e-10
-3.922539224e-11
9.90316839e-10
-4.582561566e-11
1.054276105e-09
-5.257858574e-11
1.111426053e-09
-5.940414035e-11
1.162059012e-09
-6.622461422e-11
1.206473058e-09
-7.296517016e-11
1.244967982e-09
-7.95541776e-11
1.277841897e-09
-8.592357748e-11
1.305388425e-09
-9.200916033e-11
1.327894498e-09
-9.77509757e-11
1.345638718e-09
-1.030935299e-10
1.358889821e-09
-1.079860189e-10
1.367905933e-09
-1.123826233e-10
1.372933709e-09
-1.162424933e-10
1.374207924e-09
-1.195298716e-10
1.37195065e-09
-1.222139811e-10
1.366370859e-09
-1.242691732e-10
1.357664227e-09
-1.256744716e-10
1.346011747e-09
-1.264133525e-10
1.331578887e-09
-1.264734229e-10
1.314514245e-09
-1.258459106e-10
1.294947401e-09
-1.245251131e-10
1.2729862e-09
-1.225076963e-10
1.248712932e-09
-1.197918757e-10
1.222178854e-09
-1.163764726e-10
1.193396865e-09
-1.122599769e-10
1.162331124e-09
-1.074395163e-10
1.128882777e-09
-1.019103991e-10
1.09287162e-09
-9.56664981e-11
1.054012843e-09
-8.870290232e-11
1.011892285e-09
-8.102168918e-11
9.659442985e-10
-7.264238677e-11
9.154401871e-10
-6.361674845e-11
8.59493142e-10
-5.404687516e-11
7.9707964e-10
-4.410496739e-11
7.270725442e-10
-3.40534177e-11
6.482769611e-10
-2.426429729e-11
5.594617371e-10
-1.523785441e-11
4.593829613e-10
-7.619881281e-12
3.468143121e-10
-2.216590035e-12
2.206152896e-10
7.979340095e-11
-4.787982037e-13
7.048372151e-11
-1.875400976e-12
2.060247612e-10
-4.125084881e-12
3.333092406e-10
-7.158109876e-12
4.522723991e-10
-1.090078891e-11
5.629399954e-10
-1.527664529e-11
6.653978515e-10
-2.020752189e-11
7.597799131e-10
-2.561396053e-11
8.462649359e-10
-3.141609836e-11
9.250684703e-10
-3.753415724e-11
9.964348979e-10
-4.38888898e-11
1.060630838e-09
-5.040204472e-11
1.117939208e-09
-5.699681164e-11
1.168653779e-09
-6.359824766e-11
1.213074494e-09
-7.013370833e-11
1.251503443e-09
-7.653318059e-11
1.284241369e-09
-8.272973343e-11
1.311584978e-09
-8.865996643e-11
1.333824731e-09
-9.426424936e-11
1.351243001e-09
-9.948715612e-11
1.364112728e-09
-1.042777373e-10
1.372696514e-09
-1.085897957e-10
1.377245767e-09
-1.123818593e-10
1.377999988e-09
-1.15617561e-10
1.375186352e-09
-1.182654873e-10
1.369018786e-09
-1.202990513e-10
1.359697792e-09
-1.216963903e-10
1.347409086e-09
-1.224400912e-10
1.332322588e-09
-1.225168915e-10
1.314591046e-09
-1.219171184e-10
1.294347627e-09
-1.206342377e-10
1.271703319e-09
-1.186641143e-10
1.246742808e-09
-1.160043514e-10
1.219519091e-09
-1.12653395e-10
1.190045908e-09
-1.086096672e-10
1.158287396e-09
-1.038709308e-10
1.124144041e-09
-9.843399284e-11
1.087434682e-09
-9.22956161e-11
1.047874467e-09
-8.545549507e-11
1.005052164e-09
-7.792239707e-11
9.584112006e-10
-6.972419129e-11
9.072419815e-10
-6.092167134e-11
8.506906223e-10
-5.162477832e-11
7.877827471e-10
-4.200996266e-11
7.174577285e-10
-3.233724207e-11
6.386042407e-10
-2.296638028e-11
5.500908755e-10
-1.437235443e-11
4.507889354e-10
-7.15935873e-12
3.396013163e-10
-2.072353288e-12
2.155282842e-10
7.772104767e-11
-4.543628323e-13
7.093808437e-11
-1.779973287e-12
2.073503715e-10
-3.916460063e-12
3.354457272e-10
-6.799122274e-12
4.551550612e-10
-1.035970808e-11
5.665005812e-10
-1.452753079e-11
6.695656744e-10
-1.923013677e-11
7.644825191e-10
-2.439380995e-11
8.514286088e-10
-2.994399509e-11
9.306186551e-10
-3.580584544e-11
1.002296748e-09
-4.190461012e-11
1.066729603e-09
-4.816604771e-11
1.124200646e-09
-5.451679859e-11
1.17500453e-09
-6.088481939e-11
1.219442515e-09
-6.719980752e-11
1.257818431e-09
-7.339363322e-11
1.290435195e-09
-7.940087666e-11
1.317592222e-09
-8.515911241e-11
1.339582967e-09
-9.060941149e-11
1.3566933e-09
-9.569676905e-11
1.369200085e-09
-1.003703029e-10
1.377370048e-09
-1.045837188e-10
1.381459184e-09
-1.082953862e-10
1.381711655e-09
-1.114683605e-10
1.378359326e-09
-1.140707253e-10
1.37162115e-09
-1.160752555e-10
1.361702322e-09
-1.174593351e-10
1.348793166e-09
-1.182048323e-10
1.333068085e-09
-1.182976435e-10
1.314683857e-09
-1.177272779e-10
1.293777262e-09
-1.164864054e-10
1.270462447e-09
-1.145701978e-10
1.244826601e-09
-1.119756519e-10
1.216924546e-09
-1.087008833e-10
1.18677114e-09
-1.047444033e-10
1.154330916e-09
-1.001046226e-10
1.11950426e-09
-9.47799328e-11
1.082109992e-09
-8.876994831e-11
1.041864482e-09
-8.207880175e-11
9.98361017e-10
-7.472134759e-11
9.510537463e-10
-6.673296e-11
8.992535938e-10
-5.81819142e-11
8.421395763e-10
-4.918411363e-11
7.787849465e-10
-3.991799145e-11
7.081916063e-10
-3.063918664e-11
6.293254358e-10
-2.169393142e-11
5.411456201e-10
-1.353161549e-11
4.426266195e-10
-6.716190364e-12
3.327858912e-10
-1.935046757e-12
2.107471406e-10
7.578600091e-11
-4.302436115e-13
7.136832798e-11
-1.685748298e-12
2.086058762e-10
-3.710303218e-12
3.374702822e-10
-6.443953635e-12
4.578887117e-10
-9.823612767e-12
5.698802404e-10
-1.37841197e-11
6.735261811e-10
-1.825837575e-11
7.689567749e-10
-2.317805278e-11
8.56348286e-10
-2.84737773e-11
9.359143798e-10
-3.407547465e-11
1.007898446e-09
-3.991278987e-11
1.072566918e-09
-4.591539515e-11
1.130203251e-09
-5.201340771e-11
1.181102542e-09
-5.813780504e-11
1.225566913e-09
-6.422082853e-11
1.263901454e-09
-7.019649885e-11
1.296410865e-09
-7.60009975e-11
1.323396721e-09
-8.1573311e-11
1.34515528e-09
-8.685546406e-11
1.361975453e-09
-9.179311002e-11
1.374137732e-09
-9.633586533e-11
1.381912804e-09
-1.004375817e-10
1.3855609e-09
-1.040565988e-10
1.385330672e-09
-1.071558194e-10
1.381458547e-09
-1.09703008e-10
1.374168339e-09
-1.116705052e-10
1.363669819e-09
-1.130351595e-10
1.35015782e-09
-1.137781727e-10
1.333811098e-09
-1.138846881e-10
1.314790372e-09
-1.133435591e-10
1.293236133e-09
-1.121467387e-10
1.269265627e-09
-1.102887277e-10
1.24296859e-09
-1.07766057e-10
1.214401875e-09
-1.045765499e-10
1.183581632e-09
-1.007188148e-10
1.150473181e-09
-9.619204661e-11
1.114977491e-09
-9.099620807e-11
1.076914154e-09
-8.513374214e-11
1.036002016e-09
-7.861294277e-11
9.918402176e-10
-7.145425297e-11
9.438950565e-10
-6.369931629e-11
8.914986571e-10
-5.542266125e-11
8.338629213e-10
-4.6744397e-11
7.701066822e-10
-3.784313528e-11
6.992903446e-10
-2.896847066e-11
6.204507711e-10
-2.045207842e-11
5.326292279e-10
-1.27178136e-11
4.348923547e-10
-6.290876074e-12
3.263589537e-10
-1.804622367e-12
2.062608869e-10
7.398137855e-11
-4.069128875e-13
7.177524086e-11
-1.594559662e-12
2.09793523e-10
-3.510597956e-12
3.393863206e-10
-6.099441196e-12
4.604775549e-10
-9.302854811e-12
5.730836539e-10
-1.306060801e-11
6.772839344e-10
-1.731076223e-11
7.732069292e-10
-2.198983777e-11
8.610273616e-10
-2.703327449e-11
9.409578166e-10
-3.237555795e-11
1.013240729e-09
-3.795052205e-11
1.078141882e-09
-4.369166422e-11
1.135944393e-09
-4.953256303e-11
1.186943441e-09
-5.540727432e-11
1.231441624e-09
-6.125064831e-11
1.269744828e-09
-6.699897519e-11
1.302159192e-09
-7.259041803e-11
1.328988163e-09
-7.79654517e-11
1.350530314e-09
-8.306745641e-11
1.367077457e-09
-8.784301695e-11
1.378913292e-09
-9.224251863e-11
1.386312305e-09
-9.622026003e-11
1.389538641e-09
-9.973486324e-11
1.388845275e-09
-1.027494153e-10
1.384473099e-09
-1.05231531e-10
1.376650455e-09
-1.071532759e-10
1.365591564e-09
-1.084911618e-10
1.351495705e-09
-1.092259127e-10
1.334545848e-09
-1.093421414e-10
1.3149066e-09
-1.088280843e-10
1.292722076e-09
-1.076751109e-10
1.268112653e-09
-1.058771856e-10
1.241170665e-09
-1.034303913e-10
1.21195508e-09
-1.003323754e-10
1.180483617e-09
-9.658198658e-11
1.146722792e-09
-9.217912608e-11
1.110574631e-09
-8.712538605e-11
1.071860414e-09
-8.142582348e-11
1.030302454e-09
-7.509267515e-11
9.855070694e-10
-6.815132004e-11
9.369537015e-10
-6.064883743e-11
8.839961745e-10
-5.26645181e-11
8.25878602e-10
-4.432113559e-11
7.617632998e-10
-3.579607481e-11
6.90765284e-10
-2.733148556e-11
6.11986182e-10
-1.924379358e-11
5.245415359e-10
-1.193159416e-11
4.275801553e-10
-5.883007339e-12
3.203103669e-10
-1.680640947e-12
2.020585205e-10
7.23007376e-11
-3.848049452e-13
7.216004581e-11
-1.508096896e-12
2.10916815e-10
-3.321039656e-12
3.411992633e-10
-5.77201458e-12
4.629285299e-10
-8.807109863e-12
5.761187493e-10
-1.237045921e-11
6.808472837e-10
-1.640472614e-11
7.772411963e-10
-2.085095017e-11
8.654735854e-10
-2.564885685e-11
9.457557229e-10
-3.073709112e-11
1.018328963e-09
-3.605343503e-11
1.083458226e-09
-4.153506497e-11
1.141426023e-09
-4.71188923e-11
1.192527268e-09
-5.274191128e-11
1.237064643e-09
-5.834175583e-11
1.275344673e-09
-6.38571349e-11
1.307674571e-09
-6.922829288e-11
1.334359321e-09
-7.439750627e-11
1.355699527e-09
-7.930968547e-11
1.371989637e-09
-8.391270832e-11
1.383516314e-09
-8.815793673e-11
1.390557533e-09
-9.200053407e-11
1.393381238e-09
-9.539962379e-11
1.392244365e-09
-9.831867487e-11
1.38739215e-09
-1.00725442e-10
1.379057222e-09
-1.025920263e-10
1.367458148e-09
-1.038948195e-10
1.352798499e-09
-1.046142713e-10
1.3352653e-09
-1.047346107e-10
1.31502694e-09
-1.042436401e-10
1.292231105e-09
-1.031321868e-10
1.2670012e-09
-1.013938514e-10
1.239432329e-09
-9.902436215e-11
1.209585591e-09
-9.602129243e-11
1.177480547e-09
-9.238372206e-11
1.143085221e-09
-8.811242021e-11
1.106303329e-09
-8.32105213e-11
1.066958515e-09
-7.768561416e-11
1.024777547e-09
-7.155336166e-11
9.793748169e-10
-6.484345498e-11
9.302437947e-10
-5.760761589e-11
8.767603355e-10
-4.992867757e-11
8.181996637e-10
-4.193067749e-11
7.537652997e-10
-3.378838071e-11
6.826229871e-10
-2.573562865e-11
6.039334299e-10
-1.807310086e-11
5.168790081e-10
-1.117464503e-11
4.206816995e-10
-5.492922033e-12
3.146286438e-10
-1.563023732e-12
1.981286222e-10
7.073771387e-11
-3.643052813e-13
7.252435112e-11
-1.427881911e-12
2.119803916e-10
-3.145000392e-12
3.429163818e-10
-5.467512721e-12
4.652510422e-10
-8.345132706e-12
5.789963692e-10
-1.172593098e-11
6.84228082e-10
-1.555636794e-11
7.810716332e-10
-1.978147824e-11
8.696986959e-10
-2.434484613e-11
9.50319091e-10
-2.918882212e-11
1.023172939e-09
-3.425472397e-11
1.088524128e-09
-3.948308739e-11
1.146654386e-09
-4.481399711e-11
1.197858178e-09
-5.018742536e-11
1.242438071e-09
-5.554374777e-11
1.280700996e-09
-6.082407062e-11
1.312954894e-09
-6.59709054e-11
1.339506156e-09
-7.092853843e-11
1.360657161e-09
-7.564362885e-11
1.376704727e-09
-8.006560507e-11
1.387938291e-09
-8.414714562e-11
1.394639074e-09
-8.784440958e-11
1.397078503e-09
-9.111746641e-11
1.395517422e-09
-9.393043679e-11
1.39020512e-09
-9.625151327e-11
1.381378298e-09
-9.805303986e-11
1.369259675e-09
-9.931150168e-11
1.354056961e-09
-1.000072822e-10
1.335961082e-09
-1.001244699e-10
1.315144128e-09
-9.965057866e-11
1.291757215e-09
-9.857613741e-11
1.265926759e-09
-9.689444997e-11
1.237750642e-09
-9.460109011e-11
1.207292231e-09
-9.169359496e-11
1.174573052e-09
-8.817140692e-11
1.139563033e-09
-8.403608127e-11
1.102168003e-09
-7.929225693e-11
1.062214691e-09
-7.394989456e-11
1.019435184e-09
-6.802779548e-11
9.734527178e-10
-6.155932273e-11
9.23775322e-10
-5.459970846e-11
8.698007212e-10
-4.723447513e-11
8.108344304e-10
-3.958773403e-11
7.461185585e-10
-3.183046788e-11
6.74865721e-10
-2.418752392e-11
5.962904859e-10
-1.694359178e-11
5.09635076e-10
-1.044840139e-11
4.141865091e-10
-5.120890793e-12
3.093011333e-10
-1.45167072e-12
1.944594021e-10
6.928604315e-11
-3.457700562e-13
7.287012118e-11
-1.355308733e-12
2.129899303e-10
-2.985532242e-12
3.445466052e-10
-5.19114222e-12
4.674566522e-10
-7.924856597e-12
5.817300837e-10
-1.113799836e-11
6.874412239e-10
-1.478024171e-11
7.847138766e-10
-1.879981697e-11
8.737182712e-10
-2.314360364e-11
9.546628777e-10
-2.775716044e-11
1.027786496e-09
-3.258493297e-11
1.093351901e-09
-3.757047635e-11
1.15163993e-09
-4.265683186e-11
1.202944533e-09
-4.778676151e-11
1.247568001e-09
-5.29032342e-11
1.285817468e-09
-5.794991181e-11
1.318001571e-09
-6.287158486e-11
1.344427829e-09
-6.761470656e-11
1.365400282e-09
-7.212788386e-11
1.381217905e-09
-7.636234154e-11
1.392172748e-09
-8.027231668e-11
1.398549049e-09
-8.381536076e-11
1.400621546e-09
-8.695266087e-11
1.398654722e-09
-8.964926398e-11
1.392901724e-09
-9.187411017e-11
1.383603144e-09
-9.360011687e-11
1.370985681e-09
-9.480412339e-11
1.355260967e-09
-9.546664157e-11
1.336623599e-09
-9.557188961e-11
1.315249376e-09
-9.510726999e-11
1.291292594e-09
-9.406328693e-11
1.264882775e-09
-9.243301217e-11
1.236120367e-09
-9.021196778e-11
1.205071187e-09
-8.739780932e-11
1.171758894e-09
-8.399045723e-11
1.136155682e-09
-7.999230081e-11
1.098169847e-09
-7.54094193e-11
1.057631809e-09
-7.025379021e-11
1.014279555e-09
-6.454704097e-11
9.677459687e-10
-5.832564559e-11
9.175539268e-10
-5.164760529e-11
8.63122681e-10
-4.459992073e-11
8.037867458e-10
-3.730594348e-11
7.388245814e-10
-2.993197478e-11
6.674917522e-10
-2.269325749e-11
5.890517687e-10
-1.585855458e-11
5.028003731e-10
-9.754206007e-12
4.080821605e-10
-4.767143538e-12
3.043140708e-10
-1.3464748e-12
1.910387334e-10
6.793956836e-11
-3.295140958e-13
7.319963527e-11
-1.291598707e-12
2.139520149e-10
-2.845294072e-12
3.461003007e-10
-4.947500383e-12
4.695588586e-10
-7.553363969e-12
5.843359473e-10
-1.061653889e-11
6.905043988e-10
-1.4089308e-11
7.881866458e-10
-1.792243836e-11
8.775514014e-10
-2.206533269e-11
9.588057719e-10
-2.64662037e-11
1.032187367e-09
-3.107213225e-11
1.097957829e-09
-3.582934847e-11
1.156397146e-09
-4.068342336e-11
1.207798609e-09
-4.557966733e-11
1.252464245e-09
-5.046367698e-11
1.290701478e-09
-5.528154469e-11
1.322819439e-09
-5.998037355e-11
1.349126658e-09
-6.450889795e-11
1.369928806e-09
-6.881786487e-11
1.385526871e-09
-7.286048461e-11
1.396215368e-09
-7.659276428e-11
1.402281328e-09
-7.997386922e-11
1.404002651e-09
-8.296649909e-11
1.401647351e-09
-8.553692166e-11
1.395472146e-09
-8.765510559e-11
1.385721329e-09
-8.929482058e-11
1.372625397e-09
-9.04334518e-11
1.356399599e-09
-9.105204684e-11
1.337242194e-09
-9.113509163e-11
1.315332421e-09
-9.067020295e-11
1.290827706e-09
-8.964791951e-11
1.263860492e-09
-8.806146252e-11
1.23453391e-09
-8.590641034e-11
1.202916135e-09
-8.318070525e-11
1.169033189e-09
-7.988465036e-11
1.132859627e-09
-7.602151935e-11
1.094306716e-09
-7.159887044e-11
1.05320916e-09
-6.663056561e-11
1.00931125e-09
-6.114050278e-11
9.622559056e-10
-5.516771147e-11
9.115811353e-10
-4.877227054e-11
8.5672724e-10
-4.20417906e-11
7.970562659e-10
-3.509794721e-11
7.318807379e-10
-2.810174247e-11
6.604955474e-10
-2.125842038e-11
5.822084466e-10
-1.482100005e-11
4.963629528e-10
-9.09325786e-12
4.023544183e-10
-4.431903294e-12
2.996527162e-10
-1.247369391e-12
1.878541995e-10
6.669219897e-11
-3.158027953e-13
7.351543807e-11
-1.237785958e-12
2.148739981e-10
-2.726563201e-12
3.475890779e-10
-4.740627495e-12
4.715729228e-10
-7.236784165e-12
5.868321039e-10
-1.017028966e-11
6.934379042e-10
-1.349514327e-11
7.915114993e-10
-1.716395861e-11
8.812202168e-10
-2.112804281e-11
9.627698562e-10
-2.533754396e-11
1.036396868e-09
-2.974162568e-11
1.102361911e-09
-3.428865561e-11
1.160944176e-09
-3.892641201e-11
1.212436365e-09
-4.360265296e-11
1.257140486e-09
-4.826515085e-11
1.295363976e-09
-5.286236e-11
1.327416649e-09
-5.734383878e-11
1.353608137e-09
-6.166060685e-11
1.374245575e-09
-6.576559055e-11