/*--------------------------------*- C++ -*----------------------------------*\
  =========                 |
  \\      /  F ield         | OpenFOAM: The Open Source CFD Toolbox
   \\    /   O peration     | Website:  https://openfoam.org
    \\  /    A nd           | Version:  7
     \\/     M anipulation  |
\*---------------------------------------------------------------------------*/
FoamFile
{
    version     2.0;
    format      ascii;
    class       volScalarField;
    location    "0.0003";
    object      rho;
}
// * * * * * * * * * * * * * * * * * * * * * * * * * * * * * * * * * * * * * //

dimensions      [1 -3 0 0 0 0 0];

internalField   nonuniform List<scalar> 
1167
(
948.0321435
947.9833342
947.8784161
947.7224612
947.5177113
947.2658905
946.9682111
946.625432
946.2383666
945.8072759
945.3323421
944.8138382
944.2515833
943.6454553
942.9953279
942.3010592
941.5625429
940.7797299
939.9528152
939.0819874
938.1675286
937.2101056
936.2104188
935.1694042
934.0880859
932.967994
931.8105678
930.617509
929.3907348
928.1324981
926.8451247
925.5310572
924.1929997
922.8336773
921.4560622
947.9046345
947.8543624
947.7462876
947.5856101
947.3746241
947.1152129
946.8082586
946.4549211
946.0555697
945.6109605
945.1210797
944.5860861
944.0060348
943.3809684
942.7108144
941.9955986
941.2354057
940.4303928
939.5808508
938.6872235
937.750416
936.77095
935.7501407
934.6889698
933.5890543
932.4519938
931.2796013
930.0738714
928.8370714
927.5716758
926.2801713
924.9652893
923.6298447
922.2767169
920.9089554
919.5295897
918.1417613
916.748557
915.3531611
913.9585113
912.5676107
911.1834021
909.8086283
908.4459685
907.0977505
905.7661561
904.4530616
903.1600363
901.8880965
900.6378786
947.774755
947.7229844
947.6116769
947.4461666
947.2289789
946.9616439
946.6453314
946.2811643
945.8695799
945.4110808
944.9061356
944.3547303
943.7570202
943.1131268
942.423164
941.6873061
940.9057948
940.0790444
939.2077302
938.2924959
937.3342012
936.334222
935.2936063
934.2140561
933.0972546
931.9451312
930.7597876
929.54348
928.2988238
927.028372
925.7347997
924.4210207
923.0899245
921.7446343
920.3881145
919.0234357
917.6536804
916.2818477
914.9109404
913.5438655
912.1834803
910.8324175
909.4931493
908.1680648
906.8593033
905.5687568
904.2979976
903.0483648
901.8205777
900.6150809
947.6424755
947.5891764
947.4745727
947.3042466
947.0806371
946.8052497
946.4795739
946.1043156
945.6804058
945.208119
944.6878649
944.1200449
943.5047604
942.8422334
942.1327403
941.3766156
940.5744722
939.7268667
938.8345141
937.8985856
936.920226
935.9008374
934.8420175
933.745663
932.6136617
931.4482798
930.2519143
929.0270388
927.7763816
926.5026898
925.2088602
923.8978835
922.5727206
921.2364822
919.8921922
918.5429896
917.1918025
915.8415134
914.4949957
913.1549496
911.8240628
910.5047529
909.1993235
907.9098944
906.6383139
905.3862122
904.1549059
902.9454652
901.7584518
900.5941427
947.507771
947.4529193
947.3350367
947.1598334
946.9296364
946.6461917
946.3109663
945.9246848
945.4882393
945.0021905
944.4668544
943.8826273
943.2498827
942.5689908
941.8403959
941.0646174
940.2423591
939.3744413
938.4621814
937.5065711
936.5092962
935.4718568
934.3963675
933.2846578
932.1391194
930.9623155
929.7566182
928.5248501
927.2698941
925.9946203
924.7020798
923.3952888
922.0773195
920.7512446
919.4200756
918.0868287
916.754391
915.4255987
914.1031071
912.7894696
911.4871669
910.1983799
908.9251854
907.6694589
906.4328422
905.216737
904.0222431
902.8502046
901.7010191
900.5748177
947.3706431
947.314294
947.1931146
947.0128652
946.7760182
946.4845776
946.1396201
945.7423631
945.2933888
944.7935076
944.2431752
943.6428071
942.9928982
942.2939761
941.5466535
940.7516626
939.910088
939.0229293
938.091446
937.1173911
936.1022776
935.048293
933.9573545
932.8318641
931.6744954
930.4877077
929.274276
928.0372052
926.7794708
925.5040802
924.2141651
922.9127572
921.6030015
920.2879023
918.9704581
917.6535825
916.3400418
915.0325301
913.7335525
912.4455366
911.1707374
909.911138
908.668628
907.4448378
906.2411981
905.058905
903.8988653
902.7617246
901.6477393
900.5569154
947.2312146
947.1732826
947.048693
946.8633619
946.6199533
946.3203571
945.9657467
945.5574241
945.0961148
944.5824762
944.0171621
943.4008527
942.7340752
942.0175305
941.2520992
940.4386957
939.5784527
938.672713
937.7232876
936.7316571
935.7001557
934.6307026
933.525788
932.3880739
931.2201683
930.0248763
928.8052077
927.564275
926.3051133
925.0309021
923.7447539
922.4497343
921.1489914
919.8454803
918.54217
917.2418486
915.9471518
914.6606521
913.3846873
912.1215358
910.873224
909.6415569
908.4282326
907.2346747
906.0621145
904.9115484
903.7838161
902.67931
901.5981645
900.5402785
947.0893154
947.0297925
946.9017773
946.7113498
946.4614469
946.153605
945.7894896
945.3700192
944.8964594
944.3693186
943.7893733
943.157379
942.4741112
941.7404433
940.9573579
940.1260525
939.2479929
938.324787
937.3581171
936.3503374
935.3033687
934.2198548
933.1023451
931.9536205
930.7765702
929.5742016
928.3497224
927.1062531
925.8469193
924.5749704
923.2935314
922.0057484
920.714665
919.4232153
918.1342708
916.8505165
915.5744797
914.3085688
913.0549886
911.8158632
910.5929975
909.3880376
908.2024965
907.037619
905.8944555
904.7738132
903.6762932
902.6023585
901.5519191
900.5247757
946.9449387
946.8838222
946.752377
946.557056
946.3004612
945.9844715
945.6108301
945.1805403
944.6946158
944.1541512
943.5598245
942.9125166
942.2131714
941.4628316
940.6627371
939.814446
938.9193716
937.9794418
936.9968538
935.9737201
934.9126609
933.8162782
932.6873434
931.5289477
930.3441613
929.1360381
927.9079069
926.6629969
925.4045453
924.1358204
922.8599384
921.5800645
920.2991608
919.0201241
917.745711
916.478485
915.2208752
913.9751154
912.7432827
911.5273179
910.3288477
909.1493615
907.9901874
906.8525084
905.7371367
904.6447077
903.5757007
902.5303582
901.5086848
900.5102963
946.7980826
946.7353744
946.6006578
946.4003046
946.1370442
945.8131059
945.4298716
944.9888798
944.491005
943.9373098
943.3288195
942.66656
941.9516505
941.1853084
940.3689587
939.5042016
938.5929768
937.6374149
936.6397092
935.6025068
934.5284363
933.4202771
932.2813091
931.1145197
929.9230693
928.7103205
927.4796584
926.2343494
924.9777361
923.7130649
922.4434505
921.1720173
919.9016673
918.6352568
917.3754141
916.1245764
914.885079
913.6589817
912.4482443
911.2546199
910.0795823
908.9244792
907.7904575
906.6784623
905.5892989
904.5234954
903.4813376
902.4628691
901.4681892
900.4967456
946.648838
946.5846307
946.4465362
946.2411249
945.9713368
945.6394348
945.2468732
944.7951668
944.285544
943.7190377
943.096805
942.4200294
941.6899997
940.9081342
940.076081
939.1958275
938.2693497
937.2989387
936.2873073
935.2370028
934.150993
933.032432
931.8844483
930.7103119
929.5133453
928.2971142
927.0649911
925.8202723
924.566349
923.3064317
922.0436947
920.7811597
919.5216853
918.2680275
917.0227094
915.7880584
914.5662656
913.3592659
912.1688946
910.9967132
909.844057
908.7122396
907.6021646
906.5146334
905.4502591
904.409533
903.3926858
902.3995721
901.4301962
900.4840422
946.4972398
946.4314576
946.2899785
946.0795487
945.8034244
945.4635274
945.0618469
944.5996475
944.078383
943.4993603
942.8637474
942.1728997
941.4282725
940.6315735
939.7847202
938.8896229
937.9487045
936.9645609
935.9398371
934.8775409
933.7807881
932.6527351
931.4968218
930.3165458
929.1152371
927.8964894
926.6637489
925.4204209
924.169889
922.9153352
921.6599403
920.4066343
919.1582249
917.9173553
916.686443
915.4677088
914.2632319
913.0748218
911.9041733
910.7526717
909.6215291
908.5118382
907.4244665
906.360166
905.3193328
904.3022542
903.3092902
902.3400711
901.3945
900.4721151
946.3431845
946.2758403
946.1310066
945.9157743
945.6332315
945.2855595
944.8748002
944.4024285
943.8698594
943.2785427
942.6299164
941.9255075
941.1669447
940.3560719
939.4949152
938.5858593
937.6314584
936.6343657
935.5976552
934.5243956
933.4177714
932.2814489
931.1187766
929.9332342
928.7284637
927.5080889
926.2755682
925.0344029
923.7879431
922.5393216
921.2916763
920.0478733
918.8106772
917.5826128
916.3659764
915.1629061
913.9752942
912.8048527
911.6531465
910.5214617
909.4109312
908.3224525
907.256726
906.2143801
905.1958622
904.2012468
903.2307424
902.2840621
901.3609174
900.4609016
946.1866871
946.1177969
945.9697398
945.7497261
945.4608057
945.1056065
944.6858298
944.2034889
943.659954
943.0567945
942.3956082
941.6780889
940.9060602
940.0815779
939.2070301
938.2848313
937.3176681
936.3087123
935.2608797
934.1775915
933.0623277
931.9186004
930.7500106
929.5601951
928.3529585
927.1318562
925.900381
924.6620472
923.4201564
922.1779002
920.9383139
919.7042051
918.4782599
917.2628954
916.0602976
914.8725316
913.7013855
912.5484258
911.4150667
910.3024315
909.2114977
908.1432523
907.0981864
906.0767243
905.0793057
904.1059624
903.1566829
902.2312815
901.3292866
900.4503461
946.0277856
945.9574603
945.8062333
945.5813912
945.2863021
944.9236041
944.4952138
944.0029509
943.4487098
942.8340633
942.1607467
941.4306168
940.6457608
939.808517
938.9211888
937.9865563
937.007695
935.9875636
934.9296521
933.837349
932.71421
931.5640852
930.3906353
929.1975195
927.9885626
926.7674156
925.5376192
924.3026769
923.0658444
921.8303465
920.5991263
919.3749044
918.1602691
916.957545
915.7688262
914.5960323
913.440807
912.3046721
911.1889655
910.0946777
909.022645
907.9735766
906.9481755
905.946639
904.9691735
904.0159842
903.0867859
902.1814924
901.299463
900.4403992
945.8666802
945.7948512
945.6404023
945.4108071
945.1097767
944.7396067
944.3027972
943.8010773
943.2363711
942.6105533
941.925563
941.1834248
940.3863685
939.5368074
938.6374444
937.6913324
936.7013701
935.6711591
934.6039693
933.5034811
932.3735888
931.2179571
930.0403749
928.8447132
927.6348581
926.4144336
925.1870085
923.9560441
922.7247674
921.4963459
920.2736395
919.059354
917.8559652
916.6656948
915.4905496
914.3324057
913.1927381
912.0729694
910.9742141
909.8974321
908.8435102
907.8129103
906.8061131
905.8235321
904.8650611
903.9309373
903.0207994
902.1344768
901.2713137
900.431016
945.7032116
945.6299015
945.4722812
945.2381841
944.931154
944.5538483
944.1086383
943.5977157
943.0229628
942.3864164
941.6901797
940.936466
940.127707
939.2665974
938.356037
937.3989507
936.3990011
935.3593037
934.2838231
933.176133
932.040161
930.8798468
929.6990838
928.5017522
927.2917002
926.0725826
924.8480318
923.6214597
922.3960771
921.1749745
919.960996
918.7567637
917.5646382
916.3867315
915.2249713
914.0810265
912.9563538
911.8524032
910.7700679
909.7101629
908.6734574
907.6605129
906.6715449
905.706919
904.7665581
903.850472
902.9584147
902.0900364
901.2447182
900.4221554
945.5374142
945.4626464
945.3019953
945.0634436
944.7504767
944.3662451
943.9129352
943.3929203
942.8084338
942.161537
941.4544939
940.6897206
939.8700133
938.9979985
938.07674
937.1097493
936.1002576
935.0521751
933.9690701
932.8549387
931.71389
930.5497417
929.3664585
928.1680734
926.9584511
925.7413048
924.5201934
923.2984738
922.0793773
920.8658892
919.6607513
918.4665375
917.2855241
916.1197377
914.9711175
913.8411231
912.7311342
911.6423539
910.5757719
909.5321305
908.5119806
907.5158244
906.5439186
905.5963514
904.6732171
903.7742647
902.8993606
902.047988
901.2195834
900.4137797
945.3693273
945.2932245
945.1296297
944.8865721
944.5679523
944.1767902
943.7156864
943.1869535
942.5929535
941.9360653
941.2187155
940.4435081
939.6132214
938.7308139
937.7998051
936.8233679
935.8053599
934.7493812
933.6596304
932.5399319
931.3944014
930.227117
929.0421635
927.8435035
926.6349678
925.4202684
924.2029957
922.9864583
921.7738782
920.5681717
919.3720438
918.1879276
917.0180185
915.8642563
914.7283909
913.6118854
912.5161631
911.4421868
910.3907651
909.3626828
908.3584636
907.3783203
906.4227119
905.4914434
904.5846775
903.7020154
902.8434008
902.008161
901.1957955
900.4058542
945.1992123
945.1216992
944.9550914
944.7076107
944.3835221
943.9855792
943.5168303
942.9796705
942.3765719
941.7100767
940.9827969
940.1975323
939.3572292
938.4653014
937.5249296
936.5399118
935.5139321
934.4510862
933.3552198
932.2306705
931.0815612
929.9118951
928.725829
927.5274141
926.3204754
925.1088032
923.895867
922.6849352
921.4791784
920.2814237
919.094307
917.9202062
916.7612415
915.6193436
914.4960787
913.3928206
912.310804
911.2511261
910.2144307
909.2012657
908.2123078
907.247628
906.3074781
905.3918317
904.5006001
903.6334938
902.7903146
901.9703962
901.1732492
900.3983462
945.0268944
944.9479937
944.778424
944.526819
944.1971621
943.7927793
943.3164551
942.7710582
942.1591632
941.4834163
940.7466204
939.9518637
939.10226
938.2011333
937.2521516
936.2591535
935.2259946
934.1567651
933.0557294
931.9270268
930.7748654
929.6034653
928.4170256
927.2195213
926.0147622
924.8064957
923.598201
922.3931267
921.1943705
920.004745
918.8267866
917.6627728
916.5147101
915.3843847
914.2733855
913.1830758
912.11452
911.06857
910.0460714
909.0474056
908.0729918
907.123145
906.1977901
905.2970722
904.4206635
903.5684007
902.7398938
901.934544
901.1518542
900.3912253
944.8524217
944.7721554
944.5997991
944.3440354
944.0089386
943.5982409
943.1147263
942.5613005
941.9408386
941.256205
940.5103944
939.706553
938.8479653
937.9383105
936.9813517
935.980927
934.9412526
933.866433
932.7606859
931.6285523
930.4741341
929.3016283
928.1152836
926.9191268
925.7170161
924.5126471
923.3094055
922.110547
920.9190521
919.737626
918.5687857
917.4147671
916.2775297
915.1587277
914.0597992
912.9819781
911.9265223
910.8940234
909.8851078
908.9004293
907.9400682
907.0044115
906.0932866
905.2068062
904.3445608
903.5064623
902.6919403
901.9004621
901.1315249
900.3844628
944.6758761
944.5943677
944.419241
944.1592946
943.819076
943.4019952
942.9114713
942.3503429
941.7216505
941.0284438
940.2739122
939.4613516
938.5943899
937.6767609
936.7122322
935.705157
934.6594751
933.5796461
932.4700381
931.3349645
930.1787348
929.0057688
927.8201804
926.6259483
925.42691
924.2267405
923.0288019
921.8363545
920.6523338
919.4793136
918.3197267
917.1756934
916.0490606
914.9415637
913.8545312
912.7890667
911.7461861
910.7267476
909.7311053
908.7598165
907.8130746
906.8909892
905.9935798
905.1206905
904.2720221
903.4474362
902.6462649
901.868015
901.1121799
900.3780314
932.1831654
931.0458764
929.888542
928.7155375
927.5310884
926.3391818
925.1436922
923.9481695
922.7559274
921.5701536
920.3936659
919.2290579
918.0787323
916.944707
915.828719
914.7323361
913.6568769
912.60352
911.5730474
910.5661658
909.5834251
908.6250622
907.6914658
906.7824552
905.8982347
905.0383946
904.2027873
903.3910897
902.6026858
901.8370816
901.093741
900.3719048
)
;

boundaryField
{
    front_top
    {
        type            wedge;
    }
    front_middle
    {
        type            wedge;
    }
    front_bottom
    {
        type            wedge;
    }
    back_top
    {
        type            wedge;
    }
    back_middle
    {
        type            wedge;
    }
    back_bottom
    {
        type            wedge;
    }
    axis_top
    {
        type            symmetryPlane;
    }
    axis_middle
    {
        type            symmetryPlane;
    }
    axis_bottom
    {
        type            symmetryPlane;
    }
    wall_top
    {
        type            calculated;
        value           nonuniform 0();
    }
    wall_middle
    {
        type            calculated;
        value           uniform 900.0184441;
    }
    wall_bottom
    {
        type            calculated;
        value           nonuniform 0();
    }
    inlet
    {
        type            calculated;
        value           nonuniform 0();
    }
    outlet
    {
        type            calculated;
        value           nonuniform 0();
    }
    procBoundary4to3
    {
        type            processor;
        value           nonuniform List<scalar> 
51
(
944.4974778
944.4146458
944.2367017
943.972715
943.6274049
943.2042696
942.7067092
942.1380946
941.50143
940.7999579
940.0370603
939.2163628
938.3414608
937.4161765
936.4448801
935.4314264
934.3805086
933.2962158
933.2962158
931.899963
930.7608159
929.6028217
928.4303907
927.2476451
926.0585235
924.8668676
923.6762267
922.4899061
921.3110418
920.1423339
918.9863293
917.8452677
916.7211045
915.6156655
914.5303416
913.4663138
912.4247048
911.4063793
910.4117754
909.4415097
908.4957809
907.5747862
906.6784748
905.8068801
904.9595945
904.1365336
903.3372
902.5610292
901.8075477
901.0761335
900.3660581
)
;
    }
    procBoundary4to5
    {
        type            processor;
        value           nonuniform List<scalar> 
51
(
948.1574462
948.1099941
948.0080783
947.8567167
947.6580546
947.4136508
947.124996
946.7926569
946.4175404
945.9997588
945.5398057
945.0375609
944.4929062
943.905681
943.2756692
942.6026008
941.886224
941.1262968
940.3226928
939.475347
938.5844754
937.6503393
936.6732606
935.6540388
934.5933106
933.4920862
932.3517625
931.1736117
929.9592261
928.7105127
927.4295859
926.1186212
924.7800897
923.4165725
922.0308316
920.063121
920.063121
918.6579822
917.2439199
915.8239595
914.4012904
912.9790351
911.5605445
910.148607
908.7461274
907.3558343
905.980318
904.6216652
903.2817282
901.9618312
900.6628359
)
;
    }
}


// ************************************************************************* //
