/*--------------------------------*- C++ -*----------------------------------*\
  =========                 |
  \\      /  F ield         | OpenFOAM: The Open Source CFD Toolbox
   \\    /   O peration     | Website:  https://openfoam.org
    \\  /    A nd           | Version:  7
     \\/     M anipulation  |
\*---------------------------------------------------------------------------*/
FoamFile
{
    version     2.0;
    format      ascii;
    class       volScalarField;
    location    "0.0003";
    object      T;
}
// * * * * * * * * * * * * * * * * * * * * * * * * * * * * * * * * * * * * * //

dimensions      [0 0 0 1 0 0 0];

internalField   nonuniform List<scalar> 
1167
(
438.1935537
438.2658968
438.4214276
438.6526788
438.9563992
439.3301234
439.772162
440.2815158
440.8571207
441.4987498
442.2063121
442.9795977
443.8190923
444.7252136
445.6984059
446.739157
447.8479225
449.0250931
450.2707117
451.5848501
452.9674564
454.4179133
455.9355638
457.5194037
459.1683012
460.8803544
462.6537968
464.4864537
466.375807
468.3188041
470.3122548
472.3527597
474.436479
476.5595009
478.7174834
438.3825582
438.4570896
438.6173438
438.8556655
439.1687288
439.5538372
440.0097984
440.5350247
441.1291218
441.7911371
442.5212822
443.3195311
444.1860315
445.1209696
446.1247245
447.1975479
448.3396243
449.551049
450.8317345
452.1813801
453.5990025
455.0842095
456.635416
458.251547
459.9305625
461.6704434
463.4688366
465.3230967
467.2301403
469.1865394
471.1888165
473.2330811
475.3152723
477.4311849
479.5762998
481.7460769
483.9357458
486.140565
488.3555802
490.576169
492.7975485
495.0149734
497.2239628
499.4200853
501.5994262
503.7582645
505.8933348
508.0018397
510.0818598
512.1320835
438.5751286
438.6519029
438.8169969
439.0625577
439.3849202
439.7819173
440.2519364
440.7934534
441.4059818
442.0889576
442.841886
443.6650111
444.5583452
445.5219715
446.5560049
447.6604899
448.83539
450.0804274
451.3949475
452.7783571
454.2297493
455.7474423
457.3302562
458.9760171
460.6825746
462.4473928
464.2676574
466.1402973
468.061663
470.0281701
472.0360106
474.080967
476.1588148
478.2649171
480.3948338
482.543906
484.7074001
486.8806586
489.0589617
491.2376858
493.4122311
495.578304
497.7318186
499.8687774
501.9855423
504.0788379
506.1458764
508.1842234
510.1924387
512.1695222
438.7713117
438.8503749
439.0204066
439.2731867
439.6051827
440.0142695
440.4983665
441.0565782
441.6876937
442.3914993
443.1676009
444.0156359
444.9357112
445.927774
446.9917105
448.1273396
449.3340803
450.6114525
451.9587524
453.3745989
454.857658
456.4062096
458.0182367
459.691262
461.4228111
463.2098171
465.0489908
466.9369005
468.869691
470.8434427
472.8539643
474.8968749
476.9677924
479.0620511
481.1750682
483.3020259
485.4383835
487.5796188
489.7211704
491.8586997
493.9878373
496.1045977
498.2051343
500.2858551
502.3435703
504.3754121
506.3789964
508.3523207
510.2941996
512.203909
438.9711477
439.0525372
439.2274846
439.487581
439.829464
440.2506578
440.7491222
441.3239428
441.9739771
442.6985961
443.4975574
444.3705203
445.3171985
446.3373318
447.4305689
448.5964643
449.834313
451.1432495
452.5216696
453.9684684
455.4814962
457.0588834
458.6978216
460.3959262
462.1499403
463.9563221
465.8117971
467.7123692
469.6539121
471.6322797
473.6430015
475.6816144
477.7435183
479.8240604
481.9186311
484.0225594
486.1313248
488.2404344
490.3456316
492.4427737
494.5277872
496.5970358
498.6470116
500.6744951
502.6766144
504.6508596
506.5951918
508.5079731
510.3882859
512.2356478
439.1746372
439.2582729
439.4381662
439.7058354
440.0577066
440.4909262
441.0040424
441.5954166
442.2643777
443.0099369
443.8316554
444.729177
445.7020478
446.7497856
447.8718003
449.0673398
450.3351374
451.6740657
453.0826156
454.5585354
456.0999366
457.7039033
459.3679194
461.0887168
462.8625894
464.6861344
466.5554344
468.4661826
470.4140767
472.3947217
474.4034829
476.4358319
478.4870124
480.5524356
482.6274689
484.7075608
486.788341
488.8655034
490.934995
492.9928407
495.0352988
497.0590253
499.0607922
501.0377589
502.9873817
504.9074765
506.7963129
508.6525755
510.4755796
512.2650512
439.381601
439.4676116
439.6526231
439.927924
440.2896602
440.7351537
441.2628168
441.8708943
442.5585122
443.3249213
444.1694002
445.0912103
446.0898623
447.164628
448.3145277
449.5385468
450.8353564
452.2033206
453.6401013
455.143861
456.711465
458.3403988
460.0272653
461.7683843
463.5601325
465.3985551
467.2793476
469.1980065
471.1501046
473.1309441
475.1358822
477.1602983
479.199391
481.2486087
483.3033253
485.3591489
487.4118792
489.4573691
491.4918005
493.5114086
495.512793
497.4928751
499.4487186
501.3778034
503.2778999
505.1471422
506.9839068
508.7872908
510.5568122
512.2923772
439.5922947
439.6806939
439.8708507
440.1538114
440.5253207
440.9832328
441.5252359
442.1501551
442.8563224
443.6432221
444.5099623
445.4557043
446.4796008
447.5806776
448.7578135
450.0095797
451.3341536
452.7295053
454.1934949
455.7229621
457.3153957
458.9671723
460.6747926
462.4343793
464.2418598
466.0929449
467.982998
469.9074726
471.8617687
473.8410455
475.8406043
477.8556616
479.8815416
481.9136884
483.9475934
485.9789925
488.0038248
490.018174
492.0184063
494.0009798
495.9628278
497.9011106
499.813176
501.6967833
503.5499886
505.3712299
507.1592716
508.9130983
510.6325973
512.3178413
439.8067319
439.8975257
440.0928383
440.3831635
440.7647482
441.234944
441.7913316
442.432619
443.1575245
443.9646699
444.8533218
445.8224669
446.8710184
447.99776
449.2011956
450.4793622
451.8305239
453.2521729
454.7413918
456.295385
457.9105741
459.5833898
461.3099818
463.0859814
464.9070169
466.7687035
468.6661906
470.5947345
472.5495296
474.525672
476.5184416
478.5229896
480.5347326
482.5491389
484.5618476
486.5687559
488.5659295
490.549703
492.5166232
494.4634205
496.3872976
498.2856524
500.1561206
501.9965536
503.8053882
505.5813395
507.3233712
509.0308304
510.7034549
512.3416254
440.0249187
440.1181062
440.3183433
440.6162454
441.007875
441.490069
442.0609539
442.7184503
443.4614941
444.2887666
445.199028
446.1910602
447.2635251
448.4149553
449.6435864
450.9474007
452.323875
453.7701977
455.2834574
456.8600448
458.4963615
460.1885583
461.931993
463.7224372
465.5553599
467.4258779
469.3290252
471.2599711
473.2137153
475.1853545
477.1701382
479.163248
481.160162
483.1563806
485.1477151
487.1302344
489.1001273
491.0539823
492.9885129
494.9007325
496.788075
498.648155
500.4788922
502.2785173
504.0454765
505.7786581
507.4773416
509.141203
510.7698303
512.3638846
440.2467236
440.342169
440.547493
440.8530169
441.2544951
441.7487206
442.3337205
443.0074603
443.7683586
444.615152
445.5464156
446.5607068
447.6564449
448.8318717
450.084896
451.4129239
452.8133815
454.2832166
455.8187299
457.416458
459.0722794
460.7817603
462.5404747
464.343743
466.1867637
468.0643149
469.9714226
471.90318
473.8544818
475.8204492
477.7962071
479.7770665
481.7585436
483.7362676
485.7061888
487.6645248
489.607671
491.5323948
493.4355912
495.3145652
497.1669622
498.9904425
500.7833111
502.5440275
504.2713483
505.9642229
507.6220224
509.244735
510.8321091
512.3847527
440.4720978
440.5699158
440.780341
441.0934347
441.5044849
442.0107996
442.6096172
443.2992854
444.0778973
444.9437914
445.8955369
446.9314457
448.0496978
449.2481098
450.5241927
451.8754745
453.2987105
454.7903875
456.346906
457.9640975
459.6376046
461.3629776
463.1352985
464.949518
466.8008001
468.6838552
470.5935688
472.5248376
474.4725378
476.4318057
478.3977263
480.365725
482.3313703
484.2904423
486.2390339
488.1735095
490.0904218
491.9867206
493.8595102
495.7063658
497.5251209
499.3137846
501.0707167
502.7944537
504.484103
506.1389473
507.7581509
509.342071
510.8906277
512.4043459
440.7011991
440.8013725
441.0168586
441.337207
441.7579606
442.2760478
442.8886364
443.5937698
444.3896093
445.2742904
446.2459902
447.3027731
448.4425687
449.6629974
450.961414
452.3346359
453.7792214
455.2915697
456.8674267
458.5025236
460.1923881
461.9317781
463.7158962
465.539702
467.3978579
469.2850022
471.1959753
473.1254976
475.0684687
477.0200733
478.9754359
480.9300553
482.8795417
484.819838
486.7472065
488.6581231
490.5494202
492.4181882
494.2617265
496.0777593
497.8642394
499.6194843
501.3421206
503.0308837
504.6847986
506.3034955
507.8863891
509.4337064
510.9456856
512.4227675
440.9340083
441.0365154
441.2568718
441.5844501
442.014855
442.5443561
443.1706372
443.8909479
444.7035258
445.6063383
446.5973331
447.6743352
448.8349908
450.0766093
451.3960057
452.7899554
454.2548178
455.7862042
457.3800951
459.0316776
460.7360166
462.4880899
464.2826972
466.1145368
467.9779968
469.8677964
471.7786974
473.7053735
475.6427734
477.5859636
479.530203
481.471057
483.4042365
485.325832
487.2322609
489.1200973
490.9863235
492.8282486
494.6434027
496.4297624
498.1855251
499.9088603
501.5987293
503.2541981
504.8743059
506.4587542
508.0073201
509.5200701
510.9975471
512.4401085
441.1704727
441.2751505
441.5003018
441.8351866
442.2749404
442.8158239
443.4552082
444.1906405
445.0195857
445.9400151
446.949681
448.046173
449.2267497
450.4883014
451.8277757
453.2413989
454.7249412
456.2743335
457.884678
459.5512016
461.2688416
463.0320436
464.8354968
466.6738443
468.5414212
470.4327753
472.3425701
474.2654699
476.1964696
478.1305592
480.0631165
481.989821
483.9065156
485.8094176
487.6950723
489.5602689
491.4022071
493.2182566
495.0060598
496.7637996
498.4898949
500.1829611
501.8416163
503.4652937
505.0534126
506.6053968
508.1214723
509.6015482
511.0464492
512.4564498
441.410298
441.5172506
441.7472786
442.0893642
442.5381368
443.0903739
443.7425837
444.4924577
445.3374256
446.2750173
447.3026883
448.4177851
449.6173591
450.8981936
452.2566382
453.6885074
455.1898372
456.7555795
458.381163
460.0613603
461.7905775
463.5635278
465.3746865
467.2183503
469.0887377
470.980414
472.8879752
474.8061268
476.7298848
478.6543047
480.5748731
482.4872719
484.3875013
486.2719237
488.1372071
489.9801958
491.7983458
493.5891759
495.3506788
497.0810821
498.7787195
500.442602
502.0717077
503.6651207
505.2227696
506.7440294
508.2292542
509.6784958
511.0926086
512.4718656
441.6537245
441.7629204
441.9977544
442.3466735
442.8045603
443.3676599
444.0326802
444.7966302
445.6570108
446.6111184
447.6561718
448.7892417
450.0070825
451.3060588
452.6822246
454.1315887
455.6490276
457.2302249
458.8695449
460.5619107
462.3016645
464.0830823
465.9004595
467.7480583
469.6201333
471.5111812
473.4156756
475.3283761
477.244301
479.1586047
481.0667774
482.9646125
484.8482744
486.7142828
488.559417
490.3808393
492.1760257
493.9424424
495.6784299
497.3824441
499.053006
500.6889651
502.2897274
503.8544569
505.3830375
506.8752176
508.3311674
509.751236
511.1362228
512.486423
441.900705
442.0121115
442.2515464
442.6072347
443.0741509
443.6478104
444.3252046
445.1030797
445.9784202
446.9484939
448.0102866
449.1605718
450.3955611
451.7117248
453.104872
454.5701227
456.1030036
457.6979854
459.3500257
461.0533928
462.8021355
464.5906996
466.413254
468.2638053
470.1365613
472.0259061
473.9264046
475.8328804
477.7402986
479.6439572
481.5394883
483.422744
485.2900054
487.1379136
488.9632166
490.7633983
492.5360491
494.2790234
495.9905032
497.6690569
499.3135549
500.9229425
502.49656
504.0340225
505.5349389
506.9994851
508.4276527
509.8200676
511.1774439
512.500184
442.1511845
442.2646207
442.508531
442.8710717
443.3466023
443.9308391
444.6201621
445.4114162
446.3014019
447.2869196
448.3647181
449.5312944
450.7828921
452.1154851
453.5241933
455.0046474
456.5514197
458.1594449
459.8227116
461.5357357
463.2925424
465.0871621
466.9135594
468.765829
470.6382108
472.5250696
474.4209015
476.3205841
478.2190769
480.1117669
481.994326
483.8628111
485.713617
487.5435091
489.3495258
491.1291369
492.8798555
494.5999136
496.28778
497.9419534
499.5613462
501.145371
502.6930427
504.2044371
505.6790556
507.1173178
508.5190938
509.8852688
511.2164582
512.5132057
442.404777
442.5203569
442.7688504
443.1381268
443.6220055
444.2166064
444.9176481
445.7218591
446.6258835
447.6262838
448.719538
449.9018546
451.1692278
452.5169462
453.9406415
455.4349952
456.9948373
458.6143407
460.288021
462.0095984
463.7730705
465.5725658
467.4019206
469.2550734
471.1262531
473.0096826
474.9000248
476.7922007
478.6812313
480.5626262
482.4321496
484.2859314
486.1204716
487.9325386
489.7194521
491.4788167
493.2084406
494.9063366
496.5712341
498.202011
499.7973335
501.3568431
502.8798917
504.366285
505.8159351
507.2290883
508.6058498
509.9470991
511.2534381
512.5255415
442.6617464
442.7794384
443.0324434
443.4080158
443.9003995
444.5048656
445.2175334
446.034431
446.9520553
447.9668207
449.0749243
450.2721453
451.5542292
452.9166003
454.3541533
455.8615041
457.4332158
459.0634612
460.746106
462.4751593
464.2444742
466.0478291
467.878976
469.7319517
471.6009895
473.4803591
475.3646903
477.2489161
479.1281542
480.9979198
482.8541185
484.6930246
486.5113067
488.3059525
490.0742378
491.8137767
493.5226432
495.1992399
496.8419707
498.4499794
500.0223476
501.5583246
503.0577924
504.520282
505.946097
507.335282
508.6882594
510.0058029
511.2885314
512.5372415
442.9220246
443.0417981
443.2990573
443.6809834
444.181689
444.7958435
445.5195735
446.3488584
447.2797528
448.3083498
449.4305635
450.6420902
451.9384203
453.3144426
454.7649049
456.2844195
457.8669949
459.5067722
461.197677
462.9330907
464.7070122
466.5132391
468.3454294
470.1975219
472.0636551
473.9381608
475.815795
477.6914628
479.5604486
481.4184215
483.2613046
485.0854255
486.887516
488.6647638
490.4146772
492.1350717
493.8237082
495.4794022
497.1009082
498.6869322
500.2371017
501.7505517
503.2273245
504.6670064
506.0700372
507.4363433
508.7666448
510.0616122
511.3218781
512.5483527
443.185493
443.3071656
443.5686591
443.9569814
444.4655418
445.0894969
445.8240293
446.6652258
447.6088993
448.6508712
449.7867676
451.0120633
452.3217322
453.7105794
455.1733431
456.7038493
458.2965183
459.9449408
461.6428001
463.3838112
465.1616408
466.969726
468.8019139
470.6521995
472.5147357
474.3838688
476.2543743
478.1211341
479.9794863
481.8252926
483.6545956
485.4638949
487.2500918
489.0102375
490.7420078
492.4434206
494.1126205
495.7479948
497.3487332
498.9136973
500.4423337
501.9342269
503.3891115
504.8070119
506.1881927
507.5326656
508.8413142
510.1147485
511.3536117
512.5589202
462.0824139
463.8279018
465.6085379
467.417812
469.2493817
471.0972116
472.955379
474.8184066
476.6811294
478.5385268
480.3861083
482.2196915
484.0353549
485.8297492
487.5999409
489.3432411
491.0573364
492.7401208
494.3901097
496.005932
497.5864631
499.1310805
500.6389174
502.1100294
503.5438545
504.9408321
506.3009843
507.6246269
508.9125634
510.1654095
511.3838602
512.5689869
)
;

boundaryField
{
    front_top
    {
        type            wedge;
    }
    front_middle
    {
        type            wedge;
    }
    front_bottom
    {
        type            wedge;
    }
    back_top
    {
        type            wedge;
    }
    back_middle
    {
        type            wedge;
    }
    back_bottom
    {
        type            wedge;
    }
    axis_top
    {
        type            symmetryPlane;
    }
    axis_middle
    {
        type            symmetryPlane;
    }
    axis_bottom
    {
        type            symmetryPlane;
    }
    wall_top
    {
        type            convectiveRadiativeHeatFlux;
        mode            convectiveRadiative;
        kappaMethod     fluidThermo;
        kappa           none;
        alphaAni        Anialpha;
        h               nonuniform 0();
        Ta              constant 513.15;
        emissivityNozzle 0.95;
        emissivityFilament 0.95;
        dNozzle         2;
        dFilament       1.65;
        refValue        nonuniform 0();
        refGradient     nonuniform 0();
        valueFraction   nonuniform 0();
        value           nonuniform 0();
    }
    wall_middle
    {
        type            fixedValue;
        value           uniform 513.15;
    }
    wall_bottom
    {
        type            fixedValue;
        value           nonuniform 0();
    }
    inlet
    {
        type            fixedValue;
        value           nonuniform 0();
    }
    outlet
    {
        type            zeroGradient;
    }
    procBoundary4to3
    {
        type            processor;
        value           nonuniform List<scalar> 
51
(
443.4518264
443.5755217
443.841324
444.2358361
444.7522144
445.3854881
446.1308755
446.983672
447.9397507
448.9946492
450.1437086
451.3819089
452.7042737
454.1054742
455.5793317
457.1204222
458.7220123
460.378246
460.378246
462.5166692
464.2660757
466.0488203
467.8583211
469.6883777
471.5330121
473.3863366
475.2428583
477.0974098
478.9450361
480.7814176
482.6024334
484.4044084
486.184084
487.9383786
489.6648772
491.3614814
493.0261712
494.657328
496.2540098
497.8149858
499.3396952
500.8275824
502.2784952
503.6921516
505.0689906
506.4089355
507.7125893
508.9806761
510.2137817
511.4127459
512.578594
)
;
    }
    procBoundary4to5
    {
        type            processor;
        value           nonuniform List<scalar> 
51
(
438.0078692
438.078182
438.2292212
438.453599
438.7482035
439.11081
439.5393098
440.0329811
440.5906125
441.2121885
441.8971425
442.6458379
443.4586535
444.3360502
445.2785906
446.2869386
447.3617514
448.5036934
449.7132764
450.9909405
452.3367223
453.7506075
455.2325071
456.7816214
458.3974092
460.0787692
461.824012
463.6316379
465.499652
467.4255647
469.4065494
471.4396625
473.5214749
475.6483531
477.8163419
480.9060445
480.9060445
483.1204946
485.3558574
487.6074902
489.8704314
492.1397639
494.410143
496.6770616
498.935769
501.1817415
503.4106267
505.6188405
507.8031418
509.96112
512.0911004
)
;
    }
}


// ************************************************************************* //
