/*--------------------------------*- C++ -*----------------------------------*\
  =========                 |
  \\      /  F ield         | OpenFOAM: The Open Source CFD Toolbox
   \\    /   O peration     | Website:  https://openfoam.org
    \\  /    A nd           | Version:  7
     \\/     M anipulation  |
\*---------------------------------------------------------------------------*/
FoamFile
{
    version     2.0;
    format      ascii;
    class       volScalarField;
    location    "0.0003";
    object      thermo:alpha;
}
// * * * * * * * * * * * * * * * * * * * * * * * * * * * * * * * * * * * * * //

dimensions      [1 -1 -1 0 0 0 0];

internalField   nonuniform List<scalar> 
1167
(
0.0001208555496
0.0001208500132
0.0001208381123
0.0001208204224
0.0001207971976
0.0001207669273
0.0001207289762
0.0001206840302
0.0001206292371
0.0001205715103
0.0001205104334
0.0001204370286
0.0001203574301
0.0001202716204
0.0001201744102
0.0001200718709
0.000119960755
0.0001198471034
0.0001197206539
0.0001195973968
0.000119460295
0.0001193205673
0.0001191648758
0.0001189992933
0.0001188154903
0.0001186250966
0.0001184143442
0.0001181820732
0.0001179384839
0.0001176777994
0.0001174022126
0.000117103563
0.0001167875716
0.0001164552834
0.0001161064596
0.0001208410863
0.0001208353839
0.000120823125
0.0001208048994
0.0001207807898
0.0001207477174
0.0001207085838
0.0001206598926
0.0001206033603
0.000120546484
0.0001204805249
0.0001204047857
0.0001203226676
0.0001202341768
0.0001201301141
0.0001200281818
0.0001199116043
0.000119793883
0.0001196680059
0.0001195412272
0.0001193995483
0.0001192521729
0.0001190931918
0.0001189176286
0.0001187306645
0.0001185325335
0.0001183135385
0.0001180741278
0.0001178278034
0.0001175583995
0.0001172738146
0.0001169742114
0.0001166514728
0.0001163152379
0.0001159623588
0.0001155944249
0.0001152117036
0.0001148145403
0.0001143965634
0.0001139656889
0.0001135287205
0.0001130768612
0.0001126060181
0.0001121356509
0.0001116529312
0.0001111615962
0.0001106721626
0.0001101734843
0.0001096632312
0.0001091603768
0.0001208263541
0.0001208204817
0.0001208078561
0.0001207890823
0.0001207622215
0.0001207281389
0.0001206868472
0.0001206352956
0.0001205794528
0.0001205210033
0.0001204500951
0.0001203720325
0.0001202874145
0.0001201927503
0.0001200891559
0.0001199801805
0.0001198649477
0.0001197391743
0.0001196151942
0.000119479756
0.0001193398937
0.0001191841566
0.0001190204048
0.0001188369024
0.0001186470679
0.0001184391384
0.0001182103235
0.0001179688125
0.0001177132097
0.0001174427292
0.000117149867
0.0001168426769
0.0001165209078
0.0001161845352
0.0001158267169
0.0001154574735
0.0001150725651
0.0001146747993
0.0001142640728
0.0001138354225
0.0001134056489
0.0001129575691
0.0001124976878
0.0001120361492
0.0001115675566
0.0001110880188
0.000110614365
0.0001101299065
0.0001096360741
0.0001091510314
0.0001208113496
0.0001208053039
0.0001207923044
0.0001207718174
0.0001207433093
0.0001207082002
0.0001206633825
0.0001206102608
0.0001205553368
0.000120492847
0.0001204191945
0.000120338808
0.000120251702
0.0001201505747
0.0001200480434
0.0001199318058
0.0001198163174
0.0001196886728
0.0001195623691
0.0001194205186
0.0001192754209
0.000119116661
0.0001189436434
0.0001187572845
0.0001185623221
0.0001183470309
0.0001181094796
0.0001178662673
0.0001176019809
0.0001173243859
0.0001170303358
0.0001167162493
0.0001163884508
0.0001160470484
0.000115692534
0.0001153260817
0.0001149408963
0.000114542874
0.0001141342313
0.0001137132395
0.0001132874856
0.0001128450545
0.0001123967929
0.0001119437129
0.0001114866777
0.0001110199782
0.0001105589593
0.0001100885188
0.0001096110862
0.0001091423001
0.0001207960701
0.0001207898483
0.0001207757428
0.0001207534061
0.0001207240582
0.000120686969
0.0001206395143
0.0001205864776
0.0001205308394
0.0001204636936
0.0001203879059
0.0001203051967
0.0001202140418
0.0001201097991
0.0001200040165
0.000119887429
0.0001197646039
0.0001196387904
0.000119506181
0.0001193650366
0.0001192114225
0.0001190498513
0.0001188678914
0.0001186789225
0.0001184748824
0.0001182505372
0.000118011133
0.0001177613303
0.000117494149
0.0001172089161
0.0001169106002
0.0001165947863
0.0001162670502
0.0001159219678
0.0001155647923
0.0001151960427
0.0001148162023
0.0001144182647
0.0001140111143
0.0001135984192
0.0001131767266
0.0001127398511
0.0001123026584
0.0001118576265
0.0001114100915
0.0001109568091
0.0001105075573
0.0001100502036
0.0001095879859
0.0001091342414
0.0001207802823
0.0001207730983
0.0001207576491
0.0001207346691
0.0001207044734
0.0001206640908
0.0001206152585
0.0001205632352
0.0001205049187
0.0001204341503
0.0001203562396
0.0001202712453
0.0001201740317
0.0001200708679
0.0001199582807
0.0001198431301
0.0001197146059
0.0001195890373
0.0001194484461
0.0001193061273
0.0001191480332
0.000118978706
0.0001187932677
0.0001186019562
0.0001183892703
0.0001181562985
0.0001179153585
0.00011765751
0.0001173872897
0.0001170974303
0.0001167926849
0.000116475534
0.0001161462138
0.0001157996013
0.0001154431383
0.0001150725361
0.0001146922333
0.0001143005003
0.000113895014
0.0001134903681
0.0001130726962
0.000112641217
0.0001122145608
0.0001117772023
0.0001113386592
0.0001108979797
0.0001104597528
0.0001100146157
0.000109566556
0.0001091267761
0.0001207625065
0.0001207551207
0.0001207392368
0.0001207156089
0.0001206832547
0.0001206408437
0.0001205917121
0.0001205396591
0.0001204769905
0.0001204042745
0.0001203242428
0.0001202369917
0.0001201337354
0.0001200315964
0.000119913967
0.0001197951755
0.0001196676661
0.000119538967
0.0001193957084
0.0001192460529
0.0001190854065
0.0001189077236
0.0001187199097
0.0001185207547
0.0001183017363
0.0001180643982
0.0001178210184
0.0001175568226
0.0001172794818
0.0001169898903
0.0001166792415
0.0001163570479
0.0001160238308
0.0001156798942
0.0001153258471
0.0001149551621
0.0001145745224
0.0001141862733
0.0001137854135
0.0001133852826
0.0001129715802
0.0001125486473
0.0001121292994
0.0001117019547
0.0001112719087
0.0001108430549
0.0001104151753
0.0001099814674
0.0001095466164
0.0001091198385
0.0001207444158
0.0001207368272
0.0001207205065
0.0001206961928
0.0001206608164
0.0001206172382
0.0001205692429
0.0001205157673
0.0001204487252
0.0001203740977
0.0001202919947
0.0001201996398
0.0001200963679
0.0001199884538
0.0001198722463
0.0001197464937
0.0001196208928
0.0001194847843
0.000119343618
0.000119186666
0.0001190220637
0.0001188378874
0.0001186479325
0.0001184407019
0.000118213655
0.0001179749117
0.0001177240449
0.0001174593091
0.0001171753473
0.0001168798808
0.0001165701937
0.0001162497535
0.0001159125989
0.000115565641
0.0001152095662
0.0001148436041
0.0001144628689
0.0001140756617
0.0001136818344
0.0001132847887
0.0001128753551
0.000112461593
0.000112048476
0.0001116314002
0.0001112094165
0.0001107917164
0.0001103735141
0.0001099505164
0.0001095280158
0.0001091133737
0.0001207260092
0.0001207182174
0.0001207014595
0.0001206743509
0.0001206380273
0.0001205940992
0.0001205464673
0.0001204889427
0.0001204201502
0.0001203436364
0.0001202594974
0.0001201615171
0.0001200594292
0.0001199452295
0.0001198300611
0.0001197010687
0.0001195743796
0.0001194319619
0.0001192873547
0.0001191280114
0.000118955651
0.0001187692872
0.0001185758982
0.0001183624513
0.0001181277955
0.0001178879095
0.0001176299819
0.0001173608181
0.0001170748083
0.0001167737507
0.0001164620064
0.0001161400072
0.0001158026468
0.0001154565758
0.0001150987986
0.0001147337104
0.0001143569281
0.0001139709031
0.000113583908
0.0001131899257
0.0001127846505
0.0001123796356
0.0001119724601
0.0001115651226
0.0001111507785
0.0001107435944
0.0001103345381
0.0001099215569
0.0001095106264
0.0001091073357
0.0001207072865
0.0001206992918
0.0001206805232
0.0001206521611
0.0001206148939
0.0001205722535
0.0001205233987
0.0001204618093
0.000120391325
0.0001203129381
0.0001202263315
0.0001201236111
0.0001200213389
0.0001199045128
0.0001197843167
0.0001196571566
0.0001195265497
0.0001193835548
0.0001192317329
0.0001190701986
0.0001188903403
0.0001187019747
0.000118501082
0.0001182807585
0.000118044183
0.0001178008165
0.0001175388073
0.0001172633988
0.0001169772175
0.0001166715827
0.0001163555289
0.0001160297272
0.0001156950962
0.0001153523829
0.0001149932373
0.0001146276785
0.0001142563227
0.0001138715857
0.0001134912179
0.0001131002728
0.0001126990569
0.0001123024148
0.0001119009482
0.0001115016413
0.0001110956744
0.0001106984145
0.0001102979759
0.0001098944118
0.0001094943384
0.0001091016851
0.0001206873436
0.0001206782544
0.0001206587057
0.0001206296276
0.0001205924248
0.0001205501139
0.0001204983335
0.0001204343853
0.0001203622378
0.0001202820373
0.0001201902091
0.0001200887121
0.0001199805998
0.0001198652787
0.0001197387126
0.0001196135093
0.0001194761511
0.0001193344016
0.0001191768497
0.0001190107828
0.0001188261822
0.0001186360486
0.0001184279561
0.0001182004986
0.0001179628279
0.0001177128444
0.0001174505241
0.000117169291
0.0001168777969
0.000116573311
0.0001162589233
0.0001159296279
0.0001155922837
0.000115247696
0.000114892691
0.000114526857
0.0001141566198
0.0001137774262
0.0001134008516
0.0001130139835
0.0001126181816
0.0001122295354
0.0001118335312
0.0001114405768
0.0001110438496
0.0001106559369
0.0001102636265
0.0001098689528
0.0001094790571
0.0001090963877
0.0001206658834
0.0001206565712
0.0001206365434
0.0001206067549
0.0001205710193
0.0001205276892
0.0001204721393
0.0001204067056
0.00012033291
0.0001202509375
0.0001201539243
0.0001200537284
0.0001199398488
0.0001198252087
0.0001196968614
0.0001195701691
0.0001194276118
0.0001192823255
0.0001191227345
0.0001189496813
0.0001187632546
0.0001185695212
0.0001183565318
0.0001181223121
0.0001178837792
0.000117627551
0.0001173609889
0.0001170784162
0.0001167819839
0.0001164761934
0.0001161616183
0.0001158317258
0.0001154939416
0.0001151477292
0.0001147960147
0.0001144308795
0.000114061418
0.0001136880646
0.0001133138212
0.0001129301838
0.0001125417693
0.000112159233
0.0001117699076
0.0001113830016
0.000110995049
0.0001106159505
0.0001102313137
0.0001098450207
0.0001094646996
0.000109091414
0.0001206440752
0.000120634542
0.0001206140393
0.0001205853417
0.0001205493231
0.0001205038104
0.000120445659
0.0001203787852
0.0001203033892
0.000120218504
0.0001201184239
0.0001200172685
0.0001199019135
0.0001197823102
0.0001196558423
0.0001195254414
0.0001193827119
0.0001192309008
0.0001190694431
0.0001188896535
0.0001187015489
0.0001185011078
0.0001182816038
0.0001180462014
0.0001178046792
0.0001175448601
0.0001172727666
0.0001169906855
0.0001166896785
0.0001163798957
0.0001160619801
0.0001157346552
0.000115399905
0.0001150523035
0.0001147000022
0.00011433956
0.0001139709588
0.0001136032504
0.0001132312929
0.0001128507903
0.0001124694536
0.0001120914248
0.0001117098493
0.0001113286624
0.0001109490274
0.0001105769138
0.0001102008793
0.0001098224931
0.0001094511922
0.0001090867379
0.0001206219214
0.0001206121693
0.0001205922213
0.0001205641739
0.0001205273423
0.0001204783344
0.0001204189065
0.0001203506213
0.0001202736729
0.0001201839799
0.0001200852552
0.0001199787454
0.0001198649853
0.0001197395687
0.0001196150951
0.0001194785622
0.0001193373186
0.0001191801834
0.0001190148416
0.0001188307036
0.0001186411304
0.0001184342491
0.0001182083814
0.0001179721305
0.0001177247338
0.0001174647599
0.0001171874974
0.0001169009245
0.0001166007951
0.0001162913556
0.0001159698753
0.0001156416684
0.0001153076272
0.0001149611611
0.0001146084202
0.0001142525632
0.000113884907
0.0001135226908
0.0001131530212
0.0001127755791
0.0001124009716
0.0001120272634
0.0001116530853
0.0001112773535
0.0001109055829
0.0001105399946
0.000110172184
0.0001098012641
0.0001094384699
0.0001090823363
0.000120599621
0.0001205906559
0.0001205713775
0.0001205427146
0.0001205039155
0.0001204525683
0.0001203919209
0.0001203222311
0.000120243767
0.0001201493028
0.0001200520081
0.0001199402139
0.0001198274179
0.0001197002297
0.0001195746371
0.0001194329691
0.0001192890434
0.0001191301677
0.0001189585394
0.0001187728691
0.0001185808488
0.000118368926
0.0001181370236
0.0001179001174
0.0001176471537
0.0001173845495
0.0001171050522
0.0001168140751
0.0001165147392
0.0001162073653
0.0001158830089
0.000115552569
0.0001152169771
0.0001148741144
0.0001145210949
0.0001141659712
0.0001138030432
0.0001134454899
0.0001130786877
0.0001127042401
0.0001123361229
0.0001119665123
0.000111599375
0.0001112288664
0.0001108645331
0.0001105051313
0.0001101451015
0.0001097812382
0.0001094264744
0.0001090781884
0.0001205790832
0.0001205699265
0.0001205502373
0.0001205209685
0.0001204789248
0.0001204265197
0.0001203646805
0.0001202936518
0.0001202119384
0.0001201156829
0.0001200172773
0.0001199042464
0.0001197870279
0.0001196617719
0.0001195334749
0.000119391186
0.0001192413363
0.0001190808908
0.0001189031797
0.0001187161181
0.0001185180858
0.0001183012975
0.0001180674757
0.0001178294292
0.0001175718497
0.000117304327
0.0001170253686
0.000116730304
0.0001164273889
0.0001161173561
0.0001157957413
0.0001154671901
0.0001151302287
0.0001147897985
0.0001144377227
0.0001140831498
0.0001137251094
0.0001133693149
0.0001130062575
0.0001126365094
0.0001122746112
0.0001119089869
0.0001115485106
0.0001111829805
0.0001108257269
0.0001104721788
0.0001101188185
0.0001097623279
0.0001094151524
0.0001090742756
0.0001205582443
0.0001205488987
0.0001205288052
0.0001204971035
0.0001204536371
0.0001204002219
0.0001203371934
0.0001202648619
0.0001201787128
0.0001200839541
0.0001199806281
0.0001198692894
0.0001197467517
0.0001196235264
0.0001194896513
0.0001193498053
0.0001191942453
0.000119031572
0.0001188487612
0.0001186604754
0.0001184566483
0.0001182341621
0.0001179997087
0.0001177564125
0.0001174987912
0.0001172266342
0.000116945872
0.0001166494446
0.0001163440808
0.0001160304847
0.000115711149
0.0001153853179
0.0001150471797
0.0001147062207
0.000114358155
0.000114004176
0.0001136508465
0.0001132968011
0.0001129361573
0.0001125722045
0.0001122162181
0.0001118544221
0.0001114990626
0.000111139515
0.0001107890117
0.0001104410015
0.0001100937265
0.0001097444534
0.0001094044554
0.0001090705806
0.0001205371084
0.000120527577
0.0001205061373
0.0001204723654
0.0001204280586
0.0001203736628
0.0001203094876
0.000120235869
0.0001201453127
0.0001200521201
0.0001199439317
0.0001198342631
0.0001197089341
0.0001195855089
0.0001194461563
0.0001193049376
0.000119147719
0.0001189793662
0.0001187952594
0.0001186058788
0.0001183965295
0.0001181686163
0.0001179336625
0.0001176853721
0.0001174278423
0.0001171513445
0.000116866643
0.0001165713883
0.0001162675468
0.0001159513277
0.0001156299114
0.000115304286
0.0001149676123
0.0001146262289
0.0001142821
0.0001139288076
0.0001135800911
0.0001132277449
0.0001128694395
0.0001125110714
0.0001121592839
0.0001118026176
0.0001114514922
0.0001110983028
0.0001107542205
0.000110411474
0.0001100699742
0.000109727541
0.0001093943459
0.000109067088
0.0001205156695
0.0001205048956
0.0001204817354
0.0001204473257
0.0001204022186
0.0001203468417
0.0001202815631
0.0001202042446
0.0001201131916
0.0001200189126
0.0001199092419
0.0001197959253
0.0001196725878
0.0001195476916
0.0001194065384
0.0001192603365
0.0001191017916
0.0001189278973
0.0001187426608
0.0001185487367
0.0001183363328
0.0001181045558
0.0001178692703
0.000117616271
0.0001173544485
0.0001170783823
0.0001167899856
0.0001164944088
0.0001161924462
0.0001158750819
0.0001155517955
0.0001152248623
0.0001148913541
0.0001145496864
0.0001142075537
0.0001138567899
0.0001135125554
0.0001131619376
0.0001128059116
0.0001124528861
0.0001121043184
0.0001117533853
0.0001114063145
0.0001110592003
0.0001107212189
0.0001103834801
0.0001100474665
0.0001097115221
0.000109384778
0.000109063783
0.0001204915863
0.0001204806127
0.000120457026
0.0001204219901
0.0001203761088
0.0001203197719
0.000120253411
0.0001201719727
0.0001200825606
0.0001199837262
0.0001198758476
0.0001197576243
0.0001196363546
0.0001195066673
0.0001193676353
0.000119216191
0.0001190564045
0.000118877193
0.000118690917
0.0001184917521
0.0001182742151
0.0001180419651
0.0001178041191
0.0001175489754
0.0001172829736
0.0001170075954
0.0001167157615
0.0001164171885
0.0001161127119
0.0001157978482
0.000115476648
0.0001151485426
0.0001148181544
0.0001144763102
0.0001141345702
0.0001137879682
0.0001134475064
0.0001130991242
0.0001127453615
0.0001123974584
0.0001120519885
0.000111706592
0.0001113633632
0.0001110220718
0.0001106898805
0.0001103569306
0.0001100261145
0.0001096963326
0.0001093757096
0.0001090606521
0.0001204671912
0.0001204560212
0.0001204320152
0.0001203963954
0.0001203497258
0.0001202924772
0.0001202244068
0.0001201394937
0.0001200517842
0.0001199484351
0.0001198424168
0.0001197205193
0.0001196002662
0.0001194655283
0.0001193271156
0.0001191724657
0.0001190089124
0.0001188271642
0.0001186400095
0.0001184358026
0.0001182133174
0.0001179807232
0.0001177383747
0.0001174834248
0.000117213494
0.0001169358346
0.0001166438243
0.0001163433685
0.000116035654
0.0001157229869
0.0001154042647
0.0001150751558
0.000114744564
0.0001144059162
0.0001140646086
0.0001137220745
0.0001133829757
0.0001130386582
0.0001126875501
0.0001123446257
0.0001120021075
0.0001116620219
0.000111322479
0.0001109867519
0.0001106600856
0.0001103317095
0.0001100058347
0.0001096819124
0.0001093671043
0.0001090576827
0.000120442491
0.0001204311277
0.0001204067272
0.0001203705187
0.0001203230789
0.0001202649363
0.0001201929996
0.0001201087108
0.0001200196559
0.0001199145487
0.0001198063403
0.000119685798
0.0001195642733
0.0001194261412
0.0001192849411
0.0001191291346
0.0001189605119
0.0001187778134
0.0001185894132
0.0001183808055
0.000118153604
0.0001179207902
0.0001176741336
0.0001174190301
0.000117145825
0.0001168648199
0.0001165740309
0.00011627508
0.0001159649434
0.0001156507123
0.0001153334348
0.0001150044565
0.0001146735044
0.0001143383091
0.000113997508
0.0001136588974
0.0001133211693
0.0001129787221
0.0001126322781
0.0001122941567
0.0001119545153
0.0001116195103
0.0001112835272
0.0001109531068
0.0001106317197
0.0001103077107
0.0001099865472
0.0001096682043
0.0001093589276
0.0001090548627
0.0001204174974
0.0001204059583
0.0001203811655
0.0001203443649
0.0001202962
0.0001202371538
0.0001201613547
0.0001200788476
0.0001199855282
0.000119882309
0.0001197695175
0.0001196510922
0.0001195267704
0.0001193891241
0.0001192430284
0.0001190861861
0.0001189126152
0.0001187290653
0.0001185358583
0.0001183245313
0.0001180949493
0.0001178620442
0.0001176113059
0.0001173523992
0.0001170798923
0.0001167957246
0.0001165052538
0.0001162088184
0.0001158966366
0.0001155808204
0.0001152624352
0.0001149363035
0.0001146050548
0.0001142732465
0.0001139330207
0.000113598292
0.0001132618818
0.0001129212827
0.0001125793965
0.0001122458729
0.0001119090463
0.0001115789004
0.0001112463633
0.0001109210088
0.0001106043369
0.0001102848403
0.000109968176
0.0001096551536
0.0001093511468
0.0001090521808
0.0001184829989
0.0001182671297
0.0001180373284
0.0001178019284
0.000117549758
0.0001172872255
0.0001170155251
0.000116728402
0.0001164353703
0.0001161373269
0.0001158282183
0.0001155131084
0.0001151937346
0.0001148704559
0.0001145390401
0.000114208794
0.0001138709253
0.0001135400004
0.0001132049604
0.0001128661418
0.0001125286858
0.0001121996007
0.0001118655053
0.0001115400407
0.0001112108251
0.0001108903345
0.000110577511
0.0001102630082
0.0001099506479
0.0001096427119
0.0001093437305
0.000109049626
)
;

boundaryField
{
    front_top
    {
        type            wedge;
    }
    front_middle
    {
        type            wedge;
    }
    front_bottom
    {
        type            wedge;
    }
    back_top
    {
        type            wedge;
    }
    back_middle
    {
        type            wedge;
    }
    back_bottom
    {
        type            wedge;
    }
    axis_top
    {
        type            symmetryPlane;
    }
    axis_middle
    {
        type            symmetryPlane;
    }
    axis_bottom
    {
        type            symmetryPlane;
    }
    wall_top
    {
        type            calculated;
        value           nonuniform 0();
    }
    wall_middle
    {
        type            calculated;
        value           uniform 0.0001089022317;
    }
    wall_bottom
    {
        type            calculated;
        value           nonuniform 0();
    }
    inlet
    {
        type            calculated;
        value           nonuniform 0();
    }
    outlet
    {
        type            calculated;
        value           nonuniform 0();
    }
    procBoundary4to3
    {
        type            processor;
        value           nonuniform List<scalar> 
51
(
0.0001203922415
0.000120380515
0.0001203553234
0.0001203179507
0.0001202690651
0.0001202069406
0.0001201294752
0.0001200488017
0.0001199512398
0.0001198499668
0.0001197326372
0.0001196164164
0.0001194873816
0.0001193522435
0.0001192013908
0.0001190435552
0.0001188651963
0.0001186808876
0.0001186808876
0.0001184308158
0.0001182105278
0.0001179805955
0.0001177412203
0.0001174894126
0.0001172234399
0.0001169504251
0.0001166626813
0.0001163672418
0.0001160672212
0.0001157602151
0.000115447433
0.0001151271805
0.0001148064007
0.000114475209
0.000114145335
0.0001138110577
0.0001134838235
0.0001131501663
0.000112813127
0.0001124799547
0.0001121534846
0.0001118237291
0.0001115016463
0.0001111767743
0.0001108609632
0.0001105518402
0.000110242128
0.0001099338932
0.000109630833
0.0001093366485
0.0001090471879
)
;
    }
    procBoundary4to5
    {
        type            processor;
        value           nonuniform List<scalar> 
51
(
0.0001208711103
0.0001208650611
0.0001208528199
0.000120835651
0.0001208131167
0.000120785394
0.0001207489647
0.0001207065947
0.0001206546011
0.0001205960481
0.0001205374132
0.0001204687012
0.0001203915943
0.0001203084607
0.0001202180568
0.0001201145573
0.0001200111524
0.0001198961601
0.0001197771132
0.0001196530731
0.0001195252265
0.0001193853848
0.0001192369591
0.0001190782252
0.0001189013689
0.0001187141823
0.0001185140654
0.0001182924937
0.0001180513643
0.0001178008597
0.0001175281491
0.0001172370997
0.0001169294548
0.0001165999319
0.0001162558178
0.0001157387838
0.0001157387838
0.000115358593
0.0001149557547
0.000114537616
0.0001141047938
0.0001136579749
0.0001132008518
0.0001127227612
0.0001122411741
0.0001117453365
0.0001112414217
0.0001107350069
0.0001102206356
0.0001096928884
0.000109170415
)
;
    }
}


// ************************************************************************* //
