/*--------------------------------*- C++ -*----------------------------------*\
  =========                 |
  \\      /  F ield         | OpenFOAM: The Open Source CFD Toolbox
   \\    /   O peration     | Website:  https://openfoam.org
    \\  /    A nd           | Version:  7
     \\/     M anipulation  |
\*---------------------------------------------------------------------------*/
FoamFile
{
    version     2.0;
    format      ascii;
    class       volScalarField;
    location    "0.0003";
    object      thermo:mu;
}
// * * * * * * * * * * * * * * * * * * * * * * * * * * * * * * * * * * * * * //

dimensions      [1 -1 -1 0 0 0 0];

internalField   nonuniform List<scalar> 
1167
(
279068.145
277080.4827
272862.3308
266726.9947
258909.6408
249651.3081
239190.803
227760.4351
215596.764
202915.0781
189920.9152
176809.704
163749.4601
150892.5785
138371.8473
126299.0019
114765.1883
103841.3129
93580.83716
84017.13768
75166.7346
67033.55315
59607.20095
52867.0339
46783.27088
41321.33626
36440.41816
32097.36495
28247.85415
24847.91612
21854.14648
19224.81787
16920.7696
14905.33739
13144.98908
273909.5117
271905.6264
267654.0665
261472.6625
253601.7865
244292.5575
233777.3481
222307.883
210111.7082
197424.2764
184448.78
171380.5869
158395.2507
145648.1438
133270.7175
121373.919
110046.6331
99356.16083
89349.86364
80056.53479
71490.6724
63646.55829
56511.16404
50057.15622
44252.24374
39056.90546
34428.01934
30320.44905
26688.78606
23488.22746
20675.11063
18208.27072
16049.13951
14162.0806
12514.69222
11077.57613
9824.447995
8731.838547
7779.055363
6947.742809
6221.902465
5587.572766
5032.560114
4546.30677
4119.60278
3744.502723
3414.122037
3122.507678
2864.471896
2635.5374
268766.5408
266747.313
262464.3087
256239.9785
248326.2587
238965.7369
228406.6705
216904.5011
204694.0433
192007.7729
179065.774
166060.2497
153169.4877
140549.2578
128331.7134
116625.7341
105516.779
95068.79527
85325.83374
76310.26438
68028.10056
60473.17865
53622.91658
47448.4891
41912.26213
36971.96496
32582.27135
28696.52228
25268.71926
22253.36984
19607.10071
17289.43915
15262.66938
13492.49595
11947.55188
10599.77793
9424.161761
8398.494358
7503.247947
6721.276306
6037.620442
5439.200166
4914.654689
4454.169212
4049.226781
3692.455548
3377.468375
3098.759326
2851.508897
2631.572541
263641.5034
261608.0815
257296.1633
251036.7734
243081.4989
233676.8623
223086.9134
211558.6178
199346.9338
186681.1035
173782.8004
160855.8701
148076.2751
135599.6228
123557.2698
112055.4704
101178.3946
90983.87885
81508.51324
72772.17594
64775.12427
57503.8236
50933.0222
45029.00465
39750.46577
35052.94358
30889.43918
27212.09936
23974.1771
21130.3656
18637.96708
16457.23716
14551.50879
12887.61647
11435.55685
10168.64968
9063.049776
8097.754453
7254.38048
6516.811839
5871.062968
5304.916921
4807.804349
4370.573413
3985.288753
3645.097566
3344.064474
3077.069072
2839.643885
2627.937424
258536.8324
256490.6097
252155.2997
245865.6399
237872.2827
228434.6533
217820.5007
206282.3418
194078.2582
181448.7862
168614.6758
155780.3027
143126.5948
130808.7879
118956.3072
107672.1169
97034.55951
87097.3579
77895.32585
69437.99898
61722.78721
54729.75145
48430.78859
42786.53979
37754.22845
33287.33589
29336.57766
25854.0043
22792.68098
20107.62256
17756.93362
15701.74911
13906.65884
12339.66606
10972.06923
9778.400746
8736.10082
7825.371842
7028.843085
6331.390589
5719.899519
5182.930369
4710.612876
4294.407144
3926.925513
3601.782943
3313.450147
3057.152147
2828.728193
2624.587776
253455.8974
251401.1469
247046.4965
240727.5546
232703.2309
223245.4131
212613.6736
201080.3885
188898.0999
176317.1176
163562.7013
150838.9781
138327.3183
126182.1973
114530.6625
103472.4309
93083.23579
83410.4417
74480.18639
66301.43213
58862.46813
52141.79395
46104.29392
40709.41663
35911.90524
31662.28175
27911.24679
24610.49977
21713.14146
19174.8455
16954.58757
15014.54312
13320.59453
11841.93939
10551.18821
9424.080445
8439.221683
7577.904086
6823.766961
6162.618754
5582.133906
5071.59671
4621.779165
4224.685171
3873.413248
3561.999919
3285.281094
3038.792107
2818.647122
2621.489336
248406.2904
246342.0583
241968.716
235626.31
227582.8732
218110.0537
207475.0479
195956.5392
183814.136
171296.0727
158633.4813
146035.0495
133679.5425
121720.0647
110281.9172
99460.11474
89323.28572
79915.08686
71258.84836
63353.25929
56186.27369
49728.27746
43942.84723
38786.55369
34210.90803
30166.00294
26602.14883
23470.86159
20725.5516
18322.8566
16222.60968
14388.1864
12786.72503
11388.67717
10167.92913
9101.372413
8168.718799
7352.299099
6636.678878
6008.514794
5456.204939
4969.701811
4540.357468
4160.677654
3824.19846
3525.333791
3259.273272
3021.810235
2809.306053
2618.613879
243384.8263
241313.0534
236925.2048
230565.7078
222513.7976
213033.269
202410.4619
190916.2279
178827.7071
166390.0726
153837.1252
141377.3604
129190.9356
117428.6575
106211.0218
95629.85689
85749.82367
76608.9915
68221.71068
60586.95288
53682.84085
47479.35591
41935.71693
37005.78475
32640.0162
28787.75304
25399.14384
22425.61668
19821.26695
17543.68524
15553.79584
13816.30356
12299.48188
10975.07448
9818.148413
8806.732825
7921.602288
7146.029744
6465.460574
5867.326056
5340.686094
4876.105825
4465.461429
4101.716803
3778.803095
3491.471771
3235.190892
3006.057362
2800.626025
2615.937874
238394.3398
236317.0979
231919.1959
225555.7695
217497.1165
208021.5614
197420.6821
185970.4506
173943.4988
161600.4646
149171.2398
136864.2938
124858.7601
113302.7098
102313.7251
91980.47155
82358.82088
73482.67445
65363.42955
57991.14307
51343.28271
45384.41312
40071.30112
35356.46217
31189.13043
27517.77099
24292.6091
21465.62646
18991.82457
16829.75866
14941.48867
13292.99686
11853.74626
10596.72719
9498.132439
8537.061965
7695.301106
6956.995126
6308.407135
5737.667682
5234.462071
4789.912235
4396.368136
4047.2416
3736.7954
3460.086319
3212.854698
2991.407756
2792.540479
2613.441496
233437.7265
231357.184
226958.8038
220593.0441
212536.499
203080.7839
192509.6731
181116.4099
169170.7612
156932.8396
144638.947
132496.8214
120683.6318
109343.9094
98590.66384
88505.63377
79143.09073
70530.81663
62673.06815
55557.84718
49157.13387
43432.46426
38339.85896
33828.92521
29848.03773
26346.13443
23273.53009
20582.77921
18229.93084
16174.5463
14379.89752
12813.18358
11445.08746
10249.8062
9204.599625
8289.57826
7487.477584
6783.252439
6163.925024
5618.263292
5136.532816
4710.364519
4332.535888
3996.813211
3697.830197
3430.9284
3192.070547
2977.754211
2784.992675
2611.107857
228520.7775
226441.9242
222043.6351
215680.7801
207638.0416
198210.0406
187685.0005
176357.2682
164506.1736
152389.9044
140245.2211
128279.0544
116666.2728
105548.1504
95033.53678
85200.93295
76096.93205
67743.74516
60143.29083
53276.8631
47114.07834
41614.67529
36731.12447
32412.66737
28607.33236
25264.3364
22334.15665
19770.11466
17529.32884
15572.45894
13864.1186
12372.63629
11069.91251
9931.252069
8934.962203
8062.119316
7296.313857
6623.285114
6030.749481
5508.056945
5046.008946
4636.736336
4273.374357
3950.033266
3661.62899
3403.783973
3172.69188
2965.017057
2777.933743
2608.922413
223647.0977
221569.3305
217174.9725
210822.0629
202805.6885
193412.3792
182947.093
171698.4602
159951.6601
147969.3933
135985.3187
124205.151
112800.8584
101911.2108
91640.80989
82059.56695
73211.63877
65114.7496
57763.99217
51138.84081
45205.37811
39920.22505
35235.21528
31099.05483
27459.12626
24264.76909
21467.21266
19020.87607
16883.90494
15018.11457
13389.38323
11967.18244
10724.58563
9637.948804
8686.573568
7852.44583
7119.971295
6475.609291
5907.7045
5406.145909
4962.229149
4568.477364
4218.428644
3906.527694
3627.929326
3378.467548
3154.591546
2953.103729
2771.321237
2606.872546
218815.7617
216741.3426
212355.7291
206024.5782
198038.5618
188693.3048
178296.157
167141.4678
155512.6105
143673.5973
131859.9474
120275.1717
109087.6312
98430.96631
88403.9886
79074.60719
70480.64351
62633.80534
55526.84133
49134.72748
43420.4307
38340.44184
33844.22121
29879.6089
26394.86272
23339.61315
20665.79894
18328.99117
16288.37936
14506.93416
12951.73796
11593.43386
10406.23615
9367.49724
8457.445962
7658.938258
6957.094066
6339.064753
5793.783183
5311.66581
4884.469944
4505.074473
4167.338017
3865.994369
3596.490061
3354.838127
3137.657186
2941.942341
2765.117639
2604.947091
214029.637
211960.8129
207591.4738
201287.5577
193339.2049
184055.151
173734.411
162684.6138
151186.2696
139503.1327
127869.7215
116487.1011
105520.3383
95098.93335
85318.47559
76239.5422
67894.60454
60293.5423
53422.51851
47254.78686
41751.60888
36866.43574
32548.66246
28746.11079
25407.46281
22482.58554
19924.35655
17689.43992
15738.15024
14034.80615
12547.5857
11248.27858
10112.15954
9117.545091
8245.547504
7479.841691
6806.253816
6212.537052
5688.152935
5223.97818
4812.174154
4446.050429
4119.731167
3828.184633
3567.111682
3332.72982
3121.790793
2931.470907
2759.289946
2603.136201
209292.0835
207233.747
202885.4686
196612.0832
188712.7267
179496.489
169267.9051
158329.304
146971.1669
135453.499
124008.6939
112834.8346
102094.2465
91912.62522
82377.15843
73545.59024
65447.17538
58084.25944
51442.54297
45491.10525
40189.04674
35489.63564
31341.40863
27691.96365
24490.33807
21687.36539
19236.9761
17096.91939
15228.65407
13597.7849
12173.57772
10928.89453
9840.011146
8886.175797
8049.345107
7313.914262
6666.356521
6095.045494
5589.960008
5142.40025
4744.89221
4391.016206
4075.285312
3792.862049
3539.617591
3312.013651
3106.904877
2921.63419
2753.808783
2601.431128
204610.8741
202562.4455
198236.8178
192000.4971
184161.1528
175018.8362
164892.1735
154079.5044
142869.577
131524.8408
120276.0519
109317.6135
98806.92202
88863.64248
79572.57258
70986.93744
63128.28342
55998.81917
49578.24463
43834.37143
38725.60069
34202.86505
30214.75532
26709.59399
23636.96217
20948.39795
18598.92672
16547.3868
14756.43862
13192.8489
11826.99521
10632.86295
9587.663809
8671.517947
7867.179314
7159.774332
6536.347103
5985.812221
5498.565662
5066.354988
4682.111129
4339.655633
4033.724282
3759.79464
3513.860523
3292.575343
3092.930306
2912.382004
2748.647434
2599.823907
199983.0324
197946.5865
193647.9771
187459.4002
179683.0091
170627.6689
160607.7506
149930.15
138879.1658
127716.0523
116669.0108
105929.1258
95649.70342
85946.59614
76899.41808
68553.80664
60932.10297
54027.81324
47821.63667
42277.68887
37352.78927
32998.1057
29162.16915
25793.4677
22842.1196
20260.72121
18005.55121
16036.55554
14317.60919
12816.58751
11505.01341
10357.86097
9353.231759
8472.066936
7697.877673
7016.38316
6415.263504
5883.992855
5413.335468
4995.397931
4623.431693
4291.60295
3994.824369
3728.790748
3489.698688
3274.31066
3079.788198
2903.66912
2743.781717
2598.307307
195411.1971
193388.7044
189123.5692
182987.4087
175279.7854
166320.5558
156417.9282
145880.5906
134996.2438
124021.4725
113181.4325
102663.7699
92619.35513
83155.889
74348.34964
66241.52474
58848.67675
52164.87371
46164.68016
40812.39797
36063.99169
31869.34492
28177.28506
24937.21382
22100.02933
19619.44475
17452.71968
15560.94475
13909.26347
12466.60158
11205.5089
10101.97141
9134.974917
8286.254287
7540.083925
6882.715153
6302.378328
5788.944594
5333.680339
4929.04083
4568.525419
4246.570609
3958.346798
3699.677706
3466.987387
3257.124986
3067.40975
2895.454167
2739.192808
2596.874698
190897.9279
188893.8322
184666.7292
178584.8597
170956.616
162096.9316
152321.3705
141933.9685
131221.1001
120439.9667
109811.9622
99520.47591
89709.18484
80483.12066
71914.92094
64040.24375
56872.57991
50400.77655
44600.34853
39432.39815
34851.90565
30809.44781
27254.27593
24136.0719
21406.5644
19020.60284
16936.72498
15117.1786
13528.30782
12140.10773
10926.16929
9863.336584
8931.440777
8112.967692
7392.791337
6757.813668
6196.832509
5700.069165
5259.132545
4866.861248
4517.048828
4204.29881
3924.073943
3672.307281
3445.608613
3240.932204
3055.735282
2887.699087
2734.85835
2595.519951
186451.2874
184464.5862
180275.8376
174253.3404
166711.9635
157958.3752
148315.5336
138085.3744
127551.7006
116969.066
106555.5191
96490.39838
86912.53522
77924.85247
69590.16828
61944.38915
54994.88457
48730.22423
43121.22313
38130.10657
33710.79665
29813.39111
26387.79089
23384.66708
20756.70293
18460.02066
16454.11868
14702.42734
13172.42556
11835.14929
10665.18475
9640.293637
8741.11034
7950.87623
7255.013103
6640.969759
6097.96915
5616.752968
5189.236101
4808.500031
4468.685359
4164.588401
3891.820112
3646.543781
3425.4541
3225.664471
3044.709843
2880.368739
2730.757783
2594.237373
182067.5599
180099.8266
175952.7317
169999.3079
162545.1478
153907.6516
144400.8908
134332.5904
123983.1412
113602.9007
103406.3687
93569.73058
84226.56073
75472.28661
67368.63375
59946.36656
53209.89555
47144.59624
41721.36045
36899.92644
32634.15856
28874.99567
25572.84283
22678.94921
20147.04832
17934.38735
16001.74383
14313.74382
12838.9372
11549.44269
10420.74596
9431.43636
8562.886247
7798.976751
7125.798485
6531.345679
6005.228604
5538.500968
5123.535318
4753.649583
4423.162075
4127.1826
3861.414081
3622.236841
3406.423704
3211.240909
3034.282387
2873.430406
2726.873477
2593.021639
177748.861
175801.5342
171702.0459
165818.958
158457.4136
149940.7121
140579.1262
130676.8347
120514.5517
110339.9252
100363.2896
90754.53312
81642.65089
73120.28062
65243.94835
58039.62431
51510.4531
45638.8595
40393.69126
35735.50118
31617.19645
27989.88684
24804.82334
22014.34285
19573.37682
17440.23569
15576.77237
13948.84198
12525.99147
11281.31001
10191.26191
9235.281029
8395.478628
7656.327134
7004.433305
6428.26029
5917.976946
5464.897278
5061.649022
4701.951578
4380.24503
4091.879705
3832.71044
3599.263607
3388.424271
3197.588523
3024.405171
2866.853408
2723.188852
2591.867733
173497.8811
171574.6532
167524.5162
161713.138
154453.0662
146057.3625
136845.4301
127114.9769
117144.0077
107176.8285
97419.7705
88037.7414
79156.73653
70863.35706
63208.88578
56218.70967
49890.37857
44206.0785
39133.6139
34631.6891
30654.07822
27152.91634
24079.67726
21387.60219
19032.77682
16974.72867
15176.5236
13605.20787
12231.37303
11028.98893
9975.385633
9050.752551
8237.881513
7521.966165
6890.1068
6331.188839
5835.699258
5395.453952
5003.274538
4653.121112
4339.70831
4058.494085
3805.563057
3577.509879
3371.374298
3184.643145
3015.033238
2860.608769
2719.688203
2590.770889
37934.53428
33583.42516
29741.10995
26360.15048
23393.24683
20794.70829
18521.844
16535.15345
14798.86287
13281.09973
11953.43217
10790.87837
9771.635969
8876.605055
8089.207866
7395.159428
6782.114631
6239.467741
5757.987109
5329.779574
4948.051661
4606.894184
4301.311498
4026.853091
3779.819164
3556.868768
3355.197203
3172.34437
3006.124118
2854.670753
2716.356593
2589.726557
)
;

boundaryField
{
    front_top
    {
        type            wedge;
    }
    front_middle
    {
        type            wedge;
    }
    front_bottom
    {
        type            wedge;
    }
    back_top
    {
        type            wedge;
    }
    back_middle
    {
        type            wedge;
    }
    back_bottom
    {
        type            wedge;
    }
    axis_top
    {
        type            symmetryPlane;
    }
    axis_middle
    {
        type            symmetryPlane;
    }
    axis_bottom
    {
        type            symmetryPlane;
    }
    wall_top
    {
        type            calculated;
        value           nonuniform 0();
    }
    wall_middle
    {
        type            calculated;
        value           uniform 2530.329233;
    }
    wall_bottom
    {
        type            calculated;
        value           nonuniform 0();
    }
    inlet
    {
        type            calculated;
        value           nonuniform 0();
    }
    outlet
    {
        type            calculated;
        value           nonuniform 0();
    }
    procBoundary4to3
    {
        type            processor;
        value           nonuniform List<scalar> 
51
(
169320.1965
167419.7297
163419.14
157684.324
150527.8668
142261.0149
133198.7364
123643.4596
113866.3105
104108.0894
94570.90745
85416.56052
76763.8191
68694.4676
61259.58547
54476.41489
48344.42573
42841.16665
42841.16665
36792.54159
32585.80825
28873.07554
25607.50123
22742.36854
20233.01881
18037.94097
16118.89466
14441.29767
12974.33403
11690.49215
10565.71744
9578.936984
8711.798206
7948.473047
7275.14174
6679.900311
6152.569804
5684.34376
5267.536543
4895.670469
4563.061096
4264.853538
3996.817134
3755.348908
3537.238659
3339.804145
3160.635381
2997.637697
2849.015266
2713.179811
2588.730396
)
;
    }
    procBoundary4to5
    {
        type            processor;
        value           nonuniform List<scalar> 
51
(
284245.7773
282272.2237
278086.1113
271999.0976
264239.2695
255037.068
244636.4759
233256.8683
221132.581
208468.9766
195476.2755
182335.4507
169214.652
156265.0473
143618.6681
131387.501
119664.4019
108522.8272
98018.71653
88190.26477
79061.33699
70639.88468
62920.32681
55888.50598
49518.59923
43779.1061
38633.98784
34041.99384
29960.54294
26346.67851
23157.69996
20351.79312
17889.32752
15732.91482
13847.90332
11609.04652
11609.04652
10269.92268
9102.968617
8086.035731
7199.680109
6426.769582
5752.425781
5163.432337
4648.401637
4197.43605
3801.970763
3454.521267
3148.637459
2878.709688
2639.886147
)
;
    }
}


// ************************************************************************* //
