/*--------------------------------*- C++ -*----------------------------------*\
  =========                 |
  \\      /  F ield         | OpenFOAM: The Open Source CFD Toolbox
   \\    /   O peration     | Website:  https://openfoam.org
    \\  /    A nd           | Version:  7
     \\/     M anipulation  |
\*---------------------------------------------------------------------------*/
FoamFile
{
    version     2.0;
    format      ascii;
    class       volScalarField;
    location    "0.0018";
    object      generalizedNewtonian:nu;
}
// * * * * * * * * * * * * * * * * * * * * * * * * * * * * * * * * * * * * * //

dimensions      [0 2 -1 0 0 0 0];

internalField   nonuniform List<scalar> 
1167
(
0.7601045447
0.7949570238
0.7881056323
0.7883162058
0.7783426919
0.7671469229
0.7541860134
0.7393741596
0.7230393141
0.705501307
0.6870331814
0.6678871931
0.6482950214
0.6284679177
0.6085878525
0.5888132625
0.569277181
0.55008808
0.5313316873
0.5130760615
0.495362848
0.4782208118
0.4616644554
0.4456889813
0.4302807027
0.4154145795
0.4010536741
0.3871509071
0.3736511214
0.3604892218
0.347589168
0.33486788
0.3222305619
0.3095755333
0.2967944555
0.2837779705
0.2704255554
0.2566631429
0.2424620602
0.2278676231
0.2130164764
0.1981342862
0.1835094874
0.1694414049
0.1561798526
0.1438760017
0.1325592927
0.1221475288
0.1124801932
0.1033641824
0.09466253739
0.8564546528
0.848972499
0.8488652263
0.8376156384
0.8248718632
0.8100988386
0.7932170123
0.7745928606
0.7545855514
0.7335038964
0.7116321571
0.6892306312
0.6665349565
0.6437496106
0.6210487526
0.5985833455
0.576468571
0.5548042689
0.5336598
0.513085793
0.4931169872
0.4737681246
0.4550423662
0.4369328817
0.4194185459
0.4024712615
0.3860571551
0.3701311054
0.3546427449
0.3395357583
0.3247444467
0.3101983155
0.2958187504
0.2815228639
0.2672240426
0.2528395909
0.2383005136
0.2235717261
0.2086713987
0.1936993772
0.1788484906
0.1643907782
0.15064215
0.1379170842
0.1265011634
0.1166532292
0.1086218003
0.1026406699
0.09887059843
0.09720197411
0.9567095244
0.9480581129
0.9474491982
0.9342777158
0.919276724
0.9018711661
0.8820063847
0.8601110049
0.8366115046
0.8118782511
0.7862517779
0.760043577
0.7335330648
0.7069679859
0.6805536446
0.65446597
0.6288447221
0.6037996188
0.5794118962
0.5557345034
0.5327966807
0.5106119601
0.4891701266
0.4684512196
0.4484236762
0.4290446651
0.4102678973
0.3920401255
0.3743036951
0.357000566
0.3400669997
0.3234383026
0.3070473358
0.2908240567
0.274699093
0.2586031658
0.2424773376
0.2262808808
0.2100102378
0.1937244164
0.1775668954
0.1617765948
0.1466593837
0.1325127351
0.1195163652
0.1076286751
0.09656994646
0.0859816392
0.07571799652
0.06596536537
1.115996433
1.105854419
1.104554205
1.088315809
1.069686131
1.048076291
1.023486803
0.9964698848
0.9675693727
0.9372622031
0.9059828616
0.8741235968
0.8420287909
0.8099959459
0.7782701503
0.7470410255
0.7164558292
0.6866177492
0.6575867946
0.6293937258
0.6020343737
0.5754900425
0.5497228063
0.5246874704
0.5003378284
0.4766245009
0.4535060308
0.4309416047
0.408896203
0.3873360101
0.3662251295
0.3455279107
0.3251987586
0.3051895771
0.2854438064
0.2659031871
0.2465094643
0.2272175164
0.2080054873
0.1888994258
0.1699993094
0.151512701
0.133773646
0.1172206843
0.1023399207
0.08964118383
0.07976699827
0.07367146467
0.07258678848
0.07745851438
1.359816761
1.346999927
1.344294907
1.323091755
1.298652833
1.270341512
1.23822543
1.203056161
1.165557224
1.12636826
1.086066234
1.045164744
1.004107067
0.963267003
0.9229498623
0.883399279
0.8448028257
0.8073000786
0.7710041346
0.7360000227
0.7023520024
0.6701180748
0.6393350198
0.6100325354
0.5822091496
0.5558464324
0.5308832416
0.5072294579
0.4847514742
0.4632843125
0.4426252576
0.4225498829
0.4028128729
0.3831664816
0.363367935
0.3432006195
0.3224816
0.3010782182
0.2789067791
0.2559398626
0.232204106
0.2078058063
0.1829796402
0.1581171002
0.1337437535
0.1104967801
0.0888989984
0.06854102529
0.04828544719
0.0296784337
1.677961457
1.661734794
1.65607952
1.626688086
1.592827907
1.553743425
1.509813638
1.462237129
1.41210951
1.360377243
1.307875934
1.25532381
1.203321391
1.152364003
1.102856377
1.055132493
1.009466453
0.9660892172
0.925205087
0.8869793002
0.8515267977
0.8189144447
0.7891284623
0.762080203
0.737587757
0.7153928215
0.6951628814
0.6765192832
0.6590521844
0.6423415138
0.6259545468
0.6094437328
0.5923151149
0.5740170758
0.5539307468
0.5314172572
0.5058919402
0.4769432218
0.4444583757
0.408714563
0.3703293
0.3299643292
0.2879238788
0.24411156
0.1988341142
0.1539404325
0.1125227602
0.07656330387
0.04649510414
0.02462438936
2.017728
1.997108331
1.988483781
1.95135574
1.908760012
1.859782732
1.805154146
1.746542743
1.685461148
1.623184958
1.560834489
1.499375142
1.439631227
1.38231476
1.328047151
1.277357165
1.230677326
1.188318934
1.150433391
1.11692629
1.087429465
1.061239509
1.037293788
1.014188127
0.9902328179
0.9636145469
0.9325934267
0.8958007686
0.8525131086
0.8028734965
0.7479293096
0.6894575992
0.6295758271
0.5702902113
0.5131413748
0.4590602372
0.4084216175
0.3612141369
0.3172226567
0.2761609127
0.2377399053
0.2017397682
0.1681372635
0.1372625427
0.1097886651
0.08649588354
0.06803834739
0.05486244622
0.04701598502
0.0438609313
2.486708919
2.459541656
2.443539764
2.39096221
2.330509398
2.261761959
2.1863411
2.106864333
2.025657788
1.944685192
1.865623662
1.78990096
1.718702819
1.652960908
1.593286061
1.539902485
1.492554818
1.450435669
1.412116286
1.375592697
1.33843678
1.298050598
1.25210346
1.198939323
1.137983754
1.069873925
0.9963361166
0.9197510972
0.8426584667
0.7672787761
0.6952902621
0.6277634407
0.5652500477
0.5078755409
0.4554481321
0.4075392584
0.3635743415
0.3229201784
0.2849777529
0.2492673053
0.215525681
0.1837967299
0.1544670468
0.1281480156
0.1054062347
0.08645989649
0.0710389558
0.05851780678
0.04823568518
0.03967960048
3.168909969
3.13112321
3.10313905
3.027429388
2.940910176
2.844387029
2.741190559
2.635649035
2.531501447
2.431783461
2.33885012
2.254291246
2.178795917
2.111982475
2.052237478
1.996666083
1.94124076
1.881239961
1.812048199
1.730257993
1.634650185
1.5267186
1.410309487
1.290500619
1.172263219
1.059453974
0.954449233
0.8582896091
0.7710683559
0.692325904
0.6213400046
0.5573195065
0.4994851634
0.4471083969
0.3994983437
0.3560072549
0.3160277067
0.2790357361
0.2446348215
0.2126184296
0.1829969958
0.1559794853
0.1318692945
0.110922011
0.09323266562
0.07871342384
0.06715074439
0.05826411958
0.05171004948
0.04702474608
4.1849237
4.129710184
4.078807724
3.963590069
3.834338279
3.695389086
3.553570797
3.415986163
3.287637067
3.171163989
3.066687348
2.971669956
2.881010287
2.787574801
2.683389328
2.561554283
2.418397912
2.254949369
2.076864059
1.892586916
1.710717686
1.538032213
1.378650818
1.2343421
1.105188456
0.9903045484
0.8883075459
0.7976687903
0.7168748625
0.6445553471
0.5795107159
0.5207310613
0.467372233
0.4187253687
0.3741857548
0.3332290391
0.2954133041
0.2603993524
0.2279886451
0.1981419106
0.1709634162
0.1466302964
0.1252916445
0.1069815509
0.09157838133
0.0788208933
0.06835898338
0.05981329264
0.0528083844
0.04695980448
5.785766823
5.699225491
5.604775139
5.425384898
5.233927555
5.041130935
4.856498712
4.685152345
4.525157082
4.368390041
4.202426009
4.013641936
3.791614398
3.53347287
3.24590624
2.943146296
2.641734616
2.355503994
2.093090834
1.858057328
1.650434056
1.468291225
1.308855613
1.169189441
1.046511627
0.9383443416
0.842532164
0.7572354672
0.6808977709
0.6122146948
0.5501112226
0.4937012081
0.4422666839
0.3952121127
0.352050768
0.3123817317
0.2758971224
0.2423903753
0.2117669186
0.1840256593
0.1592174112
0.1373768804
0.1184686411
0.1023587487
0.08882403964
0.07758528394
0.06834395589
0.0608077571
0.05469578575
0.0497140198
8.529905383
8.394745474
8.22979166
7.959269
7.681010039
7.399276467
7.106015312
6.783154013
6.408886122
5.969203045
5.467841364
4.927773419
4.382505246
3.863176186
3.39013977
2.97185064
2.608266866
2.294868803
2.025419497
1.793468947
1.593124758
1.419260707
1.267579376
1.13451229
1.017140146
0.9130570504
0.8202924419
0.7372097298
0.6624593587
0.5949117448
0.5336387997
0.4778727308
0.4269849844
0.3804617838
0.337886779
0.29893397
0.2633624201
0.2310178979
0.2018154875
0.1757109735
0.1526568883
0.1325618758
0.1152685186
0.1005514565
0.08813697986
0.07772803955
0.06902785506
0.06175558472
0.05564871533
0.05044982161
14.02380343
13.79834099
13.41829141
12.83956991
12.13428215
11.27658672
10.26806609
9.154884181
8.017784095
6.938402133
5.970219712
5.13309509
4.423624531
3.827456541
3.327222379
2.906360608
2.550519678
2.247851308
1.988698468
1.765310133
1.571492475
1.402273335
1.253673386
1.122465515
1.006049472
0.9022840984
0.8094142577
0.7259791754
0.6507603853
0.5827372634
0.5210561164
0.4650111222
0.4140146527
0.367591527
0.3253557803
0.2870079496
0.2523195655
0.2211234461
0.1932857787
0.1686794275
0.1471519046
0.1285098909
0.112515251
0.09889556649
0.08736332942
0.07763408336
0.06944043614
0.06253995832
0.05671359133
0.05175000551
25.54152514
24.68735877
22.61011127
19.91884419
16.99940083
14.23169966
11.83299604
9.852093073
8.248795526
6.956892953
5.912465915
5.062271814
4.364320895
3.786156787
3.302863962
2.895325469
2.548853317
2.252054275
1.995995053
1.773662155
1.579470176
1.408955312
1.258505503
1.125179235
1.006564255
0.9006623628
0.8058039063
0.7205949815
0.643853487
0.5745894282
0.5119626427
0.4552762551
0.403947754
0.3575002386
0.3155456627
0.2777691076
0.2439142425
0.2137617872
0.1871067714
0.1637359676
0.1434127617
0.1258741993
0.1108350056
0.09800078881
0.0870817832
0.07780418512
0.06991733751
0.06319739016
0.05744370904
0.05246713658
34.81828334
31.59344294
26.58011791
21.62715691
17.48546703
14.22145503
11.68817001
9.713987284
8.157839693
6.914964027
5.90950727
5.08639949
4.405183524
3.83573463
3.355363272
2.946808078
2.596810417
2.294983571
2.03314581
1.804799109
1.604694314
1.428595784
1.273008647
1.13506709
1.012377011
0.9029472631
0.8050879072
0.7173844439
0.6386305678
0.5678081485
0.5040561782
0.4466504574
0.3949860923
0.3485564113
0.3069418774
0.2697826652
0.2367674542
0.2076069046
0.1820203216
0.1597186475
0.1404017398
0.123760854
0.1094846404
0.09727132352
0.08683723256
0.0779233076
0.07029822953
0.06375942686
0.05812841608
0.0532387636
34.79962296
31.00535008
25.96723503
21.15517217
17.22567095
14.1354539
11.71719399
9.811292823
8.291650984
7.064422668
6.061194967
5.231964975
4.539739084
3.956736725
3.461837454
3.038811955
2.674976277
2.360296584
2.086795478
1.848022613
1.63872969
1.454619928
1.292124182
1.148283734
1.020614242
0.907029873
0.8057635177
0.71532072
0.6344342099
0.562024354
0.4971817318
0.4391317755
0.3872236902
0.3409013449
0.2996902083
0.2631698263
0.2309600698
0.2027005559
0.1780421976
0.156636108
0.1381378471
0.1222102051
0.1085296027
0.09679425008
0.08672876182
0.07808671601
0.07065126738
0.06423397028
0.05866958319
0.0538055196
34.36159545
30.72594045
25.90216493
21.29437633
17.49078265
14.46180867
12.06091921
10.14574002
8.6027386
7.345679898
6.310428531
5.449418194
4.727024029
4.116211673
3.596240277
3.150924919
2.767477195
2.435711541
2.147450466
1.896002827
1.675907941
1.482641352
1.312446417
1.162177983
1.029200422
0.911282703
0.8065440649
0.7133811395
0.6304411677
0.5565643994
0.4907709545
0.4322227852
0.3802035633
0.3340944303
0.2933517127
0.2574864755
0.2260476591
0.1986099041
0.1747662187
0.1541237312
0.1363080883
0.1209655524
0.107768259
0.09641850594
0.08665034169
0.0782293885
0.07095197936
0.06464259369
0.05914845795
0.05432936723
31.887886
29.32508349
25.45987193
21.42150963
17.86051714
14.91093734
12.51450878
10.57004622
8.983937051
7.680060918
6.599099953
5.695663883
4.935011621
4.290362983
3.740830589
3.269893357
2.864399813
2.513814226
2.209553905
1.944578925
1.713112738
1.510337817
1.332256012
1.175494602
1.037235521
0.9150805002
0.8070115875
0.7113057147
0.626502547
0.5513547142
0.4847963038
0.4259141028
0.3739147834
0.3281072822
0.2878734258
0.2526550892
0.221935302
0.1952332044
0.1720963115
0.1521003612
0.134851988
0.1199889366
0.1071837551
0.09614469735
0.08661497757
0.07837057656
0.07121841077
0.06499274922
0.05954973666
0.05475802492
28.44074962
26.94682803
24.31772202
21.15521858
18.04466871
15.28181063
12.93915511
10.98715248
9.366735574
8.018703911
6.892070724
5.945288876
5.145257808
4.465688482
3.885639651
3.388326472
2.960258881
2.590495155
2.270021663
1.99143555
1.748603332
1.536410538
1.350581352
1.187518637
1.044194341
0.9180430763
0.8068919351
0.7088930588
0.6224679836
0.5462716282
0.4791431651
0.4200851872
0.3682216535
0.3227841222
0.2830815568
0.2484897803
0.2184347075
0.1923900671
0.1698688962
0.1504254237
0.13365463
0.1191911942
0.1067106746
0.09592805192
0.0865950259
0.07849690053
0.07144967376
0.06529599876
0.0598997287
0.05513703725
25.2357592
24.38661011
22.73663143
20.46529171
17.94114317
15.48351382
13.26825018
11.34978081
9.717643114
8.337925621
7.172485312
6.186180057
5.348899881
4.635618428
4.025783126
3.502595724
3.052358145
2.663739552
2.327355033
2.035462048
1.781572657
1.560279438
1.367025601
1.197987476
1.049922164
0.9200909689
0.8061604686
0.7061513775
0.6183613402
0.5413380099
0.4738229102
0.41472596
0.3630893477
0.3180663039
0.2788981879
0.2449008373
0.2154530219
0.1899920578
0.1680061557
0.1490353616
0.1326681632
0.1185395698
0.1063295327
0.09575984202
0.08658989914
0.07861305263
0.07165284684
0.06555869903
0.06020051444
0.05546036103
22.67359086
22.15216441
21.11046615
19.52821338
17.5807829
15.49675741
13.47667552
11.63799078
10.02225843
8.627426866
7.432950521
6.412929218
5.54192473
4.797148998
4.159006558
3.611026526
3.139415217
2.732578183
2.380847424
2.076139336
1.811655056
1.581695902
1.381433635
1.206815934
1.054385953
0.9212248084
0.8048393188
0.7031065482
0.6142019679
0.5365577412
0.4688166552
0.4097943238
0.3584522118
0.3138693456
0.2752258601
0.2417859052
0.2128899713
0.1879470017
0.1664279946
0.1478641544
0.1318411086
0.1179961517
0.1060142946
0.09562390296
0.08659131671
0.07871689255
0.07183062852
0.06578768058
0.06046308713
0.05574388037
20.70965776
20.35263787
19.65760416
18.53410515
17.05605952
15.34423085
13.56060233
11.84313296
10.27328767
8.881993846
7.669809406
6.622937883
5.722451069
4.948890979
4.284287975
3.712844263
3.220844733
2.796580581
2.430182911
2.113259169
1.838731448
1.600607649
1.3938104
1.214043873
1.057650649
0.9215204894
0.8030024816
0.6998248042
0.6100382669
0.5319577185
0.4641266237
0.4052682377
0.3542672012
0.3101344851
0.271996505
0.2390740229
0.2106771969
0.1861936649
0.1650827454
0.146870728
0.1311428311
0.1175397864
0.1057518838
0.09551365118
0.08659762688
0.07881024232
0.07198697707
0.06598778459
0.06069193898
0.05599055753
19.21055503
18.94007128
18.44133063
17.60385493
16.46596754
15.07431326
13.53302976
11.96420814
10.46672855
9.098108573
7.880598972
6.814560841
5.889347186
5.090068085
4.401110242
3.80765509
3.296353465
2.855565252
2.475249149
2.146768746
1.862794467
1.617049697
1.404214447
1.219751346
1.059802129
0.9210638151
0.8007252522
0.6963646992
0.605906957
0.5275512495
0.459741619
0.4011159205
0.3504850974
0.3068016488
0.2691444517
0.2366995931
0.2087534807
0.1846781295
0.163925438
0.1460192459
0.1305463024
0.1171513398
0.105529901
0.09542203708
0.08660598278
0.07889343299
0.07212457919
0.06616347581
0.06089300865
0.05620776186
0.2666166214
0.2346111852
0.2070717556
0.1833597505
0.1629227058
0.1452837881
0.130032473
0.1168177486
0.1053402146
0.09534497891
0.08661535549
0.07896764274
0.07224610046
0.06631829074
0.06107016689
0.05639924608
)
;

boundaryField
{
    front_top
    {
        type            wedge;
    }
    front_middle
    {
        type            wedge;
    }
    front_bottom
    {
        type            wedge;
    }
    back_top
    {
        type            wedge;
    }
    back_middle
    {
        type            wedge;
    }
    back_bottom
    {
        type            wedge;
    }
    axis_top
    {
        type            symmetryPlane;
    }
    axis_middle
    {
        type            symmetryPlane;
    }
    axis_bottom
    {
        type            symmetryPlane;
    }
    wall_top
    {
        type            calculated;
        value           nonuniform 0();
    }
    wall_middle
    {
        type            calculated;
        value           nonuniform List<scalar> 5(0.09067979478 0.09671652775 0.06176265741 0.08032044005 0.0237416434);
    }
    wall_bottom
    {
        type            calculated;
        value           nonuniform List<scalar> 
19
(
0.01895625068
0.04327617336
0.03624569901
0.04515103925
0.04444526771
0.04757030329
0.04816641681
0.04956300571
0.05025729178
0.05106106255
0.05163104581
0.05217010889
0.05260625755
0.05299475246
0.05332504849
0.05361542603
0.05386790047
0.05409048933
0.0542867952
)
;
    }
    inlet
    {
        type            calculated;
        value           nonuniform 0();
    }
    outlet
    {
        type            calculated;
        value           nonuniform 0();
    }
    procBoundary2to1
    {
        type            processor;
        value           nonuniform List<scalar> 
51
(
18.05586314
17.83451854
17.45048527
16.7890339
15.88337124
14.74144919
13.41941924
12.00810125
10.60213904
9.273646253
8.063379089
6.986403198
6.041734075
5.220182998
4.509117141
3.895210545
3.365790058
2.909443403
2.516019314
2.176700317
1.88390754
1.631111627
1.412749369
1.224049062
1.060947555
0.9199530165
0.7980880422
0.6927867888
0.601843431
0.5233492038
0.4556506557
0.3973074589
0.347063389
0.3038202866
0.3038202866
0.2643658579
0.2327641106
0.205592087
0.1822045317
0.16204686
0.1446429448
0.1295856041
0.116528168
0.1051760334
0.09527892094
0.08662468304
0.07903366728
0.07235367721
0.06645531153
0.06122716999
0.05656928828
)
;
    }
    procBoundary2to3
    {
        type            processor;
        value           nonuniform List<scalar> 
51
(
0.7454594839
0.7537217857
0.7537217857
0.7542307858
0.7451120569
0.7349634044
0.7232331325
0.7098331603
0.6950669546
0.6792297628
0.6625715665
0.6453234406
0.627697456
0.609886622
0.5920574447
0.5743539187
0.5568949552
0.5397795313
0.5230820575
0.5068602919
0.491150408
0.4759720487
0.4613300304
0.4472160553
0.4336064946
0.4204664225
0.4077507994
0.3954024271
0.3833521341
0.3715216982
0.3598213303
0.3481491575
0.3363966266
0.3244438637
0.3121711299
0.2994601546
0.286214295
0.2723727392
0.2579363036
0.2429904563
0.2277132214
0.212367066
0.1972660038
0.1827294533
0.1690386795
0.1564114061
0.1449987996
0.1348996091
0.1261748599
0.1188445945
0.1128073333
)
;
    }
}


// ************************************************************************* //
