/*--------------------------------*- C++ -*----------------------------------*\
  =========                 |
  \\      /  F ield         | OpenFOAM: The Open Source CFD Toolbox
   \\    /   O peration     | Website:  https://openfoam.org
    \\  /    A nd           | Version:  7
     \\/     M anipulation  |
\*---------------------------------------------------------------------------*/
FoamFile
{
    version     2.0;
    format      ascii;
    class       volTensorField;
    location    "0.0018";
    object      grad(U);
}
// * * * * * * * * * * * * * * * * * * * * * * * * * * * * * * * * * * * * * //

dimensions      [0 0 -1 0 0 0 0];

internalField   nonuniform List<tensor> 
1167
(
(-44.55121549 -1.116635157e-12 3.093141945 -3.757865149e-13 -72.58009714 0 -0.66216627 1.540524848e-13 120.7788197)
(-41.66130093 3.397709502e-14 2.844105749 2.84851248e-12 -67.82616779 -5.208708536e-11 -1.115984719 4.296275198e-13 112.9320609)
(-55.45600854 1.792603613e-14 6.921016769 8.343754997e-13 -59.4928054 0 -3.291581686 -1.500365389e-14 112.9965369)
(-54.77535819 -4.555604372e-14 11.38888399 6.86020423e-13 -56.97095781 0 -5.157670482 -4.306353097e-13 113.1649877)
(-56.24334183 2.791918343e-14 15.8098538 5.037752218e-13 -56.60371496 0 -6.989677263 -5.756310945e-13 113.4252679)
(-56.75945613 -1.333702093e-13 20.27200563 4.028645851e-13 -56.57566962 3.222916681e-12 -8.776772839 -5.575466182e-13 113.7637371)
(-57.08614603 -3.236870894e-13 24.79640648 3.389116356e-13 -56.61339954 0 -10.4625502 -4.060247523e-13 114.1679702)
(-57.46326194 -7.918557821e-14 29.41427609 1.474291493e-13 -56.69206031 -2.358866388e-12 -12.02319938 -3.248027539e-13 114.6267813)
(-57.87369582 1.062278292e-13 34.15290608 2.627470945e-13 -56.80093001 0 -13.44859463 -1.949148011e-13 115.128194)
(-58.2951192 1.421119844e-13 39.04074639 2.383663752e-13 -56.9304788 0 -14.72864859 -1.319674656e-13 115.6584993)
(-58.71800181 1.646729034e-13 44.10802248 2.192783525e-13 -57.07423014 0 -15.85254048 -1.084617485e-13 116.2019674)
(-59.13096271 4.103387544e-14 49.38571384 1.019871079e-13 -57.22743173 1.631793726e-12 -16.81009225 -1.136881251e-13 116.7406088)
(-59.51829514 -6.189123011e-14 54.90500696 0 -57.38592156 0 -17.59208713 -6.221308766e-14 117.2538978)
(-59.86103333 -3.537056597e-16 60.69688481 0 -57.54564619 0 -18.19024285 -1.175675096e-13 117.7185167)
(-60.13734585 2.643013622e-14 66.7916897 0 -57.7024676 0 -18.59725523 -1.419227017e-13 118.1081253)
(-60.32234164 -1.16977367e-13 73.21854528 0 -57.85205021 0 -18.80699031 -6.878689876e-14 118.3930686)
(-60.38783939 -3.055597906e-13 80.00484215 3.173359286e-13 -57.98978394 6.346718572e-13 -18.81485176 -7.024217987e-14 118.5402091)
(-60.30242919 -3.086824814e-13 87.17547337 3.06438062e-13 -58.11073149 0 -18.61796288 -9.119238096e-14 118.5128317)
(-60.03122645 -1.883785161e-13 94.75224963 2.969970754e-13 -58.20961549 0 -18.2156409 -1.159958622e-13 118.2704793)
(-59.5358039 -1.645548777e-13 102.7531614 1.443909124e-13 -58.28077943 0 -17.60993878 -7.608608465e-14 117.768998)
(-58.77471276 -2.222068687e-13 111.1917093 4.224130573e-13 -58.31819393 5.632174098e-13 -16.80591683 -5.397199747e-14 116.9606102)
(-57.70315199 -2.936137013e-13 120.0765841 1.376650321e-13 -58.31548312 0 -15.81249468 1.615347398e-14 115.7939247)
(-56.2730991 -2.50985446e-13 129.410986 1.349129116e-13 -58.26590718 -5.396516466e-13 -14.64315968 6.032867907e-14 114.2143203)
(-54.43418302 -4.942822259e-14 139.1924278 -1.324986909e-13 -58.16240147 -5.299947637e-13 -13.31640603 1.880472151e-14 112.1642465)
(-52.13371144 1.171396384e-13 149.4129041 -1.303815106e-13 -57.99762476 -5.215260422e-13 -11.85668145 -2.444341311e-14 109.5835618)
(-49.31696446 1.792352522e-13 160.0590709 0 -57.76398505 0 -10.29523349 -9.2061033e-14 106.4101449)
(-45.92809789 1.012530657e-13 171.113051 2.538142945e-13 -57.45369207 5.07628589e-13 -8.670637124 -1.109010123e-13 102.5804216)
(-41.91053739 -4.779667048e-15 182.5540549 -1.254968989e-13 -57.0588239 -5.019875957e-13 -7.029553933 -1.064672172e-13 98.02979004)
(-37.2070519 1.456356486e-14 194.3603725 0 -56.57137819 0 -5.427560015 -1.535265821e-13 92.69306747)
(-31.76011408 5.776214826e-15 206.5124879 0 -55.9833179 0 -3.929658876 -1.56911005e-13 86.50464173)
(-25.51162009 8.58952755e-14 218.9975102 -1.223320753e-13 -55.28662159 -4.89328301e-13 -2.610899883 -1.910944906e-13 79.39809279)
(-18.4017376 2.081361563e-13 231.8146992 0 -54.47329657 0 -1.557252142 -2.357061166e-13 71.30527674)
(-10.36726324 1.986879668e-13 244.9828431 0 -53.5353616 0 -0.8663917914 -2.302771556e-13 62.15438487)
(-1.338533367 2.464535506e-13 258.5493712 -1.204622605e-13 -52.46478806 -2.409245211e-13 -0.649054641 -2.27164744e-13 51.86676427)
(8.765037454 3.035900955e-13 272.6011759 0 -51.2533662 0 -1.03088884 -2.498774852e-13 40.35224484)
(20.04075184 2.92465636e-13 287.2765479 0 -49.89250162 0 -2.15502851 -2.769899718e-13 27.50282639)
(32.60951451 1.624777627e-13 302.7754793 1.19609798e-13 -48.37292166 2.39219596e-13 -4.185480855 -2.400469171e-13 13.18553344)
(46.62197501 7.166375342e-14 319.365373 0 -46.6843113 0 -7.310796924 -2.365127589e-13 -2.764488566)
(62.26171899 1.757657755e-13 337.3763464 -1.195113905e-13 -44.81493028 -2.390227811e-13 -11.74715336 -2.834587716e-13 -20.54756653)
(79.74136108 1.49834145e-13 357.178013 1.195870339e-13 -42.75129454 2.391740679e-13 -17.73878924 -3.110761265e-13 -40.39532685)
(99.28747872 1.977349056e-13 379.1361474 -1.197401202e-13 -40.47808365 -2.394802404e-13 -25.55310446 -3.368175805e-13 -62.55519353)
(121.1134086 2.203688822e-13 403.5539275 1.199668981e-13 -37.97843176 4.798675924e-13 -35.46831289 -3.437552906e-13 -87.2618795)
(145.3836683 2.069386958e-13 430.6116749 -6.013201603e-14 -35.23471104 -1.202640321e-13 -47.75318867 -3.239648216e-13 -114.6995037)
(172.1823635 3.072258112e-13 460.3344866 0 -32.22977259 0 -62.64260852 -3.770398445e-13 -144.9669304)
(201.5035547 4.080970825e-13 492.6265343 -6.052888362e-14 -28.94834901 -1.210577672e-13 -80.31577814 -4.391946042e-13 -178.066888)
(233.2752723 5.342116967e-13 527.4131169 0 -25.3781209 0 -100.8808462 -4.583839837e-13 -213.9424016)
(267.4245827 4.956781286e-13 564.9103824 0 -21.50999587 1.221011315e-13 -124.3678279 -4.072094799e-13 -252.569838)
(304.0705973 3.657370735e-13 605.9530121 3.067781482e-14 -17.3371268 6.135562963e-14 -150.7841274 -3.231852241e-13 -294.0642934)
(344.0393012 3.378437818e-13 652.2011345 0 -12.8501618 0 -180.3714069 -2.777864911e-13 -338.7000073)
(389.6009842 4.054760865e-13 706.0860865 0 -8.023946054 0 -214.0330521 -2.670778067e-13 -386.8239244)
(435.6057045 4.642139996e-13 774.9898673 0 -2.797224898 0 -248.0962471 -2.855895978e-13 -441.480667)
(-37.41568773 3.874959412e-13 2.519320953 3.536898886e-12 -60.9019176 0 -1.497423718 -4.503085618e-13 101.5621007)
(-49.82907081 5.099136533e-13 6.19288934 9.065131614e-13 -53.42592602 0 -4.249943558 -5.134737611e-13 101.667134)
(-49.28429025 3.737576643e-13 10.21681708 3.726658697e-13 -51.178627 0 -6.676537578 -4.628900174e-13 101.9310857)
(-50.72019229 3.343310641e-13 14.18047567 2.736650757e-13 -50.88126622 0 -9.093979104 -3.526741085e-13 102.3336354)
(-51.34397925 -1.040808118e-13 18.18939531 0 -50.90502053 0 -11.47007242 -2.07417582e-13 102.8608705)
(-51.83193065 -6.134485161e-13 22.26311304 2.761597071e-13 -51.00090151 2.945703543e-12 -13.74752404 -2.247007568e-13 103.5014018)
(-52.40196695 -6.209926792e-13 26.43014514 3.203508834e-13 -51.14541731 0 -15.90540541 -2.976362914e-13 104.24586)
(-53.04072099 -4.553755144e-13 30.71825622 4.281951577e-13 -51.32873596 2.283707508e-12 -17.93527768 -2.60180284e-13 105.0847078)
(-53.72899674 -2.21924235e-13 35.15715476 2.589748338e-13 -51.54219123 0 -19.82818753 -1.970669249e-13 106.0073088)
(-54.45951643 -4.304077689e-14 39.77887665 1.191182582e-13 -51.77992334 -1.905892131e-12 -21.57424396 -1.380769385e-13 107.001689)
(-55.22381744 6.492457883e-16 44.6171218 1.108046145e-13 -52.03770626 -1.772873833e-12 -23.16381302 -7.01748737e-14 108.054332)
(-56.00986583 1.181308722e-13 49.70696148 1.040120491e-13 -52.31191629 0 -24.58769479 -5.235672157e-14 109.1498943)
(-56.80296931 2.015580149e-13 55.08460239 2.951316596e-13 -52.59908679 0 -25.83694907 -3.760566046e-14 110.2709209)
(-57.58617329 3.657988326e-15 60.78727144 2.809335035e-13 -52.8957254 0 -26.9028611 2.780603384e-14 111.3975112)
(-58.33978918 -8.420208938e-14 66.85292263 2.688865058e-13 -53.19821307 0 -27.77699826 3.535573765e-14 112.5070168)
(-59.04124981 -5.454398595e-14 73.31977676 2.585788964e-13 -53.50269605 0 -28.45128793 2.460757995e-15 113.5737002)
(-59.66499726 -8.046935632e-14 80.22614006 3.329318015e-13 -53.80505497 0 -28.91806807 -2.801744893e-14 114.5684289)
(-60.18176126 -1.591315027e-13 87.61002172 4.840118578e-13 -54.10085111 6.453491437e-13 -29.17037503 -3.18758811e-16 115.4581805)
(-60.55854705 -2.559934925e-13 95.50864674 1.56874528e-13 -54.38526604 0 -29.20206337 3.501379866e-14 116.2057492)
(-60.75815553 -3.288128155e-13 103.9582738 3.059557684e-13 -54.65309294 0 -29.00816119 6.173732604e-14 116.7691555)
(-60.73846849 -3.948046845e-13 112.9937411 1.495671465e-13 -54.89867379 0 -28.58545822 6.250521427e-14 117.1012203)
(-60.45240787 -3.290827372e-13 122.6480873 1.46577087e-13 -55.11586449 -5.863083478e-13 -27.93288263 1.810437318e-14 117.1491015)
(-59.84719579 -1.355193278e-13 132.952325 0 -55.29801056 -5.758165631e-13 -27.05233074 -5.124931955e-14 116.8537128)
(-58.8637885 1.005687456e-13 143.9350499 1.416539141e-13 -55.43789098 -5.666156563e-13 -25.94964681 -1.168154228e-13 116.1493207)
(-57.43685638 2.445051896e-13 155.6224108 1.396393274e-13 -55.52768901 0 -24.63552811 -1.679501968e-13 114.963089)
(-55.49412338 2.95686182e-13 168.0381223 0 -55.55897134 0 -23.12683619 -1.985588575e-13 113.2146447)
(-52.9558419 3.39935428e-13 181.2038476 0 -55.52264642 0 -21.4481761 -2.402774465e-13 110.8157378)
(-49.73471683 2.672715691e-13 195.1402514 1.350202697e-13 -55.40894162 5.400810789e-13 -19.63342299 -2.375699604e-13 107.6698741)
(-45.73530225 1.755863244e-13 209.8684945 0 -55.20738754 0 -17.72750906 -2.257550416e-13 103.6718753)
(-40.85322514 1.488731487e-13 225.4130852 1.329085478e-13 -54.90678762 5.31634191e-13 -15.78859668 -2.496829177e-13 98.70723304)
(-34.97426282 1.513129828e-13 241.8060879 0 -54.49518808 0 -13.89027897 -2.254773766e-13 92.65110668)
(-27.97257148 1.595251903e-13 259.0931295 -1.314189822e-13 -53.95983221 0 -12.12415857 -1.918561368e-13 85.3666576)
(-19.70791414 1.192463983e-13 277.341999 1.308770759e-13 -53.28708115 0 -10.60300675 -1.625405934e-13 76.70239339)
(-10.02155585 1.71607283e-13 296.6540201 0 -52.46228905 0 -9.464423821 -1.935203478e-13 66.48809857)
(1.269671853 2.525487785e-13 317.1785432 0 -51.46961069 0 -8.875523795 -2.25269904e-13 54.52892928)
(14.3809513 2.827447558e-13 339.1292394 0 -50.29171999 0 -9.038592379 -2.291289283e-13 40.59770586)
(29.56782386 2.598278548e-13 362.7984738 1.298505238e-13 -48.90943845 2.597010476e-13 -10.19771643 -2.256839925e-13 24.42632639)
(47.13263746 3.484485368e-13 388.5633102 -1.298439963e-13 -47.30129385 -2.596879925e-13 -12.64561449 -2.66752553e-13 5.698925623)
(67.42358731 3.413099801e-13 416.8715409 2.598523566e-13 -45.44310158 5.197047132e-13 -16.72828017 -2.387397329e-13 -15.94811063)
(90.81892319 2.688239553e-13 448.1920595 -1.300925001e-13 -43.30775376 0 -22.84404828 -2.300507521e-13 -40.91022831)
(117.6877023 2.893166867e-13 482.923559 6.516944286e-14 -40.86548869 2.606777714e-13 -31.43162326 -2.427386796e-13 -69.57514368)
(148.3208208 2.280199928e-13 521.2667229 6.533085412e-14 -38.08498653 2.613234165e-13 -42.94098818 -2.210690685e-13 -102.2543911)
(182.8277139 2.454772701e-13 563.0694471 0 -34.93559854 0 -57.78017631 -2.162079012e-13 -139.0811938)
(220.987316 2.552774236e-13 607.6436824 6.576203315e-14 -31.39101542 1.315240663e-13 -76.22716141 -1.901988309e-13 -179.8685124)
(262.0368961 1.629447757e-13 653.5057971 6.602906621e-14 -27.43483903 0 -98.29775447 -1.167374129e-13 -223.9105872)
(304.4482595 1.24172213e-13 697.9436076 0 -23.06861242 0 -123.6052212 -8.51736989e-14 -269.7113071)
(345.9282583 1.577322307e-13 736.3837189 0 -18.32115306 0 -151.3623865 -1.065260816e-13 -314.68805)
(383.6844622 1.7845388e-13 762.0524591 0 -13.25354146 0 -180.5812631 -1.132319999e-13 -355.1720294)
(412.9134582 3.029873828e-13 768.1155092 -1.685366288e-14 -7.958899394 -3.370732576e-14 -209.3197154 -1.955263633e-13 -387.9001126)
(424.9177342 3.185529438e-13 754.122973 4.239754276e-15 -2.6033473 8.479508551e-15 -233.7492425 -1.91879208e-13 -413.9084119)
(-32.07045083 2.383241256e-13 2.131885718 -1.325670593e-12 -52.14660634 3.085197017e-11 -1.762825299 -3.499446064e-13 87.01872626)
(-42.76527746 -5.48589584e-14 5.293254522 -4.942132557e-13 -45.77509832 1.054321612e-11 -4.898301576 -3.239637078e-13 87.1425161)
(-42.38445415 -5.487974881e-13 8.746896956 -2.031701474e-13 -43.89180883 0 -7.715525052 -1.085338866e-13 87.4585416)
(-43.72866853 -6.120859044e-13 12.1265183 0 -43.68011581 0 -10.55036368 3.86960635e-14 87.93715897)
(-44.41885856 -2.456137026e-13 15.54757014 1.193114001e-13 -43.75389543 -3.817964805e-12 -13.35459428 1.231648906e-13 88.56474829)
(-45.03023657 8.194371529e-14 19.024892 2.007424987e-13 -43.90040224 0 -16.07427516 2.95326047e-14 89.33139941)
(-45.75115084 2.234279707e-14 22.58133297 0 -44.09974814 0 -18.69374083 -7.151622625e-14 90.22901888)
(-46.57192551 -2.620161576e-13 26.24171162 1.556290867e-13 -44.34383306 4.980130773e-12 -21.20849549 -1.575026812e-13 91.24966123)
(-47.47737135 -3.38216998e-13 30.03329945 1.411880171e-13 -44.62545127 2.259008274e-12 -23.61328594 -2.719069103e-13 92.38473742)
(-48.46291905 -2.871607451e-13 33.98572888 2.597637836e-13 -44.93975543 0 -25.90207001 -2.740839449e-13 93.624829)
(-49.52354545 -3.062900228e-13 38.13063201 2.416340396e-13 -45.28333381 0 -28.06909818 -2.274424626e-13 94.95950622)
(-50.65163893 -3.06230965e-13 42.50152987 2.268213441e-13 -45.6533392 0 -30.10902351 -1.770203008e-13 96.37710474)
(-51.8376765 -1.971444155e-13 47.13379178 2.145333491e-13 -46.04712075 0 -32.01671659 -1.564300626e-13 97.86451622)
(-53.07059582 -1.515640435e-14 52.06458417 0 -46.46205315 -1.633700848e-12 -33.78715996 -1.835448783e-13 99.40696515)
(-54.33764118 9.543728319e-16 57.33289319 9.772777798e-14 -46.89546298 1.563644448e-12 -35.41540402 -2.705232059e-13 100.9878601)
(-55.62407267 -1.249108784e-13 62.97934546 1.879628795e-13 -47.34455113 0 -36.89636854 -2.280679727e-13 102.5886091)
(-56.91316429 -2.415969541e-13 69.04635009 2.722618646e-13 -47.80634991 0 -38.22472437 -1.479217687e-13 104.1883615)
(-58.18582807 -2.503021702e-13 75.57818596 2.638738047e-13 -48.27769671 0 -39.39478895 -1.201880695e-13 105.7637783)
(-59.42029573 -2.064625176e-13 82.62101677 1.710498528e-13 -48.75518792 0 -40.40026257 -1.338496083e-13 107.2887482)
(-60.59188047 -1.57027602e-13 90.22324041 8.340055208e-14 -49.23515367 -1.334408833e-12 -41.23413588 -1.482489184e-13 108.7338923)
(-61.67223386 -1.226301458e-13 98.43561718 2.44623252e-13 -49.71362341 0 -41.88856817 -1.913233596e-13 110.0661005)
(-62.62868799 -1.257973372e-13 107.3116274 1.598219272e-13 -50.18626894 0 -42.35489035 -2.189181042e-13 111.2477474)
(-63.42356126 -6.161983465e-14 116.9078396 1.569619669e-13 -50.64835568 0 -42.62378446 -2.623916826e-13 112.2357869)
(-64.01287492 8.054529033e-14 127.2841665 0 -51.09467748 -1.235631121e-12 -42.68559769 -3.120409499e-13 112.9806142)
(-64.34514735 2.31508357e-13 138.5043738 1.522572624e-13 -51.5194645 0 -42.53105103 -3.418584469e-13 113.4245988)
(-64.35991373 2.291774412e-13 150.636502 3.006761049e-13 -51.91629439 6.013522097e-13 -42.15221432 -3.156830011e-13 113.500498)
(-63.98580762 1.58830248e-13 163.7532134 2.973348701e-13 -52.27797199 0 -41.54389057 -2.497604263e-13 113.1295661)
(-63.13898012 1.844573384e-13 177.9326078 1.472208219e-13 -52.59639702 0 -40.7052882 -2.097634372e-13 112.2194656)
(-61.72085515 2.326510949e-13 193.2593074 0 -52.86243494 0 -39.64226246 -1.955930531e-13 110.6618563)
(-59.61554091 1.1166067e-13 209.825814 1.44918284e-13 -53.06574887 5.796731358e-13 -38.37011382 -1.344460213e-13 108.3298082)
(-56.68745814 -6.681009176e-14 227.7350838 0 -53.19462915 0 -36.91666294 -7.548647678e-14 105.0746962)
(-52.77781579 -1.819163629e-14 247.1043161 -1.432941197e-13 -53.2358111 -5.731764787e-13 -35.32631056 -1.053131511e-13 100.7224696)
(-47.70037334 2.445744116e-13 268.0704535 -1.427032464e-13 -53.17424643 -5.708129857e-13 -33.66486245 -2.253706813e-13 95.06904652)
(-41.23599136 3.383885628e-13 290.7984829 1.422454386e-13 -52.99284993 5.689817542e-13 -32.02546403 -2.847444426e-13 87.87416457)
(-33.12507003 2.289431838e-13 315.4931736 0 -52.67217398 0 -30.5363246 -2.056334624e-13 78.85308779)
(-23.0574691 1.343596534e-13 342.4146657 1.416933935e-13 -52.19000158 2.833867869e-13 -29.37060358 -1.39002835e-13 67.66543298)
(-10.65899089 6.99623738e-14 371.8965787 0 -51.52081434 0 -28.7595932 -8.749400488e-14 53.9006625)
(4.524328461 2.004749871e-14 404.3633116 1.415768185e-13 -50.63510746 2.83153637e-13 -29.00949201 -4.205269541e-14 37.06033415)
(23.04179247 1.415280789e-13 440.3351819 -2.833328501e-13 -49.49857525 -8.499985502e-13 -30.5221658 -5.990006004e-14 16.54043407)
(45.54639159 3.384122235e-13 480.4010104 0 -48.07122688 0 -33.81829907 -1.569810842e-13 -8.378377847)
(72.7829755 2.788202114e-13 525.1313996 1.421164243e-13 -46.30667516 0 -39.55817028 -9.919194636e-14 -38.5197585)
(105.5441599 1.736333854e-13 574.9132015 0 -44.15200719 0 -48.55394185 -3.750909432e-14 -74.76380627)
(144.5973079 5.930917592e-14 629.7369251 7.145011311e-14 -41.5486975 0 -61.77192422 3.54866626e-14 -117.9616569)
(190.6280562 1.16799663e-13 689.078333 -1.434086989e-13 -38.43465339 -4.302260968e-13 -80.33982914 1.439597669e-14 -168.8583617)
(244.298936 3.843041743e-13 752.1876327 0 -34.74637074 -1.439910262e-13 -105.5901183 -1.313590834e-13 -228.159045)
(306.5453113 5.037138686e-13 819.2184441 0 -30.4186816 0 -139.1519219 -2.174923642e-13 -296.9402084)
(379.278532 3.853515802e-13 893.2824279 7.268373883e-14 -25.37851303 1.453674777e-13 -183.0964309 -1.514210722e-13 -377.3420167)
(466.6225648 4.043592104e-13 982.4526903 -3.653934269e-14 -19.52707037 -7.307868539e-14 -240.2226726 -1.827874662e-13 -472.6288858)
(576.8246647 4.218716043e-13 1099.466439 3.67531498e-14 -12.70576056 7.35062996e-14 -314.8714948 -2.149072409e-13 -585.1847869)
(698.5515525 3.018945782e-13 1270.141796 0 -4.63934863 0 -398.0837213 -1.472434864e-13 -721.4836893)
(-25.87182268 3.644557005e-13 1.754710778 5.276813536e-13 -42.07714345 0 -1.831523109 2.22781632e-14 70.44317041)
(-34.50270033 -9.844049873e-14 4.393697194 -9.016374839e-14 -36.93080079 1.154095979e-11 -5.028270386 1.729038118e-13 70.57746039)
(-34.23148399 -4.435992709e-13 7.274935427 -1.111984464e-13 -35.41232052 -7.116700568e-12 -7.935129918 2.443137406e-13 70.92891362)
(-35.39358271 -2.55819049e-13 10.08347071 1.633159016e-13 -35.25865866 0 -10.87517047 5.706496758e-14 71.45508246)
(-36.05386548 -1.691197505e-13 12.9308013 1.959034214e-13 -35.34793732 0 -13.79388943 9.505793554e-14 72.1444291)
(-36.66983471 -1.833666097e-13 15.83000515 2.197395066e-13 -35.50478586 0 -16.64354808 1.192901056e-13 72.98812239)
(-37.39368849 -2.361704679e-14 18.80100853 9.558836327e-14 -35.71170719 -3.058827625e-12 -19.41334198 1.85314311e-13 73.97841376)
(-38.21708655 2.573652723e-13 21.86691567 1.703568448e-13 -35.96148101 0 -22.10202593 1.881664705e-14 75.1078939)
(-39.12626161 1.46927354e-13 25.05375839 1.545491633e-13 -36.24774993 0 -24.70747202 -8.148909165e-14 76.36885048)
(-40.11582525 -1.627215528e-13 28.39002256 0 -36.56608466 0 -27.22682647 -5.503811093e-16 77.75302137)
(-41.18005773 -2.592055843e-13 31.90637417 -6.612519142e-14 -36.91323768 -2.116006125e-12 -29.6574873 6.073184708e-14 79.2514882)
(-42.31120522 -1.246280791e-13 35.63553781 1.862147174e-13 -37.28643492 0 -31.99713199 -3.694764428e-14 80.85457909)
(-43.50015827 8.909528022e-14 39.61219118 3.522531542e-13 -37.68308236 1.878683489e-12 -34.24352075 -2.220505366e-13 82.55182731)
(-44.7368058 2.775669638e-13 43.87273223 1.117690015e-13 -38.1006411 0 -36.39431652 -2.894269709e-13 84.3320049)
(-46.01036868 1.464653522e-13 48.45506771 1.069761203e-13 -38.53657147 1.711617925e-12 -38.446928 -2.397652431e-13 86.1832293)
(-47.30960478 -2.792902359e-13 53.39850809 1.028752524e-13 -38.98832539 0 -40.39825026 -1.268922408e-13 88.09311332)
(-48.62273583 -3.389669243e-13 58.74364134 9.934233843e-14 -39.45334191 0 -42.24454424 -1.287517285e-13 90.04890012)
(-49.93776129 -2.332763179e-13 64.5322043 1.925634418e-13 -39.92903871 7.702537673e-13 -43.9812289 -1.778754947e-13 92.03776407)
(-51.24270019 -2.565365439e-13 70.80737219 9.361846791e-14 -40.4128414 7.489477433e-13 -45.60261197 -1.71477141e-13 94.04685861)
(-52.52548281 -2.242207377e-13 77.61426224 0 -40.90219312 0 -47.10187486 -1.775441243e-13 96.06330313)
(-53.77381298 -1.953382066e-13 85.000702 0 -41.39456215 0 -48.47101864 -1.60243508e-13 98.07404405)
(-54.97462787 -1.588869306e-13 93.01852204 0 -41.8874362 0 -49.70093747 -1.701072435e-13 100.0653004)
(-56.11353372 -4.891047186e-14 101.7252585 3.4363172e-13 -42.37829057 6.8726344e-13 -50.78152959 -2.243902133e-13 102.0217635)
(-57.17348398 1.948272592e-14 111.1863791 2.536056527e-13 -42.86455385 0 -51.70201059 -2.235194048e-13 103.92529)
(-58.13321137 5.208310408e-14 121.4776556 0 -43.34351011 0 -52.4511703 -1.954552348e-13 105.753283)
(-58.96545824 2.571329712e-14 132.6881934 8.228255079e-14 -43.81220164 6.582604063e-13 -53.01766382 -1.477445704e-13 107.4765429)
(-59.63429825 -3.19433724e-14 144.9235929 0 -44.26728167 0 -53.39044526 -1.006050814e-13 109.0567301)
(-60.09245925 -8.970423707e-14 158.3095002 0 -44.70483125 0 -53.55907722 -6.592302577e-14 110.4433663)
(-60.27777865 -3.401811609e-14 172.9958654 7.989575888e-14 -45.12015524 -6.391660711e-13 -53.51437167 -6.133442548e-14 111.5703091)
(-60.1091328 1.635897045e-13 189.1618505 1.586324407e-13 -45.5075193 0 -53.24912087 -1.448539764e-13 112.3516489)
(-59.48144745 2.857559259e-13 207.0221861 0 -45.8598652 0 -52.75927731 -2.247533293e-13 112.6766753)
(-58.25911784 2.599435689e-13 226.8354984 7.842728774e-14 -46.16845363 0 -52.04597407 -2.250821689e-13 112.4036411)
(-56.26793496 2.364473288e-13 248.9158297 7.810389185e-14 -46.42244284 6.248311348e-13 -51.11834317 -2.322606996e-13 111.35153)
(-53.28361351 9.108230958e-14 273.6484994 7.785332638e-14 -46.60837363 6.228266111e-13 -49.99834311 -1.499833325e-13 109.2889604)
(-49.01619294 -1.820403821e-14 301.5121158 -7.767056303e-14 -46.70949679 -6.213645043e-13 -48.72808843 -9.650558434e-14 105.9189362)
(-43.08854472 7.058369378e-14 333.1094415 0 -46.70491237 0 -47.3810308 -1.573212052e-13 100.8574097)
(-35.00606289 5.932925634e-14 369.2093069 -7.749127359e-14 -46.56842054 -3.099650943e-13 -46.07885504 -1.595718164e-13 93.60347871)
(-24.11479941 5.22131751e-14 410.8019448 0 -46.26698363 0 -45.01636714 -1.640822099e-13 83.49812281)
(-9.545644386 1.493181904e-13 459.1670379 7.753642339e-14 -45.75866255 3.101456936e-13 -44.49704244 -2.390758018e-13 69.6688165)
(9.854604434 1.11298022e-13 515.9432081 7.763567746e-14 -44.98991527 3.105427098e-13 -44.98128228 -2.010956179e-13 50.9597349)
(35.5952259 8.735363523e-14 583.1641308 -7.778271519e-14 -43.89222711 -3.111308608e-13 -47.14646054 -1.635379314e-13 25.85662415)
(69.59117117 1.081299038e-13 663.1769812 1.559507345e-13 -42.37833876 3.119014689e-13 -51.95171335 -1.682950797e-13 -7.561050262)
(114.1318498 1.307601899e-13 758.2966236 -7.821170239e-14 -40.33880107 0 -60.68565602 -1.442615848e-13 -51.5699218)
(171.6159931 2.322506765e-13 869.9955334 0 -37.64066076 0 -74.92304944 -1.917605139e-13 -108.5395235)
(243.6765609 2.896836079e-13 997.3236028 0 -34.13287116 0 -96.17857782 -2.084207181e-13 -180.2642582)
(329.1840344 2.012405773e-13 1133.612237 7.916648144e-14 -29.6693212 1.583329629e-13 -124.9486458 -1.386766542e-13 -266.3092685)
(421.6287983 2.418718032e-13 1258.97049 -3.978103541e-14 -24.16445999 -1.591241416e-13 -159.4888591 -1.243874135e-13 -359.8334233)
(508.3429333 4.23915595e-13 1328.782897 0 -17.67316459 0 -196.2807622 -2.122503725e-13 -441.1012408)
(562.3450478 4.41364958e-13 1281.877689 2.011561852e-14 -10.44425125 4.023123705e-14 -228.6537649 -1.900836051e-13 -484.377376)
(547.6270232 6.871982507e-13 1096.201386 -1.518102277e-14 -3.177534806 -3.036204554e-14 -258.5840108 -3.244267825e-13 -501.5734952)
(-19.72258641 -3.39191952e-13 1.335369948 -1.087680247e-12 -32.05086162 3.712615243e-11 -1.727611372 -1.313029103e-13 53.75236467)
(-26.34746613 -5.982999505e-13 3.35622627 -1.982394918e-13 -28.14456806 0 -4.708468896 9.12532294e-14 53.87368156)
(-26.22106723 -1.489249758e-13 5.561547097 1.833657418e-13 -27.01992265 0 -7.437738464 4.655358805e-14 54.20446418)
(-27.2098587 -3.319000758e-13 7.702017874 0 -26.94187457 0 -10.20205771 6.080532224e-14 54.70398568)
(-27.84688518 -4.540000189e-13 9.867481241 1.435750523e-13 -27.05679213 -4.594401674e-12 -12.95641754 2.902500771e-15 55.35856278)
(-28.48345542 -2.239914179e-13 12.07075781 2.415663106e-13 -27.23235673 3.86506097e-12 -15.65842849 -8.690007886e-14 56.16012127)
(-29.23560117 2.265856279e-13 14.32686066 2.101663795e-13 -27.45565724 0 -18.30026979 -2.034349431e-13 57.10288862)
(-30.09753552 4.738656904e-13 16.6537124 2.34098064e-13 -27.72131407 0 -20.88334995 -1.735998851e-13 58.18114872)
(-31.06002934 -1.682414017e-13 19.07247505 1.699005871e-13 -28.02459041 0 -23.40827413 5.904966955e-14 59.38887346)
(-32.12055544 -5.925175536e-13 21.60655509 7.814760109e-14 -28.36225109 0 -25.87502064 1.16502505e-13 60.71970714)
(-33.27671326 -2.132529931e-13 24.28097104 1.453868608e-13 -28.73199297 -2.326189772e-12 -28.2839465 3.098090374e-14 62.16697578)
(-34.52508938 4.30213995e-13 27.12212728 6.823716402e-14 -29.13193013 0 -30.63579607 -1.242588154e-13 63.72370563)
(-35.86181755 3.587540365e-13 30.15752147 1.29080862e-13 -29.56038172 4.130587585e-12 -32.93153973 -6.801286711e-14 65.38269944)
(-37.28287084 -2.555813971e-14 33.41534704 0 -30.01578738 0 -35.17230153 1.027669097e-13 67.13663797)
(-38.7841881 -1.366664992e-13 36.92408574 -5.880104838e-14 -30.49666701 -1.881633548e-12 -37.35939668 2.139904296e-13 68.97812368)
(-40.36151134 -1.044793146e-13 40.7121401 1.130938881e-13 -31.00160325 -1.809502209e-12 -39.49461469 2.054015206e-13 70.89967118)
(-42.01017046 -8.660015559e-14 44.80738911 1.092100484e-13 -31.52920781 -8.736803874e-13 -41.58056993 1.567910624e-13 72.89363779)
(-43.72495781 -1.642464555e-13 49.23711817 1.058454188e-13 -32.07809972 0 -43.6210136 1.212134565e-13 74.95187158)
(-45.49943299 -2.141772031e-13 54.0283148 2.058352472e-13 -32.64688069 0 -45.62151094 9.67147209e-14 77.06506028)
(-47.32533093 -2.652123868e-13 59.20783917 1.003612284e-13 -33.2340702 0 -47.59010105 7.829993969e-14 79.22215431)
(-49.19207134 -2.20873947e-13 64.80322992 9.812361028e-14 -33.83806004 -1.569977764e-12 -49.53770782 4.754953952e-14 81.4096208)
(-51.08621718 -4.770535812e-14 70.84388118 9.616198172e-14 -34.4570498 0 -51.47839278 -3.651969266e-14 83.61075071)
(-52.99128332 -8.512619451e-14 77.36242002 9.444119521e-14 -35.08899684 7.555295617e-13 -53.42912011 -3.435173907e-14 85.80536008)
(-54.88790386 -1.831416435e-13 84.39645813 -9.293213227e-14 -35.73157658 -1.486914116e-12 -55.40906406 6.915839918e-15 87.96980753)
(-56.75447111 -8.087485857e-14 91.99052113 -9.161045926e-14 -36.38217344 -7.328836741e-13 -57.4382929 -2.924134321e-14 90.07764237)
(-58.56801055 -2.685403795e-14 100.1981797 0 -37.03790054 0 -59.53615898 -4.959600431e-14 92.10060671)
(-60.30547302 1.083189929e-14 109.0842166 0 -37.69564629 0 -61.71937975 -7.520719465e-14 94.01017514)
(-61.94511557 3.927282845e-14 118.7270478 0 -38.35215619 0 -64.00010179 -8.702355611e-14 95.77903188)
(-63.46759097 1.712034585e-13 129.2213634 0 -39.004128 0 -66.38429538 -1.606281625e-13 97.38258095)
(-64.85691114 2.809134863e-13 140.6813113 8.719472869e-14 -39.64831108 1.395115659e-12 -68.87026246 -1.81618433e-13 98.79991494)
(-66.10091118 8.471290435e-14 153.2449272 0 -40.28160557 0 -71.44745329 -7.160734554e-14 100.0140718)
(-67.19087231 7.981854297e-14 167.080664 -2.586524937e-13 -40.90113892 -1.379479966e-12 -74.09532501 -4.372542188e-14 101.0109924)
(-68.11966075 2.419899172e-13 182.3975949 0 -41.50430737 0 -76.78226647 -1.076217405e-13 101.7766643)
(-68.87746105 2.56592415e-13 199.461065 0 -42.0887432 0 -79.46477905 -9.99961254e-14 102.2914376)
(-69.44383866 3.463787242e-13 218.616305 8.538560751e-14 -42.65217141 6.830848601e-13 -82.08727157 -1.708414641e-13 102.5203513)
(-69.77456355 3.005549566e-13 240.3230944 8.525436995e-14 -43.19208962 6.820349596e-13 -84.58346429 -1.601536229e-13 102.3977151)
(-69.78085868 1.578982331e-13 265.2058866 0 -43.70520447 0 -86.88068474 -9.708628675e-14 101.8038865)
(-69.29808269 2.149570734e-13 294.1265501 8.518422721e-14 -44.1865122 0 -88.90863781 -1.399633006e-13 100.5306747)
(-68.03815372 1.936171154e-13 328.2925121 1.704762908e-13 -44.62790204 6.81905163e-13 -90.61557078 -1.355800089e-13 98.22929123)
(-65.51583002 1.111848054e-13 369.4207929 0 -45.01604416 0 -91.99732674 -8.805116771e-14 94.32983542)
(-60.93303849 1.214159569e-13 419.9863573 8.550889949e-14 -45.32921245 3.42035598e-13 -93.1498179 -1.029714365e-13 87.91299988)
(-52.98501777 -7.299652393e-14 483.5784098 1.714413773e-13 -45.53245847 6.857655092e-13 -94.37022316 2.303153904e-15 77.5028421)
(-39.53040972 -2.136078013e-13 565.3863921 -8.598049865e-14 -45.56991387 -3.439219946e-13 -96.35048111 6.140993611e-14 60.71894899)
(-17.08790957 -2.49421735e-14 672.9128617 -8.628643804e-14 -45.35235969 -3.451457522e-13 -100.5083821 -2.187595047e-14 33.63919827)
(19.92660098 1.758118193e-13 817.1035446 0 -44.73853601 0 -109.5600932 -1.126636234e-13 -10.38406234)
(81.21499139 1.59356903e-13 1013.981189 8.703011664e-14 -43.50683768 3.481204665e-13 -128.9948389 -8.093092295e-14 -82.75384292)
(188.2074596 6.901535144e-14 1289.116073 0 -41.29018399 0 -171.9346575 -3.028059324e-14 -204.4024319)
(398.2823314 9.807400454e-14 1701.064353 0 -37.36302598 0 -273.1521688 -1.562974604e-14 -424.399207)