/*--------------------------------*- C++ -*----------------------------------*\
  =========                 |
  \\      /  F ield         | OpenFOAM: The Open Source CFD Toolbox
   \\    /   O peration     | Website:  https://openfoam.org
    \\  /    A nd           | Version:  7
     \\/     M anipulation  |
\*---------------------------------------------------------------------------*/
FoamFile
{
    version     2.0;
    format      ascii;
    class       volScalarField;
    location    "0.0018";
    object      rho;
}
// * * * * * * * * * * * * * * * * * * * * * * * * * * * * * * * * * * * * * //

dimensions      [1 -3 0 0 0 0 0];

internalField   nonuniform List<scalar> 
1167
(
940.0195145
939.8180384
939.7252047
939.52614
939.2320402
938.8493485
938.3838651
937.8409977
937.2261674
936.5447074
935.801792
935.002608
934.1522609
933.2559817
932.3187337
931.3455185
930.3412303
929.3106473
928.2584172
927.1893035
926.1074163
925.0170115
923.9222756
922.826761
921.7341096
920.6477271
919.5706521
918.5056431
917.4553366
916.4220634
915.4077228
914.4142594
913.4430669
912.4955027
911.5725997
910.6751433
909.8036483
908.9586724
908.1402467
907.3484463
906.583254
905.8442901
905.1311501
904.44336
903.7803221
903.141346
902.5255847
901.9322258
901.3602962
900.8089014
900.2770912
939.6167251
939.5276328
939.3366036
939.0544336
938.6869784
938.2400263
937.7185397
937.1276278
936.472271
935.7573149
934.9875849
934.1678099
933.3027885
932.3971574
931.4553985
930.4822244
929.4817468
928.4585815
927.4167665
926.360329
925.2933181
924.219324
923.141918
922.0646478
920.9905128
919.9224737
918.863511
917.8159905
916.7822453
915.7645165
914.7645258
913.7840699
912.8245258
911.8872497
910.9732276
910.0833568
909.2182074
908.3785558
907.5645254
906.7763811
906.0143619
905.2782954
904.5680292
903.8833202
903.2237942
902.5889038
901.9780751
901.3905478
900.8255383
900.2820753
939.4156178
939.3310281
939.1497045
938.8815604
938.532471
938.1075044
937.6116326
937.0494553
936.4255757
935.7444812
935.0106093
934.2282899
933.4018042
932.5355384
931.6334621
930.6997367
929.7382987
928.753068
927.7479041
926.7264279
925.6920867
924.6485238
923.5987435
922.5459236
921.4930676
920.4427854
919.3977914
918.3604507
917.3328643
916.3172345
915.3152459
914.3285971
913.3588193
912.4071527
911.4749055
910.5628973
909.6721474
908.8033811
907.9572348
907.1345063
906.3356014
905.5611055
904.8116456
904.0877031
903.3897139
902.7180073
902.0727623
901.4538494
900.8608128
900.2927892
939.2147521
939.1352801
938.9648003
938.7126467
938.3844929
937.9847473
937.5181475
936.9889809
936.4014005
935.7595289
935.067415
934.3289951
933.5480977
932.7286205
931.8743574
930.988786
930.0755206
929.1381209
928.1798708
927.2042259
926.2141176
925.2127635
924.2029766
923.1874892
922.169049
921.1499334
920.1326231
919.1191223
918.1114598
917.111441
916.1205329
915.1404349
914.1721245
913.2169209
912.2756234
911.3491491
910.4379501
909.5427576
908.6638479
907.8017964
906.956939
906.1297874
905.3212461
904.532131
903.7638648
903.0183726
902.2979686
901.605446
900.9439236
900.3164445
939.0155886
938.9422382
938.7848578
938.5522175
938.249155
937.8800046
937.4488585
936.9598029
936.4164657
935.8225699
935.1817478
934.4975232
933.7732977
933.0124436
932.2182593
931.3939978
930.5427741
929.6674802
928.7712289
927.8568957
926.9270814
925.9846484
925.0318881
924.0714978
923.1054365
922.1362181
921.1655423
920.1955284
919.2276941
918.2638184
917.3050491
916.3527644
915.4077897
914.4710799
913.5430173
912.6241363
911.7143279
910.8136533
909.9214097
909.0371076
908.1596801
907.2879645
906.4206956
905.5563439
904.6938667
903.8323775
902.9721633
902.1150057
901.2648291
900.4287406
938.8521964
938.7802621
938.6261922
938.3984594
938.1016837
937.7403314
937.3181446
936.8391523
936.3069351
935.7250284
935.096944
934.4260721
933.7156931
932.9690572
932.1893298
931.3796535
930.542973
929.6820927
928.7999853
927.8994608
926.9829867
926.0533307
925.1127538
924.1637578
923.2084025
922.248927
921.2871628
920.3249836
919.3639669
918.4056848
917.4512619
916.5019177
915.5583511
914.6213831
913.6912568
912.7683144
911.8524787
910.9435652
910.0411772
909.1448417
908.2542401
907.3688309
906.4887451
905.6139349
904.7450504
903.882714
903.02717
902.1772523
901.3279213
900.4677521
938.7313186
938.6592313
938.5047826
938.2764017
937.9788805
937.6165953
937.1933818
936.7130378
936.1793787
935.5958434
934.9659221
934.2929852
933.5803112
932.8311593
932.0487774
931.2361707
930.3962683
929.5319694
928.6463941
927.7420697
926.8217535
925.8880174
924.9432748
923.9899929
923.0301723
922.0661211
921.0995405
920.1322932
919.1658558
918.2017051
917.2408954
916.2844545
915.3331062
914.3874339
913.4477923
912.5144563
911.5875346
910.6671118
909.7532381
908.8462914
907.9466232
907.0552655
906.1732064
905.3022552
904.4440332
903.6004544
902.7731233
901.962941
901.1706122
900.3973055
938.610596
938.5381731
938.3829244
938.1533764
937.8544902
937.4903859
937.065193
936.5825562
936.0461934
935.4597681
934.826717
934.150387
933.4340931
932.6812108
931.8948402
931.0780455
930.233813
929.3652793
928.4752374
927.5664389
926.6417429
925.7034673
924.7543601
923.7964797
922.8321782
921.8633309
920.8919824
919.9195223
918.9477443
917.9776816
917.0106583
916.0473663
915.0887776
914.1353184
913.187657
912.2462247
911.3116262
910.3843879
909.4654821
908.5559724
907.6574647
906.7715982
905.900724
905.0468115
904.2121147
903.3985149
902.6071486
901.8387685
901.0936295
900.3713599
938.4898986
938.4171648
938.2612341
938.0307003
937.7306376
937.364993
936.9380964
936.4535241
935.9149975
935.3261472
934.6905015
934.0114509
933.2923336
932.536464
931.7470181
930.9271015
930.0798165
929.2081766
928.314977
927.403179
926.4752975
925.5339244
924.5815537
923.6203518
922.6525148
921.6799711
920.7045511
919.7278301
918.7512464
917.7761485
916.8035031
915.8344324
914.8696287
913.9101159
912.9564533
912.0098899
911.0711677
910.1418052
909.2230947
908.3171995
907.4259079
906.5517013
905.6966963
904.8629372
904.0522423
903.2655382
902.5031609
901.7649409
901.049923
900.3570411
938.3691766
938.2962105
938.1397694
937.908618
937.6075873
937.2409228
936.8126732
936.3267205
935.7866702
935.1961778
934.5587827
933.8779052
933.1569222
932.3991586
931.6078006
930.7860253
929.9369149
929.0633556
928.1682852
927.2545591
926.3245891
925.3811652
924.4264263
923.4628016
922.4921564
921.5166636
920.5378169
919.5575061
918.5768941
917.5975076
916.6203571
915.6466389
914.6774114
913.7137362
912.7568791
911.8081455
910.8691683
909.9415765
909.0275196
908.1290737
907.2485271
906.3880462
905.5494357
904.7343408
903.9435685
903.1774166
902.4355649
901.7173992
901.0217922
900.3477924
938.2484232
938.1752939
938.0185247
937.7869486
937.4852438
937.1179212
936.6887968
936.2019306
935.6609421
935.0694669
934.4310514
933.7491368
933.027123
932.2683286
931.4759429
930.6532411
929.8030502
928.9283665
928.0322364
927.1171969
926.1858922
925.2408684
924.284387
923.3187316
922.3458596
921.3677752
920.3861417
919.4026267
918.4187358
917.4357604
916.4551671
915.4780394
914.50599
913.5401476
912.5823087
911.6340513
910.6973996
909.7742853
908.8670661
907.9777475
907.1086639
906.2614037
905.437511
904.637928
903.8629709
903.1125268
902.3860405
901.682658
901.0013124
900.3410793
938.1276372
938.0543986
937.8975237
937.6656006
937.3634866
936.9957711
936.566216
936.0787493
935.5372781
934.9453174
934.3064107
933.6240075
932.901518
932.1422431
931.3494874
930.5262371
929.6754524
928.8001914
927.9033274
926.987378
926.0551321
925.1088559
924.1510347
923.1836687
922.2089888
921.2287163
920.2447905
919.2586927
918.2722455
917.2866954
916.3037059
915.3246997
914.3513002
913.3852329
912.4283103
911.482641
910.550171
909.6332327
908.7339032
907.8542782
906.996168
906.1609165
905.3497219
904.5629397
903.8006417
903.0624991
902.3478737
901.6558463
900.9854682
900.3358751
938.0068633
937.9336368
937.776621
937.5444849
937.2422535
936.8742405
936.4445033
935.9568396
935.4150629
934.822933
934.1838592
933.5012931
932.7786635
932.0193323
931.22638
930.4028731
929.5517784
928.6762505
927.778881
926.8623762
925.9293684
924.9821587
924.0232573
923.0545541
922.0783934
921.096454
920.1106874
919.1227704
918.1344256
917.1473025
916.1629826
915.1833839
914.2100909
913.2452969
912.2908636
911.3491185
910.4220425
909.5119858
908.6208266
907.750592
906.9025933
906.0780235
905.277638
904.5015703
903.7497166
903.0216856
902.3167277
901.6339919
900.9725759
900.331646
937.886147
937.8128788
937.6557731
937.4235113
937.1212737
936.7530959
936.3233269
935.8356402
935.2938546
934.7016551
934.0625758
933.3800615
932.6575176
931.8981919
931.1052216
930.2816418
929.4305359
928.5548203
927.6571474
926.7403347
925.8067587
924.8589548
923.8991693
922.9295453
921.9521999
920.9691024
919.9820163
918.9929497
918.003514
917.0157481
916.0312457
915.0521385
914.0802938
913.1178718
912.1671116
911.2301484
910.3091789
909.4062297
908.5232093
907.6617394
906.822948
906.0078508
905.2168199
904.4499059
903.706892
902.9873749
902.2905374
901.6156022
900.9617177
900.3280816
937.7654011
937.6921052
937.5349419
937.3027022
937.000417
936.6322507
936.2024241
935.7148003
935.1730991
934.5809947
933.9420236
933.2596379
932.5372257
931.7780187
930.9851519
930.1616552
929.3106667
928.4349007
927.5371494
926.6201543
925.6862184
924.7380558
923.7776637
922.8074444
921.8293072
920.8455214
919.8577288
918.8681277
917.8784876
916.890829
915.9071351
914.9294595
913.9600355
913.0008938
912.0545605
911.1229332
910.2083476
909.3124938
908.4372857
907.5839645
906.7535364
905.9468736
905.1640678
904.4051343
903.6698056
902.9576541
902.2678546
901.5996822
900.9523234
900.3249991
937.6446277
937.5713107
937.4141052
937.1819532
936.8796048
936.5115123
936.0816392
935.5941215
935.0525521
934.4605949
933.8217898
933.1395968
932.4173872
931.658378
930.8657038
930.0424893
929.191631
928.3159414
927.4183165
926.5012432
925.5672381
924.6188452
923.658192
922.6876307
921.7091997
920.7250724
919.7371934
918.7476266
917.7584944
916.771723
915.789648
914.8142522
913.8479652
912.8928438
911.9513507
911.0254321
910.1172234
909.2283109
908.3605159
907.5147637
906.6920231
905.8928951
905.1174295
904.3655768
903.6370686
902.9314
902.2478146
901.5856137
900.9440195
900.3222737
937.5238313
937.4504966
937.2933673
937.0612011
936.7588031
936.3908013
935.9610211
935.4735133
934.9321025
934.3403241
933.7017221
933.0197651
932.2978089
931.5390566
930.7467334
929.923791
929.0731559
928.197697
927.3002791
926.3832784
925.4494094
924.5009786
923.5403666
922.5697423
921.5914049
920.6073719
919.6199259
918.6309902
917.6429973
916.6578651
915.6780007
914.7055915
913.7429379
912.7923138
911.8559372
910.9358709
910.0339588
909.1518231
908.2909639
907.452251
906.6365673
905.8442933
905.0754645
904.3299915
903.6076192
902.9077812
902.229786
901.5729587
900.9365513
900.3198229
937.4030176
937.3297352
937.1726497
936.9404421
936.6381012
936.2701016
935.8404402
935.3530108
934.8117079
934.2201303
933.581758
932.9000694
932.1784057
931.4200291
930.6280665
929.8054336
928.9551009
928.0800445
927.1828713
926.2661221
925.3325211
924.3842624
923.4239462
922.4535698
921.4756877
920.4922263
919.5056397
918.5179663
917.5315659
916.5486665
915.571535
914.6026061
913.6440005
912.6981694
911.7670765
910.8528764
909.9571344
909.0815065
908.2272059
907.3950662
906.5859098
905.7999337
905.0371774
904.2975282
903.5807517
902.8862303
902.2133338
901.5614089
900.9297347
900.3175858
937.2823176
937.2090394
937.0519239
936.8196789
936.5174354
936.1494113
935.7198784
935.2326079
934.6914258
934.099996
933.4618746
932.7804924
932.0592242
931.3012324
930.5096188
929.6873531
928.8374455
927.9628224
927.0660014
926.1497137
925.2164676
924.2686905
923.3088075
922.3390832
921.3618994
920.3794638
919.3941057
918.4081589
917.4238314
916.4436329
915.4696843
914.504596
913.5503758
912.6094751
911.6837751
910.7753491
909.8856134
909.0162228
908.1681341
907.3421935
906.539086
905.7589501
905.0018091
904.2675649
903.5559253
902.8663136
902.1981278
901.5507337
900.9234344
900.3155182
937.1616312
937.0883385
936.9311949
936.6989478
936.3967752
936.0287777
935.5993367
935.1122343
934.5712457
933.9800432
933.3421786
932.6611281
931.9402024
931.182587
930.3913627
929.569516
928.720164
927.8459841
926.9496181
926.0339194
925.1011879
924.1540952
923.1948754
922.2260838
921.2499224
920.2688706
919.2851297
918.3013127
917.3195169
916.3423471
915.3720067
914.4109513
913.4613531
912.5254461
911.6051847
910.7024002
909.8185271
908.9550807
908.1128921
907.2928149
906.4953649
905.7206904
904.9687905
904.2395894
903.5327393
902.8477092
902.1839215
901.5407594
900.9175475
900.3135861
937.0409443
936.9676379
936.8104685
936.5783239
936.2761254
935.9082486
935.4788186
934.9918927
934.4511082
933.8601459
933.2225718
932.5418528
931.8212919
931.064082
930.2732841
929.4519926
928.6031672
927.7295085
926.8338091
925.9187068
924.9866778
924.0404267
923.0821108
922.1144999
921.1396966
920.1603168
919.178629
918.1971941
917.2183129
916.2444317
915.2779584
914.321137
913.3762844
912.4454176
911.5305556
910.6332998
909.7551348
908.8973654
908.0607997
907.2462798
906.4541723
905.6846433
904.9376765
904.213221
903.5108796
902.8301653
902.170523
901.5313515
900.9119947
900.3117637
936.9202622
936.8469432
936.6897918
936.4577116
936.1554918
935.7877416
935.3583904
934.8715869
934.3310165
933.7403061
933.1030365
932.4226656
931.7024904
930.945713
930.1554087
929.3347191
928.4864454
927.6133841
926.7184473
925.8040639
924.872968
923.9276582
922.9705606
922.0042696
921.0311604
920.0536839
919.0743571
918.0955872
917.1198948
916.1495461
915.1871343
914.2346866
913.2946506
912.3688287
911.4593005
910.5674497
909.6948134
908.8425039
908.0113156
907.202089
906.415057
905.6504094
904.9081216
904.1881652
903.4901021
902.813486
902.1577827
901.5224049
900.9067139
900.3100305
936.7995903
936.7262613
936.5692202
936.3371169
936.0349185
935.667263
935.2380727
934.7513265
934.2109749
933.6205274
932.9835753
932.3035684
931.5837991
930.827489
930.0377945
929.2176608
928.3699973
927.4977059
926.60353
925.6899852
924.7599671
923.8157715
922.8600909
921.8953448
920.9241747
919.9488592
918.9721493
917.996301
917.0240104
916.0574379
915.0991764
914.1512675
913.2160079
912.2952535
911.3909277
910.504355
909.6370779
908.7900311
907.9640343
907.1598428
906.377659
905.6176704
904.8798752
904.1641881
903.4702132
902.7975161
902.1455823
901.5138366
900.9016563
900.3083705
911.3250287
910.44364
909.5815318
908.7395698
907.9185896
907.1192201
906.3416905
905.5861729
904.8526902
904.1411038
903.4510591
902.7821327
902.133828
901.5055808
900.8967829
900.3067709
)
;

boundaryField
{
    front_top
    {
        type            wedge;
    }
    front_middle
    {
        type            wedge;
    }
    front_bottom
    {
        type            wedge;
    }
    back_top
    {
        type            wedge;
    }
    back_middle
    {
        type            wedge;
    }
    back_bottom
    {
        type            wedge;
    }
    axis_top
    {
        type            symmetryPlane;
    }
    axis_middle
    {
        type            symmetryPlane;
    }
    axis_bottom
    {
        type            symmetryPlane;
    }
    wall_top
    {
        type            calculated;
        value           nonuniform 0();
    }
    wall_middle
    {
        type            calculated;
        value           uniform 900.0184441;
    }
    wall_bottom
    {
        type            calculated;
        value           uniform 900.0184441;
    }
    inlet
    {
        type            calculated;
        value           nonuniform 0();
    }
    outlet
    {
        type            calculated;
        value           nonuniform 0();
    }
    procBoundary2to1
    {
        type            processor;
        value           nonuniform List<scalar> 
51
(
936.6789872
936.6057275
936.4486681
936.2165456
935.9144685
935.5468187
935.1177953
934.6312406
934.0909988
933.5008151
932.864193
932.1845662
931.4652464
930.7095146
929.920355
929.1008224
928.2538278
927.3823994
926.4890612
925.5765599
924.6476712
923.7047837
922.7506777
921.787712
920.8186662
919.8457957
918.8718632
917.8992235
916.9304311
915.9678145
915.0137697
914.0704615
913.1399754
912.2242615
912.2242615
911.2612628
910.3849608
909.5278495
908.690812
907.8746787
907.0799616
906.3069195
905.5557131
904.8263909
904.1187638
903.4325169
902.7672373
902.1224448
901.497585
900.8920628
900.3052216
)
;
    }
    procBoundary2to3
    {
        type            processor;
        value           nonuniform List<scalar> 
51
(
940.2213064
939.9236882
939.9236882
939.7182331
939.4145855
939.0197201
938.5394282
937.9795522
937.3457537
936.6436822
935.8787994
935.0566115
934.1825607
933.2622059
932.3008944
931.3039794
930.2766184
929.2240286
928.1510892
927.0627511
925.963554
924.8578682
923.7498705
922.643574
921.5425331
920.45009
919.3694134
918.3032782
917.2540515
916.2239894
915.2149917
914.2284956
913.2660579
912.3284911
911.4168235
910.53134
909.672571
908.8405653
908.0352233
907.2564914
906.5039321
905.7770634
905.0753015
904.398023
903.7445037
903.1139714
902.5055376
901.918404
901.3516462
900.8044484
900.2759096
)
;
    }
}


// ************************************************************************* //
