/*--------------------------------*- C++ -*----------------------------------*\
  =========                 |
  \\      /  F ield         | OpenFOAM: The Open Source CFD Toolbox
   \\    /   O peration     | Website:  https://openfoam.org
    \\  /    A nd           | Version:  7
     \\/     M anipulation  |
\*---------------------------------------------------------------------------*/
FoamFile
{
    version     2.0;
    format      ascii;
    class       volScalarField;
    location    "0.0018";
    object      thermo:alpha;
}
// * * * * * * * * * * * * * * * * * * * * * * * * * * * * * * * * * * * * * //

dimensions      [1 -1 -1 0 0 0 0];

internalField   nonuniform List<scalar> 
1167
(
0.0001197300962
0.0001197015793
0.0001196884396
0.0001196602639
0.000119618637
0.0001195644707
0.000119493987
0.0001194123702
0.0001193230706
0.0001192169398
0.0001191012379
0.0001189709431
0.0001188264006
0.0001186740506
0.000118507981
0.0001183266292
0.0001181272168
0.0001179225834
0.0001177046094
0.0001174769939
0.0001172345542
0.000116986713
0.0001167221466
0.0001164535133
0.0001161816897
0.0001158954592
0.0001156055365
0.0001153154372
0.0001150160243
0.0001147168096
0.000114412911
0.0001141088684
0.0001138037563
0.0001135060674
0.0001132048151
0.0001129035646
0.0001126043083
0.0001123141582
0.0001120261895
0.000111742691
0.0001114661556
0.0001111907193
0.0001109249085
0.0001106685464
0.0001104138222
0.0001101662424
0.0001099196374
0.0001096809805
0.0001094509428
0.0001092291644
0.0001090100885
0.0001196730854
0.0001196604752
0.0001196334369
0.0001195934985
0.000119541191
0.000119471587
0.0001193950387
0.000119307724
0.0001192056585
0.000119094311
0.0001189683895
0.0001188290437
0.0001186820069
0.0001185224314
0.0001183484471
0.0001181552128
0.000117956557
0.0001177472246
0.0001175254211
0.000117292034
0.0001170495331
0.0001167939348
0.0001165335565
0.0001162639904
0.0001159832472
0.0001157007295
0.000115414204
0.0001151188366
0.0001148241448
0.0001145198072
0.0001142189089
0.0001139108866
0.000113609434
0.0001133082602
0.0001130059216
0.0001127003554
0.000112403278
0.0001121115144
0.0001118200566
0.0001115378672
0.0001112541107
0.0001109797544
0.0001107150148
0.0001104537301
0.0001101981881
0.0001099451052
0.0001096994217
0.0001094631104
0.000109235856
0.0001090121669
0.0001196446206
0.0001196326478
0.0001196069832
0.00011956903
0.0001195171295
0.0001194509493
0.0001193799081
0.0001192955494
0.0001191983862
0.0001190923123
0.0001189723032
0.0001188393241
0.0001186988376
0.0001185479296
0.0001183817124
0.0001181984022
0.0001180074982
0.0001178099211
0.0001175959206
0.0001173752378
0.0001171401618
0.0001168976601
0.0001166439582
0.0001163815904
0.0001161164729
0.0001158415111
0.0001155587652
0.0001152740469
0.0001149811109
0.0001146854026
0.0001143852047
0.0001140819566
0.0001137772889
0.0001134783111
0.0001131726969
0.0001128650213
0.0001125591532
0.0001122608339
0.0001119606634
0.0001116660914
0.0001113738473
0.0001110851671
0.0001108058187
0.000110532921
0.0001102624758
0.0001099970324
0.0001097375062
0.0001094885711
0.0001092500439
0.0001090166346
0.00011961619
0.0001196049415
0.0001195808118
0.0001195451219
0.0001194940848
0.0001194327151
0.0001193666771
0.0001192861311
0.0001191946211
0.0001190946558
0.000118981959
0.000118856442
0.0001187237047
0.0001185835071
0.0001184260999
0.0001182557961
0.0001180744573
0.0001178883264
0.0001176878868
0.0001174801709
0.0001172588044
0.0001170312254
0.0001167899841
0.0001165445698
0.0001162892202
0.0001160240751
0.00011575759
0.0001154833653
0.0001152030666
0.0001149179893
0.0001146264705
0.000114332831
0.0001140327988
0.0001137327098
0.0001134359429
0.0001131313529
0.0001128221166
0.000112514723
0.0001122129206
0.0001119050098
0.0001116025147
0.0001112971336
0.0001109957636
0.0001107016343
0.0001104074456
0.0001101178433
0.0001098280872
0.0001095495453
0.0001092834722
0.000109026499
0.0001195880004
0.0001195776184
0.0001195553427
0.0001195202046
0.0001194730086
0.0001194178908
0.0001193568706
0.0001192815869
0.0001191969674
0.0001191044739
0.0001190013934
0.0001188850885
0.0001187619843
0.0001186326539
0.0001184894675
0.0001183362553
0.0001181672356
0.0001179934364
0.0001178137876
0.000117619125
0.0001174208406
0.0001172066527
0.0001169901176
0.0001167582094
0.00011652474
0.0001162812862
0.0001160280726
0.0001157746104
0.0001155127417
0.0001152464998
0.0001149731816
0.0001146960475
0.0001144129311
0.0001141267193
0.000113835157
0.0001135464792
0.00011325141
0.0001129511266
0.0001126447456
0.0001123410915
0.0001120331475
0.000111721036
0.0001114055648
0.0001110833923
0.0001107619186
0.0001104339917
0.0001100992573
0.0001097544971
0.0001094125447
0.0001090733268
0.0001195648738
0.0001195546922
0.0001195317247
0.0001194962598
0.0001194500428
0.0001193981228
0.0001193373952
0.0001192627968
0.0001191799091
0.0001190892827
0.0001189869784
0.0001188729432
0.0001187521926
0.0001186252791
0.000118484137
0.0001183334071
0.0001181672751
0.0001179963379
0.0001178199098
0.0001176281872
0.0001174330689
0.0001172222622
0.0001170084961
0.000116780506
0.0001165496239
0.0001163085236
0.000116060763
0.0001158096373
0.0001155496133
0.000115286942
0.0001150148627
0.0001147407342
0.0001144580396
0.0001141739389
0.0001138817283
0.0001135917746
0.0001132968288
0.0001129957361
0.0001126858717
0.0001123780856
0.0001120670041
0.0001117499896
0.000111430929
0.0001111048584
0.0001107809964
0.0001104534952
0.0001101213818
0.0001097795335
0.0001094379212
0.0001090895948
0.0001195477648
0.0001195368699
0.0001195128176
0.0001194772517
0.0001194318847
0.0001193806105
0.0001193179646
0.0001192431557
0.0001191600434
0.0001190691634
0.0001189647072
0.000118850321
0.0001187291803
0.0001186018391
0.0001184582387
0.000118304917
0.0001181381453
0.0001179665293
0.0001177872101
0.0001175946785
0.0001173969026
0.0001171846912
0.000116968893
0.000116738512
0.0001165056073
0.0001162643465
0.0001160111694
0.0001157575007
0.00011549601
0.0001152287931
0.0001149548931
0.0001146755817
0.0001143905557
0.0001141004409
0.0001138052409
0.0001135120219
0.0001132097252
0.0001129008068
0.0001125869984
0.0001122755686
0.000111956864
0.0001116377198
0.0001113133173
0.0001109886851
0.0001106687974
0.0001103441301
0.0001100192008
0.0001096933346
0.0001093746493
0.0001090602183
0.0001195292959
0.0001195180175
0.0001194938405
0.000119458093
0.0001194142798
0.000119362748
0.0001192980004
0.0001192228344
0.0001191393011
0.000119047971
0.0001189410451
0.0001188260821
0.0001187043261
0.0001185747713
0.0001184298741
0.0001182735196
0.000118105888
0.0001179334312
0.0001177507707
0.0001175572865
0.0001173559913
0.0001171427483
0.0001169232377
0.0001166917454
0.0001164549007
0.00011621534
0.0001159580135
0.0001156999309
0.0001154369952
0.0001151649303
0.000114889259
0.0001146045496
0.0001143173544
0.0001140212357
0.0001137235162
0.0001134262778
0.0001131190168
0.0001128037243
0.000112488188
0.0001121750372
0.0001118533329
0.0001115361547
0.0001112117542
0.0001108934728
0.0001105811259
0.0001102658859
0.0001099524435
0.0001096433908
0.0001093436859
0.0001090493989
0.0001195104997
0.0001194991728
0.0001194748897
0.0001194392188
0.0001193967509
0.0001193446914
0.0001192782064
0.0001192027389
0.0001191188686
0.0001190259385
0.0001189178911
0.0001188024657
0.0001186802297
0.0001185481002
0.0001184026363
0.000118243548
0.0001180753103
0.0001179022367
0.000117716651
0.0001175225283
0.0001173181631
0.000117104216
0.0001168814754
0.0001166491803
0.0001164088886
0.0001161670419
0.000115910012
0.0001156480644
0.0001153838284
0.0001151074788
0.0001148302049
0.0001145407541
0.0001142516969
0.0001139504856
0.0001136508807
0.0001133485797
0.0001130395526
0.0001127204256
0.0001124049563
0.0001120895463
0.0001117704256
0.0001114543949
0.0001111357063
0.0001108249367
0.0001105191813
0.0001102143623
0.0001099106183
0.0001096136963
0.0001093261065
0.0001090434279
0.0001194916996
0.0001194803366
0.0001194559739
0.0001194219405
0.0001193793356
0.0001193253686
0.0001192586729
0.0001191829905
0.0001190988828
0.0001190038462
0.0001188955014
0.0001187797655
0.0001186572124
0.0001185228002
0.000118376984
0.0001182155358
0.0001180469356
0.0001178734809
0.0001176854202
0.000117490887
0.0001172839114
0.0001170694983
0.0001168439855
0.000116611105
0.0001163678206
0.0001161228571
0.000115867224
0.0001156019796
0.0001153357489
0.0001150565533
0.0001147762189
0.0001144844908
0.0001141915409
0.0001138887905
0.0001135881821
0.0001132822538
0.0001129701895
0.0001126516705
0.0001123377992
0.0001120221892
0.0001117069157
0.0001113933952
0.0001110808174
0.0001107770046
0.0001104770742
0.0001101802185
0.0001098834303
0.0001095945744
0.000109314792
0.0001090395711
0.0001194728946
0.0001194615062
0.0001194374956
0.0001194047206
0.0001193620203
0.0001193062123
0.0001192393804
0.0001191635556
0.0001190793019
0.0001189823078
0.0001188737896
0.0001187578774
0.0001186351491
0.0001184986933
0.0001183525264
0.00011818917
0.0001180203553
0.0001178466774
0.0001176564553
0.0001174616424
0.0001172523896
0.0001170376129
0.0001168096587
0.0001165762874
0.0001163319485
0.0001160825736
0.000115826185
0.0001155600736
0.0001152906624
0.0001150104437
0.0001147267276
0.000114433978
0.0001141376868
0.0001138342555
0.0001135333386
0.0001132250181
0.0001129112071
0.0001125942256
0.0001122827023
0.0001119680079
0.0001116568387
0.0001113461914
0.0001110390994
0.0001107410684
0.0001104458456
0.000110155076
0.0001098635109
0.000109580601
0.0001093065547
0.0001090367717
0.0001194540846
0.0001194426791
0.0001194203703
0.0001193875462
0.0001193444568
0.0001192871886
0.0001192202896
0.0001191443713
0.0001190600424
0.0001189612048
0.0001188526031
0.0001187366079
0.0001186137987
0.0001184754607
0.0001183274173
0.000118163952
0.0001179950194
0.0001178199537
0.0001176290104
0.0001174340038
0.0001172226716
0.0001170076102
0.0001167774312
0.0001165436465
0.0001162988721
0.0001160449496
0.0001157879393
0.0001155211291
0.0001152489022
0.0001149679495
0.0001146813495
0.0001143880372
0.0001140890891
0.0001137855872
0.0001134849581
0.0001131752401
0.0001128606513
0.0001125457906
0.0001122369764
0.0001119238006
0.0001116165604
0.0001113087365
0.0001110063775
0.0001107131178
0.0001104216953
0.0001101355916
0.0001098481597
0.000109569817
0.000109300182
0.0001090346016
0.0001194358452
0.0001194254814
0.0001194032589
0.0001193704047
0.0001193255759
0.0001192682614
0.000119201334
0.0001191253851
0.0001190410086
0.0001189404018
0.0001188317717
0.0001187157488
0.000118592728
0.0001184528131
0.000118302973
0.0001181394567
0.0001179704626
0.0001177935666
0.0001176025157
0.0001174061349
0.0001171940891
0.0001169782902
0.0001167465511
0.0001165118516
0.0001162673123
0.000116010379
0.0001157516548
0.0001154843524
0.0001152096136
0.0001149282125
0.0001146391885
0.0001143456986
0.0001140447264
0.0001137416245
0.0001134409534
0.0001131313429
0.0001128166542
0.0001125041565
0.0001121981479
0.0001118866765
0.0001115830566
0.0001112778396
0.0001109795095
0.0001106902434
0.0001104019637
0.0001101191759
0.0001098356324
0.0001095610269
0.0001092949965
0.000109032838
0.0001194187602
0.0001194083905
0.0001193861553
0.0001193532833
0.0001193067344
0.0001192493943
0.0001191824619
0.0001191065094
0.0001190204494
0.000118919787
0.0001188111559
0.0001186951418
0.0001185704056
0.0001184304917
0.0001182789157
0.0001181153849
0.0001179463886
0.000117767714
0.0001175765984
0.0001173783984
0.0001171662235
0.0001169485153
0.0001167165626
0.0001164798366
0.0001162368162
0.000115977764
0.0001157168401
0.0001154492266
0.0001151722944
0.00011489071
0.0001145997199
0.0001143063772
0.0001140039491
0.0001137015924
0.0001134002684
0.00011309223
0.0001127778988
0.0001124678417
0.0001121633066
0.0001118548635
0.0001115545402
0.0001112516839
0.0001109568405
0.0001106709864
0.0001103853707
0.0001101053756
0.0001098250983
0.0001095536303
0.0001092906292
0.0001090313517
0.000119401671
0.0001193912974
0.000119369054
0.0001193349902
0.0001192879122
0.0001192305738
0.0001191636325
0.0001190876898
0.0001189999233
0.0001188992771
0.0001187906644
0.0001186746721
0.0001185482405
0.0001184083485
0.0001182550745
0.0001180915603
0.0001179225873
0.0001177421829
0.0001175510507
0.0001173510849
0.0001171388281
0.0001169192975
0.0001166871981
0.0001164485664
0.0001162071178
0.0001159461147
0.0001156832114
0.0001154154533
0.0001151366529
0.0001148550991
0.000114562536
0.0001142696224
0.0001139661685
0.0001136648423
0.0001133632658
0.0001130569817
0.0001127432751
0.0001124356544
0.0001121325423
0.0001118270167
0.0001115296255
0.0001112289557
0.0001109371781
0.0001106542985
0.0001103710011
0.0001100934216
0.0001098159749
0.000109547227
0.0001092868507
0.0001090300663
0.0001193845779
0.0001193742013
0.000119351952
0.0001193161847
0.0001192690968
0.00011921177
0.0001191448214
0.0001190688952
0.0001189794326
0.0001188788114
0.000118770227
0.0001186542675
0.000118526159
0.0001183863034
0.0001182313568
0.0001180678986
0.0001178989514
0.0001177168564
0.0001175257511
0.0001173240598
0.0001171117873
0.0001168904877
0.0001166583252
0.0001164178819
0.0001161749501
0.0001159152676
0.0001156505979
0.000115382849
0.0001151024462
0.0001148211453
0.0001145273367
0.0001142345312
0.0001139309602
0.0001136308971
0.0001133293343
0.0001130238478
0.0001127119846
0.0001124067475
0.0001121050554
0.0001118022399
0.0001115066975
0.0001112088361
0.0001109197945
0.0001106395541
0.0001103583167
0.0001100828618
0.0001098079146
0.0001095415685
0.0001092835108
0.0001090289298
0.0001193674816
0.0001193571025
0.0001193335364
0.0001192973787
0.0001192502831
0.0001191929704
0.0001191260363
0.0001190501117
0.0001189589585
0.0001188583677
0.0001187498178
0.0001186338984
0.0001185041254
0.0001183643172
0.0001182077339
0.0001180443298
0.0001178754269
0.000117691682
0.0001175006208
0.0001172972498
0.0001170850082
0.0001168620027
0.0001166298502
0.0001163876905
0.0001161430793
0.0001158851243
0.0001156188686
0.0001153511702
0.0001150695211
0.0001147874564
0.0001144938869
0.0001142003941
0.0001138979646
0.0001135993143
0.0001132979659
0.000112993094
0.000112683393
0.0001123804829
0.0001120801528
0.0001117798576
0.0001114860273
0.0001111907206
0.0001109041527
0.0001106262903
0.0001103469062
0.000110073362
0.0001098006632
0.0001095364785
0.0001092805069
0.0001090279078
0.0001193503828
0.0001193392003
0.0001193147358
0.0001192785717
0.000119231485
0.0001191741726
0.000119107257
0.0001190305047
0.0001189384938
0.0001188379371
0.0001187294263
0.0001186135525
0.0001184821241
0.0001183414241
0.0001181841713
0.0001180208286
0.0001178519858
0.0001176666337
0.0001174756246
0.0001172706236
0.0001170584429
0.0001168337957
0.0001166017147
0.000116357978
0.0001161117706
0.0001158548885
0.000115587946
0.0001153189503
0.0001150377552
0.0001147547402
0.0001144619895
0.00011416804
0.0001138668822
0.0001135697377
0.0001132687518
0.0001129645951
0.0001126570128
0.0001123563374
0.0001120573247
0.000111759383
0.0001114671456
0.0001111741863
0.0001108898818
0.0001106141901
0.000110336496
0.0001100646939
0.000109794046
0.000109531833
0.0001092777652
0.0001090269749
0.0001193318155
0.0001193204031
0.0001192959339
0.000119259764
0.0001192126925
0.0001191553762
0.0001190884806
0.0001190100386
0.0001189180482
0.0001188175166
0.0001187090484
0.000118593065
0.0001184601636
0.0001183178357
0.0001181606522
0.0001179973824
0.0001178278852
0.000117641677
0.0001174507428
0.0001172441673
0.0001170320673
0.0001168058653
0.000116573889
0.0001163303109
0.0001160809839
0.0001158243781
0.000115557768
0.0001152876473
0.0001150070431
0.0001147232719
0.0001144314749
0.0001141372489
0.0001138374689
0.0001135418733
0.0001132413655
0.0001129379736
0.0001126324538
0.0001123339201
0.0001120361745
0.0001117404523
0.0001114496928
0.0001111589104
0.0001108766989
0.0001106026108
0.0001103268767
0.0001100566832
0.0001097879299
0.0001095275393
0.0001092752311
0.0001090261127
0.0001193130197
0.0001193016051
0.0001192771315
0.0001192409613
0.0001191939008
0.0001191365887
0.0001190697074
0.0001189895774
0.0001188976199
0.000118797127
0.0001186887024
0.0001185710709
0.0001184382326
0.0001182942774
0.0001181371712
0.0001179739846
0.0001178029158
0.000117616802
0.0001174259625
0.0001172178506
0.0001170058675
0.0001167781709
0.0001165463549
0.0001163030034
0.0001160506872
0.0001157944547
0.0001155282822
0.0001152571884
0.000114977306
0.0001146929265
0.0001144022105
0.0001141078292
0.0001138095013
0.0001135154746
0.0001132155279
0.0001129129242
0.0001126094175
0.000112312925
0.0001120163955
0.0001117227727
0.0001114333965
0.0001111446497
0.0001108643918
0.0001105917714
0.000110317893
0.0001100492003
0.0001097822159
0.0001095235275
0.0001092728633
0.000109025307
0.0001192942239
0.0001192828072
0.0001192583295
0.0001192221753
0.0001191751107
0.0001191178175
0.0001190509379
0.0001189691217
0.0001188771989
0.0001187767468
0.0001186683716
0.0001185490931
0.0001184163221
0.0001182707469
0.0001181137254
0.000117950649
0.0001177780071
0.0001175920042
0.0001173996425
0.000117191666
0.0001169793823
0.0001167507004
0.0001165189089
0.0001162760378
0.0001160214535
0.0001157650832
0.0001154994661
0.0001152275071
0.0001149484556
0.0001146635908
0.0001143740334
0.000114079613
0.0001137827759
0.0001134903326
0.0001131909927
0.0001128891964
0.0001125876497
0.0001122931065
0.0001119977441
0.0001117061111
0.0001114180427
0.0001111312138
0.0001108527946
0.0001105815546
0.0001103094231
0.0001100421438
0.0001097768269
0.0001095197435
0.0001092706299
0.000109024547
0.0001192754288
0.0001192640101
0.0001192395353
0.0001192033911
0.0001191563232
0.0001190990497
0.0001190314192
0.0001189486721
0.0001188567856
0.0001187563763
0.0001186480529
0.0001185271316
0.0001183944316
0.0001182472435
0.00011809032
0.0001179273631
0.0001177531569
0.0001175672812
0.0001173734241
0.000117165611
0.0001169519019
0.0001167234475
0.0001164903407
0.0001162493994
0.0001159936572
0.0001157362313
0.0001154712531
0.0001151985418
0.0001149203993
0.0001146351629
0.0001143468223
0.0001140524535
0.0001137571296
0.0001134662713
0.0001131675666
0.0001128665845
0.0001125669364
0.000112274268
0.0001119800267
0.0001116902889
0.0001114034631
0.0001111184537
0.0001108417785
0.0001105718464
0.0001103013726
0.0001100354352
0.0001097717025
0.0001095161451
0.0001092685059
0.0001090238243
0.0001192566354
0.0001192452151
0.0001192207574
0.0001191846096
0.0001191375451
0.0001190802863
0.0001190109675
0.0001189282301
0.0001188363809
0.0001187360163
0.0001186277468
0.0001185051867
0.0001183725615
0.0001182237688
0.0001180669664
0.0001179041199
0.0001177283649
0.0001175426532
0.0001173473067
0.0001171396842
0.0001169245928
0.0001166964077
0.0001164620492
0.0001162230765
0.000115966258
0.0001157078687
0.0001154435986
0.0001151702381
0.0001148930654
0.0001146075671
0.0001143204699
0.0001140262464
0.000113732423
0.0001134423966
0.0001131450882
0.0001128449189
0.000112547111
0.0001122562498
0.000111963098
0.000111675163
0.0001113895236
0.0001111062508
0.0001108312501
0.0001105625561
0.0001102936664
0.0001100290119
0.0001097667954
0.0001095126988
0.0001092664717
0.0001090231321
0.0001131234231
0.0001128240705
0.0001125280374
0.0001122389223
0.0001119468268
0.0001116606183
0.000111376117
0.0001110945106
0.0001108211174
0.0001105536118
0.0001102862449
0.0001100228245
0.0001097620676
0.0001095093782
0.0001092645115
0.000109022465
)
;

boundaryField
{
    front_top
    {
        type            wedge;
    }
    front_middle
    {
        type            wedge;
    }
    front_bottom
    {
        type            wedge;
    }
    back_top
    {
        type            wedge;
    }
    back_middle
    {
        type            wedge;
    }
    back_bottom
    {
        type            wedge;
    }
    axis_top
    {
        type            symmetryPlane;
    }
    axis_middle
    {
        type            symmetryPlane;
    }
    axis_bottom
    {
        type            symmetryPlane;
    }
    wall_top
    {
        type            calculated;
        value           nonuniform 0();
    }
    wall_middle
    {
        type            calculated;
        value           uniform 0.0001089022317;
    }
    wall_bottom
    {
        type            calculated;
        value           uniform 0.0001089022317;
    }
    inlet
    {
        type            calculated;
        value           nonuniform 0();
    }
    outlet
    {
        type            calculated;
        value           nonuniform 0();
    }
    procBoundary2to1
    {
        type            processor;
        value           nonuniform List<scalar> 
51
(
0.0001192378526
0.0001192264431
0.0001192019826
0.0001191658318
0.0001191187862
0.0001190615283
0.0001189905227
0.0001189078179
0.0001188159873
0.0001187156675
0.0001186074542
0.0001184832592
0.0001183504025
0.0001182003437
0.0001180436475
0.0001178809204
0.0001177036323
0.0001175181043
0.0001173212912
0.0001171139059
0.0001168974541
0.0001166695851
0.0001164340283
0.0001161961925
0.0001159392371
0.0001156799826
0.000115416464
0.0001151425641
0.0001148663885
0.0001145807157
0.0001142948819
0.0001140008602
0.0001137085365
0.0001134190571
0.0001134190571
0.0001131024593
0.000112803921
0.0001125096039
0.0001122221797
0.0001119311048
0.0001116465621
0.0001113631567
0.0001110831572
0.0001108113148
0.0001105449559
0.0001102790605
0.0001100168333
0.0001097574892
0.0001095061622
0.000109262613
0.000109021819
)
;
    }
    procBoundary2to3
    {
        type            processor;
        value           nonuniform List<scalar> 
51
(
0.000119761328
0.000119716533
0.000119716533
0.0001196874528
0.0001196444745
0.0001195885852
0.0001195182129
0.0001194319798
0.000119341695
0.0001192323542
0.000119113231
0.0001189801226
0.000118831551
0.0001186751086
0.0001185046939
0.0001183183812
0.0001181143875
0.0001179053843
0.0001176817591
0.0001174500508
0.0001172018585
0.0001169482526
0.0001166804813
0.0001164065988
0.0001161298564
0.0001158434875
0.0001155510869
0.0001152577487
0.0001149586435
0.0001146574662
0.0001143551683
0.0001140505085
0.0001137481468
0.0001134533238
0.0001131536017
0.000112854185
0.0001125592986
0.0001122736023
0.0001119885866
0.0001117097673
0.0001114365897
0.0001111656617
0.0001109040919
0.0001106516478
0.0001103999439
0.0001101556358
0.0001099115742
0.0001096754212
0.0001094474636
0.0001092273734
0.0001090095957
)
;
    }
}


// ************************************************************************* //
