/*--------------------------------*- C++ -*----------------------------------*\
  =========                 |
  \\      /  F ield         | OpenFOAM: The Open Source CFD Toolbox
   \\    /   O peration     | Website:  https://openfoam.org
    \\  /    A nd           | Version:  7
     \\/     M anipulation  |
\*---------------------------------------------------------------------------*/
FoamFile
{
    version     2.0;
    format      ascii;
    class       volVectorField;
    location    "0.0012";
    object      grad(generalizedNewtonian:nu);
}
// * * * * * * * * * * * * * * * * * * * * * * * * * * * * * * * * * * * * * //

dimensions      [0 1 -1 0 0 0 0];

internalField   nonuniform List<vector> 
1166
(
(-209477.9725 0 1226833.386)
(-437174.8343 0 1223197.194)
(-202755.806 3.091326197e-07 1193571.633)
(-424902.5899 0 1189825.095)
(-688027.1794 0 1183926.959)
(-955886.9383 -4.783784015e-08 1174066.905)
(-1197905.126 -3.825549727e-08 1161732.137)
(-1430978.684 0 1146502.778)
(-1651000.574 2.799936073e-08 1128657.748)
(-1854830.242 -2.49501226e-08 1108831.106)
(-2042787.493 0 1087039.961)
(-2214884.573 2.082238729e-08 1063009.535)
(-2369610.821 0 1037554.829)
(-2508319.97 0 1010340.592)
(-2629549.352 0 982224.4224)
(-2734286.835 0 952921.1113)
(-2822239.709 0 922857.0441)
(-2893875.793 0 891911.2542)
(-2949896.956 -1.454948004e-08 860555.2287)
(-2990509.888 -1.410122815e-08 828654.6523)
(-3017170.926 0 796687.1895)
(-3029244.096 0 764387.1527)
(-3029068.025 -6.536246209e-09 732247.1549)
(-3016342.177 0 700237.0817)
(-2992729.653 0 668576.533)
(-2959741.045 0 637435.5822)
(-2916898.808 0 606766.5088)
(-2866793.458 0 576837.7132)
(-2809417.398 0 547621.9824)
(-2745886.117 0 519262.8772)
(-2678349.384 0 491857.7743)
(-2605799.239 0 465375.1241)
(-2530269.028 0 439925.9253)
(-2453300.737 0 415563.6616)
(-2373851.356 -2.859734959e-09 392236.3419)
(-2293753.712 0 369975.6158)
(-2213621.075 0 348794.7479)
(-2133255.632 -1.419748872e-09 328685.2881)
(-2054101.34 -1.418652116e-09 309607.6113)
(-1975831.565 0 291584.9108)
(-1898952.752 0 274569.1833)
(-1824436.248 0 258506.7037)
(-1751315.321 0 243388.6301)
(-1680531.17 0 229159.3382)
(-1612408.768 0 215772.2382)
(-1546424.726 0 203228.7678)
(-1483314.205 -7.213854307e-10 191423.5989)
(-1422403.163 7.246602762e-10 180376.1871)
(-1363975.343 -7.282813645e-10 170007.6534)
(-1307782.142 7.322386616e-10 160258.17)
(-1256129.25 7.365233097e-10 151167.1921)
(-1217275.768 0 142560.7834)
(-195445.1373 -3.139469288e-07 1161924.351)
(-411222.3463 0 1158282.182)
(-666454.7834 0 1152422.58)
(-927025.0427 -4.858284776e-08 1142548.007)
(-1162473.757 3.885127326e-08 1130175.243)
(-1387023.073 0 1115160.792)
(-1598691.104 0 1097774.067)
(-1796854.263 0 1077747.116)
(-1978053.447 -2.298746896e-08 1055958.484)
(-2143144.384 2.114666692e-08 1032501.131)
(-2292874.319 0 1007220.509)
(-2425531.07 1.8464912e-08 980795.5492)
(-2542268.763 0 952902.9963)
(-2642096.446 0 924169.6783)
(-2725771.405 0 894334.3045)
(-2793603.384 7.650774805e-09 863984.1488)
(-2846051.919 0 832963.0816)
(-2884115.521 0 801738.4996)
(-2907459.877 0 770097.6345)
(-2918040.736 0 738498.7936)
(-2915752.394 0 706943.9624)
(-2902262.654 0 675654.7076)
(-2878353.056 0 644745.2511)
(-2844332.587 0 614250.7196)
(-2802648.76 0 584411.6524)
(-2752609.915 0 555230.8039)
(-2696202.998 0 526843.4258)
(-2634970.094 0 499355.7218)
(-2568280.201 0 472750.4097)
(-2498376.219 0 447122.1406)
(-2425692.744 0 422554.1997)
(-2350474.75 -2.916296665e-09 399000.832)
(-2274464.337 0 376471.6014)
(-2197163.493 0 355029.1883)
(-2119637.893 0 334637.2448)
(-2043108.882 1.441859479e-09 315266.4181)
(-1966727.106 1.440745643e-09 296951.9181)
(-1891767.888 0 279639.1487)
(-1818564.286 -1.441585063e-09 263286.1287)
(-1746691.666 0 247891.213)
(-1677167.406 0 233356.1702)
(-1609472.448 0 219737.1408)
(-1544099.311 0 206939.4172)
(-1481467.618 -7.296571404e-10 194888.2347)
(-1420871.148 0 183613.4234)
(-1363001.626 0 172999.5683)
(-1307173.487 -7.396233304e-10 163082.7493)
(-1253356.997 -7.436422569e-10 153784.9668)
(-1204278.357 0 145054.2305)
(-1167233.309 -7.526694223e-10 136854.399)
(-189309.6553 0 1130032.489)
(-399652.6421 0 1126542.583)
(-646796.8188 0 1121100.691)
(-897961.8935 0 1111635.089)
(-1125563.556 0 1099299.731)
(-1344028.78 0 1084072.912)
(-1548799.125 0 1066734.335)
(-1738709.146 -2.573330092e-08 1047247.743)
(-1914827.172 0 1025528.531)
(-2074465.382 0 1002321.79)
(-2217957.833 0 977643.7805)
(-2345979.49 -1.875247746e-08 951400.0562)
(-2457212.12 8.868283111e-09 924096.0225)
(-2552658.712 1.688329779e-08 895553.5503)
(-2632144.247 0 866344.6875)
(-2696370.666 0 836361.9966)
(-2745842.159 0 806018.2718)
(-2780527.854 7.271931148e-09 775159.9315)
(-2801984.991 0 744211.805)
(-2810304.948 0 713212.5185)
(-2807101.954 0 682411.0582)
(-2792523.307 0 651796.5923)
(-2767610.494 0 621562.2344)
(-2734377.679 0 591888.3508)
(-2692295.348 0 562809.5985)
(-2643581.656 0 534458.7662)
(-2588686.778 0 506922.8499)
(-2528174.557 0 480233.9521)
(-2464148.396 -3.017169051e-09 454460.6558)
(-2396081.992 0 429709.7976)
(-2325430.73 0 405953.6393)
(-2253429.564 -2.961713951e-09 383181.7577)
(-2179552.766 1.474750674e-09 361481.6657)
(-2105407.001 1.47001948e-09 340802.7585)
(-2031216.486 1.466568578e-09 321159.3329)
(-1957133.357 0 302555.6416)
(-1884446.037 -1.463183263e-09 284918.7412)
(-1812492.194 -1.463109703e-09 268309.3715)
(-1742020.394 -1.464035756e-09 252632.7358)
(-1673685.961 0 237811.3336)
(-1606846.482 0 223917.0459)
(-1542412.55 0 210828.2516)
(-1480029.745 0 198565.3)
(-1419824.543 7.410205409e-10 187052.541)
(-1362261.876 0 176207.8615)
(-1306727.85 -7.474071873e-10 166077.4938)
(-1253666.333 0 156541.5176)
(-1202325.48 7.552234563e-10 147652.283)
(-1155228.776 0 139327.7449)
(-1119582.662 0 131442.2224)
(-182770.3704 0 1099171.718)
(-387930.2944 0 1095598.296)
(-627923.6625 0 1089892.747)
(-871008.0802 0 1080251.378)
(-1090711.383 0 1067968.103)
(-1301027.636 0 1053304.398)
(-1499720.855 0 1036153.437)
(-1684084.23 0 1016854.379)
(-1852968.782 -2.370904075e-08 995786.1702)
(-2007347.308 0 972867.3896)
(-2145755.223 0 948402.679)
(-2267997.595 0 922626.0844)
(-2374865.189 0 895519.9799)
(-2465789.985 0 867594.4324)
(-2541654.953 0 838790.8278)
(-2602461.198 7.890931009e-09 809454.9638)
(-2648473.167 0 779497.5119)
(-2680853.935 0 749310.1161)
(-2699901.447 0 718969.2527)
(-2707080.703 0 688699.4924)
(-2702157.384 -6.846405767e-09 658523.1855)
(-2686662.019 0 628632.3998)
(-2662084.279 0 599198.925)
(-2628247.494 0 570288.8631)
(-2587441.761 0 542019.4264)
(-2539245.861 0 514499.8909)
(-2485284.882 0 487772.9865)
(-2427051.107 0 461891.5085)
(-2364282.927 0 436992.2418)
(-2298820.712 0 413034.9387)
(-2230663.2 0 390075.7567)
(-2160563.356 0 368134.6855)
(-2090063.814 0 347180.7814)
(-2018408.452 0 327284.0431)
(-1946889.89 0 308396.4092)
(-1876322.84 0 290464.6303)
(-1806159.98 0 273562.1785)
(-1737527.595 0 257564.9226)
(-1670109.508 0 242505.5191)
(-1604289.634 0 228329.2057)
(-1540819.892 0 214960.9558)
(-1478958.97 0 202446.0568)
(-1419387.03 0 190665.5687)
(-1361974.022 0 179613.0277)
(-1306661.241 0 169260.0168)
(-1253885.946 0 159507.5569)
(-1203024.417 0 150415.3969)
(-1154214.141 0 141860.4035)
(-1109145.274 0 133892.0111)
(-1074903.116 0 126360.2964)
(-176525.1701 0 1068213.296)
(-375779.5645 0 1064824.234)
(-607822.1509 0 1059139.989)
(-842579.4211 0 1049619.773)
(-1056578.936 0 1037356.567)
(-1261206.491 0 1022824.548)
(-1452329.12 0 1006026.438)
(-1630006.91 -2.654106324e-08 987179.0887)
(-1794172.406 0 966269.3456)
(-1942137.089 0 943751.9317)
(-2075064.321 0 919680.6319)
(-2192750.14 0 894163.3051)
(-2294822.274 0 867669.1087)
(-2382102.389 0 840178.2657)
(-2454094.806 0 811973.0938)
(-2511362.702 0 783031.7186)
(-2554670.888 0 753717.2366)
(-2584520.352 0 724143.8618)
(-2602022.253 0 694508.5948)
(-2607133.65 0 664868.2577)
(-2601404.636 0 635413.4107)
(-2585546.621 0 606287.1899)
(-2560228.715 0 577615.0931)
(-2527296.188 0 549488.446)
(-2486456.058 0 522043.3667)
(-2439653.944 0 495305.9384)
(-2387185.192 0 469390.7392)
(-2330022.823 0 444378.5658)
(-2269894.884 0 420272.6825)
(-2206034.715 0 397134.0149)
(-2140123.012 -3.070336482e-09 374971.6359)
(-2073047.477 0 353771.6634)
(-2004542.584 0 333615.0896)
(-1936106.071 0 314406.7014)
(-1867455.996 0 296243.3265)
(-1799293.824 0 279048.1658)
(-1732545.017 1.509112245e-09 262755.5813)
(-1666404.879 0 247419.2723)
(-1601902.293 0 232936.8689)
(-1539173.529 0 219316.3648)
(-1478074.592 0 206535.9353)
(-1419248.457 0 194477.7746)
(-1362098.468 0 183206.0626)
(-1307181.392 0 172602.2)
(-1254454.952 0 162653.6006)
(-1203785.509 -7.708681248e-10 153352.6187)
(-1155435.864 0 144593.1768)
(-1108623.586 0 136433.7457)
(-1065660.026 0 128748.8335)
(-1032756.137 0 121551.5948)
(-170829.2734 0 1037383.207)
(-364834.8138 0 1034051.226)
(-589897.44 0 1028493.562)
(-816765.7976 0 1019276.514)
(-1023186.459 0 1007522.318)
(-1220777.034 0 993254.5066)
(-1406832.487 0 976586.2858)
(-1578607.415 -1.34772017e-08 957974.743)
(-1735723.446 0 937441.9303)
(-1879226.445 0 915096.7218)
(-2006856.884 0 891388.482)
(-2119640.734 0 866465.384)
(-2217980.587 0 840417.9783)
(-2300925.527 0 813461.9771)
(-2369311.621 0 785652.4342)
(-2423494.136 0 757324.854)
(-2464165.848 0 728629.2084)
(-2492061.999 0 699730.6872)
(-2507342.612 0 670723.024)
(-2511494.366 7.222339244e-09 641774.304)
(-2504629.393 7.061312677e-09 613060.2448)
(-2488108.914 0 584706.416)
(-2463281.346 0 556794.0443)
(-2430088.683 0 529488.4792)
(-2390582.872 0 502815.1012)
(-2344350.771 0 476903.965)
(-2293226.32 -3.218583719e-09 451821.9039)
(-2238312.395 0 427603.5943)
(-2179334.086 0 404317.5342)
(-2118127.244 0 381912.0986)
(-2054438.938 0 360544.0668)
(-1989333.952 0 340144.5919)
(-1923990.343 0 320667.2516)
(-1857784.283 0 302229.908)
(-1792046.715 0 284717.9392)
(-1726896.999 0 268174.6195)
(-1662379.484 0 252556.6716)
(-1599407.228 0 237756.4469)
(-1537484.794 0 223888.5018)
(-1477349.655 0 210825.2032)
(-1419127.387 0 198516.64)
(-1362513.436 0 186994.0444)
(-1308130.184 0 176122.2063)
(-1255475.901 0 165977.4507)
(-1205035.097 0 156437.1811)
(-1156729.923 0 147500.0308)
(-1110301.76 0 139147.8773)
(-1065731.659 0 131271.3771)
(-1024472.705 0 123944.8018)
(-993025.0754 0 116995.0853)
(-164970.5892 0 1007555.326)
(-353520.8865 0 1004289.05)
(-571479.1387 0 998789.5328)
(-791202.5593 0 989710.3992)
(-991936.1917 0 978009.7655)
(-1183127.277 0 963979.8638)
(-1361826.452 0 947673.8263)
(-1527778.3 0 929264.715)
(-1680138.193 0 908953.2914)
(-1817458.16 0 887132.1264)
(-1940958.193 -1.062547844e-08 863881.08)
(-2049568.098 0 839402.631)
(-2143167.253 -9.433767976e-09 813814.3357)
(-2222462.279 0 787258.2428)
(-2287408.241 0 760038.9322)
(-2338867.509 0 732338.8536)
(-2377178.264 0 704286.9374)
(-2402713.738 0 676017.4743)
(-2416634.191 7.521649285e-09 647673.7081)
(-2419224.751 0 619465.9162)
(-2411930.707 0 591480.2513)
(-2395212.92 0 563897.8899)
(-2369936.639 3.45107832e-09 536798.807)
(-2337756.421 0 510248.0965)
(-2298347.901 -3.347637325e-09 484394.3223)
(-2253793.03 0 459239.7902)
(-2204105.881 0 435002.9592)
(-2150298.466 0 411607.908)
(-2093754.556 0 389032.8441)
(-2034124.08 0 367468.5115)
(-1972988.932 0 346797.2483)
(-1910461.087 -1.575283619e-09 327126.6246)
(-1847057.735 0 308424.1951)
(-1783953.844 0 290606.3258)
(-1720608.347 0 273806.5773)
(-1657998.439 0 257894.4498)
(-1596374.65 0 242821.7996)
(-1535663.048 0 228666.3664)
(-1476753.573 0 215284.7991)
(-1419045.345 0 202760.4376)
(-1363119.942 7.811683971e-10 190968.7434)
(-1309174.001 0 179856.9084)
(-1256859.043 0 169473.8156)
(-1206740.188 0 159678.5093)
(-1158398.736 0 150557.5847)
(-1112211.488 0 141975.8674)
(-1067849.504 0 133943.5986)
(-1025034.074 0 126429.5817)
(-985671.5099 0 119350.7457)
(-955647.5701 0 112728.5)
(-159670.7065 0 978063.6729)
(-343195.1709 0 974881.7297)
(-554581.0225 7.258580035e-08 969426.8945)
(-766607.5013 0 960471.15)
(-960297.2491 0 948993.3622)
(-1145420.443 0 935102.8021)
(-1319102.341 0 918953.9245)
(-1479024.348 0 900894.8242)
(-1625436.762 0 881111.9539)
(-1759047.191 0 859740.6534)
(-1877252.714 -2.158191106e-08 836974.5628)
(-1981163.467 0 812884.1955)
(-2071058.744 -9.580685828e-09 787710.1036)
(-2146591.247 0 761729.6364)
(-2208740.169 0 735150.705)
(-2257430.76 0 708061.0792)
(-2293258.265 0 680640.2893)
(-2317037.868 0 653004.6633)
(-2329232.183 0 625400.5661)
(-2331173.644 0 597892.9084)
(-2322969.627 0 570700.1981)
(-2305981.776 0 543880.6826)
(-2281216.552 0 517539.8346)
(-2248914.171 0 491807.6879)
(-2210898.383 3.399772133e-09 466683.5346)
(-2167101.999 0 442420.7557)
(-2119060.082 0 418905.7485)
(-2067044.383 0 396258.6556)
(-2011806.024 0 374525.4094)
(-1954785.049 0 353636.5958)
(-1895490.076 0 333754.4803)
(-1835290.325 0 314777.3411)
(-1774607.324 1.593219647e-09 296719.5753)
(-1713530.445 0 279639.3419)
(-1653150.273 0 263400.6066)
(-1592850.874 0 248107.0932)
(-1533558.026 0 233655.5697)
(-1475735.739 1.580643539e-09 219997.6894)
(-1418956.864 0 207200.3615)
(-1363987.12 0 195098.1524)
(-1310332.83 0 183790.1517)
(-1258492.108 0 173147.0407)
(-1208625.785 -1.595418833e-09 163130.3854)
(-1160447.061 0 153783.7688)
(-1114414.857 0 144967.9249)
(-1070081.358 0 136763.2126)
(-1027691.227 0 129024.3228)
(-986718.3937 0 121805.6025)
(-948893.1146 0 115041.4365)
(-919934.427 0 108650.1504)
(-154271.7306 0 948965.178)
(-332504.9803 0 945836.4825)
(-537132.5231 0 940405.076)
(-742651.7368 -5.413309213e-08 931573.4568)
(-930841.1383 0 920253.507)
(-1109635.503 0 906650.5034)
(-1276741.015 0 890946.9818)
(-1431966.816 0 873312.8372)
(-1574032.376 0 853948.5482)
(-1701594.384 0 832963.1175)
(-1815663.675 0 810529.0646)
(-1915392.267 0 786868.9953)
(-2001260.018 -9.729891698e-09 762266.9879)
(-2073929.91 0 736941.1143)
(-2132898.941 -8.864642256e-09 710934.2733)
(-2178993.749 0 684476.7088)
(-2212668.104 -8.232064208e-09 657655.7517)
(-2234565.314 0 630756.0726)
(-2245711.995 0 603819.1913)
(-2246400.2 7.565055458e-09 577101.1225)
(-2238059.759 0 550589.0822)
(-2220863.195 3.624261772e-09 524574.0664)
(-2195945.636 0 499044.6933)
(-2164616.392 0 474020.7235)
(-2127062.95 0 449790.2194)
(-2084947.848 0 426233.0979)
(-2037905.852 0 403531.4932)
(-1987503.534 -3.338508144e-09 381640.608)
(-1934448.391 0 360611.095)
(-1878881.82 -1.643146888e-09 340527.1184)
(-1822221.857 0 321270.0599)
(-1764064.815 0 303020.5388)
(-1705548.107 0 285661.1173)
(-1647224.437 -1.61284097e-09 269160.3214)
(-1588785.181 0 253593.8863)
(-1531291.126 0 238798.8813)
(-1474372.799 0 224934.2424)
(-1418685.658 0 211853.8302)
(-1364563.506 0 199486.8071)
(-1311588.897 0 187918.5858)
(-1260450.414 0 176979.2834)
(-1210719.261 0 166778.0856)
(-1162849.121 -8.101326323e-10 157177.1743)
(-1116885.689 0 148166.9432)
(-1072615.346 0 139756.8357)
(-1030329.014 0 131810.9106)
(-989588.4193 0 124421.0725)
(-950488.4843 0 117443.6644)
(-914208.3994 0 110963.8576)
(-886389.2778 4.193282718e-10 104823.4949)
(-149308.1007 3.552609828e-07 920199.0572)
(-322654.3408 0 917166.3776)
(-521112.0742 0 911834.4778)
(-719459.5229 0 903237.2374)
(-901229.1602 0 892271.3619)
(-1074844.181 0 879022.1918)
(-1237422.722 0 863689.6037)
(-1386777.647 0 846397.1771)
(-1523014.599 1.300626008e-08 827304.8909)
(-1646794.333 0 806655.3971)
(-1755896.228 0 784631.5782)
(-1851747.912 0 761544.0934)
(-1934676.355 0 737605.0675)
(-2003746.411 -9.406047099e-09 712805.4503)
(-2060015.973 0 687432.7621)
(-2103562.142 0 661542.8505)
(-2135211.714 0 635460.1663)
(-2155664.638 0 609199.6909)
(-2165393.186 0 583056.593)
(-2165559.868 -7.682870678e-09 556994.713)
(-2156486.39 3.755788138e-09 531335.7435)
(-2139526.935 0 505976.5962)
(-2114880.398 0 481209.4416)
(-2083819.583 3.557078552e-09 457074.3833)
(-2047682.953 0 433548.5258)
(-2006148.455 0 410820.0429)
(-1960967.349 3.423816251e-09 388775.3581)
(-1912013.591 1.695250383e-09 367676.8489)
(-1860510.863 0 347412.0762)
(-1807266.908 0 327959.0858)
(-1752217.435 0 309479.9611)
(-1696688.821 0 291802.4748)
(-1640324.428 0 275118.4135)
(-1583970.548 1.637958726e-09 259279.3417)
(-1528152.742 0 244209.5204)
(-1472650.943 0 230060.7669)
(-1418406.323 0 216643.2699)
(-1364927.831 -8.151297782e-10 204083.1153)
(-1312778.98 -8.156457019e-10 192236.7296)
(-1262245.116 0 181051.4402)
(-1212980.295 0 170601.4261)
(-1165572.578 0 160721.8934)
(-1119647.499 8.227493216e-10 151530.1202)
(-1075594.378 0 142871.7159)
(-1033233.413 0 134763.2548)
(-992538.2671 8.3279313e-10 127178.0994)
(-953663.7574 0 120018.5484)
(-916080.9481 0 113364.684)
(-881388.5968 8.464263497e-10 107077.6788)
(-854741.1497 0 101215.7195)
(-144384.0768 1.803968433e-07 892335.4841)
(-312726.9896 0 889410.4864)
(-504976.4457 0 884199.3606)
(-697588.5556 -2.791615897e-08 875807.5258)
(-874297.0174 -2.23243052e-08 865110.1818)
(-1041848.174 0 852102.5223)
(-1198046.598 0 836969.8464)
(-1342635.102 0 819896.4861)
(-1474686.93 1.320881479e-08 801184.8083)
(-1592979.812 0 780970.827)
(-1698722.975 0 759496.5734)
(-1791221.502 0 737049.8349)
(-1870161.958 0 713573.4541)
(-1936459.06 -9.552533416e-09 689406.4378)
(-1989805.049 0 664567.1959)
(-2031209.683 0 639419.0768)
(-2061025.748 0 613948.2442)
(-2079909.843 -8.228885868e-09 588482.4253)
(-2088730.906 0 562966.455)
(-2087968.367 0 537754.1559)
(-2078820.232 0 512734.0675)
(-2061481.088 0 488219.658)
(-2037521.806 0 464137.6563)
(-2007294.947 0 440789.2506)
(-1971524.666 0 418092.5565)
(-1931534.814 0 395996.0475)
(-1887313.226 0 374799.6221)
(-1840388.327 1.721651589e-09 354312.1722)
(-1790518.686 0 334775.8825)
(-1738846.281 -1.694724906e-09 316084.4895)
(-1686205.931 0 298178.1208)
(-1632382.913 0 281241.1262)
(-1578548.428 0 265070.5795)
(-1524246.018 0 249825.7107)
(-1470354.65 0 235385.079)
(-1417433.986 0 221698.8368)
(-1365067.784 1.655731859e-09 208866.0456)
(-1314043.701 0 196693.8041)
(-1263949.742 0 185320.9203)
(-1215301.919 -8.294086511e-10 174593.9093)
(-1168255.01 0 164493.1783)
(-1122611.059 0 155063.1616)
(-1078815.835 0 146150.4475)
(-1036466.402 0 137863.5345)
(-995923.2474 0 130035.2285)
(-956907.8519 -8.457627438e-10 122736.8598)
(-919515.8828 0 115884.1641)
(-883593.5899 4.273038e-10 109444.5094)
(-850228.7038 8.596082823e-10 103451.4994)
(-824569.5298 0 97756.82364)
(-139914.5498 0 865204.429)
(-303683.249 0 862351.2309)
(-490181.7656 0 857196.4644)
(-676169.9373 5.670182831e-08 848944.0913)
(-846736.0363 -4.534395013e-08 838319.042)
(-1009127.153 0 825439.0188)
(-1160911.617 0 810601.5572)
(-1300275.698 0 793877.3169)
(-1427217.401 -1.341452363e-08 775592.0168)
(-1542305.746 0 756001.8536)
(-1643795.067 0 735091.4635)
(-1732342.33 0 713074.5232)
(-1808496.021 0 690245.9711)
(-1871523.536 0 666586.0015)
(-1922633.592 0 642494.9004)
(-1961823.745 0 617931.9193)
(-1989920.944 0 593253.437)
(-2007497.77 8.357039271e-09 568389.2047)
(-2015210.76 -8.125874728e-09 543718.8879)
(-2014028.783 3.962017122e-09 519128.9339)
(-2004268.239 0 494947.4949)
(-1987362.984 3.796241092e-09 471076.6195)
(-1963589.964 0 447888.1549)
(-1934171.761 0 425179.2188)
(-1899349.333 3.616558086e-09 403186.3285)
(-1860104.102 0 381946.9569)
(-1817679.347 0 361359.8224)
(-1771859.548 -1.748463908e-09 341682.6056)
(-1724110.585 0 322715.7972)
(-1674213.501 0 304709.0826)
(-1623170.781 0 287527.07)
(-1571740.082 -1.70182853e-09 271117.1229)
(-1519542.469 -1.694811055e-09 255619.4846)
(-1467676.538 0 240831.6634)
(-1415881.91 -1.685408037e-09 226963.9437)
(-1364813.514 1.682817546e-09 213840.0963)
(-1314792.021 8.407587848e-10 201417.2394)
(-1265537.143 1.681433033e-09 189780.5258)
(-1217718.424 0 178744.6601)
(-1170965.643 0 168455.7957)
(-1125776.564 0 158747.4268)
(-1082117.154 0 149644.3703)
(-1039928.343 0 141138.8281)
(-999480.4202 0 133087.4465)
(-960448.1905 0 125606.7141)
(-923157.5108 0 118530.0716)
(-887261.7734 0 111960.8241)
(-852806.111 -8.679169197e-10 105760.6796)
(-820773.1807 -4.364977403e-10 99978.36)
(-796056.3238 -8.784526706e-10 94520.92238)
(-135365.6075 0 838244.4898)
(-294328.7816 0 835421.0797)
(-474982.9608 0 830276.1353)
(-655413.5048 0 822138.8635)
(-821079.0445 0 811809.5686)
(-978120.7014 0 799241.2171)
(-1124231.244 0 784756.1332)
(-1259312.976 0 768509.0547)
(-1382902.902 0 750819.5084)
(-1493027.392 0 731607.2467)
(-1590824.806 0 711177.6636)
(-1676412.912 0 689815.4985)
(-1748919.742 1.035031684e-08 667449.8098)
(-1809610.98 0 644524.7658)
(-1858125.851 0 620972.217)
(-1895456.649 0 597184.152)
(-1921863.082 0 573069.0509)
(-1938175.151 0 549058.7355)
(-1945112.408 -4.126212002e-09 525008.9836)
(-1943119.686 0 501271.0935)
(-1933403.321 0 477720.1583)
(-1916411.879 0 454761.8304)
(-1893347.62 0 432182.8514)
(-1864246.591 0 410293.0074)
(-1830569.945 0 388951.2653)
(-1792580.106 0 368418.0539)
(-1751048.16 0 348648.4955)
(-1707120.984 0 329533.1573)
(-1660629.324 0 311349.4501)
(-1612883.942 0 293862.5731)
(-1563685.889 0 277330.8108)
(-1513826.275 0 261575.9176)
(-1463879.202 0 246545.4304)
(-1413720.515 0 232407.2724)
(-1364271.087 0 218947.9757)
(-1315132.059 0 206340.687)
(-1266913.609 0 194408.1563)
(-1219789.165 0 183146.6368)
(-1173640.521 0 172602.9627)
(-1129005.494 0 162606.9647)
(-1085547.441 0 153309.8074)
(-1043732.681 0 144526.4927)
(-1003239.809 0 136321.2412)
(-964242.2386 0 128618.0429)
(-926942.5893 0 121363.9565)
(-891036.307 0 114614.4864)
(-856703.3921 0 108219.3752)
(-823544.9783 0 102293.0141)
(-792833.6529 0 96677.86878)
(-769108.6346 0 91451.13794)
(-131124.1143 0 811592.6415)
(-285636.534 6.457335601e-08 808884.8247)
(-460933.4774 0 803854.3158)
(-635571.3287 0 795955.1066)
(-795692.8985 2.338364287e-08 785862.9985)
(-947886.125 0 773700.4698)
(-1090131.869 0 759758.5576)
(-1220745.821 0 744010.0465)
(-1339155.961 0 726667.2048)
(-1445973.527 0 707920.0679)
(-1540370.676 0 688054.3908)
(-1622102.212 1.111358449e-08 667079.972)
(-1692203.565 0 645420.9299)
(-1749939.899 0 622973.2406)
(-1796488.985 0 600162.5175)
(-1831770.801 9.209633083e-09 576908.5404)
(-1856832.456 0 553600.8435)
(-1872072.451 0 530237.1925)
(-1878040.501 0 507010.6886)
(-1875717.84 0 483913.0641)
(-1865701.716 0 461293.7515)
(-1849114.753 0 438963.7569)
(-1826064.428 0 417240.7007)
(-1797935.938 -3.783895126e-09 395939.7862)
(-1764919.555 0 375437.5871)
(-1728277.114 0 355500.3893)
(-1688080.215 0 336395.9791)
(-1645224.409 -1.803347766e-09 318066.3129)
(-1600699.723 1.78811377e-09 300403.2152)
(-1554319.851 0 283664.6939)
(-1507222.192 -1.764244037e-09 267600.8256)
(-1459092.936 -1.755248516e-09 252432.1173)
(-1410812.899 1.748010764e-09 238001.2829)
(-1362846.754 -1.742402915e-09 224313.2187)
(-1315015.995 0 211443.0727)
(-1268052.077 0 199189.7021)
(-1221612.066 8.671499995e-10 187735.7799)
(-1176290.264 0 176889.077)
(-1132053.374 0 166696.8858)
(-1088995.604 0 157153.7219)
(-1047497.02 0 148112.8426)
(-1007184.624 0 139710.2198)
(-968431.7248 0 131744.0594)
(-930986.6642 8.783260141e-10 124346.9088)
(-895118.4565 0 117369.939)
(-860668.3549 0 110837.058)
(-827590.8536 0 104724.2798)
(-795847.184 0 98962.71031)
(-766264.5244 0 93608.30966)
(-743413.6198 0 88509.42832)
(-127065.1749 -1.918998201e-07 785689.3196)
(-277048.5139 0 783123.1513)
(-446967.9039 0 778212.408)
(-616455.204 2.969622854e-08 770530.6473)
(-772235.486 0 760808.2945)
(-919932.4763 0 748989.4554)
(-1056898.111 0 735239.985)
(-1182943.174 0 719861.964)
(-1298092.021 0 703079.3325)
(-1400644.464 0 684782.2757)
(-1491295.187 0 665356.654)
(-1570596.057 0 645121.1095)
(-1637390.294 0 623923.9698)
(-1693047.171 0 602208.0128)
(-1737249.588 0 579969.153)
(-1771001.192 0 557465.1273)
(-1794763.025 0 534916.8372)
(-1808918.345 4.376799752e-09 512202.0559)
(-1814167.729 0 489690.0429)
(-1811478.192 0 467367.135)
(-1801515.283 -4.057496337e-09 445430.076)
(-1784740.701 0 423927.7349)
(-1762309.563 3.905225248e-09 402788.4278)
(-1734553.61 0 382365.8358)
(-1702722.087 0 362414.9327)
(-1666843.977 0 343279.6787)
(-1628209.645 0 324721.1567)
(-1586774.521 0 307036.5793)
(-1543454.88 0 290090.698)
(-1499029.358 -1.802788778e-09 273849.1175)
(-1453254.548 0 258465.6785)
(-1407183.124 0 243712.8939)
(-1360659.323 0 229858.6296)
(-1314399.324 0 216683.3495)
(-1268528.47 0 204223.32)
(-1223098.622 0 192510.6485)
(-1178694.829 8.806546724e-10 181362.7325)
(-1134996.27 0 170966.0741)
(-1092601.664 0 161111.4768)
(-1051245.097 0 151906.9272)
(-1011195.279 0 143254.21)
(-972631.3932 0 135091.6481)
(-935258.5784 0 127487.8396)
(-899428.9879 -8.920047381e-10 120280.7705)
(-864879.9135 -4.47813416e-10 113597.447)
(-831846.9777 0 107263.5117)
(-800071.3139 0 101384.8608)
(-769535.2832 0 95834.72076)
(-741076.0041 0 90648.54954)
(-719054.1036 -4.600686088e-10 85759.82802)
(-123376.964 0 760543.7097)
(-269151.8278 0 758105.7105)
(-434066.2519 4.106888863e-08 753347.6364)
(-598476.019 0 745909.2668)
(-749135.833 0 736330.1489)
(-891758.3757 0 724831.882)
(-1025102.032 0 711422.1313)
(-1147664.872 0 696511.127)
(-1257980.209 0 679947.4006)
(-1357099.854 0 662210.6058)
(-1445207.794 0 643557.1498)
(-1520824.49 0 623757.775)
(-1585369.272 0 603293.0692)
(-1638458.85 0 582195.9386)
(-1680889.657 0 560647.4913)
(-1713195.498 0 539015.7735)
(-1735450.354 0 516991.3773)
(-1748527.456 0 495108.2504)
(-1753253.899 0 473165.5882)
(-1750221.14 0 451662.5666)
(-1740212.242 0 430303.0282)
(-1723598.671 0 409461.1756)
(-1701443.858 0 389089.2913)
(-1674575.424 0 369258.8488)
(-1643265.889 0 350132.442)
(-1608724.726 0 331505.2021)
(-1570983.631 -1.878230616e-09 313730.2225)
(-1531217.474 0 296524.8374)
(-1489377.988 0 280218.4844)
(-1446252.338 0 264590.3015)
(-1402282.317 0 249662.0348)
(-1357620.011 0 235564.4868)
(-1313112.431 0 222081.1186)
(-1268441.2 0 209434.6588)
(-1224321.459 0 197399.2749)
(-1180650.185 0 186073.6726)
(-1137703.813 0 175413.4417)
(-1095917.015 0 165296.6533)
(-1054994.226 8.948907397e-10 155872.3139)
(-1015427.903 0 146923.8886)
(-976911.1775 0 138609.9035)
(-939760.5391 0 130746.8226)
(-903888.4318 -9.026845202e-10 123381.9951)
(-869323.7465 0 116488.9611)
(-836230.031 0 109979.0594)
(-804386.6861 0 103935.5331)
(-773920.0886 0 98195.51128)
(-744480.6445 0 92880.05147)
(-717149.1304 -4.643309592e-10 87831.92166)
(-696030.475 0 83147.96815)
(-119819.4985 1.979235112e-07 735787.3532)
(-261405.4454 0 733403.6057)
(-421352.1249 0 728886.0518)
(-580716.7855 0 721761.2272)
(-727393.8145 0 712439.4188)
(-866067.4735 0 701390.5444)
(-994649.5647 0 688374.3985)
(-1112504.168 0 673746.5969)
(-1219959.162 0 657727.5558)
(-1316233.552 0 640681.851)
(-1400426.018 0 622367.504)
(-1473699.338 0 603255.7123)
(-1535500.176 0 583374.7529)
(-1586545.993 0 562926.1784)
(-1627410.303 0 542277.5017)
(-1657840.258 0 521080.3393)
(-1678842.415 0 499904.0124)
(-1691016.896 4.514186486e-09 478539.5169)
(-1695119.494 0 457514.4687)
(-1691792.486 0 436503.1431)
(-1681479.338 0 415960.0349)
(-1665297.388 0 395642.0685)
(-1643602.461 0 376008.7859)
(-1617366.015 0 356805.6781)
(-1586995.497 0 338259.46)
(-1553180.954 0 320405.8475)
(-1516904.37 0 303109.7593)
(-1478155.459 0 286660.6832)
(-1437981.036 1.872963794e-09 270775.6104)
(-1396204.155 1.859377902e-09 255739.551)
(-1353747.74 0 241341.3607)
(-1310830.98 0 227698.3641)
(-1267672.985 0 214808.8234)
(-1224893.849 9.125419282e-10 202484.8624)
(-1182223.246 9.103997166e-10 190952.4086)
(-1140339.304 0 179963.3871)
(-1099002.326 0 169688.2795)
(-1058643.227 0 159982.0834)
(-1019445.261 -9.088274202e-10 150832.3032)
(-981226.5298 0 142290.9961)
(-944330.1555 0 134170.0708)
(-908505.9535 0 126633.896)
(-874084.7263 9.167425779e-10 119487.2246)
(-840832.956 9.20004561e-10 112845.0751)
(-808969.7436 0 106577.7729)
(-778365.5242 0 100712.9177)
(-748957.5188 0 95215.01789)
(-720706.2503 0 90034.61363)
(-694364.8138 0 85214.69874)
(-673973.751 0 80637.84846)
(-116401.0594 0 711960.3488)
(-254409.8551 0 709610.7021)
(-409967.0308 0 705153.5685)
(-564430.2287 0 698237.3784)
(-706486.9092 0 689160.5313)
(-840514.6788 0 678184.8273)
(-965256.5563 0 665635.8284)
(-1080133.942 0 651676.9257)
(-1183828.612 0 636247.6468)
(-1276313.237 0 619552.1783)
(-1358139.561 0 601911.9542)
(-1428421.039 0 583312.3831)
(-1488017.431 0 564062.826)
(-1537414.305 0 544487.6626)
(-1576047.393 0 524214.3559)
(-1605070.267 0 503824.6037)
(-1624837.639 0 483117.7087)
(-1636265.203 0 462674.2435)
(-1639805.313 0 442149.9377)
(-1635989.317 0 422014.7091)
(-1625749.097 0 401986.7435)
(-1609604.896 0 382565.5489)
(-1588523.657 0 363413.4798)
(-1562760.319 0 344970.0471)
(-1533415.552 0 326957.7275)
(-1500635.42 0 309713.704)
(-1465277.178 0 293091.0852)
(-1428000.188 0 277118.0319)
(-1388831.089 0 261920.5071)
(-1348720.372 0 247256.141)
(-1307621.698 0 233455.5094)
(-1266363.628 0 220239.7789)
(-1224744.698 0 207782.0337)
(-1183270.384 0 195976.8887)
(-1142383.354 0 184756.2099)
(-1101840.842 0 174249.9284)
(-1062243.121 0 164232.1138)
(-1023362.07 0 154914.0254)
(-985642.9046 0 146078.3508)
(-948866.2201 0 137802.752)
(-913197.9635 0 130026.1003)
(-878872.3378 0 122686.6935)
(-845638.2351 0 115860.9645)
(-813751.939 0 109369.9392)
(-783021.7865 0 103366.3532)
(-753611.3227 0 97658.72301)
(-725300.0235 0 92369.7786)
(-698092.6808 0 87360.33712)
(-672731.5319 0 82698.81259)
(-653059.2412 0 78285.71025)
(-113049.3586 2.04136281e-07 688788.5547)
(-247095.3514 0 686481.6543)
(-398207.0614 0 681872.8582)
(-548123.8343 0 675076.2395)
(-686025.1645 0 666416.3459)
(-816777.9781 0 655858.8676)
(-938150.0457 0 643796.83)
(-1048737.682 0 630066.6912)
(-1148997.426 0 615125.8561)
(-1239003.7 0 599140.7608)
(-1317400.689 0 581913.3597)
(-1385385.683 0 563978.8998)
(-1443231.922 0 545572.4822)
(-1490043.267 0 526300.7438)
(-1527120.668 0 506811.1465)
(-1554559.291 0 486855.9109)
(-1573514.634 4.803887647e-09 467033.1721)
(-1584156.514 0 447134.825)
(-1587094.495 4.527098956e-09 427422.2427)
(-1583053.394 -4.414649296e-09 407825.5728)
(-1572691.735 0 388674.5315)
(-1556895.183 -2.114967269e-09 369770.6871)
(-1535985.035 -2.077120651e-09 351482.5459)
(-1511023.164 2.043930581e-09 333509.5327)
(-1482234.784 0 316292.3479)
(-1450641.47 0 299493.9511)
(-1416351.691 0 283515.9543)