/*--------------------------------*- C++ -*----------------------------------*\
  =========                 |
  \\      /  F ield         | OpenFOAM: The Open Source CFD Toolbox
   \\    /   O peration     | Website:  https://openfoam.org
    \\  /    A nd           | Version:  7
     \\/     M anipulation  |
\*---------------------------------------------------------------------------*/
FoamFile
{
    version     2.0;
    format      ascii;
    class       volVectorField;
    location    "0.0027";
    object      grad(generalizedNewtonian:nu);
}
// * * * * * * * * * * * * * * * * * * * * * * * * * * * * * * * * * * * * * //

dimensions      [0 1 -1 0 0 0 0];

internalField   nonuniform List<vector> 
1167
(
(-5291.197181 0 180379.4394)
(-1394.012488 0 179374.5823)
(-4683.128361 0 159841.8003)
(-1108.651957 0 158940.0167)
(-5453.198496 0 159038.1515)
(-11398.23101 -1.102453413e-09 157456.4128)
(-12514.05791 -8.816222349e-10 155851.4206)
(-14871.75271 0 153986.1706)
(-17001.85467 0 151872.86)
(-18853.59172 2.874957119e-10 149591.6158)
(-20503.60959 0 147189.6292)
(-21941.64348 2.399325709e-10 144700.5331)
(-23183.1747 -2.23186911e-10 142167.2806)
(-24251.93828 0 139636.6775)
(-25144.92015 0 137122.9938)
(-25889.47084 0 134663.1758)
(-26502.27858 0 132278.8038)
(-26992.35372 1.736131822e-10 129977.9548)
(-27381.10972 0 127794.2429)
(-27677.14432 0 125717.2282)
(-27896.98927 1.579913487e-10 123778.726)
(-28048.19184 0 121965.3187)
(-28142.21134 -1.506319458e-10 120300.6779)
(-28185.54564 0 118771.1436)
(-28182.69612 0 117394.0788)
(-28139.27837 0 116154.8195)
(-28056.15464 0 115066.7403)
(-27936.21523 0 114115.0778)
(-27774.39456 0 113307.2162)
(-27570.95308 0 112628.4827)
(-27317.6324 0 112081.658)
(-27013.79783 0 111652.1504)
(-26648.4758 0 111336.5991)
(-26218.99827 -6.617729015e-11 111120.3529)
(-25721.62981 0 110993.43)
(-25152.71878 -6.569297865e-11 110939.7708)
(-24516.65275 0 110945.0881)
(-23814.3407 0 110986.3477)
(-23060.34159 0 111047.1015)
(-22267.81089 -6.538419103e-11 111098.934)
(-21459.06158 0 111122.2795)
(-20654.36759 -6.550932737e-11 111082.6767)
(-19881.33173 0 110960.4183)
(-19164.82442 0 110724.7942)
(-18529.81909 0 110359.751)
(-17997.76406 0 109844.1891)
(-17581.16558 3.324957096e-11 109173.0524)
(-17271.09146 0 108334.387)
(-17017.10044 0 107335.5737)
(-16868.01106 0 106195.6716)
(-16779.59689 0 104960.771)
(-16630.38963 -3.415950329e-11 103429.2179)
(-4145.248241 0 141640.6189)
(-856.4990049 1.236246174e-09 140830.7666)
(-4751.432064 0 140918.7162)
(-10068.05761 0 139492.1475)
(-11030.49691 0 138045.5123)
(-13141.49532 0 136358.2803)
(-15060.71099 0 134453.8058)
(-16746.94432 0 132394.9339)
(-18257.33921 0 130218.7368)
(-19594.28695 0 127956.2353)
(-20773.74852 -2.26662646e-10 125662.0123)
(-21800.01447 0 123357.7967)
(-22684.41688 0 121065.3842)
(-23448.26853 0 118826.6085)
(-24094.83212 0 116642.9223)
(-24645.85795 0 114545.4513)
(-25108.06803 0 112540.9244)
(-25496.82255 0 110644.914)
(-25822.2175 0 108866.1347)
(-26093.02949 0 107211.4111)
(-26316.77846 0 105688.8983)
(-26499.57543 0 104301.2677)
(-26645.1663 0 103052.4981)
(-26755.98269 0 101946.8717)
(-26836.21023 0 100981.7893)
(-26880.65348 0 100162.2896)
(-26890.38558 6.97280767e-11 99482.91809)
(-26856.04554 0 98946.59)
(-26776.79233 0 98547.98227)
(-26639.1219 0 98284.92802)
(-26439.42331 0 98150.52889)
(-26166.29315 0 98141.37104)
(-25811.71476 -6.693075137e-11 98244.94813)
(-25372.93822 0 98456.1134)
(-24839.75756 0 98753.47261)
(-24217.50916 0 99128.24394)
(-23505.609 0 99554.92626)
(-22716.64329 0 100012.3517)
(-21858.13178 0 100472.2434)
(-20950.71979 0 100900.1073)
(-20018.07258 0 101266.2117)
(-19084.08352 0 101530.6602)
(-18179.61694 0 101663.1886)
(-17332.21091 0 101630.9004)
(-16567.03994 0 101413.9571)
(-15887.65706 0 100996.9713)
(-15278.92695 0 100376.704)
(-14822.68995 0 99580.63474)
(-14270.58522 0 98643.76107)
(-13435.06448 0 97406.58489)
(-3669.780645 0 125551.7841)
(-633.1558186 0 124825.5466)
(-4128.225135 1.548401181e-09 124903.8521)
(-8887.347926 0 123618.3372)
(-9710.493 0 122312.3268)
(-11605.81812 0 120793.314)
(-13337.26329 0 119078.4352)
(-14867.79663 0 117215.4442)
(-16249.99795 0 115236.8359)
(-17495.51845 2.47464105e-10 113186.2449)
(-18612.94243 -2.301927954e-10 111098.9518)
(-19598.34777 0 108991.0334)
(-20472.61854 -2.043753073e-10 106900.6004)
(-21243.44454 0 104844.3542)
(-21920.88561 0 102837.7714)
(-22520.18754 0 100907.4456)
(-23048.88892 0 99052.6468)
(-23519.02486 0 97302.09818)
(-23938.92448 -8.14753653e-11 95647.96488)
(-24316.84411 0 94114.10802)
(-24660.32051 -7.76801572e-11 92693.09932)
(-24971.9997 0 91402.48628)
(-25259.10097 0 90237.20298)
(-25519.64668 0 89209.18077)
(-25756.36737 7.252398074e-11 88316.97595)
(-25968.37598 0 87562.95475)
(-26148.70563 0 86950.34268)
(-26297.41673 0 86481.0931)
(-26399.84639 6.953260786e-11 86154.05471)
(-26452.55997 0 85970.06988)
(-26442.78984 0 85929.46025)
(-26358.79026 0 86025.9508)
(-26193.66408 0 86262.26505)
(-25928.60289 0 86624.53558)
(-25560.95514 0 87108.61456)
(-25082.18425 0 87703.11633)
(-24484.5199 0 88388.07588)
(-23772.27913 0 89146.03383)
(-22940.98196 0 89947.74738)
(-22002.87547 0 90764.30899)
(-20969.58668 0 91553.8243)
(-19858.57259 0 92278.17635)
(-18699.8477 -3.403349406e-11 92885.17892)
(-17527.55998 0 93334.66812)
(-16380.75339 0 93581.29939)
(-15277.97172 0 93595.67121)
(-14249.85631 0 93359.2942)
(-13422.2068 0 92899.45377)
(-12373.40222 3.501290781e-11 92252.84444)
(-10857.98012 0 91293.43366)
(-3250.452895 0 111363.017)
(-436.0597466 0 110713.3863)
(-3575.080401 7.862571868e-10 110782.8033)
(-7837.867936 0 109623.205)
(-8542.200236 9.234569837e-10 108449.2494)
(-10245.97354 0 107084.6679)
(-11802.84982 0 105534.8117)
(-13186.51395 -3.011379619e-10 103843.6653)
(-14455.63918 0 102045.811)
(-15618.44164 0 100184.3724)
(-16667.83987 2.33777579e-10 98275.98919)
(-17615.10266 0 96347.25883)
(-18473.75576 -2.075580361e-10 94431.7035)
(-19245.53117 0 92533.08526)
(-19946.4347 0 90684.66242)
(-20582.23635 0 88889.54041)
(-21165.37473 0 87169.23929)
(-21703.24451 0 85527.51909)
(-22203.87919 -8.274417805e-11 83980.85355)
(-22675.9952 0 82529.51127)
(-23122.57121 0 81187.34583)
(-23552.13812 0 79953.56457)
(-23963.84616 7.592926182e-11 78839.8679)
(-24364.52701 0 77846.17081)
(-24747.78692 -7.365339392e-11 76979.85546)
(-25114.82663 0 76242.41709)
(-25466.76213 0 75640.79285)
(-25789.24977 0 75174.51892)
(-26080.30143 0 74849.47333)
(-26328.91754 0 74670.02359)
(-26521.65801 0 74633.42401)
(-26650.89317 -3.465876785e-11 74747.4492)
(-26697.01021 0 75009.7595)
(-26646.91232 0 75417.97162)
(-26492.7612 -3.432435457e-11 75972.293)
(-26214.21777 0 76663.43835)
(-25798.91502 0 77484.59112)
(-25241.0435 -3.424340122e-11 78417.7726)
(-24525.5261 0 79442.98898)
(-23646.25577 0 80536.45008)
(-22604.90237 0 81659.28363)
(-21399.27299 0 82768.81584)
(-20048.25845 0 83811.55967)
(-18581.81397 0 84729.23811)
(-17036.37999 3.482733e-11 85456.49337)
(-15457.31526 0 85935.92184)
(-13933.02581 0 86125.85229)
(-12652.01996 0 86031.70487)
(-11062.00016 0 85688.49882)
(-8845.82273 0 84995.60094)
(-2881.638058 0 98870.86084)
(-262.2075335 0 98288.58379)
(-3082.50489 0 98352.12338)
(-6910.259543 0 97309.30679)
(-7508.870303 0 96256.26684)
(-9035.878466 0 95024.0228)
(-10431.07531 0 93619.88265)
(-11683.65505 0 92081.76841)
(-12850.35048 0 90452.60883)
(-13928.43115 0 88755.83649)
(-14915.05814 0 87006.85622)
(-15825.0612 0 85243.50754)
(-16658.57785 0 83476.35776)
(-17427.01268 0 81725.86658)
(-18140.06558 0 80010.58544)
(-18804.21403 0 78338.42573)
(-19428.25067 0 76728.09345)
(-20021.18111 0 75182.40729)
(-20588.04785 8.403281239e-11 73716.34905)
(-21136.20272 8.19455019e-11 72333.32495)
(-21672.2405 0 71039.85552)
(-22198.16494 0 69843.6608)
(-22722.25955 0 68748.37818)
(-23238.969 7.587960268e-11 67759.60345)
(-23753.29925 -7.480045097e-11 66880.70649)
(-24265.04571 0 66120.63682)
(-24765.45155 -7.303685117e-11 65478.34359)
(-25254.12167 0 64962.33869)
(-25723.6219 0 64579.26869)
(-26159.66736 -3.559749091e-11 64329.69716)
(-26555.16829 0 64222.23583)
(-26899.32704 -7.039706734e-11 64262.07463)
(-27171.52139 0 64452.58875)
(-27356.90268 0 64800.54304)
(-27442.39378 0 65305.23248)
(-27408.55274 0 65966.6831)
(-27232.77301 0 66784.80124)
(-26896.84651 0 67751.69766)
(-26383.728 0 68854.54052)
(-25670.44813 -3.484325604e-11 70077.04443)
(-24731.60875 0 71391.14895)
(-23551.72333 0 72760.19838)
(-22124.43013 0 74140.69818)
(-20451.61241 0 75472.86297)
(-18561.50101 0 76688.08109)
(-16503.6797 0 77699.11742)
(-14417.02089 -1.785391522e-11 78413.50131)
(-12569.31528 0 78780.69356)
(-10329.6354 0 78799.88234)
(-7353.622195 0 78390.80484)
(-2554.877346 0 87865.08367)
(-109.9540698 0 87344.10102)
(-2649.83539 0 87415.31212)
(-6089.625599 0 86484.7928)
(-6590.137967 0 85541.71747)
(-7956.64237 0 84435.59749)
(-9204.716934 0 83168.65428)
(-10340.57502 0 81785.46381)
(-11412.68714 0 80315.53412)
(-12407.62942 1.296033681e-10 78772.87495)
(-13335.01978 0 77184.88746)
(-14202.46157 0 75574.96927)
(-15010.21119 0 73950.09643)
(-15769.37801 0 72341.28999)
(-16485.09655 0 70747.05777)
(-17165.51663 0 69192.78168)
(-17818.50941 0 67676.86472)
(-18449.68078 0 66218.42719)
(-19068.20615 0 64816.51706)
(-19675.04766 0 63484.4519)
(-20278.87373 0 62224.04162)
(-20885.74788 0 61041.58698)
(-21493.56506 0 59941.14658)
(-22109.3826 0 58927.77097)
(-22732.12665 0 58007.29079)
(-23358.20225 0 57180.67143)
(-23989.33799 0 56455.98055)
(-24621.91412 0 55839.63377)
(-25244.7182 -7.283205919e-11 55335.32591)
(-25850.56313 0 54949.21649)
(-26433.2218 0 54691.65364)
(-26979.2177 0 54568.52399)
(-27472.37777 0 54587.77724)
(-27894.67645 0 54759.93323)
(-28229.42653 0 55091.90106)
(-28457.63437 0 55589.51055)
(-28554.97986 0 56257.99614)
(-28495.5003 0 57100.93737)
(-28249.47585 0 58115.66604)
(-27783.57261 0 59295.25487)
(-27061.93171 1.77264581e-11 60627.91967)
(-26050.62229 0 62097.083)
(-24720.99216 0 63673.45377)
(-23049.09146 0 65312.68289)
(-21009.5065 -1.796028096e-11 66945.86507)
(-18588.85006 0 68468.98572)
(-15926.17708 1.813196853e-11 69761.56393)
(-13367.7851 -1.823049307e-11 70716.28965)
(-10293.23256 0 71240.06243)
(-6425.208242 0 71213.48098)
(-2268.799175 0 78180.18003)
(11.33969304 0 77722.65369)
(-2279.616361 0 77824.37851)
(-5371.040389 0 76996.89888)
(-5785.061509 0 76157.32356)
(-7006.360007 0 75169.70452)
(-8126.852702 0 74036.98557)
(-9158.94748 0 72800.22858)
(-10135.79228 0 71473.58043)
(-11055.91798 1.3162178e-10 70072.90593)
(-11926.68091 0 68630.39321)
(-12745.70619 0 67150.5164)
(-13523.39621 1.087036107e-10 65656.6761)
(-14263.05733 0 64159.7118)
(-14972.1772 0 62673.76816)
(-15656.91117 0 61208.35819)
(-16322.34454 0 59775.58823)
(-16978.06547 0 58378.32593)
(-17625.05114 0 57028.35995)
(-18273.75819 0 55728.32143)
(-18924.46314 0 54485.7813)
(-19582.27699 0 53302.75662)
(-20254.78413 7.953230885e-11 52185.11133)
(-20939.48464 0 51134.82373)
(-21637.15786 0 50154.18923)
(-22351.25444 0 49249.07011)
(-23080.62817 7.532948553e-11 48423.9082)
(-23820.51077 0 47681.13059)
(-24564.19825 0 47025.83796)
(-25307.35921 0 46466.81052)
(-26043.89082 -7.297894338e-11 46010.56693)
(-26761.39641 0 45664.85245)
(-27447.25734 0 45440.11925)
(-28086.81356 0 45347.36554)
(-28662.03261 0 45400.41768)
(-29152.53953 0 45610.75346)
(-29533.72265 0 45990.41477)
(-29776.30938 0 46550.30597)
(-29847.32397 0 47297.52817)
(-29708.83315 -1.796849474e-11 48237.58228)
(-29318.50791 1.800252572e-11 49370.69308)
(-28629.38919 0 50689.01488)
(-27584.14818 -1.810181346e-11 52173.16985)
(-26109.45528 0 53793.93691)
(-24117.40572 0 55516.16159)
(-21548.15499 0 57309.16523)
(-18512.49311 0 59144.28106)
(-15306.0716 -9.257205206e-12 60919.84219)
(-11252.23747 9.311373155e-12 62294.12354)
(-6196.845478 0 62772.95486)
(-2024.882129 0 69780.68457)
(89.50654376 0 69389.46685)
(-1973.135883 0 69490.54101)
(-4741.019126 3.071001278e-10 68712.87374)
(-5076.500577 -4.91170507e-10 67909.38672)
(-6170.980888 -2.065996939e-10 66967.25066)
(-7176.134418 0 65890.35736)
(-8106.597654 0 64704.82209)
(-8992.604678 1.453075515e-10 63424.26761)
(-9838.980273 0 62075.60513)
(-10645.5898 0 60673.98321)
(-11415.22282 0 59231.71936)
(-12154.63124 1.103964642e-10 57773.08961)
(-12868.18549 0 56301.2067)
(-13560.84975 0 54838.73205)
(-14240.22994 0 53387.52871)
(-14908.28954 0 51963.51779)
(-15571.77131 0 50570.93451)
(-16239.90976 8.802034227e-11 49215.92823)
(-16910.57176 0 47905.61333)
(-17592.06857 0 46642.72221)
(-18289.47701 0 45433.87715)
(-19001.22453 0 44276.80706)
(-19730.81438 0 43175.29055)
(-20482.3075 -3.917494315e-11 42132.60171)
(-21255.39032 0 41150.41993)
(-22048.38083 0 40229.03649)
(-22859.24201 0 39370.64716)
(-23685.70064 0 38578.7509)
(-24523.53861 0 37858.99053)
(-25366.60615 0 37215.90263)
(-26208.12815 0 36657.05019)
(-27038.09837 0 36192.36464)
(-27845.32608 0 35832.52763)
(-28616.00709 0 35592.4842)
(-29331.05703 0 35489.70447)
(-29967.66257 -1.821437777e-11 35540.92475)
(-30494.7195 0 35766.6937)
(-30876.29011 0 36186.68729)
(-31069.79761 0 36819.23086)
(-31019.03146 -1.828288108e-11 37677.74816)
(-30657.82794 0 38771.99295)
(-29919.82251 0 40107.84229)
(-28749.7987 9.224564282e-12 41696.72039)
(-27113.52907 0 43558.87875)
(-25002.28493 0 45701.57004)
(-22420.36025 0 48073.33598)
(-19125.7943 0 50520.8968)
(-13725.05474 -9.456380213e-12 52670.9782)
(-6695.678059 9.515493079e-12 53859.06206)
(-1822.518037 0 62147.9777)
(165.8348684 0 61920.59211)
(-1657.635852 0 61935.64429)
(-4111.03891 0 61185.44709)
(-4362.098524 0 60394.96242)
(-5333.129292 0 59486.00842)
(-6220.13528 0 58452.2872)
(-7043.396355 0 57318.34205)
(-7839.724443 0 56107.76212)
(-8609.930151 0 54847.5102)
(-9350.533097 1.2627869e-10 53544.29217)
(-10069.38553 0 52225.69989)
(-10768.98347 0 50898.04332)
(-11453.79235 0 49581.39462)
(-12130.18488 0 48277.64919)
(-12800.03962 0 47003.08676)
(-13471.0545 0 45758.13756)
(-14144.32049 -9.193417289e-11 44551.57534)
(-14824.56481 -8.939117646e-11 43383.65039)
(-15519.12573 8.717076832e-11 42256.72977)
(-16228.74568 0 41171.2596)
(-16953.3612 0 40124.02855)
(-17697.95688 0 39114.24058)
(-18466.51884 0 38140.81506)
(-19257.97115 0 37200.04044)
(-20072.61657 0 36287.79565)
(-20910.26806 0 35401.29811)
(-21770.45275 0 34538.47543)
(-22651.43134 0 33697.63482)
(-23550.93647 0 32878.233)
(-24466.37689 -3.763486562e-11 32079.63286)
(-25393.68795 0 31307.09983)
(-26326.01099 0 30565.83195)
(-27257.56671 0 29863.07982)
(-28182.18107 0 29212.14049)
(-29084.89857 0 28627.08388)
(-29948.89267 0 28130.58997)
(-30752.65616 0 27747.70146)
(-31463.68768 0 27509.86709)
(-32038.09401 0 27451.88337)
(-32423.31328 0 27611.602)
(-32562.78497 0 28027.95419)
(-32404.20354 0 28737.30119)
(-31900.96465 0 29759.35003)
(-30962.26822 0 31077.17307)
(-29407.63685 0 32615.31711)
(-27059.22488 0 34290.97308)
(-23604.76154 -4.773893096e-12 36202.3486)
(-17367.44452 0 38743.84726)
(-8664.924273 0 42431.04121)
(-1768.507464 0 55658.28001)
(218.3300352 6.99465676e-10 55543.20326)
(-1327.405821 0 55539.25711)
(-3530.531204 0 55007.307)
(-3712.92996 0 54450.01885)
(-4585.266458 0 53803.57706)
(-5376.570945 0 53053.67784)
(-6125.556625 0 52214.24508)
(-6867.039158 0 51308.27712)
(-7592.607882 0 50339.27138)
(-8305.747148 0 49317.3878)
(-9009.14653 1.203835664e-10 48255.68224)
(-9705.436704 0 47156.88536)
(-10395.21962 0 46032.3998)
(-11081.99742 -1.037364317e-10 44886.07671)
(-11771.99812 0 43720.43617)
(-12461.47068 0 42542.05826)
(-13157.00154 0 41351.20525)
(-13862.02976 0 40149.72667)
(-14574.88933 0 38937.88469)
(-15298.02645 0 37714.88985)
(-16035.14817 0 36479.98567)
(-16786.90381 0 35233.80764)
(-17553.41671 0 33972.82126)
(-18334.99484 0 32695.12417)
(-19132.02064 0 31399.32088)
(-19944.86667 0 30085.17012)
(-20772.56228 0 28752.58377)
(-21614.54287 0 27402.89186)
(-22467.81241 0 26036.2612)
(-23333.83609 0 24659.62231)
(-24213.7682 -3.802608895e-11 23278.26342)
(-25101.1741 0 21900.4827)
(-25997.05417 0 20539.77759)
(-26898.71768 3.765918527e-11 19210.46127)
(-27802.82804 0 17930.69669)
(-28705.40191 0 16727.59143)
(-29592.5295 0 15630.38325)
(-30447.80559 -1.879707318e-11 14676.96914)
(-31244.36263 1.882113565e-11 13912.11419)
(-31939.17835 0 13388.92423)
(-32471.18037 0 13163.53089)
(-32750.48344 0 13289.5934)
(-32640.22482 0 13803.92567)
(-31947.16962 0 14724.48776)
(-30541.39411 -4.798061638e-12 16079.65856)
(-28715.67508 0 17955.87598)
(-27074.97887 0 20605.22188)
(-25018.45841 0 24727.46585)
(-16718.87282 0 31296.58721)
(-1708.102529 2.257672283e-09 50592.36375)
(241.2718174 0 50213.95206)
(-1207.364168 0 50285.40545)
(-3295.188711 -3.493716254e-10 49931.74628)
(-3439.487615 0 49508.09467)
(-4246.12633 0 49034.01244)
(-4963.32965 0 48472.05326)
(-5640.952985 -1.822169405e-10 47842.12303)
(-6307.89613 0 47157.20046)
(-6956.077117 1.52071065e-10 46414.12463)
(-7590.803029 0 45631.45345)
(-8213.916878 0 44805.73603)
(-8827.773002 1.255922375e-10 43952.04086)
(-9437.811415 0 43065.86823)
(-10043.10793 5.721185244e-11 42162.54789)
(-10648.72069 5.501866912e-11 41238.87009)
(-11259.83398 1.062584655e-10 40299.25049)
(-11873.79829 0 39348.84986)
(-12495.30034 0 38387.41385)
(-13128.72057 9.764879922e-11 37416.45937)
(-13773.81456 -4.773582906e-11 36436.61839)
(-14432.09191 -9.356304463e-11 35448.3054)
(-15105.23489 0 34450.96298)
(-15794.23974 0 33444.28019)
(-16500.03772 -4.456726746e-11 32427.35486)
(-17224.54966 -4.400549525e-11 31400.29471)
(-17968.92034 0 30363.3574)
(-18734.41614 0 29318.32363)
(-19519.61017 0 28266.56723)
(-20329.1391 0 27210.88825)
(-21167.12933 0 26160.4906)
(-22032.36126 0 25117.54945)
(-22929.38698 2.088535455e-11 24091.92685)
(-23862.00305 0 23093.81402)
(-24832.46358 -2.076947998e-11 22134.77342)
(-25846.14866 0 21232.2906)
(-26905.39631 0 20399.93019)
(-28008.73885 -2.072049558e-11 19656.60193)
(-29151.96731 0 19024.95807)
(-30320.9477 0 18528.33847)
(-31488.53968 1.039973499e-11 18192.06692)
(-32608.14069 -1.042549292e-11 18045.74722)
(-33605.44203 0 18117.60319)
(-34381.95128 0 18447.49469)
(-34834.39361 0 19109.22927)
(-34901.68645 0 20258.46609)
(-34813.75771 0 22289.72519)
(-35377.82505 2.673860396e-12 25953.29148)
(-36292.16431 2.689506299e-12 30900.32383)
(-29193.01144 2.8671152e-13 30680.06889)
(-1461.856583 -2.311993518e-09 45709.44476)
(436.8474921 0 45187.37799)
(-944.6550451 0 45232.22011)
(-2881.95357 -3.577777604e-10 44750.53863)
(-2952.840631 0 44209.64894)
(-3665.580451 -2.406927548e-10 43586.32961)
(-4308.368916 0 42864.61076)
(-4925.25526 0 42075.98812)
(-5537.321334 0 41226.97222)
(-6143.48972 0 40330.54994)
(-6745.227276 -1.448611107e-10 39403.05759)
(-7344.301389 0 38449.33988)
(-7940.897786 0 37484.00885)
(-8537.931509 -6.121336414e-11 36512.86724)
(-9139.007123 -5.858841119e-11 35541.51643)
(-9740.298702 5.634245809e-11 34579.49588)
(-10347.1554 1.088151216e-10 33627.53036)
(-10961.63089 0 32687.80415)
(-11582.24438 1.025454509e-10 31766.06646)
(-12209.21501 0 30860.44498)
(-12844.43684 4.888438769e-11 29971.26697)
(-13489.71787 0 29098.26237)
(-14144.93182 4.704983788e-11 28240.60336)
(-14809.80481 4.629803453e-11 27396.33738)
(-15484.49902 0 26564.92841)
(-16170.31543 0 25746.07937)
(-16869.52344 4.456352567e-11 24938.67926)
(-17583.47135 0 24143.81264)
(-18311.17413 0 23363.42873)
(-19056.52001 0 22603.20359)
(-19823.12507 0 21867.20721)
(-20613.22437 0 21162.4944)
(-21428.28793 2.138787141e-11 20499.28893)
(-22273.59446 0 19889.80354)
(-23156.05564 0 19350.17006)
(-24076.48825 0 18897.0921)
(-25039.1655 2.122011256e-11 18549.44658)
(-26049.39215 0 18330.96734)
(-27109.53427 0 18265.47067)
(-28218.15187 -1.062982798e-11 18376.00575)
(-29372.86026 1.064996019e-11 18681.27485)
(-30563.70478 0 19192.68877)
(-31772.62231 1.070869688e-11 19905.61014)
(-32977.49447 -1.074680098e-11 20799.49236)
(-34163.21794 5.395219829e-12 21837.36053)
(-35454.15249 0 23042.23875)
(-37359.47412 0 24647.52868)
(-39781.40607 -2.738195415e-12 26363.53199)
(-38848.71464 0 25083.25464)
(-29781.07758 2.863020418e-13 17116.20625)
(-1262.05984 0 41240.05247)
(560.6839673 0 40847.36751)
(-726.856595 0 40956.25937)
(-2507.627237 0 40544.9065)
(-2523.250778 -2.930795859e-10 40103.38755)
(-3144.557863 0 39592.13373)
(-3708.14258 2.145061919e-10 38998.7675)
(-4251.294492 0 38339.19249)
(-4793.883469 0 37615.83818)
(-5337.357833 0 36846.20701)
(-5880.81217 7.419450689e-11 36031.31736)
(-6426.380305 -1.392924428e-10 35185.06448)
(-6977.260328 1.317463065e-10 34308.55917)
(-7531.525204 0 33416.59465)
(-8093.348273 0 32507.93857)
(-8663.30922 0 31590.94895)
(-9239.343863 1.114651723e-10 30672.26521)
(-9824.961027 1.08031064e-10 29754.03662)
(-10421.64557 0 28839.88315)
(-11028.13113 0 27932.07596)
(-11644.99866 0 27035.17333)
(-12273.0637 0 26151.19633)
(-12912.81598 0 25282.01769)
(-13565.40391 0 24429.04344)
(-14232.79278 4.675108092e-11 23597.55579)
(-14915.28448 4.616178187e-11 22791.42216)
(-15615.31491 4.564881211e-11 22016.40882)
(-16338.85818 4.520462598e-11 21277.10476)
(-17088.69688 0 20584.29598)
(-17870.13858 0 19949.05647)
(-18690.12346 0 19385.0282)
(-19556.39104 0 18906.46446)
(-20479.2718 0 18534.12387)
(-21468.25764 4.367691776e-11 18292.7305)
(-22535.33048 0 18205.74517)
(-23693.05875 0 18301.60923)
(-24952.93335 0 18612.85916)
(-26324.04965 -2.173580804e-11 19170.7124)
(-27808.96601 -3.262434798e-11 20002.89629)
(-29392.84275 -1.088870357e-11 21125.43193)
(-31040.93494 0 22535.93477)
(-32686.02323 -1.093634624e-11 24192.8298)
(-34215.74011 0 25996.79858)
(-35477.28164 0 27768.90893)
(-36304.81417 0 29243.83777)
(-36591.49292 0 30090.92065)
(-36226.92217 0 29799.52867)
(-34571.69592 2.80488059e-12 27228.80929)
(-30193.04896 0 21037.02427)
(-22492.93638 3.147527997e-13 12467.76307)
(-1140.171046 0 37435.44424)
(626.2433424 8.292852662e-10 37169.16965)
(-565.1654139 0 37286.29133)
(-2218.834908 3.755263987e-10 36958.58968)
(-2193.314805 0 36603.4591)
(-2746.314791 -2.526330405e-10 36195.84316)
(-3250.759888 0 35726.99058)
(-3734.711282 1.95858125e-10 35201.67925)
(-4224.377657 8.884206957e-11 34627.86821)
(-4718.425471 0 34018.49262)
(-5216.974963 0 33371.85749)
(-5720.977972 0 32702.94431)
(-6233.385473 -6.749718238e-11 32011.39864)
(-6754.538808 -1.285000732e-10 31305.35411)
(-7283.125639 0 30590.75163)
(-7823.581698 0 29868.84934)
(-8375.523573 0 29144.842)
(-8937.825095 0 28423.82377)
(-9510.280338 0 27706.15731)
(-10094.62759 -5.247950782e-11 26994.95234)
(-10692.23858 0 26292.71077)
(-11302.55416 0 25601.76031)
(-11924.76413 0 24923.43284)
(-12561.86028 0 24261.88726)
(-13217.1241 -4.79036769e-11 23620.17212)
(-13892.65218 -4.729984937e-11 23001.15988)
(-14589.46736 0 22412.3889)
(-15314.91244 0 21860.53533)
(-16076.03749 -4.592780975e-11 21353.64337)
(-16879.14323 0 20902.77371)
(-17731.29894 0 20518.86957)
(-18642.74232 0 20214.89761)
(-19628.36574 0 20007.87482)
(-20697.66695 0 19913.8407)
(-21862.81188 0 19949.60364)
(-23139.05735 0 20134.94587)
(-24539.51501 0 20488.91924)
(-26072.39768 0 21028.02784)
(-27739.33165 -1.114288833e-11 21766.61395)
(-29527.40038 0 22707.21075)
(-31394.79586 0 23834.36451)
(-33252.66223 0 25089.19877)
(-34946.65391 0 26349.64805)
(-36241.51987 0 27396.47637)
(-36832.9092 0 27903.68308)
(-36375.45558 5.688573389e-12 27450.02603)
(-34494.643 0 25535.1585)
(-30888.98101 -2.874031797e-12 21754.61401)
(-25615.05713 2.890849018e-12 16356.02253)
(-19235.53705 3.372076362e-13 10579.51731)
(-1065.369143 0 33966.65288)
(667.2228233 0 33765.78616)
(-424.2199665 0 33875.53341)
(-1966.737657 -3.849001282e-10 33596.73145)
(-1904.009932 0 33288.53101)
(-2397.087065 0 32940.19914)
(-2848.012491 -1.126405112e-10 32536.79575)
(-3281.187036 2.007470516e-10 32082.43795)
(-3725.270952 0 31591.99418)
(-4175.536299 8.376778187e-11 31066.54616)
(-4634.119499 0 30515.07633)
(-5103.331219 7.314461113e-11 29940.65601)
(-5581.757217 0 29353.28125)
(-6073.719733 0 28751.39143)
(-6576.883372 0 28144.38574)
(-7091.430219 0 27535.65402)
(-7620.130007 -5.853208169e-11 26927.83976)
(-8162.353012 0 26323.48611)
(-8717.387296 5.51596013e-11 25725.65577)
(-9285.604922 0 25138.31527)
(-9867.640846 0 24563.13794)
(-10464.00928 0 24001.53316)
(-11076.23116 0 23456.35921)
(-11705.93354 0 22933.06506)
(-12354.06767 0 22433.44683)
(-13027.02169 -4.848052777e-11 21962.6005)
(-13729.58024 4.794179129e-11 21525.39621)
(-14466.17804 0 21132.08617)
(-15245.29518 -2.353711997e-11 20787.33942)
(-16076.06561 2.336638909e-11 20503.20734)
(-16966.4124 2.322292031e-11 20287.61009)
(-17928.03599 0 20155.2565)
(-18976.11315 -2.300924027e-11 20118.50851)
(-20122.03447 0 20190.29838)
(-21380.31974 0 20386.64534)
(-22766.84939 0 20725.00921)
(-24294.15327 -2.282876411e-11 21221.3727)
(-25973.87262 -1.141380806e-11 21893.28342)
(-27805.19663 1.142103234e-11 22750.18959)
(-29763.7889 0 23786.41459)
(-31783.99819 -1.145731084e-11 24962.00274)
(-33729.34703 -1.148568834e-11 26175.26993)
(-35362.55962 0 27223.70695)
(-36338.81418 5.78074655e-12 27784.08776)
(-36263.77832 0 27450.79755)
(-34804.62331 0 25852.8284)
(-31828.37703 0 22836.05421)
(-27527.98397 0 18650.20144)
(-22433.07485 0 13966.18462)
(-17140.10109 0 9559.96364)
(-1007.928234 0 30891.27745)
(697.355262 8.714706438e-10 30719.04502)
(-302.2292133 2.68694967e-10 30827.7541)
(-1747.717572 0 30590.94343)
(-1654.160214 -1.577907634e-10 30331.74734)
(-2094.550002 0 30040.79837)
(-2496.720906 2.309754585e-10 29700.15236)
(-2886.599022 0 29318.10045)
(-3289.610668 9.336142651e-11 28907.30628)
(-3702.630801 -8.588518305e-11 28464.5292)
(-4126.566457 -7.989098202e-11 28004.62441)
(-4564.64127 -7.49934898e-11 27524.04788)
(-5015.188524 -7.093073427e-11 27033.48551)
(-5479.241449 0 26535.99205)
(-5960.558674 0 26033.02823)
(-6457.041499 0 25531.79556)
(-6967.855149 0 25034.87838)
(-7493.249046 0 24544.12007)
(-8034.520278 0 24062.88516)
(-8591.968714 0 23593.69892)
(-9164.58772 0 23138.90801)
(-9752.849373 0 22700.381)
(-10360.01093 0 22282.15821)
(-10988.34894 0 21885.50747)
(-11639.25884 0 21514.78595)
(-12316.69937 0 21176.19483)
(-13028.46586 0 20871.50124)
(-13780.15344 0 20609.90884)
(-14579.26058 0 20396.07075)
(-15436.0745 -2.395702208e-11 20238.87347)
(-16360.01811 2.380992696e-11 20145.80361)
(-17363.13673 0 20128.6409)
(-18458.56112 0 20196.8531)
(-19660.86176 0 20361.66263)
(-20985.86687 0 20638.3802)
(-22450.48313 0 21042.27767)
(-24071.32234 2.340580753e-11 21590.78263)
(-25857.26274 0 22298.4751)
(-27803.31435 1.170972215e-11 23169.5267)
(-29873.82417 0 24189.86521)
(-31971.83334 0 25294.37567)
(-33899.59671 0 26336.3558)
(-35332.39903 1.181170437e-11 27048.55304)
(-35848.44779 -5.926866636e-12 27059.31682)
(-35055.57063 0 26001.26007)
(-32782.52497 0 23697.58607)
(-29199.78749 6.007820052e-12 20310.13972)
(-24776.67573 0 16320.221)
(-20099.8757 -1.518952617e-12 12329.46011)
(-15613.49287 1.899593202e-12 8788.42801)
(-960.3420515 0 28156.27648)
(718.7366514 0 28002.59771)
(-199.3688454 0 28112.46712)
(-1563.504642 0 27917.29697)
(-1446.08251 1.618302971e-10 27705.85467)
(-1839.022008 -1.361404619e-10 27468.75223)
(-2200.860165 0 27188.67555)
(-2555.02502 0 26879.70723)
(-2922.601974 0 26543.97148)
(-3303.943611 0 26187.17869)
(-3699.313514 0 25813.54833)
(-4109.305295 7.691336594e-11 25429.41664)
(-4538.2424 0 25034.71697)
(-4981.826795 0 24638.36155)
(-5442.43823 6.627746941e-11 24241.70817)
(-5922.356411 0 23847.92333)
(-6419.412065 -6.154793015e-11 23458.59615)
(-6933.456044 0 23078.03802)
(-7464.546375 0 22708.50011)
(-8012.947856 0 22351.57124)
(-8578.838259 -5.529990386e-11 22008.07314)
(-9163.407946 0 21680.96059)
(-9766.909706 -5.322459046e-11 21372.91008)
(-10392.13261 5.237412145e-11 21085.43073)
(-11044.97357 0 20820.89494)
(-11726.39443 -5.097847277e-11 20583.71722)
(-12444.11398 0 20378.3601)
(-13205.6329 0 20209.65222)
(-14017.0792 0 20082.06096)
(-14889.85425 0 20002.85986)
(-15834.43774 0 19979.99729)
(-16862.85402 2.429496466e-11 20022.38862)
(-17988.04814 -2.419478466e-11 20139.27665)
(-19227.17325 0 20343.69223)
(-20598.52203 0 20650.97525)
(-22120.4119 0 21077.68354)
(-23809.74705 1.200250477e-11 21641.50051)
(-25674.6636 0 22353.83918)
(-27705.79052 1.200949771e-11 23218.37356)
(-29846.13073 1.202487124e-11 24202.82413)
(-31957.64989 0 25213.50086)
(-33778.58414 0 26053.63222)
(-34909.36683 0 26407.85187)
(-34908.75903 -6.078597787e-12 25907.37589)
(-33484.51088 0 24300.60852)
(-30673.25999 6.130987523e-12 21621.18832)
(-26854.00042 6.16162367e-12 18212.67108)
(-22576.44741 3.097552223e-12 14574.27636)
(-18348.93093 -3.115677346e-12 11156.84139)
(-14471.68602 -1.181870095e-12 8216.674814)
(-920.0604061 0 25712.23048)
(733.4373843 0 25573.77)
(-116.5528072 2.827200254e-10 25687.41774)
(-1411.852457 0 25531.34716)
(-1274.800555 0 25360.77888)
(-1626.917629 -1.396709235e-10 25171.15074)
(-1956.608983 1.215158366e-10 24949.31026)
(-2280.598217 1.082822941e-10 24706.0885)
(-2620.115092 0 24439.62296)
(-2975.174264 0 24162.2217)
(-3347.758871 0 23869.27826)
(-3736.700307 7.890792151e-11 23572.08303)
(-4144.194393 0 23270.26622)
(-4572.731561 7.104266286e-11 22965.885)
(-5020.247596 6.799620941e-11 22665.9258)
(-5485.725451 0 22370.28329)
(-5970.305659 0 22081.14554)
(-6474.662927 0 21800.84907)
(-6997.604043 -5.950581211e-11 21530.63396)
(-7538.0762 0 21271.80107)
(-8096.326478 0 21025.05331)
(-8674.92131 0 20792.79697)
(-9275.187484 0 20574.25295)
(-9896.969294 -5.373231312e-11 20373.07865)
(-10545.521 0 20191.01121)
(-11226.25258 5.230047189e-11 20029.27413)
(-11944.7685 5.17192865e-11 19894.5641)
(-12706.9792 2.560801586e-11 19788.1358)
(-13521.18951 2.539168904e-11 19715.43493)
(-14399.58312 -2.520750565e-11 19683.85572)
(-15352.82909 0 19701.01001)
(-16392.93319 0 19774.81503)
(-17535.09685 0 19916.26142)
(-18798.40037 0 20140.60697)
(-20202.27654 0 20462.96111)
(-21767.54347 0 20901.83676)
(-23510.31001 0 21473.29341)
(-25437.96423 0 22189.23847)
(-27529.32973 1.2320934e-11 23043.84585)
(-29701.67427 1.233670615e-11 23984.6545)
(-31769.90458 0 24885.67898)
(-33407.96411 0 25505.34027)
(-34176.41894 -1.242823938e-11 25507.90837)
(-33674.78836 0 24578.88648)
(-31757.93464 -6.261553926e-12 22607.99984)