/*--------------------------------*- C++ -*----------------------------------*\
  =========                 |
  \\      /  F ield         | OpenFOAM: The Open Source CFD Toolbox
   \\    /   O peration     | Website:  https://openfoam.org
    \\  /    A nd           | Version:  7
     \\/     M anipulation  |
\*---------------------------------------------------------------------------*/
FoamFile
{
    version     2.0;
    format      ascii;
    class       volTensorField;
    location    "0.0027";
    object      grad(U);
}
// * * * * * * * * * * * * * * * * * * * * * * * * * * * * * * * * * * * * * //

dimensions      [0 0 -1 0 0 0 0];

internalField   nonuniform List<tensor> 
1167
(
(-0.4166492418 -3.914986799e-15 0.01099663849 3.344969947e-15 -0.6905129786 0 0.06150756684 -7.680243842e-15 1.145054202)
(-0.552637827 -3.322968925e-16 0.01792179385 4.572381064e-15 -0.5990625907 0 0.1588024643 -2.338951693e-14 1.142754676)
(-0.4830568572 5.281371472e-15 0.01254796457 -3.397063057e-15 -0.800936067 0 0.06986887243 2.215326968e-15 1.325943599)
(-0.6407794819 1.884190792e-15 0.02053345685 -8.126281347e-15 -0.6946666136 0 0.1803153623 7.704130669e-15 1.323385601)
(-0.6331137551 6.477731144e-15 0.03133543716 -2.863456375e-15 -0.6620609583 0 0.2839263384 -7.80477531e-15 1.319851084)
(-0.6446489104 1.318128493e-14 0.04624415297 -5.256907527e-15 -0.6571937623 6.728841635e-14 0.3913764716 -2.205983879e-14 1.313972735)
(-0.6394134819 -1.164119695e-14 0.06118420736 -6.726243858e-15 -0.6538554396 5.380995086e-14 0.4963804124 -1.589141842e-14 1.306076273)
(-0.6321453736 -2.35042543e-14 0.07725186796 0 -0.6505679677 0 0.5986569035 -3.117908472e-15 1.29614711)
(-0.6234425373 -1.196848133e-14 0.09476797244 2.461483205e-15 -0.6471826498 0 0.6982111901 1.222969554e-15 1.284096984)
(-0.6127793811 -3.92844629e-15 0.1137810503 1.096709106e-15 -0.643496999 -3.50946914e-14 0.794892762 4.241521139e-15 1.269846821)
(-0.6001760234 2.817711716e-16 0.1343528023 3.979774893e-15 -0.639410685 0 0.888606655 4.839424858e-15 1.253306152)
(-0.5856108602 -1.993215207e-15 0.1565251084 3.661080488e-15 -0.6348737237 -2.92886439e-14 0.9792848831 5.962756298e-15 1.23436664)
(-0.5689984076 -1.957200425e-15 0.1802928174 3.405561997e-15 -0.6298524064 2.724449598e-14 1.06685689 -8.670386014e-16 1.212917193)
(-0.5502528118 -1.874682173e-15 0.2056127933 3.19679358e-15 -0.6243205224 0 1.151267884 2.687939691e-15 1.188854957)
(-0.5292851542 -4.872024623e-16 0.2324234778 1.511804004e-15 -0.6182578934 -2.418886407e-14 1.232470122 4.630785282e-15 1.162065461)
(-0.5059964178 7.153211284e-16 0.2606334801 1.439074333e-15 -0.6116466268 0 1.310402989 5.008459137e-15 1.132438839)
(-0.4802953656 -1.159460634e-15 0.290131583 2.754727817e-15 -0.6044706938 0 1.385016365 5.523649181e-15 1.09987157)
(-0.4520845804 1.358194957e-16 0.3207949788 1.324563463e-15 -0.5967161359 -2.119301541e-14 1.456244403 6.144985014e-15 1.064252066)
(-0.4212692243 1.382750737e-15 0.3524780568 1.279075659e-15 -0.5883693242 0 1.524015954 5.280664112e-15 1.025480702)
(-0.3877546632 1.105290714e-15 0.3850266201 1.239668884e-15 -0.5794183579 0 1.588245441 4.010102777e-15 0.9834490149)
(-0.3514460198 1.626789897e-15 0.4182714595 1.205378332e-15 -0.569851496 -9.643026657e-15 1.648829564 5.114915472e-15 0.9380600217)
(-0.312250023 1.731015617e-15 0.4520312607 2.350875321e-15 -0.5596583092 0 1.705646764 2.912179267e-15 0.8892098639)
(-0.270074377 1.363588975e-15 0.4861107231 2.298461087e-15 -0.5488286028 9.193844347e-15 1.758547217 1.364793776e-15 0.8368033845)
(-0.2248299392 1.857662148e-15 0.5202999018 1.126255796e-15 -0.5373533168 0 1.807355369 1.92752411e-15 0.7807436093)
(-0.1764317556 3.008294535e-15 0.5543716034 0 -0.525223796 0 1.851858945 2.188659305e-15 0.7209425317)
(-0.1248020453 5.478276994e-15 0.5880772805 -1.08842756e-15 -0.5124325874 -1.741484095e-14 1.891808677 4.342713864e-15 0.657316401)
(-0.06987368901 5.772334814e-15 0.6211466319 0 -0.4989729796 0 1.92691143 2.88598643e-15 0.5897975277)
(-0.01159634854 5.148136072e-15 0.6532826527 0 -0.4848398298 0 1.956828382 1.650956078e-15 0.5183307333)
(0.05005845165 5.382510281e-15 0.6841582123 0 -0.4700294343 0 1.981170202 1.884663451e-15 0.4428874179)
(0.1150890769 5.388897888e-15 0.713410311 0 -0.4545403856 0 1.999494991 7.387903318e-16 0.3634670131)
(0.1834547768 5.092228893e-15 0.7406379594 0 -0.4383737412 0 2.011307595 5.924418925e-16 0.280113979)
(0.2550631331 4.304327864e-15 0.7654004954 0 -0.4215340252 0 2.016061572 -3.210918786e-17 0.1929217829)
(0.329759731 4.722935788e-15 0.7872193235 0 -0.4040297469 0 2.013164663 -8.014631369e-16 0.1020529661)
(0.4073126719 3.564818262e-15 0.805577976 1.009785311e-15 -0.3858744682 8.078282489e-15 2.001984593 -2.023760961e-15 0.00774647191)
(0.4874024098 3.603149584e-15 0.8199350091 0 -0.3670876384 0 1.981865869 -2.499575306e-15 -0.08966378683)
(0.5696080945 2.371878732e-15 0.829732221 1.002395304e-15 -0.347695608 8.019162433e-15 1.952143227 -2.513146125e-15 -0.189737615)
(0.6533961444 5.635003186e-16 0.8344164837 0 -0.3277325652 0 1.912173022 -2.007211373e-15 -0.2919189847)
(0.738116938 1.723006331e-15 0.8334581076 0 -0.3072415042 0 1.861357009 -1.947946972e-15 -0.3955270437)
(0.8230032709 2.906484124e-15 0.8263751067 -1.496600608e-15 -0.2862747967 0 1.799182516 -2.255186165e-15 -0.4997571038)
(0.9071798228 2.877108993e-15 0.8127619389 0 -0.2648947742 1.596293726e-14 1.725261854 -2.964772394e-15 -0.6036874129)
(0.9896762977 3.321054891e-15 0.7923094368 -9.983150473e-16 -0.2431736105 0 1.639373095 -2.768570031e-15 -0.7062954644)
(1.069452006 2.206133006e-15 0.7648190975 -4.99796504e-16 -0.2211931964 7.996744064e-15 1.541506478 -2.295722649e-15 -0.8064818768)
(1.145430274 -3.442608683e-16 0.7302096382 -1.001486162e-15 -0.1990441149 0 1.431894232 -1.189174236e-15 -0.9030987517)
(1.216533688 -4.848256827e-16 0.6885146425 -1.003966631e-15 -0.1768244524 0 1.311039728 -9.326050456e-16 -0.9949954252)
(1.281722704 -2.433934265e-16 0.6398682797 -7.552571779e-16 -0.1546379502 0 1.17972541 -4.962482524e-16 -1.081049899)
(1.34003146 -3.483781629e-16 0.5844868336 -5.052963723e-16 -0.1325920603 0 1.039007955 -4.065217801e-16 -1.160213398)
(1.390604031 7.426903676e-16 0.5226425549 -7.610222846e-16 -0.1107956257 -8.117571036e-15 0.8901888017 -2.453505763e-16 -1.231532837)
(1.432719155 1.632725926e-15 0.4546287408 -5.096513787e-16 -0.08935656952 0 0.7347727839 1.920662633e-16 -1.294172317)
(1.465679824 1.287748003e-15 0.3807374258 -7.682971186e-16 -0.06837964504 0 0.5744275566 9.406764116e-17 -1.347410433)
(1.4886959 1.371313555e-15 0.3013164962 -7.724718513e-16 -0.04796776669 0 0.4109610469 -1.269239429e-17 -1.390648579)
(1.501707296 1.808997549e-15 0.2167627743 -7.769919213e-16 -0.02822303497 0 0.2461485174 -1.484320025e-16 -1.423435354)
(1.506618031 1.061424472e-15 0.08636384645 -7.329834213e-16 -0.009227375766 4.169861241e-15 0.08153338961 -2.145743562e-16 -1.445416294)
(-0.5570176272 -1.069691671e-14 0.0142445742 1.207488173e-14 -0.9240041474 0 0.07875557054 9.354194992e-15 1.52747152)
(-0.738949811 1.187035632e-14 0.02341601101 9.431809797e-15 -0.801173217 -1.509089568e-13 0.2031600698 3.03657714e-14 1.524631983)
(-0.730345143 2.418736143e-14 0.03578732675 -2.908049561e-15 -0.7635571215 0 0.319867958 1.902678437e-14 1.520645869)
(-0.7438022116 8.577491859e-15 0.05273541828 -8.54203906e-15 -0.7580332193 0 0.4409388184 1.535454824e-14 1.51405108)
(-0.7379191215 -1.614022227e-14 0.06967722289 -6.830993016e-15 -0.7542349433 0 0.559204835 1.832550042e-14 1.505230222)
(-0.7298605496 -2.138982331e-14 0.08787396017 0 -0.7505254102 0 0.6743996607 7.181646968e-15 1.494175402)
(-0.720240416 -1.16739472e-14 0.107671878 2.499816382e-15 -0.7467311094 0 0.7865342639 4.209811558e-15 1.480814372)
(-0.7084845733 -5.257864282e-15 0.1291294277 4.455153517e-15 -0.7426195633 0 0.8954597601 3.876301908e-15 1.465080912)
(-0.6946424074 -7.736167341e-16 0.1523316011 4.041752733e-15 -0.7380803838 0 1.001091977 4.866284382e-15 1.446885524)
(-0.6786969862 2.855744046e-15 0.1773348845 3.718095236e-15 -0.7330595683 0 1.103369316 5.160466804e-15 1.426124711)
(-0.6605707375 -5.640486163e-16 0.2041412546 5.187896255e-15 -0.7275208517 2.766878003e-14 1.202247242 -3.426495439e-15 1.402701187)
(-0.6401837979 -4.949128997e-15 0.232721932 3.246577894e-15 -0.7214381244 0 1.297706674 1.122110741e-15 1.376507105)
(-0.617438546 -2.078117013e-15 0.2630267543 3.070695268e-15 -0.7147910065 0 1.389722423 5.61433556e-16 1.347425716)
(-0.5922353937 -7.450149821e-16 0.2949723809 2.922970658e-15 -0.707560929 0 1.478279584 3.661032643e-15 1.315350302)
(-0.5644719446 -1.001299386e-15 0.328461995 2.797627751e-15 -0.6997321127 0 1.563367341 3.953490975e-15 1.280159196)
(-0.534036851 -1.31366324e-17 0.3633800634 2.690382316e-15 -0.6912892142 0 1.644961776 3.598468331e-15 1.241734272)
(-0.5008172949 1.235567475e-15 0.399596713 0 -0.682217842 0 1.723044359 4.309895002e-15 1.199954318)
(-0.4646926849 6.49158726e-16 0.4369692048 0 -0.6725038478 0 1.797572241 3.29706949e-15 1.154686947)
(-0.4255382227 2.063362094e-15 0.4753426917 0 -0.6621332313 0 1.868498369 2.18937938e-15 1.105802698)
(-0.3832210481 3.352739098e-15 0.5145515176 0 -0.6510920537 0 1.935743935 2.654306884e-15 1.053156698)
(-0.3376012923 2.272707734e-15 0.5544151383 0 -0.6393660993 0 1.999212705 2.743249179e-15 0.996605053)
(-0.2885327124 2.323334011e-15 0.5947382294 0 -0.6269409868 0 2.058767334 2.543087709e-15 0.9359880695)
(-0.2358602647 2.634992547e-15 0.6353061625 0 -0.6138019886 0 2.114237467 2.180596642e-15 0.8711465511)
(-0.1794255484 4.458213449e-15 0.675878644 0 -0.5999339888 0 2.165399022 2.677916045e-15 0.8019091122)
(-0.1190678587 5.361028762e-15 0.7161881813 0 -0.5853217348 0 2.211977214 4.924177828e-15 0.7281066672)
(-0.05462907313 4.652522592e-15 0.7559334515 0 -0.5699498372 0 2.253631568 3.179721531e-15 0.6495695508)
(0.01404130608 6.275737037e-15 0.7947702183 -2.127932028e-15 -0.5538032356 -8.511728113e-15 2.289951453 3.740645917e-15 0.5661360469)
(0.0870779948 7.301209391e-15 0.8323027292 0 -0.5368673976 0 2.320442685 2.485026013e-15 0.4776617947)
(0.1645865748 6.114221051e-15 0.8680768614 0 -0.5191290442 0 2.344526233 2.530188289e-15 0.3840285971)
(0.2466305112 5.529020951e-15 0.9015739541 0 -0.5005768362 0 2.361525876 1.007358821e-15 0.2851620597)
(0.3332148479 6.014482678e-15 0.9322041489 0 -0.4812023907 0 2.370668631 3.424743673e-16 0.1810487694)
(0.4242642081 5.335861414e-15 0.9593102564 0 -0.4610013406 0 2.371084298 1.281355233e-16 0.07175565711)
(0.5196028133 3.378010614e-15 0.9821638233 1.021282217e-15 -0.4399748462 8.170257735e-15 2.361806326 -1.139714894e-15 -0.04254437977)
(0.6189239408 1.52004969e-15 0.9999839725 0 -0.4181309331 0 2.341790537 -4.471989909e-16 -0.1615474428)
(0.7217674397 1.018591456e-15 1.011951812 0 -0.3954865879 0 2.309934437 -1.038749093e-15 -0.2847883906)
(0.8274987242 1.812227207e-15 1.017237139 0 -0.3720692313 0 2.265107624 -1.356612284e-15 -0.4116168363)
(0.9352825456 2.749884679e-15 1.015035418 -1.013271648e-15 -0.3479187546 0 2.206202922 -1.231295012e-15 -0.5411816292)
(1.044080603 2.460820214e-15 1.004607581 -2.026441415e-15 -0.3230891552 0 2.132192274 -5.714980895e-16 -0.6724081996)
(1.152643226 2.081189399e-15 0.9853223209 -1.01386201e-15 -0.2976497684 0 2.042201684 -4.687542149e-16 -0.8040092342)
(1.259530923 1.2520966e-15 0.9566867898 -1.522739808e-15 -0.2716864413 0 1.935592016 3.611060142e-16 -0.934490458)
(1.3631522 1.738178116e-17 0.9183895729 -1.017082509e-15 -0.2453013977 0 1.812048888 -2.431114968e-17 -1.062191204)
(1.461811271 -2.618703346e-16 0.8703081916 -1.019601607e-15 -0.2186127417 0 1.671659734 -5.972777914e-16 -1.185335681)
(1.55378002 5.393101998e-17 0.8125092622 -1.022691934e-15 -0.191752728 0 1.514989244 -1.076454349e-15 -1.302102987)
(1.637375951 5.422314671e-16 0.7452305496 -1.02633091e-15 -0.1648652453 0 1.343109213 -5.382851874e-16 -1.410705483)
(1.711051302 3.502084582e-16 0.6688369365 -5.152492258e-16 -0.1381023448 0 1.157601164 -3.836587435e-16 -1.509468714)
(1.77344097 4.584497779e-16 0.5837630789 -5.175882828e-16 -0.1116200514 0 0.9605013797 -6.594108425e-16 -1.596889206)
(1.823246569 6.992386687e-16 0.4904710588 -5.201746435e-16 -0.08557472959 0 0.754249555 5.1334581e-17 -1.671664327)
(1.85930469 8.498768545e-16 0.3895423963 -7.845017119e-16 -0.06012317591 0 0.5416150307 6.747199033e-16 -1.732713035)
(1.881632014 9.369185235e-16 0.281588267 -7.233344927e-16 -0.03541792022 0 0.3253550834 1.514534282e-15 -1.779234962)
(1.890798835 4.329383928e-16 0.1126175073 -6.947717658e-16 -0.01158208342 0 0.1079154357 1.685387145e-15 -1.810592105)
(-0.6387450013 -2.105982289e-14 0.01609810261 2.802958068e-14 -1.060097082 0 0.08807740398 3.212295651e-15 1.750234502)
(-0.8474282464 -9.985613072e-16 0.02660298754 2.394676296e-14 -0.918898045 0 0.2270998187 1.140700844e-14 1.74708296)
(-0.8378025135 1.865450077e-14 0.04071714949 5.906681752e-15 -0.8757314738 -9.450690803e-14 0.35751576 4.423020142e-14 1.742570331)
(-0.8533671038 1.31375735e-14 0.05988921714 0 -0.8694843253 0 0.4928371567 3.652530444e-14 1.735156859)
(-0.8467378064 -3.516114548e-15 0.07900069575 0 -0.8651675993 0 0.6249421749 3.440342928e-14 1.725290218)
(-0.8377982987 -1.128465369e-14 0.09948522459 2.918051863e-15 -0.860983214 0 0.7535912084 1.32145823e-14 1.71297856)
(-0.8271700644 -9.083963712e-15 0.1217136894 5.077499367e-15 -0.8567305232 0 0.8788034667 5.57953179e-15 1.698172025)
(-0.8142300114 -4.626165561e-15 0.1457611838 4.524540148e-15 -0.8521454058 0 1.000425357 -7.642879365e-17 1.680816386)
(-0.7990578644 -9.239585452e-16 0.1717359497 4.104700869e-15 -0.8471070074 0 1.118374408 3.910115287e-15 1.660835015)
(-0.7816553037 6.458660661e-15 0.1997012614 1.888001289e-15 -0.8415569288 -3.020802063e-14 1.232603525 5.895607688e-15 1.638144696)
(-0.7619669652 1.550423257e-15 0.2296728931 3.512463308e-15 -0.8354585916 2.809970647e-14 1.34310565 4.96653077e-15 1.612663751)
(-0.7399155466 -5.747458758e-15 0.2616441451 1.648570803e-15 -0.8287875043 0 1.449888698 3.753697261e-15 1.584287636)
(-0.7154081841 -3.231200591e-15 0.2955703732 4.677779555e-15 -0.8215235109 2.494815763e-14 1.552965592 2.37556498e-15 1.552914094)
(-0.6883520074 -2.756873181e-15 0.3313855006 0 -0.813649854 0 1.652376128 3.602729423e-15 1.518438288)
(-0.6586375635 -1.070998957e-15 0.3690101966 0 -0.8051516557 0 1.748151758 4.297756499e-15 1.480737619)
(-0.6261508224 -2.828340425e-16 0.4083430615 0 -0.7960140365 0 1.840335912 4.208416722e-15 1.439694931)
(-0.5907655601 1.759827023e-15 0.4492769659 0 -0.7862230719 0 1.92896413 4.158834315e-15 1.395171629)
(-0.5523445414 3.483637465e-15 0.491690659 0 -0.7757637846 0 2.01406927 3.576924165e-15 1.347028967)
(-0.5107375849 2.326172589e-15 0.5354552299 1.243215413e-15 -0.7646213156 9.945723303e-15 2.095669373 5.529822694e-16 1.295102738)
(-0.4657782554 1.122356917e-15 0.5804328898 0 -0.7527793182 0 2.173766348 2.644673545e-15 1.239223939)
(-0.4172839678 1.518672202e-15 0.6264754082 1.185305133e-15 -0.7402207985 9.482441065e-15 2.248336807 3.221182054e-15 1.179195772)
(-0.3650512672 2.552363973e-15 0.6734218784 0 -0.7269269688 0 2.31932675 3.864542172e-15 1.114809014)
(-0.3088567786 2.809721294e-15 0.7210928777 0 -0.712877726 0 2.386639991 4.13748848e-15 1.045824723)
(-0.2484534396 1.971116376e-15 0.7692867624 0 -0.6980509093 0 2.450132416 2.386834386e-15 0.9719879059)
(-0.1835776739 5.226224227e-15 0.8177677497 -1.106628124e-15 -0.6824225635 -8.853024993e-15 2.50959717 2.759025153e-15 0.8930122831)
(-0.1139445158 6.628634885e-15 0.8662666348 0 -0.6659668701 0 2.564755008 1.834976748e-15 0.8085963761)
(-0.0392513267 6.360815742e-15 0.914460564 0 -0.648656097 0 2.615236445 1.417209491e-15 0.7184191268)
(0.04081206232 7.026202693e-15 0.9619646565 0 -0.6304608076 0 2.660572485 1.628517765e-15 0.6221460295)
(0.1265560905 7.182360257e-15 1.008315805 -2.121966793e-15 -0.6113503661 -1.697573434e-14 2.70017088 2.018389474e-15 0.5194401971)
(0.2182785604 7.37712589e-15 1.052955771 0 -0.5912934014 0 2.733301027 1.339495302e-15 0.4099792678)
(0.3162401259 5.99059221e-15 1.09522533 0 -0.5702587438 0 2.759080116 2.872503742e-16 0.2934696639)
(0.420649106 5.781042564e-15 1.134346527 0 -0.5482167647 0 2.776451525 1.606363106e-16 0.1696767444)
(0.5316233267 4.40602384e-15 1.169420153 0 -0.5251405244 0 2.784172751 1.770131713e-16 0.038451806)
(0.6491471153 2.238348811e-15 1.19941891 0 -0.5010081996 0 2.780813425 -6.321098834e-16 -0.1002236847)
(0.7730370911 1.969192259e-15 1.223201828 0 -0.475805295 0 2.76475145 -2.277904164e-15 -0.2461840067)
(0.9028819979 2.015445442e-15 1.239546459 0 -0.4495274132 0 2.734196791 -1.491365634e-15 -0.3990416695)
(1.037988941 1.632013444e-15 1.247167256 0 -0.4221837063 0 2.687222516 -1.364258226e-15 -0.5581195605)
(1.177337543 1.638965584e-15 1.24478023 0 -0.3938003107 0 2.621834079 -1.289299304e-15 -0.7223964208)
(1.319531163 1.732510771e-15 1.231165146 0 -0.3644239318 0 2.536059351 -6.46765087e-16 -0.8904653524)
(1.462770447 1.468931521e-15 1.205231584 -1.030970444e-15 -0.3341254166 0 2.428069619 -2.827696591e-17 -1.060500286)
(1.604865421 1.322423912e-15 1.166108673 -1.032923025e-15 -0.3030026244 0 2.296348368 -2.39104168e-16 -1.230261362)
(1.743265695 1.367158978e-15 1.113207311 -1.035481356e-15 -0.2711821031 0 2.139866382 -3.65148022e-16 -1.397131965)
(1.875155696 -3.697040256e-16 1.046272493 0 -0.2388198221 8.308958511e-15 1.958284209 -6.593574634e-16 -1.558208501)
(1.997600396 -1.589429295e-15 0.9654064557 -1.042315465e-15 -0.2060991755 0 1.752120647 3.152962623e-17 -1.710435409)
(2.107729122 9.729625133e-16 0.8710301435 -1.56982187e-15 -0.1732272403 -4.186191654e-15 1.522871698 8.025678536e-16 -1.85078652)
(2.202863805 7.633210177e-16 0.7637775549 -2.628247216e-16 -0.140428196 4.205195546e-15 1.273037661 -6.026851461e-17 -1.976423735)
(2.280457838 -1.295927271e-15 0.644419159 -5.282760851e-16 -0.1079374267 0 1.006088383 5.53434042e-17 -2.084837629)
(2.338576253 -1.522118857e-15 0.513989655 -6.639332551e-16 -0.0759983975 0 0.726325237 3.495622643e-16 -2.173961372)
(2.377238425 -2.128670571e-16 0.3735124714 -8.013818621e-16 -0.04484593876 -4.274036598e-15 0.4381684244 8.072324006e-16 -2.242296606)
(2.394427988 7.072845105e-16 0.1499715547 -6.383931819e-16 -0.01467259502 0 0.145647886 9.273001186e-16 -2.288663209)
(-0.7283370071 -2.087698172e-14 0.01812436395 2.13495632e-14 -1.20940462 0 0.09772401559 -1.34975438e-15 1.994515076)
(-0.9663406628 -2.682527753e-14 0.03013844943 2.431968499e-14 -1.047991181 0 0.2518455761 -2.505091218e-15 1.991014715)
(-0.9556041157 7.600849121e-15 0.04619498874 2.099533198e-14 -0.9987211766 -9.597866049e-14 0.3964120103 2.862027247e-14 1.985881297)
(-0.9734403723 1.654488615e-14 0.06779249128 8.810173384e-15 -0.9916788992 0 0.546432368 2.319315791e-14 1.977518325)
(-0.9659358492 5.607436908e-15 0.08924947865 3.522708831e-15 -0.9867737745 -5.636334129e-14 0.6927666268 2.884114938e-14 1.966455573)
(-0.9560001895 3.458375015e-15 0.1121854173 5.926989147e-15 -0.9820504097 0 0.8352199378 1.324360343e-14 1.952720861)
(-0.9442401724 2.442321259e-16 0.1369980807 5.156571071e-15 -0.9772782386 0 0.9738083987 6.131600157e-15 1.9362845)
(-0.9299793049 -4.161975676e-15 0.163778432 6.892500958e-15 -0.9721584175 3.676000511e-14 1.108361185 -5.207615125e-16 1.917115312)
(-0.913342705 -6.271253973e-15 0.1926481611 4.168623218e-15 -0.966558593 0 1.238794809 4.169185059e-15 1.895163993)
(-0.8943710427 2.022261041e-15 0.223681131 3.834806123e-15 -0.9604177914 0 1.365090539 4.363293064e-15 1.870383232)
(-0.8730294902 1.557150152e-15 0.256915063 1.783581383e-15 -0.9537016809 -2.853730212e-14 1.487271403 1.381993825e-14 1.842704658)
(-0.8492509786 -2.393645624e-15 0.2923565991 0 -0.9463875248 0 1.605369593 8.019368659e-15 1.81204606)
(-0.8229653797 -2.028913374e-15 0.3299736953 1.583542146e-15 -0.9384578108 0 1.719455019 6.819092114e-15 1.778332)
(-0.7940873939 -2.735036431e-15 0.3697228672 6.029445221e-15 -0.9298995091 0 1.829611549 5.836939774e-15 1.741461712)
(-0.7625164549 -1.614609469e-15 0.4115397465 5.770890389e-15 -0.9206998307 0 1.935932952 6.026885561e-15 1.70133675)
(-0.7281426232 1.300703122e-16 0.4553483823 2.774833328e-15 -0.9108470648 0 2.038531961 5.80373342e-15 1.657841004)
(-0.6908395493 1.944237083e-15 0.5010652256 5.359081488e-15 -0.9003287356 0 2.137516178 6.223048925e-15 1.610843555)
(-0.6504640374 4.742545228e-15 0.5486022397 5.193974667e-15 -0.8891318855 0 2.233004552 7.544770365e-15 1.560200981)
(-0.6068522526 2.978890153e-15 0.5978662502 2.525151918e-15 -0.8772419436 1.010060767e-14 2.325102784 9.369184601e-15 1.505741327)
(-0.5598172329 2.933753401e-16 0.6487607283 0 -0.8646428773 0 2.413913034 8.850309853e-15 1.447273188)
(-0.5091443172 8.369920482e-16 0.7011860571 0 -0.8513163152 0 2.499515932 6.575006311e-15 1.384573382)
(-0.4545867782 1.244213683e-15 0.7550357532 0 -0.8372415398 0 2.58197141 5.943060224e-15 1.317386072)
(-0.3958611136 4.482742181e-15 0.8101927013 -2.31717718e-15 -0.8223946758 -9.268708719e-15 2.661303076 6.029492767e-15 1.245417195)
(-0.3326456417 6.070012083e-15 0.866522495 0 -0.8067485965 0 2.737494626 4.051824361e-15 1.168327593)
(-0.2645742845 6.084656952e-15 0.9238675536 2.247723203e-15 -0.7902723833 8.990892813e-15 2.810471814 -8.376217897e-16 1.085732675)
(-0.1912336354 6.395919457e-15 0.9820281543 0 -0.7729310613 0 2.880086214 1.033523836e-16 0.9971957263)
(-0.1121649253 6.528457724e-15 1.04076425 0 -0.7546851872 0 2.946104463 -1.296128366e-15 0.9022284652)
(-0.02685963747 6.490401691e-15 1.099766423 0 -0.7354909334 0 3.008179971 -2.23482718e-16 0.8002877839)
(0.06523968236 6.551320965e-15 1.15863228 0 -0.7152996371 0 3.065827355 -6.332600378e-16 0.69078336)
(0.1647190705 7.962088273e-15 1.216852469 0 -0.6940580662 0 3.118399501 -1.119697204e-15 0.5730788425)
(0.2721912516 7.651573584e-15 1.273780823 0 -0.6717091277 0 3.165047866 -1.048372377e-15 0.4465115684)
(0.3882770444 5.49922228e-15 1.328614014 1.057701656e-15 -0.6481921117 8.461613246e-15 3.204684431 -2.497074955e-15 0.3104114619)
(0.5135627262 4.571332022e-15 1.380358391 0 -0.6234440751 0 3.235946897 -6.595113628e-17 0.1641258915)
(0.6485613325 5.212892199e-15 1.427797692 0 -0.5974016958 0 3.257147885 1.665040488e-18 0.007077143821)
(0.7936531064 2.279122531e-15 1.469503382 2.094992345e-15 -0.5700036526 8.379969378e-15 3.266246506 -6.643919091e-16 -0.1611807381)
(0.9490097655 4.167202664e-16 1.503824186 0 -0.5411940313 0 3.260818333 -3.522369614e-16 -0.3408860828)
(1.114489574 2.416743365e-15 1.528879423 0 -0.510926484 0 3.238037191 -5.483616814e-16 -0.5319665738)
(1.289526989 1.282809834e-15 1.542620463 1.045025672e-15 -0.4791700017 8.360205376e-15 3.194700159 -1.2917349e-15 -0.7339232861)
(1.473016129 1.123296695e-17 1.542889361 0 -0.4459150504 0 3.127292589 -1.510781631e-15 -0.9456916168)
(1.663167823 5.950868766e-16 1.527513147 0 -0.4111809281 0 3.032105437 -2.461850417e-15 -1.165521732)
(1.857409902 6.085069972e-16 1.494457961 0 -0.3750239246 0 2.905441506 -9.276591777e-16 -1.390861029)
(2.052318303 4.949946388e-16 1.441985668 0 -0.337544724 0 2.74391919 -1.347670898e-16 -1.618274144)
(2.243636451 -6.777876797e-16 1.368843082 -1.054794201e-15 -0.2988954278 0 2.544851823 4.222518741e-16 -1.843457504)
(2.426436117 -2.12019602e-15 1.274442212 -1.058547403e-15 -0.2592832787 0 2.306710183 -6.623906015e-17 -2.061378716)
(2.595409865 5.693075211e-16 1.158908233 -1.594268646e-15 -0.218970416 -4.251383056e-15 2.029579422 -3.709909747e-16 -2.266541147)
(2.745169481 1.832973762e-15 1.023002729 -1.067670724e-15 -0.1782679991 0 1.715539737 -1.288551083e-16 -2.453394185)
(2.870434293 -1.147403681e-16 0.8680488565 -5.365029084e-16 -0.1375280216 0 1.368931965 -1.287999002e-15 -2.616790654)
(2.967449671 -6.476704986e-16 0.6960447412 -5.394181298e-16 -0.0971341247 0 0.9962783982 -8.408156673e-16 -2.752452804)
(3.03589192 -2.123405578e-16 0.5088898359 -6.78218126e-16 -0.0574596031 0 0.6048630993 -1.056421459e-15 -2.857352851)
(3.068670401 1.989375925e-16 0.2052161093 -7.165806286e-16 -0.01881792121 0 0.2017430832 -6.504422889e-16 -2.929173675)
(-0.825764766 -1.966700746e-14 0.02034122215 2.168205524e-14 -1.371909539 0 0.1075654645 -3.077239346e-15 2.260265823)
(-1.095644137 -3.133854865e-14 0.03407549382 2.716827615e-14 -1.188421361 0 0.2770560955 -8.704201021e-15 2.256375996)
(-1.083696713 1.311821642e-15 0.05230839492 2.436835123e-14 -1.132489859 0 0.4360216978 -1.133320366e-14 2.250507342)
(-1.10394127 1.207765306e-14 0.07655120719 1.342107079e-14 -1.124574007 0 0.6009893102 2.693378944e-15 2.241027888)
(-1.095400607 6.578677e-15 0.1005443235 7.155140996e-15 -1.118998727 0 0.7617382512 7.627809466e-15 2.228573454)
(-1.084316208 8.226564945e-15 0.1261142109 6.019294394e-15 -1.113659981 0 0.9181298054 7.061599009e-15 2.213182094)
(-1.071247802 3.247478085e-15 0.1536769049 5.236878045e-15 -1.108291935 0 1.070160247 7.736884313e-15 2.194855485)
(-1.055472202 -3.360927131e-15 0.1833308211 2.333280937e-15 -1.102557665 0 1.217630143 9.187079469e-15 2.173599116)
(-1.03718424 -5.312601819e-15 0.2152057942 4.233544173e-15 -1.096313836 0 1.360464313 8.60305383e-15 2.149413576)
(-1.016471022 -3.019780736e-15 0.2493936131 3.894528305e-15 -1.089499995 0 1.49867166 1.03046318e-14 2.122284663)
(-0.9933174327 -1.390359064e-15 0.2859546096 5.434075119e-15 -1.082084895 0 1.632286551 1.357545996e-14 2.092169799)
(-0.9676887134 9.597498838e-16 0.3249021701 6.801272533e-15 -1.07404884 0 1.761380625 1.04555193e-14 2.059033095)
(-0.9395411846 -1.055383732e-15 0.366226111 6.432815127e-15 -1.065380248 0 1.886074136 9.131231928e-15 2.022824257)
(-0.9088076193 -1.991283445e-15 0.4098993535 3.061673045e-15 -1.056070416 0 2.006494278 8.288751391e-15 1.983471219)
(-0.8754118287 -1.030212527e-15 0.4558774987 5.860764598e-15 -1.04611173 0 2.122808577 7.801126658e-15 1.940907882)
(-0.8392586837 -5.008639635e-16 0.5041132897 5.636095589e-15 -1.035497182 0 2.235191136 7.705821682e-15 1.895034235)
(-0.8002352881 -1.275595852e-16 0.5545514781 5.442542302e-15 -1.024218539 0 2.343839721 8.059911331e-15 1.845748428)
(-0.7582084389 5.666357979e-17 0.607141278 2.637432077e-15 -1.012266701 0 2.448954996 9.314295393e-15 1.792912579)
(-0.7130165351 9.466529812e-16 0.6618354923 2.564477917e-15 -0.9996303776 -1.025791167e-14 2.55075076 1.278942648e-14 1.736374839)
(-0.6644704339 4.317749958e-15 0.718587376 2.500778256e-15 -0.9862959752 -1.000311302e-14 2.649436298 1.164189349e-14 1.675936755)
(-0.612343604 4.816024469e-15 0.7773602188 4.890043685e-15 -0.9722469433 0 2.745218826 8.908188215e-15 1.611373704)
(-0.5563672791 3.154296819e-15 0.8381192762 4.792284781e-15 -0.9574631707 0 2.838292857 6.505039487e-15 1.542410406)
(-0.4962249808 5.147765524e-15 0.9008340499 0 -0.9419204279 0 2.928837891 4.298552095e-15 1.468720644)
(-0.4315427724 1.04724896e-14 0.9654696984 -2.315661703e-15 -0.9255898013 -9.262646812e-15 3.017003338 4.367150767e-15 1.389915516)
(-0.3618781395 9.995854562e-15 1.031976554 2.282728606e-15 -0.9084369005 9.130914426e-15 3.102900364 1.860924394e-15 1.305537902)
(-0.2867199822 7.261520113e-15 1.100290348 0 -0.8904210541 0 3.186588706 1.482198305e-15 1.215048374)
(-0.2054723813 6.725903455e-15 1.170309395 2.228907812e-15 -0.8714950324 8.915631246e-15 3.268055336 -6.22078111e-17 1.117816463)
(-0.1174400894 6.179783215e-15 1.241877153 0 -0.8516037577 0 3.347190093 -1.09450818e-16 1.013115853)
(-0.02183523039 8.375996214e-15 1.314760426 0 -0.8306837018 0 3.423763397 -1.474113144e-15 0.9001055354)
(0.08223677657 7.941806821e-15 1.388614863 2.17269842e-15 -0.8086625615 8.690793679e-15 3.497386923 -1.335942004e-15 0.7778306067)
(0.1957831614 7.966850599e-15 1.462952476 0 -0.7854583464 0 3.567460673 4.534117999e-16 0.6452204621)
(0.3199136614 4.296696004e-15 1.537111828 2.148348002e-15 -0.7609791762 8.593392009e-15 3.63312755 2.287216848e-16 0.5010850698)
(0.4558332038 8.608101511e-16 1.610193242 0 -0.7351232672 0 3.693199488 1.384138707e-15 0.3441325399)
(0.6048031055 3.18227718e-15 1.680994294 0 -0.7077792664 0 3.746071381 2.296210734e-15 0.1729966314)
(0.7680902801 2.482914939e-15 1.747979967 0 -0.678827958 0 3.789632074 3.257923898e-15 -0.01371405144)
(0.94690304 1.82561241e-15 1.80922389 0 -0.6481444253 0 3.821159796 2.017341004e-15 -0.2173272939)
(1.142261544 3.115654311e-15 1.862336955 0 -0.6156015988 0 3.837214907 1.703450487e-15 -0.4389971481)
(1.354823029 3.144517614e-15 1.904439759 0 -0.5810762476 0 3.833533414 1.711204457e-15 -0.6795347798)
(1.584674188 3.61319495e-15 1.932177853 0 -0.5444570766 0 3.804966791 7.523388362e-16 -0.9391730967)
(1.831046725 4.371705888e-16 1.941778184 2.126663577e-15 -0.5056552567 8.506654307e-15 3.745474359 1.376354384e-16 -1.217284001)
(2.091968856 -2.568689876e-15 1.929162826 0 -0.4646184742 0 3.64821861 4.033272594e-16 -1.512029855)
(2.36392049 -9.470016986e-16 1.890199203 0 -0.421348029 0 3.505835461 3.38417505e-16 -1.81998914)
(2.641540057 -4.665670749e-16 1.821115571 0 -0.3759176701 0 3.310925624 2.511202329e-16 -2.135844912)
(2.917491868 -1.973693252e-16 1.718983351 0 -0.3284925706 0 3.056837153 -7.993885436e-16 -2.452231868)
(3.182636645 1.066749024e-15 1.582226022 -1.079398222e-15 -0.2793445986 0 2.738726986 -2.31417472e-15 -2.759885526)
(3.426355598 2.501086565e-15 1.410972284 -5.421491624e-16 -0.2288594609 0 2.354876545 -4.62839175e-16 -3.048205488)
(3.637225329 1.383429157e-17 1.207228883 -5.448582524e-16 -0.1775378669 4.35886602e-15 1.908198217 4.16108474e-16 -3.306219956)
(3.806693699 -1.933415442e-15 0.9750231711 -5.478188747e-16 -0.1259820146 0 1.407112701 -2.990814874e-16 -3.524090229)
(3.932394138 -5.994542812e-16 0.7183029746 -6.887805026e-16 -0.07480337232 0 0.8633149348 -5.93779953e-16 -3.694655045)
(3.996704046 -9.382905979e-17 0.2911786948 -7.623947592e-16 -0.02454049658 0 0.2896858661 -4.757073976e-16 -3.812700374)
(-0.9308590863 -1.418523444e-14 0.02276727935 1.467981816e-14 -1.547365985 0 0.1174473391 -5.556226318e-15 2.547089304)
(-1.235114594 -2.061515746e-14 0.03847554339 1.755815693e-14 -1.339956891 0 0.3023382581 -1.824214487e-14 2.542745694)