/*--------------------------------*- C++ -*----------------------------------*\
  =========                 |
  \\      /  F ield         | OpenFOAM: The Open Source CFD Toolbox
   \\    /   O peration     | Website:  https://openfoam.org
    \\  /    A nd           | Version:  7
     \\/     M anipulation  |
\*---------------------------------------------------------------------------*/
FoamFile
{
    version     2.0;
    format      ascii;
    class       volScalarField;
    location    "0.0027";
    object      p;
}
// * * * * * * * * * * * * * * * * * * * * * * * * * * * * * * * * * * * * * //

dimensions      [1 -1 -2 0 0 0 0];

internalField   nonuniform List<scalar> 
1167
(
1434951.289
1441222.248
1431417.622
1437992.599
1436435.301
1436669.66
1437242.339
1437861.559
1438586.616
1439418.211
1440346.034
1441363.137
1442463.958
1443643.224
1444894.492
1446212.53
1447591.693
1449025.909
1450510.303
1452038.381
1453605.367
1455204.858
1456831.873
1458480.073
1460144.255
1461818.03
1463495.96
1465171.592
1466839.111
1468491.923
1470123.89
1471728.295
1473298.665
1474828.265
1476310.433
1477738.569
1479106.151
1480406.672
1481634.062
1482782.163
1483845.48
1484818.289
1485695.737
1486472.95
1487145.843
1487710.4
1488163.396
1488502.258
1488725.455
1488826.561
1488797.57
1488683.41
1427816.707
1434694.673
1433074.679
1433368.067
1434013.792
1434716.754
1435539.819
1436481.175
1437528.772
1438674.748
1439913.219
1441237.101
1442639.614
1444115.233
1445657.049
1447259.587
1448916.646
1450622.573
1452371.566
1454157.929
1455976.029
1457820.137
1459684.498
1461563.456
1463450.907
1465340.995
1467227.304
1469103.596
1470963.171
1472799.21
1474604.618
1476372.19
1478094.456
1479764.024
1481372.947
1482913.779
1484378.693
1485760.089
1487050.549
1488242.632
1489329.562
1490304.666
1491162.049
1491896.156
1492502.413
1492977.339
1493317.528
1493514.784
1493566.009
1493526.772
1424166.4
1431345.672
1429662.551
1430017.205
1430736.863
1431525.319
1432448.184
1433501.039
1434670.41
1435948.233
1437326.909
1438798.318
1440355.856
1441992.406
1443701.234
1445476.412
1447311.254
1449200.501
1451137.744
1453117.904
1455134.908
1457183.624
1459258.198
1461353.328
1463463.218
1465581.876
1467703.337
1469821.269
1471928.989
1474019.547
1476085.615
1478119.335
1480112.888
1482057.558
1483944.537
1485764.779
1487508.673
1489166.556
1490728.577
1492184.973
1493526.025
1494742.727
1495826.286
1496769.129
1497564.63
1498207.967
1498693.461
1499010.585
1499163.61
1499221.388
1420483.354
1427961.477
1426214.683
1426632.489
1427426.812
1428301.671
1429325.128
1430490.438
1431783.207
1433194.453
1434714.868
1436336.132
1438050.829
1439850.83
1441729.78
1443680.594
1445697.35
1447773.77
1449904.498
1452083.71
1454306.356
1456566.93
1458860.523
1461181.8
1463525.567
1465886.327
1468258.477
1470635.936
1473012.431
1475381.249
1477734.796
1480065.364
1482364.502
1484622.89
1486830.662
1488977.123
1491051.008
1493039.986
1494931.245
1496711.783
1498368.095
1499886.974
1501255.698
1502462.683
1503498.195
1504355.165
1505025.053
1505494.387
1505778.644
1505964.723
1416782.254
1424556.442
1422745.613
1423228.543
1424097.557
1425058.76
1426182.99
1427461.149
1428878.096
1430423.065
1432085.849
1433857.97
1435730.422
1437695.412
1439745.598
1441874.003
1444074.476
1446340.851
1448667.806
1451050.054
1453482.532
1455960.613
1458479.584
1461034.922
1463621.936
1466236.061
1468872.161
1471525.062
1474189.276
1476858.411
1479525.662
1482183.544
1484823.678
1487436.834
1490012.366
1492538.421
1495002.049
1497388.689
1499682.17
1501865.131
1503919.011
1505824.51
1507562.506
1509115.1
1510467.481
1511607.992
1512521.969
1513191.043
1513647.677
1514004.125
1413078.248
1421145.311
1419269.457
1419818.551
1420760.618
1421806.795
1423030.361
1424420.318
1425959.804
1427636.755
1429440.86
1431362.245
1433391.266
1435520.182
1437740.628
1440046.168
1442429.923
1444886.443
1447410.094
1449996.299
1452640.455
1455338.37
1458086.153
1460879.993
1463716.247
1466591.018
1469500.489
1472440.664
1475407.021
1478394.424
1481397.339
1484409.309
1487422.853
1490429.465
1493419.058
1496379.702
1499297.542
1502156.508
1504937.844
1507620.13
1510179.514
1512590.249
1514825.074
1516856.139
1518656.803
1520202.053
1521462.478
1522411.15
1523110.374
1523717.331
1409385.494
1417739.41
1415795.357
1416410.68
1417423.217
1418551.908
1419872.662
1421371.917
1423031.177
1424837.767
1426780.815
1428848.99
1431032.868
1433323.345
1435712.536
1438193.078
1440758.767
1443403.498
1446122.409
1448910.872
1451765.021
1454681.276
1457656.498
1460687.806
1463772.451
1466907.964
1470091.933
1473321.699
1476594.379
1479906.909
1483255.635
1486636.178
1490043.259
1493470.367
1496909.615
1500351.055
1503782.256
1507187.824
1510548.567
1513841.106
1517037.303
1520103.426
1522999.27
1525678.996
1528095.679
1530206.634
1531968.611
1533347.514
1534432.832
1535420.031
1405698.522
1414335.37
1412322.238
1413008.494
1414093.669
1415308.314
1416730.448
1418343.041
1420126.584
1422068.091
1424154.834
1426375.107
1428718.731
1431175.786
1433738.144
1436397.92
1439148.751
1441984.741
1444900.736
1447892.659
1450956.82
1454090.406
1457290.767
1460555.889
1463884.218
1467274.505
1470725.61
1474236.52
1477806.286
1481434.013
1485118.488
1488858.166
1492650.981
1496493.834
1500382.52
1504311.185
1508271.406
1512251.692
1516236.361
1520204.439
1524128.403
1527973.225
1531696.127
1535249.417
1538585.356
1541649.195
1544347.184
1546562.722
1548346.928
1549844.122
1402036.666
1410959.423
1408876.487
1409641.492
1410801.213
1412103.864
1413628.505
1415354.367
1417261.158
1419334.47
1421560.04
1423925.855
1426420.172
1429033.359
1431756.09
1434581.022
1437501.312
1440511.588
1443607.132
1446784.258
1450040.157
1453372.605
1456780.148
1460262.018
1463817.971
1467448.155
1471153.217
1474934.252
1478792.737
1482730.457
1486749.417
1490852.139
1495041.341
1499319.635
1503689.677
1508153.583
1512712.72
1517366.76
1522112.798
1526943.86
1531846.917
1536800.347
1541770.436
1546705.35
1551522.686
1556076.569
1560117.208
1563424.58
1566309.391
1569305.378
1398536.793
1407732.745
1405529.578
1406360.55
1407561.104
1408910.404
1410489.67
1412274.153
1414243.017
1416380.087
1418670.823
1421101.833
1423661.017
1426337.819
1429123.079
1432008.522
1434987.626
1438054.669
1441205.061
1444435.263
1447742.473
1451124.679
1454580.77
1458110.064
1461712.433
1465388.259
1469138.458
1472964.432
1476868.061
1480851.518
1484917.839
1489070.551
1493314.017
1497653.484
1502095.19
1506646.345
1511315.535
1516112.544
1521048.194
1526134.03
1531381.731
1536801.604
1542400.184
1548176.665
1554117.949
1560188.318
1566349.136
1572819.417
1580506.394
1588914.442
1395051.841
1404610.773
1402268.51
1403197.891
1404470.866
1405908.909
1407597.846
1409510.681
1411626.332
1413928.914
1416404.475
1419038.948
1421820.842
1424738.708
1427783.592
1430946.835
1434221.106
1437600.483
1441079.75
1444654.589
1448321.617
1452078.181
1455922.297
1459852.598
1463868.244
1467968.906
1472154.737
1476426.459
1480785.28
1485232.826
1489771.808
1494405.426
1499138.011
1503975.276
1508924.745
1513996.452
1519203.302
1524562.455
1530096.717
1535836.101
1541819.822
1548098.778
1554737.642
1561816.744
1569429.662
1577677.677
1586725.729
1597067.215
1609519.759
1622579.901
1391596.996
1401375.136
1398973.183
1399904.63
1401179.934
1402616.832
1404302.854
1406210.182
1408316.152
1410604.745
1413060.586
1415669.265
1418418.072
1421295.469
1424290.865
1427395.57
1430601.388
1433901.242
1437289.469
1440760.825
1444310.933
1447936.089
1451633.179
1455399.471
1459232.737
1463131.043
1467092.607
1471115.916
1475199.778
1479343.194
1483545.287
1487805.39
1492123.189
1496498.617
1500931.985
1505424.143
1509976.404
1514591.047
1519271.864
1524025.166
1528861.478
1533798.857
1538867.725
1544118.013
1549626.198
1555506.948
1561967.865
1569410.76
1578120.805
1586617.989
1388309.021
1398214.789
1395798.041
1396737.547
1398040.123
1399507.262
1401227.718
1403172.871
1405319.349
1407650.849
1410150.643
1412804.408
1415598.101
1418520.16
1421559.244
1424705.766
1427951.463
1431288.741
1434711.028
1438212.651
1441788.816
1445435.256
1449148.18
1452924.169
1456760.363
1460654.147
1464603.183
1468605.038
1472657.813
1476759.769
1480909.39
1485105.265
1489346.599
1493633.368
1497966.015
1502346.109
1506776.806
1511263.042
1515812.012
1520433.572
1525140.561
1529948.49
1534874.878
1539938.029
1545155.931
1550539.207
1556051.985
1561533.758
1566694.857
1571213.198
1385012.74
1395027.365
1392606.364
1393546.242
1394869.777
1396359.472
1398105.25
1400078.601
1402256.023
1404620.262
1407154.245
1409842.96
1412672.01
1415628.54
1418701.198
1421879.258
1425153.451
1428515.644
1431958.295
1435474.793
1439059.215
1442706.277
1446411.118
1450169.375
1453976.884
1457829.71
1461724.43
1465657.664
1469626.121
1473626.989
1477657.608
1481715.628
1485799.272
1489907.534
1494040.204
1498198.344
1502384.688
1506604.08
1510864.148
1515175.713
1519553.425
1524015.064
1528579.627
1533262.382
1538065.903
1542959.429
1547827.494
1552410.318
1556375.132
1559562.472
1381689.265
1391794.622
1389374.27
1390306.772
1391643.805
1393147.156
1394907.259
1396896.53
1399091.273
1401473.013
1404025.073
1406731.054
1409576.799
1412548.327
1415633.692
1418821.902
1422102.79
1425467.264
1428907.207
1432415.361
1435985.02
1439610.008
1443284.736
1447004.216
1450763.63
1454558.467
1458384.472
1462238.151
1466115.749
1470014.27
1473930.915
1477863.626
1481810.764
1485771.517
1489746.096
1493735.942
1497743.958
1501774.914
1505835.646
1509935.256
1514084.67
1518295.187
1522574.27
1526917.654
1531296.445
1535637.198
1539796.551
1543566.175
1546770.111
1549357.003
1378347.104
1388529.164
1386113.202
1387034.391
1388381.259
1389893.639
1391662.687
1393662.106
1395867.248
1398259.211
1400821.074
1403535.857
1406388.667
1409365.587
1412453.46
1415640.893
1418917.24
1422272.774
1425698.711
1429187.07
1432730.594
1436322.606
1439957.035
1443628.129
1447330.788
1451060.426
1454812.385
1458582.951
1462368.468
1466165.897
1469972.653
1473786.883
1477607.246
1481433.192
1485265.32
1489105.375
1492956.615
1496824.006
1500714.204
1504635.551
1508596.524
1512602.75
1516650.245
1520715.434
1524743.521
1528637.656
1532256.156
1535448.48
1538153.583
1540390.175
1374977.088
1385226.323
1382817.196
1383723.945
1385076.53
1386593.025
1388365.467
1390368.87
1392577.318
1394972.332
1397535.734
1400251.053
1403102.15
1406074.991
1409156.206
1412333.481
1415595.608
1418932.541
1422335.031
1425794.591
1429303.414
1432854.536
1436441.603
1440058.709
1443700.372
1447361.909
1451039.012
1454727.804
1458424.872
1462127.376
1465833.09
1469540.336
1473248.049
1476956.001
1480664.945
1484376.737
1488094.522
1491822.728
1495567.281
1499334.57
1503129.402
1506950.255
1510781.599
1514584.473
1518290.556
1521802.057
1525000.847
1527790.074
1530178.078
1532207.088
1371571.251
1381878.632
1379477.967
1380367.066
1381720.938
1383236.567
1385006.934
1387007.716
1389212.557
1391602.956
1394160.115
1396867.377
1399708.568
1402668.605
1405734.188
1408892.613
1412132.315
1415442.73
1418814.267
1422238.178
1425706.46
1429211.922
1432747.856
1436308.521
1439888.564
1443483.037
1447088.024
1450699.68
1454314.824
1457930.876
1461545.833
1465158.128
1468766.875
1472372.045
1475974.392
1479575.722
1483178.873
1486787.818
1490407.317
1494041.307
1497690.182
1501344.691
1504978.4
1508541.623
1511962.158
1515152.571
1518022.765
1520518.099
1522688.336
1524579.661
1368122.749
1378479.262
1376088.143
1376956.477
1378307.691
1379818.12
1381581.278
1383573.455
1385768.678
1388147.457
1390691.677
1393383.577
1396207.334
1399147.706
1402190.613
1405323.287
1408534.074
1411812.123
1415147.616
1418531.545
1421955.878
1425413.374
1428897.4
1432401.89
1435921.869
1439452.51
1442989.905
1446530.369
1450070.985
1453609.326
1457143.47
1460671.93
1464193.955
1467709.501
1471219.281
1474724.932
1478228.872
1481734.432
1485244.802
1488761.178
1492278.951
1495781.459
1499233.602
1502580.267
1505752.519
1508677.9
1511291.481
1513568.362
1515581.67
1517373.563
1364623
1375019.884
1372639.117
1373484.102
1374829.078
1376330.608
1378081.714
1380060.216
1382240.235
1384601.702
1387126.808
1389797.661
1392597.883
1395512.542
1398527.424
1401629.498
1404806.858
1408048.64
1411344.956
1414686.741
1418065.936
1421475.092
1424907.867
1428358.34
1431821.265
1435292.29
1438767.418
1442243.073
1445716.539
1449185.467
1452647.92
1456102.518
1459548.549
1462985.873
1466415.137
1469837.677
1473255.478
1476670.886
1480085.326
1483496.865
1486895.746
1490258.644
1493544.529
1496697.443
1499655.942
1502363.283
1504774.845
1506885.852
1508781.914
1510498.023
1361062.102
1371491.088
1369121.622
1369941.011
1371276.768
1372765.818
1374500.667
1376461.316
1378621.165
1380960.793
1383461.659
1386106.585
1388878.985
1391763.542
1394746.328
1397814.301
1400955.45
1404158.887
1407414.65
1410713.664
1414047.979
1417410.237
1420793.797
1424193.144
1427602.995
1431019.1
1434437.408
1437854.601
1441267.952
1444675.134
1448074.207
1451463.862
1454843.336
1458212.428
1461571.626
1464921.932
1468264.772
1471601.293
1474930.93
1478248.4
1481538.994
1484773.911
1487908.934
1490890.514
1493666.626
1496194.77
1498445.825
1500428.348
1502234.176
1503890.334
1357429.857
1367883.123
1365525.869
1366317.886
1367641.838
1369115.208
1370830.524
1372769.671
1374905.608
1377219.495
1379692.646
1382307.869
1385049.044
1387900.869
1390849.224
1393881.154
1396984.74
1400149.13
1403364.355
1406621.458
1409912.244
1413229.611
1416567.056
1419918.737
1423279.803
1426645.777
1430012.682
1433377.412
1436737.167
1440089.573
1443432.765
1446765.45
1450086.772
1453396.468
1456694.778
1459982.36
1463259.936
1466527.331
1469781.776
1473014.559
1476206.477
1479324.654
1482324.09
1485155.708
1487777.158
1490157.975
1492280.519
1494162.045
1495897.031
1497504.699
1353715.541
1364185.794
1361841.768
1362605.054
1363914.736
1365370.015
1367063.494
1368978.161
1371087.698
1373372.859
1375815.904
1378399.324
1381107.191
1383924.571
1386837.408
1389832.785
1392898.85
1396024.752
1399200.524
1402417.347
1405667.03
1408942.289
1412236.789
1415544.76
1418861.299
1422181.827
1425502.612
1428820.455
1432132.577
1435436.59
1438730.687
1442013.541
1445284.247
1448542.433
1451788.056
1455021.346
1458242.208
1461449.055
1464636.784
1467793.305
1470895.636
1473908.201
1476786.947
1479488.468
1481979.426
1484239.08
1486258.109
1488059.474
1489738.264
1491306.353
1450039.532
1453211.316
1456365.309
1459493.976
1462582.063
1465603.491
1468521.396
1471293.852
1473883.433
1476264.798
1478424.86
1480360.313
1482097.819
1483731.952
1485267.802
)
;

boundaryField
{
    front_top
    {
        type            wedge;
    }
    front_middle
    {
        type            wedge;
    }
    front_bottom
    {
        type            wedge;
    }
    back_top
    {
        type            wedge;
    }
    back_middle
    {
        type            wedge;
    }
    back_bottom
    {
        type            wedge;
    }
    axis_top
    {
        type            symmetryPlane;
    }
    axis_middle
    {
        type            symmetryPlane;
    }
    axis_bottom
    {
        type            symmetryPlane;
    }
    wall_top
    {
        type            fixedFluxPressure;
        gradient        uniform 0;
        value           nonuniform List<scalar> 10(1488683.41 1493526.772 1499221.388 1505964.723 1514004.125 1523717.331 1535420.031 1549844.122 1569305.378 1588914.442);
    }
    wall_middle
    {
        type            fixedFluxPressure;
        gradient        uniform 0;
        value           nonuniform List<scalar> 
14
(
1622579.901
1586617.989
1571213.198
1559562.472
1549357.003
1540390.175
1532207.088
1524579.661
1517373.563
1510498.023
1503890.334
1497504.699
1491306.353
1485267.802
)
;
    }
    wall_bottom
    {
        type            fixedFluxPressure;
        gradient        nonuniform 0();
        value           nonuniform 0();
    }
    inlet
    {
        type            zeroGradient;
    }
    outlet
    {
        type            fixedValue;
        value           nonuniform 0();
    }
    procBoundary5to4
    {
        type            processor;
        value           nonuniform List<scalar> 
51
(
1349908.097
1360388.764
1358059.041
1358792.432
1360085.982
1361521.662
1363191.488
1365079.838
1367161.252
1369416.223
1371827.505
1374378.193
1377052.277
1379834.891
1382712.286
1385671.651
1388701.194
1391790.092
1394928.465
1398107.335
1401318.556
1404555.019
1407810.091
1411078.292
1414354.443
1417634.146
1420913.717
1424189.897
1427459.87
1430721.332
1433972.516
1437212.024
1440438.929
1443652.684
1446852.988
1446852.988
1445036.358
1448165.969
1451274.001
1454350.631
1457377.724
1460326.753
1463160.637
1465840.435
1468334.525
1470624.372
1472702.848
1474570.936
1476257.677
1477856.601
1479366.538
)
;
    }
    procBoundary5to6
    {
        type            processor;
        value           nonuniform List<scalar> 
51
(
1438399.213
1444365.925
1439727.271
1439727.271
1439905.262
1440406.452
1440943.947
1441573.91
1442298.436
1443109.44
1444001.19
1444968.318
1446006.756
1447111.359
1448276.425
1449497.88
1450769.65
1452086.903
1453444.085
1454835.738
1456256.537
1457700.627
1459162.753
1460636.828
1462117.436
1463598.414
1465074.165
1466538.476
1467985.47
1469408.967
1470802.888
1472161.223
1473477.761
1474746.74
1475962.247
1477118.854
1478211.134
1479234.088
1480182.97
1481053.41
1481841.366
1482543.024
1483155.101
1483674.487
1484098.638
1484425.075
1484652.408
1484780.006
1484803.401
1484710.417
1484538.04
)
;
    }
}


// ************************************************************************* //
