/*--------------------------------*- C++ -*----------------------------------*\
  =========                 |
  \\      /  F ield         | OpenFOAM: The Open Source CFD Toolbox
   \\    /   O peration     | Website:  https://openfoam.org
    \\  /    A nd           | Version:  7
     \\/     M anipulation  |
\*---------------------------------------------------------------------------*/
FoamFile
{
    version     2.0;
    format      ascii;
    class       volScalarField;
    location    "0.0027";
    object      rho;
}
// * * * * * * * * * * * * * * * * * * * * * * * * * * * * * * * * * * * * * //

dimensions      [1 -3 0 0 0 0 0];

internalField   nonuniform List<scalar> 
1167
(
950.7020686
950.6759226
950.5898869
950.563314
950.5063978
950.4223607
950.3130633
950.1801501
950.0252564
949.8499166
949.6554072
949.4430712
949.2144701
948.9706085
948.7126404
948.4419718
948.1593301
947.8659787
947.5627471
947.2505739
946.9303577
946.6028111
946.2688317
945.928984
945.5841095
945.2347357
944.8815802
944.5251724
944.1660989
943.8049728
943.4422325
943.0785981
942.7143466
942.350351
941.9868028
941.6245538
941.2638768
940.905528
940.5499292
940.1976948
939.8493125
939.5052791
939.1661292
938.8322213
938.5040269
938.1817558
937.8656967
937.55594
937.2525407
936.9554678
936.664422
936.3793171
950.4785052
950.4514337
950.3934513
950.3078357
950.1964756
950.061078
949.903344
949.724605
949.5262744
949.3098455
949.076638
948.8277106
948.5644543
948.2878684
947.9989491
947.6989177
947.388393
947.0686565
946.740115
946.4039501
946.0605036
945.7108611
945.3552977
944.9948327
944.6296949
944.2607451
943.8883502
943.5131783
943.1357709
942.756586
942.3764043
941.9955414
941.6149056
941.2348613
940.856235
940.4796919
940.1058762
939.7356864
939.3696344
939.0088262
938.6536638
938.3051573
937.9637089
937.6300998
937.3046285
936.9878204
936.6796232
936.3802758
936.0893259
935.8067185
950.3678048
950.3401556
950.2809371
950.1934899
950.0797472
949.9415627
949.7803654
949.5976479
949.3948555
949.1735967
948.9348872
948.6800146
948.4103306
948.1266378
947.8302649
947.5219565
947.2027529
946.8734245
946.5348054
946.1875939
945.8325213
945.4701553
945.101251
944.7261536
944.3457183
943.9601548
943.5702636
943.1763976
942.7791119
942.3790921
941.9767037
941.5728193
941.1679151
940.7627513
940.3582904
939.9551444
939.5544659
939.157154
938.7642625
938.3771179
937.9966237
937.6242138
937.2608483
936.9077414
936.5657547
936.2356815
935.9180359
935.6130768
935.3206601
935.0404948
950.25767
950.2293567
950.1687163
950.0791754
949.9628178
949.8212401
949.6560321
949.4686951
949.2608641
949.0337721
948.7886069
948.5268442
948.2494033
947.9573986
947.6519401
947.3337478
947.0039429
946.6630106
946.3119886
945.9512465
945.5816375
945.2035813
944.8176514
944.4243946
944.0240871
943.6175198
943.204831
942.7865889
942.3633554
941.9354582
941.5036226
941.0684094
940.6304256
940.1906703
939.7499118
939.3091233
938.8696778
938.4327987
937.9998949
937.5728006
937.1531749
936.7428633
936.3440489
935.9584145
935.5879942
935.2343676
934.898856
934.5823344
934.2850684
934.0066797
950.1479894
950.1189181
950.056701
949.9648631
949.8453449
949.6998756
949.5300577
949.337503
949.1237154
948.8898588
948.6373141
948.3673364
948.0807926
947.7790672
947.462744
947.1329643
946.7902636
946.435599
946.0693187
945.69233
945.3048098
944.9075002
944.5006155
944.0845324
943.6597825
943.2264573
942.7849983
942.3357974
941.8790573
941.415242
940.9449314
940.4685191
939.9866612
939.500286
939.0102642
938.5177006
938.0239773
937.5308673
937.0402044
936.5541856
936.0753733
935.6068481
935.1516029
934.7130081
934.2947231
933.8999361
933.5316728
933.1924172
932.8833989
932.6049422
950.03873
950.0088415
949.9448255
949.8502535
949.7271419
949.5772402
949.4021758
949.2037017
948.9829889
948.7413463
948.480335
948.2007525
947.9038331
947.5905118
947.261605
946.9179758
946.560219
946.1889854
945.8047989
945.4079844
944.9991758
944.5783784
944.1460058
943.7022728
943.247211
942.7810785
942.3040444
941.8161161
941.3174554
940.8084183
940.2892114
939.7601284
939.2216675
938.6744991
938.1195838
937.5579392
936.990999
936.420549
935.8488277
935.2786292
934.7133579
934.1571271
933.6147001
933.0915544
932.5937917
932.1278776
931.7004642
931.3171885
930.9825402
930.6986164
949.9298009
949.8989455
949.8328562
949.7352
949.6080294
949.4531128
949.2722656
949.0668764
948.8382736
948.5879362
948.3169934
948.0264144
947.7174826
947.3907028
947.0472572
946.68739
946.3120573
945.921389
945.515946
945.0959795
944.6615386
944.2129796
943.7501681
943.2730595
942.7817043
942.2759988
941.7557155
941.2207214
940.6709103
940.1063076
939.5267598
938.9323062
938.3231243
937.6995221
937.062043
936.4115042
935.7490412
935.0762949
934.3954743
933.7095045
933.0222775
932.3388396
931.6655828
931.0105628
930.3835553
929.7961581
929.2614038
928.7927922
928.4027902
928.0999728
949.8210288
949.7890906
949.7206787
949.6195645
949.4878375
949.3274027
949.1398997
948.9267038
948.6892364
948.4289536
948.1467033
947.8437717
947.5208767
947.1789166
946.8184286
946.4400965
946.0440796
945.6310369
945.2008313
944.7536287
944.2895333
943.8082362
943.3095533
942.7933309
942.2591506
941.7065464
941.1350659
940.5442464
939.9336041
939.3026085
938.6508083
937.9777871
937.2831447
936.566692
935.8282868
935.0680833
934.2865342
933.4844779
932.6635519
931.8259315
930.9749193
930.1154216
929.2544724
928.4016539
927.5703781
926.778732
926.05001
925.4131491
924.9006017
924.5428506
949.712331
949.6791862
949.6081873
949.5032187
949.3664724
949.1998487
949.0048301
948.7828764
948.5355778
948.2639299
947.9690319
947.6519659
947.3133123
946.9539558
946.5742017
946.1745315
945.7551837
945.3161194
944.8575391
944.379129
943.8805707
943.3614992
942.8215864
942.2600656
941.6762609
941.0694096
940.4387005
939.7832403
939.1020585
938.3941892
937.658602
936.8942558
936.1000972
935.2752215
934.4185862
933.5292031
932.6065339
931.6499478
930.6592966
929.6348398
928.5778965
927.4907529
926.3778876
925.2469292
924.1104268
922.9888936
921.9153761
920.9410277
920.1413089
919.6168447
949.6036363
949.5691513
949.495286
949.3860826
949.2438278
949.0702088
948.8668249
948.6352428
948.3768018
948.0924289
947.7834533
947.4503659
947.0941319
946.7149348
946.3135249
945.8897193
945.443693
944.97543
944.4844707
943.9704217
943.4328453
942.87102
942.2840714
941.6710794
941.0310014
940.3627208
939.6649848
938.9364425
938.1756872
937.3811681
936.5514921
935.6847259
934.7790763
933.8328814
932.8438712
931.8102337
930.7294568
929.5992354
928.4171221
927.1803681
925.8860977
924.5314978
923.1139138
921.6317678
920.0853828
918.4808714
916.8370117
915.2016006
913.6877489
912.5569491
949.4988942
949.4634741
949.3875958
949.2754303
949.1290762
948.9503242
948.740741
948.5020227
948.2350894
947.9411226
947.6210836
947.2755569
946.9052213
946.5103523
946.0910895
945.6476515
945.1796664
944.6868385
944.1688719
943.6249677
943.0543445
942.4560798
941.8291323
941.1722995
940.4842937
939.7636881
939.0089115
938.2183309
937.3901262
936.5226713
935.6136519
934.6610006
933.6624543
932.6154343
931.5172248
930.3648872
929.1548733
927.883446
926.5461086
925.137538
923.6512971
922.079252
920.4107339
918.6314065
916.7209318
914.6487953
912.3670957
909.7972824
906.8043529
903.149909
949.3970493
949.3610763
949.283928
949.1697217
949.0206198
948.8383854
948.6246933
948.3808872
948.1079539
947.8071824
947.4790868
947.1245125
946.7436398
946.3370391
945.9044482
945.4459007
944.961189
944.4496841
943.9107872
943.3437478
942.7477115
942.1215459
941.4640248
940.773827
940.04955
939.289679
938.4925515
937.6563542
936.7792038
935.8592767
934.8942901
933.8820907
932.8201595
931.7061746
930.5370712
929.3097581
928.0209143
926.6666406
925.2424227
923.7430103
922.162305
920.4925063
918.7243554
916.8457603
914.8410821
912.6899911
910.3651098
907.8299948
905.0350792
901.9110621
949.2937442
949.2571035
949.1784936
949.062071
948.9099887
948.7239978
948.5058361
948.2565236
947.9772302
947.6690078
947.3323267
946.9679772
946.5760348
946.1567533
945.7101014
945.2357155
944.7332561
944.2022391
943.6417844
943.0510203
942.4289164
941.7743288
941.0859575
940.3624392
939.6022573
938.8038113
937.9655285
937.0856481
936.1622126
935.1934391
934.1771714
933.1114173
931.9938613
930.8221503
929.5937981
928.306119
926.9562077
925.5408931
924.0565982
922.4992171
920.8645093
919.1471328
917.3412546
915.4399721
913.435259
911.31784
909.0770507
906.7007779
904.1753951
901.4843936
949.1887678
949.1513746
949.0711296
948.9522351
948.7968359
948.6068127
948.3835443
948.128147
947.8419054
947.5254336
947.1794809
946.8043491
946.4004333
945.9675165
945.5056644
945.0144604
944.4933075
943.9415496
943.3583869
942.7429161
942.0939567
941.4102831
940.6905918
939.9336117
939.1377398
938.3014636
937.4231257
936.5013425
935.5341324
934.5199506
933.4568047
932.3432007
931.1770637
929.9564626
928.6795168
927.3442875
925.9486115
924.4903627
922.9673417
921.3772519
919.7176064
917.9859478
916.1798194
914.2965879
912.3338338
910.28946
908.1615057
905.9488673
903.6508944
901.2673037
949.0820378
949.0438093
948.9617546
948.8401298
948.6811489
948.4865993
948.2577235
947.9957517
947.7018236
947.3763861
947.0203531
946.6336813
946.2167691
945.7694145
945.2913182
944.7821923
944.2413998
943.6681243
943.0614991
942.4205142
941.7440656
941.0309237
940.2798326
939.4894111
938.6583185
937.785256
936.8685949
935.9070156
934.8990275
933.843222
932.7380804
931.5824229
930.3747611
929.1137379
927.7982125
926.4269456
924.9988432
923.5130191
921.9683886
920.3643518
918.7003084
916.9761149
915.1916324
913.3473357
911.4442935
909.4840696
907.4689994
905.4022997
903.2876881
901.1289562
948.9734767
948.934333
948.8502978
948.7257041
948.562877
948.363307
948.1283348
947.8593223
947.5569837
947.222065
946.8550047
946.4561039
946.0252304
945.5625383
945.0674794
944.5395551
943.978134
943.3824842
942.7516947
942.0847015
941.3803944
940.6376851
939.855392
939.0321974
938.1668856
937.2583025
936.3052819
935.3065117
934.261027
933.1676636
932.0254752
930.833577
929.591199
928.2976979
926.9525852
925.5555355
924.1063754
922.6050529
921.0520084
919.4477961
917.7933975
916.0900044
914.3395532
912.544219
910.7068994
908.8310317
906.920693
904.9804541
903.0151575
901.029323
948.8630112
948.8228751
948.7366938
948.6090279
948.4418895
948.2369
947.9954502
947.7187727
947.4074173
947.0623556
946.6835883
946.2716603
945.8262725
945.3472384
944.8343911
944.2870068
943.7044097
943.0858225
942.4303476
941.7370222
941.0047947
940.2326308
939.4194152
938.5642436
937.6660001
936.7236134
935.7364353
934.7033188
933.6237481
932.4970027
931.3225902
930.1001252
928.8294673
927.5107034
926.1439588
924.7296909
923.2685358
921.7614994
920.2099614
918.6153309
916.9798714
915.3057159
913.5957247
911.8533898
910.0823364
908.2867735
906.4713012
904.6407141
902.799684
900.9523225
948.7505722
948.7094068
948.6210394
948.489909
948.3181479
948.1073565
947.8590755
947.5741296
947.2533592
946.897359
946.5064142
946.0805663
945.6199603
945.1241278
944.5926773
944.0250666
943.4207228
942.7787599
942.0983337
941.3785303
940.6185204
939.8173778
938.9741219
938.0879223
937.1581835
936.1840403
935.1650128
934.1004802
932.990343
931.8342918
930.6323009
929.3845288
928.091485
926.753777
925.3722146
923.9479411
922.4822637
920.9771
919.4342534
917.8561951
916.2455521
914.6054232
912.9390747
911.2505636
909.5437813
907.8230919
906.0930404
904.3582064
902.6227312
900.8900529
948.6362309
948.5939481
948.5031248
948.3683036
948.1916236
947.9747861
947.7191369
947.4254403
947.0947517
946.7272084
946.3234803
945.8832903
945.4066362
944.8933924
944.3429351
943.7547429
943.1281892
942.4625518
941.757073
941.0109447
940.223416
939.3937025
938.5213297
937.60553
936.6458452
935.642005
934.5936597
933.5007191
932.3634508
931.181989
929.9567738
928.6885653
927.378356
926.0272353
924.6366603
923.2082669
921.7441015
920.2464399
918.7176781
917.1608405
915.5788504
913.9752559
912.3535979
910.7180412
909.0724179
907.4210309
905.7681847
904.1177679
902.4733845
900.8380656
948.5198101
948.4763241
948.3829008
948.2441752
948.0622976
947.8391418
947.575667
947.2729222
946.9316791
946.5522856
946.1350121
945.6799863
945.1869251
944.6555733
944.0855964
943.476443
942.827474
942.1380607
941.407537
940.6353331
939.8209047
938.9636015
938.0630077
937.1190332
936.131246
935.0998264
934.0246983
932.9063277
931.7452506
930.5420697
929.2977034
928.0134281
926.6906265
925.3309078
923.9361906
922.5085387
921.0505124
919.5646458
918.0538107
916.5212743
914.9702146
913.404252
911.8270941
910.2426654
908.6547642
907.0674788
905.4843873
903.90921
902.3448174
900.7936288
948.4012335
948.3564817
948.2603238
948.1174947
947.9303394
947.7003778
947.4287135
947.1165661
946.7642744
946.3725842
945.9413982
945.4709383
944.9610664
944.4113943
943.8215666
943.1911484
942.5196325
941.8065048
941.0512337
940.2533787
939.4125126
938.5285417
937.6011655
936.6303951
935.616451
934.5595781
933.4602012
932.3192846
931.1375478
929.916078
928.6562978
927.3598487
926.0284667
924.6642307
923.2693637
921.8463714
920.3980797
918.9272804
917.4370495
915.9307778
914.4117892
912.8836078
911.3500474
909.8145482
908.2809932
906.7527127
905.2333378
903.7255789
902.2322362
900.7549532
948.2804484
948.2343728
948.1353561
947.9883399
947.7955761
947.5585217
947.2784801
946.956425
946.592855
946.188299
945.7429213
945.2566579
944.7294669
944.1611707
943.5513343
942.8995931
942.2055555
941.4688301
940.6890789
939.8662403
938.9999548
938.0902183
937.1373643
936.1414882
935.1032407
934.0230949
932.9020592
931.7412401
930.5418081
929.305251
928.0334046
926.7281969
925.3917441
924.0264427
922.6347782
921.2195437
919.7837063
918.3303228
916.8625286
915.3836728
913.8971783
912.4064024
910.9150056
909.4262345
907.9434605
906.470023
905.008669
903.5620908
902.1323535
900.7208085
948.1574061
948.109954
948.0080382
947.8566766
947.6580145
947.4136106
947.1249558
946.7926167
946.4175002
945.9997185
945.5397653
945.0375205
944.4928658
943.9056407
943.275629
942.6025608
941.8861845
941.1262579
940.3226545
939.4753098
938.5844394
937.6503048
936.6732278
935.654008
934.5932821
933.4920601
932.3517392
931.1735913
929.9592088
928.7104987
927.4295751
926.1186137
924.7800855
923.4165714
922.0308336
920.6257948
919.2045401
917.7702537
916.3260334
914.8751715
913.4210794
911.966969
910.5160582
909.0716384
907.6366426
906.2138529
904.8059428
903.4150574
902.0428057
900.690318
920.0631197
918.6579833
917.2439232
915.8239646
914.4012971
912.9790429
911.5605531
910.1486159
908.7461362
907.3558428
905.9803256
904.6216716
903.2817332
901.9618344
900.6628371
)
;

boundaryField
{
    front_top
    {
        type            wedge;
    }
    front_middle
    {
        type            wedge;
    }
    front_bottom
    {
        type            wedge;
    }
    back_top
    {
        type            wedge;
    }
    back_middle
    {
        type            wedge;
    }
    back_bottom
    {
        type            wedge;
    }
    axis_top
    {
        type            symmetryPlane;
    }
    axis_middle
    {
        type            symmetryPlane;
    }
    axis_bottom
    {
        type            symmetryPlane;
    }
    wall_top
    {
        type            calculated;
        value           nonuniform List<scalar> 10(936.2383904 935.6681654 934.9050572 933.8755045 932.4794227 930.5807319 927.9923852 924.4491211 919.5421443 912.5091721);
    }
    wall_middle
    {
        type            calculated;
        value           uniform 900.0184441;
    }
    wall_bottom
    {
        type            calculated;
        value           nonuniform 0();
    }
    inlet
    {
        type            calculated;
        value           nonuniform 0();
    }
    outlet
    {
        type            calculated;
        value           nonuniform 0();
    }
    procBoundary5to4
    {
        type            processor;
        value           nonuniform List<scalar> 
51
(
948.0321027
947.9832934
947.8783753
947.7224204
947.5176706
947.2658498
946.9681705
946.6253914
946.2383259
945.8072353
945.3323015
944.8137975
944.2515427
943.6454147
942.9952874
942.3010189
941.5625029
940.7796903
939.9527762
939.0819492
938.1674914
937.2100695
936.2103842
935.1693713
934.0880549
932.9679651
931.8105413
930.617485
929.3907135
928.1324797
926.8451092
925.5310446
924.1929901
922.8336706
921.4560583
921.4560583
919.5295835
918.1417574
916.7485552
915.3531611
913.958513
912.5676137
911.1834061
909.808633
908.4459735
907.0977556
905.7661609
904.4530658
903.1600396
901.8880987
900.6378794
)
;
    }
    procBoundary5to6
    {
        type            processor;
        value           nonuniform List<scalar> 
51
(
950.8152374
950.789417
950.6199186
950.6199186
950.5372301
950.4296927
950.2989303
950.1464692
949.9739291
949.7826458
949.5738738
949.3489802
949.1093408
948.8558906
948.5899374
948.3125103
948.0244986
947.7271633
947.421071
947.1074414
946.7867669
946.4601101
946.1279542
945.7912208
945.4503646
945.1062403
944.759202
944.4100799
944.0591376
943.7072374
943.3545352
943.0019132
942.6494754
942.2980347
941.9477719
941.5993625
941.253049
940.9094171
940.56875
940.2315263
939.89799
939.5685365
939.2433659
938.9227878
938.6068704
938.2958582
937.9896123
937.6883381
937.3916965
937.0998976
936.8124111
)
;
    }
}


// ************************************************************************* //
