/*--------------------------------*- C++ -*----------------------------------*\
  =========                 |
  \\      /  F ield         | OpenFOAM: The Open Source CFD Toolbox
   \\    /   O peration     | Website:  https://openfoam.org
    \\  /    A nd           | Version:  7
     \\/     M anipulation  |
\*---------------------------------------------------------------------------*/
FoamFile
{
    version     2.0;
    format      ascii;
    class       volTensorField;
    location    "0.0006";
    object      grad(U);
}
// * * * * * * * * * * * * * * * * * * * * * * * * * * * * * * * * * * * * * //

dimensions      [0 0 -1 0 0 0 0];

internalField   nonuniform List<tensor> 
1167
(
(0.0008965157971 -1.623340413e-15 -8.43451716e-05 -1.79073616e-15 0.001470018136 4.206368637e-13 -8.930785073e-06 -1.26319241e-14 0.01079464328)
(0.001185884205 -1.553166269e-15 -0.0001951781984 8.291047548e-16 0.001283736198 0 -2.30784367e-05 -5.467027417e-15 0.01079648459)
(0.001155299923 -2.580196088e-15 -0.0003156042696 9.251464207e-16 0.001223212851 -8.864092957e-14 -3.59501099e-05 2.009043681e-15 0.01080033233)
(0.001159325984 2.750797122e-15 -0.0004357768943 1.710358996e-15 0.001207179307 0 -4.860467161e-05 -6.779831368e-16 0.01080612566)
(0.001133782796 6.615442388e-15 -0.0005552599219 -4.162053941e-16 0.001194562112 0 -6.10178257e-05 -3.105868277e-16 0.01081372182)
(0.00109945108 5.028356848e-15 -0.0006745463107 -1.258881073e-15 0.001180968951 0 -7.341324874e-05 4.959001403e-16 0.01082305957)
(0.001060053745 9.697806408e-16 -0.000793198903 -1.771926259e-15 0.001166257452 -3.809873993e-14 -8.520950936e-05 2.016220986e-15 0.01083423656)
(0.001013989798 8.523461815e-16 -0.0009107448167 -1.239128726e-15 0.001150186409 0 -9.588130098e-05 -6.181106732e-17 0.01084651101)
(0.000962360043 6.297741626e-16 -0.001027395842 -1.539594e-15 0.001132460761 3.079939939e-14 -0.0001056353073 -2.577644159e-15 0.01085999859)
(0.0009070342883 -3.136385642e-15 -0.00114359133 -1.148262433e-15 0.001113280171 2.833302967e-14 -0.0001148324279 -1.554289258e-15 0.01087467069)
(0.0008472438536 -3.11278655e-15 -0.001258871897 -7.206603116e-16 0.001092796394 0 -0.0001230142621 2.247996942e-16 0.0108903024)
(0.000783745598 -9.890208547e-16 -0.001373247569 -4.6508155e-16 0.001070978607 0 -0.0001303112493 1.212280182e-15 0.01090680512)
(0.0007177776669 3.565453212e-16 -0.001487083082 -4.655934772e-16 0.001048035389 0 -0.0001371620268 6.971950043e-16 0.01092431787)
(0.0006484842381 4.119662529e-16 -0.001599497934 -4.513517253e-16 0.001024082745 0 -0.0001428960056 8.295238298e-16 0.01094234946)
(0.0005764917199 -5.718753461e-16 -0.001710457669 -4.58020755e-16 0.0009991359591 0 -0.0001477750615 5.176497243e-16 0.01096094083)
(0.0005021776327 -7.373616617e-16 -0.001819682978 -3.42860244e-16 0.0009733434392 0 -0.0001517842736 5.711169928e-16 0.01097998618)
(0.0004258321017 -6.504516809e-17 -0.001926854269 -3.286691444e-16 0.0009467395391 0 -0.0001549766021 5.204232552e-16 0.01099934061)
(0.0003481139494 -4.819023336e-16 -0.002031736435 -2.998054075e-16 0.0009194531049 0 -0.0001574959236 6.947020753e-16 0.01101913193)
(0.0002689639832 1.072216645e-15 -0.002133759548 -2.550734138e-16 0.0008915554374 -9.328399133e-15 -0.0001592386752 1.443172491e-15 0.01103897531)
(0.0001887617173 2.36083608e-15 -0.00223239644 -3.664437653e-16 0.0008631274227 0 -0.0001601957933 1.908162074e-15 0.0110590429)
(0.0001076554923 1.96009796e-15 -0.002327166498 -4.234143403e-16 0.0008342445031 -1.778774501e-14 -0.0001604318782 2.746406441e-15 0.01107896479)
(2.611456013e-05 9.999169468e-16 -0.002417441358 -4.872998896e-16 0.000804971263 0 -0.0001599343474 2.269356531e-15 0.01109890886)
(-5.566544605e-05 2.70015465e-16 -0.002502716973 -4.68130483e-16 0.0007753924991 -8.560100261e-15 -0.0001588118584 1.999990726e-15 0.01111856295)
(-0.0001373119386 5.206876867e-16 -0.002582254449 -4.709326526e-16 0.0007455629725 0 -0.0001570299345 1.320572401e-15 0.01113802536)
(-0.0002190743112 5.748793539e-16 -0.002655400154 -4.743712356e-16 0.0007155670388 0 -0.0001546140892 8.528610166e-16 0.01115706555)
(-0.0003009121701 6.770741209e-16 -0.002721344183 -4.784001365e-16 0.0006854244257 0 -0.0001515453175 7.677666224e-16 0.0111756229)
(-0.0003823119898 8.050232778e-16 -0.002779506333 -4.869399666e-16 0.0006552021106 0 -0.0001479740323 1.02435735e-15 0.01119369529)
(-0.0004628997526 9.081501527e-16 -0.002829343106 -4.959229806e-16 0.0006249388722 0 -0.0001441713713 1.15507933e-15 0.01121111685)
(-0.0005427532776 4.332658415e-16 -0.002869781102 -5.082543063e-16 0.0005947045168 0 -0.0001398394905 1.052590421e-15 0.01122798672)
(-0.0006223205586 -5.442714594e-16 -0.002900185631 -4.920257558e-16 0.0005645201384 0 -0.0001351992638 9.48421707e-16 0.0112440029)
(-0.0007008319492 -7.423425976e-16 -0.002919429832 -4.564044197e-16 0.0005344182162 -7.854758416e-15 -0.0001299683418 8.162436749e-16 0.01125941995)
(-0.0007784978163 -3.896544179e-16 -0.002927018397 -4.340444841e-16 0.0005044492262 0 -0.0001244805198 4.126434347e-16 0.01127396557)
(-0.0008550125543 -2.559405791e-16 -0.00292181658 -4.189545606e-16 0.0004746259273 0 -0.0001184910707 2.369936493e-16 0.01128778044)
(-0.0009302207906 -2.589239842e-16 -0.002903226766 -4.034060606e-16 0.0004450015016 0 -0.0001122183453 8.353202119e-17 0.01130071126)
(-0.001004002166 2.762311477e-16 -0.002870549053 -3.901774419e-16 0.0004155884563 0 -0.0001058399395 -4.017727539e-17 0.01131277494)
(-0.001076484389 1.358141469e-15 -0.00282286488 -3.980673222e-16 0.0003864340587 0 -9.922870265e-05 -1.147943767e-16 0.01132401442)
(0.0009157260156 -6.476223617e-15 -8.661466152e-05 -3.291775347e-14 0.001501570245 0 -9.825487347e-06 -3.154735497e-15 0.01067441642)
(0.00121123549 -1.021196545e-14 -0.0002005419383 -5.308270657e-15 0.001311261414 0 -2.556302436e-05 -1.057553723e-14 0.01067666755)
(0.001179830404 -5.349944634e-16 -0.0003248726761 1.076916036e-15 0.001249395477 0 -4.046874762e-05 -6.41950615e-15 0.01068131396)
(0.001184493465 3.782734451e-15 -0.0004496021429 -1.321407706e-15 0.001232936273 6.610669877e-14 -5.576320917e-05 -7.573694334e-15 0.01068834811)
(0.00115988771 5.898097475e-16 -0.0005733347026 -1.177716293e-15 0.001220258471 0 -7.050353307e-05 -3.205424621e-15 0.01069775872)
(0.001124591299 -2.088424551e-16 -0.0006961117437 -1.061333725e-15 0.001206814639 0 -8.447222334e-05 -8.288051786e-16 0.01070889138)
(0.001082170682 3.004101028e-15 -0.0008173755695 -7.76958784e-16 0.001191803185 -7.738415026e-14 -9.707948932e-05 9.850150914e-16 0.01072151835)
(0.001034708099 5.428460125e-15 -0.0009377859257 -1.500431528e-15 0.001175101703 3.447835926e-14 -0.0001088930454 -1.7946692e-15 0.0107357941)
(0.0009829765951 -6.312780888e-17 -0.001057906768 -1.821302539e-15 0.001156928575 0 -0.0001203185367 -1.001396381e-15 0.01075167323)
(0.0009257944922 -5.077118755e-15 -0.001176839187 -1.232882248e-15 0.001137347939 0 -0.000130453658 -9.327033129e-16 0.01076870977)
(0.0008642049552 -3.766748758e-15 -0.001294718302 -6.142594496e-16 0.001116267216 0 -0.0001395194792 -1.487782598e-15 0.01078686301)
(0.0007998473431 -2.465375059e-16 -0.001412083778 -4.293859564e-16 0.001093914309 0 -0.0001480705469 -2.354389438e-15 0.01080629441)
(0.000731688359 6.424613081e-16 -0.001528045678 -4.815471104e-16 0.001070438508 0 -0.000155368521 -1.100854444e-15 0.01082654255)
(0.0006604660625 -9.907622369e-17 -0.001642643552 -4.583809044e-16 0.001045824179 2.26208215e-14 -0.0001617130442 -4.915073477e-16 0.01084759347)
(0.0005869196615 -4.155345339e-16 -0.001755826235 -4.122954092e-16 0.001020262406 -1.082539741e-14 -0.0001672511722 2.698263833e-16 0.01086946748)
(0.000510900985 -4.533884895e-16 -0.001866946882 -3.609078409e-16 0.000993803845 0 -0.000171676343 2.250413442e-16 0.01089173454)
(0.0004330602685 -4.717330385e-16 -0.001976005996 -3.190617834e-16 0.0009665576741 0 -0.0001753386884 -4.268834262e-17 0.01091462245)
(0.0003535325411 -8.008715323e-16 -0.00208230683 -2.759299813e-16 0.0009386115301 0 -0.0001779725422 -1.865274736e-16 0.01093763017)
(0.0002725243091 -6.410869297e-16 -0.002185534829 -2.220392825e-16 0.0009100463605 2.842102815e-14 -0.0001797371065 -7.434098071e-16 0.01096094933)
(0.000190362251 -7.075068744e-16 -0.002285151282 -1.962248725e-16 0.0008809356111 -9.238357217e-15 -0.0001806221248 2.900771486e-16 0.01098413972)
(0.0001073968979 3.856551996e-16 -0.002380654706 -1.455413159e-16 0.0008513583978 0 -0.0001806830411 8.141278996e-16 0.01100743801)
(2.392884834e-05 1.940531565e-15 -0.002471553405 -2.074643472e-16 0.0008213888064 -1.77036243e-14 -0.0001800383164 1.405968318e-15 0.01103041833)
(-5.967615425e-05 2.147998013e-15 -0.002557170473 -2.716691246e-16 0.0007911012825 0 -0.0001786509002 1.096115802e-15 0.01105333852)
(-0.0001433941326 2.104766639e-15 -0.002636987197 -3.425141988e-16 0.0007605703623 0 -0.0001766804572 9.671411397e-16 0.01107579619)
(-0.0002272194685 1.152169334e-15 -0.00270998992 -3.952893635e-16 0.0007298481393 0 -0.0001738456861 1.041349546e-15 0.01109799484)
(-0.0003109784271 3.609594729e-16 -0.002775769167 -3.943724188e-16 0.0006989884032 0 -0.0001704762424 9.12371915e-16 0.01111957124)
(-0.0003937851816 3.863247986e-16 -0.002833443141 -3.899899852e-16 0.0006680377119 0 -0.0001664829362 1.266797977e-15 0.01114075013)
(-0.0004757762869 3.165966118e-16 -0.002882386333 -3.941579702e-16 0.0006370840014 0 -0.0001619902661 1.483596347e-15 0.01116123038)
(-0.000557106924 -1.101363451e-16 -0.002921654679 -3.878674533e-16 0.0006061492502 -8.085013175e-15 -0.000156915325 1.785384209e-15 0.01118102853)
(-0.0006377731284 -1.130078025e-16 -0.002950550404 -3.67417924e-16 0.0005752938055 -8.026367023e-15 -0.0001513499069 1.625902042e-15 0.01120006419)
(-0.0007176846639 6.279473947e-16 -0.00296842276 -3.622406953e-16 0.0005445305424 0 -0.0001455192799 1.107689654e-15 0.01121819992)
(-0.0007967566166 1.061154193e-15 -0.002974204329 -3.78800909e-16 0.0005139113231 0 -0.0001391651188 6.993318714e-16 0.01123555816)
(-0.0008751659465 1.06059724e-15 -0.002967350436 -3.946054246e-16 0.000483446184 0 -0.0001326190601 3.051107803e-16 0.01125183781)
(-0.0009517276872 1.02741362e-15 -0.002946812385 -4.106502624e-16 0.000453168885 0 -0.0001256678853 -1.480679952e-16 0.01126733558)
(-0.001026748632 9.083992099e-16 -0.002912094711 -4.221591357e-16 0.0004231338921 7.859835545e-15 -0.0001186213031 -5.277187781e-16 0.01128177585)
(-0.001100427242 6.639806513e-16 -0.002862044448 -4.320480292e-16 0.0003933521736 7.84775489e-15 -0.0001111820529 -4.766567537e-16 0.01129531192)
(-0.00117290102 7.159475438e-16 -0.002796041823 -4.317142722e-16 0.0003638598641 0 -0.0001035185356 -3.667275895e-17 0.01130778381)
(-0.001244046461 5.907664713e-16 -0.00271334237 -4.383928964e-16 0.0003346578306 -7.841298269e-15 -9.572179192e-05 5.090009698e-16 0.01131924517)
(-0.001313695716 1.26822048e-15 -0.002613206784 -4.367547792e-16 0.0003057800044 -7.846261297e-15 -8.779509763e-05 7.189208525e-16 0.01132971917)
(-0.001381867373 1.305058964e-15 -0.002495025936 -4.684820806e-16 0.0002772298633 0 -7.991267253e-05 5.578257541e-16 0.01133911655)
(-0.001448519347 -3.189297104e-16 -0.002357897652 -4.669672557e-16 0.0002490344002 0 -7.187529215e-05 3.848139545e-16 0.01134760127)
(-0.001514105223 -7.580500307e-16 -0.002201319571 -4.430801726e-16 0.0002211953391 0 -6.39030067e-05 3.58880627e-16 0.0113549771)
(-0.001578193656 -3.838819734e-16 -0.002024462969 -4.279987794e-16 0.0001937206432 0 -5.584081969e-05 3.051351276e-16 0.0113614892)
(-0.001640766272 -1.374860106e-16 -0.001826901598 -4.183715867e-16 0.0001666234377 0 -4.790277032e-05 2.246543814e-16 0.01136696294)
(-0.001701655069 1.660118445e-16 -0.00160795407 -4.117955833e-16 0.0001399094058 7.975010446e-15 -4.002581338e-05 4.287834014e-17 0.01137162319)
(-0.00176141497 -3.305627893e-17 -0.001367174278 -4.107312015e-16 0.0001135933002 -8.011214292e-15 -3.232274049e-05 1.563893923e-16 0.01137533275)
(-0.001820230329 2.097500833e-16 -0.001103932586 -3.992698542e-16 8.766318128e-05 0 -2.47196655e-05 1.797898883e-16 0.01137826068)
(-0.001874207197 2.847659981e-16 -0.000817796207 -4.053920198e-16 6.212684196e-05 0 -1.729830796e-05 8.212891586e-17 0.01138034776)
(-0.001911778109 -1.562515445e-16 -0.0005081699542 -3.966444346e-16 3.707181624e-05 0 -1.002812322e-05 2.858850481e-17 0.01138172617)
(-0.002006710086 -2.227376002e-17 -0.0001732745763 -3.912164358e-16 1.278358688e-05 8.193260473e-15 -3.108617606e-06 -1.025389341e-16 0.01138237804)
(0.0009372317465 1.735625022e-14 -9.015613124e-05 -2.357008881e-14 0.001536861704 0 -1.118385646e-05 3.645421195e-15 0.01055155261)
(0.001240224307 2.126381653e-16 -0.0002082642911 -2.322198758e-14 0.001342065374 0 -2.894094543e-05 -1.184798866e-16 0.01055433263)
(0.001208993742 -6.570601533e-15 -0.0003368859415 -7.873434251e-15 0.001279096694 0 -4.545243406e-05 -4.192302585e-15 0.01055995591)
(0.001213433146 -3.972474694e-15 -0.0004658635122 -5.820739821e-15 0.001262675513 0 -6.226878241e-05 -2.508907381e-15 0.01056796307)
(0.001186452424 -5.484987888e-15 -0.000593245609 -2.906583859e-15 0.001249635777 0 -7.803476295e-05 -1.913740133e-15 0.01057821511)
(0.001149058199 -2.764601792e-15 -0.00071918776 -1.783573071e-15 0.001235457492 0 -9.26715275e-05 -1.359821591e-15 0.01059070723)
(0.001106539944 3.326087697e-15 -0.0008446446295 -1.225559503e-15 0.001219731997 0 -0.0001069598165 -1.457046568e-15 0.01060531917)
(0.001059089922 4.403131928e-15 -0.0009694331425 -2.100833276e-15 0.001202643553 0 -0.0001205780148 -9.103593273e-17 0.01062208322)
(0.001004925935 -1.008427572e-15 -0.001092595766 -1.964059238e-15 0.001184068774 -3.176618613e-14 -0.0001325672445 4.184733433e-16 0.01064022039)
(0.0009456730871 -2.141420102e-15 -0.001214585979 -1.508920188e-15 0.001163802762 0 -0.0001434125628 -6.085214174e-17 0.01065982984)
(0.0008833970305 -2.009662903e-16 -0.001336117899 -1.244333185e-15 0.001142127234 2.71828732e-14 -0.000153762028 -1.04139752e-15 0.0106810926)
(0.00081683811 -1.935880271e-15 -0.001456291668 -1.230348984e-15 0.001119212805 0 -0.000162814349 -8.472526371e-16 0.01070350416)
(0.0007468129404 -3.534764159e-15 -0.001575133403 -7.983832237e-16 0.001095019168 0 -0.000170819032 8.867028159e-17 0.01072694205)
(0.0006742524063 -2.560182321e-15 -0.00169273078 -5.889102895e-16 0.001069769481 0 -0.0001780086665 -2.346632308e-16 0.01075151754)
(0.0005984853471 -2.091068038e-15 -0.001808108718 -3.865073984e-16 0.001043523287 0 -0.0001837208105 -4.618230724e-16 0.01077658293)
(0.0005203840793 -1.995378188e-17 -0.001921471755 -2.839305193e-16 0.00101634676 0 -0.0001884926538 -6.330989088e-16 0.01080239434)
(0.0004402578666 8.593849121e-16 -0.002032233284 -3.414785447e-16 0.0009883663909 0 -0.0001921073958 -9.445642949e-16 0.010828531)
(0.0003583851355 1.165022281e-15 -0.002140122317 -3.40621011e-16 0.0009596452287 0 -0.0001947387786 -1.37187268e-15 0.01085505317)
(0.0002752607684 -1.736028722e-16 -0.002244599103 -4.134116097e-16 0.0009302924988 0 -0.0001963276288 -1.737626553e-15 0.01088174296)
(0.0001910426331 -1.412408986e-15 -0.002345289666 -3.023570872e-16 0.0009003853821 0 -0.0001970212606 -1.493243344e-15 0.01090854699)
(0.0001061998239 -8.089238266e-16 -0.002441644916 -2.620231371e-16 0.0008700092768 0 -0.0001968561794 -1.59452638e-15 0.0109353063)
(2.097523761e-05 3.579552853e-16 -0.002533141577 -2.150848075e-16 0.0008392491978 0 -0.0001959009435 -1.240959552e-15 0.01096195753)
(-6.430083527e-05 1.407843156e-15 -0.00261923481 -2.672781259e-16 0.0008081788375 0 -0.0001942814679 -5.820337046e-16 0.01098833418)
(-0.0001499164304 6.762637019e-16 -0.002699095941 -2.969437481e-16 0.0007768785284 0 -0.000191834092 1.852420065e-17 0.01101441558)
(-0.0002356320509 7.393952803e-16 -0.002772076194 -2.927206454e-16 0.0007453791114 -8.56416974e-15 -0.0001886768879 5.359528328e-16 0.01103989457)
(-0.0003209390514 3.863691374e-17 -0.002837465576 -3.261920031e-16 0.0007137553017 0 -0.0001848209154 5.066704121e-16 0.01106495088)
(-0.0004058156469 -7.639259895e-16 -0.002894768039 -2.837774903e-16 0.0006820547146 0 -0.0001805616391 3.661490318e-16 0.01108918684)
(-0.0004898981401 -5.573512778e-16 -0.002942886326 -2.648425964e-16 0.0006503333621 0 -0.0001755888616 5.660027059e-16 0.01111287219)
(-0.00057333569 4.279003755e-17 -0.002981309325 -2.335383072e-16 0.0006186436899 -8.210926235e-15 -0.0001701959581 6.937613717e-16 0.01113562749)
(-0.0006556778868 1.450348372e-15 -0.003008942317 -2.507500514e-16 0.0005870183663 0 -0.0001641351894 7.490223711e-16 0.01115769954)
(-0.0007371854332 2.016593217e-15 -0.003025243271 -2.956901828e-16 0.0005555187397 0 -0.0001576685627 6.936144084e-16 0.01117876441)
(-0.0008176958413 2.053189824e-15 -0.003029172031 -3.364897037e-16 0.0005241538524 0 -0.0001506458946 8.122384795e-16 0.01119890962)
(-0.0008968210536 2.372121018e-15 -0.003020156222 -3.752752611e-16 0.0004929799168 0 -0.0001432929949 9.703742672e-16 0.01121804308)
(-0.0009743853902 2.365386527e-15 -0.002997604668 -4.248590809e-16 0.0004620163632 0 -0.0001358788876 1.178908447e-15 0.01123609454)
(-0.001050586704 1.312209033e-15 -0.002960413024 -4.608887155e-16 0.000431314643 0 -0.0001280800848 1.491913774e-15 0.01125315986)
(-0.001125957473 -2.691656618e-16 -0.002907969116 -4.601803244e-16 0.0004008784899 0 -0.0001201345567 1.592308165e-15 0.0112689687)
(-0.001199742084 -1.351212032e-15 -0.002839266992 -4.306604693e-16 0.0003707292893 0 -0.0001118339921 1.568389988e-15 0.01128378349)
(-0.001272033284 -9.042369043e-16 -0.002753849569 -3.927270488e-16 0.0003408960072 0 -0.0001034976663 1.643045288e-15 0.01129734425)
(-0.001342557466 5.492478702e-16 -0.002650745062 -3.832485e-16 0.0003113904724 0 -9.493313145e-05 1.697024327e-15 0.01130986686)
(-0.001411451365 8.265966423e-16 -0.002529487099 -3.978614813e-16 0.0002822448341 0 -8.638770194e-05 1.886772232e-15 0.01132116425)
(-0.001478826758 1.778503451e-16 -0.002389174407 -3.976391995e-16 0.0002534615157 -7.993767662e-15 -7.770169635e-05 1.995903134e-15 0.01133135934)
(-0.00154472367 8.842560913e-17 -0.002229238729 -3.912874282e-16 0.0002250631208 0 -6.896915741e-05 1.485392598e-15 0.01134039565)
(-0.001609153921 3.602672861e-16 -0.002049127566 -3.880580622e-16 0.000197048149 0 -6.032170142e-05 1.1864744e-15 0.0113482997)
(-0.001671829118 9.013476093e-16 -0.001848195881 -3.899312003e-16 0.0001694347309 0 -5.171464337e-05 9.841978861e-16 0.01135513435)
(-0.001732882561 2.403851569e-16 -0.001625989545 -4.033786411e-16 0.0001422279174 0 -4.329938506e-05 8.615329745e-16 0.01136085662)
(-0.001792779251 -4.55983037e-16 -0.001381837141 -3.858431966e-16 0.0001154382608 0 -3.494345728e-05 8.549712735e-16 0.01136559169)
(-0.001851632791 9.57087996e-18 -0.001115341139 -3.792871789e-16 8.905593364e-05 0 -2.678226244e-05 7.040164382e-16 0.01136925389)
(-0.001905585991 4.06564226e-16 -0.0008259651813 -3.758286173e-16 6.308679233e-05 0 -1.877410906e-05 9.490919047e-16 0.01137202568)
(-0.001942593121 6.224353976e-16 -0.0005132740885 -3.800465945e-16 3.76193144e-05 0 -1.101909579e-05 9.454205509e-16 0.01137381571)
(-0.002035368631 2.730932127e-16 -0.0001751144625 -3.821683747e-16 1.294899352e-05 0 -3.528971003e-06 7.986108107e-16 0.01137484609)
(0.000960965319 3.384152298e-15 -9.369281997e-05 -8.528096355e-15 0.001576487059 0 -1.193323038e-05 3.306140116e-15 0.0104252823)
(0.001270985124 3.699800664e-15 -0.0002162352391 -5.844790378e-15 0.001376287428 -1.505676817e-13 -3.084096374e-05 1.182642737e-14 0.0104281419)
(0.001238186414 2.176472854e-15 -0.0003492530233 -4.717727279e-15 0.001311210285 0 -4.809877408e-05 3.281579863e-15 0.01043429142)
(0.001242243346 -1.609446247e-16 -0.0004824443422 -3.828566322e-15 0.001293978346 0 -6.553067253e-05 9.312415821e-16 0.01044346272)
(0.001214756237 -1.559665205e-15 -0.0006147959021 -2.665650159e-15 0.001280301422 0 -8.266573411e-05 3.576510373e-16 0.01045541768)
(0.001177855416 -1.003513677e-15 -0.0007462889084 -1.93173307e-15 0.001265686532 0 -9.925025441e-05 3.15075146e-16 0.01047015367)
(0.001134493472 4.897149042e-16 -0.0008764722566 -1.571030493e-15 0.00124981995 0 -0.0001147159391 4.351934077e-16 0.01048725846)
(0.001083556484 1.935734765e-15 -0.001004636487 -1.554041064e-15 0.001232302884 0 -0.0001283573044 3.262409444e-15 0.01050602632)
(0.001027393996 -4.927237588e-17 -0.001131545718 -1.648094056e-15 0.001212927563 -3.226089966e-14 -0.0001408878516 4.388642419e-15 0.0105267602)
(0.0009678392561 -2.115776332e-15 -0.001258058281 -1.264336649e-15 0.001192043753 0 -0.000153020814 3.03955933e-15 0.01054962309)
(0.000903367073 -2.223359611e-15 -0.001383083874 -9.840103473e-16 0.001169806166 0 -0.0001637367144 2.442105902e-15 0.01057397935)
(0.0008349371814 -2.636222532e-15 -0.001506575469 -7.085828482e-16 0.001146145153 -2.591388702e-14 -0.0001731781863 2.568166239e-15 0.01059963324)
(0.0007635450195 -6.111396932e-16 -0.00162885835 -4.607594283e-16 0.00112130744 0 -0.0001817646178 7.420758331e-16 0.01062669502)
(0.0006879909747 1.025171726e-15 -0.001748794286 -5.268815297e-16 0.001095349342 0 -0.000188637208 -2.462777695e-16 0.01065438041)
(0.0006097353294 4.168120596e-16 -0.001866683167 -5.315465808e-16 0.001068279252 0 -0.0001944071493 -1.004878232e-15 0.01068296755)
(0.0005294790945 6.254306885e-16 -0.001982244208 -5.137914361e-16 0.001040301936 1.073719246e-14 -0.0001990729511 -2.018412663e-15 0.01071227276)
(0.0004471587192 1.213919087e-15 -0.002095085088 -5.391801017e-16 0.001011472734 0 -0.000202660132 -1.537294268e-15 0.01074201019)
(0.0003632235142 1.039487761e-15 -0.002204890339 -5.814495853e-16 0.0009819216361 1.004901899e-14 -0.000205279149 -1.468255754e-15 0.01077226367)
(0.0002778586467 -3.856164336e-16 -0.00231108553 -5.892211836e-16 0.0009517156582 0 -0.0002068557871 -5.316671027e-16 0.01080258463)
(0.0001916037122 -1.038555445e-15 -0.002413224969 -5.001451707e-16 0.0009209580441 0 -0.0002074852784 -1.266928164e-15 0.01083319582)
(0.0001046487333 -2.676141157e-16 -0.002510766551 -4.526038614e-16 0.0008897314411 0 -0.0002071995937 -1.214594522e-15 0.01086358922)
(1.752503555e-05 -5.951812004e-16 -0.002603159087 -4.413267458e-16 0.0008581190521 9.129668438e-15 -0.0002060825333 -1.359046979e-15 0.01089401853)
(-6.998095887e-05 -1.022451364e-15 -0.002689816734 -3.787034256e-16 0.0008262133415 0 -0.0002041880868 -6.513519899e-16 0.01092400292)
(-0.0001578486466 -7.727180985e-16 -0.002769806314 -3.403412859e-16 0.0007940544445 0 -0.0002013254159 -4.15181685e-16 0.01095365925)
(-0.0002456448573 -9.79159733e-17 -0.00284263484 -3.057730524e-16 0.0007617115171 0 -0.0001977028998 -3.894146798e-16 0.01098267733)
(-0.0003326843903 8.126659167e-16 -0.002907571601 -3.08208744e-16 0.00072923657 -8.587911669e-15 -0.0001933774208 1.421296669e-16 0.01101115276)
(-0.0004189679878 1.905627651e-16 -0.002964014312 -3.317374669e-16 0.0006967192615 8.492479153e-15 -0.0001884765889 -4.007516751e-17 0.01103889437)
(-0.0005045732456 -5.962956557e-16 -0.003011290069 -3.05924464e-16 0.0006641925667 0 -0.0001831553152 -3.199097795e-16 0.01106579593)
(-0.0005895447281 -6.182074085e-16 -0.003048442471 -2.850175722e-16 0.000631720521 8.338799827e-15 -0.0001772257293 -6.052050873e-16 0.01109189787)
(-0.0006739038179 -8.303568297e-17 -0.003074840544 -2.576867383e-16 0.0005993217939 0 -0.0001709209555 -3.768327822e-16 0.01111690221)
(-0.0007573294301 4.560057657e-16 -0.003089404488 -2.651435352e-16 0.0005670452049 0 -0.0001639738211 1.943950266e-16 0.01114103589)
(-0.0008397878872 2.521074926e-16 -0.003091682551 -2.657900437e-16 0.0005349168435 0 -0.0001567786785 5.712123685e-16 0.01116392458)
(-0.000920186069 -3.176904015e-17 -0.003080656427 -2.617087893e-16 0.0005029755948 0 -0.0001491476598 1.079590686e-15 0.01118590348)
(-0.0009989990634 -5.65865258e-16 -0.003055838204 -2.529340085e-16 0.0004712864788 -8.125629012e-15 -0.0001413780614 1.791894428e-15 0.0112066194)
(-0.001076581948 -3.736330585e-16 -0.003016065792 -2.266114317e-16 0.0004398561183 -8.106553925e-15 -0.0001331656812 2.075573094e-15 0.01122620755)
(-0.001152837872 4.110697043e-16 -0.002960736487 -2.262631274e-16 0.0004087228906 -1.618818812e-14 -0.0001246843568 2.254367582e-15 0.01124452404)
(-0.001227572449 5.135831259e-16 -0.002889196229 -2.339866218e-16 0.0003778925991 -8.087841374e-15 -0.000116106399 2.083472136e-15 0.01126157994)
(-0.001300647496 1.412826825e-16 -0.00280059485 -2.379238012e-16 0.0003474032878 0 -0.0001073156844 1.791340088e-15 0.01127741477)
(-0.00137206622 4.247781049e-16 -0.002694375721 -2.321472281e-16 0.0003172613026 -8.092553584e-15 -9.853370018e-05 1.901097818e-15 0.01129188257)
(-0.001441770397 2.70643566e-16 -0.002569645969 -2.443139053e-16 0.0002874972042 -8.102913004e-15 -8.956552908e-05 2.045809472e-15 0.01130517646)
(-0.001510208925 1.131784105e-15 -0.002425917048 -2.333801353e-16 0.0002581153421 -8.118259315e-15 -8.063912348e-05 1.921546187e-15 0.01131703413)
(-0.001576810808 2.142632549e-15 -0.00226235908 -2.731995597e-16 0.0002291260048 0 -7.159509906e-05 1.432883729e-15 0.01132774021)
(-0.001641624314 1.451212147e-15 -0.00207856655 -2.944551173e-16 0.0002005490399 0 -6.265696898e-05 1.09907258e-15 0.01133705514)
(-0.001704516041 1.082238002e-15 -0.001873854215 -3.090029875e-16 0.000172389532 0 -5.375704176e-05 1.013659916e-15 0.01134520898)
(-0.001765658099 6.503899877e-16 -0.001647790758 -3.172862241e-16 0.000144666997 0 -4.501670094e-05 1.073546723e-15 0.01135203874)
(-0.00182563177 5.761428144e-16 -0.001399750838 -3.187265961e-16 0.00011737875 0 -3.63619139e-05 9.303767076e-16 0.01135770327)
(-0.001884285997 -1.85047962e-16 -0.001129359987 -3.243739298e-16 9.052497037e-05 0 -2.790483676e-05 9.865993528e-16 0.01136212377)
(-0.001937830087 -6.669797641e-16 -0.0008361449774 -3.054981707e-16 6.410640914e-05 0 -1.966304005e-05 9.984004094e-16 0.01136542014)
(-0.001974469344 4.778562383e-16 -0.00051971968 -2.988283673e-16 3.821869848e-05 8.39794849e-15 -1.174228992e-05 9.901387127e-16 0.01136756644)
(-0.002067417867 5.846203743e-16 -0.0001775308103 -3.095290097e-16 1.314621674e-05 -4.225222491e-15 -3.951962926e-06 1.179583481e-15 0.01136866175)
(0.0009846821068 -4.068046005e-15 -9.732451029e-05 -1.686436508e-15 0.001615611557 0 -1.211537279e-05 1.324888414e-15 0.0102970916)
(0.00130221536 5.852145706e-15 -0.0002249069325 3.02157248e-15 0.001410326945 0 -3.1457166e-05 3.985562959e-15 0.01030045602)
(0.001268759905 1.074143542e-14 -0.0003639340765 -3.464627082e-15 0.001343525254 0 -4.967451418e-05 3.431059031e-15 0.01030772717)
(0.001273880795 8.541448609e-16 -0.0005032823547 -4.900388539e-15 0.001325937562 0 -6.827351133e-05 3.176746963e-15 0.01031863171)
(0.001246459879 -4.410363269e-15 -0.0006411544932 -2.636189668e-15 0.001312266928 0 -8.604163208e-05 2.172907782e-15 0.0103326904)
(0.001207115324 -2.89681507e-15 -0.0007772216962 -1.592199437e-15 0.001297542164 0 -0.0001024786538 2.041129355e-15 0.01034921701)
(0.001160204382 -2.408435397e-15 -0.0009111081194 -9.944028676e-16 0.001281010719 0 -0.0001171703505 2.439867477e-15 0.01036808218)
(0.001108302251 -2.862425496e-15 -0.0010439733 -5.819220452e-16 0.00126261352 0 -0.0001311354959 3.606247813e-15 0.01038952009)
(0.00105222375 -3.565857715e-16 -0.001176372757 -1.499785718e-16 0.001242676931 -3.276331894e-14 -0.0001447653373 5.582101096e-15 0.0104136269)
(0.0009902492704 1.57332609e-15 -0.001306953257 -3.679160338e-16 0.001221274951 0 -0.0001567727944 2.985452985e-15 0.01043954066)
(0.0009234718382 6.446306729e-16 -0.001435754083 -4.072632196e-16 0.001198273682 0 -0.0001673494531 6.748734832e-16 0.01046705954)
(0.0008533810791 1.613967238e-15 -0.001563287824 -4.144228974e-16 0.001173923124 0 -0.0001770523946 -4.06271249e-16 0.01049632769)
(0.0007786933635 2.225890617e-15 -0.001688289679 -5.773225563e-16 0.001148325767 2.48917178e-14 -0.000184842161 -1.969717946e-15 0.01052660182)
(0.0007008420502 1.130566156e-15 -0.001811242048 -6.536738328e-16 0.001121455996 0 -0.0001914773701 -1.682238318e-15 0.01055795867)
(0.0006208377351 1.736487451e-15 -0.001932309418 -6.450212961e-16 0.001093561899 0 -0.0001973206404 -1.383496059e-15 0.01059048709)
(0.0005383900627 1.054814662e-15 -0.002050505723 -7.720407123e-16 0.001064709628 0 -0.0002017741846 -1.33656147e-15 0.01062355961)
(0.0004540513825 -3.266653651e-16 -0.002165813428 -6.941118073e-16 0.00103502904 0 -0.0002052157343 -6.35709627e-16 0.01065744427)
(0.0003678744842 -1.150833367e-15 -0.00227751914 -6.652523166e-16 0.001004606237 0 -0.0002074036727 -3.492543146e-16 0.01069142929)
(0.0002803350751 -5.450350544e-16 -0.002385427304 -5.232949759e-16 0.0009735294919 -9.923223247e-15 -0.0002086411791 4.340472948e-16 0.01072583534)
(0.0001918297133 1.465501964e-16 -0.002488917433 -5.551839432e-16 0.0009418933142 0 -0.0002088628501 3.27640252e-17 0.01076004293)
(0.0001028144411 -5.704648641e-16 -0.002587561033 -4.966095345e-16 0.0009097852103 0 -0.0002082205327 2.362680046e-16 0.01079436761)
(1.359654671e-05 -1.068575165e-15 -0.002680785482 -4.685725231e-16 0.000877301569 -9.271850505e-15 -0.0002067761144 2.684874539e-16 0.01082826561)
(-7.617772287e-05 -9.380646571e-16 -0.002767747952 -3.823780837e-16 0.0008445209478 0 -0.0002043550785 -1.701780616e-16 0.0108619614)
(-0.000166392223 5.225471213e-18 -0.002847942529 -3.697052928e-16 0.0008114853754 0 -0.0002011763409 -2.571717608e-16 0.01089488108)
(-0.0002561998589 -7.297518882e-16 -0.002920683135 -3.57977903e-16 0.0007782595145 0 -0.0001972728356 -2.752429624e-16 0.01092743245)
(-0.0003452550817 -8.264969378e-16 -0.002985501939 -3.02362119e-16 0.000744922624 0 -0.0001929136606 -2.684361307e-17 0.01095910562)
(-0.0004332543542 4.866269747e-16 -0.003041366351 -2.884738985e-16 0.0007115383677 -8.62473787e-15 -0.0001878472509 8.694651162e-17 0.01099023518)
(-0.0005206768879 9.763699919e-16 -0.003087769861 -3.127739778e-16 0.0006781803152 0 -0.0001823345379 -2.093164315e-16 0.01102032347)
(-0.000607423335 1.642830238e-16 -0.003123626062 -3.256383713e-16 0.000644866906 -8.468665199e-15 -0.0001761432216 -4.181076962e-16 0.01104955529)
(-0.0006933164972 -8.434869383e-16 -0.003148372303 -3.078821834e-16 0.00061166035 8.407236156e-15 -0.000169494133 -9.226105196e-16 0.01107764734)