/*--------------------------------*- C++ -*----------------------------------*\
  =========                 |
  \\      /  F ield         | OpenFOAM: The Open Source CFD Toolbox
   \\    /   O peration     | Website:  https://openfoam.org
    \\  /    A nd           | Version:  7
     \\/     M anipulation  |
\*---------------------------------------------------------------------------*/
FoamFile
{
    version     2.0;
    format      ascii;
    class       surfaceScalarField;
    location    "0.0006";
    object      phi;
}
// * * * * * * * * * * * * * * * * * * * * * * * * * * * * * * * * * * * * * //

dimensions      [1 0 -1 0 0 0 0];

internalField   nonuniform List<scalar> 
2260
(
2.235063965e-15
4.56071144e-11
8.747879151e-15
1.334536173e-10
1.921792415e-14
2.164052435e-10
3.329170215e-14
2.946659245e-10
5.059144108e-14
3.684326418e-10
7.071860066e-14
4.378954988e-10
9.332368713e-14
5.032379378e-10
1.179607444e-13
5.646369389e-10
1.442254649e-13
6.222630967e-10
1.717582298e-13
6.762807931e-10
2.001758427e-13
7.268484515e-10
2.290623829e-13
7.74118673e-10
2.581661771e-13
8.182382269e-10
2.870751474e-13
8.593485284e-10
3.155095153e-13
8.975855526e-10
3.431975453e-13
9.330800003e-10
3.697979454e-13
9.659577442e-10
3.951790804e-13
9.963394723e-10
4.189813236e-13
1.024341463e-09
4.411457146e-13
1.050075092e-09
4.613456264e-13
1.073647626e-09
4.795601494e-13
1.095161737e-09
4.955350775e-13
1.11471627e-09
5.092480188e-13
1.132405739e-09
5.205516287e-13
1.148321135e-09
5.293483321e-13
1.16254946e-09
5.356309154e-13
1.175174338e-09
5.39255058e-13
1.186275801e-09
5.403446552e-13
1.195930495e-09
5.386725982e-13
1.204212114e-09
5.344344287e-13
1.211190897e-09
5.274663971e-13
1.216934521e-09
5.178970343e-13
1.221507375e-09
5.057088472e-13
1.224971509e-09
4.909190324e-13
1.22738594e-09
1.228807378e-09
2.247110113e-15
4.560486729e-11
8.796364057e-15
1.334470681e-10
1.932405532e-14
2.163947158e-10
3.347071823e-14
2.946517779e-10
5.087975526e-14
3.684152328e-10
7.115183229e-14
4.378752267e-10
9.386922425e-14
5.032152204e-10
1.186228859e-13
5.646121852e-10
1.450500103e-13
6.222366696e-10
1.727355232e-13
6.762531076e-10
2.012606504e-13
7.268199264e-10
2.30333786e-13
7.740895998e-10
2.595559856e-13
8.182090047e-10
2.885762318e-13
8.593195081e-10
3.171644666e-13
8.975569644e-10
3.449065851e-13
9.330522582e-10
3.716754346e-13
9.659309754e-10
3.97073703e-13
9.96314074e-10
4.210279084e-13
1.024317508e-09
4.431706307e-13
1.050052949e-09
4.634915589e-13
1.073627305e-09
4.816536426e-13
1.095143575e-09
4.977044618e-13
1.114700219e-09
5.113462481e-13
1.132392098e-09
5.226523104e-13
1.148309829e-09
5.313645914e-13
1.162540747e-09
5.375771683e-13
1.175168125e-09
5.411564076e-13
1.186272222e-09
5.420981269e-13
1.195929553e-09
5.404125193e-13
1.204213799e-09
5.35992501e-13
1.211195317e-09
5.29001631e-13
1.216941511e-09
5.192333569e-13
1.221517144e-09
5.069475398e-13
1.224983794e-09
4.920075356e-13
1.22740088e-09
4.745828476e-13
1.228824802e-09
4.546520148e-13
1.229310018e-09
4.322744209e-13
1.228908151e-09
4.075742976e-13
1.227668937e-09
3.804967541e-13
1.225639733e-09
3.512906344e-13
1.222865827e-09
3.198060843e-13
1.219390706e-09
2.863434011e-13
1.215255551e-09
2.507661978e-13
1.21050022e-09
2.133543443e-13
1.20516222e-09
1.740291911e-13
1.199277938e-09
1.329961617e-13
1.192881561e-09
9.022982542e-14
1.186006318e-09
4.589441981e-14
1.178683339e-09
1.170942874e-09
2.263941954e-15
4.560260335e-11
8.863111454e-15
1.334404689e-10
1.947736049e-14
2.163841015e-10
3.374683088e-14
2.946375084e-10
5.128559951e-14
3.68397694e-10
7.169452947e-14
4.378548178e-10
9.455912043e-14
5.031923558e-10
1.195224165e-13
5.645872219e-10
1.461322018e-13
6.222100598e-10
1.739729682e-13
6.762252668e-10
2.027217438e-13
7.267911776e-10
2.31977508e-13
7.740603441e-10
2.613466676e-13
8.181796355e-10
2.906020597e-13
8.592902527e-10
3.192944538e-13
8.97528272e-10
3.47244757e-13
9.330243079e-10
3.740903843e-13
9.659041297e-10
3.996425678e-13
9.962885219e-10
4.236345631e-13
1.024293516e-09
4.45891937e-13
1.050030691e-09
4.662077767e-13
1.073606989e-09
4.844593987e-13
1.095125324e-09
5.004662704e-13
1.114684213e-09
5.141835804e-13
1.13237838e-09
5.253845653e-13
1.148298628e-09
5.341542751e-13
1.162531978e-09
5.402380154e-13
1.175162041e-09
5.437957224e-13
1.186268664e-09
5.445947343e-13
1.195928754e-09
5.427942625e-13
1.2042156e-09
5.382645052e-13
1.211199847e-09
5.310670201e-13
1.216948709e-09
5.212320682e-13
1.221526979e-09
5.087239477e-13
1.224996303e-09
4.937202876e-13
1.227415883e-09
4.760583799e-13
1.228842464e-09
4.560062284e-13
1.229330071e-09
4.334240585e-13
1.228930733e-09
4.085478988e-13
1.227693813e-09
3.813268381e-13
1.225666954e-09
3.519051782e-13
1.222895249e-09
3.203333292e-13
1.219422278e-09
2.866621185e-13
1.215289222e-09
2.51040321e-13
1.210535842e-09
2.134564774e-13
1.205199804e-09
1.741179218e-13
1.199317277e-09
1.329539661e-13
1.192922725e-09
9.021750626e-14
1.186049054e-09
4.580620932e-14
1.178727751e-09
1.17098868e-09
2.285663208e-15
4.560031769e-11
8.946143719e-15
1.334338084e-10
1.965234241e-14
2.163733953e-10
3.404091568e-14
2.946231198e-10
5.172167563e-14
3.683800133e-10
7.230205624e-14
4.378342374e-10
9.539658916e-14
5.031692613e-10
1.205465275e-13
5.64562072e-10
1.473378942e-13
6.221832684e-10
1.754252998e-13
6.761971794e-10
2.043924912e-13
7.267622104e-10
2.338255736e-13
7.74030911e-10
2.634719373e-13
8.181499891e-10
2.928705638e-13
8.592608541e-10
3.217637845e-13
8.974993787e-10
3.498626148e-13
9.329962091e-10
3.768375766e-13
9.658771548e-10
4.02531135e-13
9.962628283e-10
4.265912129e-13
1.024269456e-09
4.489590957e-13
1.050008324e-09
4.693000854e-13
1.073586648e-09
4.876128251e-13
1.095107011e-09
5.036250333e-13
1.1146682e-09
5.173177044e-13
1.132364688e-09
5.285069821e-13
1.148287439e-09
5.371740155e-13
1.162523311e-09
5.432565771e-13
1.175155959e-09
5.466619864e-13
1.186265259e-09
5.474559902e-13
1.19592796e-09
5.454626241e-13
1.204217593e-09
5.408704957e-13
1.211204439e-09
5.334610674e-13
1.216956118e-09
5.234856713e-13
1.221536954e-09
5.108186775e-13
1.22500897e-09
4.955919971e-13
1.22743111e-09
4.778107103e-13
1.228860246e-09
4.575081429e-13
1.229350373e-09
4.348288685e-13
1.228953412e-09
4.096984835e-13
1.227718943e-09
3.823845816e-13
1.225694268e-09
3.52722986e-13
1.22292491e-09
3.210292142e-13
1.219453972e-09
2.871718913e-13
1.21532308e-09
2.514227773e-13
1.210571591e-09
2.137200904e-13
1.205237506e-09
1.742632541e-13
1.199356734e-09
1.330451189e-13
1.192963943e-09
9.02243876e-14
1.186091875e-09
4.583163971e-14
1.178772144e-09
1.171034512e-09
2.305554872e-15
4.559801213e-11
9.024867145e-15
1.334270891e-10
1.982329389e-14
2.163625969e-10
3.433892562e-14
2.946086042e-10
5.21934073e-14
3.683621588e-10
7.296884101e-14
4.37813462e-10
9.62359258e-14
5.031459942e-10
1.215688537e-13
5.645367391e-10
1.486103109e-13
6.22156227e-10
1.769201225e-13
6.761688696e-10
2.060732802e-13
7.267330573e-10
2.357713044e-13
7.74001213e-10
2.655779844e-13
8.181201824e-10
2.951469631e-13
8.592312851e-10
3.242413234e-13
8.974702844e-10
3.52437504e-13
9.329680129e-10
3.79612817e-13
9.658499795e-10
4.053473072e-13
9.962370938e-10
4.295802411e-13
1.024245223e-09
4.519374813e-13
1.049985966e-09
4.724091689e-13
1.073566176e-09
4.906727039e-13
1.095088747e-09
5.067671509e-13
1.114652106e-09
5.203577759e-13
1.132351097e-09
5.315678352e-13
1.148276229e-09
5.401114973e-13
1.162514767e-09
5.461404893e-13
1.17514993e-09
5.494358573e-13
1.186261964e-09
5.500860945e-13
1.19592731e-09
5.480043172e-13
1.204219675e-09
5.432000107e-13
1.211209244e-09
5.357328688e-13
1.216963586e-09
5.255297697e-13
1.221547157e-09
5.127884147e-13
1.225021711e-09
4.973201733e-13
1.227446578e-09
4.794050345e-13
1.228878161e-09
4.589022987e-13
1.229370876e-09
4.360344785e-13
1.22897628e-09
4.107606268e-13
1.227744217e-09
3.832176513e-13
1.225721811e-09
3.534639499e-13
1.222954664e-09
3.21548029e-13
1.219485888e-09
2.876263228e-13
1.215357001e-09
2.516872895e-13
1.21060753e-09
2.139472401e-13
1.205275247e-09
1.743372825e-13
1.199396344e-09
1.331213675e-13
1.193005159e-09
9.019955972e-14
1.186134797e-09
4.58665387e-14
1.178816477e-09
1.171080378e-09
2.325033161e-15
4.55956871e-11
9.101637026e-15
1.334203125e-10
1.999872084e-14
2.163516998e-10
3.464214735e-14
2.945939608e-10
5.263169052e-14
3.683441692e-10
7.355178418e-14
4.377925419e-10
9.697601716e-14
5.031225699e-10
1.22534755e-13
5.645111803e-10
1.49764357e-13
6.221289974e-10
1.782357412e-13
6.761403982e-10
2.076138374e-13
7.267036792e-10
2.374719272e-13
7.739713549e-10
2.673981248e-13
8.180902563e-10
2.971821131e-13
8.592015011e-10
3.263542057e-13
8.974411123e-10
3.547214141e-13
9.329396457e-10
3.819326262e-13
9.658227683e-10
4.077734088e-13
9.96211253e-10
4.320079776e-13
1.024220989e-09
4.544216185e-13
1.049963553e-09
4.748619331e-13
1.073545736e-09
4.931489011e-13
1.09507046e-09
5.091420303e-13
1.114636113e-09
5.227365106e-13
1.132337503e-09
5.338136181e-13
1.148265152e-09
5.423653787e-13
1.162506215e-09
5.482253061e-13
1.17514407e-09
5.514995526e-13
1.186258689e-09
5.519556387e-13
1.195926854e-09
5.497983868e-13
1.204221832e-09
5.448108026e-13
1.211214231e-09
5.372074203e-13
1.216971189e-09
5.26878779e-13
1.221557486e-09
5.1393386e-13
1.225034656e-09
4.983858835e-13
1.227462126e-09
4.80256267e-13
1.22889629e-09
4.596916731e-13
1.22939144e-09
4.366133491e-13
1.228999358e-09
4.112880011e-13
1.227769542e-09
3.835528402e-13
1.225749546e-09
3.537278618e-13
1.222984489e-09
3.216761242e-13
1.21951794e-09
2.876768274e-13
1.215391001e-09
2.516661901e-13
1.21064354e-09
2.138533006e-13
1.205313059e-09
1.742305676e-13
1.199435966e-09
1.329671545e-13
1.193046422e-09
9.009565514e-14
1.186177668e-09
4.576019173e-14
1.178860812e-09
1.171126139e-09
2.340995944e-15
4.55933461e-11
9.162449841e-15
1.33413491e-10
2.012412812e-14
2.163407381e-10
3.484926177e-14
2.945792356e-10
5.293199347e-14
3.683260865e-10
7.39702831e-14
4.377715036e-10
9.756198165e-14
5.030989782e-10
1.23237837e-13
5.644855045e-10
1.505693953e-13
6.221016658e-10
1.791946345e-13
6.76111773e-10
2.086826126e-13
7.266741912e-10
2.385962734e-13
7.739414412e-10
2.686778995e-13
8.180601746e-10
2.984824955e-13
8.591716965e-10
3.277174352e-13
8.974118774e-10
3.561124235e-13
9.329112507e-10
3.833016e-13
9.657955791e-10
4.091705995e-13
9.96185384e-10
4.333225735e-13
1.024196837e-09
4.557482717e-13
1.049941127e-09
4.760746535e-13
1.07352541e-09
4.943337622e-13
1.095052201e-09
5.101758854e-13
1.114620271e-09
5.237050184e-13
1.132323973e-09
5.346495483e-13
1.148254207e-09
5.430860833e-13
1.162497779e-09
5.488382942e-13
1.175138318e-09
5.519368886e-13
1.186255591e-09
5.523225686e-13
1.195926468e-09
5.499664576e-13
1.204224188e-09
5.449420336e-13
1.211219256e-09
5.371513493e-13
1.21697898e-09
5.267956446e-13
1.221567841e-09
5.136747179e-13
1.225047777e-09
4.980700258e-13
1.227477731e-09
4.798301203e-13
1.22891453e-09
4.591778226e-13
1.229412093e-09
4.360623929e-13
1.229022474e-09
4.106279186e-13
1.227794977e-09
3.829210497e-13
1.225777253e-09
3.530011957e-13
1.223014409e-09
3.210124795e-13
1.219549928e-09
2.869571477e-13
1.215425056e-09
2.510405637e-13
1.210679457e-09
2.132090937e-13
1.205350891e-09
1.737176897e-13
1.199475458e-09
1.324819639e-13
1.193087658e-09
8.97901082e-14
1.18622036e-09
4.553368341e-14
1.178905068e-09
1.171171672e-09
2.346181133e-15
4.559099992e-11
9.183295841e-15
1.334066539e-10
2.016670498e-14
2.163297547e-10
3.492485709e-14
2.945644775e-10
5.306380969e-14
3.683079476e-10
7.416081438e-14
4.377504066e-10
9.777039831e-14
5.030753687e-10
1.234547027e-13
5.644598202e-10
1.508364753e-13
6.22074284e-10
1.794718046e-13
6.760831376e-10
2.089099928e-13
7.26644753e-10
2.388418655e-13
7.739115093e-10
2.688558409e-13
8.180301606e-10
2.985644133e-13
8.59141988e-10
3.277594121e-13
8.973826824e-10
3.55989994e-13
9.328830201e-10
3.831327733e-13
9.657684363e-10
4.087957512e-13
9.96159721e-10
4.328691299e-13
1.024172763e-09
4.550682432e-13
1.049918928e-09
4.752922362e-13
1.073505186e-09
4.932951804e-13
1.095034198e-09
5.090380677e-13
1.114604528e-09
5.223176929e-13
1.132310694e-09
5.331701472e-13
1.148243355e-09
5.41365918e-13
1.162489583e-09
5.47040128e-13
1.175132643e-09
5.499181236e-13
1.186252713e-09
5.502136318e-13
1.195926173e-09
5.477038778e-13
1.204226698e-09
5.425797922e-13
1.21122438e-09
5.347320774e-13
1.216986827e-09
5.242602534e-13
1.221578313e-09
5.111683209e-13
1.225060869e-09
4.95477885e-13
1.227493421e-09
4.773196879e-13
1.228932689e-09
4.56623401e-13
1.229432789e-09
4.33634842e-13
1.229045462e-09
4.082055685e-13
1.227820406e-09
3.806479653e-13
1.225804811e-09
3.508073918e-13
1.22304425e-09
3.18982889e-13
1.219581753e-09
2.850881904e-13
1.215458951e-09
2.493544887e-13
1.210715191e-09
2.117531445e-13
1.205388492e-09
1.72476462e-13
1.199514734e-09
1.315385459e-13
1.193128596e-09
8.910733013e-14
1.186262791e-09
4.520694429e-14
1.178948969e-09
1.171216879e-09
2.339461498e-15
4.558866046e-11
9.157749908e-15
1.333998356e-10
2.01163581e-14
2.163187961e-10
3.483939338e-14
2.945497545e-10
5.291422371e-14
3.682898727e-10
7.391687716e-14
4.37729404e-10
9.740792996e-14
5.030518776e-10
1.230039511e-13
5.644342241e-10
1.502443754e-13
6.220470436e-10
1.786752357e-13
6.760547068e-10
2.079479522e-13
7.266154803e-10
2.376679779e-13
7.738817893e-10
2.673962226e-13
8.180004324e-10
2.969120074e-13
8.591124722e-10
3.257715725e-13
8.973538228e-10
3.537416007e-13
9.328550501e-10
3.805428599e-13
9.65741635e-10
4.058906636e-13
9.961343732e-10
4.296448675e-13
1.024149009e-09
4.515078623e-13
1.049897065e-09
4.71416237e-13
1.073485277e-09
4.890883164e-13
1.095016526e-09
5.045357924e-13
1.11458908e-09
5.17539745e-13
1.13229769e-09
5.281107176e-13
1.148232784e-09
5.361054459e-13
1.162481588e-09
5.415107587e-13
1.175127238e-09
5.442827062e-13
1.186249941e-09
5.443670818e-13
1.195926088e-09
5.418374242e-13
1.204229228e-09
5.365840103e-13
1.211229633e-09
5.287961528e-13
1.216994615e-09
5.182746286e-13
1.221588835e-09
5.052921474e-13
1.225073851e-09
4.896766032e-13
1.227509037e-09
4.716626131e-13
1.228950703e-09
4.511697444e-13
1.229453282e-09
4.283610592e-13
1.229068271e-09
4.032508813e-13
1.227845516e-09
3.759202583e-13
1.225832141e-09
3.464797994e-13
1.22307369e-09
3.149564839e-13
1.219613276e-09
2.815236886e-13
1.215492383e-09
2.46154055e-13
1.21075056e-09
2.09072632e-13
1.205425574e-09
1.70222146e-13
1.199553585e-09
1.298642676e-13
1.193168954e-09
8.79189379e-14
1.186304736e-09
4.465299884e-14
1.178992235e-09
1.171261532e-09
2.316402054e-15
4.558634406e-11
9.066000103e-15
1.33393086e-10
1.990759158e-14
2.163079545e-10
3.446203252e-14
2.945352e-10
5.232105542e-14
3.682720137e-10
7.307140222e-14
4.377086536e-10
9.630582337e-14
5.030286432e-10
1.215639244e-13
5.64408966e-10
1.48397696e-13
6.220202098e-10
1.764318573e-13
6.760266726e-10
2.052764514e-13
7.265866357e-10
2.344714199e-13
7.738525943e-10
2.637356575e-13
8.179711682e-10
2.92687088e-13
8.590835208e-10
3.20973619e-13
8.973255363e-10
3.484107292e-13
9.32827613e-10
3.745780968e-13
9.657154677e-10
3.994249928e-13
9.961095263e-10
4.225501843e-13
1.024125884e-09
4.439312276e-13
1.049875684e-09
4.632311401e-13
1.073465977e-09
4.804738881e-13
1.094999283e-09
4.953846009e-13
1.11457417e-09
5.08038788e-13
1.132285036e-09
5.181600836e-13
1.148222662e-09
5.259009873e-13
1.162473847e-09
5.309657719e-13
1.175122173e-09
5.33569464e-13
1.186247337e-09
5.334790631e-13
1.195926179e-09
5.308750508e-13
1.204231832e-09
5.256349374e-13
1.211234873e-09
5.178614436e-13
1.217002389e-09
5.075336388e-13
1.221599163e-09
4.946836617e-13
1.225086701e-09
4.794088859e-13
1.227524312e-09
4.6165775e-13
1.228968454e-09
4.416348273e-13
1.229473305e-09
4.192160911e-13
1.22909069e-09
3.946853742e-13
1.227870047e-09
3.678703335e-13
1.225858957e-09
3.390910627e-13
1.223102469e-09
3.082163833e-13
1.219644151e-09
2.755081678e-13
1.215525092e-09
2.408937003e-13
1.210785175e-09
2.04597237e-13
1.20546187e-09
1.665914081e-13
1.199591591e-09
1.270778477e-13
1.193208467e-09
8.604370355e-14
1.186345771e-09
4.36836661e-14
1.179034595e-09
1.171305216e-09
2.266572303e-15
4.558407749e-11
8.871254456e-15
1.333864814e-10
1.947564768e-14
2.162973501e-10
3.370655477e-14
2.945209691e-10
5.117488869e-14
3.682545454e-10
7.147396866e-14
4.376883545e-10
9.414525098e-14
5.030059719e-10
1.187562331e-13
5.643843551e-10
1.449191522e-13
6.219940469e-10
1.72240506e-13
6.759993513e-10
2.002528333e-13
7.265586234e-10
2.286295412e-13
7.738242176e-10
2.570314016e-13
8.179427663e-10
2.850317253e-13
8.590555204e-10
3.12465821e-13
8.972981022e-10
3.389176102e-13
9.328011612e-10
3.642154004e-13
9.656901699e-10
3.881025235e-13
9.960856392e-10
4.103712954e-13
1.024103615e-09
4.308624596e-13
1.049855193e-09
4.493710609e-13
1.073447469e-09
4.658344424e-13
1.09498282e-09
4.80084003e-13
1.11455992e-09
4.920815989e-13
1.132273038e-09
5.017130566e-13
1.148213031e-09
5.089379388e-13
1.162466622e-09
5.137210795e-13
1.17511739e-09
5.159977122e-13
1.18624506e-09
5.158321959e-13
1.195926344e-09
5.13116729e-13
1.204234547e-09
5.080164401e-13
1.211239973e-09
5.003452955e-13
1.21701006e-09
4.903584456e-13
1.221609149e-09
4.77853957e-13
1.225099206e-09
4.630876838e-13
1.227539078e-09
4.459296435e-13
1.228985612e-09
4.26570446e-13
1.229492664e-09
4.049699203e-13
1.22911229e-09
3.812388009e-13
1.227893778e-09
3.554297867e-13
1.225884766e-09
3.276011502e-13
1.223130298e-09
2.978696228e-13
1.219673882e-09
2.66239472e-13
1.215556722e-09
2.328804002e-13
1.210818534e-09
1.977674597e-13
1.205496983e-09
1.611100519e-13
1.199628248e-09
1.228620275e-13
1.193246715e-09
8.324226926e-14
1.18638539e-09
4.221582353e-14
1.179075621e-09
1.171347432e-09
2.184771428e-15
4.558189272e-11
8.552123109e-15
1.33380114e-10
1.877625304e-14
2.16287126e-10
3.249805066e-14
2.945072473e-10
4.932066046e-14
3.682377228e-10
6.882559566e-14
4.376688496e-10
9.05875448e-14
5.0298421e-10
1.142221192e-13
5.643607205e-10
1.393289373e-13
6.219689401e-10
1.654465691e-13
6.759732336e-10
1.922175192e-13
7.265318524e-10
2.193329608e-13
7.737971022e-10
2.463407895e-13
8.179157585e-10
2.730111062e-13
8.590288501e-10
2.990231336e-13
8.972720901e-10
3.240681988e-13
9.327761161e-10
3.480164552e-13
9.656662216e-10
3.704984958e-13
9.960631572e-10
3.915197782e-13
1.024082594e-09
4.106930557e-13
1.049836019e-09
4.28099217e-13
1.073430063e-09
4.434142473e-13
1.094967505e-09
4.567548259e-13
1.114546579e-09
4.678179715e-13
1.132261975e-09
4.767738869e-13
1.148204075e-09
4.833255106e-13
1.162460071e-09
4.876856621e-13
1.17511303e-09
4.896151606e-13
1.186243131e-09
4.892991383e-13
1.19592666e-09
4.865932919e-13
1.204237253e-09
4.816168621e-13
1.21124495e-09
4.74311097e-13
1.217017366e-09
4.64730212e-13
1.22161873e-09
4.529219269e-13
1.225111014e-09
4.38861881e-13
1.227553138e-09
4.226933229e-13
1.22900178e-09
4.043238818e-13
1.229511033e-09
3.839706487e-13
1.229132644e-09
3.614774233e-13
1.227916271e-09
3.371461918e-13
1.225909097e-09
3.107950944e-13
1.223156649e-09
2.827132327e-13
1.219701964e-09
2.527565869e-13
1.215586678e-09
2.211837666e-13
1.210850107e-09
1.878976724e-13
1.205530269e-09
1.531364802e-13
1.199663009e-09
1.168219947e-13
1.19328303e-09
7.918349008e-14
1.186423029e-09
4.016333722e-14
1.179114641e-09
1.171387595e-09
2.065260149e-15
4.557982746e-11
8.082327624e-15
1.333740969e-10
1.773575061e-14
2.162774726e-10
3.067214501e-14
2.944943109e-10
4.651028225e-14
3.682218846e-10
6.484646073e-14
4.376505134e-10
8.531422409e-14
5.029637422e-10
1.075092821e-13
5.643385254e-10
1.309899594e-13
6.219454594e-10
1.553839557e-13
6.759488396e-10
1.80396322e-13
7.2650684e-10
2.055814022e-13
7.737719171e-10
2.306529436e-13
8.178906869e-10
2.553669559e-13
8.590041361e-10
2.793288873e-13
8.972481282e-10
3.024475395e-13
9.327529975e-10
3.243777183e-13
9.656442914e-10
3.450102525e-13
9.960425246e-10
3.641231152e-13
1.024063481e-09
3.815943756e-13
1.049818548e-09
3.973145603e-13
1.073414342e-09
4.111728793e-13
1.094953647e-09
4.231067372e-13
1.114534646e-09
4.330368701e-13
1.132252045e-09
4.409176605e-13
1.148196194e-09
4.467254761e-13
1.162454263e-09
4.504041604e-13
1.175109351e-09
4.520074409e-13
1.186241528e-09
4.514467361e-13
1.195927221e-09
4.48856879e-13
1.204239843e-09
4.440796869e-13
1.211249727e-09
4.373303537e-13
1.217024115e-09
4.284034319e-13
1.221627657e-09
4.175674034e-13
1.22512185e-09
4.04625031e-13
1.227566081e-09
3.898011443e-13
1.229016604e-09
3.729788549e-13
1.229527856e-09
3.543021113e-13
1.22915132e-09
3.337384774e-13
1.227936835e-09
3.113808737e-13
1.225931454e-09
2.872599744e-13
1.22318077e-09
2.614124962e-13
1.219727812e-09
2.33922343e-13
1.215614169e-09
2.0479598e-13
1.210879233e-09
1.741599171e-13
1.205560905e-09
1.420015967e-13
1.199695168e-09
1.084620384e-13
1.193316569e-09
7.353842218e-14
1.186457952e-09
3.738060874e-14
1.179150799e-09
1.171424976e-09
1.892445869e-15
4.557793501e-11
7.405760328e-15
1.333685836e-10
1.624320334e-14
2.162686351e-10
2.806826339e-14
2.944824859e-10
4.253159341e-14
3.682074213e-10
5.927130811e-14
4.376337737e-10
7.790433727e-14
5.029451092e-10
9.802185783e-14
5.643184079e-10
1.192553257e-13
6.21924226e-10
1.413084406e-13
6.759267865e-10
1.637744973e-13
7.26484374e-10
1.863185433e-13
7.737493731e-10
2.087542083e-13
8.178682513e-10
2.306811129e-13
8.589822092e-10
2.519350889e-13
8.972268742e-10
2.723013387e-13
9.327326312e-10
2.915326515e-13
9.656250601e-10
3.095752258e-13
9.960244821e-10
3.261221333e-13
1.024046934e-09
3.412711808e-13
1.049803399e-09
3.547122049e-13
1.073400901e-09
3.666047863e-13
1.094941754e-09
3.766491107e-13
1.114524601e-09
3.850481e-13
1.132243646e-09
3.915214924e-13
1.148189721e-09
3.962975119e-13
1.162449487e-09
3.991397072e-13
1.175106509e-09
4.002590374e-13
1.186240408e-09
3.994894226e-13
1.195927991e-09
3.969842849e-13
1.204242348e-09
3.926408915e-13
1.21125407e-09
3.86549567e-13
1.217030206e-09
3.786955146e-13
1.221635511e-09
3.690922648e-13
1.225131453e-09
3.578033717e-13
1.227577369e-09
3.447732459e-13
1.229029634e-09
3.301289318e-13
1.2295425e-09
3.137469572e-13
1.229167702e-09
2.958306663e-13
1.227954751e-09
2.762059176e-13
1.225951079e-09
2.55122487e-13
1.223201853e-09
2.323783039e-13
1.219750556e-09
2.08237114e-13
1.21563831e-09
1.825062091e-13
1.210904964e-09
1.554512782e-13
1.20558796e-09
1.268944078e-13
1.199723725e-09
9.709462935e-14
1.193346369e-09
6.59034325e-14
1.186489144e-09
3.35870045e-14
1.179183116e-09
1.171458563e-09
1.656664865e-15
4.557627834e-11
6.483440703e-15
1.333637569e-10
1.421427254e-14
2.162609043e-10
2.454825637e-14
2.944721519e-10
3.716535382e-14
3.681948042e-10
5.170977607e-14
4.376192293e-10
6.782050751e-14
5.029289984e-10
8.515192767e-14
5.643010765e-10
1.034133432e-13
6.219059645e-10
1.22238788e-13
6.759079611e-10
1.412841226e-13
7.264653287e-10
1.603662012e-13
7.73730291e-10
1.791582211e-13
8.178494593e-10
1.974129854e-13
8.589639544e-10
2.150346478e-13
8.972092526e-10
2.31698839e-13
9.32715967e-10
2.474035264e-13
9.656093554e-10
2.618987544e-13
9.960099868e-10
2.751703829e-13
1.024033663e-09
2.871014179e-13
1.049791468e-09
2.976610391e-13
1.073390342e-09
3.06799223e-13
1.094932616e-09
3.144917198e-13
1.114516909e-09
3.207206123e-13
1.132237417e-09
3.254904484e-13
1.148184951e-09
3.28783032e-13
1.162446194e-09
3.306525143e-13
1.17510464e-09
3.310551179e-13
1.186240006e-09
3.301000978e-13
1.195928946e-09
3.276780176e-13
1.20424477e-09
3.239535283e-13
1.211257795e-09
3.187589209e-13
1.217035401e-09
3.12327364e-13
1.221641943e-09
3.044271008e-13
1.225139353e-09
2.953085289e-13
1.227586488e-09
2.84758106e-13
1.229040185e-09
2.729544328e-13
1.229554304e-09
2.597530235e-13
1.229180904e-09
2.452773079e-13
1.227969227e-09
2.294385772e-13
1.225966918e-09
2.123004368e-13
1.223218991e-09
1.938222606e-13
1.219769034e-09
1.740341468e-13
1.215658098e-09
1.52938059e-13
1.21092606e-09
1.305453812e-13
1.205610353e-09
1.068766875e-13
1.199747393e-09
8.195045642e-14
1.193371295e-09
5.580574506e-14
1.186515288e-09
2.847929156e-14
1.179210442e-09
1.171487042e-09
1.348626191e-15
4.557492972e-11
5.276315389e-15
1.333598292e-10
1.155514799e-14
2.162546255e-10
1.991934932e-14
2.944637877e-10
3.007285394e-14
3.681846507e-10
4.170710755e-14
4.37607595e-10
5.452006086e-14
5.029161855e-10
6.823801931e-14
5.642873585e-10
8.253977982e-14
6.218916628e-10
9.71102565e-14
6.758933906e-10
1.117588305e-13
7.264506801e-10
1.26240103e-13
7.737158097e-10
1.40268105e-13
8.178354312e-10
1.537938942e-13
8.589504286e-10
1.66569175e-13
8.971964773e-10
1.785023024e-13
9.327040339e-10
1.895213505e-13
9.655983364e-10
1.994620202e-13
9.960000462e-10
2.08423255e-13
1.024024701e-09
2.162008821e-13
1.04978369e-09
2.229937921e-13
1.073383549e-09
2.285716664e-13
1.094927038e-09
2.331938301e-13
1.114512287e-09
2.366290159e-13
1.132233982e-09
2.391577243e-13
1.148182422e-09
2.405677308e-13
1.162444784e-09
2.411289348e-13
1.175104078e-09
2.406681253e-13
1.186240467e-09
2.394006723e-13
1.195930213e-09
2.371863625e-13
1.204246985e-09
2.34172768e-13
1.211260809e-09
2.302797631e-13
1.217039294e-09
2.255743391e-13
1.221646648e-09
2.200271724e-13
1.225144901e-09
2.136293377e-13
1.227592886e-09
2.063971598e-13
1.229047417e-09
1.982395458e-13
1.229562461e-09
1.892325466e-13
1.229189911e-09
1.792272461e-13
1.227979232e-09
1.683371217e-13
1.225977808e-09
1.56360065e-13
1.223230968e-09
1.434491101e-13
1.219781945e-09
1.293741374e-13
1.215672173e-09
1.143232953e-13
1.210941111e-09
9.805275493e-14
1.205626623e-09
8.075724675e-14
1.199764689e-09
6.222129912e-14
1.193389831e-09
4.264781442e-14
1.186534862e-09
2.184154296e-14
1.179231248e-09
1.171508883e-09
9.50882163e-16
4.557397884e-11
3.717276726e-15
1.333570628e-10
8.113522413e-15
2.162502292e-10
1.392174399e-14
2.944579794e-10
2.089774732e-14
3.681776747e-10
2.880550698e-14
4.375996873e-10
3.740501172e-14
5.02907586e-10
4.64286687e-14
5.642783349e-10
5.561120756e-14
6.218824802e-10
6.477787818e-14
6.758842239e-10
7.375618571e-14
7.264417018e-10
8.228529257e-14
7.737072806e-10
9.03020005e-14
8.178274145e-10
9.769104126e-14
8.589430396e-10
1.042867677e-13
8.971898816e-10
1.101765714e-13
9.326981441e-10
1.15154282e-13
9.655933587e-10
1.193551533e-13
9.959958453e-10
1.227045084e-13
1.024021352e-09
1.252947647e-13
1.0497811e-09
1.271390123e-13
1.073381705e-09
1.283078719e-13
1.094925869e-09
1.288609815e-13
1.114511733e-09
1.288660568e-13
1.132233977e-09
1.283896828e-13
1.148182899e-09
1.275155901e-13
1.162445658e-09
1.262853194e-13
1.175105309e-09
1.248047527e-13
1.186241947e-09
1.230470952e-13
1.195931971e-09
1.211393026e-13
1.204248892e-09
1.189854965e-13
1.211262962e-09
1.167507469e-13
1.217041529e-09
1.142438177e-13
1.221649155e-09
1.116735555e-13
1.225147471e-09
1.087797106e-13
1.22759578e-09
1.057544518e-13
1.229050442e-09
1.02318268e-13
1.229565898e-09
9.862066683e-14
1.229193608e-09
9.442077833e-14
1.227983432e-09
8.979504436e-14
1.225982434e-09
8.453642337e-14
1.223236227e-09
7.867948377e-14
1.219787802e-09
7.205139917e-14
1.215678801e-09
6.466526365e-14
1.210948497e-09
5.636584184e-14
1.205634923e-09
4.716727498e-14
1.199773887e-09
3.694097133e-14
1.193400057e-09
2.572229466e-14
1.186546081e-09
1.338205312e-14
1.179243589e-09
1.171522266e-09
4.440727408e-16
4.557353476e-11
1.731983755e-15
1.333557749e-10
3.736215136e-15
2.16248225e-10
6.306364523e-15
2.944554093e-10
9.279019925e-15
3.68174702e-10
1.247929892e-14
4.37596487e-10
1.570550172e-14
5.029043598e-10
1.876360148e-14
5.642752768e-10
2.151949919e-14
6.218797243e-10
2.386898502e-14
6.758818744e-10
2.561216801e-14
7.264399586e-10
2.668952384e-14
7.737062033e-10
2.711195086e-14
8.178269921e-10
2.672283291e-14
8.589434287e-10
2.562432407e-14
8.971909801e-10
2.379128337e-14
9.326999771e-10
2.125186069e-14
9.655958981e-10
1.816735512e-14
9.959989298e-10
1.449984319e-14
1.024025019e-09
1.053187336e-14
1.049785068e-09
6.171716442e-15
1.073386065e-09
1.770951114e-15
1.09493027e-09
-2.783172731e-15
1.114516288e-09
-7.121418607e-15
1.132238315e-09
-1.136679253e-14
1.148187144e-09
-1.51537156e-14
1.162449445e-09
-1.862116208e-14
1.175108776e-09
-2.144984658e-14
1.186244776e-09
-2.379098844e-14
1.195934312e-09
-2.540339126e-14
1.204250505e-09
-2.641705953e-14
1.211263976e-09
-2.668499035e-14
1.217041796e-09
-2.63278714e-14
1.221648798e-09
-2.528977619e-14
1.225146433e-09
-2.36777438e-14
1.227594168e-09
-2.15405522e-14
1.229048305e-09
-1.89546124e-14
1.229563312e-09
-1.604769319e-14
1.229190701e-09
-1.287849565e-14
1.227980263e-09
-9.64831563e-15
1.225979204e-09
-6.393458993e-15
1.223232972e-09
-3.35756002e-15
1.219784766e-09
-5.52198337e-16
1.215675996e-09
1.754224069e-15
1.210946191e-09
3.561257832e-15
1.205633116e-09
4.616866208e-15
1.199772832e-09
4.935767017e-15
1.193399738e-09
4.293184056e-15
1.186546723e-09
2.704104242e-15
1.179245178e-09
1.17152497e-09
-1.904008262e-16
4.557372516e-11
-7.525563992e-16
1.33356337e-10
-1.733636411e-15
2.162492061e-10
-3.201592038e-15
2.944568773e-10
-5.235982002e-15
3.681767364e-10
-7.954076136e-15
4.375992051e-10
-1.145674875e-14
5.029078624e-10
-1.58088142e-14
5.642796288e-10
-2.104821526e-14
6.218849637e-10
-2.727329847e-14
6.758880995e-10
-3.451595801e-14
7.264472012e-10
-4.26762914e-14
7.737143636e-10
-5.179531819e-14
8.178361111e-10
-6.179037565e-14
8.589534238e-10
-7.249026194e-14
8.9720168e-10
-8.391840318e-14
9.327114053e-10
-9.575184156e-14
9.656077315e-10
-1.079497022e-13
9.960111277e-10
-1.20232811e-13
1.024037303e-09
-1.32455606e-13
1.049797291e-09
-1.443900469e-13
1.073397999e-09
-1.558314374e-13
1.094941711e-09
-1.665908448e-13
1.114527047e-09
-1.764509686e-13
1.132248175e-09
-1.852479784e-13
1.148195941e-09
-1.927921063e-13
1.16245699e-09
-1.989383984e-13
1.175114922e-09
-2.035758589e-13
1.186249413e-09
-2.065814174e-13
1.195937317e-09
-2.079350949e-13
1.204251858e-09
-2.075173336e-13
1.211263558e-09
-2.05424219e-13
1.217039703e-09
-2.015382161e-13
1.221644912e-09
-1.960667311e-13
1.225140961e-09
-1.889073459e-13
1.227587008e-09
-1.80370215e-13
1.229039768e-09
-1.703514108e-13
1.229553293e-09
-1.592233849e-13
1.229179573e-09
-1.469365702e-13
1.227967976e-09
-1.338941834e-13
1.225966161e-09
-1.200863634e-13
1.223219164e-09
-1.059129872e-13
1.219770593e-09
-9.139479425e-14
1.215661477e-09
-7.692596009e-14