/*--------------------------------*- C++ -*----------------------------------*\
  =========                 |
  \\      /  F ield         | OpenFOAM: The Open Source CFD Toolbox
   \\    /   O peration     | Website:  https://openfoam.org
    \\  /    A nd           | Version:  7
     \\/     M anipulation  |
\*---------------------------------------------------------------------------*/
FoamFile
{
    version     2.0;
    format      ascii;
    class       volVectorField;
    location    "0.0006";
    object      U;
}
// * * * * * * * * * * * * * * * * * * * * * * * * * * * * * * * * * * * * * //

dimensions      [0 1 -1 0 0 0 0];

internalField   nonuniform List<vector> 
1167
(
(1.84947019e-08 2.247538027e-20 -0.002154785891)
(4.815389805e-08 -3.114840956e-20 -0.002154788685)
(7.581273356e-08 -5.726520678e-20 -0.002154794663)
(1.038086087e-07 -1.469810874e-19 -0.002154803522)
(1.308787866e-07 4.518615188e-20 -0.002154815072)
(1.567086034e-07 1.669258051e-19 -0.002154829193)
(1.81235446e-07 2.760721229e-19 -0.002154845771)
(2.043683313e-07 2.199280132e-19 -0.002154864685)
(2.259865981e-07 3.064189643e-19 -0.002154885812)
(2.460562794e-07 2.534874528e-19 -0.002154909052)
(2.645519361e-07 1.742604051e-19 -0.002154934307)
(2.814154301e-07 1.226467303e-19 -0.002154961466)
(2.966561733e-07 1.316459873e-19 -0.002154990441)
(3.102744257e-07 1.370835132e-19 -0.002155021141)
(3.222487742e-07 1.477235701e-19 -0.002155053451)
(3.326058968e-07 1.161888259e-19 -0.002155087284)
(3.413438742e-07 1.187675919e-19 -0.002155122522)
(3.485001277e-07 1.139597452e-19 -0.002155159076)
(3.540994511e-07 1.013344647e-19 -0.002155196827)
(3.581762786e-07 1.509437428e-19 -0.002155235672)
(3.607687627e-07 1.849081999e-19 -0.002155275486)
(3.619155921e-07 2.187482661e-19 -0.002155316156)
(3.616693163e-07 2.19576841e-19 -0.002155357548)
(3.600735371e-07 2.275885442e-19 -0.002155399544)
(3.571899743e-07 2.365816702e-19 -0.002155441997)
(3.53052124e-07 2.46028814e-19 -0.002155484779)
(3.477193394e-07 2.578624205e-19 -0.002155527734)
(3.412392057e-07 2.708947161e-19 -0.002155570731)
(3.336784685e-07 2.853926708e-19 -0.00215561361)
(3.250793098e-07 2.840830925e-19 -0.002155656223)
(3.154911196e-07 2.69706991e-19 -0.002155698411)
(3.04975263e-07 2.626485057e-19 -0.002155740009)
(2.935718082e-07 2.586754259e-19 -0.002155780861)
(2.813462332e-07 2.555551505e-19 -0.002155820791)
(2.683397697e-07 2.516595166e-19 -0.002155859645)
(2.546163093e-07 2.626652645e-19 -0.002155897249)
(1.889166764e-08 4.141217531e-19 -0.002155249115)
(4.918638933e-08 1.991624591e-19 -0.002155251983)
(7.743548989e-08 -6.687743309e-20 -0.002155258127)
(1.060235197e-07 1.133183822e-19 -0.002155267254)
(1.336941348e-07 1.29035173e-19 -0.002155279181)
(1.601381955e-07 1.410898436e-19 -0.002155293761)
(1.852052318e-07 1.215716953e-19 -0.002155310862)
(2.087953501e-07 2.665835888e-19 -0.002155330337)
(2.30869238e-07 3.633227317e-19 -0.002155352092)
(2.513757181e-07 2.723422881e-19 -0.002155376021)
(2.702339197e-07 1.489753726e-19 -0.002155401998)
(2.874421243e-07 1.120030779e-19 -0.002155429928)
(3.029975846e-07 1.367095065e-19 -0.00215545972)
(3.168615995e-07 1.38559974e-19 -0.002155491248)
(3.290626331e-07 1.330297097e-19 -0.002155524429)
(3.395975211e-07 1.226218655e-19 -0.002155559146)
(3.484892385e-07 1.15711604e-19 -0.002155595295)
(3.557617417e-07 1.051339611e-19 -0.00215563277)
(3.614434989e-07 8.661208782e-20 -0.00215567145)
(3.655662311e-07 8.177937633e-20 -0.002155711226)
(3.681696608e-07 6.202754829e-20 -0.002155751968)
(3.6929693e-07 9.395056809e-20 -0.00215579356)
(3.689964248e-07 1.278702168e-19 -0.002155835868)
(3.673214344e-07 1.654515376e-19 -0.002155878762)
(3.643186787e-07 1.96836043e-19 -0.002155922106)
(3.60038731e-07 2.02941504e-19 -0.002155965751)
(3.545312631e-07 2.082212694e-19 -0.002156009559)
(3.478708851e-07 2.148585147e-19 -0.002156053371)
(3.400999114e-07 2.178935877e-19 -0.002156097045)
(3.312833334e-07 2.117411595e-19 -0.002156140409)
(3.214608808e-07 2.144288561e-19 -0.002156183319)
(3.106957704e-07 2.295405527e-19 -0.002156225601)
(2.990274282e-07 2.44317706e-19 -0.002156267098)
(2.865099519e-07 2.588585178e-19 -0.002156307643)
(2.732117542e-07 2.722078271e-19 -0.002156347066)
(2.591745639e-07 2.830835262e-19 -0.002156385208)
(2.444566296e-07 2.896259051e-19 -0.002156421889)
(2.29092947e-07 3.013624051e-19 -0.002156456954)
(2.131406281e-07 3.046257566e-19 -0.002156490228)
(1.966358967e-07 3.323225163e-19 -0.002156521555)
(1.796311352e-07 3.366233382e-19 -0.002156550769)
(1.621605242e-07 3.249635244e-19 -0.002156577713)
(1.442620107e-07 3.188286577e-19 -0.002156602231)
(1.259768696e-07 3.161080225e-19 -0.00215662417)
(1.073403302e-07 3.156977479e-19 -0.002156643383)
(8.839401546e-08 3.197085904e-19 -0.002156659726)
(6.915822889e-08 3.150981589e-19 -0.002156673063)
(4.966765719e-08 3.239811421e-19 -0.002156683258)
(3.002103402e-08 3.21201215e-19 -0.002156690186)
(1.048212565e-08 3.207437992e-19 -0.002156693719)
(1.933567919e-08 2.965449328e-19 -0.00215570002)
(5.034186874e-08 8.710063904e-19 -0.002155703005)
(7.927632281e-08 4.880648264e-19 -0.002155709382)
(1.085808773e-07 5.005614195e-19 -0.002155718842)
(1.369127754e-07 3.18842756e-19 -0.002155731197)
(1.639389571e-07 2.369547299e-19 -0.002155746272)
(1.895453462e-07 1.900043704e-19 -0.00215576393)
(2.136890629e-07 3.731399257e-19 -0.002155784066)
(2.362851618e-07 3.923821246e-19 -0.002155806552)
(2.572227414e-07 3.330301197e-19 -0.00215583125)
(2.764942973e-07 3.002923126e-19 -0.002155858058)
(2.940896775e-07 3.225403522e-19 -0.002155886881)
(3.099553693e-07 2.25265238e-19 -0.002155917589)
(3.241164962e-07 1.78870446e-19 -0.002155950091)
(3.365649059e-07 1.245705939e-19 -0.002155984272)
(3.473007696e-07 9.716525269e-20 -0.00215602001)
(3.563523007e-07 1.22347995e-19 -0.002156057208)
(3.637341403e-07 1.296739685e-19 -0.002156095731)
(3.694846662e-07 1.642776516e-19 -0.002156135478)
(3.736373993e-07 1.252347268e-19 -0.002156176308)
(3.762352274e-07 1.138459294e-19 -0.002156218115)
(3.773269734e-07 9.736674109e-20 -0.002156260752)
(3.769619747e-07 1.250315434e-19 -0.002156304106)
(3.751975485e-07 1.444559074e-19 -0.002156348024)
(3.720712822e-07 1.474867385e-19 -0.002156392376)
(3.67644945e-07 1.678421789e-19 -0.002156437006)
(3.61970163e-07 1.494590077e-19 -0.002156481773)
(3.551055148e-07 1.439715102e-19 -0.002156526522)
(3.471103265e-07 1.326501754e-19 -0.002156571096)
(3.380349298e-07 1.448178286e-19 -0.002156615338)
(3.27947708e-07 1.747368808e-19 -0.002156659078)
(3.168881043e-07 2.027172745e-19 -0.002156702161)
(3.049243567e-07 2.325294237e-19 -0.002156744407)
(2.921036513e-07 2.681874194e-19 -0.002156785663)
(2.784939529e-07 2.96815865e-19 -0.002156825753)
(2.641335546e-07 3.034807837e-19 -0.002156864515)
(2.490718035e-07 2.900964264e-19 -0.002156901777)
(2.333633454e-07 2.689387369e-19 -0.002156937371)
(2.170513438e-07 2.670297977e-19 -0.002156971136)
(2.001929568e-07 2.822455924e-19 -0.002157002901)
(1.828244602e-07 2.872267202e-19 -0.002157032513)
(1.649960338e-07 2.865591592e-19 -0.002157059804)
(1.467399741e-07 2.892399134e-19 -0.002157084628)
(1.281023683e-07 2.947750139e-19 -0.002157106827)
(1.091191227e-07 3.093908101e-19 -0.002157126261)
(8.982969409e-08 3.004147815e-19 -0.002157142782)
(7.025698306e-08 2.993912471e-19 -0.002157156259)
(5.043509497e-08 3.0058456e-19 -0.002157166557)
(3.046440212e-08 3.07795849e-19 -0.002157173553)
(1.061775372e-08 3.133611599e-19 -0.002157177123)
(1.983421666e-08 1.073106104e-19 -0.002156138865)
(5.162556342e-08 2.193781216e-19 -0.002156141968)
(8.126667067e-08 2.923976297e-19 -0.002156148586)
(1.112726924e-07 3.291740201e-19 -0.002156158388)
(1.402725693e-07 2.920661454e-19 -0.002156171179)
(1.679501977e-07 2.563345936e-19 -0.002156186812)
(1.942209893e-07 2.445305215e-19 -0.002156205144)
(2.189590156e-07 2.758345658e-19 -0.002156226032)
(2.420440364e-07 3.287552203e-19 -0.002156249316)
(2.634645423e-07 2.783643511e-19 -0.002156274897)
(2.831950103e-07 2.38428299e-19 -0.002156302666)
(3.011665492e-07 1.861202608e-19 -0.002156332485)
(3.173965094e-07 1.306485081e-19 -0.002156364252)
(3.318666287e-07 1.588121248e-19 -0.002156397851)
(3.445493842e-07 1.715401871e-19 -0.002156433145)
(3.554866087e-07 1.752020957e-19 -0.002156470037)
(3.64683218e-07 1.948439187e-19 -0.002156508389)
(3.721775626e-07 2.202932381e-19 -0.002156548099)
(3.779933116e-07 2.331882955e-19 -0.002156589028)
(3.821745392e-07 2.073836787e-19 -0.002156631063)
(3.847640708e-07 1.962343695e-19 -0.002156674061)
(3.858108719e-07 1.978325486e-19 -0.002156717898)
(3.85373878e-07 1.765247654e-19 -0.002156762429)
(3.834927471e-07 1.635796757e-19 -0.002156807522)
(3.802239378e-07 1.512366979e-19 -0.002156853013)
(3.756191205e-07 1.600107788e-19 -0.002156898769)
(3.697527182e-07 1.76684901e-19 -0.00215694462)
(3.626731413e-07 1.664147272e-19 -0.002156990428)
(3.544475114e-07 1.585401952e-19 -0.002157036019)
(3.45119867e-07 1.480450785e-19 -0.002157081244)
(3.347522991e-07 1.557862972e-19 -0.002157125928)
(3.233950943e-07 1.6117018e-19 -0.002157169909)
(3.111070136e-07 1.629468556e-19 -0.002157213018)
(2.979645577e-07 1.603636841e-19 -0.002157255084)
(2.840090664e-07 1.477585064e-19 -0.002157295945)
(2.693021269e-07 1.501697528e-19 -0.002157335419)
(2.538844216e-07 1.584077652e-19 -0.002157373349)
(2.378179613e-07 1.633935179e-19 -0.002157409557)
(2.211435421e-07 1.620611904e-19 -0.002157443886)
(2.039184015e-07 1.736905718e-19 -0.002157476165)
(1.861813142e-07 1.688709669e-19 -0.002157506238)
(1.679745749e-07 2.000935405e-19 -0.002157533944)
(1.493470559e-07 2.191040024e-19 -0.002157559127)
(1.303363674e-07 2.334341996e-19 -0.002157581642)
(1.109904165e-07 2.435175763e-19 -0.002157601338)
(9.133970948e-08 2.478782776e-19 -0.002157618079)
(7.141591863e-08 2.559530649e-19 -0.002157631725)
(5.125023343e-08 2.442129511e-19 -0.002157642153)
(3.094978783e-08 2.418934151e-19 -0.002157649232)
(1.077947035e-08 2.538117558e-19 -0.002157652852)
(2.032645272e-08 2.126411201e-20 -0.002156565644)
(5.290241096e-08 -1.13315707e-19 -0.002156568867)
(8.326949969e-08 2.147088613e-19 -0.002156575754)
(1.140209517e-07 4.212121599e-19 -0.002156585976)
(1.437747787e-07 2.889666925e-19 -0.002156599322)
(1.721772789e-07 2.112942025e-19 -0.002156615619)
(1.990680091e-07 1.549868112e-19 -0.002156634697)
(2.24344694e-07 1.028716917e-19 -0.002156656391)
(2.479806293e-07 2.984470907e-20 -0.002156680598)
(2.699251981e-07 8.177534709e-20 -0.002156707192)
(2.900866292e-07 9.814882673e-20 -0.002156736022)
(3.084656208e-07 1.088679844e-19 -0.002156766973)
(3.250442985e-07 1.626777647e-19 -0.002156799927)
(3.397763675e-07 1.988526434e-19 -0.002156834726)
(3.52703732e-07 2.080785458e-19 -0.00215687128)
(3.638270792e-07 2.646504012e-19 -0.002156909451)
(3.731763679e-07 2.501108579e-19 -0.002156949116)
(3.807757025e-07 2.520269789e-19 -0.002156990149)
(3.866571211e-07 2.091362365e-19 -0.002157032412)
(3.908621523e-07 2.308713364e-19 -0.002157075783)
(3.934363168e-07 2.151747045e-19 -0.002157120112)
(3.944353437e-07 2.108734763e-19 -0.002157165275)
(3.939131655e-07 1.794833268e-19 -0.002157211117)
(3.919111063e-07 1.789542359e-19 -0.002157257496)
(3.884842103e-07 1.796264398e-19 -0.002157304256)
(3.836987781e-07 1.560126588e-19 -0.002157351249)
(3.776172988e-07 1.531781352e-19 -0.002157398319)
(3.703109574e-07 1.70671726e-19 -0.002157445301)
(3.618237217e-07 1.829074902e-19 -0.00215749204)
(3.522250331e-07 1.759129828e-19 -0.002157538357)
(3.415611672e-07 1.584309064e-19 -0.0021575841)
(3.299042223e-07 1.550203786e-19 -0.002157629083)
(3.173068137e-07 1.425194624e-19 -0.002157673152)
(3.038410698e-07 1.189073341e-19 -0.002157716128)
(2.895494854e-07 1.235323809e-19 -0.002157757843)
(2.744850323e-07 1.154019459e-19 -0.002157798125)
(2.587111209e-07 1.164285188e-19 -0.002157836803)
(2.42272943e-07 1.197392619e-19 -0.002157873711)
(2.252318731e-07 1.087966881e-19 -0.002157908676)
(2.076290123e-07 1.120353025e-19 -0.002157941544)
(1.895194544e-07 1.271036622e-19 -0.00215797214)
(1.709401276e-07 1.671839748e-19 -0.00215800032)
(1.519419968e-07 1.976164425e-19 -0.002158025917)
(1.325654424e-07 2.103231964e-19 -0.002158048792)
(1.128565549e-07 2.199356673e-19 -0.002158068792)
(9.284855471e-08 2.229593289e-19 -0.002158085784)
(7.257371701e-08 2.174433686e-19 -0.002158099628)
(5.206754996e-08 2.174661107e-19 -0.002158110199)
(3.143924319e-08 2.252118929e-19 -0.002158117373)
(1.094581918e-08 2.1526707e-19 -0.002158121035)
(2.082459331e-08 -1.48704494e-21 -0.002156980735)
(5.419702493e-08 -1.090421698e-19 -0.002156984112)
(8.532710026e-08 1.287057845e-20 -0.002156991325)
(1.168533486e-07 7.288001834e-20 -0.002157002018)
(1.473061801e-07 1.157469967e-19 -0.002157015957)
(1.763283351e-07 9.006256326e-20 -0.002157032941)
(2.038004593e-07 4.522948733e-20 -0.002157052815)
(2.296796322e-07 -1.936522977e-20 -0.002157075454)
(2.538787868e-07 -1.286619955e-19 -0.002157100708)
(2.762814031e-07 3.316253794e-20 -0.002157128407)
(2.968764839e-07 1.815297731e-19 -0.002157158424)
(3.156413971e-07 2.178933174e-19 -0.002157190635)
(3.325086294e-07 2.909279034e-19 -0.002157224876)
(3.475210299e-07 2.95893375e-19 -0.002157261038)
(3.606815566e-07 2.843330385e-19 -0.002157298989)
(3.719829175e-07 2.849988187e-19 -0.002157338584)
(3.81461055e-07 2.472616827e-19 -0.002157379705)
(3.891345004e-07 2.491122006e-19 -0.002157422192)
(3.950516459e-07 1.976085401e-19 -0.002157465933)
(3.992512211e-07 2.050859605e-19 -0.002157510763)
(4.017884107e-07 1.773582266e-19 -0.002157556566)
(4.027173044e-07 1.762521363e-19 -0.002157603174)
(4.02082604e-07 1.903753898e-19 -0.002157650458)
(3.999417518e-07 1.846778361e-19 -0.002157698241)
(3.963538565e-07 1.740003843e-19 -0.002157746392)
(3.913926427e-07 1.62127125e-19 -0.002157794737)
(3.851119428e-07 1.692711183e-19 -0.002157843132)
(3.775816839e-07 1.834602979e-19 -0.002157891398)
(3.688497878e-07 1.928317693e-19 -0.002157939379)
(3.58978597e-07 2.233168217e-19 -0.002157986899)
(3.480320682e-07 2.094778898e-19 -0.00215803379)
(3.360689037e-07 2.272335172e-19 -0.002158079883)
(3.231681472e-07 2.253045196e-19 -0.002158125)
(3.093761319e-07 2.293948696e-19 -0.002158168979)
(2.947584812e-07 2.371594651e-19 -0.002158211633)
(2.793606494e-07 2.371942761e-19 -0.002158252803)
(2.632490322e-07 2.486937523e-19 -0.002158292306)
(2.464686683e-07 2.400067404e-19 -0.002158329983)
(2.290811875e-07 2.413675199e-19 -0.002158365659)
(2.111299628e-07 2.417100631e-19 -0.002158399173)
(1.926628853e-07 2.53852155e-19 -0.002158430362)
(1.737328147e-07 2.474278909e-19 -0.002158459065)
(1.543807292e-07 2.50948276e-19 -0.002158485132)
(1.346592355e-07 2.458797124e-19 -0.00215850841)
(1.146049298e-07 2.495262524e-19 -0.002158528758)
(9.425995453e-08 2.592218887e-19 -0.002158546031)
(7.365244004e-08 2.579978849e-19 -0.002158560101)
(5.28236087e-08 2.663762897e-19 -0.002158570834)
(3.187952029e-08 2.648487756e-19 -0.002158578116)
(1.108340928e-08 2.660526397e-19 -0.002158581822)
(2.13039338e-08 -1.776030872e-19 -0.002157384609)
(5.54298291e-08 -5.513107652e-19 -0.002157388136)
(8.723449639e-08 -3.351262565e-19 -0.002157395675)
(1.194254145e-07 -3.647482764e-19 -0.002157406835)
(1.505045296e-07 -1.740381794e-19 -0.002157421385)
(1.801404498e-07 -8.679716711e-20 -0.00215743915)
(2.082451312e-07 -7.119999557e-20 -0.002157459964)
(2.346836843e-07 -2.275357237e-20 -0.002157483653)
(2.593291473e-07 -2.17440651e-20 -0.002157510024)
(2.821637354e-07 9.402972175e-20 -0.002157538945)
(3.031541657e-07 1.921438411e-19 -0.002157570277)
(3.222180849e-07 2.147959328e-19 -0.002157603845)
(3.393752622e-07 1.79260961e-19 -0.00215763952)
(3.546290797e-07 2.199992842e-19 -0.002157677173)
(3.679531385e-07 2.747168025e-19 -0.002157716631)
(3.79389809e-07 2.640115899e-19 -0.00215775778)
(3.889442067e-07 2.549011698e-19 -0.002157800457)
(3.966673022e-07 2.810982112e-19 -0.002157844536)
(4.025902921e-07 2.461065243e-19 -0.00215788986)
(4.06766964e-07 2.319938105e-19 -0.00215793629)
(4.092513478e-07 2.690711566e-19 -0.002157983673)
(4.10091722e-07 2.556606577e-19 -0.002158031859)
(4.093361292e-07 2.585582875e-19 -0.002158080689)
(4.070453684e-07 2.30023215e-19 -0.002158130008)
(4.032973712e-07 2.288663561e-19 -0.002158179654)
(3.981474223e-07 2.266311745e-19 -0.002158229473)
(3.916675024e-07 2.506819162e-19 -0.002158279288)
(3.839080533e-07 2.373307281e-19 -0.002158328946)
(3.749411854e-07 2.308268518e-19 -0.002158378257)
(3.648191809e-07 2.204782939e-19 -0.00215842707)
(3.536175242e-07 2.475516161e-19 -0.002158475194)
(3.413934421e-07 2.40940361e-19 -0.002158522472)
(3.282222986e-07 2.549650269e-19 -0.00215856872)
(3.14151022e-07 2.696196898e-19 -0.002158613768)
(2.992369947e-07 2.549843048e-19 -0.00215865744)
(2.835481132e-07 2.45892572e-19 -0.002158699561)
(2.671322169e-07 2.400389936e-19 -0.002158739962)
(2.500543266e-07 2.547365288e-19 -0.002158778465)
(2.323594855e-07 2.69187747e-19 -0.002158814914)
(2.141070539e-07 2.834886041e-19 -0.002158849127)
(1.95337422e-07 2.832852946e-19 -0.002158880958)
(1.76105667e-07 2.736366972e-19 -0.002158910235)
(1.564557808e-07 2.636359597e-19 -0.002158936813)
(1.364379954e-07 2.648372026e-19 -0.002158960534)
(1.1609113e-07 2.618151832e-19 -0.002158981261)
(9.545732118e-08 2.886058198e-19 -0.002158998849)
(7.456763248e-08 3.018723112e-19 -0.002159013168)
(5.346276874e-08 3.180440184e-19 -0.002159024087)
(3.224842461e-08 3.261776375e-19 -0.002159031489)
(1.119484878e-08 3.319316516e-19 -0.002159035254)
(2.169235209e-08 -4.675928903e-19 -0.002157777582)
(5.643365309e-08 -2.877116251e-19 -0.002157781263)
(8.880217691e-08 -2.226930799e-19 -0.002157789166)
(1.21574834e-07 -2.755947083e-19 -0.002157800889)
(1.532494341e-07 -2.402553042e-19 -0.002157816188)
(1.834578466e-07 -1.658158257e-19 -0.002157834857)
(2.120335609e-07 -1.756056107e-19 -0.002157856687)
(2.388594377e-07 -2.652155048e-22 -0.002157881474)
(2.63898834e-07 1.558018892e-19 -0.002157909079)
(2.870979098e-07 1.536028916e-19 -0.002157939344)
(3.083538501e-07 1.684600774e-19 -0.002157972078)
(3.276617495e-07 1.872090831e-19 -0.00215800713)
(3.450272935e-07 2.360967553e-19 -0.002158044365)
(3.604051233e-07 2.19067354e-19 -0.002158083598)
(3.738409953e-07 2.541926481e-19 -0.002158124701)
(3.853419932e-07 2.283179484e-19 -0.002158167514)
(3.949340739e-07 2.482251415e-19 -0.002158211882)
(4.026586736e-07 2.342079684e-19 -0.002158257663)
(4.085482672e-07 2.316073852e-19 -0.002158304687)
(4.126658974e-07 2.601911471e-19 -0.002158352823)
(4.150617966e-07 2.869165269e-19 -0.002158401889)
(4.157857895e-07 3.099744337e-19 -0.002158451748)
(4.148964909e-07 3.24071606e-19 -0.002158502217)
(4.12460456e-07 2.969037259e-19 -0.002158553155)
(4.08552229e-07 2.936405943e-19 -0.002158604381)
(4.032301802e-07 3.140954188e-19 -0.002158655743)
(3.965658073e-07 2.745945835e-19 -0.00215870706)
(3.88612181e-07 2.678616467e-19 -0.002158758166)
(3.794327429e-07 2.600329898e-19 -0.002158808888)
(3.691016128e-07 2.552323979e-19 -0.002158859048)
(3.576778311e-07 2.503789647e-19 -0.002158908478)
(3.452422681e-07 2.14862381e-19 -0.002158956994)
(3.318453725e-07 2.240258557e-19 -0.002159004433)
(3.175557441e-07 2.178061875e-19 -0.002159050601)
(3.02422017e-07 2.16294786e-19 -0.002159095341)
(2.865135822e-07 2.163320574e-19 -0.002159138462)
(2.698784074e-07 2.400137807e-19 -0.002159179802)
(2.525809483e-07 2.673334214e-19 -0.002159219183)
(2.346680844e-07 2.953702021e-19 -0.002159256439)
(2.161935262e-07 3.098847128e-19 -0.002159291401)
(1.97208913e-07 3.068933532e-19 -0.002159323906)
(1.777587312e-07 3.039963681e-19 -0.002159353797)
(1.578994598e-07 3.025910223e-19 -0.002159380915)
(1.37670568e-07 3.019802366e-19 -0.002159405115)
(1.171195644e-07 3.022188998e-19 -0.002159426246)
(9.628337285e-08 2.980047853e-19 -0.002159444173)
(7.519942447e-08 3.10054386e-19 -0.002159458758)
(5.390590938e-08 3.185163749e-19 -0.002159469879)
(3.251088251e-08 3.261049171e-19 -0.002159477409)
(1.12813473e-08 3.247559841e-19 -0.00215948124)
(2.197478456e-08 2.772016224e-19 -0.002158160519)
(5.716591957e-08 7.935836592e-19 -0.002158164389)
(8.997323924e-08 1.882710812e-19 -0.002158172724)
(1.231977228e-07 -5.608784096e-21 -0.002158185077)
(1.552631486e-07 -1.614576081e-19 -0.002158201167)
(1.857849239e-07 -2.717493712e-20 -0.002158220752)
(2.146307683e-07 2.537522963e-20 -0.002158243631)
(2.417480266e-07 8.370512209e-20 -0.002158269638)
(2.670530147e-07 2.210634771e-19 -0.002158298587)
(2.904167513e-07 1.961195709e-19 -0.002158330266)
(3.118148481e-07 1.956922382e-19 -0.002158364505)
(3.312518354e-07 2.11335962e-19 -0.00215840116)
(3.486683922e-07 2.5717326e-19 -0.002158440034)
(3.640938225e-07 2.224647657e-19 -0.002158480972)
(3.775426468e-07 2.096627589e-19 -0.002158523821)
(3.890083085e-07 2.133638683e-19 -0.002158568392)
(3.985464461e-07 2.181707094e-19 -0.002158614553)
(4.061820676e-07 2.09941947e-19 -0.00215866211)
(4.119777248e-07 2.36230353e-19 -0.002158710931)
(4.159800765e-07 2.17385863e-19 -0.002158760835)
(4.182449426e-07 1.925018468e-19 -0.002158811672)
(4.188239735e-07 2.244797464e-19 -0.002158863259)
(4.177827029e-07 2.508624597e-19 -0.002158915444)
(4.151979344e-07 2.792094052e-19 -0.002158968047)
(4.111314937e-07 2.765266231e-19 -0.002159020916)
(4.056562347e-07 3.042459306e-19 -0.002159073859)
(3.988283599e-07 3.130216575e-19 -0.002159126725)
(3.90721531e-07 3.064625049e-19 -0.002159179315)
(3.813929304e-07 3.095617879e-19 -0.002159231477)
(3.709200628e-07 3.185158035e-19 -0.002159283016)
(3.593635068e-07 3.083112236e-19 -0.002159333772)
(3.468002571e-07 2.973043971e-19 -0.002159383557)
(3.332805195e-07 3.026695502e-19 -0.0021594322)
(3.188657215e-07 3.138881698e-19 -0.00215947952)
(3.036225203e-07 3.320335323e-19 -0.00215952534)
(2.876008902e-07 3.387818526e-19 -0.002159569488)
(2.70867562e-07 3.469915565e-19 -0.002159611782)
(2.534692289e-07 3.497927234e-19 -0.002159652061)
(2.354674222e-07 3.590443211e-19 -0.00215969014)
(2.169034846e-07 3.512308599e-19 -0.002159725869)
(1.978344281e-07 3.563619207e-19 -0.002159759066)
(1.783058062e-07 3.509918103e-19 -0.002159789586)
(1.583701082e-07 3.492520242e-19 -0.002159817262)
(1.380679187e-07 3.4531747e-19 -0.002159841952)
(1.174456383e-07 3.433848715e-19 -0.002159863501)
(9.654232919e-08 3.313975626e-19 -0.002159881776)
(7.539516132e-08 3.27342763e-19 -0.002159896636)
(5.404371538e-08 3.113000267e-19 -0.002159907959)
(3.259592512e-08 3.05859381e-19 -0.002159915619)
(1.13120641e-08 2.949818468e-19 -0.002159919502)
(2.210749898e-08 1.030001084e-18 -0.002158534516)
(5.749628666e-08 5.712757068e-19 -0.002158538566)
(9.046177597e-08 4.732764306e-19 -0.002158547329)
(1.238152418e-07 5.48284158e-19 -0.002158560296)
(1.559746646e-07 4.054493677e-19 -0.00215857717)
(1.865864615e-07 3.583391992e-19 -0.00215859773)
(2.155511455e-07 3.988384429e-19 -0.002158621776)
(2.427416232e-07 2.464314696e-19 -0.002158649088)
(2.680186706e-07 2.846258683e-19 -0.002158679422)
(2.913449001e-07 2.178496821e-19 -0.002158712596)
(3.127169716e-07 2.361103041e-19 -0.002158748448)
(3.320622966e-07 2.584117389e-19 -0.002158786767)
(3.49374368e-07 1.631706695e-19 -0.002158827368)
(3.646792189e-07 1.310740553e-19 -0.002158870097)
(3.779556516e-07 1.39362857e-19 -0.00215891474)
(3.892616647e-07 1.910170181e-19 -0.002158961153)
(3.98615429e-07 2.442369572e-19 -0.002159009149)
(4.06074168e-07 2.576143193e-19 -0.002159058558)
(4.11691866e-07 2.341228452e-19 -0.002159109216)
(4.155116586e-07 2.078230655e-19 -0.002159160941)
(4.175912596e-07 1.990966374e-19 -0.002159213571)
(4.179913242e-07 1.769656609e-19 -0.00215926692)
(4.16786305e-07 1.928724239e-19 -0.002159320832)
(4.14050323e-07 2.422257006e-19 -0.002159375122)
(4.098475771e-07 2.696904821e-19 -0.002159429626)
(4.042496001e-07 2.85641763e-19 -0.002159484162)
(3.973156035e-07 3.197424914e-19 -0.002159538557)
(3.891112821e-07 3.197319856e-19 -0.002159592634)
(3.79715604e-07 3.118572486e-19 -0.002159646214)
(3.691874795e-07 3.433789399e-19 -0.002159699126)
(3.576079743e-07 3.713324071e-19 -0.002159751183)
(3.450297509e-07 4.026985584e-19 -0.002159802221)
(3.315220546e-07 3.964132297e-19 -0.002159852044)
(3.171336164e-07 4.204092422e-19 -0.002159900493)
(3.019337951e-07 4.339649839e-19 -0.002159947374)
(2.859705703e-07 4.393828309e-19 -0.002159992525)
(2.693079294e-07 4.287624968e-19 -0.00216003576)
(2.519930324e-07 3.857900734e-19 -0.002160076915)
(2.340822233e-07 3.65932461e-19 -0.002160115813)
(2.156204055e-07 3.559745912e-19 -0.002160152289)
(1.96655676e-07 3.602032165e-19 -0.002160186177)
(1.772440503e-07 3.696276736e-19 -0.002160217314)
(1.574243403e-07 3.717859559e-19 -0.002160245548)
(1.372446257e-07 3.682013793e-19 -0.002160270721)
(1.167438309e-07 3.595441326e-19 -0.002160292691)
(9.596637654e-08 3.531986893e-19 -0.002160311308)
(7.49447201e-08 3.417636663e-19 -0.002160326446)
(5.37193733e-08 3.429490805e-19 -0.002160337966)
(3.239740674e-08 3.39979682e-19 -0.002160345751)
(1.123885584e-08 3.345362052e-19 -0.002160349677)
(2.197846222e-08 -1.963780449e-19 -0.002158900598)
(5.715253037e-08 -6.229024355e-19 -0.002158904814)
(8.990353098e-08 1.204770087e-19 -0.002158914014)
(1.230280019e-07 5.800534487e-19 -0.002158927649)
(1.549756305e-07 8.020398105e-19 -0.002158945416)
(1.853966029e-07 5.882299763e-19 -0.00215896706)
(2.141076118e-07 4.857518956e-19 -0.002158992323)
(2.409636351e-07 3.809720491e-19 -0.002159020946)
(2.659227926e-07 3.40709357e-19 -0.002159052728)
(2.889646971e-07 3.154803523e-19 -0.002159087489)
(3.099969579e-07 2.723081606e-19 -0.002159124993)
(3.289833751e-07 2.053638886e-19 -0.002159165024)
(3.459582329e-07 1.538540973e-19 -0.00215920742)
(3.608870177e-07 1.327732521e-19 -0.002159251957)
(3.738149938e-07 1.671113168e-19 -0.002159298454)
(3.847784528e-07 1.567480307e-19 -0.002159346733)
(3.937922848e-07 1.985084167e-19 -0.002159396587)
(4.009297993e-07 2.426605436e-19 -0.002159447865)
(4.062355185e-07 2.536894645e-19 -0.002159500349)
(4.097710005e-07 2.974248258e-19 -0.002159553892)
(4.115883522e-07 2.997624891e-19 -0.002159608284)
(4.117626705e-07 2.733736476e-19 -0.002159663376)
(4.103698894e-07 2.857500836e-19 -0.002159718966)
(4.074786525e-07 3.018175418e-19 -0.002159774901)
(4.031621524e-07 3.180360917e-19 -0.002159830979)
(3.974823223e-07 3.335486565e-19 -0.002159887047)
(3.905132524e-07 3.478561545e-19 -0.0021599429)
(3.823156128e-07 3.548706636e-19 -0.002159998387)
(3.729668897e-07 3.559309392e-19 -0.002160053309)
(3.625288595e-07 3.68077344e-19 -0.002160107507)
(3.510773508e-07 4.135866492e-19 -0.00216016079)
(3.386633394e-07 4.464816316e-19 -0.00216021299)
(3.253505308e-07 4.462943483e-19 -0.002160263922)
(3.111966795e-07 4.52341746e-19 -0.002160313413)
(2.962515742e-07 4.507184429e-19 -0.002160361286)
(2.805795456e-07 4.388972786e-19 -0.002160407362)
(2.642242763e-07 4.518345451e-19 -0.002160451475)
(2.472447101e-07 4.576066059e-19 -0.00216049344)
(2.29678496e-07 4.505948898e-19 -0.002160533099)
(2.11579855e-07 4.381448097e-19 -0.002160570269)
(1.92990809e-07 4.390798783e-19 -0.0021606048)
(1.739617865e-07 4.364110569e-19 -0.002160636517)
(1.545303561e-07 4.333031132e-19 -0.002160665272)
(1.347408685e-07 4.309462593e-19 -0.002160690902)
(1.146320307e-07 4.213619931e-19 -0.002160713265)
(9.424563137e-08 4.193483778e-19 -0.00216073221)
(7.36125986e-08 4.106522134e-19 -0.002160747607)
(5.27695574e-08 4.107228475e-19 -0.002160759315)
(3.182288905e-08 4.120645927e-19 -0.002160767216)
(1.103530961e-08 4.131191018e-19 -0.002160771182)
(2.152359397e-08 -6.197994512e-19 -0.002159260319)
(5.596634233e-08 -5.296253925e-19 -0.002159264732)
(8.80458362e-08 -3.505459419e-19 -0.002159274436)
(1.204987189e-07 -2.502414989e-19 -0.00215928881)
(1.517564944e-07 1.86724796e-19 -0.002159307506)
(1.814230858e-07 1.520029902e-19 -0.002159330224)
(2.093500875e-07 1.7778087e-19 -0.002159356683)
(2.354784573e-07 1.883361188e-19 -0.002159386673)
(2.597608216e-07 1.833303337e-19 -0.00215941998)
(2.820786071e-07 1.952730772e-19 -0.00215945634)
(3.023711402e-07 1.098349558e-19 -0.002159495504)
(3.206805218e-07 1.667289164e-19 -0.002159537295)
(3.369689552e-07 2.906091942e-19 -0.002159581475)
(3.512356299e-07 3.131041181e-19 -0.002159627825)
(3.635389628e-07 2.861511117e-19 -0.002159676171)
(3.738843103e-07 2.498623168e-19 -0.002159726272)
(3.823464757e-07 2.142368861e-19 -0.002159777962)
(3.889632429e-07 2.242374586e-19 -0.002159831033)
(3.938066508e-07 2.818302697e-19 -0.002159885298)
(3.969299053e-07 3.124517406e-19 -0.002159940565)
(3.983968045e-07 3.338301553e-19 -0.002159996645)
(3.982884149e-07 3.641985152e-19 -0.002160053363)
(3.966787811e-07 3.503749647e-19 -0.002160110529)
(3.936388805e-07 3.546455677e-19 -0.002160167969)
(3.892402678e-07 3.658580495e-19 -0.002160225498)
(3.835490921e-07 3.825793715e-19 -0.00216028294)
(3.766317532e-07 4.054795957e-19 -0.002160340116)
(3.685664154e-07 4.379204603e-19 -0.002160396846)
(3.594120075e-07 4.906084343e-19 -0.00216045296)
(3.492470932e-07 4.849926143e-19 -0.002160508274)
(3.381231029e-07 5.071328307e-19 -0.002160562626)
(3.261055597e-07 5.325051269e-19 -0.002160615822)
(3.132387786e-07 5.436156592e-19 -0.002160667706)
(2.995872885e-07 5.313846519e-19 -0.002160718083)
(2.851935101e-07 5.276403184e-19 -0.002160766798)
(2.701150778e-07 5.293303311e-19 -0.00216081366)
(2.543926956e-07 5.331201109e-19 -0.002160858511)
(2.380755911e-07 5.401036065e-19 -0.002160901168)
(2.211988422e-07 5.312977007e-19 -0.002160941467)
(2.038120053e-07 5.128514773e-19 -0.002160979237)
(1.859584664e-07 4.881040676e-19 -0.002161014313)
(1.676725223e-07 4.843732816e-19 -0.002161046532)
(1.489955484e-07 4.77042954e-19 -0.002161075733)
(1.299601742e-07 4.730035782e-19 -0.002161101762)
(1.106080241e-07 4.633320599e-19 -0.002161124465)
(9.097287806e-08 4.592431593e-19 -0.0021611437)
(7.10849032e-08 4.561422333e-19 -0.002161159319)
(5.097709969e-08 4.615324784e-19 -0.002161171193)
(3.075264111e-08 4.69180267e-19 -0.002161179189)
(1.067172387e-08 4.812363615e-19 -0.002161183187)
(2.067418997e-08 -6.958323238e-20 -0.002159615811)
(5.374019038e-08 -2.047338447e-19 -0.002159620396)
(8.450507729e-08 -3.10668401e-19 -0.002159630587)