/*--------------------------------*- C++ -*----------------------------------*\
  =========                 |
  \\      /  F ield         | OpenFOAM: The Open Source CFD Toolbox
   \\    /   O peration     | Website:  https://openfoam.org
    \\  /    A nd           | Version:  7
     \\/     M anipulation  |
\*---------------------------------------------------------------------------*/
FoamFile
{
    version     2.0;
    format      ascii;
    class       volTensorField;
    location    "0.0027";
    object      grad(U);
}
// * * * * * * * * * * * * * * * * * * * * * * * * * * * * * * * * * * * * * //

dimensions      [0 0 -1 0 0 0 0];

internalField   nonuniform List<tensor> 
1166
(
(0.0009414081454 2.447340607e-15 -0.0001051688031 -6.156216368e-15 0.001535672116 0 -8.614315285e-06 -7.362536853e-16 0.01602047216)
(0.001249777886 3.528460413e-15 -0.0002432691319 -4.226692924e-15 0.001345354096 0 -2.243185735e-05 -2.049005005e-15 0.01601780239)
(0.001223864622 -9.5685067e-16 -0.0003924737938 -3.964521308e-15 0.001285789993 0 -3.519190034e-05 -1.745654986e-15 0.01601220661)
(0.001238515092 -3.700618063e-15 -0.0005399473681 -1.610356016e-15 0.001272265302 0 -4.774712554e-05 -1.90827984e-15 0.01600392449)
(0.001226719761 -3.807931687e-17 -0.0006836504405 -6.116222018e-16 0.001263975113 5.035587012e-14 -5.935426668e-05 -2.274364748e-15 0.01599311166)
(0.001205232452 2.430440291e-15 -0.0008230982994 -9.489069292e-16 0.001255597478 0 -6.978686064e-05 -1.226249874e-15 0.01597995965)
(0.001178258198 2.329177492e-15 -0.000958112821 -1.147240858e-15 0.001246229932 0 -7.909106084e-05 -4.277215988e-16 0.01596467278)
(0.001146418939 5.182763763e-16 -0.001088527689 -1.296920271e-15 0.001235708378 0 -8.726452474e-05 2.477493309e-16 0.01594748037)
(0.001109549726 -9.696751134e-16 -0.001214204816 -1.02927754e-15 0.001223912566 0 -9.430652167e-05 3.88002085e-16 0.01592861456)
(0.00106782351 -6.667634437e-16 -0.001335184253 -8.498270413e-16 0.001210791708 0 -0.0001003513074 5.290421962e-16 0.01590833757)
(0.001021499954 -4.743162344e-16 -0.001451473313 -7.251573689e-16 0.001196346699 0 -0.0001054838699 6.396167858e-16 0.01588684645)
(0.0009707930355 -2.620711267e-16 -0.001563088823 -6.398029849e-16 0.001180606206 0 -0.0001097936097 6.691585832e-16 0.01586435858)
(0.0009157730932 1.719312301e-16 -0.001670040982 -5.830361658e-16 0.001163608796 -2.26361719e-14 -0.0001133548705 6.44803246e-16 0.01584101665)
(0.0008564640174 5.733968776e-16 -0.001772198003 -5.760297189e-16 0.001145385586 0 -0.0001161147628 5.099461497e-16 0.01581697657)
(0.0007927506145 7.080612736e-16 -0.001869518963 -5.840556534e-16 0.001125968871 0 -0.0001180883867 3.474092009e-16 0.01579237988)
(0.0007249648555 7.817905413e-16 -0.001962043732 -5.9071792e-16 0.001105370907 0 -0.0001193549871 1.832743961e-16 0.0157673843)
(0.000653529689 8.48736698e-16 -0.00204975946 -6.078369969e-16 0.001083654653 0 -0.0001199171389 2.334113481e-16 0.01574215952)
(0.0005782255228 9.154136835e-16 -0.002132708433 -6.162999789e-16 0.001060868945 0 -0.0001198093627 2.83652494e-16 0.01571683511)
(0.0009761687867 1.976882862e-15 -9.822575625e-05 -5.634133399e-15 0.001592651357 0 -7.390873615e-06 2.475174531e-16 0.01578966281)
(0.001295305329 2.418413331e-15 -0.0002274337782 -3.633125038e-15 0.001395122478 0 -1.922487494e-05 7.292121317e-16 0.01578720679)
(0.001266997518 2.425482591e-15 -0.0003670021203 -3.05623944e-15 0.001332919034 -8.708422084e-14 -3.00515269e-05 1.402600601e-15 0.01578205829)
(0.001280036269 2.692764064e-15 -0.0005048660419 -2.935196154e-15 0.00131819679 0 -4.063546901e-05 -2.424225441e-16 0.01577447645)
(0.001265164133 -6.013585437e-16 -0.0006393032652 -2.896606851e-15 0.001308678886 5.114009338e-14 -5.041386816e-05 -1.440144827e-15 0.01576467066)
(0.001240329143 -3.187700577e-15 -0.0007699650772 -1.777696569e-15 0.00129891373 0 -5.923399214e-05 -9.992024538e-16 0.01575286013)
(0.001210117199 -2.85573162e-15 -0.0008967738919 -1.092002765e-15 0.001288111461 0 -6.718725524e-05 -6.775797227e-16 0.01573927419)
(0.001175035706 -1.056119001e-15 -0.001019625373 -6.005406722e-16 0.001276131973 0 -7.42913254e-05 -4.211801572e-16 0.01572411662)
(0.001135023799 2.739876812e-16 -0.001138418649 -6.02067351e-16 0.00126286538 0 -8.055199627e-05 -6.392957112e-16 0.01570759288)
(0.001090290835 -1.030049224e-16 -0.001253111526 -5.40263174e-16 0.001248288192 0 -8.600783106e-05 -4.595952608e-16 0.01568989783)
(0.001040963517 -1.003162201e-18 -0.001363654203 -4.741098896e-16 0.001232406256 0 -9.068179245e-05 -3.466553821e-16 0.01567118562)
(0.0009871599003 2.598882701e-16 -0.001469965902 -4.569138049e-16 0.001215240736 0 -9.456257581e-05 -3.03616412e-16 0.01565161761)
(0.0009288595898 5.526698757e-16 -0.001572003107 -4.46191791e-16 0.001196820861 0 -9.766015439e-05 -2.738460041e-16 0.01563132424)
(0.0008662256353 7.682880416e-16 -0.001669751824 -4.67466223e-16 0.001177163432 0 -0.0001000050749 -1.946087722e-16 0.01561045138)
(0.0007995267365 7.024349278e-16 -0.001763251495 -4.832139497e-16 0.001156314107 0 -0.0001016483724 -1.058848077e-16 0.01558915096)
(0.0007288163492 5.528328848e-16 -0.00185259043 -4.917356862e-16 0.001134316373 0 -0.0001026747548 -1.593326533e-17 0.01556756529)
(0.0006541369686 3.875163627e-16 -0.001937685646 -4.91468333e-16 0.001111208547 0 -0.0001030099861 8.138933783e-17 0.01554582351)
(0.0005754798551 2.162715255e-16 -0.002018521065 -4.855311702e-16 0.001087027264 0 -0.0001026317109 1.871301026e-16 0.01552404702)
(0.0004925921486 7.089466387e-17 -0.002095153268 -4.631510852e-16 0.001061801341 -9.164574131e-15 -0.0001015867324 3.05303078e-16 0.01550235357)
(0.0004055000826 -5.736992957e-17 -0.002167528963 -4.451011628e-16 0.001035539113 0 -9.983692849e-05 2.573416574e-16 0.01548085492)
(0.0003147461042 -1.819613644e-16 -0.002235686201 -4.245112426e-16 0.001008269614 0 -9.742768232e-05 2.243343999e-16 0.01545967685)
(0.0002203430752 -2.774321178e-16 -0.002299678598 -3.972094756e-16 0.0009800433444 0 -9.442319093e-05 2.016001339e-16 0.01543892439)
(0.0001214040807 -3.600820143e-16 -0.002359322999 -3.736762191e-16 0.0009508833842 0 -9.071117791e-05 2.627073166e-16 0.01541867253)
(1.778146106e-05 -4.589272493e-16 -0.002414455483 -3.45481344e-16 0.0009207710871 0 -8.627384657e-05 2.572136024e-16 0.0153989727)
(-8.925028383e-05 1.654585597e-16 -0.0024651023 -3.186600653e-16 0.0008897224708 0 -8.129454402e-05 2.542310003e-16 0.0153799356)
(-0.0001989094324 7.787941211e-16 -0.002511268463 -3.362750709e-16 0.0008578055132 0 -7.595002174e-05 2.540660982e-16 0.01536166379)
(-0.0003115909267 1.046377651e-15 -0.002552775007 -3.461509162e-16 0.0008250767972 0 -7.031863931e-05 2.465378521e-16 0.01534423465)
(-0.0004265232147 1.33818058e-15 -0.002589368264 -3.755203632e-16 0.0007915667635 0 -6.451784444e-05 1.726707442e-16 0.0153276935)
(-0.0005414408869 9.873098795e-16 -0.00262088687 -4.009902723e-16 0.0007573626346 0 -5.880690778e-05 8.663189983e-17 0.01531212851)
(-0.0006555022555 6.526620637e-16 -0.002647023221 -4.056641215e-16 0.0007225999146 0 -5.335150294e-05 -1.698665164e-17 0.01529758099)
(-0.000769321498 6.327034013e-16 -0.002667173855 -4.125932966e-16 0.0006873805351 0 -4.814779943e-05 -1.320032547e-16 0.01528406714)
(-0.0008831289251 6.165196145e-16 -0.002680527016 -4.179870938e-16 0.0006517786008 0 -4.312105977e-05 -1.510225759e-16 0.01527157315)
(-0.0009956021035 6.125008498e-16 -0.002686370141 -4.218634853e-16 0.0006158623654 0 -3.842966312e-05 -1.320606454e-16 0.01526010046)
(-0.001104959088 6.195720801e-16 -0.002683995029 -4.251617521e-16 0.0005797454767 0 -3.430461993e-05 -7.31515278e-17 0.015249668)
(-0.001211657102 6.375289685e-16 -0.002672285041 -4.297325644e-16 0.000543549915 0 -3.065778973e-05 -6.788458231e-17 0.01524024066)
(-0.001317846603 6.795927596e-16 -0.0026497445 -4.355591112e-16 0.000507342309 0 -2.719397858e-05 -1.145401705e-16 0.01523174735)
(-0.001424004732 4.589786649e-16 -0.002614859426 -4.398526699e-16 0.0004711366024 0 -2.381087954e-05 -1.290207869e-16 0.01522411867)
(-0.001528315368 2.459904305e-16 -0.002566335139 -4.342748025e-16 0.0004349701479 0 -2.074380411e-05 -1.570249676e-16 0.0152173368)
(-0.001630408238 3.096606146e-16 -0.002502605491 -4.336231249e-16 0.0003989170982 0 -1.801605639e-05 -1.548218764e-16 0.01521135941)
(-0.001732107359 3.703631702e-16 -0.00242167432 -4.295395573e-16 0.0003630163793 0 -1.537541727e-05 -1.593894943e-16 0.01520610707)
(-0.001833787262 4.306871079e-16 -0.002321568074 -4.294235848e-16 0.0003272671777 0 -1.278931215e-05 -1.702553085e-16 0.01520151297)
(-0.001933664583 4.925149358e-16 -0.002200475259 -4.304871759e-16 0.0002916905552 0 -1.04920677e-05 -1.877618616e-16 0.01519755181)
(-0.002031319068 5.567601416e-16 -0.0020563409 -4.317919468e-16 0.0002563397001 0 -8.518860548e-06 -2.109428724e-16 0.01519418168)
(-0.002128308986 6.293780114e-16 -0.001886734659 -4.347352731e-16 0.0002212413892 0 -6.658383862e-06 -2.033366992e-16 0.01519132955)
(-0.002224770541 4.643640095e-16 -0.001689287988 -4.383840662e-16 0.0001863938156 0 -4.926672544e-06 -1.999489794e-16 0.0151889496)
(-0.002319686586 3.028270005e-16 -0.001461772331 -4.356440614e-16 0.0001518159727 0 -3.540277446e-06 -1.436680758e-16 0.01518702929)
(-0.002413559827 1.483510843e-16 -0.001201620065 -4.340179462e-16 0.0001175324739 0 -2.407462028e-06 -1.404231501e-16 0.01518552995)
(-0.002500163928 1.127613787e-17 -0.0009059566143 -4.28012013e-16 8.354454948e-05 0 -1.339199495e-06 -1.428519895e-16 0.01518440206)
(-0.002555313382 -6.831950324e-17 -0.0005720950293 -4.233051665e-16 5.003136381e-05 0 -5.293094608e-07 -1.446438764e-16 0.0151836491)
(-0.002721842034 -1.007884158e-16 -0.0001972281041 -4.154899682e-16 1.757845525e-05 0 -5.248797004e-08 -1.229493327e-16 0.01518327515)
(0.001004782066 -1.173150417e-16 -9.203342562e-05 -2.689634475e-15 0.001639746543 0 -6.142990598e-06 -4.551242882e-17 0.01556937033)
(0.001332689664 -8.47369898e-16 -0.0002133499128 -8.053450562e-16 0.00143615391 0 -1.596000069e-05 -1.142851651e-16 0.0155671982)
(0.00130242367 3.768055968e-15 -0.000344533097 2.42908912e-17 0.001371692733 0 -2.494115973e-05 -9.704334916e-17 0.01556266606)
(0.001314294692 6.757370143e-15 -0.0004742104512 -2.124689553e-15 0.001355984358 0 -3.377228122e-05 3.157551751e-17 0.01555603708)
(0.001297183661 2.31586511e-15 -0.0006008796805 -2.948057363e-15 0.001345495897 0 -4.200231756e-05 1.817688756e-16 0.01554750873)
(0.001270001406 -5.524418861e-16 -0.0007243163107 -2.288061309e-15 0.001334681932 0 -4.955298055e-05 -5.009144232e-16 0.01553728189)
(0.001237496932 3.933299433e-18 -0.0008443943052 -1.911764782e-15 0.001322825982 0 -5.643919771e-05 -1.125158218e-15 0.01552555981)
(0.001199985673 4.374845391e-16 -0.0009609584576 -1.703566241e-15 0.001309780344 3.387285108e-14 -6.261807698e-05 -1.793301783e-15 0.01551249181)
(0.001157397006 -8.67660133e-16 -0.001073919515 -1.579250314e-15 0.001295423271 0 -6.809502065e-05 -1.58338587e-15 0.01549823601)
(0.001109969589 -1.856742089e-15 -0.001183183375 -1.214681197e-15 0.001279729434 0 -7.284200205e-05 -1.570024472e-15 0.01548294392)
(0.001057756583 -1.112920789e-15 -0.001288697298 -9.790367598e-16 0.001262704796 0 -7.685882475e-05 -1.683053997e-15 0.01546675746)
(0.001000920427 -5.64488523e-16 -0.001390435322 -8.406770004e-16 0.001244358635 0 -8.016349121e-05 -1.47622349e-15 0.01544982182)
(0.0009397054847 -3.060151882e-16 -0.001488409236 -7.552343407e-16 0.001224729077 0 -8.278482946e-05 -1.373382958e-15 0.01543228628)
(0.0008743235326 -1.73293017e-16 -0.001582644135 -6.917732616e-16 0.0012038588 0 -8.475084931e-05 -1.041782179e-15 0.01541429405)
(0.000804926343 -1.033378323e-16 -0.001673150454 -6.387400824e-16 0.001181800457 0 -8.606328687e-05 -7.982677196e-16 0.01539597709)
(0.000731265182 -8.889599475e-17 -0.001759933105 -5.992725387e-16 0.00115859986 0 -8.671739692e-05 -6.238833617e-16 0.01537745137)
(0.00065327738 -1.163907498e-16 -0.001842947179 -5.642251695e-16 0.00113426856 0 -8.667601929e-05 -5.012848963e-16 0.01535880963)
(0.0005712971435 -1.720155353e-16 -0.001922243602 -5.281466187e-16 0.001108838589 0 -8.596894527e-05 -4.177047593e-16 0.01534018731)
(0.0004850799861 -2.245084586e-16 -0.001997851573 -4.953592053e-16 0.001082352131 0 -8.460307296e-05 -3.656732948e-16 0.01532170154)
(0.0003946529264 -2.929874718e-16 -0.002069773106 -4.631122312e-16 0.001054813449 0 -8.260140633e-05 -3.392962585e-16 0.0153034395)
(0.0003006010008 -4.018077127e-16 -0.002138034279 -4.332888561e-16 0.00102626178 0 -8.00029751e-05 -3.347621984e-16 0.01528551269)
(0.0002022434153 -5.31809817e-16 -0.00220254164 -3.97026056e-16 0.0009967467755 0 -7.675034118e-05 -3.455591084e-16 0.01526799648)
(9.896792531e-05 -2.801908528e-16 -0.0022630486 -3.628145741e-16 0.0009662497709 0 -7.27228567e-05 -3.656349869e-16 0.01525095376)
(-7.930046957e-06 -2.869947347e-17 -0.002319607232 -3.467580871e-16 0.0009347748951 0 -6.812332305e-05 -3.824631832e-16 0.01523447743)
(-0.0001171644767 2.421284423e-16 -0.002372388123 -3.357586035e-16 0.0009023971835 8.28474241e-15 -6.326510029e-05 -3.999813397e-16 0.01521867664)
(-0.0002288169136 5.447744206e-16 -0.002421250106 -3.415120851e-16 0.0008691965267 0 -5.821404529e-05 -3.31783017e-16 0.01520363078)
(-0.000342906693 8.748311358e-16 -0.002465862331 -3.495667793e-16 0.0008352232564 0 -5.295747032e-05 -2.626092386e-16 0.01518938675)
(-0.00045784679 1.228146976e-15 -0.002506082981 -3.715898868e-16 0.000800538375 0 -4.774974542e-05 -1.244637668e-16 0.01517600151)
(-0.0005718377456 1.2737631e-15 -0.002541748024 -3.936606308e-16 0.0007652643775 -7.943024353e-15 -4.286722844e-05 1.373855197e-17 0.01516354198)
(-0.0006848775813 1.323368492e-15 -0.002572307072 -4.19682367e-16 0.0007295335646 0 -3.828515513e-05 4.072989162e-17 0.01515202421)
(-0.0007979629103 1.001675857e-15 -0.002596989124 -4.419787981e-16 0.0006934348947 0 -3.389262645e-05 7.159924864e-17 0.0151414321)
(-0.0009104421013 3.904684418e-16 -0.00261504968 -4.47339528e-16 0.0006570228079 0 -2.975471759e-05 1.013274628e-16 0.01513175036)
(-0.001020033216 1.459206934e-16 -0.002625898723 -4.39807758e-16 0.0006203959557 0 -2.616729543e-05 1.274916836e-16 0.01512301082)
(-0.001126525176 2.113076695e-16 -0.002628581235 -4.336726935e-16 0.0005836904098 0 -2.311946967e-05 1.591871666e-16 0.0151151868)
(-0.001232332881 2.673162334e-16 -0.00262163952 -4.307694322e-16 0.0005469857003 0 -2.025658353e-05 1.496042754e-16 0.01510819973)
(-0.001338549631 3.055312775e-16 -0.002603579812 -4.254015652e-16 0.0005102919861 0 -1.740824596e-05 1.465081757e-16 0.01510197048)
(-0.001443297501 3.341197054e-16 -0.002573197472 -4.241325157e-16 0.0004736329903 0 -1.482526332e-05 1.999076965e-16 0.01509648208)
(-0.001545528188 3.666562044e-16 -0.002529119662 -4.24111193e-16 0.0004370853819 0 -1.262780795e-05 2.210075327e-16 0.01509170544)
(-0.001647021679 4.05385537e-16 -0.00246945988 -4.22497678e-16 0.0004007009563 0 -1.05541885e-05 2.089094368e-16 0.01508755528)
(-0.001748740545 4.460887951e-16 -0.002392263857 -4.230385247e-16 0.0003644790913 0 -8.483858279e-06 2.021648316e-16 0.01508395662)
(-0.001848949097 4.869728355e-16 -0.002295813194 -4.23839728e-16 0.0003284315657 0 -6.652922951e-06 1.998868868e-16 0.01508088186)
(-0.001946655454 5.189596465e-16 -0.002178244131 -4.239431874e-16 0.000292612754 0 -5.180858136e-06 2.005272014e-16 0.01507829775)
(-0.002043412275 2.55842078e-16 -0.002037245382 -4.266518788e-16 0.0002570595065 0 -3.843498364e-06 2.030637024e-16 0.01507612764)
(-0.002139751637 -2.654388362e-17 -0.00187048676 -4.195970798e-16 0.0002217687792 0 -2.578506669e-06 2.01967774e-16 0.01507431259)
(-0.002234050544 -4.53022321e-17 -0.001675851547 -4.131713754e-16 0.0001867565249 0 -1.614669726e-06 2.345800041e-16 0.01507283675)
(-0.002327090714 -6.561294929e-17 -0.00145096344 -4.064002204e-16 0.000152064325 0 -9.232072043e-07 2.383313003e-16 0.01507166425)
(-0.002420409377 -9.606004311e-17 -0.00119312237 -3.999823489e-16 0.00011768158 0 -2.959866493e-07 2.443249199e-16 0.01507073681)
(-0.002505105159 -1.40540538e-16 -0.0008998335471 -3.931758107e-16 8.360389527e-05 0 9.511126584e-08 2.236813797e-16 0.01507004679)
(-0.002557717052 -1.654311374e-16 -0.0005684730837 -3.858336639e-16 5.004857934e-05 -7.999365707e-15 1.480771143e-07 2.334970084e-16 0.01506959833)
(-0.002722420798 -8.192171996e-17 -0.0001960336985 -3.791566023e-16 1.757594446e-05 0 1.345475126e-07 2.014551484e-16 0.01506935854)
(0.001027938511 2.30438494e-15 -8.678459363e-05 -6.217464e-15 0.001677834344 0 -5.063038029e-06 -9.566211906e-16 0.01536087102)
(0.001363033065 2.495351206e-15 -0.0002014652316 -4.120551275e-15 0.00146935158 0 -1.315600405e-05 -2.748303626e-15 0.01535901955)
(0.001331377906 1.869451233e-15 -0.000325625739 -3.281002069e-15 0.001403124395 0 -2.058699834e-05 -2.86867402e-15 0.01535516413)
(0.001342583254 1.730739281e-15 -0.0004484458979 -2.854225899e-15 0.001386712064 0 -2.794019676e-05 -8.691150649e-16 0.01534952267)
(0.001324072587 1.665898448e-15 -0.0005685931565 -2.60765069e-15 0.001375558604 0 -3.484815441e-05 3.950652311e-16 0.01534225393)
(0.001295239297 1.779636824e-15 -0.0006859050589 -2.434733749e-15 0.001364059676 0 -4.125162447e-05 4.710543514e-16 0.01533351286)
(0.001260737533 2.176024727e-15 -0.0008001980923 -2.35623531e-15 0.001351468738 0 -4.709730689e-05 5.135773162e-16 0.01532344269)
(0.001221047721 5.914483519e-16 -0.0009112852027 -2.364185877e-15 0.001337609275 0 -5.229917084e-05 5.786271734e-16 0.01531219088)
(0.001176136756 -5.994738146e-16 -0.001019134608 -1.980996163e-15 0.001322392337 0 -5.688681887e-05 6.428980836e-16 0.01529989755)
(0.001126192892 2.980057105e-16 -0.00112370011 -1.780306478e-15 0.001305780442 0 -6.085382381e-05 2.378526788e-16 0.01528670562)
(0.001071517949 -4.569274512e-16 -0.00122496797 -1.685392732e-15 0.001287789798 2.670548794e-14 -6.420611704e-05 -5.950994995e-17 0.0152727572)
(0.001012350042 -1.045611698e-15 -0.001322949296 -1.432129301e-15 0.00126845997 0 -6.696025189e-05 -1.955923967e-16 0.01525817962)
(0.0009487192907 -1.363413542e-15 -0.001417654772 -1.293763198e-15 0.001247839826 2.371030898e-14 -6.911792672e-05 -2.524275283e-16 0.01524311356)
(0.0008806751036 -1.757214213e-15 -0.001509059487 -1.066217904e-15 0.001225960287 0 -7.064978212e-05 -2.891970853e-16 0.01522767759)
(0.0008083424736 -1.168741868e-15 -0.001597143253 -9.176556046e-16 0.001202863382 0 -7.15235864e-05 -3.064463261e-16 0.01521198367)
(0.0007315831356 -8.028757121e-16 -0.001681872259 -8.114738481e-16 0.001178586513 0 -7.168847329e-05 -3.195517234e-16 0.01519614054)
(0.0006505938885 -5.720149979e-16 -0.001763313262 -7.321822583e-16 0.001153147224 0 -7.119930134e-05 -3.403075504e-16 0.0151802455)
(0.0005655596473 -4.269322251e-16 -0.001841616296 -6.740247115e-16 0.001126596242 0 -7.016710153e-05 -3.765756631e-16 0.01516442845)
(0.0004762028977 -3.082259675e-16 -0.001916670005 -6.253806648e-16 0.001098964081 -9.452247981e-15 -6.847128054e-05 -3.239757448e-16 0.01514879146)
(0.00038270893 -2.100831128e-16 -0.001988456199 -5.873431217e-16 0.001070266937 0 -6.612417296e-05 -3.943817517e-16 0.01513339685)
(0.0002852162832 -1.521951275e-16 -0.002057002667 -5.566464703e-16 0.001040547033 0 -6.318580562e-05 -4.81928135e-16 0.01511832797)
(0.0001829060976 -1.229286045e-16 -0.002122170685 -5.325811252e-16 0.001009828801 0 -5.958787668e-05 -5.882060635e-16 0.01510366104)
(7.623124189e-05 -1.675686507e-16 -0.002183914701 -5.103450809e-16 0.0009780890156 8.67374876e-15 -5.54234669e-05 -7.14932585e-16 0.01508946468)
(-3.26466854e-05 -2.705206937e-16 -0.002242366457 -4.855201174e-16 0.0009453857801 0 -5.095978263e-05 -7.019275217e-16 0.01507587344)
(-0.000143083037 -1.156477971e-16 -0.002297541659 -4.601278229e-16 0.0009118406034 8.413765904e-15 -4.637492773e-05 -7.040188826e-16 0.01506296379)
(-0.0002559698379 2.096584094e-17 -0.002349164733 -4.462148934e-16 0.0008775302688 0 -4.16551929e-05 -6.36909454e-16 0.01505078314)
(-0.0003705911347 -1.232709041e-16 -0.002396979826 -4.332335213e-16 0.0008424936955 8.215391218e-15 -3.691409185e-05 -5.699432699e-16 0.01503935895)
(-0.0004844680526 -2.385062285e-16 -0.002440889907 -4.131283841e-16 0.0008068312302 0 -3.246721901e-05 -3.642456054e-16 0.01502877945)
(-0.0005968273717 4.418106818e-17 -0.002480538432 -3.938831082e-16 0.0007706997565 0 -2.841716964e-05 -2.134921542e-16 0.01501906379)
(-0.0007090238931 3.202040917e-16 -0.002515162128 -3.949362636e-16 0.0007342068398 0 -2.458819229e-05 -4.951138682e-17 0.01501019516)
(-0.0008211504476 2.731780303e-16 -0.002543979989 -3.905682436e-16 0.0006974045214 -7.959042417e-15 -2.094497022e-05 1.214769081e-16 0.0150021459)
(-0.0009309327347 2.701219041e-16 -0.002566480758 -3.866435977e-16 0.000660372529 -1.583692176e-14 -1.781236266e-05 1.773068673e-16 0.01499494647)
(-0.001037437426 2.426675296e-16 -0.00258188811 -3.850492761e-16 0.0006232499458 0 -1.528363054e-05 1.399092023e-16 0.0149885908)
(-0.001142952332 4.766414992e-16 -0.002588799925 -3.818949174e-16 0.0005861315198 0 -1.296675439e-05 1.183185869e-16 0.01498299261)
(-0.001249070407 7.135082228e-16 -0.002585732786 -3.89613953e-16 0.0005490294115 0 -1.061525205e-05 1.17059895e-16 0.0149780679)
(-0.001354081857 3.349203115e-16 -0.002571558572 -3.957057895e-16 0.0005119578356 0 -8.47809955e-06 1.292298883e-16 0.01497379619)
(-0.001456495056 -4.194392127e-17 -0.002545072005 -3.877595251e-16 0.0004749919941 0 -6.755520865e-06 1.479906363e-16 0.01497016174)
(-0.001557910432 1.894884666e-16 -0.002504495737 -3.791448086e-16 0.0004381935139 0 -5.188999899e-06 1.777162634e-16 0.01496707815)
(-0.001659671137 4.42432044e-16 -0.002447909833 -3.812960408e-16 0.0004015636471 0 -3.59032027e-06 2.242374487e-16 0.0149644613)
(-0.001760162027 4.35369753e-16 -0.002373680034 -3.808272921e-16 0.0003651078576 0 -2.188616077e-06 2.835241901e-16 0.01496228004)
(-0.001857983984 4.431081182e-16 -0.002280101353 -3.825072152e-16 0.0003288805089 0 -1.164094837e-06 3.961521742e-16 0.01496050912)
(-0.001954650695 4.691663414e-16 -0.002164976847 -3.83935124e-16 0.0002929271508 0 -2.894260605e-07 4.869550576e-16 0.01495906923)
(-0.002051128719 5.416459121e-16 -0.002026022049 -3.841348475e-16 0.0002572435308 -7.89669428e-15 5.589558372e-07 5.555762446e-16 0.01495789007)
(-0.002145583028 3.733300592e-16 -0.001861227124 -3.879201433e-16 0.0002218394242 0 1.140311273e-06 5.587430554e-16 0.01495695378)
(-0.002237846156 1.749282967e-16 -0.001668374688 -3.846387899e-16 0.0001867634332 0 1.433522021e-06 5.310086401e-16 0.01495622763)
(-0.00233031519 2.191352595e-16 -0.001444877637 -3.81994182e-16 0.0001520250055 0 1.662835443e-06 4.839509187e-16 0.01495564762)
(-0.002421917216 2.66673511e-16 -0.001188366483 -3.802257546e-16 0.0001175996605 0 1.69727565e-06 4.485676942e-16 0.01495519661)
(-0.002503879722 9.515316364e-17 -0.0008964595455 -3.790875543e-16 8.352487991e-05 0 1.400792807e-06 4.22619481e-16 0.01495487487)
(-0.00255567548 1.225398767e-16 -0.0005662546927 -3.727524134e-16 4.99999973e-05 0 9.913540189e-07 3.990189224e-16 0.01495464516)
(-0.002719408148 1.713032768e-16 -0.0001951755534 -3.724942479e-16 1.755003239e-05 0 4.767977541e-07 3.81220517e-16 0.01495449898)
(0.001046804549 9.143102406e-15 -8.243002324e-05 -1.569656472e-14 0.0017088755 0 -4.186652898e-06 3.29698506e-16 0.01516412511)
(0.001387781224 4.864384467e-15 -0.0001915857191 -1.333062296e-14 0.00149640184 0 -1.087340649e-05 9.393754194e-16 0.01516253787)
(0.001355062026 -3.899219946e-15 -0.0003098641125 -7.9112997e-15 0.00142875193 0 -1.701348382e-05 1.506065871e-15 0.01515923888)
(0.001365796571 -4.771004606e-15 -0.000426887483 -3.851274018e-15 0.001411797759 0 -2.309278141e-05 2.109974593e-15 0.01515440834)
(0.001346136373 -2.247184272e-15 -0.0005414393158 -2.331123783e-15 0.001400133009 0 -2.878783602e-05 2.814867743e-15 0.0151481743)
(0.001315883911 -9.499569299e-16 -0.0006533677027 -1.686023673e-15 0.001388083563 0 -3.401142339e-05 2.619663742e-15 0.01514066053)
(0.001279640399 -3.759518016e-16 -0.0007626003958 -1.356791544e-15 0.00137488734 0 -3.878872042e-05 2.708938237e-15 0.01513197978)
(0.00123803929 -5.995515287e-17 -0.0008690305705 -1.159988109e-15 0.001360341742 0 -4.308215857e-05 3.114696981e-15 0.01512229197)
(0.00119127277 5.612339502e-16 -0.0009726129362 -1.040744155e-15 0.001344392585 0 -4.687565949e-05 2.825990945e-15 0.01511173045)
(0.001139494047 9.748613739e-16 -0.001073318357 -1.035703534e-15 0.001327026068 0 -5.015190615e-05 2.422426093e-15 0.01510040859)
(0.001082848404 6.428415495e-16 -0.001171087094 -1.026322092e-15 0.001308263958 0 -5.284745698e-05 2.365360452e-15 0.01508845982)
(0.001021478112 2.19519093e-16 -0.001265948348 -9.758373462e-16 0.001288133098 0 -5.498557413e-05 1.872970223e-15 0.0150759717)
(0.0009554269746 7.198946371e-17 -0.001357928791 -9.082745783e-16 0.001266674708 -2.407956422e-14 -5.657306686e-05 1.691416804e-15 0.0150630774)
(0.0008847503005 3.328353163e-17 -0.001446988355 -8.561854475e-16 0.001243915818 0 -5.755172404e-05 1.146805207e-15 0.01504986315)
(0.0008094823088 1.350249594e-17 -0.001533146322 -8.060804395e-16 0.001219895552 0 -5.790932087e-05 7.982980432e-16 0.01503645675)
(0.0007297557645 5.306374225e-17 -0.001616391924 -7.623030728e-16 0.001194639725 0 -5.760667984e-05 5.67876735e-16 0.01502297366)
(0.0006462392053 1.391647507e-16 -0.001696833833 -7.261766394e-16 0.00116819393 0 -5.672772263e-05 4.115399915e-16 0.01500952521)
(0.0005584496772 -2.623729999e-16 -0.00177459622 -7.013937274e-16 0.001140642695 0 -5.535393484e-05 3.024528813e-16 0.01499619693)
(0.0004657098308 -1.270084575e-16 -0.001849445004 -6.374637196e-16 0.0011119712 0 -5.327769912e-05 2.107911946e-16 0.01498304041)
(0.0003688762034 4.736564631e-16 -0.001921343139 -6.284858195e-16 0.001082191489 0 -5.050904215e-05 4.194294296e-17 0.01497014267)
(0.0002681230923 5.58581574e-16 -0.001990422993 -6.211766809e-16 0.001051367837 0 -4.721710621e-05 -1.047165426e-16 0.01495758713)
(0.0001629571105 6.457516249e-16 -0.00205656301 -6.197073722e-16 0.001019521958 0 -4.336671481e-05 -2.361434743e-16 0.01494545244)
(5.449820563e-05 2.877783738e-16 -0.002119869795 -6.236720736e-16 0.0009866704676 0 -3.91986436e-05 -3.579941304e-16 0.01493381831)
(-5.543349507e-05 -8.747425442e-17 -0.00218048647 -5.988928849e-16 0.0009529101411 0 -3.500580198e-05 -4.862362965e-16 0.01492279932)
(-0.0001669365601 -1.155664429e-16 -0.00223818947 -5.778586985e-16 0.0009183662358 8.544798661e-15 -3.076473714e-05 -6.322705921e-16 0.01491245381)
(-0.0002803731486 -1.879339481e-16 -0.002292615128 -5.540960707e-16 0.000883098905 0 -2.643261225e-05 -5.961309332e-16 0.01490280014)
(-0.0003939011067 -6.567860818e-16 -0.002343696888 -5.316431449e-16 0.0008471822592 0 -2.233198793e-05 -5.849102747e-16 0.01489389848)
(-0.0005058920417 -7.889367358e-16 -0.002391277232 -4.861274573e-16 0.0008107626076 0 -1.872202501e-05 -5.946642726e-16 0.01488580311)
(-0.0006172439955 -5.460450895e-16 -0.002434634891 -4.600198863e-16 0.0007739743824 0 -1.539356746e-05 -6.088769655e-16 0.01487849243)
(-0.0007287554177 -6.441825389e-16 -0.002472956143 -4.328561047e-16 0.0007368780886 0 -1.22127634e-05 -5.719518035e-16 0.01487193187)
(-0.0008384811253 -3.439108773e-16 -0.002505752773 -4.045443517e-16 0.0006995389044 0 -9.473673236e-06 -5.46590786e-16 0.01486614246)
(-0.0009449287913 2.867701018e-16 -0.002532415153 -3.965916869e-16 0.0006620925478 0 -7.371207176e-06 -5.286397427e-16 0.01486113885)
(-0.001050133327 5.092150641e-16 -0.00255164483 -3.988668033e-16 0.0006246484617 0 -5.532527201e-06 -5.146372897e-16 0.01485683075)
(-0.001156087012 3.566990623e-16 -0.002561977374 -4.024595781e-16 0.0005872211783 1.596585406e-14 -3.64608365e-06 -5.108849365e-16 0.01485312592)
(-0.001261277517 2.029543212e-16 -0.002562331273 -3.966538418e-16 0.0005498172932 0 -1.925366295e-06 -4.138816869e-16 0.01485000174)
(-0.001363898228 1.036938974e-16 -0.002551628529 -3.921613943e-16 0.0005125092069 -7.951945896e-15 -6.173940878e-07 -3.242427008e-16 0.01484745353)
(-0.001465322994 5.223882633e-18 -0.002528214189 -3.860387697e-16 0.000475366524 0 5.076587306e-07 -3.455501465e-16 0.0148453961)
(-0.001567135 -1.53698507e-16 -0.002490224303 -3.792300768e-16 0.0004383934796 7.945403554e-15 1.680886612e-06 -3.716854467e-16 0.01484373734)
(-0.001667876753 -3.247821451e-16 -0.002436100705 -3.678239633e-16 0.0004015915187 0 2.689273558e-06 -3.109395435e-16 0.01484244478)
(-0.001765915667 -7.671695307e-16 -0.002364264831 -3.527467549e-16 0.0003650143091 0 3.318661156e-06 -2.482824522e-16 0.01484149863)
(-0.001862661903 -9.671597237e-16 -0.002272631367 -3.290749665e-16 0.0003287133374 0 3.788427657e-06 -1.879911348e-16 0.0148408191)
(-0.00195933782 -6.418497337e-16 -0.002158973282 -3.113459021e-16 0.0002926848197 0 4.265057314e-06 -1.174698195e-16 0.01484032762)
(-0.002054122772 -2.660880024e-16 -0.002021384756 -2.980945854e-16 0.0002569344817 0 4.496564795e-06 -3.464692869e-17 0.01484000595)
(-0.002146429336 1.688049226e-16 -0.001857784949 -2.922781424e-16 0.0002215129666 -8.048210227e-15 4.4290224e-06 2.450940647e-17 0.01483982397)
(-0.00223813144 5.368745364e-16 -0.001665680338 -2.949446287e-16 0.0001864383747 0 4.300735475e-06 3.182133362e-17 0.01483971284)
(-0.00232919129 5.851502918e-16 -0.001442783531 -3.002472373e-16 0.0001516997503 0 4.006353708e-06 5.364137236e-17 0.01483964883)
(-0.002418298294 3.993782162e-16 -0.001186877604 -3.027434231e-16 0.0001173138742 0 3.400127418e-06 8.510081433e-17 0.01483962876)
(-0.002499316104 2.668984718e-16 -0.0008952941724 -3.023858988e-16 8.330423602e-05 0 2.672734188e-06 1.286459671e-16 0.0148396134)
(-0.002549995256 1.823208842e-16 -0.000565324695 -3.01763341e-16 4.98393202e-05 -8.250464045e-15 1.836537122e-06 1.282694723e-16 0.01483958905)
(-0.00270995309 7.059100107e-17 -0.0001947994973 -2.998176552e-16 1.747650358e-05 -4.151019299e-15 7.724545405e-07 1.632662213e-16 0.01483957243)
(0.001062127277 -6.811727987e-16 -7.867918642e-05 -1.968730684e-15 0.001734121306 0 -3.394372113e-06 1.028489714e-15 0.01497784189)