/*--------------------------------*- C++ -*----------------------------------*\
  =========                 |
  \\      /  F ield         | OpenFOAM: The Open Source CFD Toolbox
   \\    /   O peration     | Website:  https://openfoam.org
    \\  /    A nd           | Version:  7
     \\/     M anipulation  |
\*---------------------------------------------------------------------------*/
FoamFile
{
    version     2.0;
    format      ascii;
    class       volScalarField;
    location    "0.0027";
    object      p;
}
// * * * * * * * * * * * * * * * * * * * * * * * * * * * * * * * * * * * * * //

dimensions      [1 -1 -2 0 0 0 0];

internalField   nonuniform List<scalar> 
1166
(
1489932.789
1488416.92
1488907.329
1489392.258
1489872.789
1490418.848
1491029.63
1491704.527
1492418.624
1493173.483
1493952.3
1494756.354
1495570.833
1496396.002
1497219.723
1498042.455
1498863.812
1499677.251
1488765.24
1487256.774
1487702.322
1488126.067
1488533.106
1488996.543
1489525.083
1490110.835
1490737.789
1491403.56
1492095.159
1492810.211
1493537.944
1494275.693
1495019.576
1495766.329
1496511.753
1497254.008
1497989.936
1498715.708
1499435.596
1500148.285
1500849.481
1501534.134
1502212.257
1502884.65
1503549.676
1504204.727
1504862.822
1505521.141
1506176.954
1506826.781
1507471.782
1508117.727
1508759.474
1509390.391
1510005.491
1510611.366
1511206.217
1511784.766
1512344.21
1512889.465
1513420.017
1513932.044
1514424.595
1514901.304
1515359.826
1515801.347
1516251.372
1516707.224
1487546.915
1486054.556
1486463.848
1486840.397
1487192.181
1487594.605
1488060.809
1488577.284
1489133.707
1489724.835
1490342.054
1490979.454
1491633.903
1492300.044
1492975.888
1493656.012
1494334.247
1495013.842
1495690.339
1496359.004
1497026.979
1497687.898
1498335.496
1498977.389
1499618.359
1500256.229
1500888.238
1501518.565
1502153.911
1502790.054
1503422.671
1504048.505
1504676.609
1505303.19
1505920.6
1506522.142
1507114.012
1507696.962
1508265.028
1508814.174
1509348.711
1509869.935
1510373.608
1510857.636
1511326.303
1511778.892
1512209.977
1512627.296
1513054.302
1513481.974
1486314.663
1484849.607
1485230.438
1485571.048
1485881.717
1486238.824
1486651.416
1487109.61
1487606.059
1488132.224
1488686.466
1489261.071
1489854.515
1490458.102
1491073.178
1491692.088
1492313.737
1492939.023
1493562.197
1494182.939
1494802.558
1495415.646
1496018.539
1496626.57
1497236.199
1497844.289
1498446.994
1499057.472
1499672.418
1500286.411
1500893.691
1501502.288
1502112.391
1502714.935
1503302.761
1503880.318
1504450.781
1505007.571
1505546.206
1506069.959
1506581.671
1507076.756
1507552.181
1508012.255
1508457.808
1508883.432
1509290.529
1509687.033
1510087.94
1510489.35
1485101.261
1483669.664
1484025.76
1484336.09
1484612.325
1484930.159
1485297.341
1485705.255
1486151.783
1486626.009
1487128.527
1487648.388
1488188.008
1488736.248
1489297.685
1489861.73
1490436.096
1491014.884
1491588.241
1492164.484
1492740.948
1493313.605
1493883.964
1494462.227
1495043.756
1495623.083
1496206.253
1496798.125
1497391.756
1497980.498
1498569.083
1499161.922
1499748.826
1500322.248
1500885.263
1501442.561
1501987.541
1502515.239
1503028.225
1503530.087
1504016.275
1504483.11
1504934.731
1505372.666
1505791.769
1506193.522
1506580.26
1506952.674
1507329.515
1507709.745
1483919.384
1482524.712
1482857.992
1483141.122
1483386.551
1483669.312
1484002.5
1484371.035
1484776.483
1485204.359
1485657.922
1486132.399
1486624.674
1487125.162
1487640.242
1488158.295
1488690.977
1489226.547
1489753.81
1490290.899
1490831.619
1491367.647
1491912.788
1492466.549
1493021.934
1493577.317
1494145.118
1494717.523
1495287.109
1495855.583
1496429.82
1497000.218
1497558.662
1498107.11
1498650.327
1499182.905
1499699.235
1500201.444
1500693.077
1501169.998
1501628.161
1502071.498
1502501.802
1502913.671
1503309.172
1503690.827
1504054.337
1504404.493
1504761.008
1505118.021
1482768.713
1481417.331
1481731.618
1481992.574
1482213.513
1482468.078
1482772.171
1483104.686
1483469.463
1483860.105
1484270.094
1484705.371
1485152.455
1485615.883
1486093.236
1486570.947
1487061.639
1487552.559
1488046.499
1488552.153
1489059.501
1489568.706
1490093.187
1490624.492
1491154.392
1491694.943
1492244.685
1492794.633
1493343.058
1493897.247
1494450.261
1494993.016
1495526.367
1496055.165
1496574.897
1497079.327
1497570.468
1498051.738
1498519.066
1498968.42
1499403.552
1499826.249
1500230.731
1500619.448
1500995.261
1501353.996
1501695.876
1502027.471
1502362.221
1502696.416
1481660.464
1480354.952
1480656.392
1480897.75
1481096.801
1481326.744
1481603.953
1481903.659
1482231.035
1482591.345
1482965.198
1483364.133
1483771.931
1484202.545
1484639.433
1485083.16
1485537.101
1485989.782
1486459.181
1486937.219
1487413.757
1487906.088
1488410.399
1488916.366
1489429.66
1489956.109
1490485.776
1491013.577
1491547.231
1492082.32
1492608.772
1493126.565
1493640.661
1494147.168
1494639.22
1495119.034
1495589.834
1496047.275
1496487.703
1496914.709
1497329.801
1497726.837
1498108.823
1498478.473
1498831.601
1499169.202
1499493.151
1499804.373
1500118.4
1500434.436
1480599.988
1479335.343
1479623.605
1479852.225
1480032.737
1480239.24
1480488.979
1480765.598
1481063.768
1481394.302
1481736.897
1482106.06
1482481.463
1482876.667
1483272.463
1483687.802
1484110.749
1484538.075
1484982.805
1485432.514
1485890.983
1486367.299
1486849.256
1487335.329
1487837.549
1488346.313
1488852.949
1489365.563
1489882.192
1490391.729
1490893.483
1491392.558
1491885.435
1492364.608
1492832.804
1493292.985
1493740.205
1494171.547
1494590.422
1494997.734
1495387.261
1495762.6
1496126.214
1496473.192
1496805.778
1497125.972
1497429.85
1497722.1
1498018.95
1498314.802
1479592.32
1478366.791
1478636.129
1478854.516
1479022.146
1479207.169
1479429
1479687.866
1479961.347
1480264.024
1480581.05
1480917.176
1481264.737
1481627.832
1481996.153
1482385.085
1482776.887
1483186.773
1483609.722
1484035.191
1484482.086
1484940.207
1485400.432
1485875.869
1486362.086
1486847.946
1487339.292
1487836.947
1488328.991
1488814.246
1489297.987
1489776.839
1490242.638
1490698.917
1491148.314
1491584.975
1492007.063
1492417.695
1492816.742
1493198.973
1493567.771
1493925.518
1494266.267
1494593.422
1494909.283
1495209.248
1495494.844
1495771.445
1496049.323
1496327.017
1478632.232
1477448.757
1477699.043
1477898.866
1478060.009
1478229.009
1478429.079
1478667.526
1478920.279
1479192.32
1479487.235
1479789.953
1480115.195
1480448.435
1480799.646
1481163.329
1481534.684
1481928.223
1482327.432
1482742.428
1483174.917
1483610.367
1484058.989
1484522.215
1484987.147
1485456.915
1485935.235
1486409.357
1486877.742
1487345.78
1487809.938
1488262.273
1488706.469
1489144.935
1489570.708
1489983.384
1490385.76
1490776.353
1491151.248
1491513.497
1491865.022
1492199.988
1492521.825
1492832.865
1493128.512
1493410.813
1493681.217
1493940.071
1494201.472
1494464.206
1477715.724
1476576.167
1476811.916
1476992.265
1477139.752
1477304.54
1477487.395
1477698.961
1477936.383
1478182.317
1478456.446
1478734.987
1479039.59
1479347.893
1479681.427
1480019.979
1480380.613
1480754.163
1481136.956
1481542.778
1481954.795
1482376.586
1482816.549
1483260.517
1483708.973
1484166.788
1484622.361
1485073.502
1485525.495
1485974.42
1486412.993
1486844.851
1487272.201
1487686.714
1488089.764
1488483.805
1488865.68
1489233.218
1489589.172
1489933.964
1490263.157
1490579.713
1490885.794
1491176.955
1491455.417
1491722.778
1491976.061
1492219.856
1492466.767
1492712.983
1476846.599
1475750.591
1475974.475
1476140.078
1476266.539
1476420.774
1476592.494
1476779.901
1476998.304
1477226.736
1477474.805
1477741.013
1478020.995
1478317.996
1478631.14
1478957.158
1479306.23
1479660.05
1480036.112
1480424.513
1480820.346
1481235.858
1481658.54
1482085.559
1482522.433
1482959.104
1483392.709
1483828.399
1484261.73
1484686.336
1485105.932
1485521.706
1485924.548
1486317.808
1486703.483
1487076.424
1487436.536
1487786.254
1488124.199
1488447.748
1488759.478
1489060.292
1489347.031
1489621.631
1489885.235
1490135.933
1490374.884
1490604.841
1490836.716
1491069.225
1476011.72
1474963.59
1475180.896
1475334.48
1475445.053
1475576.734
1475740.785
1475913.795
1476108.151
1476327.617
1476553.705
1476809.462
1477068.107
1477356.605
1477650.111
1477969.246
1478299.086
1478645.472
1479010.644
1479381.458
1479771.17
1480172.291
1480577.728
1480993.386
1481410.895
1481826.668
1482245.762
1482663.144
1483073.507
1483480.497
1483883.619
1484275.163
1484658.624
1485035.835
1485399.544
1485752.094
1486095.571
1486426.486
1486744.379
1487051.434
1487346.804
1487629.226
1487900.264
1488159.547
1488407.104
1488644.088
1488868.838
1489085.163
1489304.058
1489521.958
1475206.947
1474200.861
1474409.113
1474561.424
1474664.911
1474778.804
1474925.438
1475095.581
1475271.887
1475475.762
1475692.774
1475928.229
1476181.937
1476452.14
1476739.123
1477045.239
1477361.979
1477704.146
1478050.723
1478414.632
1478794.309
1479178.063
1479572.264
1479970.458
1480368.18
1480770.431
1481171.563
1481567.428
1481961.598
1482351.67
1482731.774
1483105.089
1483473.101
1483828.088
1484173.12
1484510.224
1484834.056
1485146.293
1485448.756
1485738.577
1486016.684
1486284.226
1486539.294
1486783.319
1487017.432
1487240.054
1487451.994
1487656.455
1487861.969
1488067.276
1474449.57
1473479.821
1473671.227
1473815.091
1473920.172
1474029.494
1474156.265
1474314.266
1474486.827
1474672.072
1474885.366
1475103.617
1475352.151
1475608.204
1475892.342
1476182.678
1476496.014
1476820.115
1477158.868
1477517.387
1477879.353
1478251.832
1478630.609
1479010.086
1479395.24
1479779.847
1480160.956
1480542.077
1480918.757
1481287.359
1481650.898
1482008.545
1482354.706
1482691.922
1483021.803
1483339.211
1483645.71
1483942.802
1484227.783
1484501.632
1484765.161
1485016.637
1485257.339
1485488.297
1485708.387
1485918.43
1486118.857
1486311.017
1486504.804
1486698.215
1473735.639
1472807.251
1472985.457
1473110.361
1473204.841
1473314.784
1473437.545
1473576.295
1473744.849
1473923.34
1474122.311
1474340.625
1474573.754
1474827.651
1475095.728
1475381.284
1475683.624
1475997.726
1476335
1476675.097
1477025.664
1477385.033
1477746.126
1478113.947
1478481.806
1478847.932
1479215.798
1479578.784
1479935.68
1480289.369
1480636.273
1480973.591
1481303.493
1481625.315
1481936.061
1482236.904
1482528.43
1482808.545
1483078.168
1483337.718
1483585.698
1483823.294
1484051.041
1484268.473
1484476.659
1484674.954
1484863.378
1485044.573
1485227.197
1485409.655
1473040.74
1472159.343
1472335.295
1472452.933
1472531.87
1472630.354
1472754.823
1472890.029
1473043.358
1473221.581
1473407.026
1473620.947
1473845.638
1474093.356
1474351.833
1474634.311
1474926.128
1475239.636
1475558.272
1475887.134
1476227.319
1476570.004
1476920.33
1477271.335
1477622.335
1477976.799
1478325.862
1478670.868
1479014.602
1479350.5
1479678.882
1480001.629
1480314.9
1480619.012
1480914.917
1481199.988
1481475.185
1481741.343
1481996.118
1482240.488
1482475.415
1482699.661
1482914.216
1483119.838
1483316.121
1483503.153
1483680.933
1483851.842
1484024.308
1484196.384
1472375.107
1471534.721
1471704.152
1471824.751
1471908.15
1471994.193
1472107.081
1472244.381
1472391.527
1472560.413
1472749.732
1472949.975
1473175.449
1473409.841
1473668.681
1473937.076
1474225.916
1474524.18
1474831.428
1475152.587
1475476.796
1475809.417
1476143.456
1476479.143
1476820.018
1477154.89
1477487.577
1477820.627
1478145.777
1478464.928
1478779.711
1479084.857
1479382.119
1479672.331
1479951.516
1480221.642
1480483.56
1480734.318
1480975.106
1481206.791
1481428.214
1481640.163
1481843.273
1482037.367
1482222.77
1482399.166
1482566.959
1482728.447
1482891.179
1483053.565
1471759.307
1470953.681
1471109.001
1471221.526
1471305.013
1471398.845
1471503.81
1471631.739
1471781.708
1471940.491
1472124.285
1472323.504
1472538.895
1472772.661
1473022.032
1473287.471
1473566.379
1473852.945
1474154.819
1474460.515
1474775.383
1475092.523
1475412.534
1475738.763
1476060.243
1476380.481
1476701.981
1477016.843
1477326.58
1477632.635
1477930.121
1478220.422
1478504.367
1478778.101
1479043.168
1479300.597
1479547.538
1479784.81
1480013.261
1480231.939
1480441.54
1480642.001
1480833.843
1481017.31
1481192.151
1481358.817
1481517.461
1481669.992
1481823.491
1481976.694
1471177.841
1470415.8
1470568.211
1470668.006
1470738.395
1470830.279
1470941.583
1471063.244
1471205.62
1471368.985
1471541.103
1471737.934
1471946.772
1472178.355
1472420.579
1472681.065
1472947.957
1473229.933
1473516.909
1473813.88
1474114.207
1474418.457
1474729.808
1475037.806
1475345.426
1475655.183
1475959.75
1476260.423
1476557.042
1476846.775
1477130.635
1477407.497
1477675.687
1477936.275
1478188.38
1478431.362
1478665.512
1478890.241
1479105.947
1479312.951
1479511.076
1479700.785
1479882.291
1480055.447
1480220.652
1480378.368
1480528.41
1480672.368
1480817.451
1480962.086
1470615.993
1469892.498
1470041.022
1470146.794
1470222.059
1470300.97
1470406.398
1470532.615
1470669.831
1470827.068
1471004.039
1471191.596
1471402.536
1471623.84
1471863.328
1472110.21
1472372.646
1472641.091
1472920.111
1473203.84
1473492.358
1473788.752
1474083.436
1474379.159
1474676.084
1474970.112
1475262.227
1475548.524
1475830.056
1476107.203
1476376.905
1476639.229
1476894.579
1477141.889
1477380.867
1477611.31
1477832.851
1478045.747
1478250.126
1478445.992
1478633.639
1478813.31
1478984.852
1479148.405
1479304.953
1479454.273
1479595.917
1479732.099
1479868.993
1480005.824
1470099.859
1469407.886
1469544.965
1469646.389
1469722.829
1469810.285
1469910.972
1470030.155
1470169.994
1470322.161
1470495.743
1470687.238
1470888.649
1471107.801
1471335.126
1471578.485
1471828.664
1472089.703
1472357.124
1472629.982
1472911.33
1473192.568
1473476.316
1473760.184
1474043.05
1474325.187
1474602.376
1474875.694
1475145.268
1475408.355
1475664.869
1475914.745
1476157.287
1476392.252
1476618.934
1476837.239
1477047.341
1477249.066
1477442.638
1477628.135
1477806.048
1477976.087
1478138.071
1478293.124
1478441.118
1478582.421
1478716.65
1478845.2
1478974.901
1479103.977
1469099.192
1469192.95
1469257.86
1469343.052
1469448.198
1469567.628
1469701.245
1469856.376
1470023.635
1470209.8
1470408.515
1470618.426
1470842.311
1471075.704
1471319.015
1471570.483
1471827.818
1472094.106
1472361.699
1472633.014
1472904.085
1473175.707
1473447.576
1473715.615
1473980.593
1474242.414
1474498.848
1474749.922
1474993.636
1475231.122
1475462.08
1475684.83
1475899.748
1476106.859
1476306.066
1476497.402
1476680.786
1476856.813
1477025.071
1477185.927
1477339.723
1477486.485
1477626.927
1477760.602
1477887.371
1478009.334
1478131.867
1478254.625
)
;

boundaryField
{
    front_top
    {
        type            wedge;
    }
    front_middle
    {
        type            wedge;
    }
    front_bottom
    {
        type            wedge;
    }
    back_top
    {
        type            wedge;
    }
    back_middle
    {
        type            wedge;
    }
    back_bottom
    {
        type            wedge;
    }
    axis_top
    {
        type            symmetryPlane;
    }
    axis_middle
    {
        type            symmetryPlane;
    }
    axis_bottom
    {
        type            symmetryPlane;
    }
    wall_top
    {
        type            fixedFluxPressure;
        gradient        uniform 0;
        value           nonuniform List<scalar> 
23
(
1516707.224
1513481.974
1510489.35
1507709.745
1505118.021
1502696.416
1500434.436
1498314.802
1496327.017
1494464.206
1492712.983
1491069.225
1489521.958
1488067.276
1486698.215
1485409.655
1484196.384
1483053.565
1481976.694
1480962.086
1480005.824
1479103.977
1478254.625
)
;
    }
    wall_middle
    {
        type            fixedFluxPressure;
        gradient        nonuniform 0();
        value           nonuniform 0();
    }
    wall_bottom
    {
        type            fixedFluxPressure;
        gradient        nonuniform 0();
        value           nonuniform 0();
    }
    inlet
    {
        type            zeroGradient;
    }
    outlet
    {
        type            fixedValue;
        value           nonuniform 0();
    }
    procBoundary9to8
    {
        type            processor;
        value           nonuniform List<scalar> 
51
(
1469616.449
1468963.289
1468963.289
1468663.13
1468758.6
1468831.284
1468912.992
1469011.852
1469133.627
1469271.5
1469418.999
1469585.352
1469762.068
1469956.172
1470160.696
1470378.293
1470603.976
1470839.943
1471081.961
1471333.212
1471586.882
1471844.95
1472103.916
1472364.364
1472625.776
1472884.697
1473141.952
1473394.921
1473644.013
1473888.753
1474127.004
1474359.394
1474585.876
1474804.924
1475016.483
1475220.545
1475417.095
1475605.866
1475787.456
1475961.748
1476128.42
1476287.997
1476440.538
1476586.093
1476725.448
1476858.061
1476984.786
1477105.182
1477220.369
1477336.842
1477452.682
)
;
    }
    procBoundary9to10
    {
        type            processor;
        value           nonuniform List<scalar> 
51
(
1491028.245
1489517.662
1490049.321
1490605.139
1491176.006
1491825.775
1492545.533
1493338.449
1494170.505
1495037.12
1495926.257
1496831.191
1497744.839
1498670.144
1499589.899
1500505.507
1501412.244
1502305.945
1500481.529
1500481.529
1501273.837
1502053.684
1502821.499
1503576.631
1504315.654
1505040.884
1505753.289
1506454.83
1507144.818
1507828.283
1508510.098
1509189.222
1509863.614
1510529.898
1511194.029
1511855.889
1512511.556
1513154.839
1513783.094
1514402.61
1515008.782
1515597.048
1516166.612
1516722.574
1517262.359
1517782.456
1518282.764
1518766.46
1519236.239
1519711.895
1520192.235
)
;
    }
}


// ************************************************************************* //
