/*--------------------------------*- C++ -*----------------------------------*\
  =========                 |
  \\      /  F ield         | OpenFOAM: The Open Source CFD Toolbox
   \\    /   O peration     | Website:  https://openfoam.org
    \\  /    A nd           | Version:  7
     \\/     M anipulation  |
\*---------------------------------------------------------------------------*/
FoamFile
{
    version     2.0;
    format      ascii;
    class       volVectorField;
    location    "0.0027";
    object      U;
}
// * * * * * * * * * * * * * * * * * * * * * * * * * * * * * * * * * * * * * //

dimensions      [0 1 -1 0 0 0 0];

internalField   nonuniform List<vector> 
1166
(
(1.932071265e-08 7.74123295e-20 -0.002115084252)
(5.046523115e-08 1.585013587e-19 -0.002115087734)
(7.969116252e-08 2.457281108e-19 -0.002115095186)
(1.094055291e-07 1.384727532e-19 -0.00211510619)
(1.384838238e-07 6.65933552e-20 -0.002115120477)
(1.666114313e-07 1.262384223e-19 -0.002115137807)
(1.936631034e-07 1.782929477e-19 -0.002115157949)
(2.195641133e-07 2.308128123e-19 -0.002115180691)
(2.44236133e-07 2.050819824e-19 -0.00211520582)
(2.676082002e-07 1.884235141e-19 -0.002115233138)
(2.896201316e-07 1.765518234e-19 -0.002115262454)
(3.102216992e-07 1.684949654e-19 -0.002115293586)
(3.29370302e-07 1.656373764e-19 -0.002115326363)
(3.470265039e-07 1.749930515e-19 -0.002115360619)
(3.631558699e-07 1.881205541e-19 -0.00211539619)
(3.777216418e-07 2.023532364e-19 -0.002115432926)
(3.90708175e-07 2.177732565e-19 -0.00211547068)
(4.021009454e-07 2.33964072e-19 -0.002115509312)
(2.003758413e-08 7.089555293e-20 -0.002116502858)
(5.233208014e-08 1.36415671e-19 -0.002116506111)
(8.261214349e-08 1.894374368e-19 -0.002116513079)
(1.133553018e-07 2.520923267e-19 -0.002116523369)
(1.43381665e-07 3.169369273e-19 -0.002116536728)
(1.723592788e-07 2.356460859e-19 -0.002116552935)
(2.001714585e-07 1.700217302e-19 -0.002116571781)
(2.267466904e-07 1.072098963e-19 -0.002116593073)
(2.520093066e-07 1.196521077e-19 -0.00211661662)
(2.758956427e-07 1.196310993e-19 -0.002116642245)
(2.983496861e-07 1.154471709e-19 -0.002116669772)
(3.19322433e-07 1.192834747e-19 -0.002116699035)
(3.387712861e-07 1.259805744e-19 -0.002116729872)
(3.566544888e-07 1.411996685e-19 -0.002116762131)
(3.729430416e-07 1.562715545e-19 -0.002116795662)
(3.876127371e-07 1.684614333e-19 -0.002116830328)
(4.006426422e-07 1.773555271e-19 -0.002116865995)
(4.120157279e-07 1.829888556e-19 -0.002116902535)
(4.217160888e-07 1.853470716e-19 -0.002116939828)
(4.297228153e-07 1.855821241e-19 -0.002116977757)
(4.360258649e-07 1.833783541e-19 -0.002117016211)
(4.406281113e-07 1.793256786e-19 -0.002117055086)
(4.435242072e-07 1.739837714e-19 -0.002117094283)
(4.446912124e-07 1.673507457e-19 -0.002117133703)
(4.441232327e-07 1.590064266e-19 -0.00211717325)
(4.418431078e-07 1.722272585e-19 -0.002117212836)
(4.378727635e-07 1.835780585e-19 -0.002117252374)
(4.322240553e-07 2.044015822e-19 -0.002117291779)
(4.249431388e-07 2.242085945e-19 -0.002117330967)
(4.161096576e-07 2.339909576e-19 -0.002117369858)
(4.057916591e-07 2.432951645e-19 -0.002117408366)
(3.940462983e-07 2.521505649e-19 -0.002117446402)
(3.809312088e-07 2.606606782e-19 -0.002117483871)
(3.66536305e-07 2.690789977e-19 -0.002117520672)
(3.509627296e-07 2.774663239e-19 -0.002117556702)
(3.342811621e-07 2.860477473e-19 -0.002117591845)
(3.165297337e-07 2.952138094e-19 -0.002117625969)
(2.977626218e-07 2.979181049e-19 -0.002117658937)
(2.780608268e-07 3.013906107e-19 -0.002117690599)
(2.574832683e-07 3.055548443e-19 -0.002117720797)
(2.360612614e-07 3.103588047e-19 -0.002117749354)
(2.13841275e-07 3.157928789e-19 -0.002117776084)
(1.908938559e-07 3.218516234e-19 -0.002117800791)
(1.672711715e-07 3.285456112e-19 -0.002117823266)
(1.430037787e-07 3.360004236e-19 -0.002117843286)
(1.181374554e-07 3.388631774e-19 -0.002117860617)
(9.272236775e-08 3.425497187e-19 -0.002117875016)
(6.679016529e-08 3.420733459e-19 -0.002117886227)
(4.051577255e-08 3.427654078e-19 -0.002117893982)
(1.441376183e-08 3.407067256e-19 -0.002117898004)
(2.06301016e-08 3.382962865e-20 -0.002117879864)
(5.387119958e-08 3.005792893e-20 -0.002117882911)
(8.501527401e-08 -1.53765424e-21 -0.002117889451)
(1.166047569e-07 1.828028024e-19 -0.002117899112)
(1.474154158e-07 3.234304827e-19 -0.002117911663)
(1.771055382e-07 3.034516179e-19 -0.0021179269)
(2.055660664e-07 2.972003542e-19 -0.002117944636)
(2.327254269e-07 3.029085402e-19 -0.002117964692)
(2.585063502e-07 3.160806124e-19 -0.002117986895)
(2.828447604e-07 2.681082519e-19 -0.002118011078)
(3.056845723e-07 2.365136748e-19 -0.002118037079)
(3.269735906e-07 2.210783009e-19 -0.002118064745)
(3.466709665e-07 2.131372502e-19 -0.002118093927)
(3.647425947e-07 2.086628421e-19 -0.002118124485)
(3.811630889e-07 2.062335292e-19 -0.002118156284)
(3.959107649e-07 2.046325501e-19 -0.002118189196)
(4.089568551e-07 2.028552936e-19 -0.002118223098)
(4.2028287e-07 2.00308168e-19 -0.002118257872)
(4.298782547e-07 1.965860148e-19 -0.002118293408)
(4.377211821e-07 1.922558378e-19 -0.002118329599)
(4.438065711e-07 1.862933531e-19 -0.002118366345)
(4.481379845e-07 1.783960201e-19 -0.002118403549)
(4.506916102e-07 1.682823321e-19 -0.002118441118)
(4.514544247e-07 1.688296107e-19 -0.002118478957)
(4.504500757e-07 1.673822827e-19 -0.002118516982)
(4.477104528e-07 1.763899284e-19 -0.002118555112)
(4.432575449e-07 1.845602182e-19 -0.002118593268)
(4.371228794e-07 2.032396649e-19 -0.002118631366)
(4.293766707e-07 2.2183384e-19 -0.002118669332)
(4.201024048e-07 2.41166351e-19 -0.002118707086)
(4.0936582e-07 2.605208435e-19 -0.002118744544)
(3.972167926e-07 2.700765269e-19 -0.002118781615)
(3.83735384e-07 2.716500551e-19 -0.002118818204)
(3.69030436e-07 2.740909995e-19 -0.002118854212)
(3.531811691e-07 2.773647826e-19 -0.00211888953)
(3.362246655e-07 2.811958421e-19 -0.002118924035)
(3.18206914e-07 2.853405944e-19 -0.00211895759)
(2.992106238e-07 2.897578525e-19 -0.002118990057)
(2.793042457e-07 2.945613655e-19 -0.002119021282)
(2.585207528e-07 2.99764562e-19 -0.002119051098)
(2.369011467e-07 3.053697192e-19 -0.002119079323)
(2.145173481e-07 3.113462767e-19 -0.002119105771)
(1.914298892e-07 3.174871315e-19 -0.00211913024)
(1.676699086e-07 3.173001637e-19 -0.002119152515)
(1.432820541e-07 3.168891373e-19 -0.002119172369)
(1.183307137e-07 3.162983632e-19 -0.002119189568)
(9.283999884e-08 3.154665189e-19 -0.002119203864)
(6.683760962e-08 3.142562883e-19 -0.002119214997)
(4.052971382e-08 3.125353067e-19 -0.002119222702)
(1.441170307e-08 3.10861774e-19 -0.002119226699)
(2.110929469e-08 7.819996783e-20 -0.002119217189)
(5.511646887e-08 1.545539287e-19 -0.002119220063)
(8.696335702e-08 2.032956784e-19 -0.002119226241)
(1.192471152e-07 2.45567802e-19 -0.002119235374)
(1.507091504e-07 2.855937391e-19 -0.002119247246)
(1.810038162e-07 3.233348543e-19 -0.002119261668)
(2.100171271e-07 3.66603718e-19 -0.002119278469)
(2.37670149e-07 4.204192236e-19 -0.002119297482)
(2.638881239e-07 3.965609871e-19 -0.002119318543)
(2.88602533e-07 3.934933304e-19 -0.0021193415)
(3.117573285e-07 4.084410946e-19 -0.002119366204)
(3.333065719e-07 3.762039967e-19 -0.002119392513)
(3.532126793e-07 3.648870534e-19 -0.002119420292)
(3.714388568e-07 3.224433632e-19 -0.002119449412)
(3.879564605e-07 2.951233481e-19 -0.002119479748)
(4.027405007e-07 2.769364107e-19 -0.002119511182)
(4.157634965e-07 2.644595815e-19 -0.002119543598)
(4.270135496e-07 2.55509662e-19 -0.002119576889)
(4.364760299e-07 2.487742228e-19 -0.002119610957)
(4.44133993e-07 2.443764779e-19 -0.002119645701)
(4.499842241e-07 2.413308073e-19 -0.002119681027)
(4.540196714e-07 2.39086747e-19 -0.002119716847)
(4.562138348e-07 2.371444704e-19 -0.002119753071)
(4.565790071e-07 2.335325218e-19 -0.002119789617)
(4.551639526e-07 2.283242405e-19 -0.002119826407)
(4.520030418e-07 2.296834975e-19 -0.002119863368)
(4.471160066e-07 2.290196891e-19 -0.002119900421)
(4.405590057e-07 2.259137498e-19 -0.00211993749)
(4.324263683e-07 2.217956613e-19 -0.002119974505)
(4.227935135e-07 2.270554685e-19 -0.002120011385)
(4.117092693e-07 2.311739827e-19 -0.002120048045)
(3.992419362e-07 2.34897668e-19 -0.002120084392)
(3.855006712e-07 2.387754811e-19 -0.002120120335)
(3.705737951e-07 2.41619403e-19 -0.002120155771)
(3.545007654e-07 2.51585978e-19 -0.002120190581)
(3.373222718e-07 2.606301239e-19 -0.002120224637)
(3.191199509e-07 2.6048205e-19 -0.002120257803)
(2.999692052e-07 2.595627298e-19 -0.002120289937)
(2.799055749e-07 2.651483945e-19 -0.002120320875)
(2.589667294e-07 2.704952531e-19 -0.002120350444)
(2.372249742e-07 2.757055367e-19 -0.002120378464)
(2.147478356e-07 2.810371726e-19 -0.002120404743)
(1.915669304e-07 2.866584172e-19 -0.002120429071)
(1.677233203e-07 2.934364534e-19 -0.002120451229)
(1.432873542e-07 2.951293287e-19 -0.002120470991)
(1.183001168e-07 2.97290218e-19 -0.002120488117)
(9.277537185e-08 2.998706848e-19 -0.002120502354)
(6.677444034e-08 3.029540113e-19 -0.002120513445)
(4.049037172e-08 3.019111465e-19 -0.002120521121)
(1.439045601e-08 3.05401023e-19 -0.002120525101)
(2.1499832e-08 1.97450344e-19 -0.002120516773)
(5.61311442e-08 5.000827848e-19 -0.002120519502)
(8.855170976e-08 4.902218172e-19 -0.002120525379)
(1.214043019e-07 3.318007677e-19 -0.002120534072)
(1.534015749e-07 2.555591141e-19 -0.002120545374)
(1.841916643e-07 2.235223195e-19 -0.00212055911)
(2.136563585e-07 2.107875925e-19 -0.002120575116)
(2.417093173e-07 2.061536684e-19 -0.00212059324)
(2.682783521e-07 2.078106417e-19 -0.002120613331)
(2.932982241e-07 2.295178049e-19 -0.002120635249)
(3.167138588e-07 2.492864167e-19 -0.002120658854)
(3.384759766e-07 2.56772175e-19 -0.002120684016)
(3.585440679e-07 2.584599754e-19 -0.002120710611)
(3.768789854e-07 2.596662866e-19 -0.002120738517)
(3.93449803e-07 2.597933251e-19 -0.002120767621)
(4.082261215e-07 2.601701827e-19 -0.002120797811)
(4.211885375e-07 2.617641692e-19 -0.002120828983)
(4.32337574e-07 2.652963933e-19 -0.002120861041)
(4.416420732e-07 2.525688156e-19 -0.00212089389)
(4.490823838e-07 2.602297363e-19 -0.002120927437)
(4.546636776e-07 2.692237142e-19 -0.002120961594)
(4.583777209e-07 2.795151875e-19 -0.00212099628)
(4.602165147e-07 2.911120524e-19 -0.00212103141)
(4.602129366e-07 2.89380411e-19 -0.002121066914)
(4.584213559e-07 2.882315833e-19 -0.002121102721)
(4.54871365e-07 2.856913526e-19 -0.002121138758)
(4.49604253e-07 2.823198473e-19 -0.002121174951)
(4.427056798e-07 2.6562899e-19 -0.002121211232)
(4.342637045e-07 2.581971539e-19 -0.002121247528)
(4.243317539e-07 2.49383187e-19 -0.002121283758)
(4.129692916e-07 2.393797976e-19 -0.002121319833)
(4.002818093e-07 2.393365694e-19 -0.002121355667)
(3.863656994e-07 2.473153393e-19 -0.002121391163)
(3.712627171e-07 2.534399705e-19 -0.002121426209)
(3.550094898e-07 2.57030778e-19 -0.002121460681)
(3.376855631e-07 2.588688767e-19 -0.00212149445)
(3.193715761e-07 2.597523004e-19 -0.002121527381)
(3.001060935e-07 2.590245876e-19 -0.002121559317)
(2.799250025e-07 2.55916189e-19 -0.002121590093)
(2.589003765e-07 2.510233388e-19 -0.002121619533)
(2.371043916e-07 2.374386263e-19 -0.002121647453)
(2.145701803e-07 2.279389377e-19 -0.002121673653)
(1.913367844e-07 2.223836571e-19 -0.002121697919)
(1.674764996e-07 2.217640876e-19 -0.002121720033)
(1.430379651e-07 2.261092986e-19 -0.002121739762)
(1.180470155e-07 2.335760141e-19 -0.002121756861)
(9.254991258e-08 2.388232852e-19 -0.002121771079)
(6.659804533e-08 2.42098628e-19 -0.002121782157)
(4.03602542e-08 2.44407904e-19 -0.002121789822)
(1.433016478e-08 2.458451353e-19 -0.002121793794)
(2.181745641e-08 2.473259936e-20 -0.0021217804)
(5.695568397e-08 2.303303718e-21 -0.002121783005)
(8.984116477e-08 -4.489714264e-20 -0.002121788625)
(1.231532475e-07 -1.069884693e-19 -0.002121796942)
(1.55578648e-07 -1.869681418e-19 -0.002121807759)
(1.867569955e-07 -1.175579283e-19 -0.002121820911)
(2.165784623e-07 -9.012067082e-20 -0.002121836244)
(2.449576998e-07 -1.052540701e-19 -0.002121853618)
(2.718172927e-07 -8.030017115e-20 -0.002121872893)
(2.970858683e-07 -1.53032694e-20 -0.002121893935)
(3.206967535e-07 9.289300462e-21 -0.002121916618)
(3.426078599e-07 6.024356299e-20 -0.002121940815)
(3.627827009e-07 7.957559122e-20 -0.002121966413)
(3.811746833e-07 1.291419458e-19 -0.002121993298)
(3.977530781e-07 1.606934062e-19 -0.002122021367)
(4.124862419e-07 1.814366638e-19 -0.00212205052)
(4.253608926e-07 1.953959396e-19 -0.002122080661)
(4.36378989e-07 2.049332208e-19 -0.002122111699)
(4.454908267e-07 2.134791922e-19 -0.002122143542)
(4.526811013e-07 2.375850393e-19 -0.002122176103)
(4.579750945e-07 2.593213338e-19 -0.002122209306)
(4.613598371e-07 2.793119389e-19 -0.002122243074)
(4.628494945e-07 2.980137585e-19 -0.00212227733)
(4.625058012e-07 3.15939037e-19 -0.002122312011)
(4.60373674e-07 3.352853966e-19 -0.002122347052)
(4.564802257e-07 3.30523711e-19 -0.002122382379)
(4.508996177e-07 3.279364403e-19 -0.002122417925)
(4.437319266e-07 3.262581332e-19 -0.002122453625)
(4.350363067e-07 3.244728967e-19 -0.002122489403)
(4.248653903e-07 3.233239076e-19 -0.002122525173)
(4.133174877e-07 3.229724107e-19 -0.002122560853)
(4.004941592e-07 3.236276162e-19 -0.002122596353)
(3.864418351e-07 3.252198671e-19 -0.002122631566)
(3.711958698e-07 3.274847646e-19 -0.002122666375)
(3.548314833e-07 3.210844732e-19 -0.002122700656)
(3.374313903e-07 3.149841328e-19 -0.00212273428)
(3.190386665e-07 3.184254979e-19 -0.002122767098)
(2.996893911e-07 3.218924504e-19 -0.00212279895)
(2.794548359e-07 3.17156672e-19 -0.002122829669)
(2.58409116e-07 3.118378465e-19 -0.002122859077)
(2.365877413e-07 3.066480275e-19 -0.002122886982)
(2.140297887e-07 2.999246092e-19 -0.002122913177)
(1.908092508e-07 2.914836652e-19 -0.00212293745)
(1.669767129e-07 2.882267279e-19 -0.002122959577)
(1.425622234e-07 2.887339416e-19 -0.002122979319)
(1.176243019e-07 2.87316603e-19 -0.002122996434)
(9.220165526e-08 2.846616811e-19 -0.002123010668)
(6.632347236e-08 2.804446891e-19 -0.002123021756)
(4.018035787e-08 2.795163732e-19 -0.002123029428)
(1.425997769e-08 2.771052227e-19 -0.002123033405)
(2.206526665e-08 2.495170894e-20 -0.002123009667)
(5.76019518e-08 6.068759788e-20 -0.002123012165)
(9.08579827e-08 -1.910635901e-19 -0.002123017563)
(1.245377639e-07 -1.386302965e-19 -0.002123025559)
(1.573073409e-07 -1.387781783e-19 -0.002123035964)
(1.88800265e-07 -3.038849055e-20 -0.002123048624)
(2.189118983e-07 3.781959274e-20 -0.002123063394)
(2.475516214e-07 8.452937077e-20 -0.002123080141)
(2.746253499e-07 1.136278126e-19 -0.002123098732)
(3.000698625e-07 1.243797317e-19 -0.002123119038)
(3.238149356e-07 1.352508293e-19 -0.002123140944)
(3.458174314e-07 1.490539937e-19 -0.002123164334)
(3.660356322e-07 1.632359069e-19 -0.002123189102)
(3.844271606e-07 1.768930381e-19 -0.00212321514)
(4.009770675e-07 1.877359517e-19 -0.002123242355)
(4.156412651e-07 1.943965234e-19 -0.002123270653)
(4.283947682e-07 1.953817172e-19 -0.002123299945)
(4.392226903e-07 1.88257115e-19 -0.002123330145)
(4.480928e-07 2.292736723e-19 -0.002123361161)
(4.550187815e-07 2.609380313e-19 -0.002123392924)
(4.600155617e-07 2.88786851e-19 -0.002123425362)
(4.630770717e-07 3.151454055e-19 -0.002123458399)
(4.642503702e-07 3.412700572e-19 -0.002123491975)
(4.636059746e-07 3.518011927e-19 -0.002123526027)
(4.611691702e-07 3.638529266e-19 -0.002123560489)
(4.569919278e-07 3.639142391e-19 -0.002123595293)
(4.511741986e-07 3.663024632e-19 -0.002123630379)
(4.437905767e-07 3.711033045e-19 -0.002123665675)
(4.348913724e-07 3.662727835e-19 -0.002123701103)
(4.245633285e-07 3.636605332e-19 -0.002123736581)
(4.129091944e-07 3.62654639e-19 -0.002123772026)
(3.999825991e-07 3.627165069e-19 -0.002123807338)
(3.858181541e-07 3.634220211e-19 -0.002123842403)
(3.704874978e-07 3.645700934e-19 -0.002123877104)
(3.540750465e-07 3.659512965e-19 -0.002123911318)
(3.366268242e-07 3.678573952e-19 -0.002123944904)
(3.181791499e-07 3.70505577e-19 -0.002123977708)
(2.988037298e-07 3.738493711e-19 -0.002124009569)
(2.785755707e-07 3.779986196e-19 -0.002124040318)
(2.575318569e-07 3.832324928e-19 -0.002124069768)
(2.357132398e-07 3.974941789e-19 -0.002124097721)
(2.131956154e-07 4.065059079e-19 -0.002124123971)
(1.900296641e-07 4.107698489e-19 -0.002124148302)
(1.662458932e-07 4.158736633e-19 -0.002124170482)
(1.419088861e-07 4.171133175e-19 -0.002124190276)
(1.170688926e-07 4.146877092e-19 -0.002124207435)
(9.174245156e-08 4.144211862e-19 -0.002124221704)
(6.59834321e-08 4.153931866e-19 -0.002124232818)
(3.997857549e-08 4.157544115e-19 -0.002124240508)
(1.418461949e-08 4.158387758e-19 -0.002124244491)
(2.225453993e-08 1.752948679e-19 -0.002124206076)
(5.809600863e-08 4.385661468e-19 -0.002124208485)
(9.16448757e-08 3.897052498e-19 -0.002124213696)
(1.256199277e-07 4.336533192e-19 -0.00212422142)
(1.586611443e-07 5.182208047e-19 -0.002124231479)
(1.90398557e-07 4.453309066e-19 -0.002124243725)
(2.207304561e-07 4.298887013e-19 -0.002124258019)
(2.495598035e-07 4.708847977e-19 -0.002124274232)
(2.767759624e-07 4.797039902e-19 -0.002124292242)
(3.023304023e-07 3.837042049e-19 -0.002124311928)
(3.261577782e-07 3.303053498e-19 -0.002124333183)
(3.482029991e-07 3.014641402e-19 -0.0021243559)
(3.684173459e-07 2.872708264e-19 -0.002124379979)
(3.867685663e-07 2.826410316e-19 -0.002124405323)
(4.032346322e-07 2.846311634e-19 -0.002124431842)
(4.177671933e-07 2.913547549e-19 -0.002124459439)
(4.303491618e-07 3.015186965e-19 -0.002124488035)
(4.409457609e-07 3.152574827e-19 -0.00212451755)
(4.495548732e-07 3.305985807e-19 -0.002124547905)
(4.562144558e-07 3.283897792e-19 -0.002124579037)
(4.609124283e-07 3.275473158e-19 -0.002124610876)
(4.63673108e-07 3.270430271e-19 -0.002124643356)
(4.645739118e-07 3.264681937e-19 -0.002124676423)
(4.636536225e-07 3.274683562e-19 -0.002124710014)
(4.609498463e-07 3.283045037e-19 -0.002124744062)
(4.565539079e-07 3.285851527e-19 -0.002124778509)
(4.505543496e-07 3.284148319e-19 -0.002124813293)
(4.429991828e-07 3.278240216e-19 -0.002124848336)
(4.339636068e-07 3.271495808e-19 -0.002124883562)
(4.235513044e-07 3.396579862e-19 -0.002124918891)
(4.11822239e-07 3.530121442e-19 -0.002124954231)
(3.988101079e-07 3.673036995e-19 -0.002124989472)
(3.845838055e-07 3.730653685e-19 -0.002125024503)
(3.692292457e-07 3.803720947e-19 -0.002125059208)
(3.527939112e-07 3.799722542e-19 -0.002125093451)
(3.353143541e-07 3.812835759e-19 -0.002125127086)
(3.168639284e-07 3.846038772e-19 -0.002125159958)
(2.97517498e-07 3.818302414e-19 -0.002125191907)
(2.773132332e-07 3.809279635e-19 -0.00212522275)
(2.562948431e-07 3.817324954e-19 -0.002125252298)
(2.345400729e-07 3.841017318e-19 -0.002125280353)
(2.120981319e-07 3.87776899e-19 -0.002125306706)
(1.889999044e-07 3.9273507e-19 -0.00212533113)
(1.653140204e-07 3.921475438e-19 -0.002125353399)
(1.410937686e-07 3.933035459e-19 -0.00212537327)
(1.163668285e-07 3.909909609e-19 -0.002125390495)
(9.117663062e-08 3.842747613e-19 -0.002125404815)
(6.5571568e-08 3.794247747e-19 -0.002125415969)
(3.971346117e-08 3.790941211e-19 -0.002125423682)
(1.40791225e-08 3.805170465e-19 -0.002125427674)
(2.240016204e-08 4.551976813e-20 -0.002125371008)
(5.846909073e-08 -4.239940631e-22 -0.002125373347)
(9.22263977e-08 2.640675373e-19 -0.002125378407)
(1.264217601e-07 4.589822362e-19 -0.002125385902)
(1.596717638e-07 4.609028503e-19 -0.002125395668)
(1.915881702e-07 3.445277022e-19 -0.002125407565)
(2.220606762e-07 2.994888195e-19 -0.002125421459)
(2.510064359e-07 2.834566038e-19 -0.002125437221)
(2.783157994e-07 2.766698636e-19 -0.002125454743)
(3.039295874e-07 3.142179525e-19 -0.002125473914)
(3.277828177e-07 3.043657051e-19 -0.00212549463)
(3.498233419e-07 2.960161533e-19 -0.002125516791)
(3.700016104e-07 2.921403438e-19 -0.002125540301)
(3.882741067e-07 2.944077368e-19 -0.002125565072)
(4.04594448e-07 3.053680892e-19 -0.002125591014)
(4.189330351e-07 3.272410461e-19 -0.002125618039)
(4.312934092e-07 3.372822233e-19 -0.002125646075)
(4.416427119e-07 3.628621634e-19 -0.002125675043)
(4.499952188e-07 3.649153388e-19 -0.002125704882)
(4.563734985e-07 3.620794334e-19 -0.002125735529)
(4.607826887e-07 3.517521304e-19 -0.002125766915)
(4.632845583e-07 3.326764712e-19 -0.002125798989)
(4.639394005e-07 3.03818385e-19 -0.002125831695)
(4.627726258e-07 2.975614028e-19 -0.002125864968)
(4.598631243e-07 2.937100197e-19 -0.00212589875)
(4.553121399e-07 2.90732142e-19 -0.002125932985)
(4.491666584e-07 2.878576619e-19 -0.0021259676)
(4.414900515e-07 2.846991641e-19 -0.00212600252)
(4.323866061e-07 2.813078096e-19 -0.002126037673)
(4.219218799e-07 2.898543357e-19 -0.002126072969)
(4.101283721e-07 2.985046813e-19 -0.002126108307)
(3.970729448e-07 2.96561683e-19 -0.00212614358)
(3.828428123e-07 2.964034983e-19 -0.002126178678)
(3.674854729e-07 2.961054597e-19 -0.002126213471)
(3.510377063e-07 2.963728173e-19 -0.00212624782)
(3.335757244e-07 2.964611325e-19 -0.002126281578)
(3.151732192e-07 2.964817577e-19 -0.00212631459)
(2.958686815e-07 2.972915908e-19 -0.002126346682)
(2.7571023e-07 2.979620312e-19 -0.002126377671)
(2.54776665e-07 2.98311071e-19 -0.002126407367)
(2.331147086e-07 2.981633565e-19 -0.002126435567)
(2.107566938e-07 2.973547948e-19 -0.002126462052)
(1.877762249e-07 2.957311105e-19 -0.002126486603)
(1.642248599e-07 2.931234025e-19 -0.002126508985)
(1.40133045e-07 2.89478291e-19 -0.002126528954)
(1.15560216e-07 2.858354634e-19 -0.002126546261)
(9.054052539e-08 2.803455803e-19 -0.002126560649)
(6.510003863e-08 2.750191508e-19 -0.00212657185)
(3.942343967e-08 2.708467075e-19 -0.002126579594)
(1.397356038e-08 2.682702278e-19 -0.002126583603)
(2.251014253e-08 1.701817186e-19 -0.002126505722)
(5.874748776e-08 -1.337218734e-19 -0.002126508002)
(9.264105985e-08 3.187084531e-20 -0.00212651294)
(1.269766705e-07 1.708507706e-19 -0.002126520251)
(1.603711117e-07 1.210870823e-19 -0.002126529772)
(1.924104818e-07 9.678880722e-20 -0.002126541376)
(2.229581516e-07 7.557134104e-20 -0.002126554938)
(2.519558074e-07 4.396372678e-20 -0.002126570333)
(2.79305943e-07 3.939088102e-20 -0.002126587459)
(3.049258816e-07 9.294267559e-20 -0.002126606212)
(3.287570579e-07 1.249828543e-19 -0.002126626488)
(3.507353207e-07 1.453675024e-19 -0.002126648198)
(3.708093715e-07 1.605424996e-19 -0.002126671243)
(3.889380631e-07 1.421398808e-19 -0.002126695542)
(4.050740847e-07 1.216523495e-19 -0.002126721009)
(4.192043406e-07 1.234018516e-19 -0.002126747574)
(4.313152837e-07 1.21340362e-19 -0.002126775166)
(4.413996302e-07 1.124156328e-19 -0.002126803714)
(4.494968289e-07 1.385277888e-19 -0.002126833162)
(4.556017336e-07 1.583678282e-19 -0.002126863448)
(4.59753687e-07 1.741472099e-19 -0.002126894515)
(4.620336132e-07 1.872187732e-19 -0.002126926315)
(4.624651901e-07 2.001076192e-19 -0.002126958785)
(4.611046867e-07 2.118242547e-19 -0.002126991868)
(4.580553572e-07 2.222040804e-19 -0.002127025512)
(4.533743278e-07 2.310673201e-19 -0.00212705965)
(4.471171788e-07 2.38737594e-19 -0.002127094209)
(4.393845505e-07 2.452957099e-19 -0.00212712912)
(4.302461359e-07 2.502659482e-19 -0.002127164301)
(4.197330657e-07 2.37125713e-19 -0.002127199655)
(4.079108272e-07 2.2080721e-19 -0.00212723508)
(3.948677892e-07 2.00914688e-19 -0.002127270472)
(3.806500976e-07 2.066369251e-19 -0.002127305708)
(3.6529469e-07 2.078243196e-19 -0.002127340655)
(3.488818097e-07 2.061811488e-19 -0.002127375174)
(3.31482988e-07 2.010316654e-19 -0.002127409115)
(3.131364645e-07 2.010175433e-19 -0.002127442312)
(2.938957347e-07 2.062136806e-19 -0.00212747459)
(2.738377427e-07 2.160840248e-19 -0.002127505765)
(2.530080433e-07 2.22700094e-19 -0.002127535642)
(2.314435723e-07 2.264530193e-19 -0.00212756401)
(2.092220901e-07 2.277285903e-19 -0.002127590655)
(1.863919017e-07 2.271195796e-19 -0.002127615351)
(1.629817754e-07 2.256961962e-19 -0.002127637859)
(1.390614901e-07 2.218624804e-19 -0.002127657938)
(1.146743529e-07 2.242764534e-19 -0.002127675337)
(8.983160725e-08 2.316406126e-19 -0.002127689794)
(6.458934641e-08 2.369072845e-19 -0.002127701046)
(3.911918601e-08 2.402120941e-19 -0.002127708823)
(1.38611636e-08 2.389070577e-19 -0.002127712844)
(2.258311854e-08 -1.343517617e-19 -0.002127611411)
(5.893330328e-08 -4.203137899e-19 -0.002127613639)
(9.291416972e-08 -3.635080484e-19 -0.002127618474)
(1.27312748e-07 -4.470223087e-19 -0.002127625638)
(1.607713474e-07 -1.845452216e-19 -0.00212763496)
(1.928764403e-07 -4.965809476e-20 -0.002127646318)
(2.234591547e-07 -2.076353951e-21 -0.002127659604)
(2.524626629e-07 5.584604059e-21 -0.002127674703)
(2.798031424e-07 -2.124144867e-20 -0.002127691504)
(3.053728806e-07 -1.643981647e-20 -0.002127709914)
(3.291194114e-07 1.559788898e-20 -0.00212772983)
(3.509706526e-07 3.38076482e-20 -0.002127751168)
(3.708775475e-07 4.266019025e-20 -0.002127773836)
(3.888045358e-07 4.723611108e-20 -0.00212779776)
(4.047183187e-07 4.460120102e-20 -0.002127822859)
(4.186157417e-07 3.387278484e-20 -0.002127849071)
(4.304700376e-07 4.380057826e-20 -0.002127876325)
(4.403041613e-07 4.583169967e-20 -0.002127904567)
(4.481409522e-07 3.67168572e-20 -0.002127933739)
(4.539955966e-07 4.013651936e-20 -0.00212796378)
(4.579414159e-07 5.517964804e-20 -0.002127994647)
(4.600150405e-07 8.137714916e-20 -0.002128026284)
(4.602549836e-07 1.194882971e-19 -0.00212805863)
(4.587603907e-07 1.53051604e-19 -0.002128091637)
(4.555987708e-07 1.840782798e-19 -0.002128125244)
(4.508179607e-07 1.990642085e-19 -0.002128159383)
(4.445137694e-07 2.139416742e-19 -0.002128193987)
(4.367598386e-07 2.293748047e-19 -0.00212822898)
(4.275856464e-07 2.457329363e-19 -0.002128264268)
(4.170553689e-07 2.363151774e-19 -0.002128299757)
(4.05256584e-07 2.275681732e-19 -0.002128335346)
(3.922349434e-07 2.313507122e-19 -0.00212837092)
(3.780295382e-07 2.346876268e-19 -0.002128406351)
(3.627238554e-07 2.385396326e-19 -0.002128441507)
(3.463858205e-07 2.446929783e-19 -0.002128476246)
(3.290528598e-07 2.510865359e-19 -0.002128510409)
(3.107853046e-07 2.564826902e-19 -0.002128543828)
(2.916572474e-07 2.617458283e-19 -0.002128576326)
(2.717125935e-07 2.657279883e-19 -0.002128607715)
(2.509935535e-07 2.692902758e-19 -0.002128637793)
(2.295786714e-07 2.724249011e-19 -0.002128666351)
(2.075158295e-07 2.751987418e-19 -0.002128693172)
(1.848352584e-07 2.778132084e-19 -0.002128718022)
(1.616095202e-07 2.80432929e-19 -0.002128740667)
(1.378849262e-07 2.832648517e-19 -0.002128760864)
(1.136831697e-07 2.864923818e-19 -0.002128778356)
(8.904843031e-08 2.905056845e-19 -0.002128792886)
(6.402141239e-08 2.952301991e-19 -0.002128804191)
(3.875828089e-08 2.964604353e-19 -0.002128811998)
(1.37233068e-08 2.985471839e-19 -0.002128816033)
(2.26167403e-08 -1.688375988e-19 -0.002128689188)
(5.901851481e-08 8.862363973e-20 -0.002128691373)
(9.303949642e-08 -5.264214759e-20 -0.002128696123)
(1.274522265e-07 -1.571657853e-19 -0.002128703167)
(1.608948708e-07 -5.261311065e-20 -0.00212871234)
(1.929960864e-07 1.181898111e-20 -0.002128723507)
(2.235786181e-07 5.635817361e-20 -0.002128736571)
(2.525303258e-07 1.64233167e-19 -0.002128751428)
(2.797903375e-07 1.178567271e-19 -0.002128767963)
(3.05254844e-07 9.203279846e-20 -0.002128786089)
(3.288598081e-07 7.405015395e-20 -0.002128805711)
(3.505417659e-07 5.633441899e-20 -0.002128826744)
(3.702542719e-07 3.607349536e-20 -0.002128849113)
(3.879589044e-07 8.015488169e-20 -0.00212887274)
(4.036340436e-07 8.814586173e-20 -0.00212889756)
(4.172712941e-07 9.26807633e-20 -0.002128923509)
(4.288668755e-07 1.228758202e-19 -0.002128950524)
(4.384575352e-07 1.538813752e-19 -0.002128978559)
(4.460446865e-07 1.402989746e-19 -0.002129007552)
(4.516853934e-07 1.309356026e-19 -0.002129037456)
(4.554364861e-07 1.246870858e-19 -0.002129068223)
(4.573210073e-07 1.194905852e-19 -0.002129099792)
(4.574274418e-07 1.317138642e-19 -0.002129132115)
(4.558346047e-07 1.421486406e-19 -0.00212916514)
(4.525848713e-07 1.505382824e-19 -0.0021291988)
(4.47764451e-07 1.586092117e-19 -0.002129233031)
(4.414473918e-07 1.642996408e-19 -0.002129267762)
(4.33664922e-07 1.674422158e-19 -0.002129302904)
(4.244806281e-07 1.672207354e-19 -0.002129338367)
(4.139799513e-07 1.910285217e-19 -0.002129374057)
(4.022079667e-07 2.134429681e-19 -0.002129409863)
(3.89206757e-07 2.373377908e-19 -0.002129445665)
(3.750630355e-07 2.421728985e-19 -0.002129481339)
(3.598400274e-07 2.49718627e-19 -0.002129516748)
(3.435736804e-07 2.702205808e-19 -0.002129551739)
(3.263325176e-07 2.930481291e-19 -0.002129586153)
(3.081866781e-07 3.086632242e-19 -0.002129619821)
(2.89178116e-07 3.184454112e-19 -0.00212965256)
(2.693576697e-07 3.232156597e-19 -0.002129684176)
(2.488005745e-07 3.254282326e-19 -0.002129714469)
(2.275523777e-07 3.251360143e-19 -0.002129743228)
(2.056481734e-07 3.214621722e-19 -0.002129770227)
(1.831610657e-07 3.198582622e-19 -0.002129795239)
(1.601390758e-07 3.182488963e-19 -0.002129818025)
(1.366086578e-07 3.175764227e-19 -0.002129838338)
(1.126239734e-07 3.145728522e-19 -0.002129855924)
(8.821435138e-08 3.108818033e-19 -0.002129870527)
(6.340973608e-08 3.086914978e-19 -0.002129881882)
(3.838672404e-08 3.014516044e-19 -0.002129889721)
(1.359009145e-08 2.987341375e-19 -0.00212989377)
(2.261558443e-08 -5.240466102e-20 -0.002129740146)
(5.901299832e-08 -2.210129517e-19 -0.002129742292)
(9.302730776e-08 3.019769528e-21 -0.002129746965)
(1.27422903e-07 1.432059307e-19 -0.002129753906)
(1.608063084e-07 2.017994168e-20 -0.002129762955)
(1.928246252e-07 6.843584863e-20 -0.002129773978)
(2.233338041e-07 9.81574245e-20 -0.002129786861)
(2.521830609e-07 1.186834009e-19 -0.002129801515)
(2.792978281e-07 1.418696786e-19 -0.002129817837)
(3.046020127e-07 1.72138679e-19 -0.00212983573)
(3.280068527e-07 1.683602023e-19 -0.002129855119)
(3.494709477e-07 1.3297834e-19 -0.002129875914)
(3.689469575e-07 9.95786554e-20 -0.002129898054)
(3.864015292e-07 1.248316108e-19 -0.00212992146)
(4.018247326e-07 1.451030436e-19 -0.00212994608)
(4.152026973e-07 1.594480536e-19 -0.002129971847)
(4.265650066e-07 1.674067781e-19 -0.002129998714)
(4.359206933e-07 1.714484017e-19 -0.002130026625)
(4.432943892e-07 1.702266201e-19 -0.002130055529)
(4.487536356e-07 1.63896509e-19 -0.002130085385)
(4.523214348e-07 1.727398642e-19 -0.002130116133)