/*--------------------------------*- C++ -*----------------------------------*\
  =========                 |
  \\      /  F ield         | OpenFOAM: The Open Source CFD Toolbox
   \\    /   O peration     | Website:  https://openfoam.org
    \\  /    A nd           | Version:  7
     \\/     M anipulation  |
\*---------------------------------------------------------------------------*/
FoamFile
{
    version     2.0;
    format      ascii;
    class       volTensorField;
    location    "0.0009";
    object      grad(U);
}
// * * * * * * * * * * * * * * * * * * * * * * * * * * * * * * * * * * * * * //

dimensions      [0 0 -1 0 0 0 0];

internalField   nonuniform List<tensor> 
14000
(
(-0.002980502598 3.586103796e-17 -0.0001757250275 -2.65957848e-15 -0.004826901449 0 0.0005944225602 -2.96967567e-16 0.008367964102)
(-0.004006389747 -3.224895256e-16 -0.000460565706 -9.255491727e-16 -0.004247662423 0 0.001558191336 -5.140836533e-16 0.008434539373)
(-0.004042522416 -6.494908614e-16 -0.0007589084433 -3.393573181e-16 -0.004096013839 0 0.002471930378 -6.612285949e-16 0.008586926674)
(-0.004278114987 -7.722173145e-16 -0.001037103057 -3.775835292e-17 -0.004111342787 0 0.003415791364 -5.418639992e-16 0.00880872603)
(-0.004486149607 -8.636247677e-17 -0.001321024723 1.328580905e-16 -0.004165832907 0 0.004364273492 -4.607625159e-16 0.009095533566)
(-0.004711530858 4.261233766e-16 -0.001605486369 2.032135697e-17 -0.004237160132 0 0.005309918223 -4.82005407e-16 0.009442397915)
(-0.004968818541 2.428567826e-16 -0.001889217742 -2.651983635e-17 -0.00432196212 0 0.00625382738 -3.625811462e-16 0.009844331402)
(-0.005253587532 1.40251821e-16 -0.0021734055 -4.726344825e-17 -0.004418381793 0 0.007197126135 -2.559731353e-16 0.01029666229)
(-0.005560168252 8.825400872e-17 -0.002459452126 -4.287779769e-17 -0.004524657866 0 0.008139997155 -1.584323119e-16 0.01079506317)
(-0.00588395607 6.49699519e-17 -0.002748627603 -5.259227727e-17 -0.00463926119 0 0.009082014501 -1.593454426e-16 0.01133553459)
(-0.006220433885 4.670015261e-17 -0.003042165756 -6.1152118e-17 -0.004760831745 0 0.01002221131 -1.546606872e-16 0.01191439614)
(-0.006564870781 3.320874016e-17 -0.003341272138 -4.592268727e-17 -0.004888096793 0 0.01095910971 -1.44785698e-16 0.01252827024)
(-0.006912345328 3.335023422e-17 -0.003647112947 -3.257612703e-17 -0.005019830882 0 0.01189073329 -1.322804742e-16 0.01317405995)
(-0.007257727547 3.907411459e-17 -0.00396079841 -6.201791786e-17 -0.005154835983 0 0.01281466148 -1.49230554e-16 0.01384893832)
(-0.00759564966 3.905060397e-17 -0.004283335992 -5.935846383e-17 -0.005291926705 0 0.01372810357 -1.61017603e-16 0.01455032473)
(-0.007920716211 3.303826792e-17 -0.004615676777 -5.708299158e-17 -0.005429921703 0 0.01462780796 -1.405859138e-16 0.01527586128)
(-0.00822767171 2.670003977e-17 -0.004958837842 -3.674844184e-17 -0.005567660249 0 0.01551007289 -1.439813683e-16 0.01602340479)
(-0.008510534448 3.189464515e-17 -0.005313938758 -1.780813339e-17 -0.005704009449 0 0.01637097082 -1.685382808e-16 0.01679102611)
(-0.008762039421 3.890923945e-17 -0.005682211399 -5.194662477e-17 -0.005837793981 0 0.01720622521 -1.892279064e-16 0.01757701555)
(-0.008974604049 3.31112863e-17 -0.006064897596 -6.754174736e-17 -0.00596777091 0 0.01801114929 -2.058955788e-16 0.01837987662)
(-0.009141156329 2.853600478e-17 -0.006463176935 -4.952689643e-17 -0.006092671505 0 0.01878080624 -2.189167606e-16 0.01919830888)
(-0.00925476601 2.922950834e-17 -0.006878350831 -4.853678358e-17 -0.006211239957 0 0.01951004882 -2.306863672e-16 0.02003120981)
(-0.009307040071 2.037382544e-16 -0.007311918095 -4.766823438e-17 -0.006322225944 0 0.02019354072 -2.597133556e-16 0.02087768963)
(-0.009288341087 3.769014519e-16 -0.007765230553 -6.254206559e-17 -0.006424303168 0 0.02082575589 -3.000996691e-16 0.02173707391)
(-0.009189579504 3.807830683e-16 -0.008239336129 -6.165259893e-17 -0.006516095903 0 0.02140097637 -3.397035457e-16 0.02260886687)
(-0.009000947664 3.824186024e-16 -0.008734945162 -6.087546521e-17 -0.006596230101 0 0.02191336368 -3.622026383e-16 0.02349274282)
(-0.008711663207 2.197792272e-16 -0.009252022986 -9.029848684e-17 -0.006663268996 0 0.02235698949 -3.840772478e-16 0.02438852181)
(-0.008310621495 6.932074877e-17 -0.009789483818 -8.941983633e-17 -0.006715746987 0 0.0227259162 -3.927482046e-16 0.02529610939)
(-0.007785678653 2.591385997e-16 -0.01034484967 -7.388704296e-17 -0.006752154272 0 0.02301416321 -4.008859783e-16 0.02621544919)
(-0.00712483203 4.598912743e-16 -0.01091393673 -8.802130741e-17 -0.006770928166 0 0.02321569148 -4.223211981e-16 0.02714642531)
(-0.006314756629 2.266471884e-16 -0.01149062549 -1.166411463e-16 -0.006770502181 0 0.02332456301 -4.459398969e-16 0.02808876826)
(-0.005339276624 1.055353767e-17 -0.01206634945 -7.252901055e-17 -0.006749224227 0 0.02333490628 -4.505833624e-16 0.02904193154)
(-0.004181931836 7.568625318e-17 -0.01262986639 -1.155679005e-16 -0.006705338431 0 0.02324089231 -4.57498795e-16 0.03000491994)
(-0.002826737899 1.31143623e-16 -0.01316757051 -1.151971434e-16 -0.006637039829 0 0.02303681895 -4.664767303e-16 0.03097611412)
(-0.001255529131 1.681953607e-16 -0.01366385537 -1.005608762e-16 -0.006542485361 0 0.02271720303 -4.781630353e-16 0.03195310936)
(0.0005527054623 1.899567538e-16 -0.01410131983 -1.14750072e-16 -0.006419728643 0 0.02227676319 -4.913674079e-16 0.03293254978)
(0.002620181968 2.129746439e-16 -0.01446127522 -1.146614276e-16 -0.006266713983 0 0.0217104318 -5.050087337e-16 0.03390998032)
(0.004969789597 2.34797779e-16 -0.01472438516 -1.003237053e-16 -0.006081290108 0 0.02101341087 -5.196206664e-16 0.03487976071)
(0.007626312991 2.539230453e-16 -0.01487108744 -1.147282327e-16 -0.005861224427 0 0.0201812635 -5.350446877e-16 0.0358350343)
(0.01061720742 1.409435563e-16 -0.01488154302 -1.00515711e-16 -0.005604171332 0 0.01920993045 -5.51396013e-16 0.03676778825)
(0.01397046968 3.534828376e-17 -0.01473529036 -1.007060803e-16 -0.005307663721 0 0.01809573432 -5.60404881e-16 0.03766896146)
(0.01771445576 6.90266384e-17 -0.01441053774 -1.153777233e-16 -0.004969159663 0 0.01683546383 -5.607582529e-16 0.03852864287)
(0.02187863129 9.917071697e-17 -0.01388261953 -1.157274236e-16 -0.004586036982 0 0.01542643516 -5.532842869e-16 0.03933629236)
(0.0264942381 1.259497961e-16 -0.01312191783 -1.088805081e-16 -0.004155609755 0 0.01386656752 -5.475444454e-16 0.04008096868)
(0.03159274076 1.553577072e-16 -0.01209120899 -1.093226307e-16 -0.003675104119 0 0.01215437691 -5.43487007e-16 0.0407515334)
(0.03718846817 1.870996924e-16 -0.01074336373 -1.098189184e-16 -0.003141719458 0 0.01028910039 -5.409828735e-16 0.04133679473)
(0.04328151574 5.938010986e-17 -0.009021167713 -1.030098324e-16 -0.002553073209 0 0.008271531321 -5.404943016e-16 0.04182560808)
(0.05006817569 -7.18181511e-17 -0.00684917474 -1.072684748e-16 -0.001907116826 0 0.0061042664 -5.316414833e-16 0.04220697008)
(0.05806484524 -4.515898577e-17 -0.004088138228 -1.041755926e-16 -0.001197145994 0 0.003782066707 -5.236456404e-16 0.04246973247)
(0.06465515906 -1.528590156e-17 -0.00126678237 -1.038908519e-16 -0.0004093046442 0 0.001283704629 -5.236128026e-16 0.04260044643)
(-0.007645899736 2.341618097e-15 -0.0005571410903 -5.971930766e-15 -0.01240715553 0 0.0003451434513 7.077502481e-17 0.02173841789)
(-0.01018567264 2.970497116e-15 -0.001325025994 -4.098578798e-15 -0.01090481587 0 0.0009009501705 2.063668876e-16 0.02177222989)
(-0.01004370723 5.788098363e-16 -0.002140175989 -3.529973042e-15 -0.01045263835 0 0.001413396175 -1.146864192e-16 0.02183778033)
(-0.01028497315 -7.448186508e-16 -0.002921694088 -2.270106109e-15 -0.01037874721 0 0.001921602247 -3.860698012e-16 0.02193462447)
(-0.01035231547 -3.18176094e-16 -0.00367525995 -1.619126055e-15 -0.01036573362 5.024197213e-14 0.00240426669 -6.202405778e-16 0.02205900266)
(-0.01036858875 -1.273338233e-15 -0.004392409116 -1.320821374e-15 -0.01036167885 0 0.002851525994 -5.44030959e-16 0.02220704348)
(-0.01037693654 -2.061239446e-15 -0.005071135419 -8.079853825e-16 -0.01036086071 0 0.003259244937 -5.066394896e-16 0.02237522014)
(-0.01037399191 -1.816450245e-15 -0.005711228664 -4.799951101e-16 -0.01036102159 0 0.003624244602 -4.944441967e-16 0.02256006812)
(-0.01035290617 -8.607052096e-16 -0.006313132033 -2.322429867e-16 -0.01036009067 0 0.00394359055 -4.950211885e-16 0.02275813509)
(-0.01030825626 -9.860753689e-17 -0.006877739802 -2.403509812e-16 -0.01035638133 0 0.004214739675 -4.978637863e-16 0.02296605642)
(-0.01023468124 -1.749114387e-16 -0.007406175898 -1.987343282e-16 -0.01034842174 0 0.004435630324 -5.060812098e-16 0.02318060046)
(-0.01012671412 -2.325289482e-16 -0.007899609321 -1.399136086e-16 -0.01033487713 0 0.004604681862 -5.193083302e-16 0.02339869006)
(-0.009978988209 1.580941149e-17 -0.008359276077 -1.323338204e-16 -0.01031448583 0 0.004720632596 -4.947525542e-16 0.02361743521)
(-0.009786829796 2.244821614e-16 -0.008786445289 -1.049729351e-16 -0.01028607214 0 0.004782547697 -4.73289218e-16 0.02383414294)
(-0.009544948794 -1.286505941e-16 -0.009182322561 -1.205657794e-16 -0.01024858184 0 0.004789908882 -4.564994033e-16 0.02404634649)
(-0.009246660099 -1.893147476e-16 -0.009548124917 -1.159439603e-16 -0.01020093223 0 0.004742541599 -4.453864856e-16 0.02425181839)
(-0.008886707971 2.512954658e-16 -0.009885161586 -9.330186984e-17 -0.0101419921 0 0.004640613139 -4.362025202e-16 0.02444856451)
(-0.008460820589 4.165309903e-16 -0.01019493221 -1.265982929e-16 -0.01007077715 0 0.004484596095 -4.259825372e-16 0.02463481597)
(-0.007963549632 3.383091614e-16 -0.01047907241 -1.230964502e-16 -0.009986348608 0 0.004275365094 -4.20579263e-16 0.02480903526)
(-0.00739007371 2.722979016e-16 -0.01073923277 -1.20038829e-16 -0.009887768488 0 0.004014386144 -4.191131273e-16 0.02496988785)
(-0.006736417293 2.317450696e-16 -0.01097723283 -1.005964185e-16 -0.009774192226 0 0.003703580062 -4.217079492e-16 0.02511623802)
(-0.00599852436 4.114783213e-16 -0.01119521784 -1.643089226e-16 -0.009644836111 0 0.003345170057 -4.267226465e-16 0.02524712783)
(-0.005173435094 5.584238481e-16 -0.0113956153 -1.452318034e-16 -0.009498976082 8.262075925e-15 0.002941770763 -4.132794145e-16 0.02536173346)
(-0.004258812876 5.168744386e-16 -0.01158092871 -1.429111612e-16 -0.009336005575 0 0.002496601285 -3.71920696e-16 0.02545932203)
(-0.003251986634 3.237336129e-16 -0.01175375993 -2.034914465e-16 -0.009155391431 0 0.002013428088 -3.541759234e-16 0.02553923297)
(-0.002151599304 1.347257584e-16 -0.01191694117 -1.854705489e-16 -0.008956661479 0 0.001496421797 -3.223841801e-16 0.02560081616)
(-0.0009580785776 1.393183979e-16 -0.01207330241 -1.986936483e-16 -0.008739471866 -7.825472916e-15 0.0009503240823 -2.766573312e-16 0.0256433928)
(0.000327708202 1.327008406e-16 -0.01222562608 -1.816248529e-16 -0.008503610904 0 0.0003803483207 -2.629645986e-16 0.02566624106)
(0.001704849062 1.08306413e-16 -0.01237640136 -1.500754627e-16 -0.008248972261 7.68386369e-15 -0.0002077739834 -2.506822698e-16 0.02566857616)
(0.003171184891 1.072880003e-16 -0.01252740383 -1.638855485e-16 -0.007975540571 0 -0.0008077169624 -2.128191713e-16 0.02564954954)
(0.004722038803 1.302860855e-16 -0.01267936187 -1.924937148e-16 -0.007683431742 -7.581290923e-15 -0.001412723648 -1.738721696e-16 0.02560827535)
(0.006350890049 1.391312171e-16 -0.01283118562 -1.620488088e-16 -0.007372933549 0 -0.002015465914 -1.760234516e-16 0.02554388665)
(0.008050392834 1.347178445e-16 -0.01297914062 -1.613806019e-16 -0.00704449623 0 -0.002607947214 -1.749286103e-16 0.02545563794)
(0.009811525749 1.480526803e-16 -0.01311621866 -1.608628717e-16 -0.006698717719 0 -0.00318165934 -1.851199101e-16 0.0253430136)
(0.01162216458 1.741914575e-16 -0.01323143167 -1.750748102e-16 -0.006336371889 0 -0.003727599698 -1.816213219e-16 0.02520584351)
(0.01346741242 1.861009445e-16 -0.01330930773 -1.748057183e-16 -0.005958447663 0 -0.004236147396 -1.785354563e-16 0.02504442021)
(0.01533017508 1.905485415e-16 -0.01333003041 -1.601147908e-16 -0.005566149133 0 -0.004697070392 -1.644343697e-16 0.02485960404)
(0.01719043916 2.023081719e-16 -0.01327007406 -1.746618996e-16 -0.005160901037 0 -0.005099500875 -1.399040144e-16 0.02465290173)
(0.0190244591 2.172423818e-16 -0.01310366381 -1.747724491e-16 -0.004744370701 0 -0.005432057342 -1.054312884e-16 0.02442652)
(0.02080511507 2.393807587e-16 -0.01280480748 -1.822876858e-16 -0.004318493849 -7.466503611e-15 -0.00568277832 -7.256474649e-17 0.02418338863)
(0.02250289957 1.060983149e-16 -0.0123498544 -1.68022291e-16 -0.003885472631 0 -0.005839096976 -5.671512654e-17 0.02392718185)
(0.02408507439 -1.804891762e-16 -0.01172024218 -1.611150359e-16 -0.003447760731 0 -0.005887976437 -5.160254381e-17 0.02366233219)
(0.02551481146 -3.065643326e-16 -0.01090497689 -1.616033622e-16 -0.003008086309 0 -0.005815962811 -4.649872209e-17 0.02339407468)
(0.026751399 -2.817388696e-16 -0.00990296886 -1.621783845e-16 -0.002569459322 0 -0.005609335547 -4.121709905e-17 0.02312853227)
(0.02775076152 -2.605043919e-16 -0.008724831281 -1.480335723e-16 -0.002135178887 0 -0.005254106211 -3.557461713e-17 0.02287284397)
(0.02846807312 -2.338954574e-16 -0.007393897735 -1.487055946e-16 -0.001708819672 0 -0.004736260898 -2.947835458e-17 0.02263536156)
(0.02885151638 -2.199004345e-16 -0.005945904061 -1.41976235e-16 -0.001294164747 -7.651771824e-15 -0.004042902298 -2.237661802e-17 0.02242585276)
(0.02881759754 -2.221261594e-16 -0.004430482538 -1.371129205e-16 -0.0008953634166 0 -0.003162092783 -2.787852342e-17 0.02225560527)
(0.02829058082 -9.589971691e-17 -0.002915473595 -1.313028541e-16 -0.0005174820357 0 -0.002071277203 -3.046639316e-17 0.02213801195)
(0.02747385899 1.446100941e-17 -0.001080983429 -1.297473181e-16 -0.0001655840148 0 -0.0007315559917 -3.130582383e-17 0.02209126571)
(-0.009060416442 -1.394288286e-15 -0.0005467239293 -6.543083748e-16 -0.01475409565 0 2.417607712e-05 1.525429814e-16 0.02718495006)
(-0.01199683001 1.753093419e-15 -0.001258334168 9.632019645e-16 -0.01293951368 0 6.155927039e-05 4.396552027e-16 0.02716917034)
(-0.01170138801 3.71193371e-15 -0.002015174246 -1.060635351e-15 -0.01234916751 -8.688724793e-14 8.919509085e-05 7.755243604e-16 0.0271280337)
(-0.01182429262 3.011707757e-15 -0.002754136081 -1.682362607e-15 -0.01219913225 0 0.0001052693325 5.497263417e-16 0.02706870119)
(-0.01169584034 9.339930938e-16 -0.003462226064 -1.893484384e-15 -0.01210889451 0 0.0001044590476 4.273760967e-16 0.02699253021)
(-0.01146544965 -4.668752507e-16 -0.004130435301 -1.488106016e-15 -0.01201634882 -4.292452283e-14 8.335376046e-05 3.432261626e-16 0.02690082894)
(-0.01118960277 -1.751187493e-16 -0.004756583048 -1.203500667e-15 -0.01191531361 0 3.93267759e-05 -1.517245276e-17 0.02679498172)
(-0.01086899586 2.186634665e-17 -0.005339153721 -1.007438764e-15 -0.01180422572 0 -2.955630945e-05 -3.288417946e-16 0.02667626864)
(-0.01049967452 1.033326417e-16 -0.005877290943 -9.43439399e-16 -0.01168168631 3.019006077e-14 -0.0001247282836 -6.178435445e-16 0.02654583286)
(-0.01008105381 1.579619468e-16 -0.006371071553 -8.678901868e-16 -0.01154681558 0 -0.0002471316547 -7.044309519e-16 0.02640469447)
(-0.00961383618 2.293000085e-16 -0.006821185773 -8.073173609e-16 -0.01139920949 0 -0.0003970079486 -7.038426402e-16 0.02625376638)
(-0.009097577366 -8.108342257e-17 -0.007228878175 -7.815091316e-16 -0.01123875201 0 -0.0005740618571 -7.280987897e-16 0.02609390129)
(-0.008530781262 -3.75338425e-16 -0.007595860255 -6.495745596e-16 -0.01106531591 2.293670169e-14 -0.0007775185993 -7.719756455e-16 0.02592591783)
(-0.007913025344 -3.034572754e-16 -0.007924311113 -5.970033621e-16 -0.01087879038 0 -0.001006199019 -7.228731745e-16 0.02575059272)
(-0.00724419608 -2.195372338e-16 -0.00821688578 -5.714026479e-16 -0.01067918605 -1.044850556e-14 -0.001258586355 -6.936865713e-16 0.0255686937)
(-0.006523927521 -1.607175084e-16 -0.008476477059 -5.102483834e-16 -0.01046653234 1.004796817e-14 -0.001532659195 -7.015306878e-16 0.02538098726)
(-0.005752083939 -1.560495044e-16 -0.008706155445 -4.54823603e-16 -0.0102409018 9.702903532e-15 -0.001825915617 -6.366822878e-16 0.02518822183)
(-0.004928893895 -1.135389758e-16 -0.008909327409 -4.408110378e-16 -0.01000239317 0 -0.002135614696 -5.081183629e-16 0.02499112778)
(-0.004056681245 -2.371908057e-17 -0.009089540814 -4.286177383e-16 -0.009751160862 0 -0.00245865717 -3.969548741e-16 0.02479038304)
(-0.003138668203 4.942318994e-17 -0.009250284064 -4.005557362e-16 -0.009487543277 0 -0.00279157092 -3.262438368e-16 0.02458659667)
(-0.002176427263 1.111089882e-16 -0.009394964461 -3.916250958e-16 -0.009211953016 0 -0.003130698228 -2.644809541e-16 0.02438030618)
(-0.001171695782 -5.775190493e-17 -0.00952666294 -3.504223938e-16 -0.008924786781 8.543631697e-15 -0.003472127532 -2.086541863e-16 0.02417192542)
(-0.0001286715723 -3.851861619e-16 -0.009647923432 -3.60539881e-16 -0.008626503639 0 -0.003811713261 -1.214249782e-16 0.02396170245)
(0.0009471331858 -2.617061004e-16 -0.009760610559 -3.54778856e-16 -0.008317704851 0 -0.004145250921 -6.174771575e-17 0.02374969524)
(0.002050864238 -1.749752849e-16 -0.009865476062 -3.656301935e-16 -0.007999094036 -8.139246046e-15 -0.004468373383 -2.853396622e-18 0.02353577287)
(0.003177077789 -5.042527286e-16 -0.009961830001 -2.825384939e-16 -0.007671415849 0 -0.004776532923 1.932155728e-17 0.02331959503)
(0.004319540682 -4.614809711e-16 -0.01004757895 -2.793988063e-16 -0.00733551162 0 -0.005065254494 4.029784852e-17 0.02310060552)
(0.005471817284 -2.354152675e-16 -0.01011908361 -2.613089955e-16 -0.006992276465 0 -0.005330168679 4.424699822e-17 0.02287806307)
(0.006625909523 -3.506980051e-16 -0.01017094462 -2.286190204e-16 -0.006642673397 0 -0.005566900765 4.708524487e-17 0.02265104718)
(0.007773511797 -4.852466829e-16 -0.01019622674 -2.269606897e-16 -0.006287768352 0 -0.005771125801 4.857967184e-17 0.02241851963)
(0.008906563143 -2.24421701e-16 -0.01018696179 -1.95491538e-16 -0.005928671764 0 -0.00593869907 5.054529337e-17 0.02217939179)
(0.01001550359 2.531996922e-17 -0.0101346939 -1.944947664e-16 -0.0055665465 0 -0.006065752669 6.749974137e-17 0.02193260484)
(0.01109030902 1.967919696e-16 -0.01003109601 -1.936927689e-16 -0.00520264092 0 -0.006148675978 8.326189596e-17 0.02167723902)
(0.01212115884 2.167266817e-16 -0.009868702877 -2.079230214e-16 -0.004838243739 0 -0.006184147746 1.120147666e-16 0.02141265789)
(0.01309740958 8.001639893e-17 -0.009641666743 -2.074349177e-16 -0.00447468682 0 -0.00616932538 1.396673927e-16 0.02113864113)
(0.01400797757 -4.766154953e-17 -0.00934612687 -1.997190848e-16 -0.004113350855 0 -0.006101870518 1.676409019e-16 0.02085554642)
(0.01484086183 -3.282194252e-16 -0.008980494885 -1.995648018e-16 -0.003755651036 0 -0.005980036298 1.822636282e-16 0.02056444926)
(0.01558418091 -6.060119181e-16 -0.008545654235 -1.773820168e-16 -0.003403060174 0 -0.005802769089 1.967330098e-16 0.02026725822)
(0.01622673759 -7.208827664e-16 -0.008044831275 -1.55307502e-16 -0.003057056638 0 -0.005569781089 2.002097473e-16 0.01996678554)
(0.01675666059 -5.721350929e-16 -0.007483282578 -1.555063139e-16 -0.002719129317 0 -0.005281686167 2.048468609e-16 0.01966672919)
(0.01716217302 -2.761146614e-16 -0.006867991645 -1.409626568e-16 -0.002390781195 -7.597145294e-15 -0.00494005533 2.210563072e-16 0.01937159143)
(0.01743261662 -9.116702333e-17 -0.006207504165 -1.375930601e-16 -0.002073507643 -7.615961811e-15 -0.004547465207 2.208727156e-16 0.01908649045)
(0.01755964093 -6.906697047e-17 -0.005511735504 -1.305500882e-16 -0.001768770056 0 -0.004107601351 1.955996951e-16 0.01881690926)
(0.01753716844 -5.398869585e-17 -0.004791577758 -1.27271341e-16 -0.001477946616 0 -0.003625308619 1.723504189e-16 0.01856837578)
(0.01736160946 -4.119640691e-17 -0.004058547255 -1.24029667e-16 -0.001202319215 0 -0.003106661067 1.50931381e-16 0.01834610245)
(0.01703413201 -3.731845443e-17 -0.00332437548 -1.245927197e-16 -0.0009430308182 0 -0.002559010156 1.31308879e-16 0.01815460858)
(0.01655831525 3.113522672e-17 -0.002600011487 -1.233181012e-16 -0.0007010199483 0 -0.001990877585 1.14107052e-16 0.01799735373)
(0.01592835401 6.374791953e-17 -0.001894958206 -1.220806702e-16 -0.0004770580155 0 -0.001412161684 9.906500339e-17 0.01787644222)
(0.01513957644 1.346349484e-17 -0.001219377538 -1.194373412e-16 -0.0002719941175 7.858881118e-15 -0.0008350102399 8.832025001e-17 0.01779225121)
(0.01441813491 -9.762311039e-20 -0.0004440353868 -1.182532911e-16 -8.649639606e-05 0 -0.0002717973811 8.942349223e-17 0.01774300908)
(-0.008065529456 -7.713212194e-16 -0.000389182667 -1.61013055e-15 -0.01311982946 0 -0.0001602103639 -2.496338396e-16 0.02647032112)
(-0.010676786 -1.684731367e-15 -0.0008715196034 1.397432146e-16 -0.01151393069 1.430970517e-13 -0.0004200274035 -7.104543724e-16 0.02644214987)
(-0.01037712139 3.729643226e-16 -0.001387008556 8.832656882e-16 -0.0109885084 0 -0.0006662309554 -2.914561278e-16 0.02637866731)
(-0.01040960821 1.81859261e-15 -0.001900982561 0 -0.01083774957 0 -0.0009210564613 -7.395216738e-18 0.02628631854)
(-0.01019530587 1.237612276e-15 -0.002394093555 -2.78325008e-16 -0.01072821022 0 -0.001178232162 1.951422902e-16 0.02616759111)
(-0.009872508901 2.28494394e-15 -0.00286067367 -4.044273654e-16 -0.01060825822 0 -0.001435710899 1.516586011e-16 0.02602523561)
(-0.009493020841 3.216816769e-15 -0.003299885652 -8.703855396e-16 -0.01047381572 0 -0.001693886811 1.191600414e-16 0.02586198888)
(-0.009060575523 3.015849654e-15 -0.003710769904 -1.122140637e-15 -0.01032457549 0 -0.001953083703 9.63679348e-17 0.02568050261)
(-0.008574512001 2.136148169e-15 -0.00409264799 -1.347373353e-15 -0.01016025193 0 -0.002213183144 7.807209471e-17 0.02548333855)
(-0.0080378961 5.891284921e-16 -0.004445357773 -1.322109563e-15 -0.009980884034 0 -0.00247362527 5.785068879e-17 0.02527293319)
(-0.007454820823 3.980851216e-17 -0.004769367687 -1.204213748e-15 -0.009787034967 0 -0.002733687035 3.571270438e-17 0.02505155045)
(-0.006828155044 3.627131003e-16 -0.005065723231 -1.154443716e-15 -0.009579401346 -1.23140663e-14 -0.002992577834 6.567698675e-17 0.02482131034)
(-0.006160335309 -6.224587748e-17 -0.00533564777 -1.06915403e-15 -0.009358706505 0 -0.003249115411 1.117231565e-17 0.02458414213)
(-0.005453826525 -4.768444637e-16 -0.005580610419 -9.744121015e-16 -0.009125668079 0 -0.003501881105 -2.048159961e-18 0.02434178556)
(-0.004711991738 -3.13992632e-16 -0.005802374395 -8.911772317e-16 -0.008881013038 0 -0.003749375574 2.189743031e-17 0.02409575346)
(-0.003938702251 -7.35796126e-16 -0.006002642984 -8.171533318e-16 -0.008625552808 0 -0.003989812319 3.900287936e-17 0.02384734202)
(-0.003137423126 -1.597709786e-15 -0.006183069891 -7.313525143e-16 -0.008360128931 0 -0.004221284457 4.64214927e-17 0.02359761378)
(-0.00231210332 -1.894444276e-15 -0.006345161826 -5.782482436e-16 -0.008085579357 0 -0.004441801722 3.99210696e-17 0.0233473936)
(-0.001467378316 -1.440844893e-15 -0.006490042826 -4.897044747e-16 -0.007802795498 0 -0.004649239988 8.174063585e-17 0.02309725303)
(-0.0006073924729 -1.052444332e-15 -0.006618598915 -4.24480526e-16 -0.007512704915 0 -0.004841642468 1.192241354e-16 0.02284753082)
(0.0002635015332 -9.656360531e-16 -0.006731230269 -3.63139409e-16 -0.007216214877 0 -0.005017079247 1.761675454e-16 0.02259833057)
(0.001140064256 -1.086455957e-15 -0.006827549722 -3.050397751e-16 -0.006914266379 -8.676686935e-15 -0.005173468579 2.529381353e-16 0.02234953687)
(0.002017492434 -1.002244718e-15 -0.006906534181 -2.662943932e-16 -0.006607834559 0 -0.00530878228 2.86569091e-16 0.0221008541)
(0.002890645034 -7.714997582e-16 -0.006966710241 -2.129069361e-16 -0.006297873353 8.385257789e-15 -0.00542123377 3.056342172e-16 0.0218518534)
(0.00375303838 -5.651534325e-16 -0.007006164918 -2.098789961e-16 -0.005985376163 -8.266003537e-15 -0.005509243252 3.625111887e-16 0.02160201377)
(0.004599092702 -3.571009906e-16 -0.007022557911 -1.75351391e-16 -0.005671387785 -8.1618102e-15 -0.005571304604 3.670582875e-16 0.02135081199)
(0.005424365228 -1.500648625e-16 -0.007013438366 -1.5763892e-16 -0.005356911691 0 -0.005606131885 3.414086355e-16 0.02109779722)
(0.00622297298 4.856939161e-17 -0.006976336626 -1.561050126e-16 -0.005042921965 0 -0.005612642063 3.367024034e-16 0.0208426478)
(0.006988204323 5.035089401e-17 -0.006908922162 -1.47046982e-16 -0.004730433291 0 -0.00558995705 3.336879924e-16 0.02058525298)
(0.007714176236 5.642332577e-17 -0.006809382056 -1.459803492e-16 -0.004420465818 0 -0.005537533272 3.20197771e-16 0.02032579491)
(0.008395283385 -1.10543058e-16 -0.006676463924 -1.450840351e-16 -0.004114020043 0 -0.005455099588 3.079783672e-16 0.02006478787)
(0.009025207526 -2.714467804e-16 -0.006509415202 -1.443442812e-16 -0.003812081029 0 -0.00534262377 3.171636557e-16 0.01980310238)
(0.009597254536 -4.342173808e-16 -0.006308216478 -1.134861148e-16 -0.003515643687 7.747318773e-15 -0.005200466264 3.130529758e-16 0.01954195324)
(0.01010629195 -5.827994292e-16 -0.006073579705 -1.206635055e-16 -0.003225697166 -7.722464355e-15 -0.005029284242 3.343528248e-16 0.01928287916)
(0.01054746224 -5.630186429e-16 -0.005806863453 -9.028518405e-17 -0.002943165689 0 -0.004830057222 3.345045579e-16 0.01902766772)
(0.01091548447 -3.885950185e-16 -0.005510064486 -9.014641471e-17 -0.002668957212 -7.692494055e-15 -0.004604156126 3.375865105e-16 0.01877827241)
(0.01120643283 -2.168205484e-16 -0.005185748319 -7.506398052e-17 -0.00240393856 -7.686551605e-15 -0.004353268467 3.225940074e-16 0.01853673367)
(0.01141711914 -5.87947186e-17 -0.004837097689 -7.881321711e-17 -0.00214891056 -7.686165173e-15 -0.004079495298 2.898813288e-16 0.01830507665)
(0.01154509557 8.690930807e-17 -0.004467763093 -6.759694347e-17 -0.001904615007 0 -0.003785262298 2.417549608e-16 0.01808522714)
(0.01158905614 -7.836183633e-17 -0.004081815712 -6.76834755e-17 -0.00167171504 0 -0.003473323384 1.970942874e-16 0.01787893995)
(0.01154888784 -1.333202605e-16 -0.003683690356 -6.404434833e-17 -0.001450790598 7.715460316e-15 -0.003146762394 1.623775552e-16 0.01768774198)
(0.01142583142 2.100795911e-16 -0.003278055914 -6.797961804e-17 -0.001242322953 0 -0.002808951651 1.488243536e-16 0.01751288625)
(0.01122197984 4.417862464e-16 -0.002869689352 -6.818565861e-17 -0.0010466892 0 -0.002463515592 1.375179859e-16 0.01735531787)
(0.01094031332 4.202685066e-16 -0.00246330103 -7.603142114e-17 -0.0008641668901 0 -0.002114205754 1.36273378e-16 0.01721565176)
(0.01058547784 3.967507497e-16 -0.002063411959 -8.015716379e-17 -0.0006949291451 0 -0.001764820717 1.268042221e-16 0.01709416709)
(0.01016380515 3.667182649e-16 -0.001674140961 -8.531396982e-17 -0.000539028258 0 -0.001419075335 1.262745551e-16 0.01699077869)
(0.009679918056 3.170864358e-16 -0.001299062476 -8.863040089e-17 -0.0003963945451 0 -0.001080520698 1.253052026e-16 0.0169049581)
(0.009129163942 2.160848613e-16 -0.0009414201568 -9.153351775e-17 -0.0002669138226 0 -0.0007526254466 1.275985985e-16 0.01683590569)
(0.008499360274 6.864605031e-17 -0.0006050478595 -9.158198212e-17 -0.0001506103878 0 -0.0004390119755 1.257299254e-16 0.01678393678)
(0.007973183784 -4.839646139e-18 -0.000220786282 -9.043882934e-17 -4.764366296e-05 0 -0.0001421879906 1.22464239e-16 0.01675207546)
(-0.006321990226 3.444548272e-15 -0.0002493339798 -7.605006161e-15 -0.01031354024 0 -0.0001989353139 -6.466615088e-17 0.02413567915)
(-0.008340850889 7.997871866e-16 -0.0005425017708 -5.588081162e-15 -0.009034939335 0 -0.0005213187063 -1.864905677e-16 0.02411309439)
(-0.008069365516 -1.260838e-15 -0.0008575693862 -2.647306846e-15 -0.008600970338 0 -0.0008243461354 -3.390420985e-16 0.02406450601)
(-0.008056995956 -5.030478804e-16 -0.001179287002 -1.686972369e-15 -0.008464288838 0 -0.001132629883 -1.760687501e-16 0.02399340609)
(-0.007840934143 -9.957324511e-17 -0.001489184483 -1.259119745e-15 -0.008358796458 0 -0.001436247844 -6.589296015e-17 0.02390171593)
(-0.007530384219 1.453457477e-16 -0.001784365842 -1.059240122e-15 -0.008243074224 0 -0.00173117399 2.203308793e-17 0.02379156703)
(-0.007166622157 2.992078651e-16 -0.002064774107 -9.403623285e-16 -0.008113580694 0 -0.002016626582 2.657649354e-16 0.02366498706)
(-0.006754431446 3.889772451e-16 -0.002329945171 -8.547123174e-16 -0.007970097661 0 -0.002292040116 4.947779898e-16 0.02352393753)
(-0.006296902004 4.437657208e-16 -0.002579500873 -8.210140958e-16 -0.007812692692 0 -0.002556648363 7.301911534e-16 0.02337029181)
(-0.005798629243 5.109426492e-16 -0.002813166044 -7.832414264e-16 -0.007642037816 0 -0.002809431269 8.984472605e-16 0.02320582273)
(-0.005262837247 1.448665831e-16 -0.003030995202 -7.415868024e-16 -0.007458957949 0 -0.0030495186 8.945411591e-16 0.02303219987)
(-0.004693826264 1.588848224e-16 -0.003233265393 -6.961259055e-16 -0.007264264635 0 -0.00327610138 9.248890972e-16 0.02285091951)
(-0.004096469503 2.023475246e-16 -0.003420179675 -7.046178936e-16 -0.007058980576 -1.182833972e-14 -0.00348820708 9.823443915e-16 0.02266330873)
(-0.0034744145 -4.105884997e-16 -0.003591885531 -6.047477458e-16 -0.006844127036 0 -0.003684789714 9.861622622e-16 0.02247053651)
(-0.002832440279 -5.870984033e-16 -0.003748554528 -5.472432129e-16 -0.006620678033 -1.077648173e-14 -0.003864886181 1.006662829e-15 0.02227357749)
(-0.002175647845 -3.909430746e-16 -0.003890274926 -5.060240019e-16 -0.006389728157 -1.036337156e-14 -0.004027594935 1.0048257e-15 0.02207322037)
(-0.001507845277 -1.832423479e-16 -0.004016854169 -4.495545601e-16 -0.006152337719 -1.000747543e-14 -0.004171963976 9.309079446e-16 0.02187010263)
(-0.0008335730088 -4.872444201e-16 -0.004127950081 -4.072888281e-16 -0.005909509436 0 -0.004297133105 7.603758902e-16 0.02166469773)
(-0.0001571755944 -8.10249386e-16 -0.004223092062 -3.49973627e-16 -0.005662288926 9.430868264e-15 -0.004402381887 6.110323664e-16 0.0214573506)
(0.0005175361947 -9.010185434e-16 -0.004301592113 -3.233184167e-16 -0.00541164806 0 -0.004487059742 5.272539212e-16 0.02124830935)
(0.00118522279 -1.250290526e-15 -0.004362486586 -2.546440302e-16 -0.005158545925 0 -0.004550528048 4.510560429e-16 0.02103773098)