/*--------------------------------*- C++ -*----------------------------------*\
  =========                 |
  \\      /  F ield         | OpenFOAM: The Open Source CFD Toolbox
   \\    /   O peration     | Website:  https://openfoam.org
    \\  /    A nd           | Version:  7
     \\/     M anipulation  |
\*---------------------------------------------------------------------------*/
FoamFile
{
    version     2.0;
    format      ascii;
    class       volVectorField;
    location    "0.0009";
    object      grad(generalizedNewtonian:nu);
}
// * * * * * * * * * * * * * * * * * * * * * * * * * * * * * * * * * * * * * //

dimensions      [0 1 -1 0 0 0 0];

internalField   nonuniform List<vector> 
14000
(
(-10930103.22 0 124222101.8)
(-12141809.8 0 118428380.9)
(-20239322.61 0 117988063.5)
(-30668746.03 0 110102928)
(-34857314.78 0 101695234.2)
(-38233793.48 0 92786423.36)
(-40478559.44 0 83606858.38)
(-41536686.49 0 74547031.6)
(-41657662.58 0 65887139.88)
(-41089247.54 0 57787516.11)
(-40025707.57 0 50324932.05)
(-38620299.51 0 43519119)
(-36992321.49 0 37352721.24)
(-35232013.82 0 31786849.53)
(-33406508.81 0 26771424.23)
(-31565312.37 0 22251808.7)
(-29738998.57 0 18174221.88)
(-27939928.38 0 14489295.25)
(-26177939.49 0 11152926)
(-24470248.1 0 8125876.052)
(-22831975.49 0 5373539.593)
(-21264760.32 0 2866397.15)
(-19765699.42 0 580810.0101)
(-18344859.56 0 -1501861.379)
(-17016630.48 0 -3396451.694)
(-15792867.67 0 -5113740.584)
(-14692931.86 0 -6660941.049)
(-13742145.49 0 -8042762.152)
(-12972961.47 0 -9262013.279)
(-12423077 0 -10320517.2)
(-12129943.13 0 -11220297.1)
(-12140505.8 0 -11964656.43)
(-12508608.27 0 -12558934.53)
(-13278727.81 0 -13011035.49)
(-14483375.64 0 -13331980.53)
(-16143660.75 0 -13535771.55)
(-18257908.49 0 -13638755.21)
(-20791345.99 0 -13659460.37)
(-23674172.41 0 -13618629.84)
(-26795784.99 0 -13539121.51)
(-30003049.02 0 -13445650.08)
(-33115920.88 0 -13365253)
(-35952189.75 0 -13327351.66)
(-38345628.68 0 -13362781.99)
(-40110402.82 0 -13502194.84)
(-41085660.95 0 -13772874.59)
(-41823055.16 0 -14199474.44)
(-43641473.85 0 -14824230.09)
(-39306102.99 0 -15704757.45)
(-27403320.56 0 -16593399.45)
(-2665819.157 0 45421438.28)
(266958.1853 0 44554594.57)
(-106880.4467 0 43611996.14)
(-2288867.638 0 41723602.24)
(-2211956.362 -2.107301047e-07 39510676.81)
(-2416429.612 0 37052541.06)
(-2672558.367 0 34432892.52)
(-2839378.293 0 31738945.97)
(-2914454.926 0 29038556.04)
(-2907730.787 0 26380252.05)
(-2824551.535 0 23797748.09)
(-2670990.405 0 21313055.44)
(-2456504.173 0 18939397.53)
(-2189082.4 0 16684232.65)
(-1871246.244 0 14551097.54)
(-1513446.465 0 12540865.68)
(-1135514.054 0 10652969.18)
(-751715.7376 0 8886852.794)
(-377558.6361 0 7242957.544)
(-37707.54292 0 5721890.804)
(240599.153 0 4323716.742)
(425580.7726 0 3048527.232)
(481250.0802 0 1896958.441)
(372135.7611 0 869079.3784)
(59698.89809 0 -37107.44249)
(-494397.9448 0 -825730.2227)
(-1318920.508 6.564482471e-08 -1503564.019)
(-2429324.608 0 -2080652.118)
(-3823951.241 0 -2570726.234)
(-5475776.777 0 -2991231.733)
(-7324900.168 6.359647769e-08 -3362343.333)
(-9281787.418 0 -3706784.564)
(-11235001.42 0 -4049459.277)
(-13054319.5 0 -4416218.757)
(-14603153.68 0 -4832954.548)
(-15761702.14 0 -5324835.452)
(-16438340.64 0 -5915905.258)
(-16570797.61 0 -6627552.183)
(-16130866.32 0 -7477230.715)
(-15128893.29 3.131678596e-08 -8478532.384)
(-13597934.05 0 -9639848.639)
(-11568770.29 0 -10963116.01)
(-9062089.488 0 -12443076.91)
(-6085306.539 0 -14068091.22)
(-2640877.636 0 -15820907.03)
(1329269.362 0 -17675152.92)
(6173819.908 3.209385717e-08 -19600288.35)
(12215154.76 0 -21609169.8)
(17177079.75 0 -23753636.16)
(17713312.43 0 -25439784.04)
(-1441962.01 0 4270685.346)
(1624586.049 0 4140326.027)
(2000109.928 3.644315315e-07 4060524.191)
(923375.0208 0 3817191.994)
(1640544.3 0 3523474.2)
(2090445.542 3.600769956e-07 3179359.236)
(2444647.849 0 2787723.313)
(2816350.47 0 2356654.215)
(3204354.334 -1.266262926e-07 1894148.867)
(3593297.599 0 1408349.097)
(3977072.376 0 907465.7955)
(4353912.132 0 399248.7908)
(4715535.922 0 -108979.9088)
(5047907.457 0 -610359.188)
(5337680.897 8.764841734e-08 -1097865.12)
(5569821.032 -8.428846614e-08 -1564323.083)
(5724896.912 -8.139385419e-08 -2003693.448)
(5778807.431 0 -2411010.587)
(5708071.472 0 -2782048.383)
(5496445.82 0 -3114172.004)
(5131038.965 0 -3406801.856)
(4601059.709 -7.16691772e-08 -3661704.15)
(3906365.431 0 -3883485.836)
(3062610.756 0 -4079462.547)
(2100324.606 0 -4259812.516)
(1062732.003 0 -4437468.892)
(3163.647012 0 -4627150.743)
(-1013126.966 0 -4845122.168)
(-1915845.277 0 -5108328.13)
(-2644175.967 0 -5432631.766)
(-3144202.828 0 -5831540.961)
(-3372014.309 0 -6315304.59)
(-3305420.398 0 -6889959.841)
(-2936535.943 0 -7555840.394)
(-2265618.597 0 -8307806.448)
(-1297049.836 0 -9136306.533)
(-40821.50443 0 -10027677.22)
(1482872.905 0 -10965685.59)
(3264977.954 0 -11932797.26)
(5309778.958 0 -12911136.02)
(7615130.541 3.186473689e-08 -13883612.41)
(10162587.8 6.388731818e-08 -14833728.64)
(12922150.73 0 -15745384.64)
(15857460.35 0 -16602331.95)
(18891429.24 0 -17386715.28)
(21930165.81 0 -18079161.66)
(25057395.17 0 -18658172.5)
(28376017.68 0 -19093702.96)
(28291728.88 0 -19358210.65)
(22734985.55 0 -19379869.17)
(-1260834.807 0 -4826299.551)
(1757762.644 -1.200385073e-06 -4879296.8)
(2444900.525 0 -4870416.698)
(1783540.005 0 -4936616.608)
(2697337.324 0 -5011250.308)
(3339883.568 0 -5095984.549)
(3873976.663 0 -5192008.711)
(4397263.958 0 -5296288.698)
(4904504.955 0 -5404853.537)
(5376823.827 0 -5514218.14)
(5804994.616 0 -5621676.957)
(6183251.731 1.032978751e-07 -5724123.339)
(6502767.127 0 -5818309.918)
(6750958.349 0 -5902078.6)
(6915226.812 0 -5973863.158)
(6987030.251 0 -6032918.365)
(6960130.767 0 -6079932.438)
(6831143.161 0 -6116981.933)
(6601926.933 0 -6147913.807)
(6280001.121 0 -6178052.803)
(5880631.343 0 -6213885.513)
(5426132.751 7.278532544e-08 -6263149.825)
(4942601.644 0 -6334224.485)
(4461738.053 -7.034064057e-08 -6435288.504)
(4017680.42 6.93402634e-08 -6573763.807)
(3637781.12 6.846622634e-08 -6755595.505)
(3349723.065 0 -6984605.061)
(3185043.486 0 -7262352.619)
(3163673.782 0 -7587302.087)
(3294395.305 0 -7954951.11)
(3589345.981 0 -8359100.779)
(4062054.458 0 -8791576.049)
(4709640.577 -6.498922023e-08 -9242788.518)
(5522442.5 6.478072627e-08 -9703215.344)
(6503481.776 0 -10162934.96)
(7647429.471 6.452931717e-08 -10612403.97)
(8937659.64 6.447946828e-08 -11042382.67)
(10360208.93 6.447622666e-08 -11443788.74)
(11894514.49 0 -11808217.62)
(13509883.24 0 -12126989.29)
(15166128.34 -6.472197213e-08 -12391114.85)
(16819661.04 0 -12591239.46)
(18425279.1 0 -12718432.91)
(19918408.51 0 -12765006.71)
(21214085.3 0 -12725270.08)
(22273165.3 0 -12595549.4)
(23221933.51 0 -12367535.02)
(24228276.43 6.656227983e-08 -12023757.68)
(22207631.21 0 -11566436.36)
(15962032.13 0 -11116611.16)
(-884263.7003 0 -7602691.313)
(1860181.954 0 -7653885.956)
(2491609.108 0 -7589311.659)
(1971911.265 0 -7599885.1)
(2848558.306 0 -7596481.163)
(3485210.12 0 -7584343.74)
(4016602.867 0 -7567462.371)
(4516275.326 0 -7544701.916)
(4976852.363 0 -7514076.427)
(5389927.09 0 -7474540.866)
(5749197.265 0 -7426166.617)
(6045575.009 0 -7368953.048)
(6276192.572 9.922330522e-08 -7303131.099)
(6438877.512 0 -7230122.266)
(6530973.633 9.039968085e-08 -7152326.72)
(6556884.949 8.693426157e-08 -7072626.606)
(6523329.699 8.394878842e-08 -6994595.825)
(6437750.923 0 -6922493.184)
(6311293.126 -7.911185696e-08 -6860725.549)
(6158815.233 0 -6813787.957)
(5998571.103 0 -6785947.277)
(5847586.429 0 -6780526.797)
(5720054.396 0 -6799738.711)
(5631762.627 0 -6844787.654)
(5598968.242 0 -6915243.295)
(5633851.499 0 -7009403.387)
(5747198.488 -6.875981844e-08 -7124966.77)
(5946874.063 0 -7257976.543)
(6233063.44 0 -7403249.794)
(6607986.933 0 -7555463.556)
(7074461.058 6.661427277e-08 -7709083.115)
(7625542.938 0 -7857735.21)
(8254956.839 6.600133733e-08 -7994633.575)
(8953073.788 0 -8114086.458)
(9705956.866 0 -8209948.397)
(10504080.38 -6.553427191e-08 -8275587.151)
(11329366.99 0 -8305697.456)
(12158964.67 -6.548035459e-08 -8294778.888)
(12974829.4 0 -8237313.895)
(13757881.41 6.560567497e-08 -8129311.108)
(14480073.43 0 -7967764.855)
(15107015.82 -6.58927263e-08 -7750008.423)
(15616695.77 0 -7474344.15)
(16006048.13 0 -7142916.097)
(16246783.68 0 -6766940.302)
(16191425.52 0 -6359466.641)
(15684667.91 0 -5818050.648)
(14984716.79 6.759889514e-08 -4700991.964)
(12853137.79 0 -1923439.204)
(8475101.866 0 1357863.596)
(-727234.191 0 -7637520.09)
(1507940.687 0 -7685578.509)
(2135090.982 0 -7576702.251)
(1827972.619 0 -7555409.7)
(2580695.873 0 -7507642.32)
(3123205.981 0 -7441972.721)
(3572253.209 0 -7364393.975)
(3982578.153 0 -7274899.641)
(4348884.979 0 -7173971.943)
(4667488.286 0 -7062652.652)
(4936730.898 1.134980504e-07 -6941830.499)
(5152107.933 0 -6813402.687)
(5317186.183 1.007685705e-07 -6679628.064)
(5438869.378 9.592080917e-08 -6542636.046)
(5519174.119 0 -6405248.003)
(5562878.694 0 -6270370.441)
(5579759.411 0 -6140479.353)
(5578288.723 8.262953467e-08 -6017951.015)
(5567349.402 0 -5904820.495)
(5558095.045 7.834823327e-08 -5802603.394)
(5559172.85 7.660141045e-08 -5712033.978)
(5576717.363 0 -5632844.668)
(5618554.625 0 -5564303.58)
(5690914.387 0 -5505282.601)
(5797842.613 -7.151683797e-08 -5453657.538)
(5945626.016 0 -5406650.417)
(6134683.608 0 -5361252.116)
(6360487.931 0 -5313903.876)
(6621890.375 0 -5260801.55)
(6917004.51 0 -5198379.734)
(7238273.97 0 -5122524.673)
(7575933.082 -6.730675541e-08 -5029252.605)
(7926724.341 0 -4915035.074)
(8279808.763 0 -4775965.774)
(8617083.184 0 -4609037.458)
(8934699.453 0 -4411384.803)
(9221207.557 0 -4180028.621)
(9450616.552 0 -3913067.948)
(9614036.776 0 -3609058.182)
(9707498.309 0 -3266749.618)
(9702848.528 0 -2885899.086)
(9569703.195 0 -2468536.351)
(9330154.507 6.712173975e-08 -2012287.998)
(9116204.062 -6.736057449e-08 -1509943.817)
(9020418.809 6.763410031e-08 -965553.7402)
(7205567.304 0 -185104.5249)
(-3635152.985 0 1666015.425)
(-39962014.43 0 4670192.416)
(-78980931.61 0 8086319.092)
(-77197700.43 3.474251253e-08 10594829.89)
(-393962.992 0 -6258765.275)
(1220564.042 0 -6305179.912)
(1661264.991 0 -6191250.036)
(1461647.752 0 -6156985.038)
(2015796.091 0 -6093608.239)
(2421243.644 0 -6011509.83)
(2754098.16 0 -5916843.239)
(3051633.727 0 -5810793.347)
(3314708.014 1.347005998e-07 -5694708.417)
(3538449.712 0 -5570503.448)
(3724604.213 0 -5439585.231)
(3876286.751 0 -5303816.135)
(3994317.362 1.023379018e-07 -5165542.619)
(4083651.999 0 -5026395.55)
(4150594.121 0 -4887823.312)
(4199147.811 0 -4751424.291)
(4234095.129 -8.658392149e-08 -4618389.236)
(4261327.406 0 -4489425.908)
(4286264.174 0 -4364952.424)
(4313282.429 0 -4244883.012)
(4344524.894 7.779437162e-08 -4128619.667)
(4382933.37 0 -4015351.602)
(4433606.596 -7.487487825e-08 -3904066.815)
(4496908.778 0 -3793241.481)
(4570023.107 0 -3681228.985)
(4652957.525 0 -3566168.739)
(4744414.74 -7.091817325e-08 -3445719.954)
(4839347.573 0 -3317866.318)
(4933316.103 0 -3180564.835)
(5019947.349 0 -3031710.775)
(5091946.668 0 -2869167.881)
(5143719.827 0 -2691183.321)
(5164333.737 0 -2496178.083)
(5145237.06 0 -2282185.665)
(5079953.996 6.769542619e-08 -2048158.874)
(4954436.901 0 -1793294.796)
(4758521.217 6.753916323e-08 -1516350.103)
(4485134.193 0 -1217294.505)
(4121641.988 6.75785135e-08 -897704.3523)
(3662864.621 0 -557400.6647)
(3125023.088 1.355863489e-07 -180941.7788)
(2441964.015 0 236960.4797)
(1455281.398 0 561840.2477)
(254168.6683 0 923961.457)
(-4080260.965 0 2344290.036)
(-24989822.89 0 5030923.631)
(-61582207.95 6.934401098e-08 7812024.65)
(-89310331.53 3.486040442e-08 8579188.77)
(-85535007.51 0 5498918.355)
(-58390242.99 0 1299981.02)
(-258144.4877 0 -4271964.887)
(828432.7086 0 -4301984.872)
(1184585.977 0 -4211042.866)
(1120842.855 0 -4181792.484)
(1528032.039 0 -4130755.428)
(1827434.147 0 -4066290.738)
(2075530.549 0 -3993070.126)
(2296595.434 0 -3912969.538)
(2492129.901 1.367983755e-07 -3827093.659)
(2659795.878 0 -3736855.027)
(2799248.066 0 -3644004.226)
(2915045.538 0 -3549729.612)
(3010296.282 0 -3455253.285)
(3086292.563 0 -3361801.548)
(3146356.676 0 -3270154.996)
(3194334.594 -9.105948692e-08 -3180866.33)
(3233398.914 0 -3094322.826)
(3266038.683 0 -3010654.745)
(3294357.944 0 -2929758.928)
(3320109.055 0 -2851272.614)
(3344681.095 0 -2774645.439)
(3369431.357 0 -2699367.363)
(3394044.818 -1.52081902e-07 -2624611.681)
(3416933.348 0 -2549252.106)
(3436740.305 0 -2472367.641)
(3450237.739 0 -2393016.733)
(3453755.509 0 -2310121.644)
(3443181.587 7.132180875e-08 -2222660.806)
(3413656.799 0 -2129791.119)
(3359351.425 0 -2030627.517)
(3273867.976 0 -1924587.661)
(3151144.473 6.941949927e-08 -1811120.903)
(2982533.249 0 -1689772.2)
(2761143.785 -6.891146e-08 -1560580.18)
(2480808.619 0 -1423466.484)
(2133056.457 -6.864401984e-08 -1279157.955)
(1714715.14 0 -1130059.439)
(1235689.863 0 -975000.5594)
(684854.5548 0 -790620.1994)
(-176444.3726 0 -577167.5761)
(-1454254.283 0 -547232.414)
(-1045558.353 0 -547346.2282)
(-716975.3629 6.922867601e-08 624494.3485)
(-17462281.07 0 3143162.78)
(-53002512.3 0 5582520.971)
(-76803127.25 0 6048883.254)
(-59296132.59 0 3593337.409)
(-3214872.028 0 -596906.384)
(38733681.26 0 -5058035.02)
(38600292.1 -3.583307216e-08 -8293645.666)
(-96390.45211 -3.794787188e-06 -2406424.183)
(645299.2354 2.593627649e-06 -2426164.404)
(898021.3581 0 -2368109.873)
(889914.069 0 -2346903.259)
(1192930.191 0 -2310789.389)
(1427061.71 0 -2265928.355)
(1628115.924 0 -2215522.402)
(1810774.722 0 -2160901.147)
(1974088.529 0 -2103150.384)
(2119181.829 2.556072167e-07 -2043215.783)
(2247044.986 1.188837867e-07 -1982189.807)
(2358060.897 0 -1921079.03)
(2454440.152 1.055502645e-07 -1860460.565)
(2538427.097 0 -1800891.277)
(2611615.022 0 -1742836.289)
(2675304.604 -9.24776118e-08 -1686566.688)
(2731027.454 0 -1632154.096)
(2780557.337 -8.655049082e-08 -1579493.791)
(2824842.107 0 -1528370.828)
(2863906.063 -1.641320642e-07 -1478514.589)
(2898105.503 0 -1429561.523)
(2927095.743 0 -1381035.894)
(2949166.559 7.722518305e-08 -1332368.141)
(2962745.961 0 -1283057.579)
(2965701.752 7.491047182e-08 -1232634.151)
(2955243.621 0 -1180601.394)
(2927996.988 0 -1126679.697)
(2880142.813 0 -1070570.431)
(2807447.227 -7.182066412e-08 -1012213.102)
(2705323.84 0 -951596.6685)
(2569160.006 0 -888988.8488)
(2393940.35 0 -824737.1816)
(2174946.245 0 -759493.9886)
(1907572.417 0 -694925.1476)
(1593711.995 0 -634075.1768)
(1250775.957 0 -574412.4077)
(845544.1988 -6.965920166e-08 -486513.2723)
(34568.87998 0 -379736.3237)
(-1185024.503 -1.393995743e-07 -519760.0458)
(369809.9901 0 -713380.5268)
(2652528.069 0 369068.3105)
(-14200134.51 -7.009436616e-08 2877900.064)
(-51320022.26 0 5302141.121)
(-71815142.98 0 5778472.361)
(-47300429.7 0 3493374.151)
(4740392.716 0 -445598.9352)
(40634744.72 3.576035158e-08 -4392337.838)
(47108883.35 0 -6716487.418)
(38513528.86 0 -6885604.673)
(29211387.73 -3.639112243e-08 -6125563.534)
(-64338.63078 0 -1155184.929)
(470923.6181 1.317009914e-06 -1161501.49)
(685896.6764 8.121304784e-07 -1123357.488)
(719488.1894 0 -1104093.749)
(960381.3711 0 -1074481.429)
(1150393.905 0 -1038004.914)
(1316406.167 0 -996765.2317)
(1469928.487 0 -951316.179)
(1610624.745 0 -902386.2369)
(1737188.795 0 -850793.5501)
(1850533.226 0 -796990.5523)
(1951917.849 0 -741416.7383)
(2041665.595 0 -684472.134)
(2120668.855 0 -626392.0852)
(2190311.677 0 -567305.7997)
(2251442.59 0 -507242.3904)
(2304170.479 0 -446160.1851)
(2348488.13 0 -383941.5808)
(2384880.835 -8.546703297e-08 -320389.021)
(2413492.732 0 -255259.9722)
(2433484.416 -8.14858888e-08 -188336.3252)
(2443818.407 0 -119359.2331)
(2443399.447 0 -48135.68472)
(2431020.753 0 25450.56786)
(2404790.546 0 101454.6331)
(2362904.152 0 179793.9407)
(2303218.341 0 260272.5423)
(2223608.595 0 342503.502)
(2122018.833 0 425964.0637)
(1996184.82 0 509957.7086)
(1843807.549 0 593559.9369)
(1663599.181 0 674650.2752)
(1463010.723 0 749638.8812)
(1265041.337 0 822366.8488)
(1014834.811 0 927137.2629)
(301787.2691 0 1047456.945)
(-738255.0473 0 878399.3716)
(1689838.44 0 628219.4593)
(5000659.784 0 1669785.223)
(-12185510.22 0 4150910.692)
(-50103004.98 0 6601979.212)
(-69004882.17 0 7167295.933)
(-41700594.49 0 4963948.175)
(8065060.569 0 1073246.512)
(37869815.73 3.597338968e-08 -2594734.948)
(41202481.32 3.613669669e-08 -4391159.187)
(36494574.36 0 -4403796.039)
(35424008.06 3.651460869e-08 -3510384.342)
(29279047.27 0 605774.0333)
(-16395377.83 0 6855249.062)
(-35616.62806 0 -369829.6465)
(377695.6097 1.337520512e-06 -370377.9914)
(535356.639 8.247782813e-07 -345643.3645)
(554866.3602 0 -326180.3328)
(737450.5252 0 -298300.7736)
(883799.3943 0 -264156.4331)
(1011649.995 0 -224932.9988)
(1127745.987 0 -181138.6245)
(1233528.078 0 -133133.9044)
(1328488.562 0 -81225.4623)
(1411371.428 0 -25835.399)
(1482509.842 0 32719.40456)
(1542783.82 0 94198.37284)
(1592521.579 0 158441.5672)
(1631774.026 0 225408.6671)
(1660472.251 9.538046276e-08 295124.3238)
(1678853.66 0 367572.3914)
(1687218.307 0 442677.884)
(1685235.94 0 520408.0677)
(1672514.552 0 600828.6849)
(1648960.764 0 683904.1196)
(1614188.425 0 769514.3226)
(1567567.135 0 857569.5467)
(1508642.238 0 947780.5853)
(1437108.215 0 1039797.954)
(1352659.561 0 1133177.023)
(1255164.499 -7.544026007e-08 1227426.594)
(1144500.987 0 1321943.77)
(1020243.369 0 1415956.534)
(882881.9771 0 1507451.936)
(744669.0599 0 1592929.963)
(632492.5379 0 1677468.592)
(475602.1599 0 1799195.666)
(-176094.6585 0 1940179.474)
(-1089681.575 0 1773659.068)
(1881450.718 0 1502363.341)
(6002326.492 0 2501672.518)
(-10125632.35 0 4938263.04)
(-46427278.23 0 7401031.655)
(-64091393.37 0 8026632.276)
(-37834889.6 0 5861100.506)
(7668144.625 0 1971814.845)
(33161374.85 -3.625686558e-08 -1579988.489)
(35516025.11 0 -3111735.904)
(31814840.99 0 -3012845.434)
(31309305.45 3.669947549e-08 -2187004.765)
(27302052.24 0 1830347.028)
(-29554275.63 0 8293486.791)
(-121910158.9 0 14255770.26)
(-158505779.2 -3.753343139e-08 18924556.55)
(-58745.28597 0 131182.4032)
(281720.7672 0 135171.9107)
(403073.2501 8.3762306e-07 151487.8136)
(400950.3457 0 169312.2414)
(539443.0679 0 193037.3298)
(644985.5098 0 221773.0655)
(734717.8244 0 255107.3153)
(815222.765 0 292521.7467)
(885103.4626 0 333496.4902)
(943796.2703 0 377735.1674)
(992436.6219 0 424993.6231)
(1031161.769 0 474914.6904)
(1059276.704 0 527234.6338)
(1076201.76 0 581737.6817)
(1081870.866 0 638223.9715)
(1076901.765 0 696454.1015)
(1062183.257 0 756105.382)
(1037819.523 0 816984.2195)
(1003049.176 0 879083.2571)
(958004.2926 0 942153.395)
(903450.9976 0 1005765.346)
(838854.0684 0 1069762.476)
(764800.5138 0 1133861.484)
(682679.3761 0 1197596.277)
(592424.1148 0 1260706.807)
(494027.6587 0 1322855.745)
(387461.8217 0 1383583.545)
(274110.7632 0 1441343.045)
(167651.0023 0 1493034.069)
(96578.80034 0 1544644.265)
(-16643.28362 0 1636499.593)
(-638336.2088 -7.384602309e-08 1753735.745)
(-1513317.624 -7.354151965e-08 1563753.638)
(1594061.866 0 1246258.695)
(6119044.611 0 2164003.807)
(-8584097.218 0 4531861.984)
(-42592943.91 0 6973252.781)
(-59056644.75 0 7610959.135)
(-34330225.18 0 5492456.235)
(7317627.526 0 1675634.236)
(29580261.07 0 -1782666.19)
(31225445.4 0 -3230836.572)
(28044726.76 0 -3175973.578)
(27977165.96 0 -2504531.013)
(24603320.76 -7.420517157e-08 1354699.133)
(-29114896.96 -3.727101896e-08 7778177.186)
(-117429648.1 0 13697498.13)
(-150634594.4 0 18493647.62)
(-134187782.5 0 19351028.22)
(-117854386.9 0 17157635.84)
(-72886.53862 0 465972.779)
(231782.0006 0 471118.8294)
(315192.9605 0 479330.2824)
(280373.213 0 492530.034)
(386835.4172 -4.995535899e-07 509284.7423)
(462384.1077 0 529352.8624)
(523133.2969 0 552276.4324)
(576884.0849 0 577769.4894)
(623772.4047 0 605535.4458)
(661658.2937 0 634959.5209)
(689995.3967 0 665614.3484)
(709405.4386 0 697313.0494)
(719900.2948 0 729826.8858)
(721472.2832 0 762813.1314)
(714513.6182 0 795854.8531)
(700124.3131 0 828560.4237)
(678347.9259 0 860726.5146)
(647038.5975 0 892357.6507)
(606491.3055 0 923251.0374)
(560070.4386 0 952879.8194)
(507091.4029 8.535257652e-08 981068.4771)
(446202.9706 0 1007802.759)
(379857.8661 0 1032725.792)
(307713.6638 0 1055851.121)
(228675.1397 0 1077172.059)
(144714.8824 0 1095291.497)
(68320.1302 0 1107395.926)
(27278.78251 0 1119714.777)
(-55425.56344 0 1173606.55)
(-640294.9692 0 1258982.023)
(-1504490.445 0 1047614.101)
(1461678.406 0 679252.7571)
(6094311.433 0 1493841.919)
(-7158616.763 0 3786649.456)
(-39058839.52 0 6202798.315)
(-54679404.66 0 6840791.275)
(-31186781.3 0 4760152.191)
(7666576.782 0 1009406.522)
(27683560.48 0 -2375617.31)
(28856843.83 -7.42390978e-08 -3774741.49)
(25977929.53 0 -3757451.772)
(26015543.71 0 -3273973.281)
(23257254.12 0 212322.6907)
(-26911228.69 0 6583384.867)
(-111452616.3 0 12565620.84)
(-143982675.1 0 17411990.03)
(-129014828.4 0 18293074.76)
(-113576278.8 0 16105391.84)
(-101505513.2 0 14067269.09)
(-91795492.79 0 12468844.64)
(-105848.767 0 603974.7538)
(193411.3919 0 609715.7085)
(263613.6376 0 611441.2448)
(206363.9996 0 619704.1082)
(296979.7142 0 629443.2281)
(357417.5854 0 640822.0696)
(405232.5104 0 653507.8713)
(446298.4242 0 667191.0537)
(481840.2914 0 681777.4088)
(512364.5524 0 697008.7626)
(536279.9993 0 712384.8298)
(552584.884 -1.205606226e-07 727633.3855)
(561937.8906 1.14029278e-07 742517.2557)
(565422.9148 1.085435723e-07 756795.8638)
(563655.1084 0 770255.5446)
(555878.1664 0 782743.8256)
(540028.6194 -9.647551764e-08 794224.6633)
(516357.937 0 804625.9968)
(488705.2727 0 813633.8542)
(457234.1614 0 821077.5723)
(418614.3484 0 827134.3607)
(374124.642 0 831855.1501)
(324199.5765 -8.342879964e-08 835222.1293)
(267252.0021 0 836119.7359)
(216745.1102 -8.092814413e-08 831735.6937)
(200359.7399 0 828123.2649)
(144227.1688 0 866835.7229)
(-395581.072 0 943452.7312)
(-1252180.132 0 740572.2856)
(1440057.079 0 342065.5429)
(6084979.093 0 1043397.305)
(-5603482.295 0 3245899.834)
(-35585476 7.58499712e-08 5643796.249)
(-50931751.44 0 6323094.489)
(-28853328.73 0 4314605.454)
(7865125.464 0 622325.9046)
(26483426.51 0 -2701228.701)
(27418481.33 0 -4031414.761)
(24669136.05 7.52988772e-08 -3983733.869)
(24574496.1 0 -3637204.022)
(23089489.36 0 -688704.6228)
(-20693861.45 0 5592429.033)
(-102291724.9 0 11719104.55)
(-138415192.1 -3.811246719e-08 16703364.1)
(-125186652.3 0 17723926.98)
(-109819970.5 0 15580475.77)
(-98476025.38 0 13583563.65)
(-89039252.54 0 11990473.46)
(-80240034.08 0 10617388.26)
(-72913007.52 -1.965723836e-08 9438162.229)
(-124896.8041 0 589427.3947)
(189740.2015 0 594747.2988)
(247467.336 -8.77370148e-07 592310.3548)
(165596.4752 0 597731.7315)
(249990.407 2.576172288e-07 603371.6111)
(303945.5503 0 609590.7235)
(346523.0574 0 616548.6792)
(384075.446 -3.360343951e-07 624020.833)
(416692.7517 -1.524266145e-07 631710.0016)
(445254.6797 -1.402205198e-07 639544.8359)
(469451.117 0 647387.0725)
(488338.3374 0 655016.9031)
(501924.829 -1.158051258e-07 662265.3699)
(510239.1427 2.204679756e-07 669044.3191)
(513194.4905 0 675352.9009)
(510632.1598 0 681226.1836)
(502054.1801 -9.797798999e-08 686591.2243)
(487714.3127 0 691173.7762)
(468890.5743 0 694999.834)
(444966.7808 0 698574.58)
(413432.7125 8.803177349e-08 701810.2884)
(374586.3872 0 703308.8707)
(341451.655 0 700649.6153)
(339752.7658 0 699267.9332)
(302356.1222 0 740663.7106)
(-193211.3334 0 826858.2217)
(-1045484.769 0 655325.8792)
(1307685.806 0 250901.2841)
(5959637.616 7.879848606e-08 846598.9891)
(-3884672.403 0 2949927.949)
(-31723839.14 0 5337154.258)
(-47210329.57 -7.735018209e-08 6109525.826)
(-27307561.24 0 4224924.928)
(7211304.288 0 593011.5311)
(25007308.47 0 -2696582.105)
(25967295.67 0 -3973215.027)
(23235819.35 0 -3861965.088)
(22852441.3 0 -3584883.941)
(22842679.27 -7.647155275e-08 -1287414.597)
(-12054259.14 0 4768307.379)
(-89885428.09 3.835723106e-08 11078886.72)
(-132464944.6 -3.845223379e-08 16310118.59)
(-122420655.8 0 17738072.62)
(-107146502.6 0 15679572.71)
(-95957157.41 0 13660091.79)
(-86744125.81 0 12067193.76)
(-78495846.94 0 10711695.3)
(-71043234.86 -1.972394122e-08 9521323.221)
(-64220587.87 0 8477462.676)
(-58787261.82 -1.996337258e-08 7587559.252)
(-153136.3303 0 443796.208)
(184774.5206 0 449677.0137)
(238849.448 8.910339773e-07 446268.8087)
(137406.8409 0 451359.9561)
(221523.5539 0 456301.2116)
(272029.8623 0 461742.8503)
(310152.484 1.914875664e-07 468024.5954)
(344671.3965 0 475029.3601)
(375856.7435 0 482461.0625)
(403367.2208 0 490167.1808)
(426753.3121 -1.32465413e-07 498170.3928)
(445338.6045 0 506386.384)
(458967.393 0 514744.727)
(467571.6831 2.239014601e-07 523220.0987)
(470881.5993 0 531798.2208)
(468729.1225 0 540485.913)
(461542.7755 0 549293.3852)
(448839.3108 0 558104.3622)
(428160.5411 0 566869.3391)
(400584.3347 -9.144149208e-08 574843.5011)
(378831.6049 0 579220.4621)
(384918.1466 0 584723.6973)
(359700.0258 -8.604761049e-08 634271.673)
(-97431.58683 0 735475.5648)
(-952873.6309 0 601531.8799)
(1033456.859 8.241633638e-08 208748.9401)
(5616628.282 0 718004.1735)
(-2392520.701 0 2716056.883)
(-27916868.66 0 5083908.243)
(-43623833 0 5975584.758)
(-26418351.68 0 4267024.802)
(5783530.028 0 731562.1332)
(23233230.79 -7.823088437e-08 -2536128.871)
(24531289.98 0 -3809054.257)
(21779044.42 0 -3656301.689)
(20939414.34 0 -3398160.993)
(21975107.16 0 -1787763.72)
(-2931036.233 7.761336748e-08 3799340.618)
(-74932956.73 0 10270394.36)
(-125203563.2 0 15794092.28)
(-120297971 0 17875493.9)
(-105097323.8 0 16003958.28)
(-93911325.61 0 13929758.1)
(-84931948.49 0 12309260.43)
(-76973643 -3.946842698e-08 10943848.37)
(-69723443.91 0 9746128.242)
(-63197119.49 -1.99228586e-08 8694418.455)
(-57492506.39 0 7781219.117)
(-52423223.77 0 6992585.621)
(-48414290.87 -2.027427456e-08 6319422.391)
(-176483.6118 0 216855.9215)
(185420.7132 0 223245.5842)
(230449.8928 0 220524.8356)
(104349.497 0 226986.5413)
(185127.4082 2.657037731e-07 233711.4585)
(229295.1042 0 241485.3295)
(260487.442 0 250599.558)
(289008.6473 0 260884.7296)
(315223.5126 0 272076.7232)
(337999.8554 -1.44622009e-07 284005.7027)
(356684.8268 1.345283774e-07 296711.8975)
(370979.1467 0 310136.0842)
(380516.9543 0 324172.0041)
(384960.1819 0 338758.7064)
(383991.9114 0 353906.5817)
(377272.5314 0 369678.6627)
(365286.4569 0 385947.967)
(348749.3263 9.794016005e-08 401392.9209)
(334146.1318 0 412843.9231)
(344032.9614 0 425625.8309)
(330416.8372 0 486528.0584)
(-100510.6403 0 606408.1228)
(-970875.8589 0 509536.5603)
(664132.6552 0 146987.6641)
(5056204.724 0 615039.0272)
(-1400450.177 0 2527824.518)
(-24563493.39 0 4866263.262)
(-40250505.45 0 5868049.224)
(-25819422.65 0 4349307.261)
(4010519.241 0 935408.4535)
(21318519.08 0 -2320008.437)
(23135992.1 0 -3643060.364)
(20434585.82 0 -3486326.631)
(19120330.7 0 -3203464.46)
(20494396.53 0 -2195307.246)
(5057611.767 0 2648017.686)
(-58311840.49 -7.882605049e-08 9213051.127)
(-115665670.8 0 15029662.77)
(-118318784.9 0 17929613.86)
(-103504759.8 3.948647112e-08 16418118.03)
(-92181114.52 0 14274707.92)
(-83356948.52 0 12605600.62)
(-75649933.03 0 11219170.54)
(-68632979.14 0 10006566.33)
(-62269766.58 0 8937473.482)
(-56620553.04 2.013252822e-08 8003555.505)
(-51685361.25 0 7195419.646)
(-47383947.52 0 6497010.466)
(-43517154.56 0 5887035.642)
(-40443469.2 0 5358583.112)
(-208222.0645 0 -96254.51432)
(173343.2507 0 -89503.73808)
(209453.6157 0 -90698.89548)
(57915.8685 0 -82389.47747)
(132209.528 -2.698417427e-07 -73239.46299)
(166126.6208 0 -62502.53156)
(186458.2518 0 -49837.4899)
(205352.303 0 -35458.446)
(223170.1872 0 -19802.85113)
(237654.3548 0 -2886.265106)
(247731.2947 0 15516.05279)
(253724.8721 0 35262.22077)
(255519.2626 -1.213003381e-07 56102.68557)
(252255.4489 1.154648371e-07 77887.90712)
(242770.9571 0 100403.5168)
(227932.5274 0 122302.8665)
(218921.0074 0 140438.1067)
(239583.3767 9.946544286e-08 161525.7854)
(235056.2617 -9.671412354e-08 239377.3364)
(-202361.1383 0 384060.9767)
(-1115171.305 0 321992.8939)
(224980.8011 0 14006.80509)
(4297746.973 1.774972495e-07 512703.2021)
(-1149332.747 0 2385902.473)
(-22153297.67 0 4689149.463)
(-37350007.63 0 5760178.588)
(-25249848.64 0 4400669.663)
(2296520.896 0 1118200.535)
(19410485.86 0 -2122026.517)
(21780191.1 0 -3526183.233)
(19235478.36 0 -3395198.653)
(17540376.15 0 -3063215.099)
(18657929.47 -8.068653343e-08 -2481483.383)
(10826203.49 0 1394522.76)
(-41232208.02 0 7916361.71)
(-103414978.5 0 14003559.37)
(-116037301.6 0 17776695.11)
(-102354260.5 0 16872038.18)
(-90763468.48 4.00501495e-08 14675651.91)
(-82013603.73 0 12940322.06)
(-74519921.73 4.017736749e-08 11525506.5)
(-67716642.42 0 10295174.62)
(-61511749.75 0 9207078.194)
(-55950070.94 0 8251022.395)
(-51050930.93 2.035366581e-08 7419157.572)
(-46752650.47 0 6698148.59)
(-42957312.96 0 6070236.919)
(-39582899.77 0 5519290.835)
(-36547502.53 0 5031636.539)
(-34166741.99 0 4606197.732)
(-233904.306 0 -488547.9914)
(161716.0784 0 -482233.3411)
(181530.0436 0 -482257.4998)
(374.8595545 0 -472979.7331)
(64372.02206 0 -462251.1761)
(84691.31597 0 -449608.4554)
(90574.68531 0 -434780.4077)
(97056.03795 0 -418052.5466)
(103234.3696 0 -399455.3502)
(103839.5794 0 -378661.5869)
(99131.94886 0 -355994.6102)
(91928.52803 0 -331790.4714)
(82000.6534 0 -306194.6038)
(68931.73278 0 -280674.3352)
(61386.56446 0 -258037.6806)
(81353.33379 0 -224475.823)
(68585.25339 -1.042255431e-07 -117444.7272)
(-419201.0105 -1.010144801e-07 66967.77959)
(-1410825.315 0 41350.76301)
(-280496.9138 0 -176334.5215)
(3340945.459 0 453321.4177)
(-1809832.492 0 2354981.951)
(-21013888.96 0 4618505.392)
(-35102678.17 0 5692222.24)
(-24502844.87 0 4415087.714)
(1026563.451 0 1232527.926)
(17681507.83 0 -1991592.82)
(20416532.97 0 -3478814.643)
(18104841.75 0 -3390982.832)
(16183796.62 0 -3008110.198)
(16746473.95 -8.270409717e-08 -2663035.128)
(13947015.71 0 170525.3053)
(-25190729.41 0 6426393.51)
(-88493749.68 0 12749304.74)
(-112627406.7 0 17337249.65)
(-101582246.3 0 17326099.64)
(-89628767.52 0 15136101.18)
(-80838269.81 -4.064814779e-08 13312431.33)