/*--------------------------------*- C++ -*----------------------------------*\
  =========                 |
  \\      /  F ield         | OpenFOAM: The Open Source CFD Toolbox
   \\    /   O peration     | Website:  https://openfoam.org
    \\  /    A nd           | Version:  7
     \\/     M anipulation  |
\*---------------------------------------------------------------------------*/
FoamFile
{
    version     2.0;
    format      ascii;
    class       volScalarField;
    location    "0.0009";
    object      p;
}
// * * * * * * * * * * * * * * * * * * * * * * * * * * * * * * * * * * * * * //

dimensions      [1 -1 -2 0 0 0 0];

internalField   nonuniform List<scalar> 
14000
(
1116936.251
1146502.442
1144887.053
1146946.364
1152493.587
1159476.467
1167563.153
1176807.311
1187212.507
1198764.92
1211465.671
1225329.059
1240377.009
1256636.985
1274141.534
1292924.099
1313005.178
1334409.582
1357206.235
1381450.48
1407191.891
1434461.851
1463319.215
1493874.673
1526190.358
1560350.387
1596492.807
1634700.594
1675147.219
1717949.151
1763245.782
1811247.526
1862120.128
1915985.357
1972930.433
2033056.144
2096322.138
2162612.618
2231620.338
2302979.503
2376083.495
2450194.456
2524450.58
2597926.949
2669737.737
2738941.794
2804371.478
2865602.767
2926578.702
2990215.019
1263100.075
1298923.205
1297017.613
1299652.997
1306544.764
1315131.798
1324944.947
1336001.277
1348246.074
1361643.17
1376163.87
1391798.174
1408552.488
1426430.82
1445439.127
1465664.028
1487160.742
1509940.016
1534111.933
1559736.251
1586877.494
1615614.634
1646009.717
1678080.89
1711889.12
1747423.608
1784619.134
1823366.308
1863522.561
1904881.302
1947131.95
1989893.144
2032759.67
2075306.273
2117077.298
2157631.66
2196600.372
2233666.333
2268579.494
2301133.077
2331200.705
2358676.584
2383429.651
2405311.495
2424092.579
2439496.45
2451189.703
2458402.761
2459500.858
2454446.338
1290799.29
1328048.802
1325578.989
1326933.28
1332213.816
1338972.978
1346799.461
1355798.977
1366027.209
1377486.657
1390163.264
1404048.373
1419197.736
1435607.726
1453288.209
1472266.484
1492540.294
1514133.736
1537009.889
1561073.946
1586300.277
1612623.791
1639919.452
1667989.116
1696665.113
1725749.033
1754982.779
1784173.652
1813041.469
1841358.423
1868934.22
1895576.797
1921101.224
1945414.527
1968374.029
1989903.689
2009890.664
2028220.473
2044832.83
2059576.446
2072333.98
2082931.214
2091230.184
2097077.889
2100297.926
2100760.563
2098385.663
2092938.272
2083726.294
2071586.34
1487059.876
1520414.599
1518048.06
1519564.218
1524818.596
1531546.726
1539371.686
1548350.698
1558542.311
1569930.873
1582447.36
1596110.297
1610872.315
1626748.661
1643677.268
1661610.554
1680478.278
1700221.639
1720707.287
1741845.265
1763511.82
1785550.055
1807803.936
1830142.457
1852345.82
1874256.1
1895753.658
1916690.3
1936878.787
1956215.489
1974564.876
1991830.911
2007851.264
2022552.916
2035866.426
2047651.998
2057868.503
2066418.405
2073245.639
2078284.429
2081488.733
2082828.019
2082279.572
2079820.665
2075467.024
2069280.135
2061329.476
2051480.306
2039233.748
2025529.162
1544508.336
1574578.402
1573061.989
1574681.843
1579528.623
1585701.945
1592849.898
1601033.585
1610244.607
1620393.009
1631496.749
1643499.775
1656307.385
1669898.029
1684185.815
1699040.246
1714417.651
1730195.109
1746248.906
1762515.128
1778822.579
1795026.525
1811015.029
1826692.567
1841938.41
1856605.138
1870611.691
1883840.598
1896191.062
1907599.692
1917986.785
1927249.097
1935381.235
1942266.128
1947913.875
1952263.379
1955280.322
1956955.875
1957275.202
1956236.129
1953832.383
1950084.967
1945038.261
1938726.925
1931175.016
1922425.731
1912673.9
1902059.164
1890384.909
1878132.089
1681187.802
1705254.236
1704197.168
1706047.196
1710646.081
1716423.816
1723089.04
1730625.858
1739028.393
1748139.898
1757995.586
1768463.596
1779447.589
1790856.6
1802666.816
1814719.807
1826917.307
1839196.485
1851446.808
1863549.897
1875385.3
1886876.181
1897942.53
1908480.524
1918419.735
1927701.984
1936195.163
1943880.06
1950693.186
1956577.942
1961502.345
1965405.114
1968313.808
1970137.46
1970894.96
1970604.143
1969213.32
1966739.086
1963235.731
1958700.56
1953126.955
1946600.144
1939245.159
1931153.42
1921749.757
1908975.28
1896113.766
1915288.909
2007216.694
2107495.365
1710058.412
1729833.514
1729408.189
1731123.258
1734982.907
1739772.508
1745294.425
1751439.879
1758193.749
1765501.931
1773219.803
1781325.529
1789722.815
1798295.451
1806973.53
1815701.248
1824366.055
1832885.402
1841186.045
1849182.867
1856779.732
1863959.21
1870651.218
1876740.649
1882210.108
1887017.329
1891111.406
1894434.581
1896992.218
1898719.736
1899628.371
1899704.043
1898903.717
1897280.788
1894803.149
1891470.362
1887338.295
1882412.212
1876709.462
1870312.981
1863356.892
1855904.977
1846861.351
1834362.024
1827448.914
1868635.869
1957287.973
2043516.367
2116281.822
2180071.621
1782019.096
1796787.246
1796427.902
1797879.06
1801035.14
1804962.998
1809398.066
1814347.92
1819677.747
1825408.914
1831389.997
1837534.384
1843814.918
1850135.223
1856413.55
1862572.069
1868540.434
1874263.929
1879684.162
1884739.59
1889364.295
1893522.336
1897149.741
1900200.738
1902670.998
1904468.362
1905644.187
1906101.893
1905895.622
1904956.868
1903313.654
1900966.334
1897875.251
1894123.079
1889678.032
1884564.523
1878854.519
1872564.109
1865898.919
1858853.956
1850153.287
1837819.258
1833295.576
1885104.861
1975256.239
2063306.477
2137226.263
2175064.065
2145450.743
2101495.451
1787318.292
1799333.946
1799163.841
1800226.848
1802556.017
1805473.818
1808692.66
1812289.366
1816130.372
1820152.493
1824326.293
1828560.889
1832790.563
1836958.665
1841008.873
1844886.38
1848531.498
1851866.335
1854850.434
1857463.098
1859674.571
1861398.564
1862628.038
1863335.716
1863492.941
1863088.381
1862095.871
1860515.32
1858334.258
1855553.029
1852186.084
1848213.368
1843699.532
1838617.719
1833017.167
1826976.902
1820638.499
1814056.171
1805725.114
1793591.517
1790444.046
1848452.473
1941352.732
2031529.385
2103097.726
2123009.845
2094339.267
2057794.294
2022288.553
1988284.837
1816697.124
1826109.077
1825730.367
1826422.591
1828154.883
1830267.866
1832635.564
1835180.833
1837912.049
1840742.822
1843612.84
1846477.913
1849283.412
1851965.772
1854476.584
1856784.485
1858856.949
1860643.713
1862085.138
1863137.845
1863839.685
1864116.034
1863941.72
1863345.712
1862245.042
1860714.574
1858669.29
1856185.093
1853193.292
1849774.333
1845876.876
1841562.306
1836833.502
1831766.686
1826543.399
1821161.1
1814013.202
1803002.984
1801716.906
1864822.434
1960587.777
2053093.549
2124788.755
2137030.714
2110005.523
2078250.884
2049110.879
2022427.955
1998572.779
1979418.411
1805525.658
1813878.422
1813413.668
1813728.963
1814787.341
1816084.325
1817536.973
1819079.84
1820659.194
1822284.296
1823889.672
1825427.883
1826861.68
1828155.606
1829276.625
1830190.505
1830860.402
1831263.445
1831392.774
1831216.789
1830705.536
1829875.45
1828700.95
1827175.449
1825307.16
1823085.543
1820526.658
1817641.332
1814430.943
1810931.422
1807127.566
1803119.642
1799076.137
1794977.804
1789187.596
1779481.094
1780014.54
1846596.378
1943782.233
2037492.44
2109787.943
2119744.355
2095234.793
2067378.626
2042094.395
2019092.028
1999167.793
1985825.969
1982949.909
1988504.484
1808039.622
1815470.416
1814782.464
1814749.408
1815319.935
1816084.65
1816860.303
1817697.985
1818541.434
1819343.134
1820069.734
1820716.182
1821257.763
1821665.225
1821908.47
1821949.162
1821779.043
1821390.476
1820780.674
1819923.868
1818806.345
1817450.003
1815819.179
1813928.214
1811814.221
1809429.215
1806847.868
1803997.525
1800978.376
1797760.315
1794631.894
1791467.532
1786673.406
1777960.064
1779620.814
1847729.895
1945344.48
2039614.521
2112250.635
2120671.914
2097433.607
2071558.198
2048088.389
2026724.054
2008293.559
1996066.381
1993553.012
1999833.779
2010469.183
2021912.401
1788107.125
1795549.776
1794682.008
1794330.169
1794533.836
1794808.679
1795080.212
1795285.579
1795483.932
1795630.686
1795690.999
1795646.169
1795478.684
1795171.946
1794711.427
1794086.17
1793297.458
1792353.144
1791197.634
1789827.552
1788289.873
1786549.527
1784588.577
1782475.543
1780139.337
1777640.458
1774959.294
1772148.169
1769416.145
1766683.471
1762335.168
1754123.545
1755988.309
1823339.888
1920725.514
2015378.44
2088232.965
2094982.103
2071890.108
2046629.829
2023483.362
2002155.344
1983523.331
1970976.15
1968295.539
1974539.853
1984602.922
1994947.263
2004731.168
2013633.945
1776364.011
1783769.761
1782677.111
1782142.18
1782116.176
1782103.621
1782067.55
1781971.969
1781788.451
1781539.009
1781220.485
1780797.45
1780252.566
1779576.082
1778764.443
1777826.06
1776741.438
1775486.801
1774031.221
1772437.973
1770688.895
1768741.732
1766644.185
1764383.318
1761930.483
1759375.558
1756880.869
1754398.131
1750337.251
1742496.669
1744053.584
1808847.508
1905686.908
2000883.615
2074350.084
2080421.74
2057324.367
2032239.396
2009107.902
1987465.258
1968218.086
1954732.445
1951178.211
1957066.607
1967203.848
1977648.607
1987137.576
1995247.071
2001939.173
2007468.346
1752034.418
1759885.856
1758686.736
1757991.639
1757753.499
1757537.895
1757224.923
1756874.085
1756407.963
1755848.992
1755198.995
1754446.105
1753580.642
1752595.27
1751480.697
1750229.355
1748836.16
1747290.316
1745581.401
1743733.809
1741736.106
1739576.501
1737250.746
1734817.845
1732462.227
1730101.024
1726270.978
1718767.171
1719720.157
1780579.873
1876351.91
1971961.675
2046433.633
2053626.269
2030926.042
2005978.33
1982959.851
1961275.185
1941554.492
1927014.238
1922365.111
1927835.067
1938248.6
1949181.914
1959197.326
1967857.774
1974872.037
1980276.261
1984615.978
1988410.238
1731742.615
1739939.079
1738589.452
1737756.555
1737397.627
1737059.181
1736601.958
1736066.535
1735429.897
1734690.619
1733849.602
1732898.388
1731829.358
1730636.919
1729315.971
1727859.825
1726263.201
1724528.89
1722660.29
1720624.521
1718436.437
1716175.007
1713955.168
1711737.696
1708190.483
1701085.536
1701418.554
1757863.655
1852204.51
1947925.902
2023532.151
2033669.673
2011906.165
1987178.306
1964222.277
1942693.027
1922864.233
1907324.911
1901146.739
1905865.429
1916544.231
1928122.177
1938809.648
1948166.134
1955919.871
1962015.115
1966734.761
1970594.416
1974178.051
1977691.378
1703779.342
1712452.597
1710987.206
1710033.967
1709577.244
1709102.744
1708504.414
1707794.327
1706978.783
1706057.738
1705025.161
1703876.33
1702605.907
1701207.423
1699677.025
1698011.647
1696207.667
1694272.124
1692229.999
1690075.987
1687954.138
1685874.859
1682562.575
1675824.611
1675661.857
1728100.733
1820670.151
1915968.25
1992536.747
2006668.332
1986194.164
1961752.516
1938844.885
1917409.308
1897503.423
1881149.76
1873200.188
1876614.916
1887342.761
1899623.795
1911085.094
1921221.772
1929773.985
1936644.052
1942051.054
1946429.204
1950220.111
1953743.625
1957218.787
1960624.671
1677413.369
1686406.864
1684811.197
1683760.153
1683241.8
1682669.853
1681975.998
1681140.463
1680207.282
1679169.612
1678012.409
1676731.343
1675324.359
1673788.985
1672120.678
1670313.287
1668371.66
1666356.975
1664430.387
1662537.446
1659426.197
1653014.609
1652714.864
1702668.679
1793399.737
1887706.406
1964808.444
1982993.542
1964113.924
1940133.99
1917433.216
1896002.463
1876024.787
1858932.192
1849175.855
1850787.966
1861066.551
1873942.593
1886221.219
1897208.209
1906635.458
1914348.732
1920491.286
1925475.081
1929755.87
1933646.472
1937262.807
1940660.227
1943971.003
1947191.187
1646158.447
1655521.082
1653835.604
1652686.212
1652088.466
1651425.991
1650623.689
1649648.512
1648600.645
1647437.022
1646123.422
1644674.512
1643106.139
1641419.62
1639626.425
1637783.736
1636007.783
1634214.008
1631181.135
1624978.83
1625032.997
1675066.077
1764003.062
1856586.472
1933458.484
1954806.013
1937182.63
1913945.127
1891652.24
1870203.95
1850102.357
1832344.115
1820729.737
1820151.021
1829574.689
1842832.736
1855850.336
1867656.705
1877981.615
1886612.468
1893584.005
1899238.836
1904047.198
1908377.275
1912397.803
1916138.655
1919590.7
1922791.364
1925889.3
1928891.438
1615893.477
1625435.39
1623702.817
1622485.525
1621791.008
1621077.741
1620155.738
1619118.769
1617971.33
1616653.272
1615207.976
1613652.739
1612004.87
1610320.104
1608696.419
1607013.429
1603984.473
1597770.116
1598887.849
1652815.164
1740232.031
1830221.658
1905744.649
1928376.779
1911614.926
1888942.26
1867192.873
1846084.46
1825795.041
1807423.102
1793993.126
1790837.949
1798832.933
1812225.617
1825942.482
1838520.969
1849692.353
1859231.95
1867068.944
1873452.756
1878835.239
1883629.2
1888061.372
1892191.098
1896020.436
1899547.196
1902780.084
1905766.088
1908664.576
1911500.013
1582710.956
1592334.587
1590544.081
1589290.445
1588515.667
1587681.11
1586662.481
1585514.781
1584203.846
1582779.307
1581282.725
1579720.57
1578158.118
1576463.79
1573191.868
1566612.104
1569820.459
1632860.295
1719126.941
1805371.952
1877970.952
1898846.041
1882411.379
1860364.951
1839037.462
1818165.484
1797913.962
1779014.361
1764034.104
1758264.857
1764320.646
1777465.589
1791784.266
1805104.77
1817095.01
1827530.864
1836262.583
1843427.115
1849417.627
1854671.226
1859490.272
1863988.169
1868170.736
1872036
1875596.622
1878864.745
1881856.49
1884637.578
1887377.97
1890093.228
1550771.219
1560328.723
1558457.182
1557107.502
1556276.304
1555353.628
1554271.947
1553042.988
1551691.107
1550215.306
1548628.977
1546583.285
1542634.718
1537555.622
1552065.083
1623096.09
1706283.684
1787484.605
1855348.562
1870233.19
1853353.291
1832115.62
1811335.106
1790736.965
1770609.114
1751532.606
1735250.204
1726767.574
1730342.825
1742824.877
1757639.408
1771637.779
1784334.909
1795574.004
1805166.944
1813132.06
1819780.109
1825537.289
1830748.49
1835585.16
1840086.233
1844255.305
1848101.795
1851643.009
1854897.923
1857894.364
1860664.428
1863276.652
1865887.747
1868497.704
1516127.241
1525764.068
1523982.354
1522693.923
1521885.147
1520919.919
1519663.961
1518148.896
1516359.663
1513481.361
1508104.341
1508939.54
1552247.426
1623727.097
1699559.956
1774415.989
1835572.689
1839044.465
1820795.894
1800711.818
1780769.933
1760629.821
1740778.094
1721761.396
1704761.985
1694092.344
1694983.928
1706166.918
1721119.713
1735690.93
1749044.955
1761039.689
1771462.677
1780225.387
1787534.828
1793798.964
1799408.45
1804591.607
1809414.436
1813885.667
1818013.033
1821813.529
1825304.834
1828513.796
1831479.117
1834239.798
1836824.683
1839282.117
1841748.535
1844219.6
1490259.21
1498443.296
1495718.847
1493234.489
1490896.13
1488400.118
1485104.501
1479993.585
1479531.653
1511923.801
1571965.055
1637655.012
1704155.94
1769485.648
1814437.064
1806933.103
1788196.223
1769473.356
1750494.087
1731006.601
1711638.335
1692900.523
1675575.731
1663222.415
1661521.783
1671060.19
1685843.516
1700835.489
1714717.562
1727354.162
1738545.592
1748108.642
1756117.54
1762912.455
1768901.308
1774383.208
1779478.13
1784209.978
1788587.344
1792620.461
1796327.341
1799729.188
1802860.462
1805764.037
1808480.651
1811035.657
1813439.678
1815730.471
1818037.843
1820359.058
1426420.98
1437256.75
1435537.43
1433390.777
1434614.806
1455764.742
1498114.624
1547316.002
1599686.692
1654795.182
1712899.873
1764980.213
1778460.327
1766535.344
1750490.705
1733855.965
1716300.456
1698065.255
1679794.291
1661912.554
1644920.226
1631701.605
1628084.609
1636074.325
1650532.703
1665863.255
1680198.263
1693360.282
1705187.73
1715470.417
1724180.453
1731555.889
1737973.793
1743774.053
1749141.199
1754126.507
1758739.561
1762991.791
1766901.932
1770487.943
1773778.043
1776812.505
1779635.574
1782283.585
1784778.556
1787132.01
1789351.192
1791471.179
1793613.535
1795772.967
1499572.664
1515984.203
1530856.688
1552979.389
1581778.74
1615671.182
1654532.238
1698222
1740145.523
1754610.634
1745641.438
1732416.676
1718573.197
1703261.489
1686600.164
1669245.777
1651788.842
1634519.467
1617725.178
1603969.176
1598787.818
1605074.281
1618721.987
1633970.899
1648450.395
1661872.214
1674098.762
1684905.398
1694169.799
1702016.656
1708774.886
1714816.976
1720391.935
1725579.248
1730389.282
1734829.402
1738916.722
1742670.116
1746110.697
1749272.701
1752198.889
1754930.073
1757495.459
1759913.141
1762197.021
1764357.665
1766401.037
1768358.802
1770341.299
1772347.566
1672771.39
1676091.239
1690075.59
1710698.592
1733687.349
1743144.245
1737011.511
1727347.323
1716986.035
1705466.085
1692241.379
1677605.943
1661644.826
1644827.928
1627914.461
1611107.641
1594561.769
1580498.509
1574142.603
1578718.739
1591039.063
1605614.571
1619688.632
1632894.254
1645127.795
1656144.967
1665747.107
1673945.578
1680983.765
1687202.49
1692886.549
1698173.381
1703095.217
1707657.152
1711869.155
1715747.294
1719306.45
1722572.58
1725584.021
1728383.75
1731006.888
1733474.879
1735802.262
1738002.653
1740088.717
1742069.242
1743947.737
1745753.784
1747593.215
1749460.419
1727292.895
1713189.952
1712349.995
1709412.21
1704212.607
1697651.05
1689559.696
1679749.321
1668182.076
1654774.672
1640137.918
1624539.892
1608060.215
1591813.922
1575972.98
1562276.337
1555513.132
1558714.877
1569360.462
1582513.313
1595554.209
1608007.169
1619755.684
1630548.296
1640132.661
1648415.326
1655530.985
1661768.901
1667429.344
1672700.265
1677635.271
1682235.48
1686502.4
1690446.673
1694080.938
1697420.727
1700495.365
1703344.015
1706005.086
1708506.214
1710863.692
1713089.943
1715197.783
1717197.521
1719099.396
1720909.875
1722634.265
1724298.621
1726001.942
1727736.373
1708554.664
1689690.027
1688147.057
1683541.1
1675819.633
1665884.832
1654279.603
1641019.085
1626610.282
1611228.97
1595677.014
1579325.07
1563565.968
1550702.579
1544186.316
1546246.214
1554710.786
1565691.908
1576942.616
1587990.777
1598688.813
1608755.801
1617884.338
1625883.473
1632790.829
1638826.281
1644274.631
1649354.95
1654145.868
1658650.34
1662860.393
1666776.982
1670406.909
1673756.401
1676843.568
1679699.894
1682363.245
1684865.241
1687224.932
1689454.326
1691564.275
1693565.852
1695469.025
1697282.26
1699014.41
1700671.899
1702255.465
1703786.48
1705358.153
1706964.97
1664203.259
1643128.18
1640662.749
1634966.663
1626564.845
1615980.003
1603995.043
1591356.491
1577430.085
1563406.308
1549665.885
1538899.158
1534400.99
1536494.121
1543138.808
1551924.322
1561274.94
1570773.88
1580247.803
1589389.792
1597841.958
1605382.733
1611975.311
1617754.355
1622948.447
1627774.235
1632349.58
1636693.971
1640792.348
1644634.251
1648218.398
1651546.521
1654623.783
1657470.336
1660118.289
1662601.377
1664943.918
1667157.846
1669252.599
1671239.263
1673126.742
1674923.734
1676636.792
1678276.115
1679849.079
1681358.777
1682805.622
1684212.755
1685663.329
1687150.695
1616885.719
1596259.882
1593966.699
1588328.366
1580099.334
1570429.897
1559354.584
1548153.62
1537915.875
1530931.94
1528457.321
1530717.382
1535684.216
1542103.798
1549422.832
1557201.254
1565226.342
1573181.969
1580711.583
1587587.845
1593702.752
1599091.746
1603919.07
1608393.5
1612662.686
1616758.962
1620667.604
1624364.559
1627839.627
1631089.195
1634109.722
1636909.732
1639512.083
1641948.114
1644245.301
1646420.06
1648481.285
1650436.457
1652294.564
1654063.22
1655749.037
1657356.772
1658894.689
1660369.898
1661787.572
1663151.325
1664465.531
1665753.512
1667089.864
1668462.813
1567242.433
1548219.519
1546460.48
1542056.021
1535630.66
1529318.383
1524330.161
1521498.007
1521485.101
1523480.948
1527270.081
1532101.434
1537850.694
1544265.371
1551079.701
1558007.825
1564710.869
1570976.801
1576654.957
1581697.941
1586206.744
1590391.979
1594399.424
1598272.435
1601998.096
1605551.491
1608916.139
1612082.82
1615044.992
1617798.801
1620354.912
1622737.412
1624978.412
1627100.649
1629114.359
1631025.578
1632841.428
1634570.174
1636218.268
1637789.746
1639291.624
1640730.455
1642111.068
1643435.666
1644711.324
1645944.461
1647138.179
1648311.642
1649536.425
1650799.74
1521935.12
1508075.842
1508854.917
1508969.21
1508675.41
1508947.694
1510339.338
1512796.507
1516119.297
1520443.042
1525479.125
1531175.42
1537247.674
1543493.869
1549602.969
1555412.499
1560763.966
1565549.466
1569869.453
1573874.55
1577687.107
1581375.922
1584943.909
1588359.489
1591612.726
1594697.635
1597598.558
1600305.116
1602820.283
1605161.088
1607354.24
1609425.033
1611389.471
1613255.099
1615026.438
1616708.977
1618309.924
1619836.017
1621291.496
1622683.24
1624016.556
1625297.449
1626529.777
1627719.191
1628870.174
1629986.509
1631071.587
1632142.858
1633262.365
1634419.117
1498276.477
1490583.59
1492618.768
1494654.759
1496839.506
1499754.517
1503352.395
1507583.936
1512471.559
1517812.809
1523459.549
1529252.143
1534969.204
1540446.782
1545568.952
1550200.387
1554426.976
1558346.493
1562050.185
1565607.897
1569073.436
1572419.648
1575615.522
1578647.365
1581507.164
1584186.358
1586674.122
1588981.194
1591131.952
1593154.617
1595071.643
1596894.455
1598625.935
1600270.475
1601835.148
1603325.424
1604745.521
1606098.522
1607390.983
1608628.82
1609815.704
1610956.292
1612057.909
1613129.117
1614173.44
1615189.611
1616180.009
1617160.383
1618185.811
1619243.082
1489958.537
1485957.663
1488190.816
1490864.239
1493970.894
1497657.476
1501880.081
1506562.13
1511575.026
1516716.5
1521906.625
1526925.841
1531715.146
1536137.679
1540236.718
1544063.358
1547664.251
1551152.424
1554551.839
1557836.016
1560978.966
1563956.377
1566774.071
1569435.563
1571922.588
1574231.997
1576377.237
1578382.563
1580271.723
1582058.586
1583753.624
1585362.778
1586892.056
1588346.826
1589732.789
1591055.122
1592318.358
1593526.954
1594683.807
1595789.05
1596851.483
1597878.38
1598875.631
1599848.097
1600801.245
1601734.296
1602644.464
1603546.165
1604489.982
1605462.949
1489584.349
1487362.117
1489413.401
1491977.244
1494991.941
1498488.686
1502400.378
1506624.219
1510964.747
1515323.216
1519575.084
1523634.025
1527477.15
1531132.01
1534595.41
1537987.364
1541299.452
1544496.328
1547560.823
1550509.905
1553319.684
1555973.354
1558459.144
1560763.175
1562899.498
1564889.289
1566761.473
1568534.15
1570215.782
1571811.386
1573324.526
1574759.777
1576123.505
1577421.987
1578658.761
1579839.642
1580969.382
1582053.433
1583094.034
1584094.553
1585059.541
1585997.126
1586912.195
1587808.478
1588688.364
1589552.787
1590396.621
1591233.649
1592108.984
1593008.983
1491435.018
1489963.791
1491737.325
1493969.951
1496570.095
1499545.438
1502835.599
1506299.893
1509798.785
1513302.18
1516691.164
1520023.285
1523250.548
1526448.031
1529596.128
1532642.732
1535617.019
1538496.378
1541246.498
1543840.668
1546290.016
1548597.92
1550749.957
1552750.115
1554614.464
1556365.006
1558023.666
1559598.828
1561095.144
1562519.733
1563876.222
1565167.329
1566394.781
1567561.479
1568676.143
1569743.113
1570764.827
1571744.859
1572690.896
1573610.267
1574501.832
1575371.63
1576224.317
1577061.836
1577885.22
1578693.651
1579485.057
1580269.45
1581086.372
1581923.323
1493494.255
1492240.781
1493698.924
1495511.107
1497581.322
1499953.209
1502566.736
1505281.184
1508081.126
1510919.498
1513777.438
1516645.566
1519528.056
1522348.185
1525151.815
1527885.889
1530499.378
1533013.267
1535426.704
1537705.914
1539825.436
1541797.926
1543643.057
1545387.615
1547041.012
1548609.764
1550093.82
1551502.755
1552843.719
1554120.953
1555339.078
1556503.168
1557616.025
1558678.804
1559694.019
1560666.172
1561600.572
1562503.36
1563380.284
1564236.071
1565073.179
1565893.002
1566698.462
1567490.675
1568269.925
1569035.049
1569783.732
1570522.765
1571289.984
1572075.04
1494785.318
1493534.666
1494689.071
1496088.214
1497704.113
1499594.693
1501665.074
1503874.52
1506236.941
1508649.29
1511164.494
1513676.491
1516210.479
1518713.407
1521146.427
1523537.472
1525841.496
1528020.431
1530082.542
1532037.988
1533871.516
1535583.07
1537198.944
1538737.715
1540208.928
1541615.611
1542953.723
1544223.911
1545434.569
1546590.764
1547694.742
1548751.474
1549766.679
1550743.418
1551676.324
1552573.506
1553442.51
1554288.296
1555114.452
1555924.504
1556720.38
1557502.198
1558271.116
1559028.194
1559772.989
1560501.636
1561212.232
1561912.524
1562637.845
1563376.75
1495090.181
1493772.205
1494719.258
1495866.596
1497217.34
1498773.823
1500498.863
1502422.043
1504448.778
1506571.642
1508746.198
1510953.698
1513139.285
1515331.347
1517456.248
1519506.859
1521495.221
1523376.988
1525139.862
1526804.306
1528396.181
1529914.494
1531355.687
1532731.608
1534046.607
1535305.034
1536515.325
1537672.144
1538773.531
1539826.856
1540837.847
1541809.456
1542743.926
1543643.822
1544512.646
1545354.247
1546174.801
1546978.326
1547767.603
1548543.644
1549306.788
1550058.04
1550798.196
1551526.771
1552240.802
1552935.357
1553612.72
1554279.423
1554967.534
1555666.002
1494761.06
1493409.265
1494267.159
1495289.797
1496444.04
1497756.033
1499271.447
1500943.921
1502694.869
1504553.978
1506431.753
1508357.305
1510259.627
1512140.4
1513985.57
1515742.938
1517424.466
1519039.884
1520567.026
1522021.53
1523421.045
1524776.189
1526074.47
1527311.807
1528498.276
1529637.787
1530733.643
1531789.705
1532800.091
1533769.834
1534703.971
1535603.725
1536471.201
1537312.063
1538131.523
1538931.042
1539715.365
1540487.289
1541247.72
1541996.452
1542732.151
1543458.546
1544173.826
1544874.624
1545557.524
1546222.885
1546870.405
1547505.809
1548159.762
1548823.56
1494186.022
1492810.994
1493592.551
1494490.111
1495471.847
1496623.327
1497957.044
1499395.721
1500934.266
1502540.673
1504180.827
1505835.837
1507487.207
1509093.592
1510666.724
1512173.239
1513613.413
1515008.454
1516359.374
1517655.9
1518906.35
1520115.627
1521287.455
1522409.866
1523488.757
1524528.198
1525529.453
1526496.452
1527431.067
1528330.857
1529198.31
1530037.56
1530853.706
1531650.517
1532430.405
1533197.415
1533953.689
1534699.901
1535435.593
1536158.947
1536872.689
1537576.309
1538265.801
1538938.422
1539591.942
1540230.06
1540849.362
1541455.401
1542075.805
1542707.317
1493455.116
1492041.481
1492750.819
1493533.18
1494385
1495413.667
1496577.301
1497818.782
1499163.569
1500544.978
1501970.68
1503385.798
1504802.124
1506171.694
1507507.027
1508814.874
1510076.374
1511306.413
1512514.452
1513678.517
1514802.812
1515892.956
1516953.159
1517978.188
1518965.309
1519918.551
1520841.264
1521735.85
1522603.832
1523440.865
1524252.812
1525045.144
1525821.234
1526582.972
1527331.839
1528072.705
1528805.253
1529528.709
1530241.606
1530942.004
1531634.418
1532313.236
1532975.868
1533620.424
1534247.162
1534858.306
1535449.9
1536025.507
1536615.706
1537216.851
1492609.1
1491159.048
1491800.816
1492490.017
1493251.969
1494146.809
1495146.984
1496232.712
1497392.482
1498575.985
1499792.329
1500997.364
1502200.206
1503380.478
1504540.971
1505694.038
1506817.373
1507916.71
1508995.917
1510046.079
1511065.161
1512056.456
1513021.442
1513960.496
1514867.929
1515748.711
1516605.377
1517437.619
1518243.979
1519028.952
1519797.384
1520552.287
1521295.655
1522028.283
1522752.233
1523470.404
1524180.937
1524882.556
1525573.293
1526252.442
1526920.058
1527572.989
1528208.955
1528824.476
1529425.986
1530010.707
1530573.486
1531119.584
1531682.387
1532253.077
1491679.182
1490194.178
1490772.821
1491394.1
1492062.042
1492829.278
1493677.833
1494615.037
1495602.082
1496611.504
1497645.482
1498678.191
1499714.626
1500754.499
1501784.324
1502809.864
1503817.477
1504804.885
1505774.754
1506729.503
1507658.897
1508565.32
1509449.381
1510311.805
1511151.292
1511970.131
1512767.742
1513543.395
1514299.55
1515043.221
1515776.295
1516500.666
1517216.913
1517923.243
1518625.815
1519322.68
1520012.375
1520692.995
1521359.15
1522014.753
1522657.307
1523283.833
1523890.377
1524480.853
1525056.989
1525613.745
1526147.067
1526667.924
1527202.368
1527741.242
1490668.845
1489158.262
1489689.921
1490245.739
1490816.606
1491466.375
1492186.133
1492979.049
1493811.105
1494677.72
1495566.857
1496471.791
1497385.439
1498310.744
1499230.498
1500146.107
1501052.844
1501946.545
1502828.047
1503696.594
1504546.312
1505378.144
1506192.704
1506989.584
1507769.971
1508532.044
1509276.822
1510006.824
1510722.225
1511431.578
1512135.492
1512833.927
1513525.105
1514208.765
1514890.311
1515566.766
1516235.361
1516890.482
1517532.592
1518163.897
1518780.486
1519377.948
1519957.476
1520524.067
1521072.91
1521600.254
1522107.576
1522603.615
1523109.117
1523616.327
1489573.389
1488057.52
1488547.929
1489032.858
1489513.389
1490059.448
1490670.23
1491345.127
1492059.224
1492814.082
1493592.9
1494396.954
1495211.433
1496036.601
1496860.323
1497683.055
1498504.411
1499317.851
1500122.129
1500914.437
1501694.283
1502462.099
1503217.231
1503956.253
1504681.484
1505393.889
1506095.43
1506785.418
1507468.883
1508150.698
1508829.822
1509504.214
1510170.498
1510834.629
1511496.489
1512152.156
1512795.439
1513423.694
1514043.21
1514649.381
1515237.648
1515807.211
1516363.173
1516902.958
1517423.056
1517923.364
1518407.06
1518876.838
1519352.494
1519832.835
1488405.84
1486897.373
1487342.922
1487766.667
1488173.705
1488637.142
1489165.682
1489751.435
1490378.389
1491044.16
1491735.758
1492450.811
1493178.544
1493916.292
1494660.176
1495406.928
1496152.352
1496894.607
1497630.535
1498356.307
1499076.196
1499788.885
1500490.081
1501174.734
1501852.856
1502525.249
1503190.275
1503845.326
1504503.422
1505161.74
1505817.553
1506467.38
1507112.381
1507758.326
1508400.074
1509030.99
1509646.091
1510251.965
1510846.816
1511425.365
1511984.81
1512530.064
1513060.616
1513572.644
1514065.195
1514541.903
1515000.425
1515441.946
1515891.971
1516347.823
1487187.515
1485695.155
1486104.447
1486480.997
1486832.78
1487235.204
1487701.408
1488217.884
1488774.306
1489365.434
1489982.653
1490620.053
1491274.503
1491940.644
1492616.487
1493296.611
1493974.846
1494654.441
1495330.939
1495999.603
1496667.578
1497328.497
1497976.096
1498617.988
1499258.958
1499896.829
1500528.838
1501159.164
1501794.51
1502430.653
1503063.271
1503689.104
1504317.209
1504943.789
1505561.2
1506162.742
1506754.611
1507337.561
1507905.627
1508454.773
1508989.311
1509510.535
1510014.207
1510498.235
1510966.903
1511419.491
1511850.576
1512267.895
1512694.901
1513122.573
1485955.262
1484490.206
1484871.037
1485211.647
1485522.317
1485879.423
1486292.015
1486750.21
1487246.658
1487772.823
1488327.066
1488901.671
1489495.114
1490098.701
1490713.777