/*--------------------------------*- C++ -*----------------------------------*\
  =========                 |
  \\      /  F ield         | OpenFOAM: The Open Source CFD Toolbox
   \\    /   O peration     | Website:  https://openfoam.org
    \\  /    A nd           | Version:  7
     \\/     M anipulation  |
\*---------------------------------------------------------------------------*/
FoamFile
{
    version     2.0;
    format      ascii;
    class       volVectorField;
    location    "0.0009";
    object      U;
}
// * * * * * * * * * * * * * * * * * * * * * * * * * * * * * * * * * * * * * //

dimensions      [0 1 -1 0 0 0 0];

internalField   nonuniform List<vector> 
14000
(
(-6.072857281e-08 3.335161709e-20 -0.002000023234)
(-1.593329716e-07 3.464443917e-20 -0.002000029053)
(-2.538642441e-07 2.078672086e-20 -0.002000043687)
(-3.535454691e-07 3.773055397e-21 -0.002000064794)
(-4.564175864e-07 -1.558795262e-20 -0.002000092261)
(-5.622497072e-07 -2.781918397e-21 -0.002000125866)
(-6.716293483e-07 4.309686159e-21 -0.002000165327)
(-7.850704082e-07 8.318931978e-21 -0.002000210398)
(-9.029116717e-07 1.059455262e-20 -0.002000260876)
(-1.025365741e-06 1.218089721e-20 -0.002000316596)
(-1.152536065e-06 1.338110381e-20 -0.002000377422)
(-1.284419551e-06 1.415336393e-20 -0.002000443246)
(-1.420909862e-06 1.475326473e-20 -0.002000513985)
(-1.561801311e-06 1.549541186e-20 -0.00200058958)
(-1.706791631e-06 1.629820221e-20 -0.002000669989)
(-1.855484822e-06 1.701427898e-20 -0.002000755185)
(-2.007401868e-06 1.756329678e-20 -0.002000845157)
(-2.161989568e-06 1.801748473e-20 -0.002000939908)
(-2.318599111e-06 1.87286853e-20 -0.002001039457)
(-2.47647557e-06 1.941941306e-20 -0.002001143839)
(-2.634773801e-06 1.990436846e-20 -0.002001253102)
(-2.792577437e-06 2.040996732e-20 -0.002001367306)
(-2.94890025e-06 2.090101395e-20 -0.002001486529)
(-3.102650816e-06 2.708126522e-20 -0.00200161086)
(-3.252643012e-06 3.323158524e-20 -0.002001740398)
(-3.397621912e-06 3.930838985e-20 -0.002001875247)
(-3.536233256e-06 4.528442928e-20 -0.002002015504)
(-3.667040521e-06 4.62035682e-20 -0.002002161248)
(-3.788517546e-06 4.73849525e-20 -0.002002312521)
(-3.89904364e-06 5.38292022e-20 -0.002002469309)
(-3.996932082e-06 6.08221024e-20 -0.002002631517)
(-4.080383767e-06 6.046249318e-20 -0.002002798949)
(-4.147473229e-06 6.110411192e-20 -0.002002971274)
(-4.196179449e-06 6.254230806e-20 -0.002003147999)
(-4.224393119e-06 6.465191135e-20 -0.002003328458)
(-4.22987461e-06 6.701814096e-20 -0.002003511797)
(-4.210246664e-06 6.961323441e-20 -0.002003696967)
(-4.16300037e-06 7.247742942e-20 -0.002003882733)
(-4.085502771e-06 7.552182805e-20 -0.002004067679)
(-3.974973123e-06 7.874919177e-20 -0.002004250228)
(-3.828473731e-06 7.898532378e-20 -0.002004428647)
(-3.642940846e-06 7.958540688e-20 -0.002004601057)
(-3.415180257e-06 8.059286119e-20 -0.002004765422)
(-3.141879169e-06 8.185597339e-20 -0.002004919522)
(-2.819588058e-06 8.342304918e-20 -0.002005060904)
(-2.444767409e-06 8.528338066e-20 -0.002005186806)
(-2.014141157e-06 8.747450606e-20 -0.002005294064)
(-1.524655394e-06 8.658938097e-20 -0.002005379056)
(-9.694577786e-07 8.597137113e-20 -0.002005437458)
(-3.356165018e-07 8.5659909e-20 -0.002005463288)
(-1.560978313e-07 7.50188781e-20 -0.002003016379)
(-4.090477407e-07 1.526027615e-19 -0.002003034829)
(-6.478374432e-07 2.196909615e-19 -0.002003075767)
(-8.92496501e-07 1.930906011e-19 -0.002003135542)
(-1.135692004e-06 1.826988208e-19 -0.002003212665)
(-1.374942347e-06 1.778043274e-19 -0.002003305557)
(-1.610069208e-06 1.274462508e-19 -0.002003412684)
(-1.840975232e-06 8.477813342e-20 -0.002003532591)
(-2.067393174e-06 4.711059272e-20 -0.002003663907)
(-2.288958991e-06 4.588039231e-20 -0.002003805342)
(-2.505219656e-06 4.299708062e-20 -0.002003955692)
(-2.715641448e-06 3.865005244e-20 -0.002004113837)
(-2.919611235e-06 3.351763566e-20 -0.002004278734)
(-3.116452397e-06 3.894296272e-20 -0.002004449416)
(-3.305448979e-06 4.243355645e-20 -0.002004624985)
(-3.485809917e-06 3.430787028e-20 -0.002004804611)
(-3.656662402e-06 3.500051587e-20 -0.002004987527)
(-3.817124664e-06 4.347228489e-20 -0.00200517303)
(-3.966282311e-06 5.028610725e-20 -0.002005360481)
(-4.103176458e-06 5.565995523e-20 -0.0020055493)
(-4.226846233e-06 5.991146649e-20 -0.002005738968)
(-4.336324453e-06 6.368893478e-20 -0.002005929026)
(-4.430644079e-06 7.374776967e-20 -0.002006119074)
(-4.508872722e-06 8.233065949e-20 -0.00200630878)
(-4.570101546e-06 9.065916464e-20 -0.002006497864)
(-4.613445685e-06 9.284658901e-20 -0.002006686108)
(-4.638085462e-06 9.490741669e-20 -0.00200687335)
(-4.643278822e-06 9.715132212e-20 -0.002007059479)
(-4.628356357e-06 9.89440601e-20 -0.002007244431)
(-4.592720521e-06 1.003839349e-19 -0.002007428179)
(-4.53587548e-06 1.020764262e-19 -0.002007610718)
(-4.4574602e-06 1.041172235e-19 -0.002007792044)
(-4.357253527e-06 1.059971391e-19 -0.002007972121)
(-4.235174468e-06 1.078417966e-19 -0.002008150845)
(-4.091308475e-06 1.100090267e-19 -0.002008328)
(-3.92594265e-06 1.124749302e-19 -0.002008503206)
(-3.739577214e-06 1.148741815e-19 -0.002008675879)
(-3.532939976e-06 1.173609837e-19 -0.002008845188)
(-3.307012023e-06 1.199652974e-19 -0.002009010034)
(-3.063057134e-06 1.227262499e-19 -0.002009169063)
(-2.802632322e-06 1.257658624e-19 -0.002009320687)
(-2.527588012e-06 1.253032372e-19 -0.002009463159)
(-2.240094664e-06 1.215965163e-19 -0.002009594654)
(-1.942658525e-06 1.182682152e-19 -0.002009713385)
(-1.638137232e-06 1.152515026e-19 -0.00200981772)
(-1.329738921e-06 1.12510194e-19 -0.002009906317)
(-1.02097757e-06 1.10175219e-19 -0.002009978241)
(-7.158033763e-07 1.078314144e-19 -0.002010033064)
(-4.190608223e-07 1.055358453e-19 -0.002010070993)
(-1.357735091e-07 1.058306045e-19 -0.002010093035)
(-1.856253295e-07 8.679173556e-21 -0.002007843484)
(-4.853707666e-07 -3.735006416e-20 -0.002007861589)
(-7.653812216e-07 6.485170072e-20 -0.002007900069)
(-1.049036326e-06 1.44747056e-19 -0.002007956403)
(-1.326676449e-06 2.092712277e-19 -0.002008029114)
(-1.594508679e-06 1.945501294e-19 -0.002008116572)
(-1.851629906e-06 1.873880051e-19 -0.002008217216)
(-2.09740777e-06 1.863196545e-19 -0.002008329542)
(-2.331122314e-06 1.881894749e-19 -0.002008452095)
(-2.552067804e-06 1.907496154e-19 -0.002008583488)
(-2.759601839e-06 1.948260144e-19 -0.002008722415)
(-2.953147908e-06 2.002502107e-19 -0.00200886765)
(-3.132140677e-06 1.919806916e-19 -0.002009018064)
(-3.296032916e-06 1.851182704e-19 -0.002009172618)
(-3.444330657e-06 1.799577053e-19 -0.002009330377)
(-3.576569418e-06 1.765642927e-19 -0.002009490505)
(-3.692323972e-06 1.738310401e-19 -0.002009652265)
(-3.791205094e-06 1.707529692e-19 -0.002009815017)
(-3.872872695e-06 1.69624703e-19 -0.00200997822)
(-3.937093012e-06 1.698633544e-19 -0.002010141422)
(-3.98370607e-06 1.713336072e-19 -0.002010304258)
(-4.012589816e-06 1.736837032e-19 -0.002010466436)
(-4.02369339e-06 1.695132868e-19 -0.002010627731)
(-4.017079061e-06 1.609391873e-19 -0.002010787966)
(-3.992911968e-06 1.607772708e-19 -0.002010946996)
(-3.951434408e-06 1.5542378e-19 -0.002011104688)
(-3.892996089e-06 1.449868589e-19 -0.002011260892)
(-3.818035608e-06 1.410289065e-19 -0.002011415426)
(-3.727089711e-06 1.37827563e-19 -0.002011568051)
(-3.620815729e-06 1.30654022e-19 -0.002011718447)
(-3.499961708e-06 1.236367389e-19 -0.002011866207)
(-3.365371369e-06 1.240835209e-19 -0.002012010825)
(-3.2180052e-06 1.243525786e-19 -0.002012151707)
(-3.058914737e-06 1.294417411e-19 -0.002012288185)
(-2.889243945e-06 1.303010215e-19 -0.002012419537)
(-2.710232676e-06 1.315651758e-19 -0.002012545021)
(-2.523207105e-06 1.291142685e-19 -0.002012663904)
(-2.329594627e-06 1.231998401e-19 -0.002012775494)
(-2.130888097e-06 1.139089456e-19 -0.002012879171)
(-1.928646594e-06 1.05375035e-19 -0.002012974407)
(-1.724495651e-06 9.998589449e-20 -0.002013060788)
(-1.520109274e-06 9.874119337e-20 -0.00201313802)
(-1.317187061e-06 9.785096244e-20 -0.002013205943)
(-1.117412356e-06 9.715489482e-20 -0.002013264534)
(-9.224350634e-07 9.663374794e-20 -0.002013313906)
(-7.338309614e-07 9.624329659e-20 -0.002013354305)
(-5.530405962e-07 9.582520803e-20 -0.002013386094)
(-3.81386744e-07 9.688537095e-20 -0.002013409737)
(-2.202628703e-07 9.71671407e-20 -0.00201342577)
(-7.092423279e-08 9.716518198e-20 -0.002013434824)
(-1.650641778e-07 2.028392268e-20 -0.002012663517)
(-4.318960901e-07 -5.133664614e-21 -0.002012676406)
(-6.810497931e-07 -5.578335058e-20 -0.00201270282)
(-9.319673536e-07 -1.235566126e-21 -0.002012741648)
(-1.175405718e-06 3.260765534e-20 -0.00201279188)
(-1.407662182e-06 5.719484094e-20 -0.002012852396)
(-1.627622323e-06 1.337079638e-19 -0.002012922149)
(-1.834499389e-06 2.021352531e-19 -0.002013000136)
(-2.027514638e-06 2.668457167e-19 -0.002013085385)
(-2.205966885e-06 2.961656232e-19 -0.002013176964)
(-2.369315146e-06 2.931818647e-19 -0.00201327399)
(-2.517129038e-06 2.975264219e-19 -0.002013375642)
(-2.649068999e-06 3.077974705e-19 -0.002013481162)
(-2.764875627e-06 2.957426072e-19 -0.002013589855)
(-2.864370498e-06 2.88822544e-19 -0.002013701096)
(-2.947479391e-06 2.83532155e-19 -0.002013814322)
(-3.014217406e-06 2.613360533e-19 -0.002013929032)
(-3.064675537e-06 2.243570051e-19 -0.002014044781)
(-3.099039597e-06 1.919024237e-19 -0.002014161167)
(-3.117584517e-06 1.722972354e-19 -0.002014277831)
(-3.120649764e-06 1.54756017e-19 -0.002014394443)
(-3.108658564e-06 1.388531809e-19 -0.002014510692)
(-3.082117779e-06 1.179758329e-19 -0.00201462627)
(-3.041590875e-06 1.052804171e-19 -0.002014740866)
(-2.987723361e-06 9.273962787e-20 -0.002014854157)
(-2.921249125e-06 8.700176667e-20 -0.002014965806)
(-2.842942298e-06 8.148458292e-20 -0.002015075456)
(-2.753617613e-06 8.224233112e-20 -0.002015182732)
(-2.654164701e-06 8.295937333e-20 -0.002015287245)
(-2.545528281e-06 8.374090418e-20 -0.002015388598)
(-2.428691145e-06 8.460747837e-20 -0.002015486396)
(-2.304672808e-06 8.065352861e-20 -0.002015580253)
(-2.174541707e-06 7.695813663e-20 -0.002015669803)
(-2.039403786e-06 6.872729274e-20 -0.002015754707)
(-1.900361743e-06 6.113665895e-20 -0.002015834665)
(-1.758540738e-06 5.373332888e-20 -0.002015909418)
(-1.615068811e-06 5.090884552e-20 -0.002015978757)
(-1.471055532e-06 4.81714581e-20 -0.002016042525)
(-1.327591186e-06 4.936903631e-20 -0.002016100623)
(-1.185727909e-06 5.032383585e-20 -0.002016153009)
(-1.046470535e-06 4.752611718e-20 -0.002016199701)
(-9.107594313e-07 4.711611018e-20 -0.002016240774)
(-7.794599794e-07 5.235235205e-20 -0.002016276362)
(-6.533597018e-07 5.725165504e-20 -0.00201630665)
(-5.3315875e-07 6.181587491e-20 -0.00201633187)
(-4.194514295e-07 6.602063381e-20 -0.002016352294)
(-3.127190261e-07 6.977263651e-20 -0.002016368226)
(-2.133857737e-07 7.277805277e-20 -0.002016379991)
(-1.219654183e-07 7.430574613e-20 -0.002016387937)
(-3.906625474e-08 7.420745105e-20 -0.002016392439)
(-1.297574823e-07 9.541704438e-20 -0.002017095916)
(-3.389072835e-07 2.094922582e-19 -0.002017104173)
(-5.330740859e-07 1.640627484e-19 -0.002017120456)
(-7.278670552e-07 1.450727151e-19 -0.0020171445)
(-9.158076645e-07 1.388977599e-19 -0.002017175697)
(-1.093814235e-06 1.398565703e-19 -0.002017213381)
(-1.260843747e-06 1.452460105e-19 -0.002017256946)
(-1.416149196e-06 1.53146091e-19 -0.002017305815)
(-1.55905079e-06 1.623239712e-19 -0.00201735943)
(-1.689036993e-06 1.723065657e-19 -0.002017417255)
(-1.805717677e-06 1.839509898e-19 -0.002017478775)
(-1.90879271e-06 1.789685895e-19 -0.002017543507)
(-1.998110166e-06 1.898831191e-19 -0.002017610995)
(-2.073619144e-06 1.875248666e-19 -0.00201768081)
(-2.13535041e-06 1.740342459e-19 -0.002017752544)
(-2.18346493e-06 1.646808355e-19 -0.002017825816)
(-2.218205436e-06 1.590767338e-19 -0.002017900262)
(-2.239880187e-06 1.577326215e-19 -0.00201797553)
(-2.248893694e-06 1.416226165e-19 -0.00201805128)
(-2.245698506e-06 1.285600044e-19 -0.002018127178)
(-2.230811499e-06 1.099933998e-19 -0.002018202895)
(-2.204840823e-06 8.544423992e-20 -0.002018278101)
(-2.168447439e-06 6.935584924e-20 -0.002018352464)
(-2.122320792e-06 5.410776507e-20 -0.002018425658)
(-2.06718118e-06 3.403437115e-20 -0.002018497356)
(-2.003800681e-06 2.709770354e-20 -0.002018567238)
(-1.932981409e-06 2.563046731e-20 -0.002018634996)
(-1.855543269e-06 2.337643722e-20 -0.002018700333)
(-1.77233289e-06 2.128068723e-20 -0.002018762969)
(-1.684200495e-06 1.890683639e-20 -0.002018822647)
(-1.591991747e-06 1.624738369e-20 -0.002018879137)
(-1.496564239e-06 1.344182036e-20 -0.002018932238)
(-1.398755129e-06 1.507545203e-20 -0.00201898178)
(-1.299388914e-06 1.257468513e-20 -0.002019027634)
(-1.199269282e-06 1.325177478e-20 -0.002019069704)
(-1.099158963e-06 1.331435552e-20 -0.002019107933)
(-9.997959512e-07 1.605633273e-20 -0.002019142303)
(-9.018742344e-07 2.153366373e-20 -0.002019172833)
(-8.060393944e-07 2.909130649e-20 -0.002019199579)
(-7.128878237e-07 3.618888105e-20 -0.002019222629)
(-6.229662224e-07 4.287744459e-20 -0.002019242103)
(-5.36768004e-07 4.634505794e-20 -0.00201925815)
(-4.547232079e-07 4.946919356e-20 -0.002019270941)
(-3.772006045e-07 4.929053113e-20 -0.002019280669)
(-3.045183863e-07 5.213077361e-20 -0.002019287546)
(-2.369491645e-07 5.19944496e-20 -0.002019291788)
(-1.746874433e-07 5.197642911e-20 -0.002019293577)
(-1.178394775e-07 5.227119276e-20 -0.002019293094)
(-6.652918584e-08 5.322002626e-20 -0.002019290983)
(-2.11323643e-08 5.434895888e-20 -0.002019288919)
(-9.660022964e-08 4.35150516e-20 -0.002020972138)
(-2.524761673e-07 6.183109482e-20 -0.002020977243)
(-3.973239369e-07 6.334659206e-20 -0.002020986913)
(-5.421234517e-07 6.112323282e-20 -0.002021001238)
(-6.810464231e-07 5.673601426e-20 -0.002021019873)
(-8.117742784e-07 5.093967969e-20 -0.00202104243)
(-9.334605994e-07 4.314442879e-20 -0.002021068564)
(-1.045512322e-06 3.245127931e-20 -0.002021097946)
(-1.147413838e-06 1.593328472e-20 -0.00202113025)
(-1.238815146e-06 -1.249077224e-20 -0.002021165157)
(-1.3194747e-06 -1.391654948e-20 -0.002021202359)
(-1.389240323e-06 -2.007672239e-20 -0.002021241549)
(-1.448107382e-06 -2.941249803e-20 -0.00202128243)
(-1.496176803e-06 -4.262248388e-20 -0.002021324709)
(-1.533602201e-06 -5.66428181e-20 -0.002021368096)
(-1.560620777e-06 -6.136799181e-20 -0.002021412302)
(-1.577576164e-06 -5.807190845e-20 -0.002021457044)
(-1.584856385e-06 -3.627984112e-20 -0.00202150204)
(-1.582896585e-06 -1.749377243e-20 -0.002021547009)
(-1.572196547e-06 -8.393886267e-21 -0.002021591675)
(-1.553316503e-06 6.519026528e-23 -0.002021635762)
(-1.526852964e-06 -1.735234578e-22 -0.002021679001)
(-1.49341885e-06 -3.632845812e-22 -0.002021721132)
(-1.453654527e-06 7.054328529e-22 -0.002021761908)
(-1.408220947e-06 1.782587559e-21 -0.002021801092)
(-1.357777867e-06 2.739954338e-21 -0.002021838464)
(-1.303010165e-06 4.027908284e-21 -0.002021873823)
(-1.24460847e-06 6.398554797e-21 -0.002021906987)
(-1.18324384e-06 8.80836387e-21 -0.002021937798)
(-1.119584063e-06 1.13481511e-20 -0.002021966123)
(-1.054279724e-06 1.406103503e-20 -0.002021991853)
(-9.879686669e-07 2.130866165e-20 -0.002022014907)
(-9.212536561e-07 2.841406643e-20 -0.002022035231)
(-8.547157083e-07 3.976262617e-20 -0.002022052796)
(-7.889174279e-07 5.132873137e-20 -0.002022067599)
(-7.243678909e-07 5.89964168e-20 -0.002022079664)
(-6.615500102e-07 6.370848958e-20 -0.002022089033)
(-6.009215987e-07 6.53148662e-20 -0.002022095776)
(-5.428859203e-07 6.444081213e-20 -0.002022099977)
(-4.87802626e-07 6.080424528e-20 -0.00202210174)
(-4.360086924e-07 6.10293785e-20 -0.002022101185)
(-3.877977916e-07 5.795909379e-20 -0.002022098443)
(-3.433931293e-07 5.245952083e-20 -0.002022093662)
(-3.029439449e-07 4.764732915e-20 -0.002022086981)
(-2.666661601e-07 4.314866655e-20 -0.002022078498)
(-2.353820826e-07 4.193863662e-20 -0.002022068365)
(-2.101123564e-07 4.113629355e-20 -0.002022057426)
(-1.850610573e-07 3.986357463e-20 -0.002022047114)
(-1.387579743e-07 3.913960696e-20 -0.002022038563)
(-5.224054068e-08 3.874658771e-20 -0.002022032839)
(-7.042479497e-08 4.520273698e-20 -0.002024520416)
(-1.837449663e-07 6.738370046e-20 -0.002024523569)
(-2.885340867e-07 7.362922787e-20 -0.002024529305)
(-3.930359678e-07 7.772867546e-20 -0.002024537805)
(-4.929354577e-07 8.1928309e-20 -0.00202454886)
(-5.86526195e-07 8.73328672e-20 -0.002024562239)
(-6.731332061e-07 9.48042821e-20 -0.002024577731)
(-7.523104146e-07 1.049345624e-19 -0.002024595128)
(-8.237247646e-07 6.640835224e-20 -0.002024614225)
(-8.871178021e-07 1.193240881e-20 -0.00202463481)
(-9.423705657e-07 -3.734260056e-20 -0.002024656678)
(-9.894624538e-07 -6.826450766e-20 -0.002024679617)
(-1.028438429e-06 -9.880911339e-20 -0.002024703414)
(-1.059449938e-06 -1.165031945e-19 -0.002024727857)
(-1.082727055e-06 -1.239944985e-19 -0.002024752737)
(-1.0985413e-06 -1.338262217e-19 -0.00202477784)
(-1.107223154e-06 -1.33978759e-19 -0.002024802954)
(-1.109165521e-06 -1.388609484e-19 -0.002024827873)
(-1.104798569e-06 -1.300993608e-19 -0.002024852392)
(-1.094587392e-06 -1.252751022e-19 -0.002024876312)
(-1.079039683e-06 -1.152753357e-19 -0.002024899442)
(-1.058672367e-06 -1.000981765e-19 -0.002024921603)
(-1.034000139e-06 -8.749939895e-20 -0.002024942625)
(-1.00557552e-06 -6.972934419e-20 -0.002024962354)
(-9.739618118e-07 -5.395387823e-20 -0.002024980647)
(-9.397058891e-07 -4.584078182e-20 -0.002024997379)
(-9.033526195e-07 -3.860743312e-20 -0.002025012439)
(-8.654501594e-07 -3.221287172e-20 -0.002025025738)
(-8.265275331e-07 -3.198962427e-20 -0.002025037202)
(-7.87100365e-07 -3.155331331e-20 -0.002025046776)
(-7.47669241e-07 -3.064884319e-20 -0.002025054426)
(-7.087026281e-07 -2.880453342e-20 -0.002025060133)
(-6.706594313e-07 -3.959110273e-20 -0.002025063898)
(-6.339657622e-07 -4.902553792e-20 -0.002025065735)
(-5.990152016e-07 -5.315601663e-20 -0.002025065675)
(-5.661890078e-07 -5.687302397e-20 -0.002025063765)
(-5.358295914e-07 -5.613467295e-20 -0.002025060063)
(-5.08243916e-07 -5.559437594e-20 -0.002025054638)
(-4.83718872e-07 -5.494338823e-20 -0.002025047571)
(-4.625030656e-07 -5.423714666e-20 -0.002025038952)
(-4.44781123e-07 -5.354410942e-20 -0.002025028882)
(-4.306639331e-07 -5.271711247e-20 -0.002025017452)
(-4.204828827e-07 -5.185744826e-20 -0.002025004696)
(-4.153994824e-07 -5.098385111e-20 -0.002024990706)
(-4.155457147e-07 -5.290444604e-20 -0.002024976493)
(-4.091693036e-07 -5.471055447e-20 -0.002024963657)
(-3.756344552e-07 -5.761698576e-20 -0.0020249536)
(-3.063821173e-07 -6.037885542e-20 -0.002024947508)
(-2.046718605e-07 -6.31046935e-20 -0.002024945824)
(-7.229043216e-08 -6.590501181e-20 -0.002024946534)
(-5.149985716e-08 -8.703341306e-21 -0.002027764183)
(-1.344898393e-07 1.878622529e-19 -0.002027766095)
(-2.11419175e-07 1.591701751e-19 -0.002027769439)
(-2.880350703e-07 1.454674069e-19 -0.002027774371)
(-3.610755955e-07 1.392395903e-19 -0.002027780765)
(-4.292780219e-07 1.379581139e-19 -0.00202778847)
(-4.921697995e-07 1.406921962e-19 -0.002027797347)
(-5.494317604e-07 1.477610063e-19 -0.002027807249)
(-6.008434245e-07 1.362636642e-19 -0.002027818035)
(-6.462582632e-07 1.386900254e-19 -0.002027829558)
(-6.856107913e-07 1.071302394e-19 -0.002027841669)
(-7.189590318e-07 6.499886957e-20 -0.00202785422)
(-7.464074296e-07 2.994136538e-20 -0.00202786706)
(-7.681127829e-07 -1.324735054e-21 -0.002027880041)
(-7.843029167e-07 -2.847773041e-20 -0.002027893015)
(-7.952592139e-07 -5.262706349e-20 -0.00202790584)
(-8.013074464e-07 -6.299940387e-20 -0.002027918376)
(-8.028039156e-07 -8.239475554e-20 -0.002027930488)
(-8.001279041e-07 -9.013993584e-20 -0.002027942048)
(-7.936819169e-07 -9.759902565e-20 -0.002027952936)
(-7.838925863e-07 -8.666224664e-20 -0.002027963039)
(-7.711970511e-07 -6.875041177e-20 -0.002027972259)
(-7.560415281e-07 -5.19229471e-20 -0.002027980505)
(-7.388851162e-07 -5.106576179e-20 -0.002027987698)
(-7.201736269e-07 -5.050943613e-20 -0.002027993771)
(-7.003616736e-07 -5.750384109e-20 -0.002027998669)
(-6.798877154e-07 -6.472511309e-20 -0.002028002352)
(-6.591805489e-07 -7.798550988e-20 -0.00202800479)
(-6.38656824e-07 -9.114042188e-20 -0.002028005968)
(-6.187133544e-07 -9.882815434e-20 -0.002028005879)
(-5.997381387e-07 -1.071262733e-19 -0.00202800453)
(-5.820865913e-07 -1.160665389e-19 -0.00202800194)
(-5.6610955e-07 -1.255178373e-19 -0.002027998134)
(-5.521253201e-07 -1.360261359e-19 -0.002027993149)
(-5.404219839e-07 -1.472517074e-19 -0.002027987027)
(-5.312791157e-07 -1.55391737e-19 -0.00202797982)
(-5.249365211e-07 -1.648005603e-19 -0.002027971584)
(-5.216059709e-07 -1.673071592e-19 -0.002027962383)
(-5.214344266e-07 -1.712035005e-19 -0.002027952289)
(-5.244914719e-07 -1.689305913e-19 -0.002027941358)
(-5.311537229e-07 -1.679685551e-19 -0.002027929574)
(-5.427932427e-07 -1.643103395e-19 -0.002027916981)
(-5.59136372e-07 -1.582785068e-19 -0.002027904756)
(-5.649777439e-07 -1.532667724e-19 -0.002027894722)
(-5.39402353e-07 -1.490838658e-19 -0.002027888532)
(-4.76369059e-07 -1.483203478e-19 -0.002027887517)
(-3.790770435e-07 -1.478121112e-19 -0.002027891604)
(-2.574522264e-07 -1.489393033e-19 -0.002027898684)
(-1.38347272e-07 -1.491348916e-19 -0.002027905881)
(-4.224012334e-08 -1.500091476e-19 -0.002027910893)
(-3.919446288e-08 1.448791383e-19 -0.00203086639)
(-1.022054394e-07 3.379443941e-19 -0.002030867346)
(-1.604188431e-07 3.2876816e-19 -0.002030868898)
(-2.184225318e-07 2.115791145e-19 -0.002030871162)
(-2.737708277e-07 1.313563744e-19 -0.002030874068)
(-3.255052251e-07 6.836426524e-20 -0.002030877522)
(-3.732908966e-07 1.307875524e-20 -0.002030881427)
(-4.169082975e-07 -3.950094296e-20 -0.00203088569)
(-4.5619044e-07 -4.277283284e-20 -0.002030890208)
(-4.910841964e-07 -2.938887876e-20 -0.002030894882)
(-5.215827521e-07 -2.005968539e-20 -0.002030899611)
(-5.477399042e-07 -1.36314573e-20 -0.002030904292)
(-5.696789737e-07 -9.642950311e-21 -0.002030908827)
(-5.875694149e-07 -6.571381947e-21 -0.002030913119)
(-6.016195919e-07 -4.559758405e-21 -0.002030917072)
(-6.120721698e-07 -3.408070008e-21 -0.002030920598)
(-6.192013499e-07 -1.482940782e-20 -0.002030923613)
(-6.233198675e-07 -2.634823924e-20 -0.00203092604)
(-6.247670768e-07 -3.835770015e-20 -0.002030927812)
(-6.238840025e-07 -4.025084331e-20 -0.002030928866)
(-6.210085779e-07 -4.402629707e-20 -0.002030929147)
(-6.165026808e-07 -3.917281198e-20 -0.002030928613)
(-6.107390122e-07 -3.512987023e-20 -0.002030927228)
(-6.040782505e-07 -3.885378753e-20 -0.002030924966)
(-5.968796943e-07 -4.278237749e-20 -0.002030921812)
(-5.894942904e-07 -4.659831238e-20 -0.00203091776)
(-5.822650523e-07 -5.062376341e-20 -0.002030912814)
(-5.755235253e-07 -5.486060078e-20 -0.002030906984)
(-5.695863003e-07 -5.357241529e-20 -0.002030900291)
(-5.647567816e-07 -5.299861388e-20 -0.002030892763)
(-5.61316646e-07 -5.300543113e-20 -0.002030884435)
(-5.59536401e-07 -5.397148459e-20 -0.002030875346)
(-5.59658929e-07 -4.684052399e-20 -0.002030865543)
(-5.619057653e-07 -4.072189907e-20 -0.002030855075)
(-5.664848535e-07 -3.954990402e-20 -0.002030843997)
(-5.735617442e-07 -3.841742899e-20 -0.002030832368)
(-5.832379971e-07 -4.132989163e-20 -0.002030820255)
(-5.955344224e-07 -4.407700612e-20 -0.002030807706)
(-6.108415957e-07 -4.656928237e-20 -0.002030794678)
(-6.306801082e-07 -4.875812151e-20 -0.002030781193)
(-6.545232106e-07 -5.078286691e-20 -0.002030768568)
(-6.650697817e-07 -5.261888566e-20 -0.002030758778)
(-6.408700147e-07 -5.447660679e-20 -0.002030753587)
(-5.77026321e-07 -5.293119755e-20 -0.002030754429)
(-4.777048344e-07 -5.140624554e-20 -0.002030760957)
(-3.58992685e-07 -4.827128773e-20 -0.002030770858)
(-2.471416372e-07 -4.5387779e-20 -0.00203078103)
(-1.549168022e-07 -4.263005342e-20 -0.002030789084)
(-8.128171859e-08 -4.171368474e-20 -0.002030794113)
(-2.46446052e-08 -4.074684946e-20 -0.002030796636)
(-3.163982192e-08 1.93933468e-19 -0.002033843396)
(-8.262217797e-08 2.207069184e-19 -0.002033843545)
(-1.29986782e-07 2.469997922e-19 -0.002033843541)
(-1.77337307e-07 1.454027748e-19 -0.002033843493)
(-2.226812004e-07 7.581543193e-20 -0.002033843377)
(-2.653161816e-07 2.080674933e-20 -0.002033843145)
(-3.050072331e-07 -2.657629753e-20 -0.002033842739)
(-3.416296277e-07 -7.001399164e-20 -0.002033842107)
(-3.750983503e-07 -8.614298172e-20 -0.002033841186)
(-4.05375463e-07 -1.043195705e-19 -0.002033839915)
(-4.324959782e-07 -8.526706504e-20 -0.002033838232)
(-4.565387886e-07 -5.388380812e-20 -0.002033836078)
(-4.776214291e-07 -2.797479834e-20 -0.002033833392)
(-4.959055525e-07 8.902820562e-21 -0.002033830121)
(-5.115897864e-07 4.206370393e-20 -0.002033826212)
(-5.248927832e-07 7.272629086e-20 -0.002033821619)
(-5.360453228e-07 7.760209135e-20 -0.002033816302)
(-5.45296889e-07 8.302078787e-20 -0.002033810223)
(-5.529239461e-07 7.845478792e-20 -0.002033803357)
(-5.592259687e-07 7.555349068e-20 -0.002033795684)
(-5.644827849e-07 5.495311262e-20 -0.002033787192)
(-5.689715714e-07 3.646518552e-20 -0.002033777875)
(-5.729913998e-07 1.893706211e-20 -0.002033767738)
(-5.768180907e-07 9.951801488e-21 -0.002033756791)
(-5.8073319e-07 1.319269146e-21 -0.002033745054)
(-5.850022869e-07 -2.672674332e-22 -0.002033732554)
(-5.89880845e-07 -2.772039241e-21 -0.002033719324)
(-5.956121368e-07 5.885296295e-21 -0.002033705404)
(-6.024249271e-07 1.331928963e-20 -0.002033690839)
(-6.105316404e-07 1.448589992e-20 -0.00203367568)
(-6.201253723e-07 1.571557431e-20 -0.002033659983)
(-6.313876216e-07 1.7227244e-20 -0.002033643806)
(-6.444726124e-07 1.918243902e-20 -0.002033627212)
(-6.595089361e-07 2.154219886e-20 -0.002033610268)
(-6.765451283e-07 2.428704931e-20 -0.002033593053)
(-6.955509548e-07 2.741863561e-20 -0.00203357562)
(-7.169332869e-07 3.091100881e-20 -0.002033557921)
(-7.42318236e-07 3.063793582e-20 -0.002033539964)
(-7.709802224e-07 3.090734733e-20 -0.002033523223)
(-7.838585355e-07 2.780748302e-20 -0.002033509825)
(-7.587737488e-07 2.523486503e-20 -0.002033501595)
(-6.915380447e-07 2.302414099e-20 -0.002033499966)
(-5.868660835e-07 1.723803652e-20 -0.00203350435)
(-4.644094213e-07 1.509549231e-20 -0.002033512252)
(-3.508055395e-07 1.317324065e-20 -0.002033520452)
(-2.557131111e-07 1.158259752e-20 -0.002033526587)
(-1.773528361e-07 8.583993664e-21 -0.002033530067)
(-1.131638185e-07 8.325625759e-21 -0.002033531386)
(-6.095138263e-08 8.191513753e-21 -0.002033531196)
(-1.861852473e-08 8.227992298e-21 -0.00203353055)
(-2.745598932e-08 -2.667509399e-20 -0.002036768464)
(-7.16512589e-08 -1.412855139e-19 -0.002036767922)
(-1.127396725e-07 -6.95659644e-20 -0.002036766589)
(-1.540261221e-07 -3.970809622e-20 -0.002036764584)
(-1.93888348e-07 -2.508308883e-20 -0.002036761923)
(-2.318013217e-07 -1.68022477e-20 -0.002036758593)
(-2.675985112e-07 -1.111025411e-20 -0.002036754582)
(-3.011984456e-07 -6.187574278e-21 -0.002036749867)
(-3.325871197e-07 -6.928570643e-22 -0.002036744429)
(-3.617724229e-07 5.744770722e-21 -0.002036738242)
(-3.887924411e-07 1.346715818e-20 -0.002036731282)
(-4.137371685e-07 2.230208933e-20 -0.002036723524)
(-4.367285718e-07 3.176376943e-20 -0.002036714945)
(-4.57913535e-07 4.16148901e-20 -0.002036705526)
(-4.774600932e-07 5.150328406e-20 -0.002036695252)
(-4.955548554e-07 6.125256112e-20 -0.002036684113)
(-5.124030606e-07 7.112111214e-20 -0.002036672103)
(-5.282224147e-07 8.067627418e-20 -0.00203665922)
(-5.432294102e-07 9.002580352e-20 -0.002036645468)
(-5.576434195e-07 8.910820809e-20 -0.002036630859)
(-5.716960389e-07 8.853671409e-20 -0.002036615411)
(-5.856096504e-07 7.942073023e-20 -0.002036599147)
(-5.995979859e-07 7.112738199e-20 -0.002036582096)
(-6.138756023e-07 6.357265439e-20 -0.002036564293)
(-6.28643997e-07 5.663477785e-20 -0.002036545778)
(-6.440952979e-07 5.01483327e-20 -0.002036526597)
(-6.604098866e-07 4.384748915e-20 -0.002036506799)
(-6.777495349e-07 3.725387863e-20 -0.00203648644)
(-6.962648764e-07 3.061916561e-20 -0.002036465575)
(-7.160862122e-07 2.377702246e-20 -0.002036444265)
(-7.37332969e-07 1.662448918e-20 -0.002036422573)
(-7.600951572e-07 9.117751557e-21 -0.002036400567)
(-7.843746751e-07 6.647502626e-21 -0.002036378328)
(-8.101010177e-07 8.791309777e-21 -0.002036355909)
(-8.376833622e-07 1.01783144e-20 -0.002036333247)
(-8.688711924e-07 1.085659148e-20 -0.002036310336)
(-9.027737131e-07 1.082813679e-20 -0.002036288822)
(-9.186325876e-07 1.005195211e-20 -0.002036271051)
(-8.93397745e-07 8.604015706e-21 -0.002036258982)
(-8.234625234e-07 6.469696119e-21 -0.002036254085)
(-7.139757761e-07 3.633223491e-21 -0.002036255475)
(-5.867236516e-07 1.434914842e-22 -0.002036260356)
(-4.689849344e-07 -3.895768485e-21 -0.002036265267)
(-3.691114444e-07 -8.487794213e-21 -0.002036267736)
(-2.851570625e-07 -1.350146756e-20 -0.002036267321)
(-2.146520418e-07 -1.564844535e-20 -0.002036264541)
(-1.554262918e-07 -1.512826747e-20 -0.002036260048)
(-1.046329486e-07 -1.518877563e-20 -0.002036254917)
(-5.952936994e-08 -1.408841925e-20 -0.002036250344)
(-1.828992142e-08 -1.34366513e-20 -0.002036247391)
(-2.558987178e-08 -8.326573769e-20 -0.002039631884)
(-6.688423297e-08 -2.961261154e-19 -0.002039630799)
(-1.055258924e-07 -3.235679781e-19 -0.002039628401)
(-1.446014633e-07 -2.408838601e-19 -0.002039624826)
(-1.826861124e-07 -2.018342842e-19 -0.002039620121)
(-2.193381475e-07 -1.400077303e-19 -0.002039614319)
(-2.544757866e-07 -9.791232669e-20 -0.002039607443)
(-2.880798047e-07 -6.771425303e-20 -0.002039599513)
(-3.201393409e-07 -4.514414329e-20 -0.002039590539)
(-3.506983779e-07 -2.75914906e-20 -0.002039580537)
(-3.798367295e-07 -1.366524196e-20 -0.002039569517)
(-4.076476731e-07 -2.475909372e-21 -0.002039557491)
(-4.342346166e-07 6.662117786e-21 -0.002039544472)
(-4.597210641e-07 1.372424629e-20 -0.002039530475)
(-4.84249608e-07 1.903206462e-20 -0.002039515516)
(-5.079844454e-07 2.296021147e-20 -0.002039499614)
(-5.310996475e-07 3.846642493e-20 -0.002039482792)
(-5.537662606e-07 5.238952678e-20 -0.002039465076)
(-5.761506714e-07 6.515315159e-20 -0.002039446497)
(-5.984224175e-07 7.708173177e-20 -0.002039427091)
(-6.207581491e-07 8.850020211e-20 -0.002039406892)
(-6.433203051e-07 9.026307802e-20 -0.002039385942)
(-6.662688753e-07 9.253392806e-20 -0.002039364285)
(-6.897642903e-07 9.542047295e-20 -0.002039341967)