/*--------------------------------*- C++ -*----------------------------------*\
  =========                 |
  \\      /  F ield         | OpenFOAM: The Open Source CFD Toolbox
   \\    /   O peration     | Website:  https://openfoam.org
    \\  /    A nd           | Version:  7
     \\/     M anipulation  |
\*---------------------------------------------------------------------------*/
FoamFile
{
    version     2.0;
    format      ascii;
    class       volScalarField;
    location    "0.0009";
    object      wallHeatFlux;
}
// * * * * * * * * * * * * * * * * * * * * * * * * * * * * * * * * * * * * * //

dimensions      [1 0 -3 0 0 0 0];

internalField   uniform 0;

boundaryField
{
    front_top
    {
        type            wedge;
    }
    front_middle
    {
        type            wedge;
    }
    front_bottom
    {
        type            wedge;
    }
    back_top
    {
        type            wedge;
    }
    back_middle
    {
        type            wedge;
    }
    back_bottom
    {
        type            wedge;
    }
    axis_top
    {
        type            symmetryPlane;
    }
    axis_middle
    {
        type            symmetryPlane;
    }
    axis_bottom
    {
        type            symmetryPlane;
    }
    wall_top
    {
        type            calculated;
        value           nonuniform List<scalar> 
150
(
47280.05984
42093.23135
39140.91194
36908.99737
35208.27061
33924.89638
32400.48822
30670.41094
29114.02131
27909.14043
27281.51111
26968.45286
26649.17421
26185.72053
25694.76976
25238.21678
24812.59453
24412.48241
24034.09036
23674.58282
23331.6739
23002.84597
22686.46624
22381.05809
22085.48132
21799.14358
21521.6627
21252.9159
20992.62175
20740.47304
20496.1413
20259.3191
20029.67757
19806.88177
19590.62233
19380.62447
19176.65816
18978.4986
18785.93499
18598.7662
18416.79524
18239.83369
18067.71735
17900.25713
17737.27955
17578.61613
17424.11256
17273.66148
17127.07775
16984.21863
16844.99417
16709.2696
16576.89635
16447.81782
16321.89825
16199.00683
16079.1305
15962.07978
15847.83522
15736.27592
15627.32718
15520.92626
15416.96248
15315.40838
15216.14428
15119.15196
15024.3245
14931.62915
14840.99136
14752.34529
14665.66732
14580.84201
14497.91471
14416.74082
14337.32999
14259.62003
14183.53324
14109.10802
14036.22193
13964.85908
13895.01561
13826.59994
13759.60633
13694.01224
13629.74443
13566.79125
13505.14212
13444.72544
13385.51654
13327.53549
13270.70123
13214.98826
13160.3988
13106.89917
13054.44387
13003.00894
12952.60913
12903.1917
12854.72671
12807.19354
12760.60086
12714.90598
12670.08005
12626.10343
12582.97056
12540.67119
12499.1637
12458.43016
12418.45296
12379.23176
12340.74252
12302.95408
12265.84882
12229.40807
12193.62265
12158.48247
12123.94856
12090.00019
12056.61497
12023.76851
11991.44606
11959.61417
11928.22522
11897.23581
11866.59229
11836.22673
11806.05567
11775.97488
11745.81064
11715.3495
11684.2964
11652.23981
11618.60404
11582.60359
11543.07945
11498.42826
11446.39808
11383.85358
11306.37743
11207.81037
11079.67428
10910.20735
10683.28408
10376.85804
9960.819025
9393.906601
8618.804743
7552.875455
6065.974904
3910.000479
)
;
    }
    wall_middle
    {
        type            calculated;
        value           nonuniform List<scalar> 
65
(
297738.4709
182540.4869
143215.4962
123560.0594
111262.0611
102568.9135
95974.39296
90739.60039
86449.9996
82851.93095
79779.98649
77120.90163
74794.39664
72741.86157
70919.39845
69293.38845
67837.49006
66531.21481
65358.20955
64305.22132
63361.41425
62517.87502
61767.2174
61103.27681
60520.91564
60015.70176
59583.96586
59222.60317
58928.91274
58700.5919
58535.66172
58432.40997
58389.36549
58405.26168
58478.9998
58609.61731
58796.26975
59038.23332
59334.88153
59685.66965
60090.15843
60547.90965
61058.59426
61621.9334
62237.72252
62905.8952
63626.55365
64400.07255
65227.28119
66109.71331
67050.14017
68052.94016
69125.72659
70279.73958
71534.92121
72919.15408
74483.79399
76299.16159
78496.27548
81271.80301
84959.05179
90259.46146
98075.5398
111451.7314
160862.194
)
;
    }
    wall_bottom
    {
        type            calculated;
        value           nonuniform List<scalar> 
65
(
156424.2814
131907.1318
122876.148
117891.7117
114672.0276
112334.9179
110523.0768
109050.6912
107809.679
106736.4338
105787.5275
104934.2069
104155.2795
103435.3677
102762.6644
102128.1396
101524.6927
100946.7416
100389.8446
99850.4616
99325.7546
98813.44446
98311.69677
97819.03355
97334.26388
96856.42984
96384.76225
95918.64398
95457.58057
95001.1766
94549.11886
94101.16178
93657.11396
93216.82716
92780.18777
92347.1098
91917.52948
91491.40084
91068.692
90649.38188
90233.45773
89820.91309
89411.7459
89005.95473
88603.54417
88204.52823
87808.92338
87416.74653
87028.01512
86642.74815
86260.96727
85882.69761
85507.96927
85136.81981
84769.2976
84405.46558
84045.40607
83689.22872
83337.07998
82989.15526
82645.67947
82306.8394
81972.55676
81644.11678
81347.0047
)
;
    }
    inlet
    {
        type            calculated;
        value           nonuniform List<scalar> 
50
(
-21.89813937
-22.49963345
-23.81949981
-25.85111025
-28.6480752
-32.29820465
-36.92235332
-42.67666097
-49.7565501
-58.40218553
-68.90537264
-81.61796916
-96.96194131
-115.4412351
-137.6556668
-164.3170656
-196.2679277
-234.5028046
-280.1927383
-334.7133649
-399.6766643
-476.9668608
-568.7809674
-677.6742554
-806.6108313
-959.0198841
-1138.858113
-1350.679338
-1599.710744
-1891.934585
-2234.177129
-2634.211382
-3100.866389
-3644.143706
-4275.351026
-5007.235813
-5854.115298
-6832.038063
-7958.964642
-9254.958552
-10742.37333
-12446.06276
-14393.5324
-16615.20648
-19144.73208
-22019.23698
-25279.43555
-28970.00104
-33139.88222
-37842.55969
)
;
    }
    outlet
    {
        type            calculated;
        value           uniform 0;
    }
}


// ************************************************************************* //
