/*--------------------------------*- C++ -*----------------------------------*\
  =========                 |
  \\      /  F ield         | OpenFOAM: The Open Source CFD Toolbox
   \\    /   O peration     | Website:  https://openfoam.org
    \\  /    A nd           | Version:  7
     \\/     M anipulation  |
\*---------------------------------------------------------------------------*/
FoamFile
{
    version     2.0;
    format      ascii;
    class       volScalarField;
    location    "0.0012";
    object      generalizedNewtonian:nu;
}
// * * * * * * * * * * * * * * * * * * * * * * * * * * * * * * * * * * * * * //

dimensions      [0 2 -1 0 0 0 0];

internalField   nonuniform List<scalar> 
1166
(
18511.63328
18488.83902
18470.6025
18419.55968
18348.7669
18252.98288
18125.3874
17959.2639
17789.82139
17644.87648
17419.30334
17024.707
16501.46615
15965.13369
15657.29771
15728.6891
16002.09855
16295.07456
16559.24011
16784.32325
16976.03708
17156.67432
17360.77865
17488.0422
16909.79421
15522.17086
14110.55691
12887.20455
11809.28758
10841.74538
9967.405918
9177.059148
8463.954895
7821.644201
18134.70104
18082.13332
18005.554
17860.14663
17688.91498
17523.02411
17334.01286
17071.77863
16724.55507
16311.87409
15881.73672
15559.15338
15508.35502
15698.69506
15984.20845
16276.05832
16539.83474
16765.61718
16959.85513
17142.31146
17344.15013
17508.68015
17125.39546
15876.38769
14466.24381
13225.08508
12132.65041
11151.47621
10262.12566
9454.823098
8723.258471
8062.028804
7465.195226
6926.113906
6438.461364
5996.58411
5595.555511
5231.001232
4899.012448
4596.141643
4319.332251
4065.874031
3833.309447
3619.39551
3422.093179
3239.558835
3070.176472
2912.702541
2766.343741
2626.734984
16337.83936
16305.02097
16252.06561
16157.18851
16020.27518
15843.37148
15644.07732
15438.70894
15281.94599
15282.91087
15454.54653
15717.35429
16009.25295
16294.98574
16554.71569
16779.73915
16977.13459
17164.47655
17368.48415
17550.54419
17296.15358
16195.06357
14813.48782
13565.79649
12465.5662
11476.09082
10576.28318
9755.724188
9008.48836
8329.887375
7715.00759
7158.186531
6653.557397
6195.613386
5779.461578
5400.775456
5055.657293
4740.646955
4452.65161
4188.93142
3947.006618
3724.598817
3519.62985
3330.213258
3154.668267
2991.48317
2839.313986
2697.17297
2564.481169
2437.142298
15256.7854
15242.47584
15220.29224
15185.41214
15160.74015
15197.5262
15318.93278
15503.80678
15734.80147
15995.68043
16263.58947
16520.15066
16753.17371
16960.30536
17147.79795
17330.40637
17529.82346
17707.61375
17507.25161
16515.97578
15176.38368
13930.83885
12825.97224
11829.66505
10920.34824
10087.10951
9324.359309
8628.192014
7994.722171
7419.28646
6896.527716
6421.203788
5988.531259
5594.27104
5234.596981
4906.040695
4605.501271
4330.197184
4077.634297
3845.523466
3631.751529
3434.383823
3251.673274
3082.066542
2924.169265
2776.713921
2638.602785
2509.043038
2387.648601
2270.557163
15800.82844
15819.49947
15901.25928
15995.66014
16128.47051
16293.21206
16480.80395
16681.47671
16884.40267
17078.15251
17257.38535
17424.14819
17583.70781
17746.42616
17926.61874
18069.13342
17838.44594
16884.94472
15581.22024
14341.45891
13231.48089
12226.3465
11305.51186
10457.87543
9678.2647
8963.365859
8310.045337
7714.500014
7172.005232
6677.663849
6226.844649
5815.389059
5439.548366
5095.880904
4781.288838
4492.963618
4228.386207
3985.249915
3761.412197
3554.899303
3363.904169
3186.808947
3022.164977
2868.661921
2725.138041
2590.543512
2463.965855
2344.777808
2232.68756
2124.129918
17162.30524
17169.54693
17265.65958
17345.49021
17451.07208
17568.6285
17690.98834
17816.06541
17942.22985
18068.76429
18198.93805
18341.76822
18495.31234
18564.62397
18219.00456
17235.94648
15965.77743
14746.42721
13641.43442
12633.65282
11705.50067
10847.28764
10054.09747
9323.106661
8651.853765
8037.350833
7475.717303
6962.526479
6493.412346
6064.342914
5671.690709
5312.124378
4982.571574
4680.244098
4402.60302
4147.344309
3912.326608
3695.551156
3495.173617
3309.513191
3137.066466
2976.482008
2826.534369
2686.155317
2554.373113
2430.31126
2313.187792
2202.498173
2098.061972
1996.598548
18314.5888
18304.93229
18392.15507
18441.94606
18513.87917
18599.98503
18695.47337
18798.76078
18913.47693
19038.62931
19140.40722
19059.62868
18511.71223
17464.4127
16242.88008
15071.26969
13993.95817
13000.75807
12079.19694
11221.67824
10424.29819
9685.078051
9002.404605
8374.233852
7797.632139
7268.793191
6783.733367
6338.674886
5930.246977
5555.333615
5211.001809
4894.561937
4603.529515
4335.6353
4088.770692
3860.951638
3650.328015
3455.189324
3273.990874
3105.343958
2947.986724
2800.788491
2662.741744
2532.949019
2410.608359
2294.977605
2185.43274
2081.595839
1983.31794
1887.613328
19334.57608
19319.89068
19403.93015
19447.50784
19512.80757
19590.80537
19673.90838
19729.29825
19659.25514
19285.34918
18498.38837
17426.58819
16293.88874
15209.44596
14194.77659
13245.97439
12355.96192
11520.38536
10737.0494
10005.18162
9324.458293
8694.022608
8111.793726
7574.779678
7079.713634
6623.411375
6202.904167
5815.442267
5458.413894
5129.337548
4825.906692
4545.964822
4287.512543
4048.649077
3827.567704
3622.583155
3432.140374
3254.846173
3089.426571
2934.709448
2789.663352
2653.347331
2524.935412
2403.680911
2288.918046
2180.055285
2076.587078
1978.197688
1884.825011
1793.775277
20243.38108
20219.48975
20263.80575
20236.90944
20157.99301
19950.54907
19529.8679
18854.25021
17974.30073
17003.02064
16023.15927
15074.19057
14166.25453
13301.04542
12476.20909
11691.53439
10947.25079
10244.3456
9584.182838
8967.060797
8392.209108
7857.919699
7361.904833
6901.771809
6475.197489
6080.059384
5714.178494
5375.470416
5061.94925
4771.705459
4502.925469
4253.868411
4022.852397
3808.276765
3608.639016
3422.558333
3248.779465
3086.153212
2933.627802
2790.264217
2655.208845
2527.720602
2407.101872
2292.736952
2184.096556
2080.697491
1982.120008
1888.117277
1798.645175
1711.372858
19501.62448
19373.95422
19154.98675
18767.0226
18251.76346
17627.07622
16922.4842
16172.84126
15405.50186
14637.28897
13878.35377
13134.6892
12409.1792
11705.02563
11025.85358
10374.72896
9754.869989
9168.165226
8615.384308
8096.347464
7610.183808
7155.29967
6730.230474
6333.583897
5963.925467
5619.749466
5299.506379
5001.667687
4724.712265
4467.1583
4227.528738
4004.37169
3796.271341
3601.915699
3420.102757
3249.72201
3089.743519
2939.240247
2797.366384
2663.359718
2536.535455
2416.273961
2302.034146
2193.351505
2089.776417
1990.906881
1896.401791
1806.06124
1719.863548
1635.792472
16562.99966
16443.30518
16220.26538
15883.58749
15466.93269
14987.13008
14460.78712
13902.08522
13322.37555
12729.36227
12131.40789
11534.09044
10944.28041
10367.07737
9807.479139
9269.058101
8754.169951
8264.499242
7800.199044
7360.973552
6946.438947
6556.094787
6189.322495
5845.403199
5523.26496
5221.86888
4940.112122
4676.841732
4430.860379
4200.934758
3985.840576
3784.398752
3595.495269
3418.097268
3251.244516
3094.046456
2945.677759
2805.378167
2672.478825
2546.364422
2426.488612
2312.371912
2203.590549
2099.759372
2000.546578
1905.623495
1814.699352
1727.616954
1644.369954
1563.243351
14110.71494
14027.24443
13863.14681
13620.06436
13314.66254
12956.54231
12555.90289
12122.22165
11663.3699
11188.18717
10703.66744
10216.70519
9733.295814
9258.360831
8795.524478
8348.077653
7917.301544
7504.209565
7109.548163
6733.928288
6377.416459
6039.978303
5721.329649
5420.993491
5138.374007
4872.737841
4623.294491
4389.082369
4169.084395
3962.301383
3767.763542
3584.557213
3411.815383
3248.712259
3094.476968
2948.408993
2809.854446
2678.241456
2553.019132
2433.699664
2319.868814
2211.149539
2107.203058
2007.732098
1912.463408
1821.165249
1733.591794
1649.616557
1569.250298
1491.038693
12315.94359
12251.76174
12121.71899
11930.01244
11686.51754
11398.96207
11074.81593
10721.26526
10345.76115
9955.163407
9555.503373
9152.652667
8750.849585
8354.355958
7965.635032
7586.729397
7219.604968
6865.498338
6525.37967
6199.990063
5889.77307
5594.956033
5315.353426
5050.709207
4800.603667
4564.464953
4341.592199
4131.216264
3932.554535
3744.854094
3567.345681
3399.304743
3240.032174
3088.886544
2945.264258
2808.610105
2678.418526
2554.223807
2435.621542
2322.269086
2213.803899
2109.939172
2010.415193
1914.997106
1823.474946
1735.662718
1651.387996
1570.541394
1493.137823
1417.926985
10953.93402
10901.01601
10792.38756
10632.79925
10429.93203
10189.76539
9918.589163
9622.450166
9307.38272
8978.954234
8642.02129
8300.904262
7959.211428
7619.616356
7285.063841
6957.378641
6638.309812
6329.379228
6031.725025
5745.93141
5472.457975
5211.531469
4963.172964
4727.276601
4503.398206
4291.028562
4089.599179
3898.517339
3717.185271
3545.008697
3381.402396
3225.801687
3077.658121
2936.447276
2801.70608
2672.997357
2549.926383
2432.147217
2319.353685
2211.264396
2107.640519
2008.231431
1912.840346
1821.287165
1733.408692
1649.057364
1568.116908
1490.480031
1416.169566
1344.104672
9890.704419
9845.679165
9752.839425
9616.471531
9442.951181
9237.656034
9005.488754
8751.553394
8481.104744
8197.928769
7906.6939
7610.228196
7312.114594
7014.86941
6720.774354
6432.145864
6150.404218
5876.802466
5612.311641
5357.771178
5113.49368
4879.698454
4656.38833
4443.373693
4240.357186
4046.954438
3862.693755
3687.131321
3519.803185
3360.234549
3207.958035
3062.534372
2923.541108
2790.596664
2663.301958
2541.331938
2424.395908
2312.225529
2204.57652
2101.241099
2002.04805
1906.802593
1815.344761
1727.538183
1643.254311
1562.381677
1484.815345
1410.474096
1339.389739
1270.592801
9039.258236
9000.110227
8919.399504
8800.637498
8649.663203
8470.45032
8267.375516
8045.127857
7807.252581
7557.81706
7300.115884
7037.490991
6772.502077
6508.058159
6245.936071
5987.936854
5735.718366
5490.245633
5252.398671
5022.795984
4801.933944
4589.878657
4386.576723
4191.873358
4005.541032
3827.298946
3656.871835
3493.861349
3337.890973
3188.59917
3045.623582
2908.614855
2777.249673
2651.22515
2530.271905
2414.127437
2302.561793
2195.370766
2092.374447
1993.408606
1898.349813
1807.052102
1719.385713
1635.243246
1554.520061
1477.116501
1402.953117
1331.96539
1264.176641
1198.696375
8338.515913
8303.814522
8232.566294
8127.381927
7993.189177
7833.714994
7652.975096
7454.526103
7241.800455
7018.530518
6787.430409
6551.707793
6313.62528
6075.437646
5839.13743
5606.13404
5377.767043
5155.190533
4939.046677
4729.849918
4527.891738
4333.363518
4146.198796
3966.300486
3793.526098
3627.675379
3468.507149
3315.774528
3169.168076
3028.396171
2893.18544
2763.266702
2638.386792
2518.323267
2402.903449
2291.902161
2185.147434
2082.486217
1983.780038
1888.905885
1797.772552
1710.267883
1626.286804
1545.735579
1468.517913
1394.569988
1323.808423
1256.174552
1191.686582
1129.529339
7744.67098
7713.43461
7649.45427
7554.671865
7433.81277
7290.238014
7127.354387
6948.1924
6756.264107
6554.386121
6345.458726
6131.881
5916.048108
5699.710229
5484.750245
5272.510448
5064.080724
4860.418853
4662.188419
4469.738553
4283.331911
4103.123448
3929.223934
3761.546749
3600.000145
3444.435755
3294.672123
3150.528046
3011.806218
2878.267535
2749.697002
2625.899163
2506.696001
2391.923843
2281.439146
2175.098972
2072.758048
1974.302845
1879.629516
1788.64375
1701.283171
1617.451331
1537.05415
1460.008812
1386.241828
1315.709287
1248.301074
1183.972714
1122.737361
1063.830721
7228.935933
7200.478526
7142.633579
7056.681849
6947.114777
6817.043186
6669.135056
6506.431357
6332.049524
6148.321128
5958.09493
5763.291502
5566.206309
5368.437087
5171.499763
4976.785016
4785.141887
4597.324598
4413.984694
4235.462765
4062.023851
3893.851272
3731.061098
3573.679482
3421.608405
3274.763543
3133.026819
2996.255046
2864.334654
2737.082017
2614.344731
2495.988933
2381.882765
2271.896939
2165.94626
2063.920197
1965.709547
1871.227857
1780.396856
1693.143772
1609.437486
1529.163615
1452.252779
1378.637178
1308.260103
1241.055047
1176.925891
1115.81792
1057.742673
1001.977682
6774.346824
6748.311239
6695.854519
6617.561993
6517.862718
6399.189617
6264.196653
6115.742098
5956.300919
5788.265083
5613.988317
5435.414742
5254.395613
5072.557106
4891.112649
4711.257221
4533.797774
4359.388844
4188.604706
4021.892914
3859.493672
3701.601072
3548.33005
3399.768865
3255.870155
3116.581834
2981.83406
2851.540232
2725.616301
2603.972195
2486.493173
2373.079584
2263.637416
2158.086503
2056.370157
1958.406575
1864.113498
1773.428759
1686.289905
1602.657554
1522.471868
1445.652516
1372.138294
1301.864351
1234.789481
1170.819958
1109.862402
1051.85799
996.841944
944.0790655
6369.553362
6345.612167
6297.847868
6226.225297
6134.933937
6026.186607
5902.425864
5766.294909
5619.869219
5465.503739
5305.129718
5140.658239
4973.590411
4805.471169
4637.300398
4470.112625
4304.767176
4141.841349
3981.87221
3825.352386
3672.499594
3523.51463
3378.531134
3237.671616
3100.941966
2968.323153
2839.782707
2715.275649
2594.775187
2478.240609
2365.577709
2256.727108
2151.633701
2050.242185
1952.538294
1858.439982
1767.898003
1680.864434
1597.294541
1517.161086
1440.392611
1366.93313
1296.71901
1229.698872
1165.818956
1104.971306
1047.065027
992.0629761
939.9550667
890.0519747
6006.064246
5983.954455
5940.321191
5874.508087
5790.563014
5690.570507
5576.768453
5451.395089
5316.408675
5174.001714
5025.779467
4873.545631
4718.546995
4562.180172
4405.407762
4249.15321
4094.285549
3941.336943
3790.813114
3643.169837
3498.662608
3357.498661
3219.835559
3085.800869
2955.464426
2828.818986
2705.878077
2586.642462
2471.126313
2359.29834
2251.110737
2146.533843
2045.53629
1948.101616
1854.218998
1763.829391
1676.900396
1593.395064
1513.281313
1436.533802
1363.088754
1292.888083
1225.872012
1162.0174
1101.210692
1043.364106
988.3952116
936.2625354
886.918548
839.7259294
5677.67718
5657.185993
5617.222265
5556.486391
5479.067718
5386.809134
5281.775446
5165.886755
5040.970097
4908.963421
4771.280099
4629.586783
4485.005512
4338.803661
4191.940597
4045.246866
3899.548032
3755.348381
3613.124819
3473.305718
3336.194766
3201.985502
3070.851876
2942.954272
2818.376965
2697.159059
2579.347871
2464.972719
2354.071297
2246.636548
2142.651387
2042.110761
1945.008667
1851.36314
1761.146304
1674.330934
1590.890102
1510.790347
1434.043874
1360.583298
1290.359076
1223.314951
1159.423956
1098.59777
1040.747991
985.7830774
933.6401983
884.2277877
837.5074294
792.8900063
3447.064122
3314.2333
3183.728097
3055.758555
2930.514895
2808.178949
2688.864258
2572.638774
2459.568389
2349.699716
2243.125572
2139.822007
2039.812327
1943.111925
1849.742739
1759.731944
1673.049485
1589.682114
1509.6088
1432.840646
1359.345464
1289.070227
1221.965673
1157.998988
1097.105184
1039.195821
984.1837909
931.9971437
882.5345428
835.7069552
791.4777258
749.304428
)
;

boundaryField
{
    front_top
    {
        type            wedge;
    }
    front_middle
    {
        type            wedge;
    }
    front_bottom
    {
        type            wedge;
    }
    back_top
    {
        type            wedge;
    }
    back_middle
    {
        type            wedge;
    }
    back_bottom
    {
        type            wedge;
    }
    axis_top
    {
        type            symmetryPlane;
    }
    axis_middle
    {
        type            symmetryPlane;
    }
    axis_bottom
    {
        type            symmetryPlane;
    }
    wall_top
    {
        type            calculated;
        value           nonuniform List<scalar> 
23
(
2558.366358
2374.454973
2212.711532
2070.363208
1946.213965
1840.011223
1748.476274
1667.986109
1594.06129
1523.033312
1452.334538
1380.780006
1308.581571
1236.744495
1166.542678
1099.040577
1034.967387
974.680197
918.2926259
865.7020839
816.7338623
771.167835
728.7767848
)
;
    }
    wall_middle
    {
        type            calculated;
        value           nonuniform 0();
    }
    wall_bottom
    {
        type            calculated;
        value           nonuniform 0();
    }
    inlet
    {
        type            calculated;
        value           nonuniform 0();
    }
    outlet
    {
        type            calculated;
        value           nonuniform 0();
    }
    procBoundary10to9
    {
        type            processor;
        value           nonuniform List<scalar> 
51
(
5379.66982
5360.606935
5323.826859
5267.603338
5195.951888
5110.494324
5013.121234
4905.495657
4789.325443
4666.297324
4537.760803
4405.197989
4269.701141
4132.415865
3994.271217
3856.008115
3718.397452
3581.929916
3581.929916
3291.280837
3164.718488
3040.167367
2917.841622
2797.95295
2680.725495
2566.263784
2454.657623
2345.993118
2240.370446
2137.852866
2038.461487
1942.235235
1849.20951
1759.440648
1672.922226
1589.648213
1509.611975
1432.824826
1359.285429
1288.940848
1221.751255
1157.679968
1096.682514
1038.671012
983.5627708
931.2841301
881.7451711
834.8292292
790.4530459
748.6042218
708.7241201
)
;
    }
    procBoundary10to11
    {
        type            processor;
        value           nonuniform List<scalar> 
51
(
18095.85084
18085.62244
18094.9667
18087.31202
18080.48049
18072.76676
18059.25879
18031.64575
17980.5928
17896.29876
17776.34309
17672.19407
17594.27633
17368.03719
16896.97826
16283.51839
15819.16883
15776.14711
16021.8284
16319.19384
16588.63557
16816.57171
17010.09845
17195.52501
17407.96688
17464.51228
16639.5857
15154.70263
13765.6528
12567.77385
11509.12373
10559.11996
9702.91358
8931.64928
7243.188351
7243.188351
6721.534648
6250.217559
5823.5832
5436.701624
5085.186576
4765.181318
4473.283755
4206.509123
3962.187808
3737.890093
3531.403913
3340.750521
3164.371631
3001.217348
2846.663025
)
;
    }
}


// ************************************************************************* //
