/*--------------------------------*- C++ -*----------------------------------*\
  =========                 |
  \\      /  F ield         | OpenFOAM: The Open Source CFD Toolbox
   \\    /   O peration     | Website:  https://openfoam.org
    \\  /    A nd           | Version:  7
     \\/     M anipulation  |
\*---------------------------------------------------------------------------*/
FoamFile
{
    version     2.0;
    format      ascii;
    class       volVectorField;
    location    "0.0012";
    object      grad(generalizedNewtonian:nu);
}
// * * * * * * * * * * * * * * * * * * * * * * * * * * * * * * * * * * * * * //

dimensions      [0 1 -1 0 0 0 0];

internalField   nonuniform List<vector> 
1166
(
(-688319.154 0 -127571.6333)
(-835987.1183 0 37996.85802)
(-1527634.958 0 373876.8345)
(-2609309.14 0 912409.6944)
(-3617236.378 0 1554384.735)
(-4928534.787 0 2170461.094)
(-6588691.094 0 2853034.031)
(-7614971.5 0 3766374.045)
(-7238928.884 0 4922716.357)
(-8801002.71 0 6209095.395)
(-15028465.01 0 7421248.196)
(-22538956.38 0 8261846.978)
(-26389792.96 0 8128484.669)
(-21232444.2 0 6473317.955)
(-5822911.863 0 3511037.982)
(9226796.445 0 -4117.459776)
(15207949.24 0 -2820038.365)
(15207781.63 0 -3855765.652)
(13597734.35 0 -3652562.492)
(11803344.59 0 -3205508.838)
(10756537.89 0 -2944619.909)
(11346918.23 0 -2698385.169)
(9894826.507 9.737110326e-08 -431806.4841)
(-14233799.61 0 5199710.169)
(-61745495.3 0 11526231.12)
(-88859937.22 0 16537123.42)
(-85093034.22 0 17552657.4)
(-75732910.31 0 15589646.39)
(-68597825.78 0 13645374.67)
(-62941112.47 0 12124913.2)
(-57960538.02 0 10851096.22)
(-53334511.84 0 9726296.246)
(-48990377.33 0 8715998.82)
(-44956875.64 0 7811661.349)
(-1587389.349 0 8649445.5)
(-2783008.579 0 8687615.94)
(-4793548.498 0 8822559.888)
(-6727655.371 -7.519634018e-07 8991666.691)
(-7225140.697 0 9249314.59)
(-7790541.382 0 9568658.233)
(-10140227.12 0 9850947.855)
(-13920964.53 -1.960955909e-07 10001638.14)
(-17628009.92 0 9940175.612)
(-19858215.65 -1.636536383e-07 9341678.212)
(-17955445.46 0 7744470.259)
(-8889573.347 -1.428995899e-07 5126115.429)
(3672008.002 0 1902961.887)
(12144859.9 -1.286558715e-07 -1332268.793)
(14925511.81 0 -3560312.89)
(14608993.98 0 -4159751.504)
(13105943.41 0 -3857077.511)
(11458081.17 1.108286605e-07 -3439753.801)
(10481948.18 1.077630226e-07 -3204027.515)
(10916357.95 0 -3034991.668)
(10566402.16 0 -1254606.706)
(-6796880.901 0 3857950.174)
(-49534831.54 0 10148197.91)
(-81404022.33 0 15549479.23)
(-82485957.65 0 17581070.09)
(-73973712.1 0 16001590.94)
(-66987420.38 0 13979230.34)
(-61573640.25 0 12387073.71)
(-56905850 0 11079334.07)
(-52587745.96 0 9936385.822)
(-48493850.41 0 8909987.787)
(-44629593.24 0 7986219.595)
(-41057683.83 0 7161606.589)
(-37812665.68 0 6432378.053)
(-34879777.21 0 5790409.778)
(-32226979.44 2.231704416e-08 5224911.077)
(-29823785.3 0 4725731.657)
(-27647042.1 -2.229868315e-08 4284197.678)
(-25674866.55 0 3893042.306)
(-23886284.82 0 3545754.476)
(-22263051.12 0 3236889.615)
(-20791039.51 0 2962006.943)
(-19460361.41 -1.125356166e-08 2717521.781)
(-18262158.86 0 2500335.771)
(-17187424.6 0 2307484.859)
(-16225031.38 0 2136197.455)
(-15354320.08 -1.144786074e-08 1983963.309)
(-14542186.75 0 1848525.458)
(-13947960.77 0 1728020.748)
(-13685381.54 0 1620357.12)
(-991017.9733 0 11548817.89)
(-1864918.736 0 11395034.19)
(-3181341.684 0 11176106.69)
(-4973565.535 0 10731422.52)
(-6802464.012 0 10139738.53)
(-8254932.876 0 9317867.512)
(-9017378.144 0 8059507.648)
(-8157943.682 0 6251490.895)
(-3434555.083 0 3920555.785)
(4229322.227 0 1217191.31)
(10502966.03 0 -1573696.268)
(13579755.46 0 -3883846.612)
(14375599.25 -1.372629375e-07 -5012514.31)
(13815142.68 0 -5074621.98)
(12501095.73 0 -4679072.74)
(11101981.7 0 -4240610.838)
(10313895.6 0 -3983970.308)
(10707962.85 0 -3791908.716)
(10736060.18 0 -2192499.24)
(-2343250.667 0 2563090.748)
(-39738913.9 0 8780164.587)
(-73302930.3 0 14414734.05)
(-78814874.96 0 17276344.07)
(-71693590.96 0 16252558.07)
(-65027869.86 0 14242610.93)
(-59908370.6 0 12605477.67)
(-55584066.94 0 11281662.31)
(-51610656 0 10136878.2)
(-47822848.25 -4.669962399e-08 9108955.356)
(-44202113.1 0 8177496.144)
(-40796567.73 0 7338726.508)
(-37656077.11 2.292064607e-08 6591978.713)
(-34793609.98 0 5932575.685)
(-32192506.44 0 5350844.762)
(-29826606.53 0 4836756.399)
(-27674268.12 0 4381539.643)
(-25716562.97 0 3977861.145)
(-23935099.88 0 3619324.1)
(-22313006.8 0 3300247.33)
(-20836174.12 0 3015981.409)
(-19495379.56 0 2762739.787)
(-18282870.74 0 2537406.889)
(-17190402.75 0 2337127.698)
(-16208537.53 0 2159130.117)
(-15327890.33 0 2000824.353)
(-14539826.77 -1.156833907e-08 1859896.858)
(-13825894.84 1.162614544e-08 1734264.614)
(-13154576.12 0 1622117.285)
(-12683418.51 5.878859142e-09 1521818.249)
(-12515359.22 5.915608533e-09 1431347.102)
(-432106.0382 0 2141480.02)
(-790703.0988 0 1930779.087)
(-1218273.223 0 1378394.4)
(-1233594.826 0 603338.6893)
(364933.3423 0 -499438.8624)
(3580504.591 0 -1891758.005)
(6900199.173 0 -3463481.81)
(9485467.232 0 -5109637.003)
(11397217.9 0 -6565218.633)
(12455317.46 0 -7342090.298)
(12568725.84 0 -7367276.361)
(11943075.77 0 -6972464.598)
(10936794.18 0 -6431630.569)
(9994147.777 0 -5930410.058)
(9560759.608 0 -5607687.6)
(10071030.65 0 -5270856.589)
(10103642.48 0 -3509252.102)
(-879806.9767 0 1184490.215)
(-33721783.53 0 7362995.22)
(-66364963.75 0 13139473.05)
(-74668610.42 0 16591570.86)
(-69135559.93 0 16187617.34)
(-62983759.05 0 14309218.68)
(-58208697.8 0 12678933.78)
(-54235360.37 0 11371694.02)
(-50611400.63 0 10251724.12)
(-47137177.67 0 9246126.445)
(-43770365.43 0 8328088.587)
(-40547027.76 0 7492798.101)
(-37529462.13 0 6741115.818)
(-34752716.71 0 6071851.627)
(-32213354.7 0 5478843.792)
(-29891719.66 0 4953445.16)
(-27767906.34 0 4487238.088)
(-25826920.93 0 4072903.477)
(-24053844.38 0 3704249.336)
(-22433710.63 0 3375652.91)
(-20953177.71 0 3082410.815)
(-19602176.89 0 2820650.586)
(-18374091.37 0 2587248.373)
(-17262577.3 0 2379459.257)
(-16260008.87 0 2194586.937)
(-15357237.4 0 2030062.012)
(-14545455.39 0 1883534.883)
(-13817973.56 0 1752887.881)
(-13166828.2 0 1636235.866)
(-12574822.31 0 1531818.829)
(-12011954.9 0 1438165.76)
(-11632937.5 0 1354107.284)
(-11528505.57 0 1277472.834)
(563809.8747 0 -7928085.565)
(2339843.409 0 -8016032.253)
(3686765.148 -5.362918331e-07 -8503717.79)
(4869422.507 0 -8974796.188)
(6439666.981 -3.149366689e-07 -9509020.281)
(7734006.501 0 -9838350.727)
(8661229.222 0 -9838093.004)
(9156837.581 2.054007675e-07 -9587196.055)
(9156466.82 -1.863413034e-07 -9150921.172)
(8766459.4 -1.714193713e-07 -8593812.564)
(8287108.195 0 -8023915.224)
(7967730.421 0 -7554400.774)
(8025997.611 0 -7226975.142)
(8711648.6 0 -6653887.178)
(8311109.891 0 -4426541.036)
(-2595400.635 0 442076.4484)
(-32282654.81 0 6555746.432)
(-61938016.19 -1.160877295e-07 12321740.7)
(-70785994.32 -1.128766202e-07 16031382.52)
(-66581573.31 -1.100728517e-07 16084434.69)
(-61074220.6 0 14379788.48)
(-56670921.61 0 12776579.36)
(-53022415.94 0 11485912.41)
(-49709418.73 0 10386712.81)
(-46515504.6 0 9400182.86)
(-43387744.79 0 8493694.532)
(-40349993.03 0 7660263.517)
(-37463552.43 0 6902073.899)
(-34776762.73 0 6221080.113)
(-32300820.67 0 5614628.917)
(-30024940.63 -2.376127377e-08 5075538.654)
(-27932056.84 -2.364011987e-08 4595893.754)
(-26009326.44 0 4168610.15)
(-24244823.32 0 3787675.858)
(-22626020.2 0 3447758.39)
(-21141092.11 0 3144034.321)
(-19780005.06 0 2872531.075)
(-18536593.14 2.335680579e-08 2630008.006)
(-17405645.09 0 2413772.19)
(-16381164.39 -1.170075375e-08 2221301.648)
(-15455551.72 0 2050067.914)
(-14620293.94 0 1897654.039)
(-13868219.55 0 1761899.344)
(-13192282.71 0 1640792.181)
(-12585929.35 0 1532581.362)
(-12042403.7 0 1435646.795)
(-11546046.79 0 1348680.826)
(-11070446.38 6.028122004e-09 1270489.368)
(-10763127.7 0 1200219.077)
(-10701989.88 0 1135458.262)
(218677.4852 0 -10579707.57)
(2502648.844 0 -10460230.23)
(3601492.9 0 -10482480.85)
(3961850.656 0 -10294106.33)
(4808746.788 3.19841369e-07 -10037517.36)
(5250729.033 0 -9706860.985)
(5512537.155 0 -9320222.018)
(5699799.278 2.085995984e-07 -8911841.678)
(5839569.991 0 -8542477.944)
(6046844.123 0 -8255727.045)
(6559358.791 0 -7930203.794)
(7251369.425 0 -6881204.2)
(5479036.768 1.437763699e-07 -3879091.431)
(-7335013.49 -1.368595949e-07 1250104.045)
(-34820040.03 -1.30990778e-07 7164757.806)
(-59537925.5 0 12668606.98)
(-66748245.08 0 16194000.58)
(-63449515.45 0 16345179.73)
(-58769192.37 0 14736225.07)
(-54874294.51 0 13129097.76)
(-51593790.86 0 11814275.99)
(-48596614.02 0 10695306.68)
(-45698660.49 1.051930711e-07 9692865.881)
(-42835269.87 0 8769052.408)
(-40017525.38 0 7914541.041)
(-37296623.87 -5.037692207e-08 7131443.02)
(-34727622.29 2.490855617e-08 6423317.397)
(-32337902.27 0 5790016.055)
(-30127203.51 0 5225816.473)
(-28083165.94 2.428040332e-08 4723215.959)
(-26193476.32 0 4275072.634)
(-24449588.13 -2.400828182e-08 3875206.146)
(-22842313.26 0 3518295.177)
(-21361799.24 -2.383257975e-08 3199406.535)
(-19998941.97 0 2914378.305)
(-18746980.1 -1.187004366e-08 2659744.187)
(-17601910.71 1.186087405e-08 2432689.91)
(-16559459.01 -1.186027776e-08 2230705.309)
(-15613917.03 0 2051272.514)
(-14757943.58 -1.18829767e-08 1891927.682)
(-13983915.9 0 1750376.724)
(-13285616.45 -1.193496952e-08 1624569.452)
(-12655892.3 0 1512648.192)
(-12088235.47 0 1412876.47)
(-11578245.5 0 1323739.766)
(-11121128.32 0 1243943.622)
(-10702905.4 0 1172272.319)
(-10297515.26 0 1107675.659)
(-10043926.77 0 1049554.651)
(-10015772.04 0 995468.5272)
(-291598.1909 0 -9286458.019)
(1997567.47 0 -9193067.83)
(2735500.767 0 -9141619.277)
(2611995.013 0 -8987352.339)
(3415544.492 0 -8815957.933)
(3982661.378 0 -8647536.568)
(4435604.667 0 -8480113.344)
(4957774.666 2.118482477e-07 -8181197.496)
(5553658.816 0 -7336287.941)
(5319545.667 0 -5179451.314)
(337207.7179 0 -1228423.363)
(-15765346.95 0 3991926.757)
(-40124383.02 0 9489351.021)
(-57685780.77 0 14388300.17)
(-61807773.91 0 17214052.92)
(-59144729.06 0 17053945.82)
(-55484104.8 0 15428195.03)
(-52284509.85 0 13789054.79)
(-49499216.18 0 12414818.35)
(-46913609.89 0 11235544.8)
(-44381391.09 0 10177755.03)
(-41842365.06 0 9203885.792)
(-39301660.18 0 8301934.547)
(-36802831 0 7472678.917)
(-34406086.67 5.181459802e-08 6719558.936)
(-32152997.33 0 6043366.462)
(-30053346.64 2.529647238e-08 5440164.644)
(-28098161.37 0 4902768.613)
(-26275982.5 2.483870913e-08 4423683.293)
(-24581717.65 0 3996286.509)
(-23009860.18 0 3614930.852)
(-21553438.86 0 3274595.072)
(-20205631.05 1.21408189e-08 2970693.531)
(-18960485.71 0 2699435.686)
(-17814719.98 0 2457694.119)
(-16765537.01 0 2242823.074)
(-15809094.79 0 2052314.815)
(-14939742.64 0 1883578.325)
(-14150535.27 0 1734175.152)
(-13435406.59 0 1601932.158)
(-12788655.93 1.209089353e-08 1484831.132)
(-12204136.41 0 1381117.473)
(-11675993.83 1.215757737e-08 1289083.808)
(-11199009.09 0 1207355.542)
(-10769719.25 0 1134625.205)
(-10383169.11 0 1069673.455)
(-10025113.49 6.183742397e-09 1011319.369)
(-9674918.972 0 958757.5655)
(-9462752.232 0 911480.146)
(-9455026.134 0 866977.1436)
(-443455.5368 0 -8374211.752)
(1833937.88 0 -8312240.918)
(2532266.035 -5.617400811e-07 -8124643.737)
(2340361.758 0 -7789386.46)
(3096691.254 0 -7129535.662)
(3528531.051 0 -5845158.768)
(3048110.357 0 -3586621.761)
(-476263.2419 0 -180426.7375)
(-10577313.76 0 4161005.05)
(-27730430.07 -1.795536042e-07 8926792.076)
(-44840861.89 0 13601670.08)
(-53921140.97 0 17335376.62)
(-55158155.82 0 18871995.67)
(-53188850.08 0 18072459.43)
(-50691754.44 0 16349932.56)
(-48372694.54 0 14671199.86)
(-46252280.32 -6.273083734e-08 13226047.88)
(-44211848.98 0 11965954.14)
(-42159500.9 0 10831043.81)
(-40044719.54 0 9787217.736)
(-37869574.48 5.636272865e-08 8821000.766)
(-35685350.7 0 7931283.461)
(-33557924.18 0 7120986.878)
(-31528910.89 0 6391573.736)
(-29612153.71 0 5740349.332)
(-27806869.74 0 5159985.185)
(-26107594.96 0 4642650.173)
(-24510763.43 0 4181001.076)
(-23015188.15 2.522553796e-08 3769027.003)
(-21618025.46 2.504255981e-08 3401489.536)
(-20315309.79 -2.48887994e-08 3073530.819)
(-19103134.83 0 2781033.785)
(-17978956.55 -1.232989551e-08 2520517.873)
(-16942095.66 0 2289081.318)
(-15990720.5 0 2084091.377)
(-15121270.67 -1.22426417e-08 1902927.619)
(-14328114.41 0 1743005.99)
(-13605475.66 0 1601890.878)
(-12949364.7 0 1477442.868)
(-12354395.92 0 1367708.116)
(-11815147.66 1.227919262e-08 1270915.15)
(-11326689.67 -6.154802786e-09 1185371.366)
(-10884110.3 6.173457482e-09 1109732.473)
(-10483491.69 0 1042775.262)
(-10120740.79 0 983315.3445)
(-9791106.142 0 930229.2963)
(-9483893.142 0 882630.9421)
(-9179518.854 0 839950.6333)
(-8996478.312 0 801735.3057)
(-8996369.928 -6.390818377e-09 765138.0616)
(-721447.3884 0 -680636.9372)
(694843.8251 0 -179007.0758)
(162219.0804 0 1165257.371)
(-2339553.07 0 3078808.362)
(-6364510.083 6.700371162e-07 5649765.565)
(-14038503.49 0 8753989.354)
(-24733963.17 0 12221228.4)
(-35517127.89 0 15750050.41)
(-42872705.18 0 18794567.38)
(-45941202 0 20506678.13)
(-46233549.47 -1.696231201e-07 20368944.69)
(-45339521.06 0 18918639.81)
(-44108983.85 0 17123861.42)
(-42836051.78 0 15448287.08)
(-41563894.98 0 13969824.21)
(-40227702.65 6.597342451e-08 12657731.11)
(-38793153.82 0 11466737.96)
(-37225700.48 0 10369459.39)
(-35539805.3 6.003709043e-08 9352957.751)
(-33791157.52 5.854581523e-08 8414671.47)
(-32036084.78 0 7557002.482)
(-30320727.04 0 6783168.309)
(-28669645.19 0 6090415.358)
(-27089498.7 0 5471673.483)
(-25577781.66 0 4918861.549)
(-24135849.11 0 4424590.397)
(-22768125.89 0 3982604.942)
(-21474169.43 0 3587521.761)
(-20253930.72 0 3234535.174)
(-19107219.01 0 2919240.214)
(-18033787.91 1.26382039e-08 2637983.139)
(-17034485.44 0 2387660.022)
(-16109702.42 1.252191647e-08 2165698.289)
(-15258229.33 0 1969501.037)
(-14477053.75 0 1796400.839)
(-13761716.32 0 1643863.427)
(-13107869.38 1.242369908e-08 1509574.904)
(-12511783.25 0 1391479.702)
(-11969007.41 0 1287689.595)
(-11475135.14 0 1196398.291)
(-11025269.72 -6.235211976e-09 1116076.893)
(-10615880.33 0 1045310.655)
(-10244325.58 0 982841.9221)
(-9905778.717 0 927425.2376)
(-9596605.909 0 878108.9989)
(-9313838.239 6.34613737e-09 834058.0562)
(-9048189.156 0 794547.2383)
(-8782991.371 6.412504295e-09 759066.3562)
(-8621948.687 -6.450026658e-09 727436.9237)
(-8619841.456 6.490346478e-09 696671.8366)
(-3855263.247 0 16564030.45)
(-7575921.337 0 16989356.95)
(-13052419.09 0 18178129.34)
(-19303756.84 0 19551666.79)
(-24648864.67 0 21046206.13)
(-29169603.75 0 22246905.74)
(-32435371.55 0 22704269.33)
(-34427843.19 0 22171318.68)
(-35483342.07 0 20823657.52)
(-35942375.06 0 19129999.51)
(-36024940.45 0 17421143.99)
(-35884759.04 0 15847798.94)
(-35575243.46 0 14424222.5)
(-35068247.44 0 13135145.52)
(-34357385.66 0 11947790.81)
(-33441946.59 1.340017377e-07 10845304.27)
(-32343948.29 0 9818293.701)
(-31120873.7 0 8863673.825)
(-29824402.03 0 7986870.363)
(-28498189.45 0 7190532.327)
(-27182986.04 0 6472907.651)
(-25897920.35 0 5828552.313)
(-24640301.41 0 5249987.745)
(-23412397.91 0 4729726.566)
(-22220960.84 0 4262181.652)
(-21073165.45 0 3842503.743)
(-19973610.78 0 3465877.999)
(-18925480.07 0 3128137.79)
(-17931416.47 2.601736141e-08 2825755.247)
(-16994252.59 0 2555707.062)
(-16117346.13 0 2315356.195)
(-15303052.29 -1.276958316e-08 2102186.396)
(-14550868.09 0 1913652.394)
(-13857409.15 0 1747210.778)
(-13219356.37 0 1600434.243)
(-12634112.27 0 1471128.193)
(-12098278.92 0 1357367.307)
(-11608071.49 0 1257411.048)
(-11160061.76 0 1169544.969)
(-10750611.33 0 1092319.914)
(-10376480.32 1.266463346e-08 1024360.38)
(-10034023.48 0 964493.7724)
(-9718744.099 -6.367240797e-09 911494.6218)
(-9428593.482 0 864332.5619)
(-9162548.496 0 822121.5566)
(-8917336.354 0 784169.6267)
(-8684935.33 0 749899.9308)
(-8451076.979 0 718911.0565)
(-8306048.461 0 691034.0104)
(-8297245.488 0 663510.3071)
(-3614418.36 -2.792175223e-06 24510117.36)
(-7542319.565 0 24308027.11)
(-11919180.48 -5.88395903e-07 24056168.58)
(-16045143.99 0 23395507.76)
(-19344816.46 0 22440267.75)
(-22058526.76 0 21228273.93)
(-24199324.82 0 19847217.1)
(-25845062.78 2.253567229e-07 18411992.22)
(-27112389.07 2.044455141e-07 17010802.22)
(-28042006.92 0 15679609.16)
(-28667225.25 0 14432762.7)
(-29001900 0 13266100.26)
(-29043503.57 0 12165636.33)
(-28820988.7 -7.392686764e-08 11123620.03)
(-28359885.53 0 10140151.69)
(-27716272.19 0 9214235.408)
(-26930572.56 0 8354691.606)
(-26056324.34 0 7565518.396)
(-25143798.69 0 6846778.746)
(-24206893.97 0 6194839.119)
(-23251305.29 0 5605435.877)
(-22284050.63 0 5071496.668)
(-21312188.47 0 4587668.948)
(-20350662.64 0 4149803.442)
(-19410955.73 -2.755927447e-08 3754080.515)
(-18496517.66 0 3396991.795)
(-17613597.97 0 3075088.702)
(-16768197.68 -2.664765536e-08 2785798.318)
(-15966200.58 0 2526832.423)
(-15211980.64 0 2295995.69)
(-14507302.63 0 2090980.153)
(-13851960.18 0 1909337.259)
(-13244305.92 1.29149766e-08 1748572.038)
(-12682178.36 0 1606474.945)
(-12163558.58 0 1481086.278)
(-11686443.49 0 1370541.747)
(-11248745.39 -1.281367619e-08 1273131.586)
(-10847058.77 0 1187239.124)
(-10478129.23 6.410570904e-09 1111524.633)
(-10139256.88 -6.418777188e-09 1044740.334)
(-9826907.834 6.430933872e-09 985655.5024)
(-9537778.585 0 933167.7289)
(-9269484.011 6.466401833e-09 886357.6978)
(-9019483.868 0 844464.2555)
(-8786641.185 0 806687.0391)
(-8570341.843 0 772250.5723)
(-8363711.395 0 740721.5645)
(-8153958.937 -6.613791357e-09 711766.3752)
(-8018425.983 0 685237.3508)
(-8000687.898 6.694076989e-09 658579.3446)
(-2520561.757 0 19600437.49)
(-5471700.848 0 19344540.9)
(-8660606.768 0 18915728.08)
(-11690711.38 0 18247382.01)
(-14328475.01 0 17449042.54)
(-16645673.47 0 16562572.02)
(-18617937.33 0 15630059.95)
(-20272926.5 0 14683742.56)
(-21600126.49 0 13741531.22)
(-22601946.97 9.550140543e-08 12807438.62)
(-23302581.15 0 11892221.58)
(-23708713.38 0 10994607.11)
(-23851898.71 0 10126788.98)
(-23776948.48 0 9292655.225)
(-23512638.7 0 8503909.48)
(-23111301.29 0 7767654.832)
(-22625211.86 0 7085629.49)
(-22064726.97 0 6459871.349)
(-21437389.38 0 5886618.161)
(-20759708.07 0 5361106.542)
(-20047968.08 0 4879516.166)
(-19311523.8 0 4438491.526)
(-18563104.89 2.885330708e-08 4036040.094)
(-17812424.6 0 3670024.06)
(-17068275 0 3337440.456)
(-16338075.01 0 3036136.397)
(-15630977.91 0 2764262.485)
(-14956574.1 0 2520045.244)
(-14318796.09 1.341702016e-08 2301566.497)
(-13718920.72 0 2106606.136)
(-13156881.4 0 1933063.555)
(-12631917.13 0 1778841.307)
(-12143647 0 1642025.077)
(-11691248.23 0 1520807.039)
(-11272646.82 0 1413540.106)
(-10885862.38 0 1318676.373)
(-10528187.22 -1.301323129e-08 1234739.143)
(-10197707.76 0 1160370.384)
(-9892992.128 0 1094347.165)
(-9610283.722 0 1035408.974)
(-9346594.004 0 982709.4005)
(-9100138.844 0 935358.5994)
(-8868760.604 0 892598.7291)
(-8650739.402 0 853736.2539)
(-8444162.247 0 818208.0249)
(-8248741.727 0 785356.6313)
(-8060354.489 0 754634.2271)
(-7867367.972 0 725820.3924)
(-7735627.716 0 698817.3679)
(-7707102.015 0 671479.9678)
(-1938101.5 0 14797664.45)
(-4303020.624 0 14654586.24)
(-6841426.169 0 14394752.66)
(-9281062.335 0 14003650.42)
(-11470995.59 3.563809698e-07 13523273.13)
(-13422873.01 0 12970610.17)
(-15126136.93 0 12363950.43)
(-16561293.21 1.162153092e-07 11719350.17)
(-17718362.93 0 11045465.68)
(-18612692.96 0 10357626.66)
(-19250599.58 -9.021955736e-08 9665870.644)
(-19661430.31 0 8982295.843)
(-19869965.24 0 8318063.161)
(-19910766.14 0 7683754.825)
(-19830211.88 0 7082499.605)
(-19634262.09 0 6521140.086)
(-19338646.58 0 5997513.458)
(-18964862.35 0 5509231.494)
(-18522665.08 0 5054458.193)
(-18023668.19 0 4633329.468)
(-17480024.12 0 4244013.877)
(-16908498.18 0 3885295.61)
(-16322471.93 0 3555738.384)
(-15729065.99 0 3253603.138)
(-15138423.39 0 2978185.527)
(-14560345.66 0 2728437.356)
(-14002617.63 0 2503315.269)
(-13469768.3 0 2301088.905)
(-12963329.25 1.362597186e-08 2119792.439)
(-12485032.52 0 1957528.996)
(-12036077.71 0 1812494.557)
(-11616247.45 0 1683052.586)
(-11224729.18 0 1567708.831)
(-10860149.6 0 1465051.536)
(-10521287.71 0 1373637.296)
(-10206314.64 0 1292231.362)
(-9913536.788 -6.607947261e-09 1219618.951)
(-9640588.53 0 1154739.38)
(-9383995.072 0 1096446.06)
(-9143366.87 0 1043773.393)
(-8917541.06 0 995895.6663)
(-8703306.891 0 952221.5965)
(-8499359.935 0 912085.4687)
(-8304361.508 0 874937.7005)
(-8116883.749 0 840262.4613)
(-7935893.69 0 807665.0101)
(-7758382.302 0 776538.0361)
(-7575784.813 0 746792.0166)
(-7444644.003 0 718370.1667)
(-7404179.503 0 689521.1475)
(-1597966.841 2.924670153e-06 11546793.12)
(-3582720.605 -4.997319346e-07 11455623.98)
(-5701911.283 0 11278535.28)
(-7730000.208 0 11015139.33)
(-9570712.651 0 10682081.83)
(-11221264.47 1.522380817e-07 10290520.38)
(-12662872.66 0 9852697.181)
(-13884837.47 0 9378527.34)
(-14883456.47 1.070734544e-07 8878454.263)
(-15671899.24 9.849917275e-08 8367144.674)
(-16266395.96 0 7851057.393)
(-16685479.9 0 7344694.749)
(-16959561.38 0 6851157.665)
(-17095712.81 0 6378711.925)
(-17108899.32 -7.411429824e-08 5928264.821)
(-17022654.86 0 5498485.163)
(-16839643.68 3.441276276e-08 5091977.371)
(-16571354.3 3.335254715e-08 4708683.43)
(-16239444.5 0 4348611.529)
(-15859621.91 0 4011277.858)
(-15440028.1 0 3697312.476)
(-14991803.72 0 3406753.94)
(-14523797.49 0 3138712.88)
(-14049820.88 0 2892881.349)
(-13582511.51 1.44335117e-08 2668669.955)
(-13126789.73 0 2465182.94)
(-12686581.4 0 2281329.465)
(-12264295.4 -1.395607296e-08 2115560.164)
(-11861552.48 0 1966358.278)
(-11479563.57 -1.373779956e-08 1832399.85)
(-11118978.88 0 1712248.654)
(-10780196.36 0 1604546.401)
(-10463452.75 0 1507975.577)
(-10167264.17 0 1421296.876)
(-9889952.782 0 1343538.481)
(-9630349.914 1.343208993e-08 1273603.759)
(-9386263.667 1.342171365e-08 1210468.998)
(-9155406.425 0 1153195.137)
(-8936250.798 0 1101020.42)
(-8726981.992 -6.723362454e-09 1053301.681)
(-8527197.922 0 1009129.209)
(-8335878.222 0 968063.6983)
(-8150723.424 0 929630.7705)
(-7970851.886 0 893361.4806)
(-7795344.772 0 858868.2846)
(-7622522.051 0 825796.0785)
(-7450899.329 0 793824.9047)
(-7274040.94 -3.46381524e-09 762819.6309)
(-7140204.213 0 732699.6898)
(-7087465.079 3.505862921e-09 702128.9195)
(-1359629.114 0 9258821.973)
(-3058592.103 0 9192252.638)
(-4872575.699 0 9057271.89)
(-6609226.982 0 8859888.69)
(-8183223.29 0 8608989.081)
(-9600478.915 0 8314310.814)
(-10850634.39 0 7985081.027)
(-11912797.56 0 7627851.359)
(-12806110.71 0 7254703.354)
(-13530349.9 0 6872819.831)
(-14100379.63 0 6489804.932)
(-14530422.69 0 6110319.112)
(-14821286.94 0 5739474.673)
(-14996802.51 0 5376111.507)
(-15055089.03 0 5025876.457)
(-15012742.63 0 4688921.97)
(-14891979.67 0 4365668.251)
(-14700828.54 0 4058811.073)
(-14446909.97 0 3769596.855)
(-14145898.37 3.211695165e-08 3497877.416)
(-13813093.48 0 3243462.368)
(-13456306.79 0 3007134.661)
(-13086870.44 0 2789256.138)
(-12713654.23 0 2590059.16)
(-12342976.62 0 2408498.082)
(-11980996.77 0 2243468.191)
(-11630535.8 0 2093546.592)
(-11292491.38 0 1957796.448)
(-10969055.34 0 1835148.643)
(-10661600.05 0 1724476.978)
(-10370201.62 0 1624703.314)
(-10094584.52 0 1534786.821)
(-9833924.445 0 1453638.9)
(-9588608.109 0 1380189.746)
(-9357671.678 0 1313499.469)
(-9138137.039 0 1252724.517)
(-8928758.464 0 1197069.047)
(-8728564.615 0 1145847.593)
(-8535902.895 0 1098448.955)
(-8348461.893 0 1054307.215)
(-8166293.958 6.841001384e-09 1012864.59)
(-7989436.577 0 973614.8237)
(-7815901.887 0 936233.7628)
(-7644736.301 0 900370.1117)
(-7475179.703 0 865740.8621)
(-7306476.786 0 832115.0792)
(-7137475.691 0 799313.9907)
(-6961783.539 0 767130.9455)
(-6823329.467 0 735564.2271)
(-6759673.808 0 703693.7962)
(-1182153.775 0 7623629.194)
(-2659088.734 0 7572939.438)
(-4240935.429 0 7466913.61)
(-5752609.351 0 7313792.608)
(-7133674.842 0 7120707.613)
(-8390173.8 0 6895728.271)
(-9494079.402 0 6643207.86)
(-10454239.43 0 6370779.603)
(-11272554.3 0 6087340.12)
(-11946814.78 0 5793176.258)
(-12484166.61 0 5497863.796)
(-12894686.61 0 5199561.483)
(-13180265.73 8.390186498e-08 4904731.451)
(-13354462.81 0 4614698.989)
(-13438287.77 0 4330858.066)
(-13429745.99 0 4057662.248)
(-13346381.68 0 3795529.345)
(-13204806.93 3.439947607e-08 3544927.633)
(-13011655.1 0 3307479.14)
(-12775008.54 0 3084776.834)
(-12508854.93 0 2876939.293)
(-12227821.87 0 2684093.194)
(-11938044.53 0 2506577.494)
(-11644710.85 0 2343936.528)
(-11351919.87 -1.488657637e-08 2195408.496)
(-11061571.37 0 2060089.301)
(-10778075.42 0 1936852.081)
(-10505447.93 0 1824724.823)
(-10243450.97 -1.427255463e-08 1722948.847)
(-9992576.348 0 1630625.447)
(-9753371.359 0 1546801.654)
(-9525440.139 0 1470641.814)
(-9308067.22 0 1401314.93)
(-9100164.309 0 1338038.763)
(-8901064.615 0 1279701.725)
(-8710027.204 0 1225813.876)
(-8525515.094 6.921509104e-09 1175791.748)
(-8346175.61 1.384232227e-08 1129069.173)
(-8170945.342 0 1085126.932)
(-7997961.859 0 1043548.47)
(-7826868.959 0 1003941.099)
(-7658259.54 0 965899.2734)
(-7490825.376 0 929153.3983)
(-7323762.371 0 893494.4898)
(-7156970.053 0 858764.6021)
(-6989520.83 -3.535569181e-09 824728.6266)
(-6819957.353 0 791281.7155)
(-6643418.144 0 758313.4492)
(-6500700.695 0 725890.5386)
(-6427511.616 3.615911167e-09 693254.7153)
(-1047879.076 0 6458159.861)
(-2349750.404 0 6418704.63)
(-3751867.25 3.227810984e-07 6335275.038)
(-5106033.017 0 6215696.855)
(-6344940.881 -1.895527726e-07 6065501.664)
(-7466816.27 0 5887752.38)
(-8465068.429 0 5687299.978)
(-9342465.377 0 5472400.187)
(-10085733.61 0 5243211.247)
(-10704183.44 0 5005999.052)
(-11200649.58 0 4762702.311)
(-11579826.67 0 4518053.59)
(-11857265.99 8.520851956e-08 4272857.604)
(-12033847.85 0 4032893.245)
(-12125640.18 0 3797643.689)
(-12144440.01 -3.732762032e-08 3569386.384)
(-12092996.67 0 3350953.881)
(-11986646.17 3.493519996e-08 3142397.208)
(-11839909.66 0 2944786.749)
(-11660690.9 0 2759469.507)
(-11456624.58 0 2587605.359)
(-11237208.95 0 2428757.017)
(-11010364.28 0 2282097.648)
(-10778312.16 0 2147288.813)
(-10544293.81 0 2023654.044)
(-10311638.17 0 1910533.371)
(-10082228.61 0 1807457.541)
(-9858851.748 0 1713345.908)
(-9643613.744 0 1627302.164)
(-9436048.708 0 1548715.829)
(-9236114.482 0 1476852.472)
(-9043805.15 0 1410944.126)
(-8858130.414 0 1350265.293)
(-8676756.254 0 1294121.895)
(-8500351.86 0 1241888.379)
(-8329358.647 0 1192966.183)
(-8161540.521 0 1146933.814)
(-7995989.751 0 1103339.07)
(-7831854.197 0 1061802.534)
(-7667487.018 0 1021975.67)
(-7502681.639 -7.05573879e-09 983553.8398)
(-7338217.124 0 946290.559)
(-7173534.587 0 910008.251)
(-7008466.655 0 874584.302)
(-6841839.777 0 839862.6568)
(-6673228.909 0 805565.6534)
(-6502475.523 0 771847.2611)
(-6324785.887 0 738607.0912)
(-6177508.983 0 705895.8978)
(-6098005.982 0 673084.6582)
(-943245.7319 0 5621968.027)
(-2111318.149 5.315972733e-07 5590340.955)
(-3376854.107 0 5522437.236)
(-4599623.987 0 5424998.723)
(-5713249.674 0 5300238.554)
(-6726188.773 0 5151275.666)
(-7636264.383 0 4984947.502)
(-8431556.364 0 4803847.156)
(-9110229.876 0 4609590.108)
(-9677845.025 0 4409260.85)
(-10137746.47 0 4202186.097)
(-10494922.43 0 3994877.868)
(-10759700.14 -8.653552537e-08 3787178.686)
(-10938739.44 0 3582405.633)
(-11037994.75 0 3382984.979)
(-11073396.03 -3.79089468e-08 3189007.146)
(-11051474.49 0 3002958.515)
(-10980756.52 0 2826866.524)
(-10875502.92 0 2660684.95)
(-10745098.87 0 2505288.986)
(-10593922.82 -1.644546326e-08 2360811.471)
(-10425432.89 0 2227290.729)
(-10246224.44 0 2103808.144)
(-10061999.21 0 1989734.945)
(-9874689.152 -1.53538626e-08 1884847.922)
(-9687214.359 0 1788558.898)
(-9500872.529 0 1700243.658)
(-9316526.357 0 1619377.608)
(-9136511.603 1.472056686e-08 1544968.898)
(-8961897.308 0 1476469.925)
(-8791726.708 0 1413267.269)
(-8625188.415 0 1354675.411)
(-8461582.81 0 1300080.522)
(-8300039.158 0 1249011.298)
(-8140140.715 0 1201023.109)
(-7982278.068 0 1155536.7)
(-7825625.57 0 1112233.516)
(-7668844.134 0 1070776.421)
(-7511369.988 0 1030860.59)
(-7351660.249 0 992231.5956)
(-7189939.875 -7.165622243e-09 954584.7387)
(-7027649.533 0 917932.6358)
(-6864379.07 0 882093.7827)
(-6699381.063 0 846936.5431)
(-6531005.231 0 812260.4769)
(-6361034.809 0 778080.8727)
(-6189543.67 0 744460.716)
(-6010774.915 0 711380.9261)
(-5860216.583 0 678875.1829)
(-5776003.773 0 646473.8613)
(-859329.2705 0 4993244.005)
(-1912502.517 0 4966482.167)
(-3059110.366 0 4907182.984)
(-4170348.774 0 4822332.075)
(-5177396.352 0 4713448.216)
(-6101603.248 0 4585326.735)
(-6934513.136 0 4441814.695)
(-7659026.888 0 4283806.552)
(-8284758.61 0 4116651.562)
(-8809784.512 0 3942514.296)
(-9238854.821 -4.949247252e-08 3764226.342)
(-9578066.54 0 3584110.043)
(-9830822.407 0 3404979.406)
(-10011034.25 0 3227465.656)
(-10119718.11 -4.003400641e-08 3055012.896)
(-10170515.25 0 2888389.271)
(-10176773.82 0 2729043.541)
(-10141366.78 0 2578532.818)
(-10073637.83 0 2437319.504)
(-9982640.317 0 2304892.271)
(-9871737.746 0 2181367.801)
(-9744337.406 0 2066545.291)
(-9604415.022 0 1960403.554)
(-9458024.357 -1.581793875e-08 1862044.252)
(-9308361.607 0 1771236.59)
(-9156128.553 0 1687486.143)
(-9003299.013 0 1610218.867)
(-8849880.782 0 1538946.973)
(-8697484.832 0 1473089.52)
(-8547656.847 0 1411877.698)
(-8399039.103 0 1354796.356)
(-8251199.713 1.467504389e-08 1301353.33)
(-8104233.075 0 1251116.46)
(-7956657.785 0 1203655.212)
(-7807991.042 0 1158523.621)
(-7659284.622 0 1115407.069)
(-7509796.715 7.249950184e-09 1073981.499)
(-7358475.37 -7.249585702e-09 1033982.593)
(-7204876.058 0 995197.611)
(-7047115.331 0 957343.2895)
(-6886998.243 0 920408.948)
(-6726163.438 0 884309.5463)
(-6562785.656 0 848876.4632)
(-6396369.982 0 814017.6999)
(-6226919.13 3.686603909e-09 779567.1006)
(-6056313.711 7.406679684e-09 745781.315)
(-5884111.382 -3.721845231e-09 712574.6328)
(-5705274.971 0 680020.6797)
(-5552764.578 0 648004.828)
(-5465304.384 3.787494235e-09 616379.4613)
(-786197.4214 0 4491391.628)
(-1738214.227 -5.482839854e-07 4467791.21)
(-2782321.085 0 4415111.224)