/*--------------------------------*- C++ -*----------------------------------*\
  =========                 |
  \\      /  F ield         | OpenFOAM: The Open Source CFD Toolbox
   \\    /   O peration     | Website:  https://openfoam.org
    \\  /    A nd           | Version:  7
     \\/     M anipulation  |
\*---------------------------------------------------------------------------*/
FoamFile
{
    version     2.0;
    format      ascii;
    class       volScalarField;
    location    "0.0012";
    object      T;
}
// * * * * * * * * * * * * * * * * * * * * * * * * * * * * * * * * * * * * * //

dimensions      [0 0 0 1 0 0 0];

internalField   nonuniform List<scalar> 
1166
(
356.3434182
356.4339499
356.6280159
356.9147724
357.2876403
357.7406809
358.2692643
358.8676524
359.531429
360.2560575
361.0365972
361.8685199
362.7474938
363.668169
364.6232871
365.6038649
366.6004557
367.60421
368.6077345
369.6056476
370.5947925
371.5740911
372.5442771
373.5080347
374.4697894
375.4350351
376.4089366
377.3954988
378.3973122
379.4152003
380.4480717
381.4928574
382.5452331
383.6006811
358.7173878
358.8068676
358.9986776
359.2817501
359.6497144
360.0976425
360.6192908
361.2107347
361.8659267
362.580604
363.349863
364.1677627
365.0256203
365.9153491
366.8284153
367.7565024
368.692441
369.6305867
370.5671766
371.5002421
372.4294418
373.3562327
374.2836918
375.2163206
376.158811
377.1150791
378.0879274
379.0784013
380.0860168
381.108387
382.1417217
383.1812633
384.2230888
385.2653882
386.3072853
387.348067
388.3867844
389.4224487
390.4540816
391.4805395
392.5006188
393.5131424
394.5172108
395.5122073
396.4976613
397.4731515
398.4382404
399.3925542
400.3357898
401.2675692
361.0288413
361.1174174
361.3067914
361.5864543
361.9504978
362.3927242
362.9081141
363.4908766
364.1361409
364.8349798
365.5814641
366.3678567
367.1860117
368.0262155
368.8824276
369.7493603
370.6228385
371.5000755
372.3797227
373.2620226
374.1486377
375.0424775
375.9489338
376.8709375
377.8107632
378.7696304
379.747465
380.7425463
381.7516424
382.7705021
383.7949388
384.8222493
385.8510825
386.8806079
387.9098979
388.9378901
389.9635812
390.9858198
392.0033833
393.0149641
394.0194446
395.0160353
396.004141
396.9832855
397.9529648
398.912705
399.8621545
400.8008879
401.7285527
402.6447824
363.2849036
363.3721109
363.5589863
363.8349582
364.1936109
364.6269026
365.1310175
365.6956716
366.3166961
366.9847161
367.6914763
368.4313844
369.1975744
369.9812372
370.7796991
371.5902167
372.4105387
373.2397374
374.0774191
374.9267002
375.7913934
376.6736831
377.5754795
378.4980209
379.4415191
380.4048283
381.3852427
382.3789246
383.3815681
384.3897438
385.4016653
386.4162967
387.4327225
388.4498341
389.4665045
390.4816113
391.4938833
392.5019947
393.504646
394.5008083
395.4897328
396.4708216
397.443536
398.4073259
399.3617064
400.3062786
401.2405637
402.1642005
403.0766367
403.9776761
365.4810903
365.5658106
365.7471137
366.0142366
366.3584048
366.773253
367.2526874
367.7865712
368.3703474
368.9957184
369.6546601
370.3442914
371.0577069
371.7891994
372.5391042
373.3054138
374.0864183
374.8832114
375.6992544
376.5357122
377.3939087
378.2749144
379.1790929
380.1057817
381.0525078
382.0158369
382.9916569
383.9761534
384.9670066
385.9628593
386.962703
387.9654008
388.9697255
389.9745237
390.9785
391.9802999
392.9784914
393.9718193
394.9593446
395.9403281
396.9141576
397.8802091
398.8378912
399.7867309
400.7262105
401.6558673
402.5752486
403.4839535
404.3816368
405.2679046
367.5814381
367.6613398
367.8321753
368.0834882
368.4050905
368.7925113
369.2393765
369.7351458
370.2779881
370.857848
371.4719184
372.1165706
372.7836652
373.4760749
374.1913607
374.9271836
375.6868217
376.4705963
377.2790034
378.1128198
378.9724828
379.8569111
380.7641675
381.6913746
382.6348269
383.5906322
384.5558061
385.5285633
386.5076762
387.4920028
388.4802561
389.4711493
390.4634069
391.4556195
392.4463338
393.4341055
394.4177444
395.3963438
396.3691548
397.3355093
398.2947286
399.2461908
400.1894016
401.1237167
402.04864
402.9636893
403.8684931
404.7626125
405.6456152
406.5171875
369.5441785
369.6179939
369.7758208
370.0080113
370.3059695
370.6634637
371.0776181
371.5371677
372.0423339
372.5834691
373.162015
373.7687013
374.4072
375.0741003
375.7687467
376.4922362
377.2439743
378.024323
378.8332006
379.6695088
380.5316259
381.417092
382.3225944
383.2442459
384.1785354
385.1232263
386.0768888
387.0383848
388.0063424
388.9793502
389.9560844
390.9350955
391.9148862
392.8938946
393.8707074
394.8442062
395.8134831
396.7777665
397.7363009
398.6883606
399.6333262
400.5705872
401.4995466
402.4196633
403.3304066
404.2313564
405.1219777
406.001686
406.8703357
407.7276613
371.3531403
371.4210545
371.5663718
371.7804374
372.0579598
372.3903068
372.7748567
373.2083379
373.6821574
374.1983338
374.7496533
375.3377415
375.9593996
376.614522
377.3022575
378.0221174
378.7737462
379.555768
380.3667205
381.2044897
382.0658764
382.94699
383.8444207
384.755694
385.6790219
386.6129528
387.5560798
388.5069112
389.4639759
390.4258286
391.390907
392.3576225
393.324369
394.2897712
395.252742
396.2123582
397.1678075
398.1182156
399.0628178
400.0010203
400.9320987
401.8554593
402.7704722
403.6766256
404.5734073
405.460289
406.3368206
407.2027114
408.0574985
408.9010899
373.0169926
373.0811618
373.2176019
373.4174938
373.6773428
373.9931923
374.3593379
374.7726435
375.2313637
375.7312072
376.2717211
376.8504571
377.4666535
378.1187422
378.8064003
379.5276963
380.2811686
381.0648498
381.8755457
382.7099344
383.5646773
384.4368888
385.3244406
386.2256404
387.138994
388.0627842
388.9955714
389.9358447
390.8819852
391.832342
392.7852155
393.7390201
394.6924372
395.6443682
396.5938606
397.5400122
398.481947
399.4188748
400.3500871
401.2748302
402.1924692
403.1022423
404.0036287
404.8960923
405.7790627
406.6521262
407.5149378
408.3672101
409.2087755
410.0393242
374.5628363
374.6238666
374.7547033
374.9480531
375.1995538
375.5046742
375.8613509
376.2665471
376.7174273
377.2121776
377.7491784
378.3264685
378.9428853
379.5968055
380.2862277
381.0093032
381.7629792
382.5442902
383.3500409
384.1771059
385.0227473
385.8853995
386.7634599
387.6552286
388.5589935
389.4730876
390.3958798
391.3256457
392.2606547
393.1991328
394.1394906
395.0803835
396.0207747
396.959681
397.8961099
398.8291326
399.75795
400.6817401
401.5997444
402.5112389
403.4155474
404.3120817
405.2002071
406.0791973
406.9486678
407.8082967
408.6578206
409.4970437
410.3258317
411.1440873
376.0282185
376.0881155
376.2164987
376.4062901
376.6537727
376.9557273
377.3094426
377.7124143
378.1620734
378.6572702
379.1951314
379.774735
380.3933319
381.0491461
381.7392564
382.4609027
383.2111097
383.9862287
384.7839914
385.6024899
386.4398139
387.2941762
388.1637567
389.0465147
389.940972
390.8453547
391.757852
392.6766223
393.5999047
394.5261722
395.454122
396.382603
397.3105527
398.2369303
399.1607548
400.0811037
400.9971292
401.908081
402.8131475
403.7116586
404.6029369
405.4863023
406.3611648
407.2270919
408.0835343
408.9301964
409.7669799
410.5937476
411.4103882
412.2168496
377.439633
377.4992576
377.6272054
377.8165994
378.0637525
378.3660587
378.7206006
379.1246853
379.5768549
380.0741629
380.6148059
381.1963193
381.8160147
382.4711196
383.1589407
383.8755915
384.6191093
385.3872623
386.1779159
386.9887891
387.8182836
388.6645297
389.5256659
390.3998614
391.285226
392.179884
393.0817731
393.9892118
394.9007618
395.8151029
396.7310498
397.6474473
398.5631983
399.4773065
400.3888449
401.296872
402.200562
403.0989723
403.9914051
404.8771741
405.7555535
406.6259732
407.4879455
408.3410403
409.1849601
410.01924
410.8438768
411.6587953
412.4639082
413.2591587
378.8147786
378.8746673
379.0032066
379.1936304
379.4426284
379.7468347
380.1035302
380.5104503
380.9649161
381.4642978
382.0062323
382.5874447
383.2056034
383.8569517
384.5393786
385.250595
385.9878677
386.7493544
387.5331866
388.3373088
389.1597042
389.9981767
390.8510498
391.7163697
392.5921504
393.4764623
394.3675742
395.2639738
396.1643008
397.0671953
397.9715314
398.8761769
399.7801195
400.6823215
401.5818282
402.477726
403.3691524
404.2553495
405.1354924
406.0086408
406.8743956
407.7322136
408.5816744
409.4224473
410.2542642
411.0768105
411.8898882
412.6935464
413.4877467
414.2724612
380.1630223
380.2234564
380.3531598
380.5452009
380.7958905
381.1021502
381.4608811
381.8694642
382.3249734
382.8243698
383.364909
383.9435411
384.5574588
385.2046122
385.8818099
386.5874044
387.3192605
388.0750122
388.8523601
389.6496208
390.4647446
391.2956709
392.1403513
392.996468
393.8623334
394.7362552
395.6166993
396.5022679
397.3916311
398.2835129
399.1767052
400.0700412
400.962461
401.8530327
402.7407554
403.6247624
404.5042085
405.3782454
406.246093
407.1070919
407.9605363
408.8061637
409.6436084
410.4725902
411.2928741
412.1042248
412.9063062
413.6993436
414.4832326
415.2578286
381.4879361
381.5487316
381.6791884
381.8722897
382.1242604
382.4312513
382.7905114
383.1990735
383.6531316
384.1507779
384.687962
385.2631915
385.8730471
386.5155565
387.1885445
387.8890541
388.6153639
389.3653362
390.1368199
390.9272852
391.7349874
392.5577856
393.3935878
394.2404678
395.0966163
395.9604127
396.8305658
397.7056522
398.5843373
399.4653921
400.3476638
401.2299942
402.111296
402.9904279
403.8666292
404.738969
405.6065497
406.4685976
407.3244687
408.1735418
409.0151495
409.8490611
410.6750204
411.4927621
412.3020863
413.1027262
413.8944719
414.6774199
415.4513993
416.2162947
382.7883172
382.8492525
382.9799639
383.1732624
383.424654
383.7311157
384.0894758
384.4958093
384.9478845
385.4423692
385.9767817
386.5482149
387.1547075
387.7928911
388.4611781
389.1571758
389.8780776
390.6221637
391.3871968
392.1709704
392.9709129
393.7852091
394.6119925
395.4495099
396.2961406
397.150364
398.0104946
398.8753447
399.7436622
400.6141833
401.4857292
402.3571862
403.2274718
404.0955604
404.9604066
405.8211765
406.6770982
407.5274698
408.3716667
409.2091978
410.0394491
410.8621751
411.6771813
412.4842292
413.2831264
414.0736642
414.8555392
415.628784
416.3932736
417.1488931
384.0613062
384.1220934
384.2521765
384.4444038
384.6948505
385.0000622
385.3563045
385.7605827
386.2102901
386.7018279
387.2333126
387.8013045
388.4038297
389.0382351
389.701867
390.392803
391.1085828
391.846537
392.6047549
393.3809787
394.1730901
394.9788722
395.7967831
396.6251968
397.4624934
398.3071426
399.157685
400.0126199
400.8707771
401.7309654
402.5919822
403.452731
404.3121901
405.1693255
406.0229255
406.8723627
407.7169063
408.5559246
409.3888856
410.2153282
411.0346951
411.8467512
412.6513265
413.4482293
414.2373067
415.0181052
415.7904823
416.5544457
417.3098312
418.056315
385.30444
385.3647966
385.4942211
385.6855671
385.9348434
386.2383878
386.5925834
386.994927
387.4418839
387.9309212
388.4590752
389.0238981
389.6224533
390.2527568
390.9118031
391.59742
392.3073551
393.0389886
393.789982
394.5584658
395.342458
396.140084
396.9493533
397.7688522
398.5969828
399.4322565
400.2732722
401.1185791
401.9667817
402.8167738
403.6674413
404.5176754
405.3663882
406.2125613
407.0552161
407.8935675
408.7270715
409.5551536
410.3773278
411.1931706
412.0021118
412.8039942
413.5986983
414.3860033
415.1656346
415.9370193
416.7003191
417.4553473
418.2019347
418.9396912
386.5183031
386.578383
386.7072119
386.897672
387.1457847
387.4474104
387.7998967
388.2001305
388.6444588
389.1308704
389.655693
390.2170967
390.8116958
391.4374159
392.0916949
392.7716016
393.4751614
394.2000569
394.9437807
395.7045672
396.4805875
397.2699974
398.0709278
398.8816466
399.7008128
400.5269073
401.3584993
402.1942531
403.0326473
403.8726347
404.7130878
405.5528632
406.3909319
407.2264142
408.058292
408.8859062
409.7087629
410.5263486
411.3382006
412.1439335
412.9428742
413.7351484
414.5204699
415.2985322
416.0689519
416.8314305
417.5859611
418.3323829
419.0704623
419.7998051
387.704361
387.7641635
387.8923938
388.08196
388.3284911
388.6286423
388.979356
389.3771435
389.8191085
390.3024991
390.8241669
391.3816724
391.9721999
392.5929927
393.2418135
393.9157624
394.6127432
395.3306694
396.0672964
396.8205249
397.5886865
398.3699611
399.162608
399.9647692
400.7750847
401.5921095
402.4144115
403.2406331
404.0694182
404.8994816
405.7297561
406.5591976
407.3868627
408.2118587
409.0332708
409.850519
410.6631618
411.4706952
412.2726991
413.0686424
413.8582294
414.641332
415.417611
416.1867899
416.9483303
417.7022048
418.4483162
419.1865064
419.9161683
420.6375435
388.8637315
388.9232486
389.05086
389.2393141
389.4844924
389.7831271
390.1320064
390.527324
390.9667226
391.4468564
391.9650858
392.5183806
393.104352
393.7198197
394.3628163
395.0307173
395.7210991
396.4321261
397.1616936
397.9074386
398.6678162
399.4410647
400.225489
401.0192114
401.8207985
402.6288347
403.4419349
404.2587852
405.0779575
405.8981161
406.7183585
407.5376761
408.3551528
409.1700095
409.981262
410.788571
411.5914241
412.3893551
413.181936
413.9686062
414.749228
415.5234837
416.2910747
417.0515868
417.8046249
418.5502612
419.2882836
420.0182463
420.7400358
421.4537322
389.9974831
390.0567039
390.1836079
390.3709016
390.6147775
390.9117617
391.2584124
391.65129
392.0878467
392.5644434
393.0787978
393.6275085
394.2084773
394.8185319
395.4556372
396.1174444
396.8013082
397.5054867
398.2279123
398.9663072
399.7190245
400.4843558
401.2605884
402.0459561
402.838846
403.6380006
404.442011
405.249511
406.0590365
406.8694565
407.6798477
408.4892666
409.2968811
410.1018591
410.9034036
411.7011768
412.4946648
413.2834185
414.0669752
414.8448245
415.6167896
416.3825469
417.1417862
417.8937853
418.6387606
419.3764491
420.1065402
420.8286092
421.5428556
422.249127
391.1064398
391.1653033
391.291321
391.4775363
391.7199592
392.015098
392.3592984
392.7494479
393.1827127
393.6554948
394.1656211
394.7095796
395.2853707
395.8899996
396.5212467
397.1769203
397.8543096
398.5516733
399.2670007
399.9981405
400.7432372
401.5007032
402.2688328
403.0458121
403.8301311
404.6204693
405.4153954
406.2135624
407.0135825
407.8144172
408.6151922
409.4150198
410.2131025
411.008517
411.800774
412.5894146
413.3739645
414.1540349
414.928798
415.6981772
416.4618286
417.21941
417.9702629
418.7143684
419.4515349
420.1815127
420.9037577
421.6184155
422.3253662
423.0242922
400.2799163
401.0037538
401.7413033
402.4909447
403.2509943
404.0196704
404.7954406
405.5769551
406.3628367
407.1518561
407.9424545
408.7339493
409.5253975
410.3159571
411.1047946
411.8910587
412.6744094
413.454343
414.230408
415.001852
415.7683199
416.5295649
417.2851997
418.0346482
418.7776517
419.5140858
420.24369
420.9659863
421.6808984
422.3883867
423.0882141
423.7799454
)
;

boundaryField
{
    front_top
    {
        type            wedge;
    }
    front_middle
    {
        type            wedge;
    }
    front_bottom
    {
        type            wedge;
    }
    back_top
    {
        type            wedge;
    }
    back_middle
    {
        type            wedge;
    }
    back_bottom
    {
        type            wedge;
    }
    axis_top
    {
        type            symmetryPlane;
    }
    axis_middle
    {
        type            symmetryPlane;
    }
    axis_bottom
    {
        type            symmetryPlane;
    }
    wall_top
    {
        type            convectiveRadiativeHeatFlux;
        mode            convectiveRadiative;
        kappaMethod     fluidThermo;
        kappa           none;
        alphaAni        Anialpha;
        h               uniform 165;
        Ta              constant 513.15;
        emissivityNozzle 0.95;
        emissivityFilament 0.95;
        dNozzle         2;
        dFilament       1.65;
        refValue        uniform 513.15;
        refGradient     nonuniform List<scalar> 
23
(
9362.390359
9249.096493
9136.313276
9023.469439
8912.688906
8804.747845
8701.18708
8602.424912
8508.321283
8419.773835
8336.248292
8256.371477
8179.281774
8105.130527
8033.464803
7964.159806
7897.091666
7832.15283
7769.347854
7708.079666
7648.840044
7591.543048
7535.913627
)
;
        valueFraction   nonuniform List<scalar> 
23
(
0.003449851541
0.003436490493
0.003422443957
0.003407506657
0.003392490623
0.003377716766
0.003363808091
0.003350982234
0.003339237774
0.003328977855
0.003320046326
0.003311943792
0.003304356036
0.003297371129
0.003290830886
0.003284706696
0.003278970864
0.003273597818
0.003268605862
0.003263768643
0.003259311121
0.003255216675
0.003251384298
)
;
        value           nonuniform List<scalar> 
23
(
401.7309964
403.100653
404.4257428
405.7083468
406.9504883
408.1540033
409.320542
410.4522087
411.5507641
412.6177714
413.6546719
414.6627774
415.6431334
416.5967949
417.5247208
418.4278192
419.3070363
420.1631481
420.9968227
421.8090565
422.600626
423.3722786
424.1246533
)
;
    }
    wall_middle
    {
        type            fixedValue;
        value           nonuniform 0();
    }
    wall_bottom
    {
        type            fixedValue;
        value           nonuniform 0();
    }
    inlet
    {
        type            fixedValue;
        value           nonuniform 0();
    }
    outlet
    {
        type            zeroGradient;
    }
    procBoundary10to9
    {
        type            processor;
        value           nonuniform List<scalar> 
51
(
392.191033
392.2494439
392.3746458
392.5596238
392.8003767
393.0933893
393.4348797
393.8219875
394.2516261
394.7204659
395.2261314
395.7653398
396.3359451
396.9351383
397.560524
398.2100275
398.8809682
399.5715873
399.5715873
401.2674014
401.983979
402.7139796
403.4558487
404.2079165
404.9682466
405.735452
406.5082081
407.2852089
408.0650522
408.8465801
409.6290081
410.4114466
411.1930738
411.9729011
412.7504793
413.5253466
414.296989
415.0647115
415.8279114
416.5864199
417.339805
418.0875515
418.8291962
419.5646644
420.2936807
421.015814
421.730804
422.4386707
423.139236
423.8318804
424.5169743
)
;
    }
    procBoundary10to11
    {
        type            processor;
        value           nonuniform List<scalar> 
51
(
353.8962471
353.9884585
354.1859647
354.4767243
354.8552319
355.315349
355.8511439
356.4579383
357.1309495
357.8646594
358.6554231
359.4988333
360.3906559
361.3267381
362.3028067
363.3142012
364.354251
365.4134574
366.4816055
367.5494517
368.6095829
369.6570336
370.6893925
371.7065014
372.7101951
373.7043594
374.694694
375.6875111
376.6882598
377.700936
378.7278128
379.7692326
380.8234047
381.886709
384.6560996
384.6560996
385.7101085
386.7620161
387.8110814
388.8563876
389.8970553
390.9320717
391.9603353
392.9806579
393.992033
394.993783
395.9854295
396.9666096
397.93693
398.8960199
399.8436235
)
;
    }
}


// ************************************************************************* //
