/*--------------------------------*- C++ -*----------------------------------*\
  =========                 |
  \\      /  F ield         | OpenFOAM: The Open Source CFD Toolbox
   \\    /   O peration     | Website:  https://openfoam.org
    \\  /    A nd           | Version:  7
     \\/     M anipulation  |
\*---------------------------------------------------------------------------*/
FoamFile
{
    version     2.0;
    format      ascii;
    class       volScalarField;
    location    "0.003";
    object      generalizedNewtonian:nu;
}
// * * * * * * * * * * * * * * * * * * * * * * * * * * * * * * * * * * * * * //

dimensions      [0 2 -1 0 0 0 0];

internalField   nonuniform List<scalar> 
1167
(
15.38253192
15.21713948
14.9410489
14.49232951
13.92316149
13.2414417
12.46064452
11.59701798
10.66878434
9.69730116
8.706862353
7.723648693
6.773710328
5.88016886
5.060610609
4.325635532
3.678951222
15.61644085
15.44597956
15.15558127
14.68951768
14.09831591
13.39158591
12.58375373
11.69291786
10.73895894
9.744396941
8.734488001
7.736091891
6.77533774
5.874851352
5.051394687
4.314690414
3.667715161
3.107965649
2.629143357
2.222947688
1.880394284
1.592608276
1.351384518
1.149403099
0.9802943046
0.8386240648
0.7197918443
0.6199526281
0.5358997532
0.4649720611
0.4049695987
0.35406927
0.310766217
0.2738166867
0.2421902486
0.2150350828
0.1916456388
0.1714346015
0.1539136969
0.1386760074
0.1253815706
0.1137456359
0.1035292682
0.09453125237
0.08658177621
0.07953701887
0.07327504603
0.06769158762
0.06269667352
0.0582098739
15.87248215
15.6963358
15.39012099
14.90492686
14.28951549
13.55528153
12.71798992
11.79736666
10.81523517
9.795573357
8.764709118
7.750053188
6.777716441
5.86979155
5.042166837
4.303636573
3.656381047
3.097191722
2.619339374
2.214290769
1.872891385
1.586189976
1.345952519
1.144839858
0.9764880394
0.8354642724
0.7171808617
0.6178055841
0.534140593
0.4635369585
0.4038026942
0.3531242398
0.3100045453
0.2732053959
0.2417023056
0.2146482468
0.1913416817
0.1711981729
0.1537323324
0.1385395281
0.1252816446
0.1136754489
0.1034832553
0.09450487372
0.08657127288
0.07953933358
0.07328771529
0.0677125899
0.06272436648
0.05824294307
16.15172028
15.96916756
15.64568689
15.13930842
14.49715166
13.73257621
12.86336838
11.91041455
10.89762789
9.8507938
8.797389347
7.765368209
6.780752481
5.864971054
5.032969724
4.292588798
3.645037245
3.086415489
2.609565142
2.205690659
1.865466528
1.579869809
1.340622604
1.140376957
0.9727763531
0.8323914011
0.7146490748
0.6157267994
0.5324397155
0.462150926
0.4026765881
0.3522126728
0.3092699358
0.2726157218
0.2412314559
0.2142749042
0.1910478967
0.170969318
0.1535564582
0.1384068643
0.1251841955
0.1136066828
0.1034378586
0.09447844469
0.08656020625
0.07954069102
0.07329914059
0.06773214153
0.06275046336
0.05827431683
16.45472781
16.26516388
15.92264387
15.39284517
14.72143363
13.92362914
13.0195656
12.03176599
10.98591707
9.909830311
8.832345408
7.781930128
6.784374449
5.860378621
5.023896692
4.281614803
3.633743974
3.075691242
2.599875395
2.197190171
1.858149463
1.573662865
1.335405799
1.136023454
0.9691648276
0.8294080864
0.7121961231
0.6137159471
0.5307965295
0.4608131517
0.4015903862
0.3513338229
0.3085616875
0.272047082
0.2407771941
0.2139144795
0.1907639495
0.1707478027
0.1533859035
0.1382778953
0.1250891446
0.113539295
0.1033930293
0.09445192824
0.08654856101
0.07954111421
0.07330933112
0.06775024969
0.06277497146
0.05830400204
16.78225173
16.58498905
16.22149582
15.66585023
14.96238574
14.12828933
13.18607106
12.16077707
11.0796955
9.97243893
8.869376037
7.799558058
6.78849933
5.856080196
5.015024471
4.270768767
3.622545945
3.065073446
2.590305199
2.188818038
1.850966594
1.567586253
1.330312216
1.131786894
0.9656577363
0.8265166736
0.7098225226
0.6117728823
0.5292112895
0.4595231027
0.4005434773
0.3504873936
0.307879298
0.2714990279
0.240339152
0.2135666439
0.1904896049
0.170533455
0.153220544
0.1381525344
0.1249964413
0.1134732896
0.1033487342
0.09442530963
0.08653632749
0.07954057841
0.0733182838
0.06776691477
0.06279788988
0.05833199572
17.1350477
16.92933291
16.54283156
15.95891399
15.22021075
14.34651473
13.3626818
12.29671576
11.17807294
10.03799265
8.908117616
7.818104449
6.793169473
5.852124791
5.006358964
4.260063938
3.611477578
3.054612167
2.580892023
2.180598635
1.84393969
1.561655513
1.325352306
1.127670426
0.962257287
0.8237197148
0.7075294042
0.6098979274
0.5276833226
0.4582804238
0.3995354243
0.3496725169
0.3072222907
0.2709712111
0.2399171442
0.2132311946
0.1902247054
0.1703261648
0.1530603079
0.1380307408
0.1249060704
0.1134085967
0.1033049528
0.09439858009
0.0865234989
0.07953907649
0.07332599045
0.06778212693
0.06281920687
0.05835828421
17.51376621
17.2985999
16.88682538
16.27198647
15.4947226
14.5780518
13.54910602
12.43907389
11.28024158
10.10565076
8.948014468
7.837292918
6.798188953
5.84836228
4.997823483
4.249480342
3.600560692
3.044319982
2.571653276
2.172551435
1.837077129
1.555877968
1.320533928
1.123679076
0.9589660962
0.8210181754
0.7053173326
0.6080912387
0.5262122258
0.4570847436
0.3985658847
0.3488888701
0.306590375
0.2704634073
0.2395110746
0.2129080153
0.1899691641
0.1701258765
0.152905163
0.1379125027
0.1248180576
0.1133452128
0.1032616768
0.0943717306
0.08651006459
0.07953659542
0.07333243528
0.06779586757
0.06283890107
0.05838284376
17.91915156
17.6933094
17.25388871
16.60495899
15.78548866
14.82197225
13.74462462
12.5873913
11.3857672
10.17491504
8.988552909
7.856681501
6.803234813
5.844600022
4.989326519
4.238995233
3.589812634
3.03421285
2.562598486
2.164694403
1.830391532
1.550260941
1.315862645
1.119816812
0.9557868302
0.8184123191
0.7031864179
0.6063532088
0.5247979333
0.4559359127
0.3976350965
0.3481363981
0.3059834997
0.269975554
0.2391207226
0.2125970608
0.1897229814
0.1699326065
0.1527551352
0.1377978462
0.1247323672
0.1132831436
0.1032189133
0.09434476052
0.08649601546
0.07953311948
0.07333760021
0.06780810987
0.06285694137
0.05840564082
18.35143813
18.11357588
17.64404168
16.95755537
16.09191519
15.07738897
13.94823887
12.74088113
11.49398314
10.2452243
9.029267327
7.875905233
6.808083531
5.840714447
4.980809149
4.228628922
3.579241875
3.024302048
2.553743697
2.157034934
1.823891418
1.544812373
1.311340782
1.116085465
0.95272197
0.815903399
0.7011372796
0.6046844754
0.5234406637
0.4548339936
0.3967428986
0.3474150681
0.3054016667
0.2695076819
0.2387461353
0.2122983859
0.189486217
0.1697464159
0.1526102951
0.1376869018
0.1246490501
0.1132224166
0.1031766775
0.09431767333
0.08648134303
0.07952863006
0.07334146141
0.06781881823
0.06287328582
0.05842662948
18.80931413
18.55814001
18.05584406
17.32814709
16.4125541
15.34296221
14.15815638
12.89809538
11.60395106
10.31587276
9.069625421
7.894611013
6.812489057
5.836560757
4.972252313
4.218369564
3.568840541
3.014584816
2.545102918
2.149580951
1.817581162
1.539540296
1.30697319
1.112487688
0.9497734156
0.8134928175
0.6991707785
0.603084646
0.5221405392
0.45377911
0.3958890852
0.3467248521
0.3048449468
0.2690601759
0.2383874598
0.2120121148
0.1892590047
0.1695674401
0.1524707516
0.1375796802
0.1245681724
0.113163089
0.1031350056
0.09429048376
0.08646604295
0.07952310461
0.07334397492
0.067827947
0.06288788372
0.05844575543
19.29045369
19.02447438
18.48723834
17.71479297
16.74522151
15.61663229
14.37234606
13.05694719
11.71419678
10.38598354
9.109071461
7.91241254
6.816231711
5.832094439
4.963650477
4.208197432
3.55859465
3.005063977
2.536680631
2.14233951
1.811466578
1.534446352
1.302762339
1.109025735
0.9469409901
0.8111807901
0.6972873949
0.6015540664
0.520897777
0.4527716122
0.3950739511
0.3460660539
0.3043135856
0.2686329952
0.2380448875
0.2117384645
0.1890415463
0.1693958764
0.1523367546
0.137476328
0.1244898415
0.1131052417
0.1030939514
0.09426321875
0.08645011641
0.07951652133
0.07334509968
0.06783543995
0.06290066739
0.05846294223
19.79184999
19.50944594
18.93518139
18.11464889
17.08710267
15.89591357
14.58875716
13.21527247
11.82261845
10.45413913
9.146814766
7.928932589
6.819211962
5.827271831
4.954938068
4.198066352
3.548482384
2.995742736
2.528474248
2.135308951
1.805550141
1.529530308
1.298708058
1.105701392
0.9442253432
0.8089675922
0.6954885887
0.6000931805
0.5197127149
0.4518122692
0.3942978791
0.3454390111
0.3038079162
0.2682264301
0.2377187131
0.2114777255
0.1888341195
0.1692319664
0.1522084625
0.1373770195
0.124414205
0.1130489862
0.1030535891
0.09423591622
0.08643356761
0.07950885477
0.07334478625
0.06784123051
0.06291156057
0.05847811105
20.3087899
20.00809896
19.3952065
18.52302916
17.43392092
16.17694471
14.80441343
13.3708867
11.92743044
10.51880663
9.181834985
7.943603948
6.821057655
5.821827225
4.945950719
4.187886548
3.538463744
2.986600098
2.520472077
2.128481018
1.7998317
1.524792496
1.294810616
1.102514988
0.9416272508
0.806853863
0.6937733661
0.5987021912
0.5185856738
0.4509007728
0.3935610732
0.3448440745
0.303328531
0.2678408944
0.2374093269
0.211230279
0.1886370938
0.1690760767
0.1520861515
0.1372820134
0.1243414822
0.1129944952
0.1030140429
0.09420865167
0.08641642538
0.07950009083
0.0733429828
0.06784523499
0.06292045304
0.0584911283
20.83400211
20.51288796
19.86100674
18.93405721
17.78031723
16.45481672
15.01560526
13.52126558
12.02688246
10.57877191
9.213215988
7.955756754
6.821306571
5.815469406
4.936520757
4.177566096
3.528515374
2.977616056
2.512660769
2.121851015
1.794303778
1.520229834
1.291069119
1.099464319
0.939145816
0.804839467
0.6921417963
0.5973811751
0.5175168953
0.450037456
0.3928638963
0.3442816188
0.3028757564
0.267476772
0.2371171179
0.2109965032
0.1884508385
0.168928614
0.1519701357
0.1371915799
0.1242719038
0.112941954
0.1029754473
0.09418150608
0.08639871712
0.07949020714
0.07333962536
0.06784736069
0.06292724062
0.05850189738
21.35659835
21.01254685
20.32234017
19.33856841
18.11888478
16.72357588
15.21746961
13.66304017
12.11870454
10.63251587
9.23998673
7.964756343
6.819576688
5.807975011
4.926509353
4.167043942
3.518581346
2.968751752
2.50501506
2.115412083
1.788959652
1.515836264
1.28748248
1.096547868
0.936779968
0.8029254587
0.6905940369
0.5961304441
0.5165076061
0.4492230497
0.3922070715
0.3437523452
0.3024501162
0.2671347209
0.2368427565
0.2107770509
0.1882759564
0.1687900432
0.1518609239
0.1371061909
0.1242058829
0.1128917093
0.1029380763
0.09415467524
0.08638055706
0.07947923546
0.0733346651
0.06784748169
0.06293172229
0.05851013933
21.85946121
21.49031903
20.76518621
19.72401727
18.43910398
16.97500091
15.40327612
13.79161723
12.20020504
10.67831891
9.260989322
7.969869761
6.81538639
5.799026039
4.915754043
4.156237178
3.508598919
2.959961688
2.497509238
2.109142576
1.78378781
1.511604887
1.284044364
1.093762605
0.9345278708
0.8011089382
0.6891290421
0.5949494438
0.5155568156
0.4484572794
0.3915905807
0.3432565034
0.3020518234
0.2668149821
0.2365865127
0.2105722332
0.1881128708
0.1686606979
0.1517588305
0.1370261494
0.1241437012
0.1128440079
0.1029021282
0.09412829588
0.08636201035
0.07946716635
0.07332802674
0.06784548255
0.06293378856
0.0585158106
22.31693217
21.92211809
21.16994963
20.07431769
18.72752153
17.19855719
15.56503475
13.90051312
12.26696659
10.7135148
9.274545669
7.969955857
6.807973212
5.788171035
4.903988757
4.144936372
3.498418629
2.95114496
2.490084354
2.102998552
1.778757159
1.50751642
1.280740713
1.091099293
0.9323840155
0.7993865885
0.6877449782
0.5938374405
0.5146643204
0.4477404693
0.3910151078
0.3427951663
0.3016819266
0.2665186545
0.2363495111
0.2103831517
0.1879626045
0.1685415955
0.1516648281
0.1369523666
0.1240861973
0.1127996029
0.1028682544
0.09410289834
0.08634346376
0.07945421849
0.07331973512
0.0678411664
0.06293298506
0.05851815056
22.70327424
22.27980508
21.51051973
20.36708093
18.96650679
17.381329
15.69372903
13.98290124
12.31361404
10.73453048
9.278474252
7.963673344
6.796531898
5.774879583
4.890784302
4.132818064
3.487811475
2.942145966
2.482626461
2.096899159
1.773809216
1.503531969
1.277541571
1.088535435
0.9303337438
0.7977463103
0.6864325532
0.5927879763
0.5138247625
0.4470684341
0.3904772959
0.3423653196
0.3013382394
0.2662440454
0.2361304262
0.2102087696
0.187824306
0.1684321457
0.1515785125
0.136884589
0.1240332405
0.1127584573
0.1028364777
0.09407852693
0.0863249438
0.07944037046
0.07330971848
0.0678344627
0.06292937561
0.05851756354
22.94223434
22.50804338
21.7419537
20.56295959
19.12202422
17.49459915
15.7669195
14.02218351
12.32782712
10.73208287
9.266154506
7.946486578
6.777910861
5.756916719
4.874573116
4.118798683
3.47603331
2.93246843
2.474784907
2.090598821
1.768774198
1.499529389
1.274364112
1.086014136
0.9283356513
0.796161045
0.6851738831
0.5917890794
0.5130308767
0.4464370704
0.3899752751
0.3419665064
0.3010212614
0.265992291
0.2359308281
0.2100510492
0.1876999
0.1683342938
0.151501821
0.1368247099
0.1239866527
0.1127222986
0.102808405
0.09405662722
0.08630766811
0.07942650589
0.07329836895
0.06782505553
0.06292165325
0.05851142049
23.1882344
22.71092746
21.94409309
20.72206294
19.23665902
17.56575657
15.80079746
14.02693928
12.31309995
10.70659653
9.236266767
7.916368893
6.749978186
5.73234689
4.853735095
4.101563343
3.462044435
2.921282948
2.465915045
2.083600047
1.76327479
1.495215935
1.270981437
1.083360797
0.9262539641
0.7945247373
0.6838858605
0.590774859
0.5122306185
0.4458050214
0.3894763574
0.341572179
0.3007095394
0.2657460252
0.2357365832
0.2098983339
0.1875800283
0.1682404756
0.1514286626
0.1367678749
0.1239426288
0.112688216
0.102781885
0.09403568415
0.08629064414
0.07941206364
0.07328552846
0.06781330611
0.0629110846
0.05850258964
22.72099733
22.22513001
21.4864391
20.32570956
18.90751831
17.29746098
15.58492976
13.85390913
12.17425001
10.59563432
9.148143146
7.846794471
6.695386908
5.689772497
4.820706798
4.07606386
3.442469329
2.906295819
2.454449307
2.074828414
1.756567125
1.490077662
1.267036955
1.08032897
0.9239166817
0.7927181439
0.6824871028
0.5896893838
0.5113863238
0.4451473844
0.388964197
0.3411727757
0.3003980281
0.2655032969
0.235547892
0.2097521657
0.187467135
0.1681536926
0.1513623567
0.1367175622
0.1239047072
0.1126597535
0.1027604359
0.09401914904
0.08627714298
0.07939984211
0.07327290269
0.06779873122
0.06289333161
0.05848090979
22.44747456
22.0801556
21.37681155
20.13351875
18.64486178
16.99830774
15.28208947
13.57181578
11.92594977
10.38604837
8.976989609
7.710531803
6.588973969
5.607878729
4.758386037
4.029064334
3.407225324
2.879945941
2.434773124
2.060142872
1.745595398
1.48185892
1.260861416
1.075675364
0.9203947031
0.7900413118
0.6804458674
0.5881258421
0.5101839841
0.4442197846
0.3882470367
0.3406166138
0.2999658624
0.2651671783
0.2352866998
0.2095492069
0.1873097058
0.168031967
0.1512686798
0.1366459159
0.1238503179
0.1126187833
0.1027297202
0.09399599272
0.08625914819
0.07938479794
0.07325875093
0.06778372366
0.06287649314
0.05846268231
24.67662751
23.61607186
22.43401301
20.83805619
19.05747327
17.19417096
15.33474638
13.54109294
11.85396999
10.29899731
8.890091216
7.631698347
6.521404858
5.552092028
4.713541426
3.993673041
3.379636521
2.85862135
2.418390884
2.047621409
1.736042446
1.474573911
1.255308168
1.071438085
0.9171556655
0.7875608503
0.6785445032
0.5866645683
0.5090589337
0.4433532786
0.3875784677
0.3401003969
0.299567321
0.2648598708
0.2350505583
0.2093682039
0.187171663
0.1679274614
0.1511903749
0.1365880586
0.1238083727
0.1125891436
0.1027094553
0.09398262794
0.08625039963
0.07937818705
0.07325089558
0.06776918298
0.06284670419
0.05840774071
)
;

boundaryField
{
    front_top
    {
        type            wedge;
    }
    front_middle
    {
        type            wedge;
    }
    front_bottom
    {
        type            wedge;
    }
    back_top
    {
        type            wedge;
    }
    back_middle
    {
        type            wedge;
    }
    back_bottom
    {
        type            wedge;
    }
    axis_top
    {
        type            symmetryPlane;
    }
    axis_middle
    {
        type            symmetryPlane;
    }
    axis_bottom
    {
        type            symmetryPlane;
    }
    wall_top
    {
        type            calculated;
        value           nonuniform 0();
    }
    wall_middle
    {
        type            calculated;
        value           nonuniform 0();
    }
    wall_bottom
    {
        type            calculated;
        value           nonuniform List<scalar> 
23
(
0.05616709684
0.05620237053
0.05623591434
0.05626773466
0.05629782747
0.05632617828
0.05635276232
0.05637754521
0.05640047958
0.05642151004
0.0564405567
0.05645754109
0.05647231957
0.05648480334
0.05649467703
0.05650194165
0.05650568605
0.05650652239
0.05650114753
0.05649334331
0.0564698602
0.05645134853
0.05638284436
)
;
    }
    inlet
    {
        type            calculated;
        value           nonuniform 0();
    }
    outlet
    {
        type            calculated;
        value           nonuniform List<scalar> 
50
(
25.02751252
23.96405636
22.76393395
21.12796407
19.302734
17.39377728
15.49173718
13.66088869
11.94307154
10.36377409
8.936191808
7.663889522
6.543508534
5.567046332
4.723527797
4.000262105
3.383938586
2.86140746
2.420183914
2.048769481
1.736774775
1.475040622
1.255606332
1.071629505
0.9172797009
0.7876425147
0.6785994114
0.5867024855
0.5090859835
0.443373254
0.3875936946
0.3401123229
0.2995768606
0.264867604
0.235056856
0.2093733163
0.1871757688
0.1679306959
0.151192847
0.1365898616
0.1238095906
0.1125898546
0.1027097356
0.09398255356
0.08625004995
0.07937764811
0.07325026791
0.06776859492
0.06284630672
0.05840760616
)
;
    }
    procBoundary0to1
    {
        type            processor;
        value           nonuniform List<scalar> 
51
(
15.16982383
15.00897322
14.74579102
14.31295685
13.76376486
13.10495789
12.34868331
11.50955042
10.60467953
9.654478965
8.682109716
7.712982692
6.773007467
5.88580521
5.069789433
4.336388589
3.689996387
3.118667394
3.118667394
2.638912208
2.231619212
1.887946162
1.599099073
1.356901591
1.154056403
0.9841918105
0.8418688787
0.7224799555
0.622167701
0.5377177848
0.4664577622
0.4061784422
0.3550487986
0.3115559682
0.27445046
0.2426959675
0.2154357618
0.1919601731
0.1716789307
0.1541007914
0.1388164707
0.1254840869
0.1138173096
0.1035759059
0.09455760615
0.0865917286
0.07953374056
0.07326111859
0.06766911656
0.06266736472
0.05817508933
)
;
    }
}


// ************************************************************************* //
