/*--------------------------------*- C++ -*----------------------------------*\
  =========                 |
  \\      /  F ield         | OpenFOAM: The Open Source CFD Toolbox
   \\    /   O peration     | Website:  https://openfoam.org
    \\  /    A nd           | Version:  7
     \\/     M anipulation  |
\*---------------------------------------------------------------------------*/
FoamFile
{
    version     2.0;
    format      ascii;
    class       volScalarField;
    location    "0.003";
    object      rho;
}
// * * * * * * * * * * * * * * * * * * * * * * * * * * * * * * * * * * * * * //

dimensions      [1 -3 0 0 0 0 0];

internalField   nonuniform List<scalar> 
1167
(
933.9265883
933.8540231
933.698508
933.4688115
933.1702833
932.8071853
932.3841368
931.9050371
931.373947
930.7947893
930.1713094
929.5072315
928.8061585
928.0715747
927.3068645
926.5153232
925.7001717
933.8082599
933.7357459
933.5803433
933.3509243
933.0526615
932.689987
932.2673456
931.7888487
931.2584651
930.6801132
930.0575709
929.394571
928.6947254
927.9615292
927.1983771
926.408574
925.5954166
924.7621519
923.9116955
923.0470408
922.1712559
921.286913
920.3967956
919.5034799
918.6093071
917.7167888
916.8278593
915.9447139
915.0691898
914.2029528
913.3477857
912.5049734
911.6758581
910.8616746
910.063268
909.2815071
908.5172642
907.7710139
907.0432066
906.334181
905.6441636
904.9732455
904.3214662
903.6887217
903.0748349
902.4794617
901.9023043
901.3428673
900.8007079
900.2752354
933.6900544
933.6175953
933.4623132
933.2332092
932.935202
932.5729862
932.1507571
931.6728887
931.1432403
930.565726
929.9441559
929.2822707
928.5836899
927.8519195
927.0903642
926.30234
925.4912493
924.6601326
923.8120135
922.9499793
922.0768974
921.1954366
920.3084345
919.4182949
918.5275123
917.6384074
916.7529899
915.8734942
915.0016018
914.1390887
913.2875941
912.4484596
911.6230495
910.8124829
910.0176479
909.2394049
908.4786525
907.7357815
907.011276
906.305472
905.6185914
904.950724
904.3019102
903.6720544
903.0609572
902.4682816
901.8937481
901.3368525
900.7971562
900.2740696
933.5719766
933.4995762
933.3445336
933.1156456
932.81791
932.4561715
932.0344867
931.557163
931.0282787
930.4516337
929.8310701
929.1703355
928.4730566
927.7427498
926.9828288
926.196722
925.3876298
924.5586925
923.7129596
922.8535457
921.983183
921.1046864
920.2207399
919.3337762
918.4463772
917.5606752
916.678812
915.8028844
914.9346007
914.0757844
913.227933
912.3924451
911.5707072
910.7637245
909.9724279
909.1977063
908.4403756
907.7008527
906.9796189
906.2770075
905.5932361
904.9283928
904.2825315
903.6555335
903.0472006
902.4571949
901.8852631
901.3308877
900.7936339
900.2729135
933.4540316
933.3817636
933.2269172
932.9982395
932.7008903
932.339548
931.9184431
931.4417274
930.9135857
930.337842
929.7183188
929.0587706
928.3628305
927.6340248
926.8758469
926.0916173
925.2845571
924.4578292
923.6145797
922.7577351
921.8901077
921.0146003
920.1337026
919.2499374
918.3658924
917.4835823
916.6052657
915.7328757
914.8681775
914.0130313
913.1687949
912.3369325
911.518825
910.7153942
909.927604
909.1563775
908.4024313
907.666226
906.9482343
906.248787
905.5680973
904.9062553
904.2633236
903.6391521
903.0335599
902.4462133
901.8768494
901.3249731
900.7901413
900.2717672
933.336344
933.2641519
933.1094508
932.8809959
932.5840771
932.2231216
931.8026199
931.3266137
930.7992035
930.224356
929.6059071
928.9475805
928.2530154
927.5258167
926.7693791
925.9870264
925.1820303
924.3575595
923.5167986
922.6625438
921.797687
920.9251568
920.0473135
919.1668052
918.2860487
917.4071193
916.532333
915.6634614
914.8023723
913.9508213
913.1101731
912.2819473
911.4673966
910.6674873
909.8831725
909.1154098
908.3648176
907.6319
906.9171215
906.2208101
905.5431748
904.8843264
904.2442802
903.6229108
903.0200356
902.4353253
901.8685076
901.3191089
900.7866785
900.2706306
933.2188086
933.1466869
932.9921397
932.7639504
932.4674469
932.1069314
931.6870222
931.211751
930.6851778
930.1112594
929.4938855
928.8368237
928.1437158
927.4180957
926.6633938
925.8829501
925.0800485
924.2579421
923.4196139
922.56797
921.7059682
920.8363464
919.9615635
919.084311
918.2068371
917.3313193
916.4600056
915.5946333
914.7371429
913.8891477
913.0520609
912.2274421
911.4164182
910.6200002
909.8391454
909.0748009
908.327533
907.5978739
906.8862798
906.1930766
905.5184751
904.8625876
904.2254018
903.60681
903.0066284
902.4245314
901.8602378
901.3132955
900.7832457
900.2695039
933.1014212
933.029374
932.8749894
932.6471751
932.3510045
931.9910368
931.571655
931.0971444
930.5714368
929.9985186
929.3822851
928.7265103
928.0348435
927.310825
926.5578922
925.7793896
924.9786505
924.1588938
923.3230215
922.4740067
921.6148708
920.7481642
919.8764747
919.0024465
918.128249
917.2561638
916.3882753
915.5263834
914.6724689
913.8280046
912.9944525
912.1734121
911.3658861
910.5729298
909.7955327
909.0345492
908.2905763
907.5641468
906.8557091
906.1655864
905.4940093
904.8410394
904.2066887
903.5908502
902.9933385
902.413832
901.8520405
901.307533
900.779843
900.2683871
932.9841871
932.9122184
932.7580419
932.5305772
932.2347554
931.8753551
931.4565571
930.9827988
930.4579854
929.8860982
929.2710375
928.6165823
927.9263897
927.2040063
926.4528753
925.676345
924.8778551
924.0604103
923.2270148
922.3807187
921.5243904
920.6606049
919.7920604
918.9212043
918.0502766
917.1816126
916.3171343
915.4587275
914.6083437
913.7673863
912.9373789
912.1198533
911.3157968
910.5262735
909.7523048
908.9946533
908.2539465
907.5307184
906.8254091
906.1383425
905.4697603
904.8196822
904.1881415
903.575032
902.9801666
902.4032277
901.8439185
901.3018217
900.7764705
900.2672802
932.8671117
932.7952256
932.6413561
932.4141616
932.1187263
931.7598921
931.341792
930.8687185
930.344828
929.7740021
929.1601458
928.5070427
927.8183567
927.0976409
926.3483432
925.5739055
924.7775993
923.9624889
923.1315898
922.2880456
921.4345206
920.5736625
919.7082641
918.8405773
917.9729437
917.1076583
916.2465755
915.3916782
914.5447613
913.7072876
912.8808214
912.066762
911.2661476
910.4800291
909.7094599
908.9551119
908.2176432
907.4975885
906.7953802
906.1113671
905.4457289
904.7985167
904.1697611
903.5593561
902.9671133
902.392719
901.835875
901.296162
900.7731285
900.2661833
932.7502462
932.6785249
932.5248456
932.2979334
932.0030009
931.6446523
931.2272719
930.7549898
930.2319687
929.6622341
929.0496133
928.3978939
927.7107466
926.9917298
926.2443561
925.4719937
924.6778814
923.8651283
923.0368043
922.1959651
921.3452559
920.4873885
919.6250778
918.7605582
917.8962527
917.0342939
916.1765924
915.3251865
914.4817163
913.6477037
912.8247539
912.0141349
911.2169357
910.4342357
909.666997
908.9159246
908.1816661
907.4647572
906.7656227
906.0846362
905.4219157
904.7775438
904.1515482
903.5438233
902.9541793
902.3823064
901.8279052
901.2905542
900.7698171
900.2650965
932.633632
932.5620003
932.4085154
932.1818979
931.8874839
931.5296403
931.1130017
930.6415682
930.1194816
929.5507977
928.939443
928.2891387
927.6035619
926.8863367
926.1408945
925.3705925
924.5786992
923.7683257
922.9426303
922.1044722
921.25659
920.4017484
919.542495
918.6811402
917.8201556
916.961513
916.1071837
915.2592468
914.4192036
913.5886398
912.7691727
911.9619691
911.1681592
910.3888539
909.6249151
908.8770911
908.1460156
907.4322256
906.7361592
906.0581502
905.3983215
904.7567646
904.1335039
903.5284347
902.9413657
902.3719909
901.8200097
901.2849988
900.7665367
900.2640198
932.5171914
932.4456529
932.2923705
932.0661364
931.7721806
931.4149399
930.9989853
930.5284254
930.0073483
929.4397987
928.8296997
928.1808419
927.4969017
926.7814402
926.0379147
925.2697001
924.4800501
923.6721371
922.8490265
922.0135623
921.1685276
920.3167059
919.4605109
918.6023534
917.7446453
916.8893091
916.0384011
915.1938538
914.3572187
913.5301274
912.7140747
911.9102622
911.1198162
910.3438793
909.583214
908.8386116
908.1106923
907.3999944
906.7069767
906.0319106
905.3749479
904.7361803
904.1156296
903.5131915
902.9286734
902.3617733
901.8121894
901.2794962
900.7632876
900.2629534
932.4009292
932.3294877
932.1764161
931.9506223
931.657096
931.3005226
930.885227
930.4155655
929.8955249
929.3291529
928.7203762
928.0729905
927.3906759
926.6769982
925.9354166
925.1693149
924.381931
923.5765286
922.755988
921.9232295
921.0811203
920.2322574
919.3791212
918.5241966
917.6697159
916.8176764
915.9701763
915.1290028
914.2957576
913.4721181
912.6594577
911.859013
911.0719322
910.2993106
909.5418932
908.8004863
908.0756969
907.3680717
906.6780689
906.0059195
905.3517968
904.7157931
904.0979271
903.4980953
902.916104
902.3516548
901.8044451
901.2740473
900.7600701
900.2618975
932.2848503
932.2135096
932.0607391
931.8353155
931.5422343
931.1863465
930.771796
930.3029926
929.7840149
929.2188482
928.611422
927.9655369
927.2848767
926.5730107
925.8333992
925.0694348
924.2844307
923.4814659
922.6635108
921.8334699
920.9942951
920.1483964
919.2983195
918.4466234
917.5953628
916.7466102
915.9025049
915.0646899
914.2348169
913.4146091
912.6053197
911.8082204
911.0244995
910.2551478
909.5009532
908.7627161
908.0410308
907.3364757
906.6494381
905.9801793
905.3288708
904.6956053
904.0803989
903.4831485
902.9036594
902.3416372
901.7967781
901.2686528
900.7568849
900.2608521
932.1689596
932.0977668
931.9453013
931.7202211
931.4276652
931.0724157
930.6586804
930.1907104
929.6728213
929.1088871
928.5028391
927.8584826
927.1795047
926.4694776
925.7318625
924.9701065
924.1874591
923.3869465
922.571594
921.7443557
920.9080441
920.065116
919.2181542
918.3696292
917.5215831
916.6761684
915.8353813
915.0009109
914.1744436
913.3575981
912.551659
911.7578829
910.977498
910.2113919
909.4603953
908.7253029
908.0066961
907.3051851
906.6210869
905.954693
905.306173
904.67562
904.0630478
903.4683538
902.8913422
902.3317225
901.7891902
901.2633141
900.7537326
900.2598175
932.0533519
931.9822988
931.8300685
931.6053438
931.3133879
930.9587341
930.5458352
930.0788346
929.5619471
928.9992717
928.3946292
927.7518288
927.0745604
926.3663989
925.6308377
924.8713299
924.0910085
923.292967
922.4802328
921.6558219
920.8223633
919.9824109
919.1385897
918.293209
917.4483717
916.6062881
915.7688029
914.9376629
914.1145934
913.3010833
912.4984746
911.7080146
910.9309284
910.1680445
909.4202218
908.6882494
907.9727176
907.2742036
906.5930193
905.9294647
905.2837076
904.6558416
904.0458778
903.4537148
902.8791555
902.3219135
901.7816835
901.2580327
900.7506143
900.2587941
931.9379734
931.8670324
931.7150454
931.490688
931.1993464
930.8453061
930.4332643
929.9672605
929.4514845
928.8900045
928.2867939
927.6455764
926.9700443
926.2638152
925.5303634
924.7730525
923.9950761
923.1995224
922.389485
921.5678496
920.7372501
919.9002844
919.0595968
918.2173582
917.3757238
916.5369621
915.7027671
914.8749438
914.0552559
913.2450636
912.4457661
911.6586354
910.8847921
910.1251077
909.3804355
908.651559
907.9390902
907.2435356
906.5652401
905.9044995
905.2614796
904.6362749
904.028894
903.4392361
902.8671035
902.3122138
901.7742609
901.2528108
900.7475311
900.2577822
931.8227978
931.7519726
931.6002372
931.3763794
931.0855446
930.7322399
930.3209713
929.8559871
929.3413735
928.7811999
928.1793986
927.5397823
926.8660393
926.1617433
925.4303643
924.6752715
923.899659
923.1066092
922.2993053
921.4804342
920.6527004
919.8187944
918.9811714
918.1420724
917.3037048
916.4681875
915.6372727
914.8127901
913.9964291
913.1895385
912.393534
911.6097124
910.8390914
910.0825848
909.3410404
908.6152366
907.9058067
907.2131873
906.5377559
905.8798042
905.2394963
904.6169272
904.0121032
903.4249243
902.8551921
902.3026284
901.7669265
901.2476511
900.7444847
900.2567825
931.7078298
931.6371243
931.4856501
931.2623043
930.9719866
930.6194438
930.2089598
929.7450174
929.2315899
928.672748
928.0724267
927.4344406
926.762481
926.0601211
925.3308379
924.5779845
923.8047553
923.0143079
922.2096649
921.3935696
920.5687091
919.737866
918.9033084
918.067347
917.2322425
916.3999606
915.5723162
914.7511804
913.9381115
913.1345069
912.341783
911.5612463
910.7938279
910.0404784
909.3020407
908.5793176
907.8728709
907.1831634
906.5105722
905.8553849
905.2177639
904.5978049
903.9955117
903.4107855
902.843427
902.2931622
901.7596843
901.2425569
900.7414772
900.2557955
931.5930745
931.5224924
931.3714097
931.1484629
930.8586763
930.5069123
930.0973254
929.6343532
929.1221348
928.5646481
927.965831
927.3294996
926.6593471
925.9589461
925.2317805
924.4811868
923.7103831
922.9225396
922.1205583
921.3072498
920.4853288
919.6574905
918.8260002
917.9931869
917.1613284
916.332275
915.5078916
914.6900904
913.8803
913.0799669
912.2905486
911.513235
910.749001
909.9987894
909.2634377
908.5437749
907.8402874
907.1534689
906.4836945
905.8312476
905.1962889
904.5789146
903.9791264
903.3968262
902.8318141
902.2838205
901.7525385
901.237531
900.7385102
900.2548219
931.4785462
931.4081677
931.2573963
931.0348585
930.7457074
930.3946476
929.9860001
929.5240089
929.0130073
928.4568984
927.8596086
927.224955
926.5566321
925.8582115
925.133184
924.3848688
923.6165719
922.831281
922.0319728
921.2214603
920.4025088
919.5776518
918.7492292
917.9196188
917.0909442
916.2651118
915.4440172
914.6295005
913.8229749
913.0258978
912.239767
911.4656578
910.7045888
909.9574945
909.2252159
908.5085823
907.8080308
907.1240778
906.4570965
905.8073661
905.1750457
904.5602324
903.9629255
903.3830281
902.8203392
902.2745933
901.7454829
901.2325744
900.7355826
900.2538613
931.3643126
931.2940635
931.1435713
930.9214527
930.6329725
930.2826106
929.8749204
929.4140313
928.9041668
928.3494576
927.7537174
927.1207637
926.454292
925.7578723
925.0350014
924.2890679
923.5232042
922.7404763
921.9438477
921.1361751
920.3201532
919.4982722
918.6729088
917.8464883
917.0209813
916.1983499
915.380545
914.5692613
913.765971
912.9721185
912.1892407
911.4183016
910.6603632
909.9163527
909.1871455
908.4734823
907.7758422
907.0947355
906.4305338
905.7835133
905.1538315
904.5415856
903.9467713
903.36929
902.8089369
902.2654466
901.7385078
901.2276886
900.7327023
900.2529175
931.2221741
931.1520883
931.0019494
930.7804174
930.4927281
930.1432945
929.736768
929.2772705
928.7689654
928.2159192
927.6221036
926.9912888
926.3271446
925.6332696
924.9131815
924.1701417
923.4073256
922.6278187
921.8345598
921.0305074
920.2181325
919.4000065
918.578567
917.7561222
916.9346356
916.1160762
915.3024639
914.4953149
913.696174
912.9065359
912.1277859
911.3609487
910.6070721
909.8670722
909.1418622
908.4320728
907.7382284
907.0608254
906.4002267
905.7566953
905.1303766
904.521356
903.9296126
903.3550334
902.7973976
902.2564306
901.7318121
901.2231143
900.7300616
900.2520636
)
;

boundaryField
{
    front_top
    {
        type            wedge;
    }
    front_middle
    {
        type            wedge;
    }
    front_bottom
    {
        type            wedge;
    }
    back_top
    {
        type            wedge;
    }
    back_middle
    {
        type            wedge;
    }
    back_bottom
    {
        type            wedge;
    }
    axis_top
    {
        type            symmetryPlane;
    }
    axis_middle
    {
        type            symmetryPlane;
    }
    axis_bottom
    {
        type            symmetryPlane;
    }
    wall_top
    {
        type            calculated;
        value           nonuniform 0();
    }
    wall_middle
    {
        type            calculated;
        value           nonuniform 0();
    }
    wall_bottom
    {
        type            calculated;
        value           uniform 900.0184441;
    }
    inlet
    {
        type            calculated;
        value           nonuniform 0();
    }
    outlet
    {
        type            calculated;
        value           nonuniform List<scalar> 
50
(
931.2221741
931.1520883
931.0019494
930.7804174
930.4927281
930.1432945
929.736768
929.2772705
928.7689654
928.2159192
927.6221036
926.9912888
926.3271446
925.6332696
924.9131815
924.1701417
923.4073256
922.6278187
921.8345598
921.0305074
920.2181325
919.4000065
918.578567
917.7561222
916.9346356
916.1160762
915.3024639
914.4953149
913.696174
912.9065359
912.1277859
911.3609487
910.6070721
909.8670722
909.1418622
908.4320728
907.7382284
907.0608254
906.4002267
905.7566953
905.1303766
904.521356
903.9296126
903.3550334
902.7973976
902.2564306
901.7318121
901.2231143
900.7300616
900.2520636
)
;
    }
    procBoundary0to1
    {
        type            processor;
        value           nonuniform List<scalar> 
51
(
934.0450347
933.9724219
933.8168022
933.5869438
933.2880621
932.9246704
932.5011246
932.0214483
931.4896824
930.9098209
930.2854686
929.6203336
928.9180143
928.1820511
927.415823
926.6225828
925.8055431
924.8647519
924.8647519
924.011988
923.1447862
922.2662656
921.3790555
920.4858302
919.5893404
918.6918223
917.7958273
916.9033712
916.0165555
915.1373756
914.2674271
913.4085166
912.561994
911.7291457
910.911305
910.1092927
909.32398
908.5562134
907.8065518
907.0754117
906.3631352
905.6699526
904.9959569
904.3411864
903.7055392
903.0888364
902.4907346
901.9109316
901.348932
900.8042892
900.2764109
)
;
    }
}


// ************************************************************************* //
