/*--------------------------------*- C++ -*----------------------------------*\
  =========                 |
  \\      /  F ield         | OpenFOAM: The Open Source CFD Toolbox
   \\    /   O peration     | Website:  https://openfoam.org
    \\  /    A nd           | Version:  7
     \\/     M anipulation  |
\*---------------------------------------------------------------------------*/
FoamFile
{
    version     2.0;
    format      ascii;
    class       volScalarField;
    location    "0.003";
    object      thermo:mu;
}
// * * * * * * * * * * * * * * * * * * * * * * * * * * * * * * * * * * * * * //

dimensions      [1 -1 -1 0 0 0 0];

internalField   nonuniform List<scalar> 
1167
(
45946.25897
45575.81399
44793.5334
43666.45817
42250.52834
40599.68855
38770.04264
36812.69453
34775.98458
32702.91254
30630.34977
28589.33064
26604.77107
24695.8519
22876.60971
21156.58731
19541.52036
45343.9774
44979.41981
44209.55502
43100.82354
41707.35262
40082.943
38281.95265
36355.49689
34350.67111
32309.7207
30269.00174
28259.0466
26304.37938
24423.89558
22631.4334
20936.41325
19344.63648
17858.79201
16478.61091
15202.18263
14026.31661
12946.20589
11956.75968
11052.31861
10226.91378
9474.819606
8790.030736
8167.078668
7600.59133
7085.506875
6617.252734
6191.400668
5803.985605
5451.387537
5130.202761
4837.40866
4570.311708
4326.383072
4103.375879
3899.267037
3712.234361
3540.630552
3382.985324
3237.963965
3104.368773
2981.104305
2867.208683
2761.790423
2664.066919
2573.315604
44751.4588
44392.69702
43635.05502
42544.49425
41173.01233
39574.684
37801.8281
35905.77815
33932.33402
31923.00059
29913.62569
27934.24544
26008.99609
24156.49357
22390.38155
20719.9641
19151.16188
17686.24633
16325.19642
15066.29251
13906.13701
12840.17921
11863.49811
10970.37209
10155.11599
9411.955321
8735.081529
8119.164861
7558.834504
7049.202789
6585.705131
6164.033099
5780.30528
5430.916231
5112.544064
4822.215777
4557.292587
4315.257691
4093.912086
3891.262664
3705.512716
3535.037686
3378.387449
3234.246312
3101.426354
2978.846718
2865.560141
2760.682714
2663.440632
2573.118464
44168.54268
43815.4867
43070.40426
41997.19584
40647.36124
39074.69846
37329.98068
35463.41528
33520.85839
31542.64503
29564.12077
27614.83225
25718.53322
23893.56434
22153.37769
20507.36679
18960.95425
17516.61909
16174.4099
14932.6956
13787.97735
12736.0053
11771.78837
10889.77567
10084.48607
9350.099353
8681.041377
8071.990588
7517.709246
7013.435219
6554.612272
6137.04954
5756.947777
5410.715811
5095.111943
4807.224793
4544.430208
4304.262037
4084.5552
3883.345943
3698.862493
3529.502556
3373.838685
3230.566388
3098.512906
2976.610011
2863.926436
2759.584744
2662.81973
2572.922982
43595.07151
43247.96693
42514.99366
41458.78248
40130.69335
38582.84876
36865.87615
35028.4732
33116.1288
31168.5468
29220.38678
27300.7136
25432.90451
23635.02953
21920.50506
20298.33763
18773.94685
17349.84883
16026.26862
14801.34123
13671.79312
12633.57876
11681.59316
10810.51861
10014.99624
9289.227442
8627.852535
8025.538996
7477.201071
6978.19216
6523.964435
6110.446686
5733.906726
5390.781352
5077.902651
4792.421784
4531.722515
4293.394643
4075.304202
3875.516186
3692.283234
3524.02573
3369.337275
3226.922528
3095.627283
2974.396486
2862.307596
2758.496538
2662.204228
2572.729166
43031.45924
42689.91864
41968.58445
40929.10785
39622.54068
38099.00229
36409.3393
34600.92095
32718.15895
30800.5992
28882.32423
26991.79684
25152.02354
23380.96912
21691.59418
20092.80671
18590.07439
17185.9065
15880.60822
14672.18156
13557.56656
12532.84343
11592.87607
10732.60235
9946.619485
9229.316402
8575.488928
7979.795008
7437.325531
6943.461963
6493.752632
6084.232051
5711.175821
5371.108086
5060.912609
4777.801963
4519.167575
4282.65413
4066.158132
3867.772737
3685.774495
3518.610591
3364.881566
3223.314712
3092.769498
2972.20381
2860.703655
2757.418128
2661.594149
2572.537022
42477.01109
42140.90415
41431.02942
40408.16237
39122.63726
37623.16442
35960.2429
34180.3497
32326.96903
30438.94708
28549.97002
26688.13797
24876.05775
23131.22283
21466.49817
19890.70624
18409.27366
17024.83102
15737.37741
14545.17231
13445.31841
12433.75789
11505.60148
10655.93991
9879.329631
9170.37641
8523.931984
7934.742881
7398.048245
6909.234189
6463.967818
6058.378563
5688.749914
5351.691833
5044.144262
4763.362898
4506.763602
4272.039221
4057.1161
3860.114998
3679.337517
3513.252288
3360.471446
3219.742907
3089.939564
2970.032013
2859.114651
2756.349544
2660.989513
2572.346559
41931.53316
41600.77623
40902.18479
39896.08938
38630.84527
37155.41499
35518.462
33766.64236
31942.17924
30083.35518
28223.2984
26389.65633
24604.68567
22885.61892
21245.14368
19691.9702
18231.55182
16866.43241
15596.52346
14420.26366
13334.91403
12336.28687
11419.76641
10580.50231
9813.10162
9112.377724
8473.163617
7890.367308
7359.348689
6875.498965
6434.601825
6032.879772
5666.624033
5332.528717
5027.599232
4749.102357
4494.508958
4261.548747
4048.177301
3852.542436
3672.97484
3507.950638
3356.10683
3216.207093
3087.137496
2967.881129
2857.540621
2755.29082
2660.390343
2572.157783
41394.8792
41069.38991
40382.06995
39392.31086
38147.03146
36695.26334
35083.99982
33359.68239
31563.68056
29733.59256
27901.99666
26096.09248
24337.79423
22644.07914
21027.45867
19496.53292
18056.88012
16710.65208
15457.99151
14297.50114
13226.31424
12240.39581
11335.35872
10506.26208
9747.91156
9055.274557
8423.166501
7846.66877
7321.215055
6842.246752
6405.665126
6007.72962
5644.793448
5313.615095
5011.264194
4735.01827
4482.402137
4251.181645
4039.341011
3845.055305
3666.681614
3502.705493
3351.78766
3212.707267
3084.363323
2965.751202
2855.982082
2754.241994
2659.796664
2571.970705
40866.90578
40546.60311
39870.77043
38896.68906
37671.1516
36242.5853
34656.94604
32959.35329
31191.36402
29389.55654
27585.96787
25807.35664
24075.30063
22406.52612
20813.37092
19304.49563
17885.09028
16557.43566
15321.73204
14176.76522
13119.47855
12146.05002
11252.29735
10433.19274
9683.762282
8999.047374
8373.924127
7803.645436
7283.636098
6809.46844
6377.143007
5982.922361
5623.253681
5294.947531
4995.13656
4721.108724
4470.441762
4240.936955
4030.60659
3837.659206
3660.457619
3497.51675
3347.513912
3209.243454
3081.617097
2963.642289
2854.439619
2753.203109
2659.208504
2571.785333
40347.67349
40032.81689
39367.73802
38409.08959
37203.38722
35797.2542
34236.83034
32565.82259
30825.12233
29051.14564
27275.11668
25523.36006
23817.12247
22172.88321
20602.93069
19115.64675
17716.1236
16406.73198
15187.78317
14057.98944
13014.36842
12053.2773
11170.55139
10361.26819
9620.638817
8943.677405
8325.420735
7761.256468
7246.601091
6777.155354
6349.017267
5958.452531
5602.000486
5276.539236
4979.213929
4707.371965
4458.626589
4230.81383
4021.973493
3830.346992
3654.302686
3492.384353
3343.285603
3205.815713
3078.898893
2961.554471
2852.912285
2752.174221
2658.625897
2571.60168
39837.19139
39527.34694
38872.83624
37929.37976
36743.19569
35359.14568
33823.5349
32178.8005
30465.07166
28718.26001
26969.34965
25244.01606
23563.18067
21943.21159
20396.02594
18929.89271
17549.92219
16258.48894
15056.0619
13941.13164
12910.94561
11962.01273
11090.09202
10290.4634
9558.485471
8889.146598
8277.644531
7719.489379
7210.099809
6745.304319
6321.281337
5934.314974
5581.029892
5258.371838
4963.494092
4693.806439
4446.955597
4220.811698
4013.447567
3823.118283
3648.216646
3487.308269
3339.102778
3202.424131
3076.208816
2959.48785
2851.400168
2751.155396
2658.048885
2571.41976
39334.95074
39030.03923
38385.93102
37457.73859
36290.45251
34928.43271
33416.9419
31798.06389
30111.0288
28391.10126
26668.74323
24969.39661
23313.62232
21717.38485
20192.50061
18747.17035
17386.42852
16112.74434
14926.46909
13826.15098
12809.18529
11872.19172
11010.89298
10220.7866
9497.281186
8835.437393
8230.620162
7678.332225
7174.122504
6713.926402
6293.929022
5910.504852
5560.338192
5240.441184
4947.975028
4680.410721
4435.427818
4210.9299
4005.024348
3815.972997
3642.199509
3482.28858
3334.965569
3199.068862
3073.547022
2957.442567
2849.903388
2750.146721
2657.477522
2571.23959
38840.81484
38540.75884
37906.89027
36993.89724
35845.03317
34504.86117
33016.93673
31423.50417
29762.7379
28069.30751
26373.17374
24699.37366
23068.15071
21495.23801
19992.28855
18567.41816
17225.58617
15969.39953
14798.95867
13713.00568
12709.11668
11783.78537
10932.92886
10152.2181
9437.0062
8782.533094
8184.29023
7637.773605
7138.659962
6682.989709
6266.954635
5887.017944
5539.933218
5222.744462
4932.654772
4667.183473
4424.042368
4201.170059
3996.701349
3808.911191
3636.251428
3477.325497
3330.874213
3195.750148
3070.913737
2955.418821
2848.422103
2749.148314
2656.911877
2571.061194
38354.64992
38059.37312
37435.91558
36537.54457
35406.81347
34088.13745
32623.62978
31055.01428
29420.09715
27752.73914
26082.40594
24433.73816
22826.66789
21276.69903
19795.32417
18390.57591
17067.48765
15828.3582
14673.48682
13601.6582
12610.62659
11696.76269
10856.17307
10084.69949
9377.642512
8730.418158
8138.641679
7597.80276
7103.703477
6652.487327
6240.352772
5863.850061
5519.808692
5205.279343
4917.531657
4654.123585
4412.798582
4191.53679
3988.478538
3801.93303
3630.372686
3472.419366
3326.829077
3192.468344
3068.309285
2953.416887
2846.95653
2748.160329
2656.352042
2570.884602
37876.32425
37585.92742
36972.69239
36088.55678
34975.91513
33678.14391
32236.84653
30692.48834
29083.0058
27441.30065
25796.35109
24172.40804
22589.09759
21061.69808
19601.54473
18216.669
16911.9358
15689.57392
14550.01527
13492.16433
12513.67851
11611.09297
10780.65079
10018.20997
9319.173657
8679.122792
8093.661119
7558.409083
7069.273141
6622.41263
6214.118213
5840.99708
5499.95323
5188.043989
4902.604398
4641.230255
4401.696064
4182.02277
3980.356073
3795.038844
3624.563721
3467.570675
3322.83066
3189.223927
3065.734094
2951.437128
2845.506958
2747.18297
2655.798138
2570.709852
37406.07116
37120.42363
36516.93459
35646.81111
34552.18842
33274.76526
31856.30638
30336.17684
28751.36462
27134.89852
25514.92194
23915.30245
22355.36516
20850.16679
19410.94761
18045.64035
16758.87021
15553.00006
14428.50108
13384.41144
12418.24138
11526.74791
10706.30829
9952.728835
9261.581752
8628.589304
8049.337316
7519.583021
7035.337
6592.75945
6188.246181
5818.461919
5480.36434
5171.036796
4887.87204
4628.503032
4390.741668
4172.628252
3972.334426
3788.229253
3618.82524
3462.780168
3318.879695
3186.017583
3063.188772
2949.480054
2844.073783
2746.21652
2655.250329
2570.536998
36943.51351
36662.41428
36068.51774
35212.18514
34135.2878
32877.88916
31481.90127
29985.62515
28425.33826
26833.44111
25238.03277
23662.34177
22125.39703
20642.11992
19223.54282
17877.34486
16608.2404
15418.58873
14308.98461
13278.34571
12324.28598
11443.70852
10633.09913
9888.236105
9204.849814
8578.801233
8005.659341
7481.315625
7001.882831
6563.522091
6162.732325
5796.249904
5461.039851
5154.256405
4873.333877
4615.941723
4379.932657
4163.353734
3964.414309
3781.505112
3613.158177
3458.048804
3314.977116
3182.850182
3060.674096
2947.54632
2842.657523
2745.261346
2654.708833
2570.366111
36488.39817
36211.77576
35627.32125
34785.00873
33725.09558
32487.76094
31113.52512
29640.71846
28104.63897
26537.14289
24965.76049
23413.57853
21899.30025
20437.52308
19039.12927
17711.7266
16459.9965
15286.29545
14191.37019
13173.93209
12231.78262
11362.01055
10561.00103
9824.712708
9149.015093
8529.745751
7962.61722
7443.62146
6968.90339
6534.695157
6137.572723
5774.34292
5441.978043
5137.701923
4858.989686
4603.546633
4369.265597
4154.200234
3956.596961
3774.8678
3607.563981
3453.378035
3311.124323
3179.723016
3058.191202
2945.636874
2841.258913
2744.317962
2654.173946
2570.197284
36040.60199
35768.38561
35193.2299
34364.7132
33321.49813
32103.93341
30751.07275
29301.35652
27789.09325
26245.60378
24697.97106
23168.91592
21676.8598
20236.18625
18857.64606
17548.73123
16314.09153
15156.19452
14075.5866
13071.13449
12140.70076
11281.5571
10489.99158
9762.139593
9094.008538
8481.409584
7920.199943
7406.479916
6936.391743
6506.273183
6112.765645
5752.737906
5423.176906
5121.372248
4844.839179
4591.328387
4358.740628
4145.168349
3948.883287
3768.318425
3602.043879
3448.769137
3307.32258
3176.637286
3055.741184
2943.752661
2839.878715
2743.386925
2653.646003
2570.030627
35600.00433
35332.1246
34766.57437
33951.16632
32924.38239
31726.26614
30394.73368
28967.43846
27478.6044
25958.73047
24434.46048
22928.15533
21457.95795
20038.04257
18679.0314
17388.3023
16170.50983
15028.13538
13961.59422
12969.91766
12051.07268
11202.31909
10420.04627
9700.506044
9039.811208
8433.77785
7878.394945
7369.869089
6904.340386
6478.250397
6088.32389
5731.430748
5404.633615
5105.26553
4830.881187
4579.276408
4348.358114
4136.258731
3941.274207
3761.858111
3596.59913
3444.223434
3303.573212
3173.594255
3053.325184
2941.894648
2838.517683
2742.468754
2653.125294
2569.86623
35166.52164
34903.19417
34346.76328
33544.25158
32533.94548
31354.64841
30044.17079
28638.90123
27173.07298
25676.42866
24175.13953
22691.2123
21242.51591
19843.01896
18503.21722
17230.37653
16029.25269
14902.04914
13849.34562
12870.23761
11962.81948
11124.26082
10351.13269
9639.81938
8986.397127
8386.827249
7837.205524
7333.770421
6872.732637
6450.611388
6064.213142
5710.409157
5386.336548
5089.370831
4817.108432
4567.38046
4338.109002
4127.462801
3933.761637
3755.479348
3591.222902
3439.734902
3299.871117
3170.589832
3050.940152
2940.060779
2837.174612
2741.563616
2652.611619
2569.704055
34740.2679
34481.12846
33933.52746
33143.70734
32149.6893
30988.83716
29699.07622
28315.77808
26872.29199
25398.50452
23919.82738
22457.91859
21030.37765
19650.97069
18330.06885
17074.96826
15890.10256
14777.82459
13738.73438
12772.03837
11875.81712
11047.28818
10283.15751
9579.939044
8933.673408
8340.464455
7796.528757
7298.08904
6841.472681
6423.259807
6040.336608
5689.576547
5368.189841
5073.593857
4803.436962
4555.552683
4327.910377
4118.703816
3926.276215
3749.121247
3585.863658
3435.261894
3296.184632
3167.601888
3048.572447
2938.244298
2835.847596
2740.671738
2652.106361
2569.544722
34218.26726
33964.24639
33427.43992
32653.33082
31679.03147
30540.88106
29276.3105
27919.88541
26504.06529
25057.96132
23606.88186
22171.91639
20770.2671
19415.51024
18117.87382
16884.33262
15719.37538
14625.39577
13603.00378
12651.59409
11769.07443
10952.87272
10199.86049
9506.553682
8869.108593
8283.747317
7746.833384
7254.570444
6803.427515
6390.092076
6011.446689
5664.467676
5346.420388
5054.772848
4787.235715
4541.645939
4316.029221
4108.609125
3917.756498
3741.988195
3579.949541
3430.417122
3292.274364
3164.504755
3046.178539
2936.455083
2834.574468
2739.837065
2651.643227
2569.400583
)
;

boundaryField
{
    front_top
    {
        type            wedge;
    }
    front_middle
    {
        type            wedge;
    }
    front_bottom
    {
        type            wedge;
    }
    back_top
    {
        type            wedge;
    }
    back_middle
    {
        type            wedge;
    }
    back_bottom
    {
        type            wedge;
    }
    axis_top
    {
        type            symmetryPlane;
    }
    axis_middle
    {
        type            symmetryPlane;
    }
    axis_bottom
    {
        type            symmetryPlane;
    }
    wall_top
    {
        type            calculated;
        value           nonuniform 0();
    }
    wall_middle
    {
        type            calculated;
        value           nonuniform 0();
    }
    wall_bottom
    {
        type            calculated;
        value           uniform 2530.329233;
    }
    inlet
    {
        type            calculated;
        value           nonuniform 0();
    }
    outlet
    {
        type            calculated;
        value           nonuniform List<scalar> 
50
(
34218.26726
33964.24639
33427.43992
32653.33082
31679.03147
30540.88106
29276.3105
27919.88541
26504.06529
25057.96132
23606.88186
22171.91639
20770.2671
19415.51024
18117.87382
16884.33262
15719.37538
14625.39577
13603.00378
12651.59409
11769.07443
10952.87272
10199.86049
9506.553682
8869.108593
8283.747317
7746.833384
7254.570444
6803.427515
6390.092076
6011.446689
5664.467676
5346.420388
5054.772848
4787.235715
4541.645939
4316.029221
4108.609125
3917.756498
3741.988195
3579.949541
3430.417122
3292.274364
3164.504755
3046.178539
2936.455083
2834.574468
2739.837065
2651.643227
2569.400583
)
;
    }
    procBoundary0to1
    {
        type            processor;
        value           nonuniform List<scalar> 
51
(
46558.4669
46182.04123
45387.14825
44241.94084
42802.68764
41125.49263
39266.22986
37277.49681
35208.40054
33102.94037
30998.10683
28925.45338
26910.34285
24972.44359
23125.98737
21380.5529
19741.93901
18034.31787
18034.31787
16634.6789
15340.49089
14148.56452
13054.05051
12051.60935
11135.64849
10299.95357
9538.715446
8845.867309
8215.751507
7642.995673
7122.38375
6649.265648
6219.160723
5827.998226
5472.134988
5148.092084
4852.793474
4583.489793
4337.639772
4112.947686
3907.359801
3719.027886
3546.2814
3387.629466
3241.72032
3107.340867
2983.382744
2868.872076
2762.907875
2664.698589
2573.514401
)
;
    }
}


// ************************************************************************* //
