/*--------------------------------*- C++ -*----------------------------------*\
  =========                 |
  \\      /  F ield         | OpenFOAM: The Open Source CFD Toolbox
   \\    /   O peration     | Website:  https://openfoam.org
    \\  /    A nd           | Version:  7
     \\/     M anipulation  |
\*---------------------------------------------------------------------------*/
FoamFile
{
    version     2.0;
    format      ascii;
    class       volScalarField;
    location    "0.003";
    object      thermo:alpha;
}
// * * * * * * * * * * * * * * * * * * * * * * * * * * * * * * * * * * * * * //

dimensions      [1 -1 -1 0 0 0 0];

internalField   nonuniform List<scalar> 
1167
(
0.0001187880407
0.000118775706
0.0001187492715
0.0001187102275
0.0001186594836
0.000118597764
0.0001185200322
0.000118431753
0.000118332274
0.0001182172759
0.0001180934772
0.0001179616173
0.0001178212241
0.0001176648304
0.0001175020228
0.0001173272598
0.0001171419993
0.0001187679272
0.0001187556012
0.0001187291858
0.000118690189
0.0001186394901
0.0001185763884
0.0001184985122
0.000118410344
0.0001183093438
0.0001181945057
0.0001180708932
0.0001179392473
0.0001177974999
0.0001176414016
0.0001174789257
0.0001173029987
0.0001171181914
0.0001169251208
0.0001167195897
0.0001165099273
0.0001162897535
0.0001160606954
0.0001158290676
0.0001155873616
0.0001153449889
0.000115090557
0.0001148371481
0.0001145737947
0.0001143114858
0.0001140424839
0.0001137738226
0.0001135090427
0.0001132387626
0.0001129676162
0.0001126934572
0.0001124250141
0.000112161178
0.0001118939884
0.0001116334021
0.0001113733179
0.0001111161256
0.0001108660523
0.0001106231126
0.0001103783304
0.0001101404718
0.0001099010861
0.0001096689457
0.0001094439326
0.0001092258689
0.0001090093146
0.0001187478345
0.0001187355179
0.000118709123
0.0001186701797
0.0001186195243
0.0001185548297
0.0001184770295
0.0001183889771
0.0001182864647
0.0001181717929
0.0001180483734
0.0001179169489
0.0001177738603
0.0001176180656
0.0001174559296
0.0001172788548
0.0001170945172
0.0001169004656
0.0001166954995
0.0001164850697
0.0001162669507
0.0001160359453
0.0001158051596
0.0001155643129
0.0001153216715
0.0001150682126
0.0001148158049
0.0001145524571
0.0001142912363
0.0001140224202
0.0001137549127
0.0001134912882
0.0001132214011
0.0001129507246
0.0001126777921
0.0001124105569
0.0001121473533
0.0001118813737
0.0001116219696
0.0001113626171
0.000111106594
0.0001108576578
0.0001106158234
0.0001103718724
0.0001101349714
0.0001098965894
0.0001096655043
0.0001094415134
0.0001092244403
0.0001090088285
0.0001187277636
0.0001187154569
0.0001186891027
0.0001186501962
0.000118599587
0.0001185333054
0.0001184556055
0.0001183676535
0.0001182636378
0.0001181491386
0.000118025919
0.0001178947229
0.0001177503063
0.0001175948232
0.0001174330352
0.0001172548509
0.0001170709675
0.0001168759504
0.0001166715609
0.0001164603729
0.0001162443035
0.0001160124873
0.0001157814319
0.0001155414445
0.0001152985422
0.0001150460534
0.000114793732
0.0001145313022
0.0001142711626
0.0001140025323
0.0001137361694
0.0001134736906
0.0001132041929
0.0001129339818
0.0001126622643
0.0001123962383
0.0001121336485
0.0001118688676
0.000111610635
0.0001113520074
0.0001110971432
0.0001108493342
0.0001106084098
0.0001103654712
0.0001101294383
0.0001098921302
0.0001096620915
0.0001094391143
0.0001092230236
0.0001090083464
0.0001187077152
0.0001186954311
0.0001186691102
0.0001186302395
0.0001185783975
0.0001185118163
0.0001184342232
0.0001183457325
0.0001182408642
0.0001181265441
0.000118003531
0.0001178725705
0.0001177268391
0.0001175716756
0.0001174091964
0.0001172309636
0.000117047542
0.0001168515747
0.0001166477853
0.0001164358357
0.0001162218108
0.000115989416
0.000115757882
0.0001155187601
0.0001152755982
0.0001150240763
0.0001147716974
0.0001145103275
0.000114251262
0.0001139828177
0.0001137175904
0.0001134560991
0.000113187136
0.0001129173861
0.0001126468725
0.0001123820467
0.0001121200628
0.0001118564698
0.000111599398
0.0001113414887
0.0001110877732
0.0001108410828
0.0001106009675
0.000110359124
0.0001101239518
0.0001098877132
0.0001096587074
0.0001094367353
0.0001092216189
0.0001090078684
0.0001186877107
0.0001186754394
0.0001186491432
0.0001186103103
0.0001185568734
0.0001184903634
0.0001184128815
0.0001183228755
0.0001182181524
0.0001181040102
0.0001179812104
0.0001178504925
0.0001177034593
0.0001175486379
0.0001173849993
0.0001172071931
0.0001170242406
0.0001168273423
0.0001166241544
0.000116411457
0.0001161988913
0.0001159665094
0.0001157345076
0.0001154962669
0.000115252837
0.0001150022789
0.0001147498466
0.0001144895308
0.0001142307989
0.0001139632736
0.0001136991737
0.000113438022
0.0001131702283
0.0001129009357
0.0001126316155
0.0001123679791
0.0001121065955
0.0001118441796
0.0001115882583
0.0001113310608
0.0001110784838
0.0001108329092
0.0001105935889
0.0001103528311
0.0001101185122
0.0001098833339
0.0001096553522
0.0001094343767
0.0001092202261
0.0001090073944
0.0001186677319
0.0001186554726
0.0001186292026
0.000118590017
0.000118535383
0.0001184689542
0.0001183915814
0.0001183000682
0.0001181955114
0.0001180815536
0.0001179589673
0.0001178277527
0.0001176801893
0.000117525704
0.0001173609119
0.0001171835395
0.0001170010631
0.0001168032676
0.0001166006677
0.0001163872365
0.0001161740757
0.000115943765
0.000115711306
0.0001154739463
0.000115230256
0.0001149806704
0.0001147281772
0.0001144689098
0.0001142103063
0.0001139438981
0.000113680917
0.0001134201027
0.0001131534685
0.0001128846294
0.0001126164974
0.0001123540348
0.000112093246
0.0001118319968
0.0001115772156
0.0001113207236
0.0001110692773
0.0001108248064
0.0001105862742
0.0001103465926
0.0001101131196
0.0001098789924
0.000109652026
0.0001094320385
0.0001092188454
0.0001090069246
0.0001186477783
0.0001186355317
0.0001186092893
0.0001185684999
0.0001185139273
0.0001184475993
0.0001183703238
0.0001182773118
0.0001181729269
0.0001180591677
0.0001179368078
0.0001178042669
0.0001176570103
0.000117502866
0.0001173369345
0.0001171600032
0.0001169774423
0.0001167793305
0.000116577324
0.0001163631724
0.0001161494282
0.0001159211813
0.0001156882834
0.000115451796
0.0001152078527
0.0001149592457
0.0001147066866
0.0001144484619
0.0001141899881
0.0001139246893
0.0001136628186
0.0001134023397
0.0001131368554
0.0001128684663
0.0001126015216
0.000112340213
0.000112080014
0.0001118199211
0.00011156627
0.0001113104771
0.0001110601581
0.0001108167747
0.0001105790235
0.0001103404088
0.0001101077743
0.000109874689
0.0001096487289
0.0001094297207
0.0001092174767
0.0001090064588
0.0001186278508
0.0001186156175
0.0001185889282
0.0001185470154
0.0001184925071
0.0001184262838
0.0001183486771
0.0001182546072
0.0001181503998
0.0001180368454
0.0001179147184
0.0001177808631
0.0001176339204
0.0001174801242
0.0001173130671
0.0001171365841
0.0001169530829
0.0001167555298
0.000116554122
0.0001163403726
0.0001161249477
0.0001158987573
0.0001156654433
0.0001154298142
0.000115185625
0.0001149379932
0.0001146853726
0.0001144281921
0.0001141698424
0.0001139056453
0.0001136448882
0.0001133847316
0.0001131203879
0.0001128524453
0.0001125866778
0.0001123265134
0.0001120668989
0.0001118079523
0.0001115554213
0.0001113003224
0.0001110511197
0.0001108088141
0.0001105718372
0.0001103342798
0.0001101024763
0.0001098704238
0.0001096454621
0.0001094274236
0.0001092161203
0.0001090059973
0.0001186079503
0.0001185957311
0.0001185674276
0.0001185255646
0.0001184711275
0.0001184050085
0.0001183258893
0.0001182319554
0.0001181279312
0.0001180145875
0.0001178926997
0.000117757542
0.00011761092
0.0001174574789
0.00011728931
0.0001171133026
0.0001169288539
0.000116731865
0.0001165310605
0.0001163179771
0.0001161006323
0.0001158764912
0.0001156427704
0.0001154079988
0.0001151635796
0.0001149169109
0.0001146642331
0.000114408104
0.0001141498672
0.0001138867645
0.00011362712
0.0001133672771
0.0001131040651
0.0001128365658
0.0001125719657
0.0001123129356
0.0001120539008
0.0001117960903
0.0001115446697
0.0001112902678
0.0001110421624
0.0001108009251
0.0001105647154
0.0001103282059
0.0001100972261
0.000109866197
0.0001096422269
0.0001094251472
0.0001092147761
0.0001090055399
0.0001185874918
0.0001185742764
0.0001185459593
0.0001185041483
0.0001184498039
0.0001183837743
0.0001183031501
0.0001182093733
0.0001181055218
0.0001179923948
0.0001178707522
0.0001177343041
0.0001175880097
0.0001174349303
0.0001172656767
0.0001170901409
0.000116904755
0.0001167083358
0.0001165073057
0.0001162957247
0.0001160764807
0.0001158535795
0.0001156202625
0.0001153863479
0.0001151417171
0.0001148959968
0.000114643266
0.0001143881829
0.0001141300609
0.0001138680455
0.0001136095057
0.0001133499753
0.0001130878861
0.0001128208411
0.0001125573846
0.0001122994794
0.0001120410194
0.0001117843353
0.0001115340152
0.0001112803043
0.0001110332865
0.0001107931078
0.0001105576586
0.0001103221876
0.0001100920239
0.000109862009
0.0001096390214
0.0001094228916
0.0001092134442
0.0001090050866
0.0001185660044
0.0001185528055
0.0001185245242
0.0001184827675
0.0001184285186
0.0001183625821
0.0001182804605
0.0001181868522
0.0001180831862
0.0001179702678
0.0001178488767
0.00011771115
0.00011756519
0.0001174115805
0.0001172421629
0.0001170670954
0.0001168807855
0.0001166849413
0.0001164831876
0.0001162736144
0.0001160524911
0.0001158304077
0.0001155979179
0.0001153648596
0.0001151200239
0.000114875249
0.000114622471
0.0001143684272
0.0001141104217
0.0001138494899
0.0001135920442
0.0001133328251
0.0001130718502
0.0001128052578
0.0001125429344
0.0001122861446
0.000112028255
0.0001117726876
0.0001115231484
0.0001112704321
0.0001110244921
0.0001107853627
0.0001105506671
0.000110316225
0.0001100868701
0.0001098578599
0.0001096358457
0.0001094206572
0.0001092121248
0.0001090046377
0.000118544549
0.0001185313672
0.0001185031233
0.0001184614373
0.0001184072727
0.0001183404136
0.0001182578213
0.0001181643865
0.0001180609209
0.0001179482278
0.000117826236
0.0001176880935
0.0001175424819
0.0001173877405
0.0001172187585
0.0001170441654
0.0001168569448
0.0001166616953
0.0001164592155
0.0001162516451
0.0001160288371
0.0001158073976
0.0001155757353
0.0001153430066
0.0001150984981
0.0001148546657
0.0001146018635
0.0001143488354
0.0001140909484
0.0001138311075
0.0001135747345
0.0001133158258
0.0001130559568
0.0001127898143
0.000112528615
0.0001122729314
0.0001120156078
0.0001117611475
0.0001115122711
0.0001112606517
0.00011101578
0.0001107776902
0.0001105437415
0.0001103103189
0.0001100817651
0.0001098537503
0.0001096327003
0.000109418444
0.0001092108179
0.000109004193
0.0001185231264
0.0001185099625
0.0001184817575
0.0001184401525
0.0001183860672
0.0001183176948
0.0001182352333
0.0001181419769
0.0001180387172
0.0001179262578
0.0001178029609
0.0001176651318
0.0001175198663
0.0001173640038
0.0001171954636
0.0001170213508
0.0001168332322
0.0001166385895
0.0001164353882
0.0001162298151
0.0001160064519
0.0001157845482
0.0001155537136
0.0001153207263
0.0001150771378
0.0001148342452
0.0001145814233
0.0001143294059
0.0001140716396
0.0001138128831
0.0001135575759
0.000113298977
0.000113039815
0.0001127745102
0.0001125144261
0.0001122598399
0.0001120030779
0.0001117497178
0.0001115014963
0.000111250964
0.0001110071508
0.0001107700912
0.0001105368824
0.0001103044697
0.0001100767095
0.0001098496805
0.0001096295854
0.0001094162523
0.0001092095238
0.0001090037526
0.0001185017376
0.0001184885923
0.0001184604427
0.000118418906
0.0001183649027
0.0001182950239
0.0001182127103
0.0001181196243
0.0001180165757
0.0001179043557
0.0001177797645
0.0001176422549
0.0001174973416
0.0001173403704
0.000117172278
0.0001169986509
0.0001168096692
0.0001166156155
0.0001164117047
0.0001162081237
0.0001159842159
0.0001157618578
0.0001155318509
0.0001152986123
0.0001150559418
0.0001148139863
0.0001145611488
0.0001143101376
0.0001140524944
0.000113794816
0.0001135405678
0.0001132822783
0.0001130235275
0.0001127593454
0.0001125003681
0.0001122468702
0.000111990666
0.0001117384051
0.0001114908246
0.0001112413698
0.0001109986056
0.0001107625666
0.0001105300909
0.0001102986783
0.0001100717041
0.0001098456513
0.0001096265017
0.0001094140826
0.0001092082427
0.0001090033167
0.0001184803835
0.0001184672655
0.0001184391721
0.0001183976986
0.0001183429403
0.0001182724017
0.00011819025
0.0001180973295
0.000117994497
0.0001178825217
0.0001177566471
0.0001176194629
0.0001174749077
0.0001173168404
0.0001171492017
0.0001169753774
0.0001167862339
0.0001165927729
0.0001163881646
0.0001161844619
0.0001159621268
0.0001157393244
0.0001155101605
0.0001152766635
0.0001150349093
0.00011479294
0.0001145410384
0.0001142910293
0.0001140335274
0.0001137769053
0.0001135237096
0.0001132657292
0.000113007388
0.0001127443204
0.0001124864412
0.0001122340232
0.0001119783727
0.0001117272017
0.0001114802572
0.0001112318702
0.0001109901453
0.0001107551174
0.0001105233679
0.0001102929459
0.00011006675
0.0001098416635
0.0001096234497
0.0001094119353
0.0001092069748
0.0001090028853
0.0001184590816
0.0001184459893
0.0001184179392
0.0001183765313
0.0001183202493
0.0001182498289
0.0001181678434
0.0001180751153
0.0001179724817
0.0001178607564
0.0001177336091
0.0001175967562
0.000117452565
0.0001172934135
0.0001171262416
0.000116951506
0.0001167629246
0.0001165700607
0.0001163647669
0.000116160508
0.0001159401839
0.0001157169468
0.0001154886326
0.0001152548782
0.0001150140388
0.0001147720037
0.0001145210913
0.00011427208
0.0001140147247
0.0001137591504
0.000113507001
0.0001132493344
0.0001129913968
0.0001127294356
0.0001124726463
0.0001122212997
0.0001119662069
0.000111716109
0.0001114697955
0.0001112224668
0.0001109817717
0.0001107477453
0.0001105167152
0.0001102872738
0.0001100618483
0.0001098377182
0.0001096204304
0.0001094098111
0.0001092057206
0.0001090024585
0.0001184378218
0.0001184247502
0.000118396745
0.0001183554047
0.0001182976051
0.0001182273066
0.0001181454912
0.0001180529611
0.0001179505481
0.0001178390601
0.0001177106508
0.0001175741349
0.0001174303134
0.0001172700992
0.0001171034067
0.0001169277551
0.0001167397404
0.0001165474778
0.0001163424911
0.0001161367061
0.0001159183862
0.0001156947257
0.0001154672593
0.0001152332553
0.0001149933289
0.0001147512335
0.0001145013069
0.0001142532893
0.0001139960831
0.0001137415512
0.000113490442
0.0001132331004
0.0001129755544
0.0001127146919
0.0001124589844
0.0001122087008
0.0001119541669
0.0001117051285
0.0001114594412
0.0001112131614
0.0001109734866
0.0001107404522
0.0001105101346
0.0001102816639
0.0001100570009
0.0001098338168
0.0001096174449
0.0001094077107
0.0001092044804
0.0001090020366
0.0001184165995
0.0001184035492
0.0001183755903
0.000118332757
0.0001182750085
0.0001182048561
0.0001181231942
0.0001180308665
0.0001179286844
0.0001178159104
0.0001176877862
0.0001175516112
0.0001174069674
0.0001172469012
0.0001170806798
0.0001169041242
0.0001167166809
0.0001165250234
0.0001163206981
0.0001161130548
0.0001158967329
0.0001156726768
0.0001154460396
0.0001152117934
0.0001149727983
0.0001147306285
0.0001144816846
0.0001142340718
0.0001139776019
0.0001137241073
0.0001134740327
0.0001132170163
0.0001129598615
0.0001127000903
0.0001124454568
0.0001121962283
0.00011194225
0.0001116942625
0.000111449197
0.0001112039566
0.0001109652927
0.0001107332407
0.0001105036288
0.0001102761186
0.0001100522099
0.0001098299614
0.0001096144949
0.0001094056354
0.0001092032552
0.0001090016197
0.0001183954154
0.0001183823872
0.0001183544539
0.0001183101061
0.0001182524604
0.0001181824592
0.0001181009531
0.0001180088323
0.0001179068857
0.0001177928209
0.0001176650118
0.0001175291839
0.0001173834316
0.0001172238054
0.0001170580603
0.0001168806127
0.0001166937454
0.0001165015444
0.0001162990355
0.0001160895526
0.0001158752226
0.0001156507798
0.0001154249721
0.0001151904913
0.0001149524264
0.0001147101875
0.0001144622235
0.0001142147163
0.0001139592807
0.0001137068184
0.0001134576937
0.0001132010825
0.0001129443188
0.0001126856317
0.000112432065
0.0001121833957
0.0001119304575
0.0001116835127
0.0001114390647
0.0001111948548
0.0001109571924
0.0001107261132
0.0001104972002
0.0001102706403
0.0001100474779
0.000109826154
0.000109611582
0.0001094035865
0.0001092020455
0.0001090012081
0.0001183742705
0.000118361265
0.0001183317702
0.0001182875017
0.0001182299614
0.0001181601148
0.0001180787869
0.0001179868587
0.0001178851521
0.0001177698063
0.0001176423175
0.0001175068418
0.0001173599922
0.0001172008112
0.0001170355474
0.0001168572195
0.0001166709383
0.0001164780424
0.0001162775018
0.0001160661977
0.0001158530222
0.0001156290325
0.0001154040547
0.0001151693503
0.0001149322108
0.0001146899088
0.0001144429218
0.0001141955241
0.0001139411185
0.000113689684
0.0001134408497
0.0001131852982
0.0001129289261
0.0001126713164
0.0001124188094
0.0001121706699
0.0001119187912
0.0001116728808
0.0001114290465
0.000111185858
0.0001109491879
0.0001107190721
0.0001104908515
0.0001102652316
0.000110042807
0.0001098223966
0.0001096087079
0.000109401565
0.0001092008522
0.0001090008021
0.0001183530433
0.0001183390689
0.0001183091316
0.0001182649443
0.0001182075302
0.0001181378234
0.000118056682
0.0001179649486
0.0001178634837
0.0001177468662
0.0001176197026
0.0001174845842
0.0001173366481
0.0001171779172
0.0001170131392
0.0001168339422
0.0001166482668
0.0001164546709
0.0001162560942
0.0001160429863
0.0001158306134
0.0001156074304
0.0001153832826
0.0001151483781
0.0001149121462
0.0001146697866
0.0001144237849
0.0001141764891
0.0001139231091
0.0001136726975
0.0001134241547
0.0001131696566
0.0001129136757
0.0001126571365
0.0001124056846
0.0001121580695
0.000111907242
0.0001116623575
0.0001114191325
0.0001111769566
0.0001109412699
0.0001107121087
0.0001104845743
0.0001102598853
0.0001100381916
0.0001098186853
0.00010960587
0.0001093995714
0.0001091996746
0.0001090004015
0.000118330361
0.0001183164122
0.0001182865304
0.0001182424263
0.0001181851454
0.0001181155773
0.0001180346259
0.0001179431114
0.0001178418722
0.000117723992
0.0001175971583
0.0001174624017
0.0001173133891
0.0001171551129
0.0001169908252
0.0001168107899
0.0001166257025
0.0001164314157
0.0001162347977
0.0001160205516
0.0001158083303
0.0001155859525
0.0001153626324
0.0001151275307
0.0001148922018
0.0001146497846
0.0001144047685
0.0001141575642
0.0001139052007
0.0001136558021
0.0001134075435
0.0001131540876
0.0001128984894
0.0001126430091
0.0001123926119
0.0001121455022
0.0001118957171
0.0001116518517
0.0001114092317
0.0001111680658
0.0001109333626
0.0001107051584
0.0001104783151
0.0001102545623
0.0001100336055
0.0001098150064
0.0001096030645
0.0001093976062
0.0001091985161
0.000109000008
0.0001183021378
0.0001182882215
0.0001182584098
0.0001182144222
0.0001181572984
0.0001180879145
0.0001180071943
0.000117915956
0.0001178133056
0.0001176955615
0.0001175691375
0.0001174348364
0.0001172844922
0.0001171267943
0.0001169616203
0.0001167820488
0.0001165976979
0.0001164025639
0.000116208387
0.0001159934899
0.0001157807264
0.0001155593646
0.0001153362258
0.0001151017698
0.000114867587
0.0001146251352
0.0001143813752
0.000114134333
0.0001138832731
0.0001136351985
0.0001133873395
0.0001131352322
0.0001128801901
0.000112626087
0.0001123770624
0.0001121306758
0.0001118822497
0.0001116397105
0.0001113979353
0.0001111580699
0.0001109246202
0.0001106976181
0.0001104716667
0.0001102490384
0.0001100289642
0.00010981138
0.0001096003715
0.0001093957664
0.000109197454
0.0001089996519
)
;

boundaryField
{
    front_top
    {
        type            wedge;
    }
    front_middle
    {
        type            wedge;
    }
    front_bottom
    {
        type            wedge;
    }
    back_top
    {
        type            wedge;
    }
    back_middle
    {
        type            wedge;
    }
    back_bottom
    {
        type            wedge;
    }
    axis_top
    {
        type            symmetryPlane;
    }
    axis_middle
    {
        type            symmetryPlane;
    }
    axis_bottom
    {
        type            symmetryPlane;
    }
    wall_top
    {
        type            calculated;
        value           nonuniform 0();
    }
    wall_middle
    {
        type            calculated;
        value           nonuniform 0();
    }
    wall_bottom
    {
        type            calculated;
        value           uniform 0.0001089022317;
    }
    inlet
    {
        type            calculated;
        value           nonuniform 0();
    }
    outlet
    {
        type            calculated;
        value           nonuniform List<scalar> 
50
(
0.0001183021378
0.0001182882215
0.0001182584098
0.0001182144222
0.0001181572984
0.0001180879145
0.0001180071943
0.000117915956
0.0001178133056
0.0001176955615
0.0001175691375
0.0001174348364
0.0001172844922
0.0001171267943
0.0001169616203
0.0001167820488
0.0001165976979
0.0001164025639
0.000116208387
0.0001159934899
0.0001157807264
0.0001155593646
0.0001153362258
0.0001151017698
0.000114867587
0.0001146251352
0.0001143813752
0.000114134333
0.0001138832731
0.0001136351985
0.0001133873395
0.0001131352322
0.0001128801901
0.000112626087
0.0001123770624
0.0001121306758
0.0001118822497
0.0001116397105
0.0001113979353
0.0001111580699
0.0001109246202
0.0001106976181
0.0001104716667
0.0001102490384
0.0001100289642
0.00010981138
0.0001096003715
0.0001093957664
0.000109197454
0.0001089996519
)
;
    }
    procBoundary0to1
    {
        type            processor;
        value           nonuniform List<scalar> 
51
(
0.0001188081743
0.0001187958315
0.0001187693792
0.0001187303077
0.0001186795037
0.0001186177342
0.0001185415885
0.000118453203
0.0001183552194
0.0001182401167
0.0001181161448
0.0001179840749
0.0001178446218
0.000117688351
0.0001175252202
0.0001173516368
0.0001171659471
0.0001169499162
0.0001169499162
0.0001167438276
0.0001165342497
0.0001163127137
0.0001160856256
0.0001158531578
0.000115610593
0.0001153677499
0.0001151130886
0.0001148586744
0.0001145953186
0.0001143319144
0.0001140627393
0.000113792902
0.0001135269565
0.0001132562815
0.0001129846584
0.0001127092613
0.0001124395985
0.0001121751234
0.0001119067124
0.000111644933
0.0001113841101
0.000111125738
0.0001108745176
0.000110630463
0.0001103848465
0.0001101458969
0.0001099056202
0.0001096724157
0.000109446372
0.0001092273093
0.0001090098048
)
;
    }
}


// ************************************************************************* //
