/*--------------------------------*- C++ -*----------------------------------*\
  =========                 |
  \\      /  F ield         | OpenFOAM: The Open Source CFD Toolbox
   \\    /   O peration     | Website:  https://openfoam.org
    \\  /    A nd           | Version:  7
     \\/     M anipulation  |
\*---------------------------------------------------------------------------*/
FoamFile
{
    version     2.0;
    format      ascii;
    class       volVectorField;
    location    "0.0009";
    object      grad(generalizedNewtonian:nu);
}
// * * * * * * * * * * * * * * * * * * * * * * * * * * * * * * * * * * * * * //

dimensions      [0 1 -1 0 0 0 0];

internalField   nonuniform List<vector> 
1167
(
(-5291.200562 0 180379.5353)
(-1394.017507 0 179374.6773)
(-4683.131201 0 159841.8862)
(-1108.656238 0 158940.1018)
(-5453.206152 0 159038.2357)
(-11398.24205 -1.102453413e-09 157456.4952)
(-12514.07083 -8.816222349e-10 155851.5008)
(-14871.76751 0 153986.2483)
(-17001.87094 0 151872.9349)
(-18853.60904 2.874957119e-10 149591.6876)
(-20503.6276 0 147189.6979)
(-21941.66185 2.399325709e-10 144700.5987)
(-23183.19313 -2.23186911e-10 142167.3431)
(-24251.95654 0 139636.7369)
(-25144.93802 1.981551745e-10 137123.0502)
(-25889.48817 0 134663.2293)
(-26502.29524 0 132278.8545)
(-26992.36962 1.736131822e-10 129978.0029)
(-27381.1248 0 127794.2885)
(-27677.15853 0 125717.2714)
(-27897.00259 1.579913487e-10 123778.7671)
(-28048.20426 0 121965.3577)
(-28142.22286 -1.506319458e-10 120300.7151)
(-28185.55626 0 118771.179)
(-28182.70586 0 117394.1127)
(-28139.28725 0 116154.8519)
(-28056.16269 0 115066.7714)
(-27936.22246 0 114115.1077)
(-27774.40102 0 113307.245)
(-27570.95881 0 112628.5106)
(-27317.63743 0 112081.685)
(-27013.8022 0 111652.1766)
(-26648.47956 0 111336.6246)
(-26219.00147 -1.323545803e-10 111120.3777)
(-25721.63248 0 110993.4542)
(-25152.72098 -6.569297865e-11 110939.7945)
(-24516.65452 0 110945.1113)
(-23814.34208 0 110986.3705)
(-23060.34264 0 111047.1239)
(-22267.81166 -6.538419103e-11 111098.956)
(-21459.06212 0 111122.3011)
(-20654.36796 -6.550932737e-11 111082.6981)
(-19881.33201 0 110960.4394)
(-19164.82469 0 110724.8149)
(-18529.81944 0 110359.7714)
(-17997.76458 0 109844.2091)
(-17581.16637 3.324957096e-11 109173.0721)
(-17271.09258 0 108334.4063)
(-17017.10196 0 107335.5926)
(-16868.01306 0 106195.6902)
(-16779.59933 0 104960.7891)
(-16630.39233 -3.415950329e-11 103429.2356)
(-4145.250585 0 141640.6957)
(-856.5026058 2.472492347e-09 140830.8426)
(-4751.438517 0 140918.7915)
(-10068.06688 0 139492.221)
(-11030.50777 0 138045.5837)
(-13141.50776 0 136358.3494)
(-15060.72465 0 134453.8723)
(-16746.95886 0 132394.9976)
(-18257.35432 0 130218.7975)
(-19594.30234 0 127956.2931)
(-20773.76394 0 125662.0672)
(-21800.02973 0 123357.8487)
(-22684.43179 0 121065.4334)
(-23448.28297 0 118826.655)
(-24094.84597 0 116642.9662)
(-24645.87114 0 114545.4928)
(-25108.08052 0 112540.9635)
(-25496.8343 0 110644.951)
(-25822.22848 0 108866.1697)
(-26093.0397 0 107211.4442)
(-26316.7879 0 105688.9297)
(-26499.58412 0 104301.2975)
(-26645.17424 0 103052.5265)
(-26755.9899 0 101946.8988)
(-26836.21673 0 100981.8152)
(-26880.65929 0 100162.3144)
(-26890.39074 6.97280767e-11 99482.94193)
(-26856.05008 0 98946.61298)
(-26776.79627 0 98548.00447)
(-26639.12528 0 98284.94954)
(-26439.42618 0 98150.5498)
(-26166.29553 0 98141.39141)
(-25811.7167 -6.693075137e-11 98244.96802)
(-25372.93975 0 98456.13287)
(-24839.75872 0 98753.49172)
(-24217.50999 0 99128.26273)
(-23505.60953 0 99554.94477)
(-22716.64359 0 100012.37)
(-21858.13187 0 100472.2614)
(-20950.71973 0 100900.1251)
(-20018.07243 0 101266.2294)
(-19084.08336 0 101530.6777)
(-18179.61684 0 101663.206)
(-17332.21095 0 101630.9175)
(-16567.04021 0 101413.974)
(-15887.65762 0 100996.988)
(-15278.92787 0 100376.7204)
(-14822.6913 0 99580.65095)
(-14270.58696 0 98643.77699)
(-13435.06641 0 97406.6005)
(-3669.782534 0 125551.8528)
(-633.1587897 0 124825.6146)
(-4128.230474 7.742005906e-10 124903.9194)
(-8887.355576 0 123618.4029)
(-9710.501957 0 122312.3905)
(-11605.82838 0 120793.3755)
(-13337.27455 0 119078.4942)
(-14867.8086 0 117215.5005)
(-16250.01037 0 115236.8895)
(-17495.53108 2.47464105e-10 113186.2958)
(-18612.95507 -2.301927954e-10 111098.9999)
(-19598.36026 0 108991.0789)
(-20472.63072 -2.043753073e-10 106900.6432)
(-21243.45631 0 104844.3944)
(-21920.89688 0 102837.8093)
(-22520.19826 0 100907.4812)
(-23048.89904 0 99052.68022)
(-23519.03436 0 97302.12959)
(-23938.93334 -8.14753653e-11 95647.99443)
(-24316.85232 0 94114.13585)
(-24660.32808 -7.76801572e-11 92693.12557)
(-24972.00664 0 91402.51109)
(-25259.10729 0 90237.22646)
(-25519.6524 0 89209.20306)
(-25756.3725 7.252398074e-11 88316.99717)
(-25968.38053 0 87562.975)
(-26148.70964 0 86950.36206)
(-26297.42022 0 86481.11171)
(-26399.84939 6.953260786e-11 86154.07264)
(-26452.56251 0 85970.0872)
(-26442.79194 0 85929.47704)
(-26358.79197 0 86025.96713)
(-26193.66541 0 86262.28098)
(-25928.60389 0 86624.55117)
(-25560.95585 0 87108.62986)
(-25082.18468 0 87703.13139)
(-24484.52009 0 88388.09073)
(-23772.27913 0 89146.04852)
(-22940.98179 0 89947.76194)
(-22002.87519 0 90764.32344)
(-20969.58634 0 91553.83868)
(-19858.57223 0 92278.19066)
(-18699.8474 -3.403349406e-11 92885.19317)
(-17527.5598 0 93334.68231)
(-16380.75339 3.429328203e-11 93581.31349)
(-15277.97196 0 93595.6852)
(-14249.85685 0 93359.30806)
(-13422.20772 0 92899.46747)
(-12373.40345 3.501290781e-11 92252.85794)
(-10857.98145 0 91293.44693)
(-3250.454369 0 111363.0786)
(-436.0621341 0 110713.4472)
(-3575.084707 1.572514374e-09 110782.8635)
(-7837.874079 0 109623.2637)
(-8542.207431 9.234569837e-10 108449.3062)
(-10245.98177 0 107084.7226)
(-11802.85884 0 105534.8641)
(-13186.52353 -3.011379619e-10 103843.7152)
(-14455.64911 0 102045.8583)
(-15618.45173 0 100184.4172)
(-16667.84995 0 98276.03135)
(-17615.11259 0 96347.29844)
(-18473.76543 0 94431.74064)
(-19245.54049 0 92533.12003)
(-19946.44361 0 90684.69493)
(-20582.24479 0 88889.57078)
(-21165.38268 0 87169.26765)
(-21703.25195 0 85527.54559)
(-22203.8861 -8.274417805e-11 83980.87831)
(-22676.00159 0 82529.53444)
(-23122.57709 0 81187.36754)
(-23552.14348 0 79953.58494)
(-23963.85102 7.592926182e-11 78839.88706)
(-24364.53138 0 77846.18888)
(-24747.79082 -7.365339392e-11 76979.87255)
(-25114.83007 0 76242.43331)
(-25466.76513 0 75640.80828)
(-25789.25234 0 75174.53366)
(-26080.30361 0 74849.48747)
(-26328.91935 0 74670.03719)
(-26521.65947 0 74633.43715)
(-26650.89431 -6.931753571e-11 74747.46194)
(-26697.01105 0 75009.7719)
(-26646.91289 0 75417.98373)
(-26492.76155 -3.432435457e-11 75972.30488)
(-26214.21791 0 76663.45003)
(-25798.91498 0 77484.60265)
(-25241.04332 -3.424340122e-11 78417.78401)
(-24525.52581 0 79443.00032)
(-23646.25541 0 80536.46137)
(-22604.90198 0 81659.2949)
(-21399.2726 0 82768.82711)
(-20048.25813 0 83811.57096)
(-18581.81374 0 84729.24941)
(-17036.3799 3.482733e-11 85456.50467)
(-15457.31536 0 85935.93312)
(-13933.02615 0 86125.86352)
(-12652.0206 0 86031.71601)
(-11062.00104 0 85688.50983)
(-8845.823647 0 84995.61178)
(-2881.639154 0 98870.91607)
(-262.2093804 0 98288.63842)
(-3082.508237 0 98352.17735)
(-6910.264293 0 97309.35927)
(-7508.875864 0 96256.31761)
(-9035.88482 0 95024.07158)
(-10431.08227 0 93619.92924)
(-11683.66242 0 92081.81266)
(-12850.35811 0 90452.65067)
(-13928.43888 0 88755.87587)
(-14915.06584 0 87006.89315)
(-15825.06876 0 85243.54208)
(-16658.58519 0 83476.38996)
(-17427.01973 0 81725.89654)
(-18140.07229 0 80010.61328)
(-18804.22037 0 78338.45155)
(-19428.25662 0 76728.1174)
(-20021.18666 0 75182.42948)
(-20588.05298 8.403281239e-11 73716.36963)
(-21136.20745 8.19455019e-11 72333.34404)
(-21672.24483 0 71039.87326)
(-22198.16887 0 69843.6773)
(-22722.26309 0 68748.39356)
(-23238.97217 7.587960268e-11 67759.61783)
(-23753.30206 -7.480045097e-11 66880.71997)
(-24265.04816 0 66120.64951)
(-24765.45365 -7.303685117e-11 65478.35558)
(-25254.12346 0 64962.35007)
(-25723.62337 0 64579.27953)
(-26159.66853 -7.119498182e-11 64329.70753)
(-26555.1692 0 64222.2458)
(-26899.3277 -3.519853367e-11 64262.08425)
(-27171.52181 0 64452.59808)
(-27356.9029 0 64800.55214)
(-27442.39383 0 65305.24137)
(-27408.55264 0 65966.69183)
(-27232.77279 0 66784.80985)
(-26896.8462 0 67751.70618)
(-26383.72764 0 68854.54899)
(-25670.44775 -3.484325604e-11 70077.05288)
(-24731.60838 0 71391.1574)
(-23551.72301 0 72760.20687)
(-22124.42988 0 74140.70671)
(-20451.61225 0 75472.87155)
(-18561.50097 0 76688.08972)
(-16503.67979 0 77699.12608)
(-14417.02115 -1.785391522e-11 78413.50998)
(-12569.31577 0 78780.7022)
(-10329.63605 0 78799.8909)
(-7353.62282 0 78390.81329)
(-2554.878097 0 87865.13338)
(-109.9554141 0 87344.15016)
(-2649.837844 0 87415.36064)
(-6089.629053 0 86484.83992)
(-6590.142006 0 85541.76297)
(-7956.646976 0 84435.64111)
(-9204.721964 0 83168.69582)
(-10340.58033 0 81785.50313)
(-11412.69262 0 80315.57114)
(-12407.63495 1.296033681e-10 78772.90964)
(-13335.02526 0 77184.91982)
(-14202.46693 0 75574.99935)
(-15010.21636 0 73950.12431)
(-15769.38296 0 72341.31574)
(-16485.10124 0 70747.08151)
(-17165.52102 0 69192.80351)
(-17818.51351 0 67676.88478)
(-18449.68458 0 66218.4456)
(-19068.20965 0 64816.53396)
(-19675.05086 0 63484.46741)
(-20278.87664 0 62224.05586)
(-20885.75051 0 61041.60008)
(-21493.56741 0 59941.15865)
(-22109.38468 0 58927.78212)
(-22732.12847 0 58007.30113)
(-23358.20381 0 57180.68105)
(-23989.33931 0 56455.98955)
(-24621.9152 0 55839.64223)
(-25244.71905 -3.641602959e-11 55335.3339)
(-25850.56376 0 54949.22408)
(-26433.22223 0 54691.66089)
(-26979.21795 0 54568.53095)
(-27472.37785 0 54587.78396)
(-27894.67638 0 54759.93976)
(-28229.42633 0 55091.90742)
(-28457.63409 0 55589.51679)
(-28554.9795 0 56258.00228)
(-28495.4999 0 57100.94344)
(-28249.47544 0 58115.67207)
(-27783.57223 0 59295.26088)
(-27061.93137 0 60627.92568)
(-26050.62203 0 62097.08905)
(-24720.992 0 63673.45986)
(-23049.09142 0 65312.68904)
(-21009.50657 -1.796028096e-11 66945.87128)
(-18588.85023 0 68468.99199)
(-15926.17736 1.813196853e-11 69761.57023)
(-13367.78553 0 70716.29596)
(-10293.23306 0 71240.06869)
(-6425.208676 0 71213.48717)
(-2268.79961 0 78180.22496)
(11.33881578 0 77722.6981)
(-2279.617982 -8.235671981e-10 77824.42233)
(-5371.042635 0 76996.94138)
(-5785.064126 0 76157.36453)
(-7006.362977 4.068632606e-10 75169.74371)
(-8126.855926 0 74037.02279)
(-9158.950863 0 72800.2637)
(-10135.79574 0 71473.61336)
(-11055.92144 1.3162178e-10 70072.93664)
(-11926.68431 0 68630.4217)
(-12745.70948 0 67150.54272)
(-13523.39935 1.087036107e-10 65656.7003)
(-14263.0603 0 64159.73397)
(-14972.17998 0 62673.7884)
(-15656.91375 0 61208.37663)
(-16322.34692 0 59775.60498)
(-16978.06765 0 58378.34111)
(-17625.05312 0 57028.3737)
(-18273.76 0 55728.33386)
(-18924.46476 0 54485.79255)
(-19582.27843 0 53302.76679)
(-20254.78541 0 52185.12055)
(-20939.48575 0 51134.8321)
(-21637.15881 0 50154.19686)
(-22351.25523 0 49249.07709)
(-23080.6288 7.532948553e-11 48423.91462)
(-23820.51126 0 47681.13653)
(-24564.19858 0 47025.84349)
(-25307.3594 0 46466.81572)
(-26043.89087 -3.648947169e-11 46010.57186)
(-26761.39633 0 45664.85715)
(-27447.25715 0 45440.12377)
(-28086.81327 0 45347.3699)
(-28662.03224 0 45400.42194)
(-29152.53909 0 45610.75763)
(-29533.72218 0 45990.41888)
(-29776.3089 0 46550.31002)
(-29847.32352 0 47297.5322)
(-29708.83275 -1.796849474e-11 48237.5863)
(-29318.50759 1.800252572e-11 49370.6971)
(-28629.38898 0 50689.01892)
(-27584.1481 -1.810181346e-11 52173.17392)
(-26109.45533 0 53793.94102)
(-24117.4059 0 55516.16573)
(-21548.15526 0 57309.1694)
(-18512.49345 0 59144.28526)
(-15306.07202 -9.257205206e-12 60919.8464)
(-11252.23788 9.311373155e-12 62294.12774)
(-6196.845789 0 62772.95901)
(-2024.882282 0 69780.7254)
(89.50609266 0 69389.50721)
(-1973.136736 0 69490.58079)
(-4741.020257 3.071001278e-10 68712.91227)
(-5076.501878 -4.91170507e-10 67909.4238)
(-6170.982339 -2.065996939e-10 66967.28604)
(-7176.135961 0 65890.39087)
(-8106.599234 0 64704.8536)
(-8992.606249 1.453075515e-10 63424.29705)
(-9838.981793 0 62075.63248)
(-10645.59124 0 60674.00846)
(-11415.22416 0 59231.74256)
(-12154.63247 1.103964642e-10 57773.11083)
(-12868.18659 0 56301.22602)
(-13560.85074 0 54838.74956)
(-14240.23081 0 53387.54453)
(-14908.2903 0 51963.53203)
(-15571.77197 0 50570.94728)
(-16239.91033 8.802034227e-11 49215.93966)
(-16910.57224 0 47905.62353)
(-17592.06898 0 46642.73129)
(-18289.47736 0 45433.88522)
(-19001.22481 0 44276.81424)
(-19730.81459 0 43175.29692)
(-20482.30766 -7.83498863e-11 42132.60738)
(-21255.39042 0 41150.42499)
(-22048.38086 0 40229.04102)
(-22859.24198 0 39370.65123)
(-23685.70053 0 38578.7546)
(-24523.53843 0 37858.99391)
(-25366.60591 0 37215.90575)
(-26208.12783 0 36657.0531)
(-27038.09799 0 36192.36739)
(-27845.32564 0 35832.53025)
(-28616.00661 0 35592.48673)
(-29331.05652 0 35489.70693)
(-29967.66205 -1.821437777e-11 35540.92716)
(-30494.719 0 35766.69607)
(-30876.28964 0 36186.68965)
(-31069.79722 0 36819.23322)
(-31019.03116 -1.828288108e-11 37677.75051)
(-30657.82776 0 38771.99532)
(-29919.82245 0 40107.84467)
(-28749.79877 9.224564282e-12 41696.72279)
(-27113.52925 0 43558.88117)
(-25002.2852 0 45701.57249)
(-22420.36061 0 48073.33845)
(-19125.79473 -9.401368701e-12 50520.89929)
(-13725.05511 -9.456380213e-12 52670.98067)
(-6695.678286 0 53859.06449)
(-1822.51793 0 62148.01507)
(165.8348264 0 61920.629)
(-1657.63597 0 61935.68055)
(-4111.038981 0 61185.48207)
(-4362.098577 -2.494100133e-10 60394.99591)
(-5333.129312 0 59486.04018)
(-6220.135246 0 58452.31705)
(-7043.396254 0 57318.36989)
(-7839.724264 0 56107.78787)
(-8609.929887 0 54847.53385)
(-9350.532746 1.2627869e-10 53544.31374)
(-10069.38509 0 52225.71944)
(-10768.98296 0 50898.06091)
(-11453.79177 0 49581.41036)
(-12130.18424 0 48277.66318)
(-12800.03895 0 47003.09912)
(-13471.05379 0 45758.1484)
(-14144.31977 -9.193417289e-11 44551.58479)
(-14824.56409 -8.939117646e-11 43383.65856)
(-15519.12502 8.717076832e-11 42256.73679)
(-16228.74499 0 41171.26559)
(-16953.36052 0 40124.03361)
(-17697.95623 0 39114.24483)
(-18466.51822 0 38140.81861)
(-19257.97055 0 37200.04339)
(-20072.61599 0 36287.79808)
(-20910.2675 0 35401.30012)
(-21770.4522 0 34538.47709)
(-22651.43079 0 33697.63621)
(-23550.93592 0 32878.23418)
(-24466.37633 -3.763486562e-11 32079.6339)
(-25393.68737 0 31307.10077)
(-26326.0104 0 30565.83283)
(-27257.56611 0 29863.08069)
(-28182.18046 0 29212.14136)
(-29084.89796 0 28627.08477)
(-29948.89208 0 28130.5909)
(-30752.6556 0 27747.70244)
(-31463.68719 0 27509.86812)
(-32038.09361 0 27451.88446)
(-32423.31299 0 27611.60315)
(-32562.78481 0 28027.95538)
(-32404.20351 0 28737.30243)
(-31900.96476 0 29759.35133)
(-30962.26846 0 31077.17439)
(-29407.6372 0 32615.31845)
(-27059.2253 0 34290.9744)
(-23604.76195 -4.773893096e-12 36202.34985)
(-17367.44482 0 38743.84841)
(-8664.924428 0 42431.04228)
(-1768.50708 0 55658.3145)
(218.3304566 6.99465676e-10 55543.23735)
(-1327.405136 0 55539.29069)
(-3530.530143 0 55007.33948)
(-3712.928676 0 54450.05007)
(-4585.264947 0 53803.60679)
(-5376.569235 0 53053.70592)
(-6125.554745 0 52214.27138)
(-6867.037137 0 51308.30156)
(-7592.605749 1.378674959e-10 50339.29393)
(-8305.744932 0 49317.40844)
(-9009.14426 0 48255.70099)
(-9705.434408 0 47156.90227)
(-10395.21733 0 46032.41493)
(-11081.99515 0 44886.09014)
(-11771.9959 0 43720.448)
(-12461.46854 0 42542.06859)
(-13156.99949 0 41351.21419)
(-13862.02782 0 40149.73433)
(-14574.88751 0 38937.89119)
(-15298.02476 0 37714.89531)
(-16035.14662 0 36479.99019)
(-16786.9024 0 35233.81136)
(-17553.41544 0 33972.82428)
(-18334.99371 0 32695.1266)
(-19132.01963 0 31399.32281)
(-19944.86577 0 30085.17165)
(-20772.56149 0 28752.58498)
(-21614.54217 0 27402.89282)
(-22467.81179 0 26036.26198)
(-23333.83552 0 24659.62296)
(-24213.76768 -3.802608895e-11 23278.26399)
(-25101.17362 0 21900.48321)
(-25997.05371 0 20539.77806)
(-26898.71724 1.882959264e-11 19210.46171)
(-27802.82761 0 17930.69711)
(-28705.40151 0 16727.59184)
(-29592.52914 0 15630.38364)
(-30447.80529 -1.879707318e-11 14676.9695)
(-31244.36241 1.882113565e-11 13912.11452)
(-31939.17822 0 13388.92454)
(-32471.18036 0 13163.53119)
(-32750.48353 0 13289.59372)
(-32640.22501 0 13803.92602)
(-31947.16988 0 14724.48816)
(-30541.39438 -4.798061638e-12 16079.65901)
(-28715.67529 0 17955.87645)
(-27074.979 0 20605.22231)
(-25018.45845 0 24727.46617)
(-16718.87284 0 31296.58738)
(-1708.101978 2.257672283e-09 50592.39581)
(241.2724753 0 50213.98375)
(-1207.363023 0 50285.43666)
(-3295.186958 -3.493716254e-10 49931.7764)
(-3439.485503 0 49508.12356)
(-4246.123842 0 49034.03986)
(-4963.326833 0 48472.07904)
(-5640.949887 0 47842.14706)
(-6307.892797 0 47157.22265)
(-6956.0736 1.52071065e-10 46414.14492)
(-7590.799377 0 45631.47184)
(-8213.913139 0 44805.75253)
(-8827.769225 1.255922375e-10 43952.05552)
(-9437.807643 0 43065.88111)
(-10043.10421 5.721185244e-11 42162.55908)
(-10648.71706 5.501866912e-11 41238.87969)
(-11259.83047 1.062584655e-10 40299.25861)
(-11873.79493 0 39348.85661)
(-12495.29717 0 38387.41937)
(-13128.71759 4.882439961e-11 37416.46376)
(-13773.81181 -4.773582906e-11 36436.62179)
(-14432.08939 -4.678152232e-11 35448.30793)
(-15105.2326 0 34450.96476)
(-15794.23769 0 33444.28134)
(-16500.0359 -4.456726746e-11 32427.35548)
(-17224.54806 -4.400549525e-11 31400.2949)
(-17968.91894 0 30363.35724)
(-18734.41492 0 29318.32321)
(-19519.60911 0 28266.56662)
(-20329.13817 0 27210.8875)
(-21167.1285 0 26160.48976)
(-22032.36051 0 25117.54855)
(-22929.38628 2.088535455e-11 24091.92591)
(-23862.00238 0 23093.81306)
(-24832.46292 0 22134.77245)
(-25846.14801 0 21232.28962)
(-26905.39567 0 20399.92922)
(-28008.73823 0 19656.60095)
(-29151.96675 0 19024.9571)
(-30320.94724 0 18528.33752)
(-31488.53935 1.039973499e-11 18192.06601)
(-32608.14055 -1.042549292e-11 18045.74639)
(-33605.44209 -1.045709171e-11 18117.60246)
(-34381.95154 0 18447.49411)
(-34834.39402 0 19109.22885)
(-34901.68691 0 20258.46582)
(-34813.75807 0 22289.72505)
(-35377.82521 2.673860396e-12 25953.29141)
(-36292.16417 2.689506299e-12 30900.32376)
(-29193.01109 2.867115069e-13 30680.0687)
(-1461.855813 -2.311993518e-09 45709.47481)
(436.8485215 0 45187.40768)
(-944.6532258 0 45232.24924)
(-2881.950856 -3.577777604e-10 44750.56662)
(-2952.837383 -2.86111708e-10 44209.67563)
(-3665.576654 -2.406927548e-10 43586.35475)
(-4308.364656 0 42864.6342)
(-4925.250619 0 42076.00975)
(-5537.316392 0 41226.99196)
(-6143.484558 0 40330.56778)
(-6745.22197 -1.448611107e-10 39403.07352)
(-7344.296013 0 38449.35394)
(-7940.892406 0 37484.02111)
(-8537.926189 -1.224267283e-10 36512.87778)
(-9139.001919 -5.858841119e-11 35541.52535)
(-9740.293665 1.126849162e-10 34579.50329)
(-10347.15057 5.440756079e-11 33627.53637)
(-10961.62632 0 32687.80889)
(-11582.24008 5.127272543e-11 31766.07005)
(-12209.21102 0 30860.44754)
(-12844.43317 4.888438769e-11 29971.26863)
(-13489.71454 0 29098.26324)
(-14144.92883 4.704983788e-11 28240.60355)
(-14809.80215 4.629803453e-11 27396.33699)
(-15484.49669 0 26564.92755)
(-16170.31342 0 25746.07812)
(-16869.52172 4.456352567e-11 24938.6777)
(-17583.4699 0 24143.81084)
(-18311.17292 0 23363.42676)
(-19056.519 0 22603.2015)
(-19823.12424 0 21867.20505)
(-20613.22368 -2.147642919e-11 21162.49222)
(-21428.28734 2.138787141e-11 20499.28675)
(-22273.59394 0 19889.80138)
(-23156.05517 0 19350.16795)
(-24076.48781 0 18897.09004)
(-25039.16508 2.122011256e-11 18549.4446)
(-26049.39175 0 18330.96544)
(-27109.5339 0 18265.46886)
(-28218.15157 -1.062982798e-11 18376.00406)
(-29372.86007 1.064996019e-11 18681.27331)
(-30563.70474 0 19192.68741)
(-31772.62246 0 19905.60901)
(-32977.49485 -1.074680098e-11 20799.4915)
(-34163.21853 5.395219829e-12 21837.35996)
(-35454.15323 0 23042.23847)
(-37359.47491 0 24647.52865)
(-39781.40678 -5.476390829e-12 26363.53216)
(-38848.71495 0 25083.2548)
(-29781.07737 2.863020268e-13 17116.20626)
(-1262.058905 0 41240.08087)
(560.6852721 0 40847.39559)
(-726.8542553 4.990723649e-10 40956.28697)
(-2507.623768 0 40544.9331)
(-2523.246631 -2.930795859e-10 40103.413)
(-3144.553022 0 39592.15782)
(-3708.137157 0 38998.79008)
(-4251.288591 0 38339.21344)
(-4793.877197 1.734089342e-10 37615.85743)
(-5337.351293 0 36846.22453)
(-5880.805461 7.419450689e-11 36031.33314)
(-6426.373518 -6.964622138e-11 35185.07854)
(-6977.253548 6.587315326e-11 34308.57155)
(-7531.518509 0 33416.60543)
(-8093.341731 0 32507.94782)
(-8663.302894 0 31590.95677)
(-9239.337805 5.573258614e-11 30672.27169)
(-9824.95528 1.08031064e-10 29754.04187)
(-10421.64017 0 28839.88728)
(-11028.12611 0 27932.07909)
(-11644.99404 0 27035.17557)
(-12273.05948 0 26151.19778)
(-12912.81218 0 25282.01844)
(-13565.40052 0 24429.0436)
(-14232.78979 4.675108092e-11 23597.55545)
(-14915.28188 4.616178187e-11 22791.4214)
(-15615.31267 4.564881211e-11 22016.40773)
(-16338.85628 4.520462598e-11 21277.10341)
(-17088.69529 0 20584.29443)
(-17870.13725 0 19949.05478)
(-18690.12236 0 19385.02642)
(-19556.39013 0 18906.46262)
(-20479.27103 2.190874511e-11 18534.122)
(-21468.25698 4.367691776e-11 18292.72864)
(-22535.3299 0 18205.74333)
(-23693.05823 0 18301.60744)
(-24952.93288 0 18612.85744)
(-26324.04924 -2.173580804e-11 19170.71077)
(-27808.96567 -2.174956532e-11 20002.89477)
(-29392.84254 -1.088870357e-11 21125.43057)
(-31040.93491 0 22535.93361)
(-32686.02342 -1.093634624e-11 24192.82889)
(-34215.74059 0 25996.79798)
(-35477.28241 1.100852534e-11 27768.90868)
(-36304.81518 0 29243.83786)
(-36591.49406 0 30090.92101)
(-36226.92329 0 29799.5292)
(-34571.69682 2.80488059e-12 27228.80981)
(-30193.04941 0 21037.02457)
(-22492.93637 3.147527821e-13 12467.76317)
(-1140.169935 0 37435.47125)
(626.2449299 0 37169.19632)
(-565.1625565 0 37286.31751)
(-2218.830687 0 36958.61488)
(-2193.309762 0 36603.48317)
(-2746.308904 -2.526330405e-10 36195.86589)
(-3250.753293 0 35727.01182)
(-3734.704111 1.95858125e-10 35201.69888)
(-4224.370038 8.884206957e-11 34627.88616)
(-4718.417529 0 34018.50885)
(-5216.966819 0 33371.872)
(-5720.969738 0 32702.95711)
(-6233.37725 -6.749718238e-11 32011.40979)
(-6754.530694 -6.425003658e-11 31305.36366)
(-7283.117716 0 30590.75966)
(-7823.574036 0 29868.85595)
(-8375.516237 0 29144.84729)
(-8937.818138 0 28423.82785)
(-9510.273804 0 27706.1603)
(-10094.62151 -5.247950782e-11 26994.95435)
(-10692.23298 0 26292.71191)
(-11302.54906 0 25601.76069)
(-11924.75953 0 24923.43257)
(-12561.85619 0 24261.88645)
(-13217.1205 -4.79036769e-11 23620.17087)
(-13892.64905 -4.729984937e-11 23001.15829)
(-14589.46469 4.677423285e-11 22412.38705)
(-15314.9102 0 21860.5333)
(-16076.03563 -4.592780975e-11 21353.64123)
(-16879.14171 0 20902.77153)
(-17731.29773 0 20518.86741)
(-18642.74137 0 20214.8955)
(-19628.36499 0 20007.8728)
(-20697.66637 0 19913.83881)
(-21862.81142 0 19949.6019)
(-23139.05699 0 20134.94429)
(-24539.51473 0 20488.91784)
(-26072.39747 0 21028.02663)
(-27739.33153 -1.114288833e-11 21766.61293)
(-29527.40038 0 22707.20995)
(-31394.79603 0 23834.36394)
(-33252.66264 0 25089.19846)
(-34946.6546 0 26349.64803)
(-36241.52087 0 27396.47665)
(-36832.91045 0 27903.68363)
(-36375.45693 5.688573389e-12 27450.02677)
(-34494.64426 0 25535.15927)
(-30888.98195 -2.874031797e-12 21754.61462)
(-25615.05761 0 16356.02286)
(-19235.53711 3.372076166e-13 10579.51743)
(-1065.367847 0 33966.67874)
(667.2246915 0 33765.81169)
(-424.2166054 0 33875.55846)
(-1966.732702 -3.849001282e-10 33596.75555)
(-1904.004015 0 33288.55402)
(-2397.08016 0 32940.22085)
(-2848.004752 -1.126405112e-10 32536.81602)
(-3281.178623 1.003735258e-10 32082.45666)
(-3725.262013 0 31592.01127)
(-4175.526984 8.376778187e-11 31066.56158)
(-4634.109948 0 30515.09008)
(-5103.321563 7.314461113e-11 29940.6681)
(-5581.747578 0 29353.29173)
(-6073.710219 0 28751.40037)
(-6576.874084 0 28144.39322)
(-7091.42124 0 27535.66012)
(-7620.121408 -5.853208169e-11 26927.84459)
(-8162.344856 0 26323.48978)
(-8717.379634 5.51596013e-11 25725.65838)
(-9285.597794 0 25138.31694)
(-9867.634281 0 24563.13878)
(-10464.0033 0 24001.53328)
(-11076.22577 0 23456.35873)
(-11705.92875 0 22933.06407)
(-12354.06346 0 22433.44545)
(-13027.01805 -4.848052777e-11 21962.59881)
(-13729.57715 2.397089565e-11 21525.39431)
(-14466.17546 0 21132.08413)
(-15245.29307 -2.353711997e-11 20787.33733)
(-16076.06394 2.336638909e-11 20503.20524)
(-16966.4111 2.322292031e-11 20287.60806)
(-17928.03502 0 20155.25457)
(-18976.11245 0 20118.50672)
(-20122.034 0 20190.29675)
(-21380.31944 0 20386.6439)
(-22766.84922 -2.284641274e-11 20725.00797)
(-24294.1532 -2.282876411e-11 21221.37165)
(-25973.87263 -1.141380806e-11 21893.28257)
(-27805.19673 1.142103234e-11 22750.18894)
(-29763.78912 0 23786.41415)
(-31783.99857 0 24962.00252)
(-33729.34765 0 26175.26997)
(-35362.56052 0 27223.70727)
(-36338.81539 5.78074655e-12 27784.08836)
(-36263.77975 0 27450.79837)
(-34804.62477 5.83056913e-12 25852.8293)
(-31828.37831 0 22836.05502)
(-27527.98489 0 18650.20202)
(-22433.07533 0 13966.18494)
(-17140.10119 0 9559.963758)
(-1007.926754 0 30891.30235)
(697.357399 4.357353219e-10 30719.06958)
(-302.2253705 2.68694967e-10 30827.77821)
(-1747.711914 0 30590.96662)
(-1654.153459 -1.577907634e-10 30331.76949)
(-2094.542115 0 30040.81926)
(-2496.712065 3.464631878e-10 29700.17185)
(-2886.589408 0 29318.11844)
(-3289.600451 9.336142651e-11 28907.32271)
(-3702.62015 -8.588518305e-11 28464.54402)
(-4126.555533 -7.989098202e-11 28004.6376)
(-4564.630221 -7.49934898e-11 27524.05947)
(-5015.177495 -7.093073427e-11 27033.49554)
(-5479.230561 0 26536.00057)
(-5960.548036 0 26033.03534)
(-6457.03121 0 25531.80133)
(-6967.845298 0 25034.88291)
(-7493.239699 0 24544.12347)
(-8034.511491 0 24062.88754)
(-8591.960536 0 23593.7004)
(-9164.580184 0 23138.90869)
(-9752.842505 0 22700.381)
(-10360.00474 0 22282.15764)
(-10988.34344 0 21885.50643)
(-11639.25401 0 21514.78455)
(-12316.69521 0 21176.19317)
(-13028.46234 0 20871.4994)
(-13780.15053 0 20609.9069)
(-14579.25823 0 20396.0688)
(-15436.07267 -2.395702208e-11 20238.87156)
(-16360.01674 2.380992696e-11 20145.80179)
(-17363.13576 0 20128.63923)
(-18458.56049 0 20196.8516)
(-19660.86141 0 20361.66133)
(-20985.86674 0 20638.37911)
(-22450.48316 0 21042.27679)
(-24071.32249 0 21590.78195)
(-25857.26298 0 22298.47463)
(-27803.31467 1.170972215e-11 23169.52643)
(-29873.8246 0 24189.86513)
(-31971.83393 0 25294.3758)
(-33899.59752 0 26336.35617)
(-35332.40011 1.181170437e-11 27048.55366)
(-35848.44914 -5.926866636e-12 27059.31766)
(-35055.57214 0 26001.26105)
(-32782.52645 0 23697.58702)
(-29199.78872 3.003910026e-12 20310.14051)
(-24776.6766 0 16320.22154)
(-20099.87617 -1.518952617e-12 12329.4604)
(-15613.49301 1.899593179e-12 8788.428128)
(-960.3403903 0 28156.30056)
(718.7390479 0 28002.62146)
(-199.3645422 0 28112.49043)
(-1563.498306 0 27917.3194)
(-1446.074943 1.618302971e-10 27705.87608)
(-1839.013167 -1.361404619e-10 27468.77243)
(-2200.850254 0 27188.69439)
(-2555.014239 0 26879.72462)
(-2922.590509 0 26543.98734)
(-3303.93165 0 26187.19299)
(-3699.301243 0 25813.56105)
(-4109.29288 7.691336594e-11 25429.4278)
(-4538.229993 0 25034.72661)
(-4981.814545 0 24638.36973)
(-5442.426258 6.627746941e-11 24241.71496)
(-5922.344824 0 23847.92883)
(-6419.400961 -6.154793015e-11 23458.60045)
(-6933.445504 0 23078.04122)
(-7464.536464 0 22708.50233)
(-8012.938628 0 22351.57258)
(-8578.829754 -5.529990386e-11 22008.07372)
(-9163.400194 0 21680.96052)
(-9766.902721 -5.322459046e-11 21372.90947)
(-10392.1264 5.237412145e-11 21085.42969)
(-11044.96814 0 20820.89357)
(-11726.38975 -5.097847277e-11 20583.71562)
(-12444.11004 0 20378.35837)
(-13205.62966 0 20209.65043)
(-14017.07662 0 20082.05918)
(-14889.85226 0 20002.85816)
(-15834.4363 0 19979.99572)
(-16862.85306 0 20022.38723)
(-17988.04758 0 20139.27546)
(-19227.17303 0 20343.69125)
(-20598.52207 0 20650.9745)
(-22120.41213 0 21077.68301)
(-23809.74741 1.200250477e-11 21641.5002)
(-25674.66406 0 22353.83907)
(-27705.79106 1.200949771e-11 23218.37363)
(-29846.13135 1.202487124e-11 24202.82438)
(-31957.65065 1.204764552e-11 25213.50129)
(-33778.5851 0 26053.63286)
(-34909.36803 0 26407.8527)
(-34908.76044 -6.078597787e-12 25907.37687)
(-33484.51239 0 24300.60954)
(-30673.2614 6.130987523e-12 21621.18924)
(-26854.00156 3.080811835e-12 18212.6718)
(-22576.44822 3.097552223e-12 14574.27685)
(-18348.93139 -1.557838673e-12 11156.84166)
(-14471.68619 -1.181870119e-12 8216.674926)
(-920.0585646 0 25712.25386)
(733.4400268 0 25573.79306)
(-116.5480616 2.827200254e-10 25687.44038)
(-1411.845463 0 25531.36894)
(-1274.792201 0 25360.79967)
(-1626.907866 -1.396709235e-10 25171.17035)
(-1956.598033 1.215158366e-10 24949.32857)
(-2280.586295 1.082822941e-10 24706.10539)
(-2620.102409 0 24439.63838)
(-2975.161027 0 24162.23559)
(-3347.74528 0 23869.29062)
(-3736.686547 7.890792151e-11 23572.09387)
(-4144.180633 0 23270.27559)
(-4572.717959 7.104266286e-11 22965.89295)
(-5020.234294 6.799620941e-11 22665.9324)
(-5485.712578 0 22370.28862)
(-5970.293315 0 22081.14971)
(-6474.651195 0 21800.85217)
(-6997.593006 -5.950581211e-11 21530.6361)
(-7538.065912 0 21271.80236)
(-8096.316993 0 21025.05387)
(-8674.912665 0 20792.79692)
(-9275.179696 0 20574.25238)
(-9896.962371 -5.373231312e-11 20373.07768)
(-10545.51494 0 20191.00993)
(-11226.24738 5.230047189e-11 20029.27266)
(-11944.76412 2.585964325e-11 19894.56252)
(-12706.97562 2.560801586e-11 19788.13419)
(-13521.18668 2.539168904e-11 19715.43336)
(-14399.58098 -2.520750565e-11 19683.85426)
(-15352.82757 0 19701.0087)
(-16392.93223 2.492499369e-11 19774.81392)
(-17535.09635 0 19916.26054)
(-18798.40026 0 20140.60631)
(-20202.27674 0 20462.96069)
(-21767.5439 0 20901.83657)
(-23510.31059 0 21473.29344)
(-25437.96491 0 22189.23869)
(-27529.33047 1.2320934e-11 23043.84624)
(-29701.67509 1.233670615e-11 23984.65505)
(-31769.9055 0 24885.67968)
(-33407.96518 0 25505.34112)
(-34176.42019 -1.242823938e-11 25507.90934)
(-33674.78976 0 24578.88752)
(-31757.93607 0 22608.00084)
(-28642.48636 0 19784.76416)