/*--------------------------------*- C++ -*----------------------------------*\
  =========                 |
  \\      /  F ield         | OpenFOAM: The Open Source CFD Toolbox
   \\    /   O peration     | Website:  https://openfoam.org
    \\  /    A nd           | Version:  7
     \\/     M anipulation  |
\*---------------------------------------------------------------------------*/
FoamFile
{
    version     2.0;
    format      ascii;
    class       volScalarField;
    location    "0.0009";
    object      T;
}
// * * * * * * * * * * * * * * * * * * * * * * * * * * * * * * * * * * * * * //

dimensions      [0 0 0 1 0 0 0];

internalField   nonuniform List<scalar> 
1167
(
434.2476078
434.286142
434.4129573
434.4521299
434.5360407
434.6599541
434.8211466
435.0172176
435.2457833
435.5046099
435.7918452
436.1055397
436.4434205
436.8040361
437.185714
437.586406
438.0050671
438.4398557
438.8895712
439.3528487
439.8283795
440.3151292
440.8117852
441.3175278
441.8311228
442.3518004
442.8785051
443.4104598
443.9467992
444.4866162
445.0292623
445.5736647
446.1194122
446.6651977
447.2107334
447.7547384
448.2967987
448.8357716
449.3710143
449.9015921
450.4267586
450.9457516
451.4577499
451.9621958
452.4583599
452.945907
453.4243817
453.8936285
454.3535451
454.8041602
455.2459105
455.6789097
434.5771662
434.6170832
434.7025862
434.8288571
434.9931316
435.1929174
435.4257333
435.6896461
435.9826028
436.3024324
436.64722
437.0154357
437.4050572
437.8146397
438.2427413
438.6875843
439.1482821
439.6229621
440.1110481
440.6108103
441.1217645
441.6423179
442.1720813
442.7095546
443.2544137
443.8053889
444.3619457
444.9230971
445.4880427
446.0561046
446.6261186
447.1976153
447.7692333
448.3404241
448.9099425
449.4767825
450.0399656
450.5981277
451.1504835
451.695348
452.2320958
452.7591797
453.2759688
453.7812564
454.2745651
454.7550723
455.2228312
455.6774533
456.1196006
456.5493333
434.7404088
434.7811872
434.8685335
434.9975365
435.1653666
435.3693152
435.6073038
435.8771621
436.1767908
436.5038501
436.8568753
437.2340005
437.633262
438.0535084
438.4928071
438.9500888
439.4238439
439.9129608
440.4162311
440.9326457
441.4611446
442.0009083
442.5508364
443.1104369
443.6784551
444.2545971
444.8376848
445.4272063
446.0223453
446.622087
447.2258939
447.8324644
448.4410891
449.0506286
449.6596343
450.2671818
450.8715274
451.4713041
452.0649072
452.6503138
453.2261351
453.7901745
454.3409478
454.8765806
455.3957302
455.8971542
456.3800331
456.8439347
457.2890409
457.7157597
434.9028551
434.9446226
435.0340873
435.1662105
435.3379406
435.5469495
435.7909222
436.0676769
436.3748353
436.7106138
437.0732959
437.4607382
437.8716197
438.3043296
438.7572614
439.2293855
439.7190747
440.2256447
440.7475875
441.2843869
441.8348054
442.398249
442.9738921
443.5609479
444.1590315
444.7669868
445.384632
446.01114
446.6456911
447.2878142
447.9364392
448.5907396
449.2498166
449.9121773
450.5766708
451.2418334
451.9055909
452.5660884
453.2211826
453.8680784
454.5042363
455.1268248
455.7324911
456.318632
456.8821035
457.4204454
457.9315866
458.4141333
458.8676222
459.292575
435.0646688
435.1075645
435.1993768
435.3349217
435.5113596
435.7261676
435.9770134
436.2615532
436.5776044
436.9234875
437.2972025
437.696935
438.1214445
438.5687227
439.0379466
439.5274652
440.0365247
440.5637441
441.1086454
441.669918
442.2473369
442.839834
443.4471269
444.06869
444.7037654
445.3522519
446.0135238
446.6870285
447.3724956
448.0692618
448.7764868
449.4936085
450.2196666
450.9532867
451.6931755
452.4376809
453.1847239
453.9316242
454.6755982
455.413299
456.1408107
456.8534127
457.5465006
458.2148777
458.8528892
459.4555832
460.018245
460.5369794
461.0098084
461.4361433
435.2258984
435.2700101
435.3644991
435.5041125
435.6858997
435.907309
436.1659727
436.4593406
436.785724
437.1432318
437.5296002
437.9436948
438.3837351
438.8483822
439.3364728
439.8467735
440.3784477
440.9305755
441.502424
442.0935568
442.7030764
443.3310219
443.9768238
444.6402093
445.3211796
446.019398
446.7346613
447.4670087
448.2162492
448.9818996
449.7637004
450.561261
451.3738808
452.2005967
453.0400022
453.8905986
454.7502495
455.6162728
456.4852855
457.3530416
458.2143443
459.0628895
459.8913504
460.6912751
461.4532206
462.1671516
462.822715
463.4110919
463.9252159
464.3617012
435.3866774
435.4322266
435.5297985
435.6739996
435.8618267
436.0907017
436.3579813
436.6616558
436.999807
437.3702951
437.7714986
438.2020339
438.6600509
439.144854
439.654743
440.1894087
440.7474853
441.3288345
441.9326778
442.5586978
443.2068797
443.8767515
444.5685754
445.2824815
446.0184602
446.7767353
447.5577187
448.3616845
449.1888696
450.0393152
450.9133356
451.8109562
452.7319965
453.6760789
454.6424686
455.6300125
456.637069
457.6612182
458.6991607
459.7464842
460.7972713
461.8438012
462.8762423
463.8821502
464.8463666
465.7508496
466.5752667
467.2984937
467.9009561
468.3690877
435.5472615
435.59442
435.6954446
435.8447876
436.0393926
436.2764817
436.5536735
436.868981
437.2203518
437.6056838
438.0237763
438.4727808
438.951691
439.459234
439.9946736
440.557056
441.1462082
441.7612155
442.4023492
443.0694323
443.7623823
444.4817363
445.2278497
446.0010365
446.8020121
447.6315698
448.4904887
449.3795711
450.2996579
451.251669
452.2364127
453.2546535
454.3071394
455.3943067
456.5165271
457.6737282
458.8653852
460.090385
461.3463868
462.6302117
463.9369282
465.2591011
466.5859588
467.9027121
469.1885337
470.4152001
471.5462187
472.5361223
473.3337893
473.8910742
435.7077727
435.7567241
435.8615935
436.0166668
436.2187376
436.465037
436.7534191
437.0817755
437.447808
437.8501004
438.2870856
438.7572232
439.259718
439.7933248
440.3576602
440.9520812
441.5763085
442.2304785
442.914375
443.6285521
444.3735772
445.150093
445.9586941
446.8006394
447.6770619
448.5892352
449.5385173
450.5264026
451.5545156
452.6244898
453.7380725
454.897045
456.1032267
457.3582307
458.6639007
460.0220198
461.4337054
462.9002362
464.4221696
465.9994499
467.630395
469.3118193
471.0371137
472.79471
474.5652559
476.3167559
477.9972614
479.5259174
480.783016
481.6086218
435.868316
435.9192586
436.0283874
436.1897559
436.4000198
436.6567277
436.9575648
437.3002685
437.6829167
438.1042007
438.5622187
439.0563144
439.5851298
440.1484702
440.7453024
441.375983
442.0403417
442.7384968
443.4712345
444.2392494
445.0433107
445.8846213
446.7646246
447.6848453
448.6470071
449.6529605
450.7047796
451.8047065
452.955091
454.1585249
455.4173895
456.7349152
458.1141559
459.5580016
461.0703122
462.6542938
464.3142762
466.05433
467.8788076
469.7925977
471.8008653
473.9087659
476.121301
478.4418813
480.8710094
483.4000914
486.0003759
488.5965654
491.0080646
492.8145993
436.0230562
436.0753916
436.1875195
436.3533033
436.5696776
436.8340405
437.1441276
437.4974884
437.8928248
438.3284563
438.8030316
439.3157619
439.8657217
440.4525884
441.0762462
441.7364666
442.4339063
443.1691162
443.9426559
444.7558452
445.6099902
446.5066215
447.4474626
448.4344961
449.4698522
450.5558921
451.6952191
452.8905575
454.1449451
455.4611593
456.8430594
458.2941737
459.8183757
461.4200745
463.1039503
464.8750943
466.7396154
468.7040082
470.7760517
472.9649403
475.2817652
477.7404738
480.3592558
483.1624377
486.1843455
489.4762346
493.1183429
497.2422197
502.0745502
508.0183779
436.1735489
436.2267126
436.3407421
436.5095794
436.7300659
436.9996417
437.3158841
437.6768663
438.0811946
438.5270328
439.0136968
439.5400155
440.1058101
440.7103267
441.3540551
442.0370519
442.7597405
443.5231812
444.3284006
445.1766639
446.0694051
447.0084905
447.9959458
449.0339591
450.1248644
451.2711898
452.4757146
453.7414781
455.0716614
456.4693935
457.9385451
459.4828386
461.1066095
462.8139524
464.6101687
466.5006812
468.4913562
470.5890568
472.801722
475.1385824
477.6103677
480.2306908
483.0157357
485.9865126
489.1701316
492.6018227
496.3290017
500.4149785
504.9462191
510.0442521
436.3262322
436.3803946
436.4966099
436.6687624
436.8937079
437.1689058
437.4918423
437.861072
438.2749337
438.731946
439.2314951
439.7724971
440.3549351
440.9785343
441.6434497
442.3503398
443.0998371
443.8927994
444.7306887
445.6149692
446.5473589
447.5297643
448.5643463
449.6533849
450.7994165
452.0051323
453.2732138
454.606661
456.0088112
457.4827791
459.032294
460.6608872
462.37264
464.1717557
466.0627113
468.050369
470.140017
472.3374545
474.649223
477.0828201
479.6461043
482.348837
485.2017653
488.217577
491.4110477
494.7993139
498.4021858
502.2423516
506.3456104
510.7432679
436.4814197
436.5367067
436.6553661
436.8312139
437.0611195
437.3423521
437.6729311
438.0512724
438.475548
438.9449303
439.4583966
440.0155947
440.6160408
441.2601679
441.9479977
442.6802785
443.4580396
444.282411
445.1547519
446.0765924
447.0498961
448.0767154
449.1592427
450.2996469
451.5006248
452.7647684
454.0949223
455.4935531
456.9640738
458.5092781
460.1326888
461.8371186
463.6263224
465.5038972
467.4734258
469.5386507
471.7037364
473.9728733
476.3504553
478.8411254
481.4499309
484.1819901
487.0425445
490.0372509
493.1715712
496.450601
499.8793686
503.4616694
507.2006989
511.0991828
436.6392348
436.6957696
436.8171328
436.9970608
437.2323219
437.5203249
437.8592945
438.2474808
438.6832749
439.166102
439.6947016
440.2692407
440.8892388
441.5551162
442.2674489
443.0268062
443.8342907
444.6912879
445.5992746
446.5599606
447.5752165
448.6471245
449.7778311
450.9696988
452.225059
453.5462108
454.9359877
456.3967921
457.9313254
459.5422068
461.2322687
463.0038721
464.8598998
466.8030869
468.8358893
470.9609711
473.1808297
475.497699
477.914183
480.4321895
483.0536865
485.7799792
488.6124183
491.5514289
494.5965226
497.7464375
500.9986706
504.3492687
507.7934125
511.3260905
436.7997939
436.8576955
436.9820168
437.1663808
437.4073926
437.702903
438.0509941
438.449725
438.898122
439.3951726
439.9403283
440.5332527
441.1742629
441.8632601
442.6012019
443.3889857
444.2277212
445.1186841
446.0634358
447.063787
448.1216399
449.2388881
450.4175913
451.6600424
452.9684119
454.3448085
455.7913931
457.3105845
458.9043111
460.5748437
462.3241612
464.1541891
466.0667181
468.0633861
470.1456331
472.3146863
474.5715756
476.9171788
479.3516368
481.8749371
484.486416
487.1850884
489.9687902
492.8349621
495.7798619
498.7988318
501.8861138
505.0350586
508.2384665
511.4895449
436.9632072
437.0225906
437.1501171
437.339073
437.5865283
437.8901426
438.2479276
438.6581379
439.1200492
439.6323202
440.1950597
440.807578
441.4704497
442.1840944
442.9489146
443.7661572
444.6370139
445.5628457
446.5452129
447.5857956
448.6864296
449.8489502
451.0753419
452.3672989
453.7268647
455.1560478
456.6562468
458.229651
459.8775239
461.6014745
463.4027968
465.2826543
467.2418657
469.280928
471.4003054
473.5999712
475.8796405
478.2384641
480.6750139
483.1878131
485.7740283
488.4310077
491.1549129
493.9408475
496.7836345
499.67708
502.6142625
505.5878353
508.5905338
511.6158937
437.1295791
437.1904999
437.3212928
437.5154245
437.7697889
438.0820801
438.4500909
438.8726855
439.3487144
439.8774026
440.4584444
441.0919073
441.7777163
442.5167221
443.3096757
444.1575683
445.061454
446.0228738
447.0433276
448.1244421
449.2677411
450.4749187
451.7477787
453.0879266
454.4966407
455.9756367
457.526076
459.1493634
460.8461385
462.6173873
464.4636891
466.3853646
468.3822142
470.453903
472.5997958
474.8187472
477.1093575
479.4692664
481.8962765
484.3871178
486.9382392
489.5452972
492.2036256
494.9072269
497.6502855
500.4261355
503.2277178
506.0478081
508.879787
511.7180866
437.298806
437.3613957
437.4958567
437.6955029
437.9572203
438.2785567
438.6575979
439.093303
439.5842099
440.13023
440.7304949
441.3855553
442.095567
442.8608827
443.6826134
444.5617345
445.4993975
446.4969168
447.555681
448.6771785
449.8628353
451.1141537
452.4321939
453.8184852
455.2741166
456.7999173
458.396863
460.0655597
461.8060891
463.6187569
465.5034185
467.4594514
469.485883
471.5815959
473.7449015
475.9738262
478.2657407
480.6176337
483.026274
485.4874013
487.9968646
490.5494643
493.139943
495.7619679
498.4096532
501.0762656
503.7549707
506.439511
509.1240025
511.8034156
437.4711527
437.5355393
437.6738842
437.879365
438.1488538
438.4796459
438.8704047
439.3196734
439.8264173
440.3902433
441.0108857
441.6883042
442.4230842
443.2157852
444.0671012
444.978068
445.9498729
446.9837079
448.0808437
449.2424298
450.4696003
451.7636738
453.1256405
454.5560219
456.0558802
457.6253719
459.2650637
460.9747154
462.7539949
464.6024805
466.5192757
468.5029362
470.5518514
472.6640541
474.8370828
477.0682302
479.3539862
481.6908449
484.0747284
486.5008829
488.9646369
491.4605517
493.9829753
496.5258289
499.0831527
501.6484334
504.2158942
506.7794454
509.3343035
511.8763595
437.6467342
437.7130117
437.8554425
438.0670571
438.3444414
438.6854194
439.0884457
439.551816
440.075146
440.6574598
441.2990484
441.9997428
442.7599244
443.5803645
444.4618039
445.4051206
446.4113212
447.4814439
448.6165756
449.8176895
451.0857616
452.4212881
453.8250991
455.2975759
456.8388017
458.4488403
460.127498
461.8737695
463.6870315
465.5661038
467.5092897
469.5145489
471.5796836
473.7019478
475.8783475
478.1054177
480.3791541
482.6955613
485.050147
487.4378634
489.8537045
492.2922792
494.7476585
497.2144352
499.6864133
502.1582077
504.6238716
507.078881
509.5185052
511.9398522
437.8256312
437.8938866
438.0405903
438.2584667
438.5442431
438.8958406
439.3114231
439.7896577
440.3299307
440.9315977
441.5945713
442.3191194
443.1054935
443.9541649
444.8660078
445.8418117
446.8824272
447.9887259
449.1615216
450.4012339
451.7087522
453.0844524
454.5282184
456.0403128
457.6201714
459.2675124
460.9812492
462.7601491
464.6028835
466.5076346
468.4720394
470.4935779
472.5694181
474.6962681
476.8706642
479.0886246
481.345849
483.6378454
485.9599424
488.3070705
490.6739773
493.055447
495.4457081
497.8395802
500.2316124
502.6163349
504.9891702
507.3455729
509.6819684
511.9959111
438.0079182
438.078231
438.22927
438.4536477
438.7482521
439.1108583
439.5393579
440.0330291
440.5906602
441.212236
441.8971898
442.645885
443.4587004
444.3360966
445.2786367
446.2869841
447.3617963
448.5037375
449.7133194
450.9909822
452.3367624
453.7506458
455.2325432
456.7816551
458.3974402
460.0787971
461.8240366
463.6316589
465.4996693
467.4255781
469.4065588
471.4396679
473.5214763
475.6483506
477.8163358
480.0211808
482.2583299
484.5230164
486.8105516
489.1158787
491.4336862
493.7589145
496.0864286
498.41091
500.7275515
503.0317313
505.318947
507.5855055
509.8285488
512.0459743
480.9060425
483.1204897
485.35585
487.6074806
489.87042
492.1397513
494.4101297
496.677048
498.9357557
501.181729
503.4106155
505.6188311
507.8031346
509.9611154
512.0910987
)
;

boundaryField
{
    front_top
    {
        type            wedge;
    }
    front_middle
    {
        type            wedge;
    }
    front_bottom
    {
        type            wedge;
    }
    back_top
    {
        type            wedge;
    }
    back_middle
    {
        type            wedge;
    }
    back_bottom
    {
        type            wedge;
    }
    axis_top
    {
        type            symmetryPlane;
    }
    axis_middle
    {
        type            symmetryPlane;
    }
    axis_bottom
    {
        type            symmetryPlane;
    }
    wall_top
    {
        type            convectiveRadiativeHeatFlux;
        mode            convectiveRadiative;
        kappaMethod     fluidThermo;
        kappa           none;
        alphaAni        Anialpha;
        h               uniform 165;
        Ta              constant 513.15;
        emissivityNozzle 0.95;
        emissivityFilament 0.95;
        dNozzle         2;
        dFilament       1.65;
        refValue        uniform 513.15;
        refGradient     nonuniform List<scalar> 10(5206.232054 5139.45166 5049.77285 4927.84077 4760.507029 4530.080732 4208.884165 3755.208094 3096.316455 2078.439011);
        valueFraction   nonuniform List<scalar> 10(0.003177837955 0.003177131297 0.003176409896 0.003175628905 0.003174791866 0.003174740094 0.003175833688 0.003179898466 0.003190226212 0.003214105647);
        value           nonuniform List<scalar> 10(455.8930377 456.760112 457.9221359 459.4928981 461.6284049 464.543007 468.5354831 474.037152 481.726291 492.8910251);
    }
    wall_middle
    {
        type            fixedValue;
        value           uniform 513.15;
    }
    wall_bottom
    {
        type            fixedValue;
        value           nonuniform 0();
    }
    inlet
    {
        type            fixedValue;
        value           nonuniform 0();
    }
    outlet
    {
        type            zeroGradient;
    }
    procBoundary5to4
    {
        type            processor;
        value           nonuniform List<scalar> 
51
(
438.1936036
438.2659467
438.4214773
438.6527283
438.9564485
439.3301723
439.7722106
440.281564
440.8571686
441.4987974
442.2063593
442.9796447
443.8191389
444.7252599
445.6984518
446.7392024
447.8479674
449.0251372
450.2707549
451.5848922
452.9674973
454.4179527
455.9356014
457.5194393
459.1683345
460.8803851
462.6538248
464.4864787
466.3758288
468.3188225
470.3122697
472.3527711
474.4364868
476.5595053
478.7174845
478.7174845
481.7460809
483.9357471
486.1405638
488.3555769
490.5761639
492.797542
495.0149659
497.2239546
499.4200769
501.5994181
503.7582569
505.8933283
508.0018346
510.0818565
512.1320823
)
;
    }
    procBoundary5to6
    {
        type            processor;
        value           nonuniform List<scalar> 
51
(
434.0808429
434.1188882
434.3686884
434.3686884
434.4905838
434.649142
434.8419926
435.0669119
435.3215399
435.6039365
435.912282
436.2445899
436.59886
436.973742
437.3673325
437.7781389
438.2048732
438.6456939
439.0997864
439.5653651
440.0417208
440.5272949
441.0213872
441.522643
442.0303996
442.543396
443.0611149
443.5823263
444.1066437
444.6327837
445.1605168
445.6885245
446.2166512
446.7436769
447.2693277
447.7925849
448.3130783
448.82992
449.3426754
449.8506138
450.3533567
450.8502959
451.3411168
451.8253385
452.3028439
452.7732492
453.2367504
453.6930224
454.1425649
454.5850462
455.0212579
)
;
    }
}


// ************************************************************************* //
