/*--------------------------------*- C++ -*----------------------------------*\
  =========                 |
  \\      /  F ield         | OpenFOAM: The Open Source CFD Toolbox
   \\    /   O peration     | Website:  https://openfoam.org
    \\  /    A nd           | Version:  7
     \\/     M anipulation  |
\*---------------------------------------------------------------------------*/
FoamFile
{
    version     2.0;
    format      ascii;
    class       volScalarField;
    location    "0.0009";
    object      thermo:mu;
}
// * * * * * * * * * * * * * * * * * * * * * * * * * * * * * * * * * * * * * //

dimensions      [1 -1 -1 0 0 0 0];

internalField   nonuniform List<scalar> 
1167
(
417276.4138
415589.8062
410094.3583
408413.7807
404840.4548
399629.2287
392965.357
385031.3221
376014.205
366095.5073
355439.179
344207.3438
332564.5527
320636.3189
308545.6406
296415.0725
284324.7561
272367.4745
260606.7188
249100.7951
237897.1593
227028.6341
216527.0244
206407.1386
196686.8489
187370.1932
178462.6141
169961.3403
161862.4957
154160.4878
146844.2881
139907.1967
133332.9198
127115.2883
121235.5987
115685.815
110448.4823
105513.3776
100865.46
96492.50591
92380.90651
88517.60434
84890.41218
81485.8213
78292.1813
75296.02955
72485.5692
69848.14528
67371.83952
65045.04587
62855.16964
60792.32602
403102.281
401423.3937
397854.2004
392649.8165
385995.9602
378077.9934
369085.9137
359189.235
348559.641
337366.668
325761.7024
313873.4722
301835.7164
289751.9887
277714.9057
265814.8349
254107.4053
242663.7644
231514.0135
220707.3182
210257.9284
200197.1579
190526.894
181265.2436
172405.425
163953.4527
155900.7213
148243.31
140972.5384
134076.8081
127549.0849
121373.2114
115542.0466
110039.1454
104854.5884
99975.54452
95388.75
91083.83635
87045.8451
83266.47442
79730.01943
76427.37051
73343.94022
70469.33472
67789.66167
65293.88121
62967.41256
60799.12998
58774.11101
56881.59189
396287.0162
394605.3176
391030.7275
385819.3357
379158.6963
371242.1297
362243.8631
352343.1223
341713.5534
330530.4621
318930.3203
307053.8525
295032.841
282962.9588
270951.3185
259069.3462
247389.9801
235966.049
224843.8916
214057.2931
203634.0453
193590.9871
183944.7749
174696.7446
165857.1259
157417.4859
149380.1197
141735.2275
134475.4673
127593.9361
121076.7865
114917.3158
109101.3451
103618.1634
98458.61327
93608.19066
89058.36257
84796.77958
80812.35544
77096.16351
73634.83233
70419.79902
67438.27887
64679.96628
62132.23692
59782.8201
57618.4911
55625.58442
53789.3091
52095.59073
389636.3502
387947.1871
384357.3525
379125.541
372447.4955
364501.8274
355472.8455
345541.0791
334890.678
323678.4376
312051.2647
300159.29
288115.596
276031.1797
264004.7736
252108.6635
240419.8953
228982.8618
217852.2921
207053.2569
196619.0941
186564.2359
176902.5185
167642.3502
158782.2149
150328.7624
142271.8284
134608.095
127331.6059
120430.6604
113898.5826
107724.3869
101896.6019
96407.54625
91245.06827
86398.41267
81859.78283
77618.29485
73663.81518
69988.81882
66583.01072
63436.86188
60542.6363
57888.51918
55465.25589
53260.91988
51262.90708
49457.2877
47828.40662
46359.19315
383139.0288
381437.6123
377825.1329
372563.7152
365840.9098
357843.9185
348759.0249
338773.9498
328067.2692
316794.542
305113.8179
293166.4256
281065.791
268935.8178
256856.0518
244917.2943
233177.4291
221699.7635
210518.953
199679.5034
189197.6057
179099.6421
169392.8922
160085.0033
151183.0224
142681.5252
134579.8675
126873.7052
119553.5271
112612.4932
106043.4252
99834.82088
93977.30216
88462.92317
83281.15754
78422.32067
73877.59072
69639.56285
65699.12493
62048.10333
58678.98126
55585.72079
52759.7789
50193.63235
47880.32173
45809.79656
43971.59908
42353.66126
40939.88601
39712.75638
376788.95
375072.7724
371426.8666
366114.2765
359327.5685
351256.5637
342090.8417
332027.2766
321230.0099
309865.0278
298100.8579
286060.9577
273877.737
261659.1097
249497.3541
237475.6481
225657.5033
214099.3227
202844.9897
191925.4895
181373.7208
171200.4766
161422.5368
152047.5004
143075.9659
134510.3373
126348.4466
118583.341
111208.9586
104220.0505
97607.30413
91361.06693
85472.47918
79932.63166
74733.37542
69864.80989
65318.38901
61085.7519
57159.05559
53531.1886
50195.62066
47146.57557
44378.43393
41886.05768
39664.51567
37708.43409
36012.13348
34566.1856
33358.76993
32372.78949
370577.0288
368838.6767
365146.4309
359767.3772
352897.3284
344729.3116
335465.1645
325285.9518
314367.7726
302887.8039
290998.0883
278834.298
266534.0452
254192.2902
241919.1287
229779.7445
217854.4088
206187.2371
194828.2571
183810.9784
173158.0233
162894.3543
153028.7532
143568.9885
134521.4349
125886.5937
117660.8203
109840.3003
102419.7878
95393.90288
88753.29636
82489.49019
76593.72484
71056.63542
65868.92778
61021.24523
56504.07852
52308.53464
48426.00322
44848.33535
41568.36401
38579.88467
35877.66352
33457.96894
31318.20831
29457.18684
27874.37577
26568.52959
25536.02221
24766.60744
364490.1112
362724.5127
358975.2516
353514.2818
346541.2913
338259.2467
328864.1662
318540.9438
307474.6767
295845.4822
283797.902
271485.9097
259028.7866
246542.2427
234117.6415
221841.2082
209772.5845
197978.1975
186493.2843
175355.7694
164595.5795
154228.1793
144268.3786
134727.8122
125610.0723
116915.9323
108644.5511
100793.1214
93356.88279
86329.04041
79702.29867
73468.19783
67616.9683
62139.0597
57023.514
52259.60196
47836.28496
43742.27656
39967.44824
36500.69606
33331.85179
30452.16972
27854.52172
25533.08344
23485.20611
21711.59174
20216.2823
19007.59246
18096.12681
17490.30196
358520.7916
356722.7902
352905.7622
347347.363
340255.1565
331835.2736
322280.4512
311785.2416
300547.6287
288732.346
276501.4124
264005.7602
251365.8146
238702.8644
226106.5871
213663.1913
201441.5218
189494.449
177874.0796
166612.5639
155737.3979
145270.6596
135230.8797
125625.0713
116459.8215
107738.1273
99460.36014
91624.10466
84224.59877
77255.81279
70709.7769
64577.23958
58847.67391
53510.32458
48552.19621
43959.56436
39719.64861
35817.57958
32238.94051
28968.89826
25993.6921
23299.33131
20873.62014
18706.21841
16789.55606
15120.60228
13703.22128
12550.64904
11689.44323
11162.49941
352662.6867
350826.9436
346931.3724
341262.0179
334034.3513
325448.2719
315708.3088
305020.0669
293576.1655
281545.9431
269107.8125
256396.1008
243553.6465
230683.9064
217899.6365
205273.1791
192880.071
180781.5301
169020.3567
157635.7374
146660.3145
136116.2055
126019.3328
116381.9919
107211.917
98513.50425
90287.36058
82531.27541
75240.89446
68409.07433
62028.53379
56086.53556
50570.76382
45468.54115
40763.03383
36439.14927
32478.22799
28862.40532
25573.12529
22591.03351
19896.7841
17471.47052
15296.64808
13355.31162
11631.87315
10114.44309
8796.776309
7683.194519
6798.852344
6216.698811
347120.5167
345268.8433
341339.8534
335624.8174
328330.9841
319666.2919
309837.1367
299058.711
287509.3394
275374.8104
262823.5151
249999.938
237042.3378
224064.1948
211165.1953
198437.7211
185948.2535
173758.6482
161923.3182
150478.902
139458.0547
128886.3035
118783.228
109162.4798
100033.5733
91401.52259
83267.34512
75629.31999
68481.99599
61819.58843
55629.26716
49899.0574
44614.41055
39758.21148
35312.22818
31256.99024
27571.04732
24233.05366
21220.58772
18510.94069
16081.37119
13909.12169
11971.55042
10246.41547
8711.677932
7345.243348
6124.884561
5028.261821
4033.214118
3120.344943
341826.5668
339978.6953
336053.9562
330338.3557
323042.2843
314373.006
304543.0835
293753.2152
282188.02
270040.4988
257464.7549
244619.755
231630.479
218625.7962
205697.706
192939.2649
180427.437
168220.8542
156372.8585
144927.2523
133920.1212
123377.5762
113320.2866
103763.7713
94718.85116
86191.55049
78183.15839
70690.78015
63708.459
57228.14815
51236.32268
45718.68762
40657.37046
36034.20349
31826.97309
28013.34217
24570.21753
21473.35389
18698.12612
16219.98193
14014.86441
12058.75758
10328.92073
8803.229773
7460.75172
6282.017676
5248.896435
4345.084698
3556.040932
2868.89726
336550.453
334701.4323
330773.4096
325052.0405
317747.3147
309066.8804
299227.4947
288417.7075
276833.3417
264660.7583
252056.917
239183.0692
226165.5353
213128.1416
200175.9004
187395.6018
174866.8288
162657.2835
150818.5409
139396.6234
128428.609
117944.2212
107965.7549
98510.01209
89587.43058
81203.49543
73359.98662
66053.03626
59273.97399
53012.41017
47252.64687
41977.66575
37166.73522
32797.54991
28846.1825
25287.39534
22095.1614
19243.08352
16704.65691
14453.65284
12465.07906
10714.26192
9178.076584
7834.605861
6663.420901
5645.682065
4764.161536
4003.23791
3348.823229
2788.010149
331283.7996
329430.5132
325493.1379
319757.5289
312433.7206
303736.5787
293868.434
283025.6524
271411.9682
259199.9815
246562.2646
233647.0882
220597.3453
207526.9142
194549.6546
181756.0666
169224.1406
157022.8541
145210.3792
133835.5407
122935.4763
112540.8259
102675.2464
93356.96795
84594.64611
76393.22142
68751.39927
61665.4819
55122.77507
49110.18045
43608.45632
38598.14482
34054.51627
29951.9519
26263.69054
22961.90519
20017.93212
17403.43647
15090.49567
13051.92978
11261.52225
9694.514645
8327.650146
7139.1378
6108.965879
5218.842861
4452.02219
3793.465101
3229.533979
2747.913314
326025.2089
324164.8717
320212.4938
314454.7245
307105.5721
298377.163
288468.6533
277584.916
265927.2548
253666.6789
240986.6367
228028.3582
214940.5196
201842.9226
188844.1788
176043.9172
163523.5567
151352.2862
139590.3717
128287.4099
117483.8321
107210.8506
97492.37301
88343.95908
79775.22997
71789.75171
64382.28514
57545.04645
51263.90531
45520.97273
40294.06416
35559.42799
31289.35153
27454.95381
24026.72298
20974.1138
18266.78326
15875.00995
13769.43256
11922.41663
10307.50044
8900.055545
7676.938897
6617.016325
5700.999582
4911.311165
4232.12028
3649.241982
3149.923847
2722.72384
320773.7429
318903.924
314931.5329
309145.272
301765.1856
292992.1895
283033.4554
272102.88
260388.8596
248079.249
235345.099
222345.468
209217.1419
196096.4797
183089.5392
170295.2793
157799.9057
145677.8155
133990.4158
122787.5731
112109.9933
101990.1852
92450.89891
83505.46401
75161.00792
67417.90889
60269.54262
53702.25858
47699.41384
42238.34197
37293.69782
32837.16597
28838.43103
25265.87139
22087.2528
19270.29408
16783.14826
14594.81873
12675.99301
10998.67043
9536.743767
8265.869981
7163.908367
6210.491307
5387.28671
4677.777452
4067.206822
3542.422984
3091.739488
2704.756067
315528.8682
313647.4762
309650.7449
303836.3634
296411.456
287585.9419
277572.6641
266584.0972
254807.4838
242444.2272
229655.2587
216613.5888
203455.8694
190313.9745
177309.5007
164539.1008
152091.1155
140041.2928
128452.6723
117376.976
106854.5632
96916.32838
87582.66483
78867.16071
70772.33773
63293.53368
56421.95313
50138.59625
44423.03088
39248.62248
34586.08722
30403.61176
26668.11119
23345.74018
20402.11912
17803.6772
15517.72561
13513.14795
11760.57456
10232.22526
8902.864463
7748.895758
6749.11565
5884.447765
5137.605468
4493.250294
3937.771632
3459.121559
3046.65269
2690.96802
310290.4257
308397.408
304378.0763
298523.2624
291047.5998
282163.2751
272093.0749
261037.5599
249200.8435
236775.6753
223938.9038
210852.5288
197672.5052
184526.6885
171535.2386
158803.2172
146423.1123
134469.2166
123005.4865
112083.1836
101743.3283
92014.21777
82913.03835
74448.7019
66622.51104
59424.62382
52840.5997
46848.29621
41422.85822
36533.52191
32147.41589
28229.82282
24745.43396
21658.28476
18932.84757
16534.81429
14431.18938
12591.22845
10985.66915
9587.86188
8373.212529
7319.483992
6406.522732
5616.513084
4933.353628
4342.890916
3832.644167
3391.643868
3010.218478
2679.879895
305064.7812
303157.8294
299107.4788
293208.2545
285677.2753
276734.3298
266598.2285
255472.7545
243575.3322
231088.0838
218206.7262
205088.1759
191889.5378
178752.5806
165794.3568
153122.8453
140830.7161
128995.6189
117681.4507
106938.2968
96804.32761
87304.90708
78456.89497
70262.81897
62718.31299
55811.15766
49520.60322
43821.0329
38683.06582
34072.34888
29952.92046
26287.88907
23039.87738
20171.53068
17646.82504
15431.10876
13491.85357
11798.57809
10322.96728
9039.439707
7924.454769
6957.078635
6118.418659
5391.870916
4762.517238
4217.376396
3745.042171
3335.460177
2979.876895
2670.665016
299846.925
297924.0881
293840.5234
287893.9871
280304.5294
271302.5126
261095.8175
249904.9294
237942.1752
225403.1371
212475.8975
199335.5218
186134.9564
173016.7349
160108.0265
147516.9885
135335.9596
123643.0748
112501.1536
101959.8455
92054.62841
82806.23687
74225.57309
66314.43532
59060.99784
52449.04645
46452.68153
41042.87839
36185.64689
31843.69751
27978.62023
24551.71393
21524.07324
18857.77254
16516.56864
14466.02074
12674.29331
11111.60582
9750.855176
8567.58207
7539.535905
6647.011676
5872.44615
5200.355613
4617.037477
4110.58744
3670.476136
3287.63215
2954.052242
2662.818839
294636.7942
292697.3366
288579.0978
282583.4224
274940.9282
265871.3042
255593.7875
244340.3748
232313.6537
219728.7346
206767.1253
193612.0459
180424.375
167345.83
154505.0265
142013.2988
129964.4696
118435.9714
107488.7244
97169.04004
87507.99419
78525.66602
70226.20492
62604.75416
55647.18703
49330.33558
43624.85056
38498.12324
33911.81912
29826.39777
26201.70896
22997.48015
20173.94668
17693.13892
15518.91877
13617.5965
11958.12119
10511.79306
9252.712764
8157.676585
7205.785037
6378.544608
5659.710121
5034.805004
4491.337795
4018.235028
3605.998679
3246.203278
2931.660238
2656.012596
289435.4931
287479.0219
283325.3782
277283.8741
269583.8333
260446.9655
250105.3731
238787.3332
226707.2534
214078.5679
201096.3484
187939.6818
174776.0423
161754.4365
149002.0291
136630.9478
124735.0511
113390.2679
102655.5699
92575.94323
83175.94884
74469.29613
66458.47392
59131.3366
52469.46874
46444.35116
41023.67961
36170.06765
31842.82044
28000.3518
24601.1207
21603.80122
18968.46329
16657.31463
14634.75777
12868.02066
11327.04512
9984.466339
8815.614412
7798.527283
6913.679585
6143.759849
5473.685732
4890.073637
4381.335623
3937.410552
3549.449024
3209.847414
2911.965321
2650.021211
284244.395
282270.8539
278084.7694
271997.7931
264238.0121
255035.8653
244635.3353
233255.7928
221131.5747
208468.0412
195475.4103
182334.6568
169213.9283
156264.3923
143618.0795
131386.9765
119663.9384
108522.4214
98018.36483
88189.96325
79061.08183
70639.67127
62920.15106
55888.36336
49518.4857
43779.01751
38633.92051
34041.94425
29960.50791
26346.65522
23157.68594
20351.78622
17889.32595
15732.91709
13847.90822
12202.51749
10767.88666
9517.98539
8429.401283
7481.45396
6655.91073
5936.623337
5309.484652
4762.240566
4284.136129
3865.849992
3499.3362
3177.569214
2894.443948
2644.684827
11609.04786
10269.92545
9102.972238
8086.039776
7199.684252
6426.773589
5752.429487
5163.435642
4648.404482
4197.438406
3801.972633
3454.522667
3148.638416
2878.710237
2639.886324
)
;

boundaryField
{
    front_top
    {
        type            wedge;
    }
    front_middle
    {
        type            wedge;
    }
    front_bottom
    {
        type            wedge;
    }
    back_top
    {
        type            wedge;
    }
    back_middle
    {
        type            wedge;
    }
    back_bottom
    {
        type            wedge;
    }
    axis_top
    {
        type            symmetryPlane;
    }
    axis_middle
    {
        type            symmetryPlane;
    }
    axis_bottom
    {
        type            symmetryPlane;
    }
    wall_top
    {
        type            calculated;
        value           nonuniform List<scalar> 10(59801.67784 55979.60131 51299.03897 45685.11519 39173.63005 31973.4249 24499.79618 17335.53893 11089.75218 6193.439879);
    }
    wall_middle
    {
        type            calculated;
        value           uniform 2530.329233;
    }
    wall_bottom
    {
        type            calculated;
        value           nonuniform 0();
    }
    inlet
    {
        type            calculated;
        value           nonuniform 0();
    }
    outlet
    {
        type            calculated;
        value           nonuniform 0();
    }
    procBoundary5to4
    {
        type            processor;
        value           nonuniform List<scalar> 
51
(
279066.7679
277079.119
272860.9951
266725.6992
258908.3956
249650.1227
239189.6818
227759.3836
215595.7831
202914.1704
189920.0804
176808.9401
163748.7663
150891.9525
138371.2863
126298.5028
114764.7476
103840.9269
93580.50247
84016.8498
75166.48947
67033.34688
59607.0292
52866.89284
46783.15662
41321.24505
36440.3467
32097.3101
28247.81308
24847.88632
21854.12574
19224.80429
16920.76155
14905.33352
13144.98827
13144.98827
11077.57371
9824.447315
8731.839078
7779.056682
6947.744589
6221.904461
5587.574795
5032.562044
4546.308515
4119.604284
3744.503955
3414.122985
3122.508341
2864.472283
2635.537528
)
;
    }
    procBoundary5to6
    {
        type            processor;
        value           nonuniform List<scalar> 
51
(
424666.9374
422967.7117
412003.1611
412003.1611
406771.7422
400080.8447
392112.9376
383049.843
373079.3847
362369.4165
351077.696
339359.9036
327361.3232
315194.1565
302977.6633
290805.886
278756.0529
266909.9621
255311.3056
244020.0501
233061.0003
222471.8889
212264.6718
202459.7969
193059.0248
184071.5091
175489.7985
167315.9051
159536.1758
152148.8765
145135.8274
138492.7525
132199.6676
126249.3144
120623.1417
115310.8692
110295.5233
105565.5569
101105.4691
96902.90162
92943.0777
89213.75385
85701.13578
82393.42424
79277.13643
76341.43532
73572.75513
70961.63753
68494.78679
66164.46351
63957.81687
)
;
    }
}


// ************************************************************************* //
