/*--------------------------------*- C++ -*----------------------------------*\
  =========                 |
  \\      /  F ield         | OpenFOAM: The Open Source CFD Toolbox
   \\    /   O peration     | Website:  https://openfoam.org
    \\  /    A nd           | Version:  7
     \\/     M anipulation  |
\*---------------------------------------------------------------------------*/
FoamFile
{
    version     2.0;
    format      ascii;
    class       volScalarField;
    location    "0.0003";
    object      generalizedNewtonian:nu;
}
// * * * * * * * * * * * * * * * * * * * * * * * * * * * * * * * * * * * * * //

dimensions      [0 2 -1 0 0 0 0];

internalField   nonuniform List<scalar> 
1167
(
2.528618229
2.513458692
2.521945169
2.501858698
2.482493336
2.459813633
2.433350071
2.403791008
2.371596162
2.33716713
2.300909617
2.263223035
2.224464229
2.184963796
2.14504112
2.104925717
2.064849094
2.024947539
2.392453435
2.37795111
2.385981252
2.366971684
2.34856416
2.327069344
2.302004851
2.274016057
2.243564209
2.211036295
2.176817261
2.141273693
2.104753944
2.06758665
2.030038955
1.992354898
1.954716988
1.917283389
1.880139683
1.843330924
1.806857307
1.770675242
1.734687599
1.698752928
1.662692425
1.62628123
1.589252077
1.551299423
1.512066629
1.471159637
1.428142477
1.382545193
1.333884345
1.281677827
1.225505548
1.165096795
1.100434503
1.031881555
0.9603044945
0.8870600158
0.8138668585
0.7425343301
0.6746733006
0.611471051
0.553627437
0.5013843229
0.4546415268
0.4130742921
0.3762117101
0.3434641716
2.25973873
2.245903213
2.253526472
2.235579179
2.218163525
2.197859708
2.174217345
2.147832665
2.119149202
2.088538798
2.056365316
2.022979361
1.988724864
1.95388193
1.918717241
1.883449367
1.848255544
1.813259672
1.778558405
1.744180854
1.710116065
1.676318422
1.64269623
1.609115146
1.575398761
1.541331361
1.506659938
1.471092236
1.434294968
1.395903541
1.355505603
1.312660317
1.266913291
1.217825403
1.165009758
1.10821367
1.047426672
0.9829894167
0.9156947914
0.846799439
0.7778819259
0.7106226675
0.6465211713
0.5867026942
0.53184408
0.4821966513
0.4376918939
0.3980456524
0.3628288978
0.3314966021
2.13077311
2.117613209
2.124837051
2.107940824
2.091528325
2.072419222
2.050187709
2.025403961
1.998484916
1.969785179
1.939651747
1.908424195
1.876401266
1.843863843
1.811057783
1.778178324
1.745387826
1.712807075
1.680503505
1.648506151
1.616809211
1.585355641
1.554051327
1.522764814
1.491330193
1.459543496
1.427166253
1.393918085
1.359484764
1.323519309
1.285640549
1.245442137
1.202496742
1.156392409
1.106778602
1.053425818
0.996319899
0.9357859072
0.8725493091
0.8077687824
0.7428996004
0.6795005792
0.6189695079
0.5623731643
0.5103633723
0.4632011038
0.4208455132
0.3830493293
0.3494223327
0.3194614631
2.005839084
1.993339866
2.000180719
1.984328805
1.968892038
1.950971163
1.930133064
1.906918095
1.881734099
1.85491691
1.826789666
1.797665847
1.767833431
1.7375614
1.707055346
1.676518238
1.646078636
1.615847883
1.5858926
1.556224503
1.526829196
1.497653915
1.468608462
1.439561059
1.410350559
1.380779715
1.350623061
1.319618597
1.287473395
1.253856746
1.218410201
1.180751585
1.14049407
1.097250936
1.050693902
1.000620744
0.947018651
0.890184576
0.8307951079
0.7699106803
0.708879302
0.649141358
0.592005058
0.5384803323
0.4891942149
0.4444150973
0.4041267155
0.3681149227
0.3360258115
0.3073957191
1.885198861
1.873350788
1.879829224
1.864985055
1.850498063
1.833724849
1.814243812
1.792558099
1.769057787
1.744060035
1.717871992
1.690791524
1.663091464
1.635001198
1.60673646
1.578453895
1.550295886
1.522346138
1.49465549
1.467242039
1.440082967
1.413119453
1.386257381
1.359374486
1.332317574
1.304896095
1.276893897
1.248061886
1.21812227
1.18676992
1.153669302
1.118460488
1.080778711
1.040275311
0.9966442076
0.9496943557
0.8994251663
0.846104997
0.7903637544
0.733173055
0.6757819807
0.6195221616
0.5656188291
0.5150256421
0.4683474317
0.4258573128
0.387560651
0.3532725524
0.3226734842
0.2953366876
1.769119517
1.757913018
1.764041495
1.750150164
1.736586526
1.720902587
1.702715209
1.682492829
1.660604027
1.637348194
1.613023317
1.587903647
1.562234105
1.536243869
1.510114972
1.484005287
1.458024205
1.432262334
1.406753813
1.381503056
1.356487188
1.331651419
1.306897254
1.282104604
1.257122045
1.231769997
1.205844889
1.179110925
1.151304435
1.122135174
1.091289204
1.058437045
1.023233787
0.9853513909
0.9445179026
0.9005513597
0.853452594
0.8034747164
0.7511941424
0.6975105429
0.6435749907
0.5906236377
0.5398031611
0.4920124939
0.4478353514
0.4075472931
0.3711724218
0.3385523115
0.309399188
0.2833210519
1.657867838
1.647278027
1.653049403
1.640064656
1.627367997
1.612723915
1.595754345
1.57690922
1.55654256
1.534937578
1.512369176
1.489093534
1.465351754
1.441343403
1.417241474
1.39318366
1.3692778
1.345587392
1.322148194
1.298961724
1.275995203
1.253186086
1.230442325
1.207650181
1.184659947
1.161299601
1.137371312
1.112651391
1.086896437
1.059831227
1.031158038
1.000565719
0.9677419396
0.9323767921
0.8942156292
0.8530980391
0.8090195303
0.7622210889
0.7132296611
0.6628791107
0.6122292256
0.5624297286
0.5145527469
0.4694458789
0.4276713398
0.3895053482
0.3549876765
0.323984209
0.296236376
0.2713849073
1.551670878
1.541670719
1.54708817
1.53495899
1.523060387
1.509381004
1.493550066
1.475990115
1.457037852
1.436964654
1.416030334
1.3944816
1.372535972
1.35037672
1.328171927
1.306037015
1.284069726
1.262330867
1.240839118
1.219591495
1.198558435
1.17767171
1.156839442
1.135946174
1.114849471
1.093389125
1.071373483
1.048588034
1.024798637
0.9997495966
0.973163927
0.9447462115
0.9142008292
0.8812481037
0.8456460165
0.8072484923
0.7660527098
0.7222799756
0.6764189293
0.6292388838
0.581718374
0.534927098
0.4898643213
0.4473317607
0.4078691762
0.3717516999
0.3390316581
0.3095974666
0.2832172504
0.2595624923
1.45075607
1.441318512
1.446394102
1.435042797
1.423887351
1.41107755
1.396287286
1.379904264
1.362248225
1.343580103
1.324153854
1.304189354
1.283889887
1.263441666
1.242977731
1.22262222
1.202451214
1.182513968
1.162834227
1.143398056
1.124167789
1.105076825
1.086039309
1.066938959
1.047636298
1.027974435
1.007771862
0.9868299594
0.9649216588
0.9418025705
0.9172122503
0.8908790359
0.8625205775
0.8318756006
0.7987238161
0.7629240187
0.7244799685
0.6835913235
0.6407137365
0.5965535231
0.5520178971
0.5081013302
0.4657348255
0.4256760127
0.3884420399
0.3543053189
0.3233286133
0.2954205197
0.2703738372
0.2478890822
1.355351529
1.346450124
1.35117193
1.340527204
1.330041189
1.318024214
1.304164456
1.288838
1.272351941
1.254955927
1.236881869
1.218345089
1.199544931
1.180636423
1.161760639
1.143014672
1.124481636
1.106196015
1.088169913
1.07039462
1.052829384
1.035403908
1.018030379
1.000597066
0.9829730061
0.9650041564
0.9465154358
0.9273140245
0.9071898039
0.885910614
0.8632268296
0.8388823652
0.8126168656
0.7841801104
0.7533709993
0.7200556405
0.6842376744
0.6461014144
0.6060692343
0.5647908904
0.5231080867
0.4819419977
0.4421630707
0.4044856514
0.3694042124
0.3371854937
0.3079020237
0.2814798415
0.257734167
0.2363926807
1.265673973
1.257267396
1.26163285
1.2516315
1.24172555
1.230405898
1.217372346
1.202979298
1.187524188
1.171247036
1.154369151
1.137105564
1.119627032
1.102092506
1.084624453
1.067322358
1.050248016
1.033441771
1.016909847
1.000635175
0.9845753935
0.9686659977
0.952818619
0.9369221322
0.9208477917
0.904448788
0.8875607908
0.8699967646
0.8515534305
0.8320124071
0.811140045
0.7886898656
0.7644182053
0.738092442
0.7095187407
0.6785775383
0.6452664133
0.6097596323
0.5724425317
0.5339175441
0.4949643911
0.4564354853
0.419144437
0.3837637133
0.3507648391
0.3204076373
0.2927725132
0.2678010945
0.2453295708
0.2251114481
1.1819293
1.173980708
1.177995055
1.16855486
1.159155659
1.148426716
1.136102942
1.122513485
1.107946546
1.092636178
1.076798624
1.0606273
1.044294891
1.02795148
1.011708951
0.9956604972
0.9798669971
0.9643559097
0.9491356837
0.9341907489
0.9194730439
0.9049170353
0.8904376745
0.8759309082
0.8612706758
0.8463132543
0.8308982929
0.8148524636
0.797980837
0.7800720381
0.7609054348
0.7402503862
0.7178716437
0.693555167
0.6671143497
0.6384377678
0.6075203517
0.5745247034
0.5398023956
0.5039122063
0.467573157
0.4315764775
0.3966812044
0.3635193912
0.3325378649
0.3039896845
0.2779604655
0.2544047853
0.2331771719
0.2140547924
1.104339092
1.096813264
1.100475438
1.091513488
1.082540551
1.072308378
1.060571
1.047650727
1.033827299
1.019325343
1.004351194
0.9890951309
0.9737273247
0.9583801577
0.9431727126
0.9281843468
0.9134724191
0.8990675492
0.8849719006
0.871166239
0.8576087101
0.8442350448
0.8309602038
0.81768075
0.8042790022
0.7906192711
0.7765445161
0.7618859543
0.746460549
0.7300683663
0.7124955333
0.6935250365
0.6729352007
0.6505193913
0.6261056496
0.5995831601
0.5709489934
0.5403478181
0.5081047072
0.474736341
0.4409041805
0.4073426022
0.3747584784
0.3437442439
0.3147220289
0.2879370665
0.2634788559
0.2413141055
0.221315563
0.2032835085
1.033147627
1.025996799
1.029303254
1.020747434
1.012108577
1.002271336
0.9910042099
0.978617722
0.9653848284
0.9515248288
0.9372419194
0.9227229551
0.9081227691
0.8935818545
0.8792022197
0.8650735685
0.8512420066
0.8377355245
0.824564476
0.811705101
0.7991147066
0.786732984
0.7744820071
0.762260044
0.74995292
0.7374288698
0.72454342
0.7111328291
0.6970191901
0.682013922
0.6659153413
0.6485118808
0.6295981717
0.6089744114
0.586477935
0.5620008946
0.5355395777
0.5072221185
0.4773486925
0.4463928265
0.4149654328
0.3837464183
0.3533929963
0.3244573603
0.2973381386
0.2722704133
0.2493444179
0.2285349023
0.2097280029
0.1927436185
0.9686060399
0.9617854612
0.9647422616
0.9565126629
0.9481247899
0.9385735569
0.9276544228
0.9156638155
0.9028690052
0.8894883084
0.8757226097
0.8617472997
0.8477241896
0.8337824292
0.820030128
0.8065438837
0.7933818259
0.7805665032
0.7681046806
0.7559808905
0.7441549961
0.7325681788
0.7211437034
0.7097885952
0.6983953865
0.6868363046
0.6749714626
0.66264809
0.6496966482
0.6359339043
0.6211703386
0.6052046829
0.5878375483
0.5688836375
0.5481827901
0.5256344169
0.5012272993
0.4750784267
0.4474630477
0.4188133365
0.3896930252
0.3607302064
0.3325332468
0.3056158733
0.2803527625
0.2569685015
0.235554571
0.2160959618
0.1984960781
0.1825958654
0.9110212073
0.9044852648
0.9071028394
0.8991123884
0.8908922378
0.8815245005
0.8708272202
0.8590925385
0.8465831748
0.833512988
0.8200784073
0.8064585474
0.7928109785
0.7792618474
0.7659210605
0.7528658089
0.7401479098
0.7278016524
0.7158323619
0.7042244671
0.6929430619
0.6819383943
0.6711356733
0.660447273
0.6497702567
0.6389883002
0.6279672601
0.6165595606
0.6046062602
0.5919339125
0.5783581819
0.5636917934
0.5477412046
0.5303304202
0.5113044528
0.4905662535
0.46809794
0.4440050591
0.4185349125
0.3920839737
0.3651702839
0.338372829
0.3122522993
0.2872857475
0.2638224219
0.2420728055
0.2221232353
0.2039593408
0.1874896383
0.1725688423
0.8607770781
0.8544759352
0.8567557954
0.8489256284
0.8407798505
0.8314908246
0.8208927027
0.8092711922
0.7968862267
0.7839523119
0.7706660024
0.7572069887
0.743725795
0.7303585493
0.7172067219
0.7043552658
0.6918568019
0.6797448344
0.6680332712
0.6567101723
0.6457446854
0.6350896511
0.6246809152
0.6144380207
0.604262916
0.5940445159
0.5836607118
0.5729715027
0.5618237961
0.5500559658
0.53749265
0.5239528213
0.5092563673
0.4932308643
0.4757307427
0.4566573665
0.435990726
0.4138234368
0.3903772205
0.3660145202
0.3412101789
0.3164940083
0.2923823059
0.2693155706
0.2476184393
0.2274899843
0.2090177064
0.1921993808
0.1769643044
0.1631871691
0.8183569039
0.8122329284
0.8141859062
0.8064335416
0.7982681833
0.788944953
0.7783157091
0.7666597527
0.7542358574
0.7412622711
0.7279351163
0.7144301967
0.7009067152
0.6874955324
0.6743074794
0.6614227552
0.6489046565
0.6367889739
0.6250915695
0.6138084421
0.6029173381
0.5923756147
0.5821250472
0.5720944534
0.5621963091
0.5523259444
0.5423679024
0.5321948665
0.5216621969
0.5106148979
0.4988910848
0.4863156925
0.4727184263
0.4579324355
0.4418177855
0.4242744701
0.4052786962
0.3849060792
0.363355752
0.3409565987
0.3181417538
0.2953957831
0.2731930982
0.2519381139
0.2319276369
0.2133403487
0.1962481113
0.1806347537
0.1664175656
0.1534751029
0.7844067836
0.7784000441
0.7800450109
0.7722727498
0.7639934249
0.754517661
0.7437166882
0.7318695315
0.7192354882
0.7060328692
0.6924580738
0.6786933914
0.6648997519
0.6512095527
0.6377390452
0.6245728433
0.6117747737
0.599392802
0.5874455461
0.575934414
0.5648448592
0.5541446734
0.5437818666
0.533693003
0.5237995002
0.5140091729
0.5042139486
0.4942944067
0.4841203227
0.4735449661
0.4624152054
0.4505690441
0.4378427537
0.4240797508
0.4091428783
0.3929353202
0.3754287395
0.3566847265
0.3368812308
0.3163157585
0.295380458
0.2745175303
0.2541603564
0.234679452
0.2163493994
0.1993411063
0.1837345659
0.1695376127
0.1567028531
0.1451292205
0.7598325249
0.7538768486
0.7552220314
0.7473300725
0.738826566
0.7290726485
0.7179514845
0.7057421336
0.6927078912
0.6790701094
0.6650301957
0.6507781827
0.6364715165
0.6222549306
0.6082431311
0.5945328402
0.5811911929
0.5682704282
0.5558017272
0.5437919775
0.532234403
0.5211055063
0.5103652516
0.4999584822
0.4898162217
0.4798574937
0.4699863686
0.4600931056
0.4500576291
0.4397465333
0.4290146023
0.4177118056
0.4056808161
0.3927728482
0.378851967
0.3638213063
0.3476427934
0.3303631552
0.3121369399
0.2932293787
0.2739960221
0.2548408625
0.2361601138
0.21828999
0.2014731543
0.1858480159
0.1714573402
0.1582637833
0.14617142
0.135066121
0.7458932928
0.7399075754
0.7409670831
0.7328428601
0.7239823555
0.7137984465
0.7021803202
0.689409428
0.6757553632
0.661445113
0.6466895593
0.631678166
0.6165778647
0.6015411293
0.5866869095
0.5721185104
0.5579127361
0.544127081
0.5308008972
0.5179510796
0.5055785918
0.4936683766
0.482191534
0.4711032589
0.460345105
0.449846732
0.439526048
0.4292849507
0.4190153402
0.4085984376
0.3979010579
0.3867855626
0.3751066499
0.362724122
0.3495086598
0.3353655103
0.3202507409
0.3041991188
0.287344776
0.2699234295
0.2522568747
0.2347131191
0.2176552023
0.2013944513
0.1861627379
0.1721074284
0.1593047495
0.1477769831
0.1375025718
0.12839012
0.744495528
0.7383755154
0.7391640565
0.7306636511
0.7212968923
0.7104991505
0.6981770413
0.6846145787
0.6700911146
0.6548440594
0.6390906785
0.6230286085
0.6068369086
0.5906726603
0.574666841
0.5589286511
0.543546397
0.5285851958
0.5140928778
0.5000971678
0.4866081704
0.473620895
0.4611169207
0.4490630142
0.4374122381
0.4261063801
0.4150763165
0.4042371587
0.3934940869
0.3827418674
0.3718602412
0.3607230165
0.3491950146
0.33714222
0.324437646
0.3109824523
0.296720635
0.2816671893
0.2659292489
0.2497106176
0.2333007496
0.2170367677
0.2012521691
0.1862264085
0.1721505138
0.1591139464
0.1471110284
0.1360560432
0.1258090304
0.1162415556
0.7519159523
0.7524440086
0.7433759916
0.7332883932
0.7216296151
0.7083106077
0.6936329712
0.6778900927
0.6613302008
0.6441826981
0.6266580825
0.608947902
0.5912173976
0.5736094077
0.5562419189
0.5392130869
0.522596736
0.5064502024
0.4908093302
0.4756936347
0.4611079325
0.4470439603
0.4334782828
0.4203762206
0.4076930598
0.3953719037
0.3833439973
0.3715315616
0.3598452006
0.3481835444
0.3364384575
0.3244905426
0.3122205093
0.2995104242
0.2862638821
0.2724202124
0.2579801547
0.2430289641
0.2277444577
0.2123889647
0.1972765969
0.1827271258
0.1690223448
0.1563805375
0.1449533307
0.1348397482
0.126100866
0.1187565519
0.1127051136
)
;

boundaryField
{
    front_top
    {
        type            wedge;
    }
    front_middle
    {
        type            wedge;
    }
    front_bottom
    {
        type            wedge;
    }
    back_top
    {
        type            wedge;
    }
    back_middle
    {
        type            wedge;
    }
    back_bottom
    {
        type            wedge;
    }
    axis_top
    {
        type            symmetryPlane;
    }
    axis_middle
    {
        type            symmetryPlane;
    }
    axis_bottom
    {
        type            symmetryPlane;
    }
    wall_top
    {
        type            calculated;
        value           nonuniform 0();
    }
    wall_middle
    {
        type            calculated;
        value           nonuniform List<scalar> 
23
(
0.3287390222
0.3173918039
0.3059599738
0.2944816085
0.2829951777
0.271538381
0.2601482422
0.2488596802
0.2377092259
0.2267246152
0.2159469924
0.2053818757
0.1951004081
0.1850306496
0.1753710499
0.1657823258
0.1569183899
0.1475754492
0.1398578451
0.1299875325
0.1242490034
0.111848778
0.1100159527
)
;
    }
    wall_bottom
    {
        type            calculated;
        value           nonuniform 0();
    }
    inlet
    {
        type            calculated;
        value           nonuniform 0();
    }
    outlet
    {
        type            calculated;
        value           nonuniform 0();
    }
    procBoundary3to2
    {
        type            processor;
        value           nonuniform List<scalar> 
51
(
0.7582740521
0.7582740521
0.7849827534
0.7852261731
0.7753399043
0.7642490478
0.7514108355
0.7367377939
0.7205546298
0.7031779447
0.684877754
0.6659034378
0.6464839918
0.6268282251
0.6071159228
0.5875036594
0.5681228774
0.5490808063
0.5304621978
0.5123344381
0.4947387528
0.4777037134
0.4612438241
0.44535446
0.4300222322
0.4152225067
0.4009188189
0.387064631
0.3736053722
0.3604765409
0.3476027331
0.3349015239
0.3222787558
0.3096334324
0.2968578704
0.2838433899
0.2704900727
0.2567244159
0.2425181541
0.2279168425
0.2130572389
0.1981650265
0.1835287106
0.1694478241
0.1561725441
0.1438545162
0.1325237127
0.1220984683
0.11241873
0.1032917677
0.09458102392
)
;
    }
    procBoundary3to4
    {
        type            processor;
        value           nonuniform List<scalar> 
51
(
2.667946082
2.652142636
2.661127415
2.639997653
2.619697807
2.595879949
2.568082721
2.53699216
2.503100887
2.466824819
2.428584337
2.388783936
2.347816263
2.306034382
2.263742923
2.221233466
2.178709538
2.136352382
1.985338342
1.985338342
1.946081392
1.907168429
1.86855788
1.830157993
1.791824945
1.753372894
1.714563973
1.675114581
1.634701519
1.592949399
1.549438244
1.503707627
1.455253747
1.403549473
1.348080044
1.288393845
1.22419322
1.155449001
1.08255863
1.006456142
0.9286143262
0.8509016862
0.7752681208
0.7034433133
0.6366825129
0.5757070604
0.5207486946
0.4716716012
0.4281065058
0.3895373164
0.3553270276
)
;
    }
}


// ************************************************************************* //
