/*--------------------------------*- C++ -*----------------------------------*\
  =========                 |
  \\      /  F ield         | OpenFOAM: The Open Source CFD Toolbox
   \\    /   O peration     | Website:  https://openfoam.org
    \\  /    A nd           | Version:  7
     \\/     M anipulation  |
\*---------------------------------------------------------------------------*/
FoamFile
{
    version     2.0;
    format      ascii;
    class       volScalarField;
    location    "0.0003";
    object      p;
}
// * * * * * * * * * * * * * * * * * * * * * * * * * * * * * * * * * * * * * //

dimensions      [1 -1 -2 0 0 0 0];

internalField   nonuniform List<scalar> 
1167
(
1205889.989
1216455.123
1214820.828
1215337.864
1216763.96
1218403.711
1220270.944
1222373.775
1224684.582
1227176.806
1229827.299
1232614.312
1235517.424
1238517.635
1241597.761
1244742.526
1247938.357
1251173.453
1197120.593
1207737.886
1206143.873
1206680.053
1208146.12
1209836.348
1211758.421
1213920.424
1216293.683
1218850.286
1221566.061
1224418.423
1227385.906
1230449.084
1233590.47
1236794.251
1240046.846
1243336.306
1246652.596
1249987.618
1253334.621
1256688.272
1260044.578
1263400.651
1266754.565
1270105.13
1273451.747
1276794.335
1280133.116
1283468.371
1286800.374
1290128.978
1293453.158
1296770.479
1300076.351
1303363.018
1306618.496
1309826.14
1312965.061
1316012.077
1318945.274
1321747.523
1324409.271
1326929.105
1329311.61
1331562.908
1333692.638
1335744.815
1337818.413
1339790.952
1188003.575
1198679.5
1197126.357
1197683.866
1199192.556
1200936.637
1202917.699
1205143.021
1207583.141
1210208.844
1212994.751
1215917.08
1218953.886
1222085.112
1225292.582
1228560.346
1231874.413
1235222.897
1238595.739
1241984.732
1245383.247
1248786.163
1252189.596
1255590.786
1258987.945
1262380.059
1265766.701
1269148.003
1272524.329
1275896.148
1279263.838
1282627.363
1285985.936
1289337.306
1292676.988
1295997.434
1299287.067
1302529.561
1305704.542
1308789.32
1311762.301
1314606.436
1317311.978
1319877.093
1322305.883
1324603.942
1326780.607
1328880.626
1331004.499
1333024.341
1178516.544
1189257.842
1187746.08
1188326.762
1189881.144
1191682.316
1193726.236
1196019.364
1198531.033
1201230.634
1204091.553
1207089.119
1210200.604
1213404.985
1216683.842
1220020.677
1223401.433
1226813.914
1230248.136
1233695.944
1237150.695
1240607.322
1244062.123
1247512.551
1250956.946
1254394.443
1257824.778
1261248.193
1264665.208
1268076.545
1271482.742
1274883.908
1278279.301
1281666.914
1285042.524
1288398.743
1291724.323
1295003.427
1298216.096
1301340.187
1304354.392
1307241.778
1309992.387
1312603.962
1315080.116
1317425.903
1319650.351
1321798.947
1323973.754
1326041.539
1168635.295
1179448.639
1177978.461
1178584.564
1180187.671
1182049.683
1184160.408
1186525.718
1189113.71
1191892.3
1194833.602
1197911.916
1201103.33
1204386.469
1207742.156
1211153.684
1214606.493
1218088.438
1221589.355
1225101.024
1228617.008
1232132.283
1235643.242
1239147.41
1242643.289
1246130.224
1249608.15
1253077.435
1256538.751
1259992.897
1263440.599
1266882.203
1270317.144
1273743.468
1277157.205
1280551.303
1283914.75
1287232.233
1290484.24
1293649.133
1296705.911
1299637.757
1302434.502
1305093.503
1307617.877
1310012.131
1312284.977
1314482.65
1316708.803
1318824.947
1158333.74
1169225.455
1167797.411
1168431.405
1170086.02
1172012.738
1174194.618
1176636.664
1179305.942
1182168.846
1185195.979
1188360.46
1191637.67
1195005.39
1198443.818
1201935.857
1205466.661
1209023.745
1212597.057
1216178.294
1219760.918
1223340.02
1226912.207
1230475.085
1234027.279
1237568.229
1241098.006
1244617.166
1248126.587
1251627.21
1255119.881
1258605.021
1262082.351
1265550.126
1269004.453
1272438.638
1275842.038
1279199.699
1282492.688
1285699.806
1288800.424
1291777.799
1294621.566
1297328.737
1299901.943
1302345.149
1304666.755
1306913.741
1309191.361
1311355.986
1147584.537
1158561.035
1157175.882
1157839.839
1159549.035
1161543.918
1163801.259
1166324.868
1169080.547
1172033.052
1175151.647
1178408.358
1181777.473
1185235.891
1188763.339
1192342.084
1195957.066
1199595.619
1203247.384
1206904.127
1210559.343
1214208.161
1217847.162
1221474.084
1225087.753
1228687.713
1232274.17
1235847.805
1239409.567
1242960.615
1246501.998
1250034.283
1253557.229
1257069.379
1260567.078
1264043.801
1267489.364
1270889.176
1274224.859
1277475.647
1280621.301
1283645.168
1286536.717
1289292.629
1291915.065
1294407.471
1296777.957
1299074.233
1301403.161
1303616.127
1136360
1147427.487
1146085.796
1146781.72
1148548.662
1150615.347
1152952.212
1155562.015
1158409.192
1161456.809
1164672.764
1168027.711
1171494.86
1175050.449
1178673.333
1182345.441
1186051.171
1189777.729
1193514.63
1197253.394
1200987.484
1204712.223
1208424.189
1212121.191
1215802.098
1219466.533
1223114.885
1226747.996
1230366.955
1233972.983
1237567.246
1241150.565
1244722.854
1248282.703
1251826.803
1255348.861
1258839.006
1262283.13
1265663.312
1268959.278
1272151.14
1275222.345
1278162.273
1280967.296
1283639.127
1286180.716
1288599.909
1290945.146
1293324.893
1295585.735
1124632.714
1135796.596
1134498.662
1135228.78
1137056.099
1139198.395
1141618.863
1144319.335
1147263.016
1150411.215
1153730.092
1157189.16
1160760.756
1164419.91
1168145.015
1171917.206
1175720.674
1179542.205
1183371.084
1187198.829
1191018.818
1194826.249
1198617.729
1202391.233
1206145.685
1209880.793
1213596.985
1217295.147
1220976.599
1224642.714
1228294.726
1231933.498
1235559.239
1239170.688
1242764.644
1246335.185
1249872.688
1253363.537
1256790.235
1260133.022
1263372.344
1266491.767
1269480.627
1272335.018
1275056.253
1277646.826
1280114.337
1282507.943
1284937.711
1287245.658
1112376.256
1123641.204
1122387.703
1123153.863
1125043.904
1127264.674
1129772.561
1132567.962
1135612.721
1138866.387
1142293.705
1145862.89
1149544.953
1153314.173
1157148.108
1161027.37
1164935.531
1168859.232
1172787.438
1176711.382
1180624.492
1184521.909
1188400.205
1192257.292
1196092.122
1199904.575
1203695.137
1207464.755
1211214.74
1214946.613
1218661.794
1222361.22
1226045.133
1229712.562
1233360.42
1236983.04
1240571.126
1244111.44
1247586.932
1250978.326
1254266.386
1257434.88
1260473.102
1263376.912
1266147.271
1268786.288
1271301.35
1273742.321
1276220.859
1278574.669
1099567.312
1110937.273
1109728.664
1110532.023
1112486.949
1114788.534
1117386.7
1120280.483
1123430.22
1126793.806
1130334.555
1134018.982
1137817.157
1141702.489
1145651.621
1149644.581
1153664.504
1157697.465
1161732.334
1165760.105
1169773.956
1173768.911
1177741.61
1181689.926
1185612.768
1189509.974
1193382.051
1197230.103
1201055.48
1204859.689
1208644.203
1212410.169
1216157.869
1219886.404
1223592.951
1227271.961
1230914.506
1234507.633
1238034.78
1241477.073
1244815.602
1248034.37
1251122.662
1254076.157
1256895.524
1259582.546
1262144.42
1264631.697
1267157.584
1269555.864
1086187.725
1097665.184
1096501.201
1097342.545
1099363.351
1101747.613
1104437.955
1107432.407
1110690.005
1114166.871
1117824.516
1121628.436
1125547.585
1129554.176
1133624.222
1137736.943
1141875.093
1146024.344
1150173.018
1154311.966
1158434.277
1162534.765
1166609.875
1170657.39
1174676.258
1178666.273
1182627.911
1186562.157
1190470.459
1194354.397
1198215.404
1202054.628
1205872.52
1209668.149
1213438.88
1217179.309
1220880.739
1224530.495
1228112.442
1231608.059
1234998.798
1238268.878
1241407.616
1244410.571
1247278.222
1250012.086
1252619.228
1255150.922
1257721.912
1260162.32
1072226.684
1083811.886
1082692.202
1083571.611
1085657.913
1088124.79
1090907.915
1094003.829
1097370.33
1100961.892
1104738.618
1108664.84
1112708.064
1116839.825
1121035.107
1125272.677
1129534.584
1133806.127
1138075.291
1142332.552
1146570.695
1150784.448
1154970.094
1159125.25
1163248.648
1167339.989
1171399.78
1175428.939
1179428.757
1183400.792
1187346.547
1191267.083
1195162.84
1199032.993
1202874.872
1206683.277
1210449.6
1214161.472
1217803.042
1221356.102
1224802.46
1228126.534
1231317.691
1234371.432
1237288.119
1240069.05
1242721.174
1245296.39
1247910.892
1250391.863
1057683.848
1069374.946
1068298.742
1069214.765
1071364.955
1073912.472
1076786.536
1079982.301
1083456.385
1087161.857
1091057.428
1095105.947
1099274.18
1103532.628
1107855.609
1112221.061
1116610.699
1121009.221
1125404.145
1129785.796
1134146.606
1138480.932
1142784.817
1147055.8
1151292.408
1155494.113
1159661.142
1163794.385
1167895.039
1171964.434
1176003.939
1180014.62
1183996.704
1187949.382
1191869.91
1195753.11
1199590.391
1203369.586
1207075.006
1210688.739
1214192.871
1217572.015
1220815.63
1223919.267
1226883.241
1229708.738
1232402.752
1235017.984
1237672.081
1240189.216
1042573.85
1054365.908
1053331.291
1054280.906
1056490.959
1059114.933
1062075.194
1065366.042
1068943.199
1072758.277
1076768.638
1080936.319
1085227.096
1089610.622
1094060.548
1098554.279
1103072.823
1107600.62
1112124.746
1116635.01
1121123.653
1125584.755
1130014.033
1134408.635
1138766.886
1143088.099
1147372.218
1151619.786
1155831.841
1160009.586
1164154.093
1168266.261
1172346.227
1176392.922
1180403.582
1184372.848
1188292.155
1192149.306
1195928.666
1199612.518
1203183.085
1206625.079
1209928.04
1213087.574
1216103.959
1218978.273
1221717.438
1224374.565
1227068.557
1229622.371
1026930.69
1038814.257
1037818.244
1038796.704
1041059.524
1043752.12
1046790.331
1050167.478
1053838.646
1057754.397
1061871.258
1066150.36
1070556.591
1075059.137
1079630.911
1084249.024
1088894.004
1093549.646
1098202.934
1102843.285
1107462.445
1112054.115
1116613.825
1121138.315
1125625.494
1130074.216
1134484.172
1138855.537
1143188.856
1147484.965
1151744.648
1155968.291
1160155.771
1164305.625
1168414.772
1172477.521
1176485.121
1180425.146
1184281.915
1188037.734
1191674.89
1195178.193
1198537.344
1201748.065
1204810.724
1207726.52
1210502.762
1213193.69
1215919.547
1218500.149
1010812.144
1022772.926
1021811.624
1022811.507
1025116.824
1027865.878
1030968.795
1034418.171
1038168.807
1042170.679
1046379.628
1050756.028
1055264.617
1059873.909
1064556.699
1069289.528
1074052.879
1078830.187
1083607.934
1088375.451
1093124.207
1097847.537
1102540.483
1107199.5
1111822.201
1116407.011
1120953.075
1125460.229
1129928.657
1134358.644
1138750.579
1143104.473
1147419.638
1151694.296
1155924.818
1160105.139
1164225.998
1168274.515
1172234.678
1176088.421
1179817.722
1183407.218
1186846.497
1190131.186
1193261.581
1196238.747
1199069.649
1201808.181
1204575.59
1207194.135
994306.1799
1006323.981
1005391.896
1006402.655
1008735.917
1011524.452
1014673.014
1018174.184
1021982.965
1026048.942
1030327.677
1034779.676
1039369.395
1044065.323
1048840.1
1053670.348
1058536.149
1063421.048
1068311.364
1073196.037
1078066.262
1082915.223
1087737.512
1092529.001
1097286.725
1102008.665
1106693.309
1111339.645
1115947.162
1120515.43
1125043.882
1129531.811
1133977.629
1138378.745
1142730.686
1147026.64
1151256.529
1155406.851
1159461.006
1163400.463
1167206.907
1170864.881
1174363.966
1177699.887
1180873.157
1183885.312
1186744.51
1189506.956
1192294.969
1194923.973
977536.173
989583.2156
988672.851
989680.8835
992022.3291
994827.4176
997996.0744
1001521.117
1005358.304
1009457.634
1013775.121
1018271.564
1022911.657
1027664.444
1032502.734
1037403.567
1042347.336
1047317.532
1052300.862
1057286.402
1062265.263
1067230.479
1072176.696
1077099.636
1081995.974
1086863.248
1091699.688
1096503.827
1101274.457
1106010.631
1110711.141
1115374.434
1119998.226
1124578.944
1129111.211
1133587.046
1137995.136
1142320.696
1146545.676
1150650.088
1154614.323
1158421.76
1162061.022
1165527.105
1168819.931
1171940.234
1174894.397
1177735.838
1180587.854
1183277.763
960664.9974
972704.7263
971807.4057
972795.4624
975120.0954
977911.926
981067.2363
984579.4924
988405.844
992497.5027
996811.3315
1001308.785
1005955.775
1010721.885
1015580.911
1020510.277
1025491.14
1030507.406
1035545.889
1040596.032
1045649.089
1050697.908
1055736.8
1060761.199
1065767.287
1070751.765
1075711.913
1080645.349
1085549.658
1090422.491
1095261.396
1100063.265
1104824.359
1109539.562
1114202.049
1118802.302
1123327.613
1127761.793
1132085.473
1136277.532
1140317.467
1144187.989
1147877.353
1151380.512
1154697.739
1157830.999
1160790.184
1163634.85
1166488.331
1169154.978
943898.9837
955884.8267
954990.2802
955937.2843
958214.988
960957.4142
964058.4142
967513.0046
971280.4876
975313.819
979571.3677
984016.5981
988617.0248
993343.7191
998172.0736
1003080.925
1008052.656
1013072.731
1018129.05
1023212.105
1028314.33
1033429.634
1038553.073
1043680.814
1048809.705
1053936.979
1059060.092
1064176.75
1069284.559
1074380.745
1079462.253
1084525.178
1089564.595
1094573.983
1099544.651
1104464.833
1109319.171
1114088.283
1118749.195
1123276.979
1127647.236
1131838.995
1135837.247
1139634.14
1143227.306
1146615.116
1149800.48
1152832.73
1155837.659
1158657.915
927473.6539
939351.1819
938447.946
939329.2728
941523.3183
944172.3257
947168.2808
950508.2577
954154.3494
958061.7941
962191.3148
966508.6816
970983.0313
975587.4707
980298.9034
985097.8821
989967.9461
994895.7062
999870.2281
1004882.716
1009926.257
1014995.239
1020085.009
1025191.728
1030312.059
1035442.809
1040580.756
1045722.676
1050864.989
1056003.565
1061133.737
1066249.936
1071345.378
1076411.715
1081438.323
1086411.528
1091314.002
1096124.317
1100817.375
1105366.126
1109744.168
1113928.86
1117904.089
1121661.662
1125200.055
1128521.351
1131639.261
1134621.317
1137590.13
1140311.347
911707.8699
923401.3283
922476.365
923267.0754
925340.244
927851.7752
930693.4255
933864.714
937331.583
941052.9377
944993.0942
949120.9445
953408.9632
957833.6939
962375.1586
967017.0728
971746.1833
976552.2292
981427.4372
986366.2496
991364.9138
996420.9698
1001532.966
1006700.211
1011922.349
1017198.989
1022529.644
1027913.395
1033348.544
1038832.501
1044361.45
1049929.993
1055530.789
1061153.978
1066786.452
1072410.954
1078005.276
1083541.765
1088987.76
1094307.457
1099465.005
1104428.252
1109172.053
1113679.727
1117940.781
1121944.155
1125679.088
1129179.599
1132575.326
1135741.809
908219.1771
907263.092
907930.0344
909830.0504
912137.9073
914746.6562
917658.0467
920841.6394
924259.7222
927879.4209
931672.1411
935612.7883
939679.9589
943855.5998
948124.9294
952476.2545
956900.4695
961390.8684
965943.0469
970554.0797
975222.245
979947.0334
984728.4852
989566.8658
994462.5374
999415.7724
1004426.228
1009492.868
1014613.855
1019785.945
1025004.476
1030262.754
1035551.59
1040858.396
1046166.244
1051452.634
1056688.829
1061839.995
1066866.902
1071729.389
1076390.741
1080821.881
1085003.958
1088928.153
1092595.096
1096029.532
1099326.83
1102616.911
1105539.647
)
;

boundaryField
{
    front_top
    {
        type            wedge;
    }
    front_middle
    {
        type            wedge;
    }
    front_bottom
    {
        type            wedge;
    }
    back_top
    {
        type            wedge;
    }
    back_middle
    {
        type            wedge;
    }
    back_bottom
    {
        type            wedge;
    }
    axis_top
    {
        type            symmetryPlane;
    }
    axis_middle
    {
        type            symmetryPlane;
    }
    axis_bottom
    {
        type            symmetryPlane;
    }
    wall_top
    {
        type            fixedFluxPressure;
        gradient        nonuniform 0();
        value           nonuniform 0();
    }
    wall_middle
    {
        type            fixedFluxPressure;
        gradient        uniform 0;
        value           nonuniform List<scalar> 
23
(
1339790.952
1333024.341
1326041.539
1318824.947
1311355.986
1303616.127
1295585.735
1287245.658
1278574.669
1269555.864
1260162.32
1250391.863
1240189.216
1229622.371
1218500.149
1207194.135
1194923.973
1183277.763
1169154.978
1158657.915
1140311.347
1135741.809
1105539.647
)
;
    }
    wall_bottom
    {
        type            fixedFluxPressure;
        gradient        nonuniform 0();
        value           nonuniform 0();
    }
    inlet
    {
        type            zeroGradient;
    }
    outlet
    {
        type            fixedValue;
        value           nonuniform 0();
    }
    procBoundary3to2
    {
        type            processor;
        value           nonuniform List<scalar> 
51
(
896770.6809
896770.6809
894399.2596
893398.6228
893929.6249
895639.6072
897728.119
900091.3632
902735.4788
905635.8251
908760.3078
912081.6048
915576.6741
919225.9504
923013.3319
926926.1677
930954.878
935093.2423
939337.308
943686.0414
948140.5225
952703.3856
957378.98
962172.8354
967090.9894
972140.1019
977327.0188
982658.211
988139.6501
993776.4748
999572.4607
1005529.691
1011648.068
1017924.546
1024352.442
1030920.231
1037610.142
1044396.44
1051243.884
1058107.314
1064933.09
1071663.296
1078241.937
1084621.236
1090765.063
1096644.829
1102223.968
1107445.672
1112283.067
1116847.636
1121050.893
)
;
    }
    procBoundary3to4
    {
        type            processor;
        value           nonuniform List<scalar> 
51
(
1214332.525
1224851.753
1223177.334
1223677.575
1225066.334
1226659.256
1228475.285
1230522.877
1232775.517
1235207.865
1237797.797
1240524.304
1243367.647
1246309.589
1249333.202
1252423.517
1255567.072
1258752.307
1254437.897
1254437.897
1257723.358
1261023.063
1264331.634
1267644.891
1270959.772
1274274.116
1277586.592
1280896.462
1284203.457
1287507.664
1290809.22
1294108.193
1297404.266
1300696.264
1303981.686
1307255.779
1310510.498
1313733.614
1316908.158
1320012.688
1323023.611
1325918.618
1328680.535
1331299.962
1333775.891
1336113.404
1338319.141
1340403.026
1342408.338
1344432.563
1346358.672
)
;
    }
}


// ************************************************************************* //
