/*--------------------------------*- C++ -*----------------------------------*\
  =========                 |
  \\      /  F ield         | OpenFOAM: The Open Source CFD Toolbox
   \\    /   O peration     | Website:  https://openfoam.org
    \\  /    A nd           | Version:  7
     \\/     M anipulation  |
\*---------------------------------------------------------------------------*/
FoamFile
{
    version     2.0;
    format      ascii;
    class       volScalarField;
    location    "0.0003";
    object      rho;
}
// * * * * * * * * * * * * * * * * * * * * * * * * * * * * * * * * * * * * * //

dimensions      [1 -3 0 0 0 0 0];

internalField   nonuniform List<scalar> 
1167
(
944.4974778
944.4146458
944.2367017
943.972715
943.6274049
943.2042696
942.7067092
942.1380946
941.50143
940.7999579
940.0370603
939.2163628
938.3414608
937.4161765
936.4448801
935.4314264
934.3805086
933.2962158
944.3170935
944.2329557
944.0522348
943.7844367
943.4339645
943.0049475
942.5007013
941.9246827
941.28026
940.5708661
939.8000458
938.9714295
938.0888975
937.1566837
936.178828
935.1597942
934.1038746
933.0158076
931.899963
930.7608159
929.6028217
928.4303907
927.2476451
926.0585235
924.8668676
923.6762267
922.4899061
921.3110418
920.1423339
918.9863293
917.8452677
916.7211045
915.6156655
914.5303416
913.4663138
912.4247048
911.4063793
910.4117754
909.4415097
908.4957809
907.5747862
906.6784748
905.8068801
904.9595945
904.1365336
903.3372
902.5610292
901.8075477
901.0761335
900.3660581
944.1347852
944.0493578
943.8661027
943.5943483
943.2389502
942.8040092
942.2932421
941.7101184
941.0581949
940.3411035
939.5625398
938.7263459
937.8368033
936.8978824
935.9140475
934.8897522
933.8295816
932.738011
931.619855
930.4795044
929.3213478
928.1498144
926.9691028
925.7831914
924.5958017
923.4104148
922.2302985
921.0584571
919.8975792
918.7502593
917.6185706
916.5043687
915.4092932
914.3348411
913.2821333
912.2520949
911.2455679
910.2630351
909.3048327
908.3713848
907.4625934
906.5785888
905.7191612
904.8840059
904.0729974
903.2855509
902.5211267
901.7792725
901.0592853
900.360467
943.9507179
943.8641239
943.6781888
943.4025026
943.0423437
942.601604
942.0843357
941.4942713
940.8350507
940.1105019
939.3245285
938.4812883
937.5848591
936.6396674
935.6502848
934.6211862
933.5570698
932.4626856
931.342578
930.2013141
929.0435046
927.8734169
926.6951817
925.5127303
924.3298206
923.1499202
921.9762769
920.8117417
919.658943
918.5202913
917.3978902
916.2936377
915.208997
914.1452676
913.1036544
912.0850641
911.0900453
910.1193104
909.1729421
908.2513888
907.3544741
906.4823824
905.6347328
904.8113488
904.0119232
903.2359328
902.4828152
901.7521396
901.0431266
900.3551083
943.7649936
943.6771384
943.4885284
943.2091466
942.8441014
942.3977953
941.8741904
941.2772503
940.6109214
939.8792033
939.0861221
938.2359183
937.3329614
936.3819678
935.3872497
934.353855
933.2862261
932.1892628
931.0677529
929.9261097
928.7688956
927.6005028
926.4251155
925.246556
924.0685143
922.8943482
921.7272662
920.570116
919.4255322
918.2957382
917.182743
916.0882723
915.0139957
913.9610068
912.9303024
911.9229519
910.9393763
909.9800639
909.045342
908.135329
907.2500648
906.3894742
905.5532564
904.7412792
903.9530618
903.1881417
902.4459487
901.7260363
901.02759
900.3499594
943.5775522
943.4884471
943.2972678
943.0142018
942.6443394
942.1924897
941.6627221
941.0591331
940.3858728
939.6470966
938.8470484
937.9902025
937.0811753
936.1244517
935.1249996
934.0873937
933.0167256
931.9176625
930.7949261
929.6532424
928.4971157
927.3308553
926.1585191
924.9840333
923.8110897
922.6429469
921.4827143
920.3331456
919.1967527
918.0758264
916.9723034
915.8877713
914.8236761
913.781324
912.7615532
911.7651714
910.7928645
909.8447858
908.9214726
908.0227527
907.1488672
906.2994904
905.474449
904.6735091
903.8961689
903.1419778
902.4103856
901.7008518
901.012609
900.3449982
943.3884679
943.2982024
943.1045567
942.8176818
942.4432477
941.9857916
941.4499061
940.8397913
940.1597471
939.4140897
938.6073959
937.7442283
936.8291798
935.867222
934.863105
933.8218632
932.7482568
931.6474214
930.523962
929.3824901
928.2276123
927.0637716
925.8948818
924.7248245
923.5571473
922.3951244
921.2418548
920.1000279
918.9720523
917.8600599
916.7659141
915.6913283
914.6375305
913.6056046
912.5966795
911.6112609
910.6499689
909.7130745
908.8008575
907.9133002
907.0504779
906.2120668
905.3979636
904.6077572
903.8410063
903.097246
902.3759467
901.6764782
900.9981192
900.3402032
943.1980224
943.1065607
942.9103098
942.6197549
942.2407121
941.7779178
941.2359548
940.6193739
939.9327007
939.1804293
938.3672181
937.4977672
936.5770921
935.61004
934.601627
933.556855
932.4808303
931.3783693
930.2543497
929.1134915
927.9602781
926.7989931
925.6336602
924.4682185
923.306071
922.1504507
921.0042905
919.8702066
918.7507006
917.6477708
916.5631358
915.4983288
914.4548087
913.4334192
912.4351129
911.4606011
910.510166
909.5843141
908.6830336
907.8064874
906.9545047
906.1268636
905.3234591
904.5437507
903.7873426
903.0537715
902.3424844
901.6528102
900.9840575
900.3355534
943.0061228
942.9134412
942.7146081
942.4205694
942.0368184
941.5687553
941.0209128
940.3980465
939.7048415
938.9460155
938.126405
937.2510186
936.324869
935.3528972
934.3404662
933.2924529
932.2140822
931.1104043
929.9860954
928.8459234
927.6945549
926.5361463
925.374692
924.21397
923.0573918
921.9082772
920.7694092
919.6432978
918.5322584
917.4383315
916.3632546
915.308381
914.2749524
913.2640683
912.2763807
911.3126276
910.3730558
909.4580313
908.5675976
907.7018703
906.8605676
906.0435931
905.2506308
904.4812242
903.7349529
903.0113806
902.3098551
901.6297453
900.9703625
900.3310282
942.8128149
942.7189264
942.5177627
942.2200697
941.8319065
941.3584197
940.8047933
940.1757555
939.4761517
938.7109204
937.8852568
937.0040673
936.0724964
935.0960247
934.0795686
933.0286232
931.9481915
930.843298
929.7189705
928.5798307
927.4304124
926.2749179
925.1174702
923.9617044
922.8109445
921.6683643
920.5367257
919.4186592
918.3162466
917.2313859
916.1657455
915.1208204
914.0975781
913.097041
912.1199987
911.166856
910.2381011
909.3337813
908.454149
907.5990564
906.7683054
905.9618563
905.1791866
904.4199225
903.6836199
902.9698691
902.2779215
901.6071854
900.9569755
900.3266081
942.6182765
942.5233195
942.3196807
942.0183784
941.6258805
941.1473069
940.5878992
939.9527769
939.2469749
938.4756299
937.6438917
936.7569928
935.820456
934.8393922
933.8193467
932.7654269
931.6831577
930.5773974
929.4530379
928.3149857
927.1677503
926.0154254
924.8620165
923.7111656
922.5662844
921.4303894
920.3061531
919.1960101
918.1021768
917.0264583
915.9703312
914.9352024
913.9221683
912.9319368
911.96545
911.0229312
910.1048479
909.2111804
908.3422409
907.4976899
906.6774663
905.8813472
905.1088529
904.3596058
903.63319
902.9290691
902.2465524
901.5850367
900.9438399
900.3222741
942.4226507
942.3265358
942.1204488
941.8158517
941.4188905
940.9353617
940.370454
939.7294421
939.0175811
938.2401871
937.4025628
936.5103883
935.5688413
934.5835572
933.5599134
932.5034378
931.4192907
930.3127342
929.1886487
928.0517994
926.9066786
925.7575502
924.6083273
923.4625408
922.3234847
921.1941656
920.0773273
918.9752397
917.8899373
916.8232292
915.7766376
914.7513078
913.7483382
912.7684907
911.8123805
910.8804879
909.9729441
909.0899617
908.2315415
907.3974551
906.5876854
905.8017979
905.0393867
904.3000592
903.5834283
902.8888272
902.2156276
901.5632126
900.9309036
900.3180086
942.22588
942.1286469
941.920321
941.6124157
941.2113218
940.7228379
940.1526292
939.5059472
938.7882595
938.0051013
937.1620476
936.2645876
935.3183269
934.3290104
933.3020234
932.2429978
931.1573175
930.0500046
928.9261456
927.790644
926.6478107
925.5018391
924.3566539
923.215889
922.0827286
920.9600474
919.8504124
918.7562556
917.6795019
916.6217491
915.5844991
914.5689639
913.5759252
912.6063646
911.6606174
910.7392155
909.8421505
908.9697681
908.1217964
907.2981785
906.4987161
905.7229884
904.9705868
904.2411552
903.5341731
902.84901
902.1850414
901.5416366
900.9181201
900.3137959
942.0280582
941.9298799
941.7194253
941.4082651
941.003323
940.5102966
939.9349449
939.2828846
938.5597562
937.7711859
936.9228223
936.0204077
935.0698294
934.0765719
933.046561
931.9852053
930.8979714
929.7901401
928.6666702
927.5323693
926.3917564
925.2490043
924.1079243
922.9719909
921.84449
920.7283447
919.625933
918.5395061
917.4710557
916.4221863
915.3941458
914.3881823
913.4050831
912.4455483
911.5101354
910.5990313
909.7124602
908.850472
908.0128642
907.1996565
906.4104067
905.6447689
904.9023172
904.1827119
903.4853086
902.8095176
902.1547126
901.5202483
900.9054519
900.309623
941.8295192
941.7303581
941.5178147
941.2038273
940.7951495
940.2979616
939.7179639
939.0609656
938.3327649
937.53912
936.685918
935.7791163
934.8243729
933.8277393
932.7947466
931.7313944
930.6428653
929.5344381
928.4114447
927.2785004
926.1400369
925.0002692
923.8631494
922.7320095
921.6100521
920.500049
919.4045984
918.325781
917.2653876
916.2250601
915.2060986
914.2094047
913.2360203
912.286371
911.3610521
910.4600981
909.5838554
908.7321271
907.9048531
907.1018577
906.3227249
905.5670916
904.8345734
904.1246634
903.4367739
902.7702937
902.1245932
901.4990108
900.8928754
900.3054813
941.6301226
941.5300874
941.3157396
940.9992594
940.5873446
940.086345
939.5022467
938.8408932
938.1082205
937.3101951
936.4528613
935.5420169
934.5838111
933.5840674
932.5487421
931.4834344
930.3939016
929.2852321
928.1626102
927.0309344
925.8946313
924.757839
923.624354
922.4976549
921.3809728
920.2769399
919.1879995
918.116354
917.0637521
916.0315946
915.0212811
914.0336756
913.0695283
912.1295473
911.2139477
910.3230056
909.456741
908.6150639
907.7979552
907.0049886
906.2358279
905.4901055
904.7673754
904.0670626
903.3886001
902.7313529
902.0946859
901.4779202
900.8803846
900.3013675
941.4299669
941.3292472
941.1135606
940.7948557
940.3803966
939.8763152
939.2887809
938.6238779
937.8876415
937.0860741
936.2252425
935.3112519
934.3502581
933.3480869
932.3108757
931.2443163
930.153893
929.045184
927.923234
926.7928223
925.6584287
924.5244196
923.3944144
922.2718793
921.1599169
920.061376
918.9785806
917.9135565
916.8681338
915.8437289
914.8414477
913.8624109
912.9070847
911.9762426
911.0699598
910.1885998
909.3319503
908.5000938
907.6927428
906.9095411
906.1501186
905.4141412
904.700979
904.0101073
903.3409362
902.6928038
902.0650669
901.4570256
900.8680063
900.2972895
941.2293141
941.1281582
940.9113549
940.591167
940.1747998
939.6686055
939.0787404
938.4113789
937.6726207
936.8685941
936.0054683
935.0894857
934.1265699
933.123038
932.0846556
931.0174513
929.9268796
928.818377
927.6972492
926.5682545
925.4358584
924.3042725
923.177349
922.058583
920.9509656
919.8571995
918.7798347
917.7208286
916.6818131
915.6643579
914.6695153
913.6981605
912.7510455
911.8285706
910.931066
910.058572
909.2110031
908.3884286
907.5903648
906.8165034
906.0665126
905.3398626
904.635965
903.9542653
903.2941474
902.6549197
902.0359274
901.4364481
900.8558038
900.2932649
941.0282109
940.9267947
940.7094279
940.3886778
939.9713673
939.4641891
938.8733377
938.2049686
937.4652119
936.6603544
935.7965672
934.8799197
933.9166957
932.9129051
931.8746852
930.807693
929.7177566
928.6102328
927.4902984
926.3628336
925.2324538
924.1032706
922.9790746
921.8634511
920.7595414
919.669936
918.5970544
917.5430868
916.509599
915.4979573
914.509511
913.5448581
912.6048788
911.689816
910.8000996
909.9355685
909.096323
908.2821386
907.4926289
906.7274649
905.9862681
905.2683854
904.5732585
903.9002912
903.2488373
902.6181707
902.0076194
901.416432
900.8439196
900.2893392
940.8266955
940.7253484
940.5083589
940.1878357
939.771056
939.2644091
938.6742373
938.0067652
937.2681134
936.4644864
935.6019572
934.6867578
933.7251172
932.7229472
931.6864631
930.6213227
929.5331053
928.4275467
927.3096437
926.1842322
925.0559643
923.9291455
922.8074768
921.6945397
920.5934843
919.5071455
918.4378256
917.3875925
916.3583486
915.3513108
914.3677297
913.408447
912.4741003
911.565147
910.6817598
909.8239121
908.9916981
908.1847196
907.4026505
906.6451945
905.9117675
905.2017644
904.5145928
903.8496129
903.2061448
902.5834257
901.9807639
901.3973787
900.8325697
900.2855765
940.6249704
940.5242319
940.3083011
939.9893289
939.5746786
939.0706309
938.4834422
937.8192714
937.0842266
936.2844141
935.425868
934.5149413
933.5573904
932.5594591
931.5269214
930.4657354
929.3812695
928.2790772
927.1644487
926.0420632
924.9165582
923.7922345
922.6729984
921.562373
920.4635202
919.3793701
918.3123782
917.264575
916.2378475
915.2336672
914.2530983
913.2972499
912.3665818
911.4617537
910.5827498
909.7297392
908.9026284
908.1010819
907.3248151
906.5734192
905.8462805
905.1427861
904.4623114
903.8041727
903.1676527
902.5519452
901.9563272
901.3799759
900.8221647
900.28211
940.4232179
940.3234644
940.1096303
939.7939589
939.3832801
938.8842361
938.3027697
937.6449204
936.9167212
936.1241206
935.2732039
934.3698772
933.4199286
932.4295536
931.4042711
930.3499103
929.271886
928.1755433
927.0661311
925.9483917
924.826888
923.7058762
922.58939
921.480996
920.3839011
919.3010488
918.2351359
917.1882032
916.1621628
915.1587326
914.1789566
913.2240355
912.2945495
911.3911504
910.5138848
909.6630394
908.8384168
908.0397454
907.266807
906.5190605
905.7959329
905.0967856
904.420967
903.767755
903.1363984
902.5260528
901.9359698
901.3652942
900.8132794
900.2791116
940.2213804
940.1232042
939.9128711
939.6022163
939.1980971
938.7067201
938.1342514
937.4863611
936.7689397
935.9878068
935.1487419
934.2574194
933.3196023
932.3410553
931.3272984
930.2838076
929.2160009
928.128997
927.0278927
925.9174374
924.8020948
923.6861003
922.573487
921.4678907
920.3725682
919.2905453
918.2246471
917.1770259
916.1497155
915.1445962
914.1628387
913.205763
912.274111
911.3686144
910.4894424
909.6369979
908.8111124
908.0115929
907.238299
906.4906623
905.768154
905.0701398
904.3959623
903.7448779
903.1161058
902.5087579
901.9220392
901.3550341
900.8069443
900.2769178
939.9237525
939.7183171
939.4146993
939.019873
938.5396293
937.9798107
937.3460783
936.6440819
935.8792831
935.0571883
934.1832398
933.2629954
932.301804
931.3050166
930.2777924
929.2253447
928.1525532
927.0643685
925.9653256
924.859794
923.7519501
922.6458004
921.5448987
920.4525843
919.3720255
918.3059897
917.2568444
916.2268464
915.2178882
914.2314117
913.2689672
912.3313697
911.4196506
910.5340928
909.6752249
908.8431024
908.0376252
907.258739
906.5060131
905.7789657
905.0770153
904.3995403
903.7458193
903.115082
902.506442
901.9191025
901.3521409
900.8047424
900.2760067
)
;

boundaryField
{
    front_top
    {
        type            wedge;
    }
    front_middle
    {
        type            wedge;
    }
    front_bottom
    {
        type            wedge;
    }
    back_top
    {
        type            wedge;
    }
    back_middle
    {
        type            wedge;
    }
    back_bottom
    {
        type            wedge;
    }
    axis_top
    {
        type            symmetryPlane;
    }
    axis_middle
    {
        type            symmetryPlane;
    }
    axis_bottom
    {
        type            symmetryPlane;
    }
    wall_top
    {
        type            calculated;
        value           nonuniform 0();
    }
    wall_middle
    {
        type            calculated;
        value           uniform 900.0184441;
    }
    wall_bottom
    {
        type            calculated;
        value           nonuniform 0();
    }
    inlet
    {
        type            calculated;
        value           nonuniform 0();
    }
    outlet
    {
        type            calculated;
        value           nonuniform 0();
    }
    procBoundary3to2
    {
        type            processor;
        value           nonuniform List<scalar> 
51
(
940.0195699
940.0195699
939.7252247
939.5261348
939.231999
938.8492626
938.3837277
937.8408042
937.2259157
936.5443977
935.8014274
935.0021945
934.151807
933.2554993
932.3182361
931.345022
930.3407518
929.3102061
928.2580321
927.1889941
926.1072011
925.0169078
923.9222985
922.8269234
921.7344213
920.6481949
919.5712783
918.5064267
917.4562738
916.4231449
915.4089366
914.415592
913.4444994
912.4970167
911.5741725
910.6767542
909.8052728
908.9602893
908.141834
907.3499812
906.5847184
905.8456657
905.132421
904.4445116
903.7813424
903.1422249
902.5263141
901.9327994
901.3607094
900.8091512
900.2771754
)
;
    }
    procBoundary3to4
    {
        type            processor;
        value           nonuniform List<scalar> 
51
(
944.6758761
944.5943677
944.419241
944.1592946
943.819076
943.4019952
942.9114713
942.3503429
941.7216505
941.0284438
940.2739122
939.4613516
938.5943899
937.6767609
936.7122322
935.705157
934.6594751
933.5796461
932.1831654
932.1831654
931.0458764
929.888542
928.7155375
927.5310884
926.3391818
925.1436922
923.9481695
922.7559274
921.5701536
920.3936659
919.2290579
918.0787323
916.944707
915.828719
914.7323361
913.6568769
912.60352
911.5730474
910.5661658
909.5834251
908.6250622
907.6914658
906.7824552
905.8982347
905.0383946
904.2027873
903.3910897
902.6026858
901.8370816
901.093741
900.3719048
)
;
    }
}


// ************************************************************************* //
