/*--------------------------------*- C++ -*----------------------------------*\
  =========                 |
  \\      /  F ield         | OpenFOAM: The Open Source CFD Toolbox
   \\    /   O peration     | Website:  https://openfoam.org
    \\  /    A nd           | Version:  7
     \\/     M anipulation  |
\*---------------------------------------------------------------------------*/
FoamFile
{
    version     2.0;
    format      ascii;
    class       volScalarField;
    location    "0.0003";
    object      T;
}
// * * * * * * * * * * * * * * * * * * * * * * * * * * * * * * * * * * * * * //

dimensions      [0 0 0 1 0 0 0];

internalField   nonuniform List<scalar> 
1167
(
443.4518264
443.5755217
443.841324
444.2358361
444.7522144
445.3854881
446.1308755
446.983672
447.9397507
448.9946492
450.1437086
451.3819089
452.7042737
454.1054742
455.5793317
457.1204222
458.7220123
460.378246
443.721227
443.8469205
444.1169754
444.5173414
445.0416512
445.6839951
446.4397233
447.3040087
448.2721846
449.3395067
450.5010748
451.7518639
453.0864682
454.4989333
455.9835767
457.5340429
459.1441998
460.8071905
462.5166692
464.2660757
466.0488203
467.8583211
469.6883777
471.5330121
473.3863366
475.2428583
477.0974098
478.9450361
480.7814176
482.6024334
484.4044084
486.184084
487.9383786
489.6648772
491.3614814
493.0261712
494.657328
496.2540098
497.8149858
499.3396952
500.8275824
502.2784952
503.6921516
505.0689906
506.4089355
507.7125893
508.9806761
510.2137817
511.4127459
512.578594
443.9936057
444.1212753
444.3952241
444.8016671
445.3335632
445.9850504
446.7508833
447.6262219
448.6061212
449.685543
450.8593632
452.1222394
453.4681584
454.8915615
456.3861183
457.9454811
459.5630623
461.2323947
462.94644
464.6987507
466.4828246
468.2920344
470.120045
471.9607996
473.8085797
475.657983
477.5038859
479.341526
481.1665897
482.9748702
484.7629441
486.5277029
488.2663537
489.9763086
491.6555603
493.3024016
494.9152492
496.493089
498.0351408
499.5404834
501.0090383
502.4403641
503.8345749
505.1919471
506.5124737
507.7969043
509.0459265
510.2600954
511.440387
512.5877811
444.2687192
444.3981828
444.6762481
445.0887376
445.6279808
446.2884333
447.0643527
447.9505097
448.9418397
450.0330133
451.2185959
452.4927695
453.849827
455.2835169
456.7873395
458.3549067
459.9794489
461.6540672
463.3721223
465.1268832
466.9114891
468.719545
470.5448043
472.3812673
474.2231434
476.0650362
477.901838
479.729013
481.5423312
483.3378645
485.1121348
486.8619579
488.5848144
490.2784258
491.9406491
493.5698036
495.1647746
496.7241805
498.2476491
499.7342215
501.1839485
502.5963039
503.971682
505.3101546
506.6120138
507.877913
509.1085807
510.3045406
511.4668978
512.5965865
444.5464179
444.677819
444.9599975
445.3781862
445.9249726
446.5940518
447.3798215
448.2767113
449.2792007
450.3817055
451.5786081
452.8639663
454.2316308
455.6749061
457.1876799
458.7626844
460.3935285
462.0730727
463.7942913
465.5506731
467.3354167
469.1419187
470.9638327
472.7953114
474.6306541
476.4646211
478.2921535
480.1087084
481.9100342
483.6924879
485.4527324
487.1878504
488.8949907
490.5721971
492.2176556
493.8294253
495.4065944
496.9481416
498.4533032
499.9216534
501.3528967
502.7469291
504.1040194
505.4241703
506.7079601
507.9559472
509.1688768
510.347302
511.4923891
512.6050472
444.8267951
444.9601188
445.2462564
445.6701335
446.2243674
446.9020487
447.6974189
448.6047126
449.6181078
450.7317888
451.9398119
453.2358813
454.6134712
456.0662325
457.5870504
459.1693681
460.8057939
462.4895298
464.2136382
465.9711128
467.7552247
469.5594819
471.3777181
473.2039096
475.0323376
476.8579022
478.6756862
480.4812829
482.2706236
484.0399504
485.7860328
487.5061656
489.1978483
490.858784
492.4874088
494.0821989
495.6418191
497.1657861
498.6530001
500.1035056
501.5166854
502.8928431
504.2320446
505.5344615
506.8007097
508.0313325
509.2270461
510.3885606
511.5169694
512.6131995
445.1097425
445.2448569
445.5348038
445.964562
446.5258835
447.2122704
448.0171845
448.9347091
449.9588006
451.0834043
452.3020755
453.6083833
454.9958354
456.4573394
457.9861039
459.574863
461.2167188
462.9041449
464.6303663
466.3885386
468.17176
469.9733154
471.787245
473.6075788
475.4288079
477.2457955
479.0536282
480.8479882
482.6249592
484.3810261
486.1130676
487.8181742
489.4941865
491.1391593
492.7510638
494.3288577
495.8713116
497.3777548
498.8475035
500.2803555
501.6759641
503.0346335
504.3563193
505.641484
506.8906499
508.1043867
509.2833809
510.4284931
511.5407448
512.6210789
445.3948417
445.5318021
445.8257701
446.2612224
446.8296947
447.5243942
448.338802
449.266479
450.301046
451.4361818
452.6653192
453.9818193
455.378546
456.8485896
458.3847468
459.9797912
461.6262847
463.3171757
465.0452577
466.803503
468.5851831
470.383814
472.1932506
474.0074187
475.8210192
477.6289661
479.4265943
481.2096911
482.9741849
484.7167624
486.4345251
488.124845
489.7851923
491.4140014
493.0095236
494.5703881
496.0959074
497.5850345
499.037556
500.4529819
501.8313652
503.1728494
504.4773959
505.7456811
506.9781569
508.1753946
509.3381223
510.4672716
511.5638185
512.6287198
445.6822341
445.821078
446.1190369
446.5598953
447.1356752
447.8385924
448.6622067
449.5997758
450.6446833
451.7902737
453.0297114
454.3558886
455.7616695
457.2399962
458.7831299
460.3840236
462.035047
463.7287762
465.4582994
467.2165004
468.9963523
470.791551
472.5959818
474.4038057
476.2096975
478.008423
479.7955387
481.566989
483.3189866
485.0481454
486.7515304
488.426794
490.0717492
491.6844212
493.2635393
494.8076905
496.3162453
497.7883833
499.2238054
500.6220996
501.9835019
503.3079557
504.5957681
505.8474833
507.0635968
508.2446395
509.3915052
510.505064
511.5862912
512.6361559
445.9718537
446.1125637
446.4141405
446.8606664
447.4433174
448.1546936
448.9873811
449.9346818
450.9897413
452.145573
453.3947987
454.7304631
456.1452274
457.6312074
459.1813348
460.7876105
462.4427294
464.1392949
465.8698403
467.627458
469.4053106
471.1970084
472.9962218
474.7973183
476.5950958
478.3845359
480.1612183
481.9208874
483.6601148
485.3757327
487.0649109
488.7250726
490.3544633
491.9512299
493.5138815
495.0415384
496.5331849
497.988515
499.406895
500.788341
502.1329572
503.4405982
504.7119095
505.9473053
507.1473232
508.3124544
509.4437539
510.5420311
511.6082593
512.6434196
446.263437
446.4058073
446.7112224
447.1633544
447.7527675
448.4721053
449.3138716
450.2707835
451.3357033
452.5013464
453.7604031
455.1054231
456.5284878
458.0222688
459.5787315
461.1904572
462.8493311
464.5481961
466.2797808
468.036724
469.8122095
471.5999997
473.3939327
475.1883517
476.9779047
478.757806
480.5237646
482.271824
483.9983361
485.7002728
487.3751021
489.0203838
490.6341556
492.215064
493.7613746
495.2724979
496.7474537
498.1860448
499.5875443
500.9522797
502.2801377
503.5712726
504.8262644
506.045537
507.2295862
508.3791135
509.4950827
510.5783263
511.6298155
512.6505418
446.5567715
446.7009379
447.0101552
447.4674264
448.063802
448.790912
449.6413431
450.6075823
451.6821623
452.8575293
454.1261418
455.4798679
456.9113081
458.4123298
459.9751455
461.5916834
463.254374
464.9554281
466.6875764
468.4436601
470.2168751
472.0007051
473.7891158
475.5766095
477.3580054
479.1285219
480.8837456
482.619969
484.3338233
486.0222683
487.6826943
489.3130729
490.9114365
492.476344
494.0065829
495.5011535
496.9596156
498.3814014
499.7662871
501.1144252
502.4256336
503.7004125
504.9392267
506.1425281
507.3107689
508.4448669
509.5456884
510.6140915
511.6510454
512.6575515
446.8519455
446.9978506
447.3105593
447.7729956
448.3758435
449.1107336
449.9695385
450.9447832
452.0286822
453.2133511
454.4908354
455.8532893
457.2926597
458.8006399
460.369421
461.9907621
463.6567383
465.3599157
467.0926942
468.8476861
470.6183516
472.3982699
474.181375
475.961995
477.7351065
479.4961231
481.2408994
482.9654644
484.666614
486.3416354
487.9879475
489.6034119
491.1865628
492.735608
494.2497814
495.7280015
497.1700539
498.5751585
499.9435332
501.275057
502.5698434
503.8283748
505.0511234
506.2384857
507.3911344
508.5099325
509.5957436
510.6494521
511.6720252
512.6644746
447.1488206
447.2962061
447.6122447
448.0797709
448.6886699
449.4307261
450.2976746
451.2814922
452.3741344
453.5675792
454.8537596
456.2244434
457.6711439
459.1859438
460.7602011
462.3860048
464.0552924
465.7602187
467.4933661
469.2474807
471.0156872
472.7915809
474.5692579
476.3432823
478.1084603
479.8601179
481.5943953
483.3075985
484.9964113
486.6581039
488.2904929
489.8913797
491.4592869
492.9928702
494.4910085
495.9531734
497.3787783
498.7675208
500.1195102
501.4345037
502.7130126
503.9554019
505.1621752
506.3337057
507.4708717
508.5744736
509.6453813
510.6845068
511.6928165
512.6713325
447.4468974
447.5958214
447.9151329
448.3871112
449.0018975
449.7505526
450.6249017
451.6166339
452.7174677
453.9191815
455.2133457
456.5913979
458.0451949
459.5659487
461.1456115
462.7753578
464.4475482
466.1543296
467.8876955
469.6406742
471.4065119
473.178726
474.9511796
476.7186453
478.4760482
480.2189415
481.9431102
483.645119
485.3219621
486.9708457
488.5894984
490.176269
491.7292728
493.2476016
494.7300738
496.1764057
497.5858161
498.9584008
500.2940422
501.5928155
502.8551931
504.0815712
505.2723891
506.4282955
507.55008
508.6385819
509.6946801
510.7193164
511.7134582
512.6781391
447.7463882
447.896689
448.2188492
448.6947807
449.3147088
450.0694408
450.9503728
451.9491435
453.0572634
454.2661956
455.5672695
456.9521619
458.4119777
459.9382693
461.522331
463.1559411
464.830568
466.5386381
468.2723605
470.0243145
471.7877398
473.5562597
475.3239679
477.0853976
478.8354168
480.569787
482.2845282
483.9760062
485.6412735
487.2779126
488.8834904
490.456411
491.9952529
493.4986554
494.9660442
496.3967489
497.7905136
499.1472639
500.4668175
501.7496572
502.9961294
504.2066401
505.3817324
506.5221684
507.6287083
508.7022335
509.7436352
510.7538872
511.7339598
512.6848999
448.0471469
448.1985405
448.5228522
449.0023368
449.6263675
450.3860795
451.2725941
452.2771864
453.3912167
454.6060919
455.9131052
457.3034631
458.7682548
460.299023
461.8867777
463.5231456
465.2000051
466.9090192
468.6425997
470.3934986
472.1548628
473.9199494
475.6831149
477.4389017
479.1823694
480.9089308
482.6147836
484.2965644
485.951192
487.5762176
489.1696698
490.7295415
492.2548607
493.7441608
495.1970907
496.6128401
497.9915263
499.3327989
500.6369098
501.9042314
503.135167
504.3300711
505.4897881
506.615002
507.7065135
508.7652508
509.7921221
510.7881384
511.7542776
512.6916022
448.3487806
448.5008951
448.8270258
449.3089497
449.9361268
450.6993594
451.5897873
452.598549
453.7169054
454.9360712
456.2471807
457.6412277
459.1096497
460.6432343
462.233552
463.871707
465.5496141
467.2591454
468.9923018
470.7418566
472.5009694
474.2631278
476.0223182
477.7730263
479.5104775
481.2303061
482.9283477
484.6013385
486.2465045
487.8611497
489.4433826
490.9915835
492.5043218
493.9807255
495.420034
496.8219548
498.1864018
499.5130468
500.8024589
502.0549352
503.2708189
504.4507839
505.5956102
506.706033
507.7828986
508.8271868
509.8398275
510.8218717
511.7743075
512.6982166
448.6512206
448.8037917
449.1309104
449.6138884
450.2427581
451.0078065
451.9001131
452.9108417
454.0312046
455.2521721
456.564872
457.960556
459.4301083
460.9647795
462.5555659
464.1941345
465.8718204
467.5806103
469.3126973
471.0606597
472.8174167
474.5766036
476.3322955
478.0788316
479.811194
481.5251858
483.2168424
484.8825277
486.5195659
488.1255787
489.6981991
491.2362448
492.7380781
494.2030755
495.6303159
497.0198287
498.3712287
499.6846604
500.9605375
502.1991912
503.4010412
504.5669637
505.6976917
506.7940304
507.8568779
508.8872725
509.8861751
510.8546867
511.7938157
512.7046687
448.95441
449.1069425
449.4336331
449.9164758
450.5448137
451.3093862
452.2010453
453.2108448
454.3300062
455.5496191
456.8609543
458.2550116
459.7227531
461.2555736
462.8443457
464.4807294
466.1564382
467.8628717
469.5924948
471.3379514
473.0921001
474.8482703
476.600672
478.3436466
480.0721593
481.7816242
483.4682563
485.1286094
486.7594709
488.3586951
489.9240687
491.4540177
492.9472882
494.4029119
495.8203768
497.1994953
498.539891
499.8419869
501.1060998
502.3325075
503.5219635
504.6752673
505.7932083
506.8766647
507.9265905
508.9440863
509.9301474
510.8859246
511.8124474
512.710853
449.2580449
449.4097263
449.7349614
450.215671
450.841061
451.6020267
452.4895417
453.4947517
454.6088888
455.8231839
457.12896
458.5170253
459.979056
461.5059354
463.0892069
464.7200676
466.3905523
468.0923408
469.8174443
471.5587483
473.3091348
475.0619414
476.811058
478.5509163
480.2764631
481.9829633
483.6663884
485.3233491
486.9506567
488.5457585
490.1067351
491.6315839
493.1193321
494.5686847
495.9794298
497.3510629
498.6835072
499.9770838
501.2320406
502.4488364
503.6282721
504.7711595
505.8783408
506.9507658
507.98945
508.9955662
509.9701616
510.9144578
511.8295284
512.7165506
449.5618512
449.7121135
450.0343271
450.5102608
451.1299149
451.8836284
452.7628371
453.7588552
454.8630174
456.0667832
457.3613873
458.738309
460.18917
461.7049215
463.2774935
464.89828
466.5592443
468.252389
469.9697935
471.7042495
473.4487594
475.1967367
476.9418783
478.6785531
480.401642
482.1063937
483.7884027
485.4442656
487.0707553
488.6649293
490.2248991
491.7485156
493.2346114
494.6819025
496.090074
497.4584299
498.7870576
500.0761725
501.3259128
502.5369487
503.7100137
504.8459593
505.9456705
507.0101585
508.0404936
509.0379104
510.0034976
510.9385303
511.8441149
512.7214788
449.8659158
450.013865
450.3309359
450.7994987
451.4094984
452.1519172
453.0178377
453.9991173
455.0872904
456.2739971
457.5509231
458.9098891
460.3425458
461.840496
463.3956644
464.9999863
466.6454227
468.3243295
470.0290284
471.75231
473.4873413
475.2275797
476.9667361
478.6990833
480.4194357
482.1229239
483.8049503
485.4619433
487.0904905
488.6873967
490.2505751
491.7776891
493.2673133
494.7180349
496.1293412
497.5003464
498.8310884
500.1216521
501.3720464
502.5829813
503.755115
504.8892884
505.9863919
507.0474692
508.0736356
509.0661948
510.0263099
510.955353
511.8545149
512.7250845
450.3145255
450.624342
451.0824752
451.6786772
452.4045387
453.2516116
454.211746
455.2768203
456.4389976
457.6903613
459.0230703
460.429075
461.900605
463.4298388
465.0091967
466.6309572
468.2878519
469.9724384
471.677853
473.3974256
475.1247236
476.8535182
478.5782314
480.2935683
481.9944547
483.6764024
485.3355175
486.9680486
488.5707937
490.1412456
491.6767078
493.1756438
494.6361644
496.0575755
497.4387889
498.7794797
500.07958
501.3389548
502.5580867
503.7375522
504.8781009
505.9805594
507.0459295
508.0753045
509.06998
510.0311173
510.9600959
511.8581291
512.7265819
)
;

boundaryField
{
    front_top
    {
        type            wedge;
    }
    front_middle
    {
        type            wedge;
    }
    front_bottom
    {
        type            wedge;
    }
    back_top
    {
        type            wedge;
    }
    back_middle
    {
        type            wedge;
    }
    back_bottom
    {
        type            wedge;
    }
    axis_top
    {
        type            symmetryPlane;
    }
    axis_middle
    {
        type            symmetryPlane;
    }
    axis_bottom
    {
        type            symmetryPlane;
    }
    wall_top
    {
        type            convectiveRadiativeHeatFlux;
        mode            convectiveRadiative;
        kappaMethod     fluidThermo;
        kappa           none;
        alphaAni        Anialpha;
        h               nonuniform 0();
        Ta              constant 513.15;
        emissivityNozzle 0.95;
        emissivityFilament 0.95;
        dNozzle         2;
        dFilament       1.65;
        refValue        nonuniform 0();
        refGradient     nonuniform 0();
        valueFraction   nonuniform 0();
        value           nonuniform 0();
    }
    wall_middle
    {
        type            fixedValue;
        value           uniform 513.15;
    }
    wall_bottom
    {
        type            fixedValue;
        value           nonuniform 0();
    }
    inlet
    {
        type            fixedValue;
        value           nonuniform 0();
    }
    outlet
    {
        type            zeroGradient;
    }
    procBoundary3to2
    {
        type            processor;
        value           nonuniform List<scalar> 
51
(
450.1700701
450.1700701
450.6139198
450.9142898
451.3582898
451.9364498
452.6403206
453.4620827
454.3939203
455.4281619
456.5573773
457.7741085
459.0710027
460.440487
461.8753649
463.3683378
464.9122281
466.4999821
468.1246967
469.779229
471.4573912
473.1527121
474.8587695
476.5700727
478.2809391
479.9860036
481.6804309
483.3597821
485.0197701
486.6565603
488.2669678
489.8477093
491.3963631
492.9105412
494.3883695
495.8283528
497.2294359
498.5904827
499.9112133
501.1912825
502.4304916
503.6292444
504.787992
505.9073098
506.9879845
508.0309667
509.0374747
510.0086835
510.9460437
511.8508899
512.7246606
)
;
    }
    procBoundary3to4
    {
        type            processor;
        value           nonuniform List<scalar> 
51
(
443.185493
443.3071656
443.5686591
443.9569814
444.4655418
445.0894969
445.8240293
446.6652258
447.6088993
448.6508712
449.7867676
451.0120633
452.3217322
453.7105794
455.1733431
456.7038493
458.2965183
459.9449408
462.0824139
462.0824139
463.8279018
465.6085379
467.417812
469.2493817
471.0972116
472.955379
474.8184066
476.6811294
478.5385268
480.3861083
482.2196915
484.0353549
485.8297492
487.5999409
489.3432411
491.0573364
492.7401208
494.3901097
496.005932
497.5864631
499.1310805
500.6389174
502.1100294
503.5438545
504.9408321
506.3009843
507.6246269
508.9125634
510.1654095
511.3838602
512.5689869
)
;
    }
}


// ************************************************************************* //
