/*--------------------------------*- C++ -*----------------------------------*\
  =========                 |
  \\      /  F ield         | OpenFOAM: The Open Source CFD Toolbox
   \\    /   O peration     | Website:  https://openfoam.org
    \\  /    A nd           | Version:  7
     \\/     M anipulation  |
\*---------------------------------------------------------------------------*/
FoamFile
{
    version     2.0;
    format      ascii;
    class       volScalarField;
    location    "0.0003";
    object      thermo:alpha;
}
// * * * * * * * * * * * * * * * * * * * * * * * * * * * * * * * * * * * * * //

dimensions      [1 -1 -1 0 0 0 0];

internalField   nonuniform List<scalar> 
1167
(
0.0001203922415
0.000120380515
0.0001203553234
0.0001203179507
0.0001202690651
0.0001202069406
0.0001201294752
0.0001200488017
0.0001199512398
0.0001198499668
0.0001197326372
0.0001196164164
0.0001194873816
0.0001193522435
0.0001192013908
0.0001190435552
0.0001188651963
0.0001186808876
0.0001203667045
0.0001203547931
0.0001203292084
0.0001202912961
0.0001202416797
0.000120175908
0.0001201001324
0.0001200171404
0.0001199179536
0.0001198157563
0.0001196990309
0.0001195817484
0.0001194480497
0.0001193122473
0.0001191599557
0.0001189976596
0.0001188181738
0.0001186332236
0.0001184308158
0.0001182105278
0.0001179805955
0.0001177412203
0.0001174894126
0.0001172234399
0.0001169504251
0.0001166626813
0.0001163672418
0.0001160672212
0.0001157602151
0.000115447433
0.0001151271805
0.0001148064007
0.000114475209
0.000114145335
0.0001138110577
0.0001134838235
0.0001131501663
0.000112813127
0.0001124799547
0.0001121534846
0.0001118237291
0.0001115016463
0.0001111767743
0.0001108609632
0.0001105518402
0.000110242128
0.0001099338932
0.000109630833
0.0001093366485
0.0001090471879
0.0001203408951
0.0001203288011
0.0001203028576
0.0001202643853
0.00012021234
0.0001201446238
0.0001200707644
0.0001199837326
0.0001198865202
0.0001197799798
0.0001196654142
0.0001195470592
0.0001194117747
0.0001192719414
0.0001191187186
0.0001189517576
0.0001187715492
0.000118585235
0.0001183792028
0.0001181546702
0.0001179247057
0.0001176814852
0.0001174301105
0.0001171608648
0.0001168849161
0.0001165984421
0.0001163040195
0.0001160006455
0.0001156939914
0.0001153835591
0.0001150625555
0.0001147414663
0.0001144133794
0.0001140839162
0.0001137531952
0.0001134282058
0.0001130972976
0.0001127620522
0.0001124330222
0.0001121089455
0.0001117835594
0.0001114644156
0.0001111440787
0.0001108327889
0.0001105272223
0.0001102221159
0.0001099178439
0.0001096194603
0.000109329872
0.0001090448564
0.0001203148366
0.0001203025775
0.0001202762546
0.0001202372256
0.0001201817302
0.0001201144161
0.0001200411915
0.000119950125
0.000119854934
0.0001197440726
0.000119631726
0.0001195091567
0.0001193761169
0.0001192317268
0.0001190776399
0.0001189061064
0.0001187252274
0.0001185345031
0.0001183260426
0.0001180994323
0.0001178695367
0.0001176226397
0.0001173681337
0.0001170993966
0.0001168206359
0.0001165354878
0.0001162426321
0.0001159374612
0.000115629423
0.0001153196106
0.0001149996457
0.0001146783308
0.0001143533702
0.0001140243594
0.0001136971239
0.0001133732924
0.0001130460331
0.0001127126997
0.0001123877333
0.0001120659818
0.0001117448481
0.0001114285564
0.0001111126095
0.0001108057072
0.0001105035583
0.0001102028908
0.0001099024345
0.0001096085471
0.0001093233728
0.0001090426218
0.0001202885436
0.0001202761059
0.0001202494043
0.0001202076999
0.0001201508658
0.0001200855649
0.0001200092786
0.0001199175274
0.0001198219931
0.0001197102346
0.0001195979817
0.000119470945
0.0001193397004
0.0001191915923
0.0001190363221
0.0001188606651
0.000118679189
0.0001184841218
0.0001182714728
0.0001180447872
0.0001178132877
0.0001175645357
0.0001173067551
0.0001170389025
0.0001167574854
0.0001164708195
0.0001161798351
0.0001158755803
0.0001155662685
0.0001152555966
0.0001149383131
0.0001146168027
0.0001142949473
0.0001139664715
0.0001136426632
0.0001133199959
0.0001129942959
0.0001126648848
0.0001123439177
0.0001120244275
0.0001117074651
0.0001113939264
0.0001110822406
0.00011077959
0.0001104807518
0.0001101843735
0.0001098876063
0.000109598048
0.0001093171237
0.0001090404747
0.0001202620075
0.0001202493928
0.0001202214195
0.0001201773488
0.0001201204657
0.0001200565017
0.0001199763528
0.0001198866527
0.0001197869505
0.000119677382
0.000119564143
0.0001194334849
0.0001193004869
0.0001191514864
0.0001189917444
0.0001188153715
0.0001186333788
0.0001184340762
0.0001182172997
0.000117990606
0.0001177554251
0.0001175071271
0.000117246165
0.0001169787396
0.0001166952728
0.0001164064348
0.0001161136683
0.0001158118425
0.0001155043668
0.0001151929056
0.0001148783224
0.0001145567319
0.0001142374892
0.0001139100217
0.0001135896483
0.0001132681235
0.0001129439862
0.0001126184325
0.000112301383
0.0001119841203
0.0001116712319
0.0001113603864
0.0001110528664
0.0001107543298
0.0001104587078
0.0001101664867
0.0001098733024
0.0001095879185
0.0001093110982
0.0001090384059
0.0001202352388
0.0001202215651
0.0001201914162
0.0001201467525
0.0001200919991
0.0001200266548
0.0001199432171
0.0001198556047
0.0001197517402
0.000119644402
0.0001195287949
0.0001193986718
0.0001192612407
0.000119111425
0.000118947227
0.0001187702361
0.0001185871216
0.0001183842808
0.0001181634963
0.0001179368447
0.0001176980469
0.0001174502641
0.0001171862472
0.0001169160956
0.0001166339016
0.0001163438501
0.0001160485004
0.0001157487669
0.0001154435688
0.0001151313962
0.0001148194861
0.0001144978768
0.0001141790089
0.0001138548169
0.0001135378509
0.0001132175232
0.000112894918
0.000112573205
0.0001122599656
0.0001119449314
0.0001116360042
0.0001113278007
0.0001110243577
0.0001107298219
0.0001104373343
0.0001101491547
0.0001098594506
0.0001095781151
0.0001093052702
0.0001090364064
0.000120205968
0.0001201917283
0.0001201611738
0.0001201169855
0.000120063328
0.0001199942887
0.0001199116817
0.0001198233088
0.0001197178062
0.0001196113294
0.0001194913916
0.0001193637898
0.0001192219801
0.0001190713709
0.0001189027803
0.0001187251893
0.0001185378447
0.0001183331474
0.0001181099611
0.0001178834314
0.0001176411304
0.0001173917248
0.0001171268783
0.0001168540805
0.0001165732229
0.0001162847212
0.0001159867712
0.000115686583
0.0001153836766
0.0001150708778
0.0001147590713
0.0001144400531
0.000114121604
0.0001138007222
0.0001134870923
0.0001131679914
0.0001128469117
0.0001125289905
0.0001122195067
0.0001119066876
0.0001116016415
0.0001112960424
0.0001109965872
0.0001107059644
0.0001104165415
0.0001101320806
0.0001098459915
0.0001095685955
0.0001092996143
0.0001090344674
0.0001201760911
0.0001201616614
0.0001201307049
0.0001200887887
0.0001200344647
0.0001199617218
0.0001198812423
0.0001197888456
0.0001196855547
0.0001195781501
0.0001194538893
0.0001193269374
0.0001191826983
0.0001190304811
0.0001188583874
0.0001186802454
0.0001184886928
0.0001182799392
0.0001180566955
0.0001178296843
0.0001175845568
0.0001173319863
0.0001170680213
0.0001167926349
0.0001165125722
0.0001162261963
0.0001159266168
0.0001156251869
0.0001153230192
0.0001150111717
0.0001146991856
0.0001143831436
0.0001140650992
0.0001137475179
0.0001134361882
0.0001131193427
0.0001127998299
0.0001124856267
0.0001121791969
0.0001118692298
0.0001115680076
0.0001112650045
0.0001109694415
0.0001106826585
0.0001103962422
0.0001101150302
0.0001098328675
0.0001095593184
0.000109294106
0.0001090325804
0.0001201459949
0.0001201313773
0.0001201025475
0.0001200604059
0.0001200026947
0.0001199290165
0.0001198506504
0.0001197542323
0.0001196531856
0.0001195448743
0.0001194186307
0.0001192884765
0.0001191433931
0.0001189868171
0.0001188140391
0.0001186353987
0.0001184396987
0.0001182269014
0.0001180036539
0.0001177730317
0.0001175283194
0.0001172726154
0.000117009561
0.0001167316683
0.0001164494554
0.0001161638941
0.0001158669217
0.0001155644049
0.0001152614391
0.0001149521762
0.0001146400103
0.000114326949
0.0001140093739
0.0001136950433
0.0001133847748
0.0001130714177
0.0001127534881
0.0001124429607
0.0001121385769
0.0001118324175
0.0001115349734
0.0001112345381
0.0001109428115
0.000110659809
0.0001103763524
0.0001100983336
0.0001098200232
0.0001095502444
0.0001092887215
0.0001090307371
0.0001201167764
0.0001201033342
0.0001200745069
0.0001200317285
0.0001199706162
0.0001198991333
0.0001198184074
0.0001197206472
0.0001196207475
0.0001195082736
0.0001193844697
0.0001192499964
0.0001191041396
0.0001189431937
0.0001187698056
0.0001185902822
0.0001183908623
0.0001181741027
0.0001179508488
0.0001177166446
0.000117472397
0.0001172136388
0.0001169492462
0.0001166711187
0.000116386796
0.0001160995056
0.0001158045337
0.0001155041608
0.0001152004123
0.0001148937556
0.0001145814624
0.0001142713361
0.0001139542654
0.0001136431726
0.0001133339639
0.0001130229836
0.0001127077302
0.0001124008608
0.0001120985082
0.0001117961232
0.0001115012685
0.0001112045291
0.0001109165954
0.0001106373266
0.0001103568123
0.000110081923
0.000109807406
0.0001095413358
0.0001092834381
0.0001090289298
0.0001200890836
0.0001200754775
0.0001200463036
0.000120000195
0.0001199383876
0.0001198691322
0.0001197845486
0.000119689036
0.0001195882787
0.0001194716074
0.0001193503138
0.0001192115895
0.0001190649522
0.0001188997058
0.000118725706
0.0001185420067
0.0001183412686
0.0001181215496
0.0001178983501
0.0001176606104
0.0001174161931
0.0001171550294
0.000116887935
0.0001166110314
0.0001163265312
0.0001160355906
0.0001157426181
0.0001154444248
0.000115139907
0.000114835819
0.0001145234297
0.0001142147476
0.000113899653
0.0001135918225
0.000113283639
0.0001129740697
0.0001126624355
0.0001123592353
0.000112058872
0.000111760234
0.0001114678034
0.0001111748777
0.0001108907024
0.0001106151311
0.000110337531
0.0001100657368
0.0001097949673
0.0001095325576
0.0001092782349
0.000109027151
0.0001200612287
0.0001200474642
0.000120016461
0.0001199685198
0.0001199081946
0.0001198390492
0.0001197506307
0.0001196574021
0.00011955582
0.0001194355911
0.0001193130789
0.0001191733076
0.0001190246018
0.0001188564368
0.0001186818686
0.0001184940165
0.0001182892495
0.0001180693802
0.0001178462256
0.0001176050083
0.000117357358
0.0001170969117
0.0001168271107
0.0001165514207
0.0001162683477
0.0001159754326
0.0001156812191
0.0001153851718
0.0001150799156
0.0001147766241
0.0001144658625
0.00011415746
0.0001138454855
0.0001135408868
0.0001132337432
0.0001129255576
0.0001126175218
0.0001123179616
0.0001120195773
0.0001117246875
0.0001114346406
0.0001111455019
0.0001108650577
0.0001105923749
0.0001103184459
0.0001100497213
0.0001097826648
0.0001095238793
0.0001092730931
0.0001090253943
0.000120033225
0.0001200179496
0.0001199851815
0.0001199367334
0.0001198787522
0.0001198063235
0.0001197181227
0.0001196258294
0.0001195213735
0.0001194024844
0.0001192758211
0.0001191352781
0.000118982361
0.000118813526
0.0001186384437
0.000118446514
0.0001182377518
0.0001180177795
0.0001177915134
0.0001175500194
0.000117299162
0.0001170394474
0.0001167669975
0.0001164906912
0.0001162107723
0.0001159160907
0.0001156204788
0.0001153250755
0.000115020491
0.0001147168321
0.0001144088299
0.0001141006628
0.0001137918111
0.0001134903623
0.0001131842684
0.0001128774188
0.0001125729866
0.0001122769957
0.0001119805734
0.0001116894111
0.0001114017235
0.0001111163458
0.0001108396104
0.0001105697294
0.0001102995121
0.0001100338364
0.0001097704657
0.0001095152763
0.0001092679976
0.0001090236541
0.0001200023235
0.0001199868839
0.0001199537906
0.0001199071339
0.000119849285
0.0001197732604
0.0001196874109
0.0001195944185
0.0001194860234
0.0001193696394
0.0001192389247
0.0001190976983
0.0001189406371
0.000118771228
0.0001185956388
0.0001183997451
0.0001181870959
0.0001179670052
0.0001177371735
0.0001174959682
0.000117241951
0.0001169826489
0.0001167078397
0.0001164292288
0.0001161481053
0.0001158569865
0.0001155605891
0.0001152641455
0.0001149618579
0.0001146577698
0.0001143524878
0.0001140444949
0.0001137386953
0.000113439462
0.000113135253
0.0001128297092
0.0001125288238
0.0001122363562
0.0001119418989
0.0001116543933
0.0001113690401
0.0001110873916
0.0001108143589
0.0001105472368
0.0001102807058
0.0001100180594
0.0001097583508
0.000109506734
0.0001092629389
0.0001090219269
0.0001199712774
0.0001199557017
0.0001199229754
0.0001198781772
0.0001198183208
0.0001197403093
0.0001196568779
0.000119563269
0.0001194510545
0.0001193361499
0.0001192026276
0.0001190607715
0.0001188997451
0.0001187298073
0.0001185503492
0.0001183539988
0.0001181376596
0.0001179175206
0.0001176841941
0.0001174432588
0.0001171861748
0.0001169240577
0.0001166501269
0.0001163692072
0.0001160861221
0.0001157966163
0.0001155019805
0.0001152044405
0.0001149043742
0.000114599804
0.000114297113
0.0001139892844
0.0001136863869
0.0001133879014
0.0001130868879
0.0001127826314
0.0001124851725
0.0001121961565
0.0001119036228
0.0001116197081
0.0001113366489
0.0001110586948
0.0001107893106
0.0001105249174
0.0001102620393
0.000110002396
0.0001097463211
0.0001094982506
0.0001092579147
0.0001090202114
0.000119940113
0.0001199248877
0.0001198943569
0.0001198492437
0.0001197860967
0.0001197098241
0.0001196266636
0.0001195313584
0.0001194189654
0.0001193012446
0.0001191671773
0.0001190233958
0.0001188600445
0.000118689694
0.0001185065183
0.0001183065176
0.0001180900014
0.0001178698545
0.0001176332284
0.0001173903055
0.0001171324902
0.000116867644
0.0001165945542
0.0001163140471
0.0001160266077
0.0001157382875
0.0001154453143
0.0001151466253
0.0001148486056
0.0001145435156
0.0001142430513
0.0001139354762
0.00011363535
0.0001133374973
0.0001130391181
0.0001127364759
0.0001124423188
0.0001121550145
0.0001118659499
0.0001115855316
0.0001113047002
0.0001110303787
0.000110764561
0.000110502848
0.0001102435702
0.0001099868902
0.0001097344072
0.0001094898461
0.0001092529357
0.0001090185107
0.0001199107423
0.0001198964235
0.0001198657346
0.0001198189164
0.000119754083
0.0001196804246
0.0001195969342
0.0001194982655
0.0001193885331
0.0001192673736
0.000119132949
0.000118985699
0.0001188220209
0.0001186514389
0.0001184648335
0.0001182614695
0.0001180449237
0.0001178238039
0.0001175851139
0.0001173392653
0.0001170819039
0.0001168144381
0.0001165420929
0.0001162624987
0.0001159730918
0.0001156830398
0.000115391536
0.0001150916805
0.0001147946027
0.0001144897722
0.000114189033
0.0001138838714
0.0001135863251
0.000113288945
0.000112991421
0.0001126918234
0.0001124007848
0.0001121150308
0.0001118292916
0.0001115522178
0.0001112735353
0.0001110026906
0.0001107403264
0.0001104812098
0.00011022544
0.0001099716516
0.0001097226862
0.000109481569
0.0001092480274
0.0001090168324
0.0001198822761
0.0001198679205
0.0001198371518
0.0001197873867
0.0001197232783
0.0001196514914
0.0001195678613
0.0001194661209
0.0001193591782
0.0001192349419
0.0001191004142
0.0001189500763
0.0001187863457
0.0001186157197
0.0001184261433
0.0001182198186
0.0001180033987
0.0001177794883
0.0001175410522
0.0001172925771
0.0001170356738
0.0001167658593
0.0001164924907
0.0001162153403
0.000115924065
0.0001156323686
0.0001153414638
0.000115041008
0.0001147430036
0.0001144399148
0.0001141387622
0.0001138357061
0.0001135404017
0.0001132433244
0.0001129464461
0.000112649583
0.0001123614026
0.0001120769715
0.0001117942953
0.0001115198897
0.0001112436233
0.0001109760467
0.0001107169518
0.0001104602952
0.0001102078827
0.0001099568696
0.0001097112994
0.0001094735176
0.000109243247
0.0001090151952
0.0001198537516
0.0001198394057
0.0001198060229
0.0001197561135
0.0001196949262
0.0001196232145
0.0001195392014
0.0001194358254
0.0001193295957
0.0001192044373
0.0001190701055
0.0001189172424
0.0001187537809
0.0001185824455
0.0001183914609
0.0001181828122
0.0001179667336
0.0001177405934
0.0001175025897
0.000117251985
0.0001169955615
0.0001167237768
0.0001164485424
0.0001161709495
0.0001158815354
0.0001155883198
0.0001152960696
0.0001149966784
0.0001146976858
0.0001143959764
0.0001140942169
0.0001137928479
0.000113499313
0.0001132023348
0.0001129058071
0.0001126112392
0.0001123254734
0.0001120420885
0.0001117620765
0.0001114892223
0.0001112158522
0.0001109512128
0.0001106950834
0.0001104406576
0.0001101913395
0.0001099428935
0.0001097004969
0.0001094658535
0.0001092386816
0.0001090136261
0.0001198241811
0.0001198084949
0.0001197748719
0.0001197258214
0.000119667131
0.0001195957873
0.0001195094891
0.0001194092896
0.0001193009574
0.0001191763932
0.0001190426817
0.0001188880374
0.0001187252711
0.0001185523216
0.0001183620642
0.0001181519191
0.0001179365854
0.0001177089844
0.0001174716778
0.0001172196743
0.0001169624067
0.0001166906891
0.0001164141019
0.0001161351897
0.0001158470867
0.0001155537464
0.0001152603069
0.0001149616082
0.0001146615818
0.0001143607283
0.000114058202
0.0001137579119
0.0001134655326
0.0001131683407
0.0001128718064
0.0001125788995
0.0001122948861
0.0001120121403
0.0001117342059
0.0001114624672
0.000111191441
0.0001109292278
0.0001106755948
0.0001104230497
0.000110176424
0.0001099302306
0.0001096906673
0.0001094588533
0.0001092344962
0.0001090121804
0.0001197927662
0.0001197772334
0.0001197439369
0.0001196981688
0.0001196400407
0.0001195694053
0.0001194813534
0.0001193846143
0.0001192748709
0.00011915143
0.0001190169298
0.0001188633807
0.0001187019067
0.0001185283868
0.0001183382788
0.0001181289227
0.0001179148681
0.0001176869441
0.0001174507479
0.0001171983875
0.000116940738
0.0001166698207
0.0001163926915
0.0001161131738
0.0001158255454
0.000115532556
0.0001152382882
0.0001149398374
0.0001146389069
0.0001143382779
0.0001140349094
0.0001137349103
0.0001134421304
0.0001131451282
0.0001128481584
0.0001125559948
0.0001122728358
0.000111990178
0.0001117134352
0.0001114422045
0.0001111726735
0.0001109120806
0.0001106601832
0.0001104089381
0.0001101643131
0.0001099198155
0.0001096824787
0.0001094529476
0.0001092309221
0.0001090109299
0.0001197613381
0.0001197460509
0.0001197150003
0.0001196710299
0.0001196138304
0.0001195442623
0.000119455111
0.0001193621745
0.0001192518568
0.0001191302022
0.0001189957759
0.0001188442675
0.0001186848559
0.0001185120832
0.0001183229987
0.0001181158012
0.0001179037755
0.0001176770387
0.0001174426113
0.0001171913572
0.0001169347512
0.0001166650463
0.0001163886236
0.000116109633
0.0001158224837
0.0001155297184
0.0001152353023
0.0001149366548
0.0001146351812
0.0001143340457
0.0001140298486
0.0001137291722
0.000113435413
0.0001131377209
0.0001128397667
0.0001125470537
0.0001122634606
0.0001119800987
0.0001117032284
0.0001114316197
0.0001111623193
0.0001109021487
0.0001106508629
0.0001104000737
0.0001101564502
0.0001099128589
0.0001096768753
0.0001094488206
0.0001092283739
0.000109010015
0.0001197165408
0.0001196874634
0.0001196444891
0.0001195886052
0.0001195182423
0.0001194320144
0.0001193417431
0.0001192324136
0.0001191133033
0.0001189802169
0.0001188316622
0.000118675238
0.0001185048558
0.0001183185803
0.000118114613
0.0001179056373
0.0001176820611
0.0001174503846
0.000117202249
0.0001169487042
0.000116680969
0.0001164071523
0.0001161304778
0.0001158441429
0.0001155517734
0.0001152584996
0.0001149594171
0.000114658298
0.0001143560117
0.0001140513988
0.0001137490352
0.0001134542437
0.0001131545052
0.000112855104
0.0001125601846
0.0001122744493
0.0001119894228
0.0001117105497
0.0001114373439
0.0001111663512
0.000110904713
0.0001106521978
0.0001104004395
0.0001101560542
0.0001099119279
0.0001096756944
0.0001094476571
0.0001092274883
0.0001090096351
)
;

boundaryField
{
    front_top
    {
        type            wedge;
    }
    front_middle
    {
        type            wedge;
    }
    front_bottom
    {
        type            wedge;
    }
    back_top
    {
        type            wedge;
    }
    back_middle
    {
        type            wedge;
    }
    back_bottom
    {
        type            wedge;
    }
    axis_top
    {
        type            symmetryPlane;
    }
    axis_middle
    {
        type            symmetryPlane;
    }
    axis_bottom
    {
        type            symmetryPlane;
    }
    wall_top
    {
        type            calculated;
        value           nonuniform 0();
    }
    wall_middle
    {
        type            calculated;
        value           uniform 0.0001089022317;
    }
    wall_bottom
    {
        type            calculated;
        value           nonuniform 0();
    }
    inlet
    {
        type            calculated;
        value           nonuniform 0();
    }
    outlet
    {
        type            calculated;
        value           nonuniform 0();
    }
    procBoundary3to2
    {
        type            processor;
        value           nonuniform List<scalar> 
51
(
0.0001197301028
0.0001197301028
0.0001196884413
0.0001196602622
0.0001196186303
0.0001195644579
0.0001194939651
0.0001194123425
0.0001193230314
0.0001192168918
0.0001191011816
0.0001189708735
0.0001188263244
0.0001186739697
0.0001185078906
0.000118326532
0.0001181271231
0.0001179224969
0.0001177045283
0.0001174769286
0.0001172345053
0.0001169866873
0.0001167221507
0.0001164535524
0.0001161817703
0.0001158955746
0.0001156057001
0.0001153156533
0.000115016283
0.0001147171237
0.0001144132637
0.0001141092747
0.0001138041932
0.0001135065292
0.0001132053173
0.0001129041019
0.0001126048503
0.0001123146977
0.0001120267418
0.0001117432251
0.0001114666861
0.0001111912177
0.000110925369
0.0001106689637
0.0001104142065
0.0001101665735
0.0001099199226
0.0001096812048
0.0001094511044
0.0001092292621
0.0001090101226
)
;
    }
    procBoundary3to4
    {
        type            processor;
        value           nonuniform List<scalar> 
51
(
0.0001204174974
0.0001204059583
0.0001203811655
0.0001203443649
0.0001202962
0.0001202371538
0.0001201613547
0.0001200788476
0.0001199855282
0.000119882309
0.0001197695175
0.0001196510922
0.0001195267704
0.0001193891241
0.0001192430284
0.0001190861861
0.0001189126152
0.0001187290653
0.0001184829989
0.0001184829989
0.0001182671297
0.0001180373284
0.0001178019284
0.000117549758
0.0001172872255
0.0001170155251
0.000116728402
0.0001164353703
0.0001161373269
0.0001158282183
0.0001155131084
0.0001151937346
0.0001148704559
0.0001145390401
0.000114208794
0.0001138709253
0.0001135400004
0.0001132049604
0.0001128661418
0.0001125286858
0.0001121996007
0.0001118655053
0.0001115400407
0.0001112108251
0.0001108903345
0.000110577511
0.0001102630082
0.0001099506479
0.0001096427119
0.0001093437305
0.000109049626
)
;
    }
}


// ************************************************************************* //
