/*--------------------------------*- C++ -*----------------------------------*\
  =========                 |
  \\      /  F ield         | OpenFOAM: The Open Source CFD Toolbox
   \\    /   O peration     | Website:  https://openfoam.org
    \\  /    A nd           | Version:  7
     \\/     M anipulation  |
\*---------------------------------------------------------------------------*/
FoamFile
{
    version     2.0;
    format      ascii;
    class       volScalarField;
    location    "0.0003";
    object      thermo:mu;
}
// * * * * * * * * * * * * * * * * * * * * * * * * * * * * * * * * * * * * * //

dimensions      [1 -1 -1 0 0 0 0];

internalField   nonuniform List<scalar> 
1167
(
169320.1965
167419.7297
163419.14
157684.324
150527.8668
142261.0149
133198.7364
123643.4596
113866.3105
104108.0894
94570.90745
85416.56052
76763.8191
68694.4676
61259.58547
54476.41489
48344.42573
42841.16665
165212.804
163336.1088
159387.1548
153735.0819
146682.0335
138548.2146
129642.0509
120262.3392
110680.22
101132.3472
91815.78061
82885.57367
74457.34588
66610.58554
59388.52582
52809.05695
46866.04471
41538.77995
36792.54159
32585.80825
28873.07554
25607.50123
22742.36854
20233.01881
18037.94097
16118.89466
14441.29767
12974.33403
11690.49215
10565.71744
9578.936984
8711.798206
7948.473047
7275.14174
6679.900311
6152.569804
5684.34376
5267.536543
4895.670469
4563.061096
4264.853538
3996.817134
3755.348908
3537.238659
3339.804145
3160.635381
2997.637697
2849.015266
2713.179811
2588.730396
161177.233
159325.1818
155433.9741
149862.5409
142918.6127
134917.4857
126170.1411
116969.6885
107584.0112
98245.85928
89147.35273
80439.27313
72234.63487
64604.74649
57591.81062
51209.8402
45451.75704
40293.70162
35702.21505
31635.02797
28046.73439
24891.3326
22123.31325
19699.20392
17578.43243
15723.88395
14102.1265
12683.31093
11440.97655
10352.04638
9396.117916
8555.506255
7814.91682
7161.182951
6582.848813
6070.053285
5614.352018
5208.391581
4845.849061
4521.355329
4230.146625
3968.21691
3732.031576
3518.53096
3325.122319
3149.462096
2989.535733
2843.613495
2710.144231
2587.778234
157216.9734
155392.5554
151556.6039
146067.251
139236.2345
131370.2924
122781.5536
113761.5331
104572.7549
95443.8527
86562.56936
78076.19207
70089.51085
62672.78015
55864.31833
49674.81971
44095.51314
39102.32683
34659.80013
30726.46968
27258.02055
24208.63656
21533.69624
19190.85138
17140.85698
15347.78113
13779.30397
12406.4597
11203.73629
10148.79891
9222.109911
8406.725164
7687.835507
7052.701961
6490.400351
5991.457754
5547.639167
5151.993979
4798.346833
4481.55701
4197.020063
3940.902387
3709.753109
3500.660917
3311.082634
3138.773002
2981.781662
2838.441589
2707.23674
2586.86604
153333.7586
151535.2474
147755.2941
142353.2761
135633.0892
127906.3314
119477.9957
110637.5594
101645.477
92725.487
84059.77869
75790.0554
68018.07048
60811.03135
54201.11347
48199.63171
42793.9433
37959.55691
33661.43345
29857.48362
26503.838
23555.9467
20970.32656
18705.52424
16723.3875
14989.03533
13471.27207
12142.20862
10977.29692
9954.880098
9056.130743
8264.678398
7566.466725
6949.130423
6402.085039
5916.335101
5483.909503
5098.048856
4752.919596
4443.463033
4165.325213
3914.738382
3688.405094
3483.530681
3297.619169
3128.518849
2974.342974
2833.476642
2704.44472
2585.98993
149525.7859
147753.6927
144032.296
138718.1065
132110.2224
124522.6224
116256.392
107596.8579
98800.74076
90086.9512
81633.46133
73577.83508
66017.97414
59014.27677
52599.75285
46779.61062
41542.94383
36862.70846
32703.32593
29024.06823
25781.3323
22931.21065
20431.06868
18240.91004
16323.76102
14645.73866
13176.6283
11889.48043
10760.58374
9769.20773
8897.199217
8128.737225
7450.202246
6849.871304
6317.487072
5844.296722
5422.775345
5046.2869
4709.312328
4406.882738
4134.879064
3889.596587
3667.896776
3467.058482
3284.668599
3118.652149
2967.188466
2828.696404
2701.755865
2585.146103
145793.9684
144050.2294
140389.554
135161.0339
128669.6544
121219.4869
113114.715
104635.6821
96034.37315
87524.88062
79282.03906
71437.68067
64084.02261
57280.62077
51055.06179
45412.64764
40338.81315
35807.80318
31783.08614
28223.83778
25087.51806
22331.45632
19913.71969
17795.40237
15940.50014
14316.35732
12893.83516
11646.9018
10552.64357
9591.008654
8744.529798
7998.11537
7338.536976
6754.430026
6236.115958
5775.03171
5363.932941
4996.492686
4667.310355
4371.663098
4105.533549
3865.355682
3648.123704
3451.166378
3272.170341
3109.127302
2960.279923
2824.079338
2699.15822
2584.33085
142142.9318
140426.8926
136824.4161
131683.9734
125308.044
117998.7535
110054.333
101754.1112
93346.15897
85039.65374
77003.57455
69365.12935
62214.65841
55606.00225
49565.07998
44094.41823
39179.52794
34792.30641
30897.27558
27454.19465
24420.76851
21754.93617
19416.20333
17366.90663
15571.93075
13999.6896
12621.89908
11413.45693
10352.43469
9419.427665
8597.548892
7872.204173
7230.856326
6662.440455
6157.586456
5708.176684
5307.101071
4948.38128
4626.712903
4337.617743
4077.149175
3841.904903
3628.985851
3435.780249
3260.066631
3099.903765
2953.585873
2819.604641
2696.640212
2583.540576
138569.7842
136881.0641
133337.3159
128288.1409
122025.4487
114856.9809
107073.9714
98952.21571
90735.15236
82627.86783
74794.66989
67359.48825
60407.17195
53988.10363
48127.03841
42823.30641
38061.61979
33814.10928
30044.38265
26712.86073
23778.49229
21199.79685
18937.31489
16954.25635
15216.72635
13694.35498
12359.66376
11188.37615
10159.24942
9253.702981
8455.528067
7750.576864
7126.695057
6573.417104
6081.580323
5643.411235
5252.061474
4901.7331
4587.347738
4304.57997
4049.594773
3819.151026
3610.395132
3420.829539
3248.302256
3090.94186
2947.076029
2815.252203
2694.190603
2582.771774
135074.297
133413.1598
129932.4234
124971.1332
118825.6689
111794.2332
104171.897
96227.20858
88198.93354
80288.01065
72655.72319
65419.05026
58659.19463
52426.14209
46738.57999
41597.20127
36984.08004
32870.79942
29222.26084
25998.71357
23159.54553
20664.45553
18475.32235
16556.16873
14874.08235
13399.5817
12106.20032
10970.69769
9972.395711
9093.335287
8317.919326
7632.663011
7025.715026
6486.999794
6007.79127
5580.465571
5198.552191
4856.34846
4549.050598
4272.405206
4022.748962
3796.97351
3592.268915
3406.247653
3236.824726
3082.196117
2940.721715
2811.00289
2691.798653
2582.021074
131658.4115
130027.1702
126606.5949
121733.4799
115705.3796
108814.2794
101350.0994
93580.28122
85738.98553
78022.464
70585.32279
63542.07126
56971.72278
50917.73272
45399.83554
40414.52171
35945.19476
31962.08128
28429.7789
25309.98098
22562.69025
20148.29692
18029.54831
16171.63996
14542.87426
13114.55278
11861.06847
10759.87101
9791.222832
8937.767925
8184.378602
7518.063634
6927.523483
6402.904487
5935.914068
5519.138243
5146.355732
4812.058276
4511.648129
4240.965317
3996.525654
3775.280168
3574.531191
3391.973009
3225.596655
3073.629297
2934.495818
2806.83855
2689.454135
2581.285258
128323.1266
126720.0597
123359.7669
118579.0735
112665.0241
105914.1685
98609.13937
91012.89868
83355.63673
75829.02543
68583.11776
61730.53123
55342.94918
49463.89516
44109.28362
39275.9295
34944.49176
31086.55342
27666.66597
24646.60634
21987.22281
19650.27153
17599.30363
15800.39129
14222.73897
12838.66703
11623.56883
10555.53816
9615.434363
8786.59693
8054.518284
7406.539745
6831.823439
6320.930202
5865.733742
5459.23304
5095.303803
4768.741846
4475.011565
4210.148853
3970.80917
3753.991539
3557.115523
3377.951146
3214.563258
3065.207753
2928.373625
2802.7425
2687.147578
2580.56132
125065.8928
123491.4815
120194.3308
115504.7636
109708.1074
103095.1265
95948.66588
88524.63531
81049.13119
73709.67403
66652.7196
59984.12704
53774.67523
48064.97036
42868.46417
38180.89246
33982.93473
30244.97197
26932.5663
24008.36895
21433.5187
19170.62709
17184.348
15441.95724
13913.46495
12571.9712
11393.58067
10357.37795
9444.818947
8639.711249
7928.111017
7297.893155
6738.454143
6240.850619
5797.127555
5400.585773
5045.278356
4726.251762
4439.04211
4179.89129
3945.520874
3733.042923
3539.96734
3364.149156
3203.68691
3056.902438
2922.333614
2798.700101
2684.870609
2579.846577
121886.6855
120343.4031
117110.3196
112511.4618
106834.2971
100361.922
93372.20801
86119.09129
78823.82848
71668.5171
64794.74918
58305.64003
52269.70572
46722.7882
41679.14639
37131.82392
33061.25833
29438.60806
26229.20731
23396.11341
20901.84068
18709.83092
16785.49793
15096.89797
13615.1971
12314.4404
11171.33371
10165.55994
9279.341246
8497.086098
7805.195126
7192.043317
6647.430298
6162.609852
5730.043885
5343.132688
4996.253727
4684.526287
4403.681105
4150.121194
3920.611054
3712.389855
3523.049485
3350.522123
3192.94055
3048.691606
2916.35923
2794.699796
2682.616456
2579.138808
118789.0137
117275.8139
114106.4784
109603.0409
104044.5007
97714.3831
90883.11845
83800.40667
76682.81159
69707.78803
63013.61215
56700.22497
50830.90086
45442.18737
40544.19466
36131.60112
32182.95978
28669.55321
25558.22868
22812.04072
20394.17288
18269.14374
16403.57228
14766.20564
13329.01871
12066.76543
10957.20012
9980.521914
9119.425882
8358.937005
7685.985154
7089.158024
6558.792289
6086.315386
5664.49533
5286.911372
4948.20094
4643.568493
4368.951851
4120.82076
3896.064787
3692.015618
3506.3579
3337.052796
3182.309644
3040.562878
2910.440633
2790.734497
2680.380856
2578.436562
115768.7317
114286.8019
111184.3159
106779.0416
101342.9797
95155.54834
88484.0642
81571.87396
74630.69576
67834.11652
61316.47244
55172.38921
49465.18555
44227.49194
39469.99636
35184.61152
31351.93526
27942.51886
24923.29829
22258.84771
19913.10417
17851.31169
16040.78753
14451.46919
13056.20888
11830.38073
10752.33108
9803.060721
8965.807747
8225.937893
7570.92489
6989.729178
6472.874568
6012.247883
5600.692312
5232.126459
4901.247277
4603.475358
4334.903211
4092.043108
3871.920005
3671.955105
3489.894621
3323.751698
3171.799884
3032.518606
2904.578039
2786.803319
2678.16272
2577.739289
112825.4462
111376.9668
108346.4993
104040.6484
98732.58035
92691.96687
86181.66934
79441.02949
72676.3577
66055.96723
59709.81379
53731.01549
48179.84078
43086.95781
38462.69708
34298.67067
30574.40976
27262.48886
24329.8487
21741.55066
19462.60228
17459.57911
15700.34484
14155.70229
12799.17755
11607.16844
10558.54703
9634.767639
8819.697697
8099.1859
7460.927628
6894.419071
6390.335264
5940.879189
5539.070255
5179.072576
4855.669518
4564.501923
4301.701501
4063.923227
3848.280967
3652.28902
3473.718924
3310.662293
3161.442419
3024.580477
2898.78594
2782.91525
2675.966729
2577.048275
109960.9382
108548.6097
105591.3765
101391.9701
96215.64288
90327.64173
83983.42793
77416.57513
70827.98433
64381.86782
58204.6236
52386.8393
46985.00565
42030.99131
37532.37627
33482.07688
29859.61852
26637.67741
23784.72061
21266.54366
19049.00886
17099.34707
15386.73998
13882.81516
12561.69309
11400.32275
10378.4495
9477.993666
8683.151072
7980.324096
7357.535401
6804.462218
6312.228503
5873.086332
5480.393956
5128.357656
4811.978677
4527.026494
4269.686433
4036.73617
3825.388804
3633.181606
3457.967284
3297.888919
3151.31471
3016.803632
2893.101185
2779.092558
2673.804034
2576.366554
107173.6561
105798.9154
102920.2389
98835.58135
93797.70892
88068.45388
81896.07863
75506.97686
69096.36243
62824.75786
56814.51559
51152.33833
45895.14716
41072.09444
36692.25275
32747.1639
29218.37025
26078.96607
23298.01393
20842.66042
18680.02869
16778.05219
15106.71048
13638.58428
12348.68238
11214.43174
10216.02092
9336.083096
8559.167804
7871.905847
7262.843685
6721.759758
6240.093663
5810.226882
5425.74552
5080.928094
4770.98559
4491.696904
4239.389202
4010.921842
3803.570689
3614.908119
3442.855993
3285.599112
3141.544258
3009.282799
2887.591476
2775.380196
2671.699767
2575.701774
104461.9306
103128.0253
100337.483
96373.06993
91485.06606
85923.2641
79929.74169
73724.35708
67496.04848
61399.82615
55554.02603
50044.28443
44925.87058
40227.10755
35957.72161
32109.94196
28665.50333
25599.8606
22882.66652
20482.15595
18366.6615
16505.44784
14869.19319
13431.25572
12167.34816
11055.74118
10076.97013
9213.997193
8452.007324
7777.807025
7180.146078
6649.174686
6176.384978
5754.432427
5376.924986
5038.327642
4733.951069
4459.605771
4211.724415
3987.2457
3783.448004
3597.975527
3428.790353
3274.109885
3132.371619
3002.192859
2882.376164
2771.851965
2669.691958
2575.064787
101826.2077
100538.6738
97841.53935
94008.41857
89281.44316
83899.93032
78096.42361
72082.69576
66041.56412
60122.75001
54441.37642
49082.04391
44096.77031
39516.04138
35348.51719
31589.04236
28220.0415
25218.07251
22555.13199
20200.41893
18123.50424
16294.76444
14686.12991
13271.62209
12027.62217
10933.0446
9968.998453
9118.75174
8367.772522
7703.284857
7114.103409
6590.696819
6124.588282
5708.644875
5336.48211
5002.729712
4702.693898
4432.273566
4187.967818
3966.726916
3765.865536
3583.065043
3416.313679
3263.849322
3124.129112
2995.786434
2877.640456
2768.634087
2667.852909
2574.478098
99266.44508
98028.22916
95433.43697
91746.20862
87192.40566
82005.41994
76405.02075
70593.94167
64748.15609
59011.7927
53497.63754
48286.34714
43430.54185
38961.48002
34888.37534
31207.68559
27904.15911
24955.79759
22336.48091
20017.28972
17969.11072
16163.51251
14573.66408
13174.45526
11942.96614
10858.63855
9903.203024
9060.212656
8315.378873
7656.262056
7071.775164
6552.529953
6090.178071
5677.629208
5308.567806
4977.699428
4680.3139
4412.357206
4170.367605
3951.271698
3752.414716
3571.487203
3406.485836
3255.654102
3117.455741
2990.529608
2873.70248
2765.92288
2666.283681
2573.97078
96779.50056
95595.81028
93115.59181
89586.8249
85224.7173
80246.94095
74865.46542
69270.85021
63631.37083
58085.74874
52742.298
47679.83838
42951.72164
38588.91497
34603.21035
30992.49433
27744.41005
24838.96608
22252.15062
19957.23676
17926.72585
16133.65878
14552.41106
13158.90616
11930.99104
10848.72035
9894.320353
9051.692602
8306.807429
7647.435923
7062.618185
6543.049652
6080.45974
5667.774228
5298.704144
4967.969191
4670.837291
4403.25284
4161.751336
3943.226905
3745.018528
3564.801676
3400.558858
3250.518867
3113.132249
2987.024601
2871.011533
2764.030148
2665.165538
2573.599675
93242.09704
90887.30902
87531.53769
83379.22166
78631.42415
73485.95076
68124.16339
62705.21281
57360.57275
52194.62495
47284.67978
42684.34104
38425.08261
34521.25771
30973.0939
27771.14864
24898.12416
22332.70744
20050.36478
18025.69065
16233.47414
14649.51303
13250.75543
12016.01168
10926.09144
9963.578571
9112.839981
8360.160464
7693.377331
7101.709372
6575.936196
6107.749976
5690.134141
5316.748243
4982.266808
4681.947228
4411.674268
4167.929563
3947.575053
3747.896527
3566.52639
3401.406995
3250.730584
3112.914728
2986.555925
2870.444844
2763.496818
2664.777096
2573.445581
)
;

boundaryField
{
    front_top
    {
        type            wedge;
    }
    front_middle
    {
        type            wedge;
    }
    front_bottom
    {
        type            wedge;
    }
    back_top
    {
        type            wedge;
    }
    back_middle
    {
        type            wedge;
    }
    back_bottom
    {
        type            wedge;
    }
    axis_top
    {
        type            symmetryPlane;
    }
    axis_middle
    {
        type            symmetryPlane;
    }
    axis_bottom
    {
        type            symmetryPlane;
    }
    wall_top
    {
        type            calculated;
        value           nonuniform 0();
    }
    wall_middle
    {
        type            calculated;
        value           uniform 2530.329233;
    }
    wall_bottom
    {
        type            calculated;
        value           nonuniform 0();
    }
    inlet
    {
        type            calculated;
        value           nonuniform 0();
    }
    outlet
    {
        type            calculated;
        value           nonuniform 0();
    }
    procBoundary3to2
    {
        type            processor;
        value           nonuniform List<scalar> 
51
(
94364.39903
94364.39903
90965.38395
88746.34807
85581.19782
81655.66458
77157.89777
72269.40048
67159.41424
61977.03248
56846.85625
51868.91208
47118.49535
42649.22448
38493.77618
34668.90747
31178.06938
28014.64851
25164.78637
22610.3785
20329.1718
18298.36318
16495.01937
14896.04633
13480.00597
12226.85721
11118.03625
10136.68203
9267.754492
8497.774797
7814.669337
7207.97469
6668.297962
6187.517508
5758.470499
5374.887991
5031.271091
4722.911088
4445.574402
4195.638056
3969.95403
3765.705186
3580.455604
3412.080907
3258.71077
3118.699938
2990.583632
2873.090484
2765.077347
2665.555207
2573.643301
)
;
    }
    procBoundary3to4
    {
        type            processor;
        value           nonuniform List<scalar> 
51
(
173497.8811
171574.6532
167524.5162
161713.138
154453.0662
146057.3625
136845.4301
127114.9769
117144.0077
107176.8285
97419.7705
88037.7414
79156.73653
70863.35706
63208.88578
56218.70967
49890.37857
44206.0785
37934.53428
37934.53428
33583.42516
29741.10995
26360.15048
23393.24683
20794.70829
18521.844
16535.15345
14798.86287
13281.09973
11953.43217
10790.87837
9771.635969
8876.605055
8089.207866
7395.159428
6782.114631
6239.467741
5757.987109
5329.779574
4948.051661
4606.894184
4301.311498
4026.853091
3779.819164
3556.868768
3355.197203
3172.34437
3006.124118
2854.670753
2716.356593
2589.726557
)
;
    }
}


// ************************************************************************* //
