/*--------------------------------*- C++ -*----------------------------------*\
  =========                 |
  \\      /  F ield         | OpenFOAM: The Open Source CFD Toolbox
   \\    /   O peration     | Website:  https://openfoam.org
    \\  /    A nd           | Version:  7
     \\/     M anipulation  |
\*---------------------------------------------------------------------------*/
FoamFile
{
    version     2.0;
    format      ascii;
    class       volScalarField;
    location    "0.0012";
    object      generalizedNewtonian:nu;
}
// * * * * * * * * * * * * * * * * * * * * * * * * * * * * * * * * * * * * * //

dimensions      [0 2 -1 0 0 0 0];

internalField   nonuniform List<scalar> 
1167
(
18.04304414
17.82182449
17.43829273
16.77755008
15.8728437
14.73204511
13.41119603
12.00101932
10.59610097
9.268533907
8.059075057
6.982798391
6.038729447
5.217689516
4.507055866
3.893512445
3.364395521
2.908301431
2.515086574
2.175940355
1.8832898
1.630610673
1.412344062
1.223721938
1.060684189
0.9197415561
0.7979187428
0.6926516782
0.6017359814
0.5232640961
0.4555835511
0.3972548365
0.347022388
0.3037885948
17.14445853
16.95304856
16.63957321
16.08891457
15.33899041
14.38169433
13.24244874
11.98137237
10.67690426
9.402997634
8.212501643
7.133737173
6.175870433
5.336197498
4.605858029
3.973558491
3.427645768
2.95702405
2.551561381
2.202331245
1.901525823
1.642391433
1.41911925
1.226722729
1.060927106
0.9180646694
0.794990132
0.6890001214
0.5977625987
0.519266673
0.4517686642
0.3937578659
0.3439192066
0.3011118671
0.2643413898
0.2327456392
0.2055783807
0.1821946049
0.1620399245
0.1446383693
0.1295828854
0.1165269047
0.105175906
0.09527967428
0.08662611418
0.07903561482
0.07235601284
0.0664579335
0.0612299982
0.05657226105
16.43776566
16.26542926
15.99660486
15.5170313
14.87049189
14.04441729
13.0473149
11.91627301
10.71091557
9.49848972
8.336551548
7.26324984
6.297230177
5.442718004
4.695242413
4.046033402
3.484714719
3.000655362
2.583855632
2.225315792
1.917031354
1.652036318
1.424277757
1.228554571
1.060380497
0.9159119674
0.7918372103
0.6853174506
0.5938986041
0.5154728023
0.4482124898
0.3905432093
0.3410981677
0.298700326
0.2623280815
0.2311030192
0.2042684883
0.1811755065
0.1612692991
0.1440755711
0.1291909676
0.1162732199
0.1050323145
0.09522223503
0.08663495254
0.0790944334
0.07245161729
0.06657977116
0.06136980796
0.05672395216
15.87836842
15.71868877
15.47930485
15.0469247
14.4703128
13.73685196
12.84732625
11.82360406
10.70878009
9.559584558
8.432470833
7.371266251
6.402418935
5.536912392
4.775022767
4.110899885
3.535622966
3.039256272
2.612071713
2.245021631
1.929953146
1.659689816
1.427956642
1.229338696
1.059146886
0.9133624102
0.7885162131
0.6816357139
0.590156285
0.5118762122
0.4448960611
0.3875822319
0.3385260894
0.2965189282
0.260518519
0.2296340883
0.2031016673
0.1802704054
0.1605862254
0.1435773457
0.128844261
0.1160489108
0.1049052982
0.09517142535
0.08664287338
0.079146775
0.07253680456
0.06668854662
0.06149491786
0.05686003039
15.43429156
15.28317829
15.06381174
14.66339983
14.13462774
13.46631717
12.65672936
11.71829307
10.68156417
9.592514215
8.502961591
7.458649652
6.491577867
5.618738986
4.845210005
4.16817906
3.580439287
3.072950698
2.636349724
2.261599552
1.940442264
1.665498759
1.430293374
1.229193053
1.057323058
0.9104875835
0.7850740717
0.6779800463
0.5865406215
0.508467839
0.4417987056
0.3848482087
0.3361727655
0.2945372752
0.2588840881
0.2283130975
0.2020558664
0.1794612419
0.1599764326
0.1431329223
0.1285350369
0.115848746
0.1047917784
0.09512581934
0.08664970397
0.07919339041
0.07261297784
0.06678609573
0.06160742239
0.05698272064
15.08176237
14.93672016
14.73103215
14.35252122
13.85695238
13.23462765
12.48352364
11.61117926
10.63916284
9.604090718
8.551738268
7.527045346
6.565335878
5.688496525
4.905961184
4.217983708
3.619284679
3.101899878
2.656862086
2.275226546
1.948666465
1.669618177
1.431419652
1.228228676
1.054993081
0.9073487804
0.7815483497
0.6743685842
0.5830531736
0.5052367635
0.4389009033
0.3823165326
0.3340113132
0.2927289418
0.2574003819
0.2271183783
0.2011126899
0.1787329098
0.1594281785
0.1427335004
0.1282570177
0.1156685486
0.104689285
0.09508428911
0.08665534172
0.07923493553
0.07268133295
0.06687397999
0.06170911511
0.05709395494
14.80353168
14.66278744
14.46629732
14.10278657
13.63026274
13.04035796
12.33151228
11.50929058
10.58936762
9.600693237
8.582969138
7.578783912
6.624936533
5.746814078
4.957586234
4.260518053
3.652362839
3.126285673
2.673789124
2.286092207
1.954798497
1.672204277
1.431466011
1.226550353
1.052235355
0.9040002298
0.7779711293
0.6708153595
0.5796931575
0.502171809
0.4361844549
0.3799652508
0.3320185602
0.2910713305
0.2560464164
0.2260317836
0.2002569198
0.1780730942
0.1589318702
0.1423719167
0.1280051248
0.1155049713
0.1045958667
0.09504597857
0.08665976502
0.07927200432
0.07274289999
0.06695352142
0.06180149724
0.05719533218
14.58669405
14.44890839
14.25833869
13.90498845
13.44816154
12.88089228
12.20218321
11.41702052
10.53771437
9.5875934
8.600734776
7.616574369
6.671914434
5.79446553
5.000504331
4.296076565
3.679937999
3.146341651
2.687343184
2.29437803
1.959004135
1.673402706
1.430552363
1.224254912
1.049119578
0.9004898475
0.7743686348
0.6673307032
0.5764576699
0.4992619109
0.4336322881
0.3777749563
0.3301741816
0.2895449606
0.2548045443
0.2250380275
0.199475828
0.1774715643
0.1584795805
0.1420422933
0.1277752883
0.1153553008
0.1045099486
0.09501021449
0.08666298813
0.07930511802
0.07279855992
0.06702584338
0.06188584406
0.05728821544
14.42128331
14.28537511
14.09825281
13.75149767
13.30499037
12.75312359
12.09547089
11.33705306
10.48846052
9.569161871
8.608613497
7.64285465
6.707746252
5.832313579
5.035249519
4.325059005
3.702299083
3.162311836
2.697758727
2.300289055
1.961458388
1.673354891
1.428793408
1.221426143
1.045706558
0.8968543636
0.7707610253
0.6639193053
0.5733418496
0.496494291
0.4312282672
0.3757276347
0.3284602146
0.2881330082
0.2536596991
0.2241242247
0.1987589841
0.1769198382
0.1580647553
0.1417397735
0.1275640338
0.115217314
0.1044302691
0.09497647705
0.08666505474
0.07933473606
0.072849067
0.06709189784
0.06196322943
0.05737374592
14.29982503
14.16486737
13.97929796
13.63624588
13.19592491
12.6538231
12.01044484
11.2707503
10.44458746
9.548983594
8.609837981
7.660065638
6.734086495
5.861418823
5.062528174
4.347960261
3.719806649
3.17447823
2.705265824
2.304023453
1.962335896
1.672200553
1.426298186
1.218144258
1.042051175
0.8931274933
0.7671650688
0.6605851413
0.5703405536
0.493857889
0.4289579435
0.3738072377
0.3268610689
0.2868214084
0.2525991859
0.223279493
0.198097212
0.1764107932
0.1576819611
0.1414603522
0.1273685425
0.11508919
0.1043557984
0.09494435299
0.08666601959
0.07936125797
0.07289506501
0.06715249233
0.06203456213
0.05745288877
14.21626766
14.08160711
13.89613091
13.55440289
13.11697186
12.58023245
11.94574067
11.21847631
10.40791739
9.529684695
8.607139856
7.670524112
6.75262034
5.882947661
5.083191371
4.365343837
3.732860524
3.183170101
2.710122365
2.305785003
1.961795468
1.670066403
1.423168479
1.214480708
1.038203467
0.8893380756
0.7635954454
0.6573306784
0.5674488382
0.4913425877
0.4268086078
0.3720001935
0.3253634035
0.2855974765
0.2516121682
0.2224947058
0.1974830344
0.175938501
0.1573266632
0.1412006999
0.1271864955
0.114969435
0.1042857009
0.09491351812
0.08666594623
0.07938503237
0.07293710411
0.06720831189
0.06210061018
0.05752645781
14.16560976
14.03088749
13.84420182
13.5018646
13.06472513
12.52981793
11.8996708
11.17986021
10.37943019
9.513139854
8.60266447
7.676174852
6.764943817
5.898173876
5.098091134
4.377788968
3.741885228
3.188716822
2.712588869
2.305785842
1.960002155
1.667078298
1.419491312
1.210498435
1.034202525
0.8855091653
0.7600614887
0.6541562087
0.5646610676
0.4889386475
0.4247691187
0.3702945058
0.3239556166
0.2844506234
0.2506894029
0.2217620935
0.1969101323
0.1754979818
0.1569950861
0.1409581434
0.1270159779
0.1148568114
0.1042192896
0.09488371368
0.08666489931
0.07940636096
0.07297565328
0.06725993722
0.0621620231
0.05759514082
14.14419169
14.00897989
13.81996138
13.47547147
13.03638489
12.5003858
11.8707967
11.1540643
10.35924899
9.500382595
8.597980684
7.678735959
6.772635814
5.908247863
5.10802432
4.385861175
3.747327078
3.191443364
2.712910564
2.304227971
1.957110478
1.663354445
1.415351942
1.206255793
1.030084922
0.8816611896
0.7565708463
0.6510613859
0.5619705908
0.4866369907
0.4228289037
0.3686794975
0.3226275868
0.283371734
0.2498230416
0.221075303
0.1963732206
0.1750850684
0.1566840543
0.140730295
0.1268553865
0.1147503036
0.1041560055
0.09485473451
0.08666294164
0.07942550342
0.0730111111
0.0673078595
0.06221934867
0.05765951634
14.14920326
14.01304791
13.8206298
13.47272715
13.02973665
12.49030735
11.85811263
11.14057025
10.34725028
9.491892046
8.594132889
7.679486731
6.776827177
5.914068196
5.113686485
4.390116352
3.749616298
3.191677015
2.711338814
2.301290415
1.953256149
1.658999758
1.410824843
1.201806081
1.025883022
0.877812115
0.753130569
0.6480458882
0.5593723662
0.4844297534
0.4209784877
0.3671459244
0.3213711225
0.2823531234
0.2490063962
0.2204286192
0.1958678027
0.1746962648
0.1563909181
0.1405152051
0.1267033859
0.1146490637
0.1040953848
0.09482641396
0.0866601311
0.07944268211
0.07304381566
0.06735249365
0.06227304845
0.05772007092
14.17853313
14.04098359
13.84419771
13.49163339
13.04305474
12.49794201
11.86057381
11.1390474
10.34364079
9.488200455
8.591888328
7.679306288
6.778386123
5.916416907
5.115744983
4.391123272
3.749168037
3.189726404
2.708125162
2.297162442
1.948577526
1.654107831
1.405976238
1.197191939
1.021623114
0.8739773381
0.7497457541
0.6451094363
0.5568615652
0.4823099639
0.4192100644
0.3656858703
0.3201783735
0.2813881667
0.2482338257
0.2198172911
0.1953900842
0.1743286118
0.1561134428
0.1403112529
0.1265588623
0.1145523864
0.1040370446
0.09479861805
0.08665652106
0.0794580873
0.07307405339
0.06739418979
0.06232351109
0.05777721378
14.23058712
14.09120596
13.88930741
13.53081171
13.074954
12.52204041
11.87732831
11.14912667
10.34848373
9.4897255
8.591893026
7.678976325
6.778136568
5.916054577
5.11487865
4.389400957
3.746377403
3.185893565
2.703490683
2.292012785
1.943207438
1.648773426
1.400870687
1.192453611
1.017329389
0.8701668939
0.7464198737
0.6422500053
0.5544333913
0.4802718791
0.4175167739
0.3642924534
0.3190428942
0.2804711679
0.2475004808
0.2192373138
0.194936849
0.1739796248
0.1558498737
0.140117092
0.126420879
0.1144596804
0.1039806665
0.09477123762
0.08665215926
0.079471881
0.07310206623
0.06743324269
0.06237106323
0.05783128857
14.30374285
14.16233438
13.95449754
13.58887252
13.1242945
12.56171254
11.90740388
11.17022359
10.36167243
9.496718563
8.594631655
7.679100121
6.776720991
5.91366089
5.111709357
4.385429282
3.741606869
3.180478075
2.697656329
2.28599961
1.937259026
1.643076894
1.395566617
1.187628405
1.013024237
0.8663923783
0.7431567097
0.6394658163
0.5520836135
0.4783095225
0.4158924496
0.3629596692
0.3179591685
0.2795973093
0.246802483
0.2186853548
0.1945054185
0.1736472072
0.1555985257
0.1399315763
0.1262886634
0.114370459
0.1039259879
0.09474418353
0.08664708715
0.07948419983
0.07312805741
0.06746989936
0.06241597811
0.0578825822
14.39716745
14.25345843
14.03879911
13.66491265
13.19017547
12.61614859
11.95000043
11.20159749
10.38286711
9.509226958
8.600430356
7.68018546
6.774794526
5.909904426
5.106760229
4.379624948
3.735199447
3.173745823
2.690825007
2.279276731
1.930837984
1.637090996
1.390111183
1.182746456
1.008727928
0.8626633334
0.7399595817
0.6367561117
0.5498087965
0.476417711
0.4143317917
0.3616829987
0.3169226092
0.2787624819
0.2461362399
0.2181585526
0.1940935298
0.1733296047
0.1553580683
0.1397537484
0.1261615611
0.1142843105
0.1038727878
0.0947173811
0.08664133962
0.0794951583
0.07315219683
0.06750436597
0.06245848336
0.05793133326
14.51037845
14.36405595
14.14166741
13.75848962
13.27206833
12.68487496
12.00474616
11.24268906
10.41142977
9.526962907
8.609405385
7.682687553
6.77291424
5.905254738
5.100432559
4.372331909
3.727465734
3.165928159
2.683167229
2.271982323
1.924043505
1.630885262
1.384548594
1.177835281
1.004453583
0.8589864229
0.7368319463
0.6341197771
0.5476057924
0.4745924178
0.4128303796
0.3604575549
0.3159292033
0.2779632196
0.2454987054
0.2176544691
0.1936992516
0.173025346
0.1551273856
0.1395828036
0.1260390236
0.114200891
0.1038208821
0.09469076841
0.08663494608
0.07950485189
0.07317462583
0.06753681375
0.06249876776
0.05797773934
14.64307431
14.49375084
14.26269501
13.86917569
13.36958559
12.76751777
12.07138756
11.2933354
10.4471962
9.549706807
8.621475225
7.686655177
6.77123097
5.899946293
5.093005583
4.363845842
3.718661453
3.157231549
2.674842525
2.264223862
1.916955245
1.624522053
1.378919939
1.172920852
1.000215593
0.8553682593
0.7337734277
0.6315550678
0.5454726739
0.4728301748
0.4113843742
0.359279525
0.3149754891
0.2771965226
0.2448873594
0.2171710417
0.1933209641
0.1727332934
0.1549055513
0.139418063
0.1259205887
0.1141199117
0.1037701164
0.09466429348
0.08662793056
0.07951335944
0.07319546112
0.06756738389
0.06253698678
0.05802196295
14.79546567
14.64265724
14.4019856
13.99686882
13.48253852
12.86369011
12.14974851
11.35354235
10.49021559
9.577514612
8.636670477
7.692154322
6.769884679
5.894196108
5.0847448
4.35447082
3.709024725
3.14783755
2.666005173
2.256114538
1.909649961
1.618049287
1.37325743
1.168026283
0.9960269912
0.8518154728
0.7307862063
0.6290611145
0.5434059352
0.4711276063
0.4099904344
0.3581456906
0.3140585952
0.2764601543
0.2443001411
0.2167065777
0.1929573051
0.1724522592
0.1546917694
0.1392589704
0.1258058771
0.1140411334
0.1037203618
0.09463791197
0.08662031172
0.07952074497
0.07321479788
0.06759619157
0.06257326699
0.05806413605
14.96773076
14.81103136
14.55977825
14.14166853
13.61092445
12.973333
12.23963466
11.42322188
10.54044757
9.610364855
8.655041705
7.699325096
6.769070502
5.888239479
5.07595033
4.344445424
3.698754618
3.137910428
2.656780339
2.247750095
1.902199914
1.611514856
1.367591635
1.16316846
0.9918974968
0.8483341909
0.7278721564
0.6266373751
0.541403407
0.4694819953
0.4086463088
0.357053462
0.313176089
0.2757518427
0.2437352693
0.2162596485
0.1926071443
0.1721813678
0.1544853837
0.1391050542
0.1256945683
0.1139643551
0.1036715101
0.09461158606
0.08661210377
0.07952705984
0.07323271282
0.06762332961
0.06260771027
0.05810436454
15.15993158
14.99909024
14.73612043
14.30355615
13.7547296
13.09636967
12.34061388
11.50206402
10.59782985
9.648304815
8.676631405
7.708198995
6.768894801
5.882320127
5.06687361
4.333975496
3.688017492
3.127604647
2.647279169
2.239208739
1.894669296
1.604962747
1.361952022
1.158364125
0.98783641
0.8449280178
0.7250322321
0.6242836157
0.539463651
0.4678912603
0.4073490847
0.3560005546
0.3123259471
0.2750697045
0.2431912288
0.215829044
0.1922696015
0.1719198876
0.1542858425
0.1389559209
0.1255863957
0.1138894101
0.1036234714
0.09458528358
0.08660331693
0.07953234433
0.07324926663
0.06764887155
0.06264039727
0.05814273218
3.117051597
2.637605179
2.230567173
1.887102769
1.598425118
1.356364448
1.153629205
0.9838526683
0.8416000885
0.7222672604
0.6219996864
0.5375853228
0.4663535826
0.4060967632
0.3549850179
0.3115064298
0.2744122594
0.2426667918
0.2154137718
0.1919439049
0.1716672146
0.1540926944
0.1388112471
0.1254811397
0.1138161605
0.1035761712
0.09455897753
0.08659395822
0.07953662913
0.07326450586
0.06767287392
0.06267138986
0.05817930291
)
;

boundaryField
{
    front_top
    {
        type            wedge;
    }
    front_middle
    {
        type            wedge;
    }
    front_bottom
    {
        type            wedge;
    }
    back_top
    {
        type            wedge;
    }
    back_middle
    {
        type            wedge;
    }
    back_bottom
    {
        type            wedge;
    }
    axis_top
    {
        type            symmetryPlane;
    }
    axis_middle
    {
        type            symmetryPlane;
    }
    axis_bottom
    {
        type            symmetryPlane;
    }
    wall_top
    {
        type            calculated;
        value           nonuniform 0();
    }
    wall_middle
    {
        type            calculated;
        value           nonuniform 0();
    }
    wall_bottom
    {
        type            calculated;
        value           nonuniform List<scalar> 
23
(
0.05446432585
0.05462013822
0.05476007802
0.05488640213
0.05500108576
0.05510575484
0.05520179875
0.05529037764
0.05537247267
0.05544891058
0.05552038995
0.05558749781
0.05565072739
0.05571049341
0.05576714406
0.05582096979
0.05587221187
0.05592107005
0.05596770848
0.05601226026
0.05605483206
0.05609550818
0.05613435277
)
;
    }
    inlet
    {
        type            calculated;
        value           nonuniform 0();
    }
    outlet
    {
        type            calculated;
        value           nonuniform 0();
    }
    procBoundary1to0
    {
        type            processor;
        value           nonuniform List<scalar> 
51
(
15.37257972
15.20719123
14.93131459
14.4828661
13.91406627
13.23279766
12.45252474
11.58948705
10.66189653
9.691095769
8.701359336
7.718845788
6.769582671
5.876671785
5.057685027
4.323214467
3.676965875
3.676965875
3.106345125
2.627832506
2.221892619
1.879548463
1.591932374
1.350845813
1.148974651
0.9799541711
0.8383544711
0.7195784985
0.6197840852
0.5357668636
0.46486754
0.4048876419
0.3540052666
0.3107165039
0.2737783475
0.2421609657
0.2150130121
0.1916293118
0.171422845
0.1539055748
0.1386707714
0.1253786217
0.1137444938
0.1035295476
0.09453264364
0.08658403039
0.07953993574
0.07327846455
0.0676953785
0.06270073391
0.05821412401
)
;
    }
    procBoundary1to2
    {
        type            processor;
        value           nonuniform List<scalar> 
51
(
19.19657106
18.92628153
18.42823602
17.59173127
16.45508657
15.06479329
13.52484162
11.95723554
10.46082643
9.093135852
7.876428014
6.811077584
5.886450099
5.087667487
4.399127538
3.806022224
3.29501218
2.854466134
2.47435046
2.146035491
1.862197458
1.616564639
1.403821218
1.219433288
1.059545512
0.920857317
0.800559575
0.6962322057
0.6058013807
0.5274674718
0.459675452
0.4010639554
0.3504445548
0.3067702754
0.2665923675
0.2665923675
0.234592863
0.2070581507
0.1833498893
0.1629158081
0.1452792286
0.1300297524
0.116816469
0.1053400588
0.09534569388
0.08661674008
0.0789695371
0.07224837767
0.06632085026
0.06107292971
0.05640215137
)
;
    }
}


// ************************************************************************* //
