/*--------------------------------*- C++ -*----------------------------------*\
  =========                 |
  \\      /  F ield         | OpenFOAM: The Open Source CFD Toolbox
   \\    /   O peration     | Website:  https://openfoam.org
    \\  /    A nd           | Version:  7
     \\/     M anipulation  |
\*---------------------------------------------------------------------------*/
FoamFile
{
    version     2.0;
    format      ascii;
    class       volVectorField;
    location    "0.0012";
    object      grad(generalizedNewtonian:nu);
}
// * * * * * * * * * * * * * * * * * * * * * * * * * * * * * * * * * * * * * //

dimensions      [0 1 -1 0 0 0 0];

internalField   nonuniform List<vector> 
1167
(
(-28262.28833 0 102605.6267)
(-55969.2886 0 98661.6489)
(-94853.26162 0 89433.14068)
(-141756.2636 0 75140.83466)
(-187412.4033 0 55804.80827)
(-228735.7744 0 34154.94796)
(-257734.4119 0 14119.64431)
(-270112.3696 0 -1206.841551)
(-266788.5682 0 -10803.89158)
(-252198.5432 0 -15493.08909)
(-231424.8832 0 -16803.68143)
(-208385.3782 0 -16132.97942)
(-185489.5323 0 -14471.01672)
(-164000.9437 -2.218936483e-10 -12426.50055)
(-144467.6417 0 -10336.52458)
(-127025.4727 1.021184976e-10 -8376.81336)
(-111596.95 0 -6631.679403)
(-98025.34257 0 -5127.895777)
(-86128.28506 0 -3860.546041)
(-75708.28681 0 -2814.787673)
(-66583.84886 0 -1966.418264)
(-58589.75612 0 -1291.339734)
(-51578.14488 0 -764.901634)
(-45420.25898 0 -364.4720827)
(-40004.37688 0 -69.07970198)
(-35234.08896 0 139.6323801)
(-31025.87093 0 278.4721511)
(-27309.69142 0 361.6042142)
(-24025.15051 0 401.9391)
(-21121.17747 -9.841595743e-12 410.0399414)
(-18554.1699 0 395.3393898)
(-16286.96707 0 365.3044746)
(-14287.20283 0 326.2674123)
(-12526.73045 0 282.9204156)
(-24453.90325 0 80263.92399)
(-46501.84447 0 77819.76124)
(-78582.85054 0 72084.39359)
(-117741.3389 0 63025.93893)
(-156492.8343 0 50117.59043)
(-194986.0401 0 34381.39103)
(-226758.8968 0 18194.0563)
(-246401.513 0 4237.315476)
(-251930.1992 0 -5740.729989)
(-245108.1672 0 -11497.79063)
(-229835.8681 0 -13873.82453)
(-210110.2673 0 -14022.57244)
(-188922.2276 0 -12925.0365)
(-168118.7694 -2.218936483e-10 -11251.42437)
(-148669.8356 0 -9409.327365)
(-130979.7211 1.021184976e-10 -7626.047879)
(-115145.1826 0 -6015.959889)
(-101114.8292 0 -4617.696574)
(-88753.09441 0 -3438.452928)
(-77892.18697 0 -2468.771856)
(-68365.97738 0 -1687.07772)
(-60013.91052 0 -1071.282273)
(-52689.51761 0 -596.6847299)
(-46262.51978 0 -241.6316491)
(-40618.65048 0 15.18461734)
(-35658.2098 0 191.4794359)
(-31294.65417 0 304.0766275)
(-27454.28675 0 366.7113809)
(-24073.50256 0 391.8688627)
(-21097.70984 -9.841595743e-12 389.5646932)
(-18480.0371 0 368.5530647)
(-16179.86141 0 335.5813576)
(-14161.579 0 296.2110169)
(-12393.8395 0 254.4134411)
(-10848.87764 0 213.2142968)
(-9501.173103 0 174.4921895)
(-8327.873223 0 139.4831224)
(-7308.169081 0 108.7191401)
(-6423.176915 0 82.32545289)
(-5656.002948 0 60.18287335)
(-4991.344075 0 41.93924178)
(-4415.518441 0 27.16245469)
(-3916.552492 0 15.38721648)
(-3483.972976 0 6.172942324)
(-3108.597323 0 -0.9106234044)
(-2782.474066 -1.227877028e-12 -6.244815158)
(-2498.84315 0 -10.1619812)
(-2252.23277 0 -12.9460446)
(-2039.006393 0 -14.8439128)
(-1858.470819 0 -16.09003944)
(-22017.12583 0 63304.5056)
(-40462.41151 0 61717.9895)
(-68121.01694 0 58013.41784)
(-101897.0459 0 52099.49339)
(-134992.3585 0 43433.88024)
(-169640.8257 0 32242.11883)
(-201186.1945 0 19756.12434)
(-224562.7313 0 7888.415526)
(-236397.5945 0 -1593.791675)
(-236275.945 0 -7829.346237)
(-226472.813 0 -10998.45949)
(-210438.0407 0 -11876.4539)
(-191367.1923 0 -11327.4251)
(-171557.7878 -2.218936483e-10 -10035.74469)
(-152391.4872 0 -8458.236874)
(-134574.857 1.021184976e-10 -6867.069706)
(-118412.8699 0 -5398.859925)
(-103973.4863 0 -4111.611106)
(-91179.78085 0 -3025.516606)
(-79902.30236 0 -2134.519312)
(-69992.95108 0 -1421.366158)
(-61299.48086 0 -864.9191453)
(-53678.32315 0 -441.8696041)
(-46997.96717 0 -130.7983434)
(-41141.74703 0 89.01096549)
(-36006.59656 0 235.1129593)
(-31502.74818 0 323.6959419)
(-27552.50276 0 368.2203744)
(-24088.64581 0 380.3156826)
(-21052.73478 -9.841595743e-12 369.5230406)
(-18394.37324 0 343.6301585)
(-16069.29726 0 308.7816966)
(-14038.61972 0 269.6558601)
(-12267.91086 0 229.6469487)
(-10726.7803 0 191.1435385)
(-9387.401528 0 155.5775436)
(-8225.140833 0 123.8356696)
(-7217.656193 0 96.20997136)
(-6345.155498 0 72.68495509)
(-5590.034029 0 53.05117934)
(-4936.487432 0 36.93122019)
(-4370.621878 0 23.89969303)
(-3880.406159 0 13.5303909)
(-3455.369989 0 5.412446595)
(-3086.372815 0 -0.8379600566)
(-2765.576779 -1.227877028e-12 -5.558009052)
(-2486.341246 0 -9.039585839)
(-2243.299859 0 -11.53065629)
(-2032.861095 0 -13.24598265)
(-1854.261522 0 -14.38846684)
(-20400.14257 0 50173.70503)
(-36474.57584 5.72803201e-09 49112.54858)
(-61190.82661 0 46639.65584)
(-91251.46844 0 42681.57357)
(-120071.7008 0 36793.20742)
(-151037.2029 0 28905.0061)
(-180945.1738 -7.590816911e-10 19529.27738)
(-205658.1216 0 9898.997283)
(-221486.6247 0 1467.570196)
(-226626.7293 0 -4701.224735)
(-221799.2473 -2.625550867e-10 -8320.502175)
(-209534.1765 2.464598854e-10 -9769.990615)
(-192851.4192 0 -9717.38448)
(-174295.8243 0 -8801.049103)
(-155599.66 0 -7498.379596)
(-137788.1213 1.021184976e-10 -6107.282857)
(-121388.9197 9.861157192e-11 -4786.228418)
(-106591.8525 9.557346841e-11 -3614.76679)
(-93400.52923 0 -2624.704603)
(-81733.32425 0 -1814.188001)
(-71462.76783 0 -1170.545481)
(-62447.68902 0 -673.1220312)
(-54547.53702 0 -300.7808793)
(-47631.07617 0 -31.92406484)
(-41579.2504 0 152.8719175)
(-36285.4628 0 271.2191965)
(-31656.57495 0 338.1569289)
(-27610.45417 0 366.870215)
(-24076.01957 0 367.8991327)
(-20990.75977 0 350.2481637)
(-18300.46766 0 320.6892136)
(-15957.39683 0 284.750031)
(-13919.29891 0 246.2701089)
(-12149.05255 0 208.1525401)
(-10613.66201 4.818700871e-12 172.1996707)
(-9283.453394 0 139.4960878)
(-8132.249735 0 110.6310928)
(-7136.466486 -2.403668045e-12 85.71322643)
(-6275.587479 0 64.64332661)
(-5531.441969 0 47.13244174)
(-4887.877546 1.206414697e-12 32.79653746)
(-4330.903135 0 21.22369844)
(-3848.449205 1.213068337e-12 12.02680399)
(-3430.04916 0 4.820784496)
(-3066.653421 -1.222328066e-12 -0.7375714152)
(-2750.529026 0 -4.947850659)
(-2475.145205 0 -8.068027714)
(-2235.231808 -6.203589913e-13 -10.31622886)
(-2027.240281 0 -11.88072161)
(-1850.35156 -6.278896109e-13 -12.93842377)
(-19305.72927 0 39830.30213)
(-33765.94162 0 39098.43051)
(-56490.73054 1.766087453e-09 37413.63474)
(-83994.01799 0 34720.17442)
(-109688.5175 0 30668.02122)
(-137529.973 0 25111.21547)
(-165352.8536 7.590816911e-10 18190.13054)
(-190014.907 0 10621.23976)
(-208051.6949 0 3480.862561)
(-216988.2212 0 -2225.307954)
(-216353.4334 0 -5963.371795)
(-207659.3566 0 -7788.954766)
(-193468.3498 0 -8145.847151)
(-176346.072 -4.437872967e-10 -7579.20667)
(-158287.6238 0 -6546.920853)
(-140612.9526 1.021184976e-10 -5354.191154)
(-124061.6423 0 -4183.085624)
(-108961.7944 0 -3132.180306)
(-95412.18942 4.646490293e-11 -2239.518669)
(-83383.9662 4.531075074e-11 -1510.245729)
(-72775.92442 0 -935.6659383)
(-63460.24336 0 -496.4180295)
(-55300.8534 2.131899682e-11 -173.1504655)
(-48167.11385 0 55.50098715)
(-41937.28179 -4.135998209e-11 207.6902788)
(-36501.50123 0 300.6814889)
(-31762.48216 0 348.3931709)
(-27633.98444 0 363.3564872)
(-24040.46511 0 355.1555686)
(-20915.49062 0 331.9724346)
(-18200.90995 0 299.757887)
(-15845.58563 0 263.2849682)
(-13804.17033 0 225.7388069)
(-12037.0112 9.660079362e-12 189.4993181)
(-10508.78125 0 155.9068529)
(-9188.264213 0 125.7855015)
(-8047.930966 0 99.44887092)
(-7063.292957 0 76.87478176)
(-6213.225609 0 57.90234415)
(-5479.086669 0 42.19226573)
(-4844.531237 0 29.36216178)
(-4295.521072 0 19.01811101)
(-3819.980777 0 10.80066256)
(-3407.465212 0 4.356811739)
(-3049.023101 0 -0.6234171548)
(-2737.023995 -1.227877028e-12 -4.408026437)
(-2465.039878 0 -7.226419659)
(-2227.889044 0 -9.271668552)
(-2022.064 -6.239889687e-13 -10.70986286)
(-1846.700349 0 -11.69622734)
(-18530.11276 0 31537.99406)
(-31899.53706 0 31019.54284)
(-53273.4224 -1.766087453e-09 29875.72126)
(-78979.98186 0 28030.66293)
(-102406.7638 0 25218.24997)
(-127792.8193 0 21297.96042)
(-153577.2211 0 16260.85396)
(-177469.5497 0 10450.12452)
(-196496.0056 -6.136491728e-10 4609.827376)
(-207976.0606 5.645090647e-10 -408.9511214)
(-210655.6833 0 -4000.377321)
(-205128.7307 0 -6006.712977)
(-193357.432 0 -6667.933309)
(-177758.5392 0 -6403.754596)
(-160475.398 0 -5618.811413)
(-143053.2043 1.021184976e-10 -4616.949671)
(-126425.4417 0 -3596.177576)
(-111077.4516 0 -2666.748746)
(-97212.92456 0 -1871.969997)
(-84854.82659 0 -1224.632751)
(-73935.11613 0 -717.8116371)
(-64341.66616 0 -335.2759266)
(-55943.85078 0 -58.63182301)
(-48612.25816 0 132.1350098)
(-42222.38573 0 254.3851473)
(-36660.95907 0 324.3676831)
(-31826.36301 0 355.1471194)
(-27628.10494 0 358.2343379)
(-23986.09848 0 342.3731987)
(-20829.9677 -9.841595743e-12 314.8014985)
(-18097.70915 -9.781168704e-12 280.7125351)
(-15734.96247 0 244.1478952)
(-13693.50524 0 207.710267)
(-11931.39671 -4.830039681e-12 173.2972351)
(-10411.38038 0 141.8835846)
(-9100.859465 0 114.065694)
(-7971.102119 0 89.94732904)
(-6997.017301 0 69.4073852)
(-6156.991303 0 52.22811589)
(-5432.015936 0 38.05027661)
(-4805.627818 0 26.49560336)
(-4263.787207 0 17.18873125)
(-3794.439302 0 9.795586281)
(-3387.173928 0 3.992038845)
(-3033.140901 0 -0.5030523872)
(-2724.808882 0 -3.930695189)
(-2455.845669 0 -6.496107359)
(-2221.150839 0 -8.371284433)
(-2017.256029 0 -9.703742371)
(-1843.260878 0 -10.63057711)
(-17981.01709 8.380795319e-09 24753.41634)
(-30629.12866 0 24390.58824)
(-51082.8092 1.766087453e-09 23634.67304)
(-75516.02781 0 22376.63838)
(-97303.48964 1.037132521e-09 20439.54192)
(-120826.8278 0 17686.76822)
(-144832.8231 0 14067.02175)
(-167651.273 0 9707.937228)
(-186892.6405 6.136491728e-10 5072.423552)
(-199954.4041 -5.645090647e-10 824.865876)
(-205115.3769 0 -2449.825375)
(-202241.9236 0 -4476.451145)
(-192696.2429 2.331079767e-10 -5328.92782)
(-178632.4336 -2.218936483e-10 -5298.450227)
(-162208.7484 0 -4727.157347)
(-145120.3841 0 -3904.642851)
(-128482.9201 0 -3032.666008)
(-112941.4666 0 -2222.088658)
(-98801.79227 0 -1524.054873)
(-86146.88897 0 -957.5742161)
(-74944.42566 0 -516.8834924)
(-65097.24209 0 -189.2264568)
(-56483.05777 0 43.36443036)
(-48973.25472 0 198.6882237)
(-42441.21951 0 293.6751361)
(-36770.05074 0 342.9466495)
(-31853.70632 0 358.9857436)
(-27597.38863 0 351.8940495)
(-23916.48851 0 329.7751844)
(-20736.70246 -9.841595743e-12 298.7426309)
(-17992.44562 0 263.4307635)
(-15626.26785 0 227.0788157)
(-13587.39769 0 191.8565829)
(-11831.86514 0 159.1990594)
(-10320.74918 0 129.7918793)
(-9020.305515 0 104.017541)
(-7900.80131 0 81.84309888)
(-6936.694716 0 63.0672754)
(-6106.003308 -2.405189498e-12 47.42989859)
(-5389.443166 0 34.56035656)
(-4770.489943 1.206414697e-12 24.08647312)
(-4235.136038 0 15.66239068)
(-3771.365889 -1.213068337e-12 8.966816574)
(-3368.813235 0 3.70373116)
(-3018.729661 -1.222328066e-12 -0.3823204897)
(-2713.678925 -1.227877028e-12 -3.509124493)
(-2447.418206 0 -5.86134839)
(-2214.922058 0 -7.593169545)
(-2012.759445 0 -8.836447067)
(-1840.001442 0 -9.713025103)
(-17603.03849 0 19112.41833)
(-29797.70051 0 18870.61657)
(-49622.49013 -1.766087453e-09 18402.22526)
(-73161.13872 0 17564.44489)
(-93773.24064 0 16263.61859)
(-115900.8691 0 14361.71847)
(-138465.8766 0 11802.06909)
(-160180.1945 0 8611.875983)
(-179161.9986 0 5045.3549)
(-193072.0114 5.645090647e-10 1576.568306)
(-199993.2438 0 -1282.217964)
(-199261.4246 0 -3203.536897)
(-191687.1706 0 -4140.48593)
(-179086.1033 -2.218936483e-10 -4274.975055)
(-163539.3544 0 -3883.164265)
(-146831.4588 1.021184976e-10 -3227.04758)
(-130240.9908 0 -2496.812208)
(-114559.812 0 -1801.308151)
(-100184.9556 0 -1198.480142)
(-87265.70057 0 -709.8423846)
(-75808.2494 0 -332.9945646)
(-65732.70169 0 -57.53066779)
(-56924.66474 0 133.6301384)
(-49256.60983 0 256.2104856)
(-42600.21561 0 326.4398791)
(-36834.61346 0 357.293308)
(-31849.6391 0 360.5052004)
(-27545.88886 0 344.8027099)
(-23834.6608 0 317.5653935)
(-20637.73964 -9.841595743e-12 283.8759034)
(-17886.33987 0 247.8093828)
(-15519.98672 0 211.8808028)
(-13485.85444 0 177.9172796)
(-11737.99644 0 146.9161149)
(-10236.21981 0 119.3358684)
(-8945.80555 0 95.37794561)
(-7836.19493 0 74.89678515)
(-6881.518903 0 57.66280365)
(-6059.516972 0 43.35574896)
(-5350.696058 0 31.60716239)
(-4738.55633 -1.206414697e-12 22.05454992)
(-4209.116327 0 14.38286617)
(-3750.384739 0 8.27988063)
(-3352.084959 0 3.475075581)
(-3005.561079 1.222328066e-12 -0.2644858085)
(-2703.465382 0 -3.136586986)
(-2439.638084 0 -5.30835051)
(-2209.123067 0 -6.918820623)
(-2008.524947 0 -8.086609326)
(-1836.892691 0 -8.920687223)
(-17363.18127 0 14343.45095)
(-29302.53344 0 14202.05108)
(-48704.61915 0 13952.03652)
(-71619.76518 1.296916343e-09 13437.12865)
(-91401.26462 -1.037132521e-09 12611.8315)
(-112494.7561 0 11353.459)
(-133932.4698 -7.590816911e-10 9586.918387)
(-154647.1888 0 7313.510746)
(-173145.6685 6.136491728e-10 4656.345629)
(-187400.2492 -5.645090647e-10 1930.490284)
(-195486.7453 0 -455.160245)
(-196403.8525 0 -2174.563437)
(-190494.9265 0 -3108.603038)
(-179219.7546 0 -3347.664649)
(-164517.2078 0 -3101.192158)
(-148213.661 1.021184976e-10 -2594.184799)
(-131717.1305 9.861157192e-11 -1993.432481)
(-115938.6811 0 -1406.828916)
(-101367.0643 0 -896.132029)
(-88218.4 0 -482.2711402)
(-76534.37722 0 -166.5880602)
(-66255.54113 0 60.10764032)
(-57276.00079 0 212.7088408)
(-49469.27334 0 305.5326687)
(-42705.57896 0 353.4201517)
(-36860.08596 0 368.1177056)
(-31818.54201 -2.019241095e-11 360.1783004)
(-27477.07797 0 337.2780944)
(-23743.09205 -9.913505491e-12 305.8558175)
(-20534.69898 0 270.2010945)
(-17780.1601 0 233.7172271)
(-15416.3886 0 198.3859269)
(-13388.69049 0 165.6556325)
(-11649.33735 0 136.1776112)
(-10157.16537 0 110.2679232)
(-8876.608305 0 87.9267214)
(-7776.55803 0 68.93079739)
(-6830.838567 0 53.03855676)
(-6016.912181 0 39.88097227)
(-5315.238172 0 29.09705412)
(-4709.359208 0 20.33728763)
(-4185.328151 0 13.30554108)
(-3731.182177 0 7.707510187)
(-3336.744149 0 3.293074877)
(-2993.447982 0 -0.1515727886)
(-2694.029904 0 -2.806997674)
(-2432.407634 0 -4.825254222)
(-2203.689321 0 -6.332447397)
(-2004.513621 0 -7.435903817)
(-1833.912637 0 -8.233666452)
(-17241.74292 0 10250.78265)
(-29072.00669 0 10188.3997)
(-48218.29392 0 10106.09495)
(-70715.85971 0 9854.738844)
(-89927.22399 0 9400.925433)
(-110244.1077 0 8644.55705)
(-130800.1881 0 7486.511324)
(-150680.1375 0 5928.837348)
(-168630.8522 0 4027.156707)
(-182918.0225 0 1973.858787)
(-191713.6671 0 73.68203541)
(-193832.3423 0 -1383.47314)
(-189264.2258 0 -2243.704423)
(-179134.3365 -2.218936483e-10 -2531.704132)
(-165203.7027 0 -2397.092597)
(-149305.2738 1.021184976e-10 -2014.241607)
(-132935.3327 0 -1528.072049)
(-117093.085 0 -1042.913237)
(-102357.9376 0 -618.1818766)
(-89011.61717 0 -274.7974046)
(-77129.98909 0 -16.85402058)
(-66673.92316 0 164.4243834)
(-57544.61611 0 281.2464347)
(-49618.24167 0 347.2717272)
(-42763.42668 0 375.1545574)
(-36851.57497 0 375.8144021)
(-31764.47301 0 358.2789941)
(-27394.00075 0 329.431344)
(-23643.90944 0 294.6505701)
(-20428.92054 -9.841595743e-12 257.5851632)
(-17674.63714 0 220.9829687)
(-15315.63966 0 186.3720612)
(-13295.59951 0 154.8405559)
(-11565.43676 0 126.7765876)
(-10083.07906 0 102.3765437)
(-8812.144505 0 81.47594209)
(-7721.269612 0 63.79748763)
(-6784.025633 0 49.06685655)
(-5977.655834 0 36.90460461)
(-5282.614044 0 26.95367699)
(-4682.510872 0 18.87691336)
(-4163.448015 0 12.39395208)
(-3713.498925 0 7.22840576)
(-3322.587369 0 3.147946906)
(-2982.235015 0 -0.04457465928)
(-2685.257814 0 -2.514815815)
(-2425.645944 0 -4.401855632)
(-2198.567308 0 -5.820702797)
(-2000.693067 0 -6.869037395)
(-1831.042802 0 -7.635594398)
(-17203.7845 0 6710.763311)
(-29041.04674 0 6698.994201)
(-48079.46341 0 6754.807229)
(-70326.17198 0 6719.063828)
(-89160.14783 0 6559.989169)
(-108904.8477 0 6200.258655)
(-128773.1065 0 5538.70197)
(-147974.5668 0 4544.504443)
(-165399.3104 0 3257.863307)
(-179537.6293 0 1792.187041)
(-188707.4064 0 358.675551)
(-191655.869 0 -805.4607134)
(-188115.845 0 -1542.866088)
(-178918.6817 0 -1837.752663)
(-165664.6678 0 -1778.148011)
(-150156.1797 1.021184976e-10 -1491.435361)
(-133921.9011 0 -1103.92897)
(-118039.439 0 -711.9296343)
(-103172.3103 0 -366.1522359)
(-89657.21981 0 -88.11945677)
(-77604.47509 0 116.6870348)
(-66994.93422 0 256.1127538)
(-57737.541 0 340.3437303)
(-49710.18446 0 382.2911697)
(-42779.37402 0 392.4325)
(-36813.8097 0 380.9164005)
(-31691.03505 0 355.1790083)
(-27299.38016 0 321.4466302)
(-23538.89449 0 283.9743003)
(-20321.52139 -9.841595743e-12 245.9620767)
(-17570.27585 0 209.4412397)
(-15217.83203 0 175.6365976)
(-13206.44464 0 145.2726183)
(-11485.90103 0 118.53925)
(-10013.39593 0 95.4891491)
(-8751.87048 0 75.86997519)
(-7669.802415 0 59.3539868)
(-6740.58606 0 45.6405709)
(-5941.303461 0 34.34375183)
(-5252.437612 0 25.110441)
(-4657.685504 0 17.62822946)
(-4143.207776 0 11.61892985)
(-3697.119574 0 6.825441863)
(-3309.445872 0 3.031965412)
(-2971.793584 0 0.05601387548)
(-2677.054367 -1.227877028e-12 -2.255149445)
(-2419.286307 0 -4.029413513)
(-2193.71304 0 -5.372244303)
(-1997.036797 0 -6.373048614)
(-1828.268226 0 -7.112602615)
(-17211.67127 0 3603.798303)
(-29172.18965 0 3631.360869)
(-48231.8609 0 3808.47683)
(-70346.47188 0 3946.57095)
(-88956.20192 0 4029.348418)
(-108318.2274 0 3992.332392)
(-127644.952 0 3747.198397)
(-146274.3404 0 3220.600439)
(-163233.5397 0 2433.419807)
(-177145.5592 0 1465.105029)
(-186462.6681 0 457.9586246)
(-189931.7624 0 -410.5923242)
(-187120.3671 0 -1000.773688)
(-178652.9628 -2.218936483e-10 -1265.010104)
(-165975.5635 0 -1241.647447)
(-150813.6344 2.042369953e-10 -1025.866919)
(-134705.0145 0 -723.3277283)
(-118796.63 0 -413.6631563)
(-103823.9359 0 -139.4099774)
(-90166.66413 0 77.85159979)
(-77968.36532 0 234.2495017)
(-67228.29612 0 335.5979112)
(-57862.72331 0 390.8268828)
(-49751.3012 0 411.2457854)
(-42758.65731 0 405.9272464)
(-36750.78015 0 383.8442982)
(-31601.3302 0 351.2299542)
(-27195.2948 0 313.4646254)
(-23429.46726 0 273.9123708)
(-20213.29123 -9.841595743e-12 235.2798476)
(-17467.40753 0 198.9852083)
(-15123.03162 0 166.0347995)
(-13121.00891 0 136.7908316)
(-11410.36152 0 111.2871217)
(-9947.667678 0 89.45632731)
(-8695.312933 0 70.97014441)
(-7621.69662 0 55.49068733)
(-6700.09275 0 42.67163342)
(-5907.460379 0 32.13044415)
(-5224.385206 0 23.52024722)
(-4634.628141 0 16.55545234)
(-4124.385401 0 10.95656803)
(-3681.863837 0 6.484771243)
(-3297.178637 0 2.939180403)
(-2962.016575 0 0.1502296021)
(-2669.34085 -1.227877028e-12 -2.02355249)
(-2413.273397 0 -3.700349391)
(-2189.090048 0 -4.97738026)
(-1993.522796 0 -5.936924912)
(-1825.576391 0 -6.652926658)
(-17274.21054 0 820.3252244)
(-29451.56424 0 891.9785545)
(-48623.09365 0 1178.600834)
(-70710.19965 1.296916343e-09 1456.872396)
(-89225.92472 -1.037132521e-09 1749.423719)
(-108357.4512 0 1975.529221)
(-127288.8268 -7.590816911e-10 2077.908622)
(-145427.8538 0 1964.498318)
(-161950.8285 0 1608.995904)
(-175599.3623 -5.645090647e-10 1062.390366)
(-184911.4759 0 426.5790318)
(-188660.0382 0 -165.5939617)
(-186338.593 0 -594.1680239)
(-178420.8527 0 -794.7159754)
(-166199.9456 0 -779.7675457)
(-151316.3385 1.021184976e-10 -616.3691809)
(-135311.9807 1.972231438e-10 -386.553507)
(-119387.7886 0 -148.0096546)
(-104327.197 0 62.50273531)
(-90550.8504 0 224.7713227)
(-78231.87711 0 337.3003076)
(-67382.63031 0 403.9270027)
(-57927.74555 0 433.3234571)
(-49747.87615 0 434.6177028)
(-42706.26014 0 415.975151)
(-36666.36133 0 384.8525155)
(-31498.18805 -2.019241095e-11 346.5459827)
(-27083.73346 0 305.5160223)
(-23316.85777 -9.913505491e-12 264.4350675)
(-20104.79515 0 225.4447032)
(-17366.26444 0 189.5315498)
(-15031.16898 0 157.4290687)
(-13039.05212 0 129.2247034)
(-11338.4631 0 104.8749971)
(-9885.454889 0 84.15033288)
(-8642.058012 0 66.67371617)
(-7576.591525 0 52.11648024)
(-6662.191529 0 40.08584886)
(-5875.822445 0 30.20839875)
(-5198.182558 0 22.14691675)
(-4613.095441 0 15.62960056)
(-4106.792105 0 10.38738478)
(-3667.582455 0 6.195240738)
(-3285.669015 0 2.864986258)
(-2952.815134 0 0.2384106533)
(-2662.051886 0 -1.816057262)
(-2407.561309 0 -3.408119164)
(-2184.668215 0 -4.627821362)
(-1990.133104 0 -5.551267272)
(-1822.957327 0 -6.246505244)
(-17394.75511 1.676159064e-08 -1717.072227)
(-29875.10763 0 -1600.18475)
(-49220.66139 1.766087453e-09 -1211.816558)
(-71366.96544 0 -808.0958409)
(-89888.34894 1.037132521e-09 -333.4924988)
(-108910.5166 0 122.1897655)
(-127600.8667 0 511.1443555)
(-145350.8972 0 750.8451132)
(-161452.742 0 780.4104038)
(-174782.8703 0 609.1070069)
(-183973.9092 0 304.6177801)
(-187833.1565 0 -28.51644772)
(-185810.9151 2.331079767e-10 -287.515473)
(-178268.966 0 -408.4522001)
(-166375.0773 0 -386.0331531)
(-151693.8055 0 -263.1048572)
(-135768.6767 0 -92.04790739)
(-119833.5181 0 85.8479997)
(-104699.5513 0 239.2701082)
(-90823.5792 0 353.2764626)
(-78404.03951 0 426.6476394)
(-67465.56679 -4.341488838e-11 462.3306714)
(-57939.13565 0 468.7851723)
(-49705.35538 0 453.1926573)
(-42626.82199 0 423.0903995)
(-36563.94342 0 384.1925765)
(-31384.10147 0 341.2546117)
(-26966.37485 0 297.5974796)
(-23202.13234 0 255.4512826)
(-19996.67154 -9.841595743e-12 216.3513424)
(-17267.04531 0 180.9419633)
(-14942.04923 0 149.681361)
(-12960.33699 0 122.4606683)
(-11269.97004 0 99.17836372)
(-9826.444612 0 79.46079788)
(-8591.750346 0 62.90059136)
(-7534.121725 0 49.1568194)
(-6626.572403 0 37.82282756)
(-5846.125274 -2.405189498e-12 28.53057207)
(-5173.600574 0 20.95210589)
(-4592.891917 1.206414697e-12 14.82620994)
(-4090.270366 0 9.895858821)
(-3654.149942 -1.213068337e-12 5.94804408)
(-3274.819107 0 2.80582307)
(-2944.114918 -1.222328066e-12 0.3210290099)
(-2655.132927 0 -1.629194069)
(-2402.111859 0 -3.147114547)
(-2180.422606 0 -4.316514794)
(-1986.852996 0 -5.208120671)
(-1820.403014 0 -5.884871952)
(-17572.87366 0 -4069.19327)
(-30432.24963 0 -3907.902274)
(-50015.97483 -1.766087453e-09 -3433.880565)
(-72289.1432 0 -2904.228145)
(-90912.35545 0 -2260.867351)
(-109911.3212 0 -1586.653054)
(-128457.0464 0 -960.7840525)
(-145924.2327 0 -427.8209227)
(-161655.8622 0 -61.67281922)
(-174640.6312 5.645090647e-10 108.3273353)
(-183615.2448 0 111.9931542)
(-187441.1263 0 25.52032315)
(-185547.8208 0 -65.46955126)
(-178218.9529 0 -99.31904699)
(-166524.2242 0 -59.60826024)
(-151974.3008 1.021184976e-10 35.76976196)
(-136104.4861 0 161.9447698)
(-120152.5916 0 289.1724925)
(-104955.0762 0 392.4065617)
(-90998.40509 0 463.8815009)
(-78496.53647 0 502.4355743)
(-67486.04634 0 511.3166047)
(-57903.35251 0 497.707761)
(-49628.88559 0 467.6235077)
(-42523.91882 0 427.6816411)
(-36446.37028 0 382.261057)
(-31261.20231 0 335.5347645)
(-26844.60047 0 289.7941456)
(-23086.23518 0 246.9487493)
(-19889.34793 -9.841595743e-12 207.8937131)
(-17169.88755 0 173.0856898)
(-14855.67848 0 142.6735525)
(-12884.66292 0 116.4114153)
(-11204.53847 0 94.0977747)
(-9770.339396 0 75.29577292)
(-8544.090781 0 59.56526981)
(-7493.99198 0 46.54768147)
(-6592.973588 0 35.83199853)
(-5818.139976 0 27.05222099)
(-5150.444041 0 19.90565389)
(-4573.8551 -1.206414697e-12 14.12534653)
(-4074.687991 0 9.469163136)
(-3641.461102 0 5.735914086)
(-3264.547085 0 2.758816966)
(-2935.853948 1.222328066e-12 0.3985916686)
(-2648.538598 0 -1.459944511)
(-2396.893355 0 -2.912528752)
(-2176.332582 0 -4.037452028)
(-1983.670325 0 -4.90073884)
(-1817.906866 0 -5.560882179)
(-17806.87516 0 -6260.485981)
(-31098.6492 0 -6067.539532)
(-50994.16137 1.766087453e-09 -5514.991401)
(-73479.05725 0 -4861.956343)
(-92285.1945 0 -4061.988004)
(-111308.9508 0 -3188.526478)
(-129773.9836 7.590816911e-10 -2341.503141)
(-147060.2865 0 -1558.809828)
(-162483.6192 0 -901.582046)
(-175115.116 0 -425.9054249)
(-183798.9029 0 -137.1663382)
(-187465.8977 0 10.30834857)
(-185551.9011 0 83.25662635)
(-178286.4436 -2.218936483e-10 137.8008557)
(-166674.0471 0 201.7813009)
(-152189.3189 1.021184976e-10 284.6995191)
(-136343.9426 0 378.0583957)
(-120365.0981 0 462.4164471)
(-105109.3943 4.646490293e-11 523.4416607)
(-91085.87432 4.531075074e-11 558.1415982)
(-78518.42116 0 565.9249542)
(-67452.55483 0 551.546856)
(-57827.30183 2.131899682e-11 520.481044)
(-49523.66613 0 478.1767001)
(-42401.52685 -2.067999104e-11 429.943828)
(-36316.40435 0 379.247992)
(-31131.13774 0 329.4522169)
(-26719.55583 0 282.1810008)
(-22969.68968 0 238.8975829)
(-19783.12334 0 200.0220712)
(-17074.95624 4.890584352e-12 165.8807392)
(-14771.99331 0 136.3100545)
(-12811.84761 0 110.9602485)
(-11141.91921 4.830039681e-12 89.54287293)
(-9716.870552 0 71.56713233)
(-8498.815137 0 56.59681888)
(-7455.951689 0 44.23328664)
(-6561.149494 0 34.07022834)
(-5791.672515 0 25.74585644)
(-5128.570196 0 18.98382841)
(-4555.850955 0 13.50994574)
(-4059.933256 1.209402773e-12 9.096372015)
(-3629.427119 0 5.552835866)
(-3254.784225 0 2.721725743)
(-2927.980407 0 0.4716955485)
(-2642.231095 0 -1.305626279)
(-2391.87947 0 -2.700200982)
(-2172.38104 0 -3.785478327)
(-1980.575038 -6.239889687e-13 -4.623350904)
(-1815.463427 0 -5.268421082)
(-18065.87763 0 -8329.016086)
(-31865.52458 0 -8112.623478)
(-52154.2042 0 -7474.584893)
(-74906.46042 1.296916343e-09 -6705.047028)
(-93961.50705 0 -5761.073428)
(-113089.9408 0 -4705.409139)
(-131520.3594 0 -3633.605937)
(-148675.5635 0 -2623.54105)
(-163854.8315 6.136491728e-10 -1719.169052)
(-176147.9398 0 -975.0729276)
(-184489.6179 -2.625550867e-10 -426.866498)
(-187891.4459 -2.464598854e-10 -60.45677987)
(-185815.115 0 167.1021133)
(-178473.966 0 307.5075277)
(-166846.6626 0 405.9210572)
(-152367.6794 1.021184976e-10 488.8004145)
(-136507.3453 1.972231438e-10 558.8977697)
(-120487.4485 0 607.3871221)
(-105179.1206 0 633.2838055)
(-91098.87828 0 636.8027342)
(-78479.17605 0 618.4726755)
(-67371.88019 0 584.1215035)
(-57716.44602 0 537.9752125)
(-49394.34233 0 485.3577655)
(-42263.02416 0 430.0730544)
(-36176.53629 0 375.1780249)
(-30995.73175 -1.009620547e-11 323.0145991)
(-26592.34983 0 274.694683)
(-22853.09018 -9.913505491e-12 231.2297396)
(-19678.27388 0 192.7084072)
(-16982.25456 0 159.2491111)
(-14690.89518 0 130.4727351)
(-12741.7089 0 106.0142499)
(-11081.85625 0 85.4343034)
(-9665.803124 0 68.21204179)
(-8455.728879 0 53.93806157)
(-7419.797184 0 42.16596104)
(-6530.93358 0 32.50100627)
(-5766.559816 0 24.59026951)
(-5107.820347 0 18.16717674)
(-4538.762512 0 12.96589662)
(-4045.913923 1.209402773e-12 8.76849594)
(-3617.974778 -1.213068337e-12 5.393933709)
(-3245.47351 0 2.692826101)
(-2920.451139 0 0.5409821007)
(-2636.178919 0 -1.163865129)
(-2387.048319 0 -2.506529543)
(-2168.553845 6.203589913e-13 -3.556164302)
(-1977.558936 0 -4.371006639)
(-1813.068367 0 -5.002234628)
(-18359.78719 0 -10331.77959)
(-32744.54158 0 -10086.07828)
(-53493.99672 0 -9358.493698)
(-76565.83805 0 -8480.855313)
(-95932.17901 0 -7388.69144)
(-115245.48 0 -6158.12083)
(-133689.3948 0 -4867.114162)
(-150724.2321 0 -3623.273281)
(-165692.5236 0 -2487.867251)
(-177673.2253 0 -1512.217209)
(-185641.0398 0 -738.6865058)
(-188683.8838 0 -179.3716125)
(-186320.9914 0 190.3375369)
(-178796.2153 0 420.3076314)
(-167069.4842 0 563.8398925)
(-152529.3446 1.021184976e-10 654.8686473)
(-136611.8207 0 707.0567399)
(-120535.8026 0 727.495783)
(-105177.4194 0 724.454983)
(-91049.08358 0 700.8643186)
(-78388.67231 0 660.7760697)
(-67251.29676 0 609.5815837)
(-57576.17383 0 550.9011563)
(-49244.37255 0 489.6562428)
(-42111.1267 0 428.5326874)
(-36029.03052 0 370.2977688)
(-30856.3879 0 316.2381744)
(-26463.92046 0 267.3019617)
(-22737.0628 0 223.8910543)
(-19575.0651 -9.841595743e-12 185.8552361)
(-16891.68234 0 153.1035009)
(-14612.27922 0 125.1057175)
(-12674.1826 0 101.4982607)
(-11024.1944 0 81.70448377)
(-9616.938338 0 65.18888226)
(-8414.617107 0 51.54428494)
(-7385.346125 0 40.30834397)
(-6502.169416 0 31.09306294)
(-5742.665551 0 23.55700361)
(-5088.076686 0 17.43863684)
(-4522.492919 0 12.48198868)
(-4032.551665 0 8.478397379)
(-3607.042026 0 5.25529168)
(-3236.566916 0 2.670756296)
(-2913.229989 0 0.6070535117)
(-2630.355793 -1.227877028e-12 -1.032602806)
(-2382.381725 0 -2.32842083)
(-2164.839341 0 -3.345719605)
(-1974.615358 0 -4.139482883)
(-1810.718271 0 -4.757856799)
(-18693.67731 0 -12295.34318)
(-33740.89724 0 -12014.62047)
(-55005.07813 0 -11194.79501)
(-78457.42623 0 -10213.15173)
(-98199.01541 0 -8970.50589)
(-117760.784 0 -7568.458984)
(-136290.7225 0 -6069.356962)
(-153231.3109 0 -4586.895809)
(-167968.2482 0 -3216.454376)
(-179615.6266 0 -2023.992453)
(-187178.027 0 -1052.243439)
(-189798.5044 0 -323.485839)
(-187068.6773 0 178.177826)
(-179269.844 -2.218936483e-10 497.9066725)
(-167356.2097 0 687.7322951)
(-152684.3432 1.021184976e-10 788.9553113)
(-136670.2874 0 826.8997174)
(-120526.3045 0 825.7137049)
(-105115.1861 0 799.1241091)
(-90945.06992 0 752.643411)
(-78255.2793 0 694.1369885)
(-67097.64411 0 628.4471366)
(-57411.7958 0 559.5622164)
(-49077.77218 0 491.2801771)
(-41948.56214 0 425.6167764)
(-35875.17624 0 364.7537043)
(-30714.17386 0 309.3077043)
(-26335.18172 0 260.0521909)
(-22622.01821 0 216.806128)
(-19473.67997 -9.841595743e-12 179.3768094)
(-16803.36654 0 147.3708746)
(-14536.08077 0 120.1736822)
(-12609.05208 0 97.356006)
(-10968.78319 0 78.29796305)
(-9570.11241 0 62.44402943)
(-8375.299615 0 49.37554453)
(-7352.439123 0 38.62828601)
(-6474.720218 0 29.81556294)
(-5719.875742 0 22.62585079)
(-5069.240403 0 16.78427019)
(-4506.960391 0 12.04861885)
(-4019.78062 0 8.219939568)
(-3596.576929 0 5.133572562)
(-3228.024384 0 2.654381017)
(-2906.286879 0 0.6704532659)
(-2624.73992 0 -0.9100572995)
(-2377.864673 0 -2.163214806)
(-2161.227956 0 -3.150895974)
(-1971.738885 0 -3.92517095)
(-1808.410406 0 -4.531484561)
(-19077.07122 0 -14254.36123)
(-34863.19195 0 -13930.06464)
(-56691.84798 0 -13015.90961)