/*--------------------------------*- C++ -*----------------------------------*\
  =========                 |
  \\      /  F ield         | OpenFOAM: The Open Source CFD Toolbox
   \\    /   O peration     | Website:  https://openfoam.org
    \\  /    A nd           | Version:  7
     \\/     M anipulation  |
\*---------------------------------------------------------------------------*/
FoamFile
{
    version     2.0;
    format      ascii;
    class       volTensorField;
    location    "0.0012";
    object      grad(U);
}
// * * * * * * * * * * * * * * * * * * * * * * * * * * * * * * * * * * * * * //

dimensions      [0 0 -1 0 0 0 0];

internalField   nonuniform List<tensor> 
1167
(
(-0.2382511722 -2.366914627e-13 0.1376440896 7.463042859e-13 -0.39048355 0 0.01881412084 -2.711628878e-14 1.286491195)
(-0.3151819113 -3.41969449e-13 0.3220432621 4.602305382e-13 -0.3410965582 0 0.04908421531 -7.010023624e-14 1.284734643)
(-0.3086909531 -4.466783745e-13 0.5376364378 4.13488836e-13 -0.3250555562 0 0.07736489002 -5.622867339e-14 1.281568643)
(-0.3155008533 5.98911167e-14 0.7840282777 4.440240548e-13 -0.3216125695 0 0.1057616178 -8.445966656e-14 1.279821982)
(-0.3209863749 1.0846726e-13 1.074693243 2.324353622e-13 -0.3204809101 0 0.1322271356 -1.305935337e-13 1.283116187)
(-0.3338421213 -1.629897233e-13 1.427804627 2.379730405e-13 -0.3210578556 0 0.1551716428 -1.536803781e-13 1.296085968)
(-0.3590909148 -3.169638221e-13 1.863632491 2.128315136e-13 -0.3240691375 0 0.1731650061 -1.415529171e-13 1.323307266)
(-0.3996289065 -4.529503079e-13 2.402875291 2.554514399e-13 -0.3303047228 0 0.1850419851 -9.281012796e-14 1.368771967)
(-0.4573241714 -2.588050445e-13 3.066191247 2.674462051e-13 -0.3403822398 0 0.1899891646 -3.147092715e-14 1.435241696)
(-0.5334567307 -2.649330217e-13 3.874748577 2.562583111e-13 -0.3547874382 0 0.1874134875 -1.034506015e-13 1.524191664)
(-0.6285487002 -3.148102864e-13 4.851804541 2.664171336e-13 -0.3738706021 0 0.1769653055 -6.389599524e-14 1.636234677)
(-0.7425604194 -2.646559767e-13 6.024277553 2.660680678e-13 -0.3978403071 0 0.1584542777 -3.933759213e-14 1.77147687)
(-0.8751770135 -2.940463233e-13 7.423938787 2.658816721e-13 -0.4267958337 0 0.1316974215 -9.038508984e-15 1.929697082)
(-1.02579211 -1.871910104e-13 9.088405536 2.691733558e-13 -0.4607541073 0 0.09642610215 3.369772625e-14 2.110374813)
(-1.193497406 -9.725550973e-14 11.06227263 2.568204977e-13 -0.499657003 0 0.05234534247 2.646207543e-14 2.312598446)
(-1.377130114 -1.883266792e-13 13.39840678 2.493127384e-13 -0.5433833959 0 -0.0007568761151 2.532320261e-14 2.534871182)
(-1.574916513 -1.193542023e-13 16.15924635 2.482743739e-13 -0.5917561727 0 -0.06304104967 9.327384778e-15 2.774990188)
(-1.784036401 -2.147057071e-14 19.41825026 2.362503339e-13 -0.644514227 0 -0.1347719089 -5.803982189e-15 3.029947191)
(-2.000857572 -4.433869502e-14 23.26215458 2.282974051e-13 -0.7012860116 0 -0.2161304696 -1.587741467e-14 3.29567508)
(-2.220781275 -4.936126418e-14 27.79341728 2.212439001e-13 -0.7616014543 0 -0.3070897817 -1.811701807e-14 3.566819593)
(-2.437767531 -4.39857266e-14 33.13269027 2.122552916e-13 -0.824863147 0 -0.4076234906 -1.441067353e-14 3.836675921)
(-2.644445807 -3.189375992e-14 39.42218345 2.066870907e-13 -0.8903268584 0 -0.5175209474 -9.301972047e-15 4.096913496)
(-2.831961981 -1.291805039e-14 46.82909862 2.003860785e-13 -0.9570981113 0 -0.6364130442 -3.314417849e-15 4.337556221)
(-2.989823172 1.25365778e-14 55.54945479 1.920624725e-13 -1.02411289 0 -0.7637046121 6.311658944e-15 4.546896536)
(-3.106100924 4.318619765e-14 65.81213047 1.842821468e-13 -1.090132441 0 -0.8985277269 1.579637869e-14 4.711586546)
(-3.167546956 7.920310699e-14 77.88288265 1.79466675e-13 -1.153747034 0 -1.0396529 2.411070536e-14 4.81685474)
(-3.159997857 6.326641285e-14 92.06784722 1.72542574e-13 -1.213381729 0 -1.185394604 3.402834173e-14 4.846936156)
(-3.068998563 4.750714926e-14 108.716395 1.63540918e-13 -1.267323591 0 -1.333552266 2.957442663e-14 4.785699652)
(-2.880683411 2.556430707e-14 128.2228214 1.573188127e-13 -1.313756855 0 -1.48130577 2.939280553e-14 4.617605902)
(-2.582882611 1.982724286e-14 151.0260556 1.585804002e-13 -1.350823261 6.15099734e-13 -1.625178385 9.954050319e-15 4.328811798)
(-2.166384014 6.487191939e-14 177.6072799 1.504427804e-13 -1.376692508 0 -1.761015514 2.460115738e-14 3.908611528)
(-1.626303977 8.863793656e-14 208.4850046 1.472998983e-13 -1.38965381 0 -1.884068593 2.615822575e-14 3.350810564)
(-0.9634580853 1.136284693e-13 244.2074543 1.372284772e-13 -1.388213456 0 -1.989139018 3.175100901e-14 2.655218911)
(-0.185463501 1.370401576e-13 285.3426115 1.344298153e-13 -1.371203986 0 -2.070834815 4.335425874e-14 1.828787744)
(-0.2740691994 -8.725752465e-14 0.1400151211 5.105240832e-13 -0.4490285525 0 0.01606621338 -1.761268516e-13 1.383308819)
(-0.3627184679 -2.073323317e-13 0.3271473542 2.478689694e-13 -0.3923227602 0 0.04193300423 -4.825221616e-13 1.381436272)
(-0.3551632081 -2.710954603e-13 0.5433179326 2.534829728e-13 -0.3739908826 0 0.06626338464 -3.012953558e-13 1.377655855)
(-0.36157598 -2.121716941e-13 0.7856095974 2.603539374e-13 -0.3699885858 0 0.09106121845 -2.904548199e-13 1.374074415)
(-0.3638697407 -1.874126016e-13 1.065400741 2.383698821e-13 -0.3681618901 0 0.1146793698 -6.217603951e-14 1.3734292)
(-0.3708899752 -2.545324422e-13 1.399296801 2.338126727e-13 -0.3675305523 0 0.1359279999 -1.201108242e-13 1.379445715)
(-0.3875674069 -3.154212574e-13 1.80716691 2.417881821e-13 -0.3686621644 0 0.1535511198 2.329109676e-14 1.396316088)
(-0.4171571954 -3.244245383e-13 2.310496948 2.541612812e-13 -0.3722780479 0 0.1662510501 -1.474064706e-14 1.428089659)
(-0.4620235334 -2.892388462e-13 2.931773497 2.598383262e-13 -0.3790440404 0 0.173090981 -2.628693782e-14 1.478091065)
(-0.5237649795 -2.587240319e-13 3.694170778 2.594884579e-13 -0.3895076878 0 0.1733530527 7.817987153e-15 1.548485572)
(-0.6032510144 -2.296662328e-13 4.622444608 2.594061564e-13 -0.4040895299 0 0.1665433322 -7.175195833e-15 1.640338261)
(-0.7006463247 -2.269849133e-13 5.744447648 2.566663693e-13 -0.4230747897 0 0.1523592484 -9.52842266e-14 1.753947744)
(-0.8155771504 -2.758960019e-13 7.092645787 2.552108357e-13 -0.4466203112 0 0.1305907281 -9.776502935e-14 1.889117818)
(-0.947360095 -2.085557858e-13 8.705461713 2.581694135e-13 -0.4747737806 1.733544128e-12 0.1010375916 -1.462485128e-13 2.045261106)
(-1.095134865 -1.340117409e-13 10.62860634 2.49529064e-13 -0.5075012754 0 0.06352141481 -9.107864171e-14 2.221346148)
(-1.257730169 -1.254400365e-13 12.91638981 2.446381245e-13 -0.5447057246 -1.595601525e-12 0.01789738064 -8.382274541e-14 2.41581533)
(-1.433188087 -8.5113616e-14 15.63302414 2.377415217e-13 -0.5862241864 0 -0.03605850194 -1.226255335e-13 2.626504363)
(-1.6186724 -7.875153546e-14 18.8544158 2.275003215e-13 -0.6317946193 0 -0.09860931516 -1.207997123e-13 2.8505004)
(-1.810827942 -8.674149274e-14 22.67044736 2.240434162e-13 -0.6810563926 0 -0.1698452565 -8.018114896e-14 3.083805495)
(-2.005227571 -8.544843451e-14 27.18715863 2.17095577e-13 -0.7335631894 0 -0.2498169433 -5.389971034e-14 3.32128064)
(-2.196085029 -7.685487804e-14 32.52950828 2.122552916e-13 -0.788738293 0 -0.3385130559 -3.253779814e-14 3.556513316)
(-2.376428721 -6.30784821e-14 38.84461607 2.066870907e-13 -0.8458732718 0 -0.4357265248 -1.535355649e-14 3.781589347)
(-2.537882752 -4.615477338e-14 46.30502298 2.003860785e-13 -0.9041149095 0 -0.541118898 -3.020160293e-16 3.987132833)
(-2.67066428 -2.463551324e-14 55.11235562 1.946233055e-13 -0.9624550551 0 -0.654109484 1.623478571e-14 4.1621968)
(-2.763762261 5.965897838e-16 65.50099899 1.868065597e-13 -1.019726805 0 -0.7738422523 3.23328365e-14 4.294479639)
(-2.805157631 2.603347561e-14 77.74160098 1.844518604e-13 -1.074612371 0 -0.8991150204 4.5464161e-14 4.370507136)
(-2.782184011 4.954581196e-14 92.14398374 1.72542574e-13 -1.125654768 0 -1.028279421 5.806735742e-14 4.376189811)
(-2.682190712 7.216414635e-14 109.0591981 1.684227365e-13 -1.171283935 0 -1.159216734 5.084368672e-14 4.297372146)
(-2.493409621 9.363494719e-14 128.8803801 1.64579681e-13 -1.20985791 0 -1.28923633 4.244785355e-14 4.120810199)
(-2.205916184 6.938831075e-14 152.0416486 1.561776668e-13 -1.239720146 1.230199468e-12 -1.415092666 1.163944745e-14 3.835144548)
(-1.812760327 4.766166829e-14 179.0150722 1.504427804e-13 -1.25926722 0 -1.532982267 1.856876113e-14 3.432175123)
(-1.311094413 7.27729431e-14 210.3054118 1.472998983e-13 -1.267032099 0 -1.638658412 2.392010261e-14 2.907989049)
(-0.7032683409 1.015350249e-13 246.4425444 1.372284772e-13 -1.261769796 0 -1.727576719 2.620450023e-14 2.264151403)
(0.002379131518 1.331216305e-13 287.9720545 1.344298153e-13 -1.242550234 0 -1.795150384 2.395076275e-14 1.508534995)
(0.7910273383 1.623120449e-13 335.4451219 1.270555894e-13 -1.20883695 0 -1.837050205 1.499238528e-14 0.6559250684)
(1.641337851 1.920157014e-13 389.4069893 1.245110417e-13 -1.160559852 0 -1.849527949 2.727004992e-14 -0.2719552819)
(2.52589018 2.301463898e-13 450.3852943 1.173725039e-13 -1.098159649 0 -1.829793577 3.539545054e-14 -1.246757299)
(3.411807029 2.763593825e-13 518.8798571 1.103246076e-13 -1.022614283 0 -1.776311081 4.24592423e-14 -2.234469466)
(4.262171975 3.276509177e-13 595.3532218 1.033479862e-13 -0.9354401045 0 -1.689062418 3.756120352e-14 -3.196364988)
(5.037551586 3.813240043e-13 680.2240712 9.17211571e-14 -0.8386564158 0 -1.569701963 3.156391838e-14 -4.090726568)
(5.697430387 4.358356256e-13 773.8623741 8.600417273e-14 -0.7347340867 0 -1.421614138 2.21471529e-14 -4.874572057)
(6.2017888 4.940095502e-13 876.5849638 7.79497881e-14 -0.6265228035 0 -1.249851427 1.725440993e-14 -5.50509295)
(6.512696071 5.590457249e-13 988.654638 6.752431172e-14 -0.5171663027 0 -1.061004906 7.968161261e-15 -5.941265992)
(6.595835774 6.325495273e-13 1110.282978 5.825376228e-14 -0.4100041653 0 -0.8629467967 7.767573984e-16 -6.145438119)
(6.422543129 7.183131107e-13 1241.634063 4.715035021e-14 -0.3084700218 0 -0.6645292941 -8.794936331e-15 -6.084536977)
(5.970882458 6.272855123e-13 1382.829535 3.597295979e-14 -0.2159673269 0 -0.4751727949 -2.456615947e-14 -5.730721458)
(5.214357243 5.26557743e-13 1533.958689 2.892217093e-14 -0.1357737172 0 -0.304489759 -1.886261174e-14 -5.061963956)
(4.092634183 5.921327803e-13 1695.102947 2.135513129e-14 -0.07125019162 0 -0.1625824954 -1.339610616e-14 -4.062245649)
(2.580990886 6.500468767e-13 1866.410723 1.294898983e-14 -0.02648310252 0 -0.0613974789 -8.849995959e-15 -2.721168583)
(1.246462051 7.000696112e-13 2048.33851 4.426345829e-15 -0.004657009228 0 -0.01096934258 -3.300885694e-15 -1.031815673)
(-0.3044101432 5.469120369e-13 0.1424286972 -4.385911399e-13 -0.4985368961 0 0.01347760315 1.521009493e-14 1.465404748)
(-0.4031315558 -2.84025863e-13 0.3326375277 -6.295735255e-13 -0.4356875217 0 0.0352107229 1.443878292e-14 1.463549858)
(-0.3950230732 -7.430354512e-13 0.5505014653 3.368544488e-15 -0.4155210227 0 0.05578979359 -1.356625077e-13 1.459604206)
(-0.401685697 -4.050890917e-13 0.7910426698 1.595518191e-13 -0.4112152913 0 0.07692836883 -2.416919524e-14 1.455174745)
(-0.4021647106 -1.594380631e-13 1.063977453 1.839701165e-13 -0.4090483532 0 0.09738445692 2.024338638e-14 1.452309467)
(-0.4053387443 -3.457615082e-13 1.384143098 1.622543458e-13 -0.4077348611 0 0.1163281553 7.80340841e-15 1.45382545)
(-0.4157364867 -4.958843622e-13 1.77038161 2.258620144e-13 -0.4076782497 0 0.1327922107 -6.697781472e-14 1.463347542)
(-0.4366093905 -3.603650359e-13 2.244162469 2.477104872e-13 -0.4094761298 0 0.1455525072 -2.1744904e-14 1.484627532)
(-0.4706709012 -3.069577974e-13 2.828978709 2.551565545e-13 -0.4137768639 0 0.1535312936 -9.434240236e-15 1.521182778)
(-0.5198722759 -2.989641742e-13 3.549789687 2.594884579e-13 -0.4211542336 0 0.1559061208 -1.244753206e-14 1.575699623)
(-0.5854095023 -9.992892126e-14 4.433152017 2.634124291e-13 -0.4320815795 0 0.1520579107 -1.039907606e-14 1.649792862)
(-0.667699977 -8.357595818e-14 5.508317802 2.359826326e-13 -0.4469029619 0 0.1415614774 7.998666283e-15 1.744121224)
(-0.7665469433 -1.834709975e-13 6.8088076 2.383153449e-13 -0.4658335347 0 0.1241492378 2.26615456e-14 1.858626961)
(-0.8813309304 -2.08416914e-13 8.374029386 2.285434153e-13 -0.4889717926 1.733544128e-12 0.09964794023 3.660177902e-14 1.992713354)
(-1.011184602 -2.306738722e-13 10.25080165 2.317055595e-13 -0.5163219068 0 0.06793104907 1.360172638e-14 2.145289182)
(-1.154759902 -1.151717116e-13 12.49474149 2.259396691e-13 -0.547815143 -1.595601525e-12 0.02884686282 -8.543650326e-15 2.314772218)
(-1.309932723 -3.785243769e-14 15.171746 2.196852036e-13 -0.5832937364 0 -0.01787178492 -9.269112821e-15 2.499030629)
(-1.474102134 -1.218963311e-13 18.36009772 2.114586322e-13 -0.6225004827 0 -0.072413803 -8.161308044e-15 2.695136338)
(-1.644039521 -2.01142222e-13 22.15260622 2.112814495e-13 -0.6651012385 0 -0.1348099637 -1.996146568e-14 2.899190891)
(-1.815327874 -1.634536538e-13 26.65868813 2.101817051e-13 -0.7106625829 0 -0.2051607355 -3.626324416e-14 3.10628434)
(-1.98251363 -1.380303681e-13 32.00732336 2.08199458e-13 -0.7586278965 0 -0.2834310005 -1.038288635e-14 3.310258038)
(-2.139020726 -1.121081835e-13 38.35007464 2.053621734e-13 -0.8083225984 0 -0.3694456547 1.864491327e-15 3.503630951)
(-2.276978803 -9.320666888e-14 45.86431365 2.003860785e-13 -0.8589341751 0 -0.4628708373 7.957756618e-16 3.677589113)
(-2.38732015 -7.187838002e-14 54.75660905 1.971841385e-13 -0.9095107035 0 -0.563134546 3.729002976e-14 3.821967656)
(-2.459922298 -3.370239229e-14 65.26602487 1.893309727e-13 -0.9589569078 0 -0.6693940495 7.314009337e-14 3.925470519)
(-2.483933756 1.011642119e-14 77.66713349 1.844518604e-13 -1.006045389 0 -0.7804774481 7.041011163e-14 3.975906886)
(-2.448094947 4.956988319e-14 92.27237234 1.799372558e-13 -1.049433428 0 -0.8947988266 7.0214693e-14 3.960744094)
(-2.341414003 9.110741355e-14 109.4334413 1.733045549e-13 -1.087687915 0 -1.010331297 7.000114614e-14 3.867662146)
(-2.153963211 1.380841298e-13 129.5414215 1.64579681e-13 -1.119330596 0 -1.124548992 6.736654666e-14 3.685440614)
(-1.87774125 8.698880172e-14 153.0250823 1.561776668e-13 -1.142889828 1.230199468e-12 -1.234459066 5.635938488e-14 3.404863465)
(-1.507648238 2.873972013e-14 180.34743 1.504427804e-13 -1.156966949 0 -1.336615339 4.962570846e-14 3.019769689)
(-1.042396169 6.584969939e-14 212.0003084 1.472998983e-13 -1.160308105 0 -1.427255541 6.022518452e-14 2.52803014)
(-0.4853833903 1.137671026e-13 248.4969881 1.443265018e-13 -1.151880772 0 -1.502428565 6.217961395e-14 1.93241801)
(0.1547877039 1.723487517e-13 290.3633444 1.344298153e-13 -1.130950034 0 -1.558258333 5.713526636e-14 1.241277062)
(0.8639377623 1.510830108e-13 338.1287219 1.270555894e-13 -1.097141807 0 -1.59118125 7.267611899e-14 0.4688135591)
(1.62244679 1.283698929e-13 392.3156068 1.245110417e-13 -1.050501023 0 -1.598220133 6.360254803e-14 -0.3648970427)
(2.405744335 1.788073815e-13 453.4294043 1.173725039e-13 -0.9915204353 0 -1.577270603 5.237049824e-14 -1.234347326)
(3.184874265 2.623006055e-13 521.9492115 1.150192717e-13 -0.9211569236 0 -1.527325147 3.964085198e-14 -2.109469855)
(3.927730894 3.502032393e-13 598.3197165 1.033479862e-13 -0.8408251779 0 -1.4486979 5.254930959e-14 -2.956472957)
(4.600309715 4.109055473e-13 682.9461215 9.877663072e-14 -0.7523627035 0 -1.343088692 6.641120485e-14 -3.739308061)
(5.167860546 4.525343703e-13 776.1891708 8.953859078e-14 -0.6579825803 0 -1.213609327 8.219257648e-14 -4.421033919)
(5.596230354 4.995884317e-13 878.3609685 8.031190289e-14 -0.5602105105 0 -1.064706 6.486445884e-14 -4.96496324)
(5.853102134 5.550163394e-13 989.7247994 6.989358582e-14 -0.4618101641 0 -0.9020665221 4.995449642e-14 -5.336045486)
(5.909185297 6.021850323e-13 1110.497737 6.063146687e-14 -0.3657027138 0 -0.7323773228 3.466246459e-14 -5.502115583)
(5.739953577 6.77041983e-13 1240.85316 5.013454959e-14 -0.2748810421 0 -0.5630882764 1.475366854e-14 -5.434734426)
(5.326488121 6.512891489e-13 1380.925104 3.897070644e-14 -0.1923063478 0 -0.4020717928 3.752375583e-14 -5.109782229)
(4.645399915 6.01971221e-13 1530.817844 3.072980661e-14 -0.1208291919 0 -0.2573246212 1.499945112e-14 -4.507905396)
(3.642764385 6.456843395e-13 1690.628802 2.241531512e-14 -0.06338143514 0 -0.1372387155 -9.432986164e-15 -3.614663582)
(2.296027056 6.890379305e-13 1860.51908 1.344409826e-14 -0.02355206322 0 -0.05175967458 -1.052425485e-14 -2.420204703)
(1.108469089 7.26333562e-13 2040.940324 4.550896686e-15 -0.004140640173 0 -0.009228842628 -1.286798545e-14 -0.9174763503)
(-0.3296554764 -8.534817176e-14 0.144754611 6.124290861e-13 -0.539672196 0 0.01108729304 3.529841779e-13 1.53367594)
(-0.4368999676 1.083266456e-13 0.3380627296 2.813278661e-13 -0.4717498432 -1.118756252e-11 0.02900168076 1.017606479e-12 1.531913809)
(-0.4285108839 -2.650755028e-13 0.5581214536 6.821302589e-14 -0.4501573768 0 0.04606086725 6.933327846e-13 1.528083324)
(-0.4356764279 -4.782363343e-13 0.7983397049 2.362356392e-13 -0.445684819 0 0.06364575881 3.608168682e-13 1.523460206)
(-0.4352371281 -2.372600573e-13 1.067217474 2.532061818e-13 -0.4433723866 0 0.08090119907 2.883808119e-13 1.519502711)
(-0.4361135357 -8.556544033e-14 1.377898626 2.379730405e-13 -0.441709354 0 0.09724724301 3.707393035e-13 1.518307536)
(-0.442267917 -2.726903768e-13 1.74786839 2.070401799e-13 -0.4409679793 2.965162856e-12 0.1119774638 1.706769057e-13 1.522833378)
(-0.4565379245 -4.31661428e-13 2.198016135 2.425498521e-13 -0.4415924779 0 0.124089826 1.064482352e-13 1.536427897)
(-0.4818093321 -3.06054819e-13 2.752111696 2.574974404e-13 -0.4441448995 0 0.1324703213 9.748254269e-14 1.562457516)
(-0.5203541367 -2.572141065e-13 3.436371103 2.562583111e-13 -0.4491950683 0 0.1362321058 -2.02570772e-14 1.603855174)
(-0.5736588523 -2.72419696e-13 4.279081251 2.574030201e-13 -0.4572374974 2.051211615e-12 0.1346567944 -4.099479084e-14 1.66269112)
(-0.6424645046 -2.950710223e-13 5.311181699 2.566663693e-13 -0.4686603512 -1.925467854e-12 0.127214568 1.182269339e-13 1.740041705)
(-0.7268131604 -3.361018192e-13 6.567606918 2.614354902e-13 -0.4837324469 0 0.1135590933 1.035252713e-13 1.836106649)
(-0.8262377805 -1.86657015e-13 8.088978981 2.683268987e-13 -0.5026033655 0 0.09348489607 1.534139128e-13 1.950384978)
(-0.9398522802 -3.534794644e-14 9.923275016 2.527697012e-13 -0.525323051 0 0.06685110412 1.119913653e-13 2.081812173)
(-1.066099083 -7.581639328e-14 12.12736642 2.415217153e-13 -0.5518487811 -1.595601525e-12 0.03344114252 1.19536366e-13 2.228833841)
(-1.202860615 -8.60907849e-14 14.76891571 2.332274421e-13 -0.5820299233 -1.540805811e-12 -0.006966525441 1.56739982e-13 2.389304517)
(-1.347756449 -5.326484579e-14 17.92849354 2.260419861e-13 -0.6156288145 -1.493335444e-12 -0.05444340562 2.074557084e-13 2.560270114)
(-1.497558669 -2.026322259e-14 21.70147666 2.18371431e-13 -0.652335732 0 -0.109084337 1.615500778e-13 2.737945362)
(-1.647952505 -1.108177531e-13 26.20046314 2.101817051e-13 -0.6917299327 0 -0.1709912702 1.337095171e-13 2.917614204)
(-1.793775221 -1.693574578e-13 31.55817339 2.095514025e-13 -0.733280688 0 -0.2400730665 1.128242498e-13 3.093379115)
(-1.928786847 -9.020823294e-14 37.93022632 2.053621734e-13 -0.7763431519 0 -0.3161754286 1.001485587e-13 3.258200764)
(-2.045651867 -1.381288524e-13 45.49830595 2.003860785e-13 -0.8201458899 0 -0.3989581916 9.002287252e-14 3.403804923)
(-2.135992603 -2.117638808e-13 54.47324971 2.023058044e-13 -0.8637919841 0 -0.487868639 7.528728083e-14 3.520813028)
(-2.19054774 -8.46689096e-14 65.09804051 2.019530375e-13 -0.9062564937 0 -0.5820855874 6.495739907e-14 3.598883996)
(-2.199560289 3.375710516e-14 77.65031329 1.944222313e-13 -0.9463998504 0 -0.6804730946 6.930764172e-14 3.627062523)
(-2.153089931 5.064827428e-14 92.44423561 1.848670436e-13 -0.9829885395 0 -0.7815217091 8.00266443e-14 3.594237387)
(-2.041642215 8.022343745e-14 109.8313437 1.806272826e-13 -1.014719989 0 -0.8833069262 9.849132415e-14 3.48975973)
(-1.856892846 1.328062916e-13 130.2000467 1.694202599e-13 -1.040267704 0 -0.9834884368 1.283128036e-13 3.304169209)
(-1.592463953 1.205097475e-13 153.9735555 1.657886002e-13 -1.058328978 0 -1.079321103 1.757835655e-13 3.030068903)
(-1.244735453 3.536030318e-14 181.6060869 1.552187416e-13 -1.067687344 0 -1.167716781 1.775904714e-13 2.662939132)
(-0.8136071292 3.549786487e-14 213.5775373 1.52051508e-13 -1.067274221 0 -1.245360199 1.543703539e-13 2.202009818)
(-0.3031329143 1.113433305e-13 250.3862603 1.490585183e-13 -1.056237404 0 -1.308842796 1.501414234e-13 1.650866738)
(0.2781293391 9.931840952e-14 292.5409337 1.415050688e-13 -1.03400073 0 -1.354899842 1.666114258e-13 1.017988333)
(0.9168048038 1.430225543e-13 340.552148 1.341142332e-13 -1.000317093 -1.204675218e-12 -1.380590592 1.581122596e-13 0.3167995096)
(1.594979136 2.5786624e-13 394.923025 1.315588365e-13 -0.9553136599 0 -1.383568366 1.127914965e-13 -0.4342736751)
(2.290645628 3.092627932e-13 456.1404416 1.220674041e-13 -0.8995099662 0 -1.362265731 7.967948062e-14 -1.212351535)
(2.978300941 2.744223751e-13 524.6664046 1.173666038e-13 -0.833828143 6.009170113e-13 -1.316059176 5.310144516e-14 -1.990797329)
(3.629970771 2.359254511e-13 600.9310792 1.08045622e-13 -0.7595789155 0 -1.245461388 5.744847964e-14 -2.740053109)
(4.21616718 2.777909003e-13 685.3286441 1.023043675e-13 -0.6784310642 0 -1.152137456 6.761490629e-14 -3.4288623)
(4.706879007 4.430735892e-13 778.2121372 9.425114819e-14 -0.5923681906 0 -1.03891108 8.621982493e-14 -4.025248008)
(5.072741064 6.106424281e-13 879.8899128 8.503613247e-14 -0.5036346931 0 -0.9096908495 9.552334033e-14 -4.497518298)
(5.285986948 6.705161378e-13 990.6259379 7.226285991e-14 -0.4146691457 -3.032670842e-13 -0.7693731857 7.878907224e-14 -4.815477137)
(5.321365264 7.651495144e-13 1110.641481 6.182031916e-14 -0.328038966 0 -0.6236513162 5.694582862e-14 -4.951399586)
(5.157657831 7.050345891e-13 1240.117107 5.013454959e-14 -0.2463674189 0 -0.4788127911 3.737279461e-14 -4.880561993)
(4.778337281 6.287972666e-13 1379.196798 4.01698051e-14 -0.1722470611 0 -0.3414655826 2.75686392e-14 -4.581825131)
(4.162523332 7.134032521e-13 1527.996742 3.072980661e-14 -0.1081740376 0 -0.2182957928 1.52407971e-14 -4.037972712)
(3.261629317 6.942575606e-13 1686.626996 2.04464023e-14 -0.05672467524 0 -0.1163089341 1.205138301e-16 -3.235817177)
(2.054923386 6.642987991e-13 1855.258369 1.19206877e-14 -0.02107482352 0 -0.04382156833 -1.439305127e-14 -2.16591725)
(0.9918590844 6.008865604e-13 2034.337322 3.104190581e-15 -0.003704651875 0 -0.007803042768 -4.628442713e-15 -0.8210602826)
(-0.3502292504 -1.152735952e-12 0.146931178 1.936195055e-12 -0.5731045048 0 0.008922208878 -5.53424788e-13 1.589146543)
(-0.4644799163 -5.539415887e-13 0.3431792097 1.667482158e-12 -0.5011084706 0 0.02335127966 -3.414697075e-15 1.587530668)
(-0.4559482565 4.102847712e-13 0.5655156214 9.482452735e-13 -0.4784051912 -6.898779112e-12 0.03709098566 2.858622827e-13 1.58399905)
(-0.4637960448 2.705203896e-13 0.8062259371 5.1328686e-13 -0.4738416576 0 0.05132355511 1.7360668e-13 1.579563216)
(-0.4630832287 -1.999635703e-13 1.072934156 4.065146122e-13 -0.4715287484 0 0.06551932914 1.542620923e-13 1.575221757)
(-0.4626504229 -9.349939181e-14 1.37727997 3.977311657e-13 -0.4697463658 0 0.07921375461 2.154332022e-13 1.572577589)
(-0.4660602904 -1.270954557e-14 1.735264891 3.199711871e-13 -0.4686503633 -2.965162856e-12 0.09184985684 3.278383625e-13 1.573903333)
(-0.4756132269 -2.252838989e-13 2.166908284 2.980266799e-13 -0.468569688 0 0.1027390037 1.653041711e-13 1.582085927)
(-0.4940359939 -4.958608823e-14 2.695778264 2.984629422e-13 -0.4699473783 0 0.1109000681 6.392933613e-14 1.600176194)
(-0.5238201164 -3.110067754e-14 3.348691277 2.508747331e-13 -0.4733095787 0 0.115379598 1.131851391e-13 1.631087066)
(-0.5666849736 -3.948496678e-13 4.155340667 2.493904747e-13 -0.4791474303 0 0.115404861 5.0674683e-14 1.677153466)
(-0.6236492388 -3.697291389e-13 5.148391488 2.735894266e-13 -0.4878685383 0 0.1103750466 -8.651433056e-15 1.739822618)
(-0.6950675387 -2.621058911e-13 6.364437889 2.667709084e-13 -0.4997799411 0 0.09986560578 -9.684091006e-14 1.819607451)
(-0.7806626057 -2.205367908e-13 7.845539635 2.734056412e-13 -0.5150801682 3.467088255e-12 0.08360033113 -1.3923376e-13 1.916210086)
(-0.8794628248 -1.597517044e-13 9.640916613 2.624916128e-13 -0.5338603578 0 0.06133744792 -3.041410326e-14 2.028691388)
(-0.9898710646 -2.167258713e-13 11.80883955 2.58661966e-13 -0.5560958344 0 0.03283593037 6.474531375e-14 2.155540484)
(-1.110014939 -2.382587599e-13 14.41878115 2.573025329e-13 -0.5816587883 0 -0.002025761543 8.385887389e-14 2.294564928)
(-1.237504433 -1.273707855e-13 17.55339783 2.55208694e-13 -0.6103464259 0 -0.04329015106 1.141790835e-13 2.442854736)
(-1.368983378 -2.843054897e-14 21.31047484 2.453133608e-13 -0.6418613078 -1.452028217e-12 -0.09110864901 1.567493807e-13 2.596767397)
(-1.500429922 -4.689009513e-14 25.80559904 2.364544182e-13 -0.6757966439 -1.415960961e-12 -0.1455332801 2.044939472e-13 2.751716329)
(-1.626970244 -5.640935751e-14 31.17484444 2.271266814e-13 -0.7116539337 0 -0.2064757023 1.703002744e-13 2.902081573)
(-1.742650691 -5.543433064e-14 37.57749164 2.225860977e-13 -0.7488179995 0 -0.273785415 1.719766273e-13 3.041243332)
(-1.840644304 -2.983884115e-14 45.19903781 2.160005781e-13 -0.7865594962 -1.332437301e-12 -0.3471058406 1.607355554e-13 3.161476049)
(-1.913220088 -7.269864683e-15 54.25400334 2.099883033e-13 -0.8240344731 0 -0.4258999827 8.165004323e-14 3.254158973)
(-1.951958977 -1.872601652e-14 64.98860299 2.070018635e-13 -0.8602864266 1.29249944e-12 -0.5093655862 1.105148667e-14 3.309865141)
(-1.948118378 -3.069735024e-14 77.68281461 1.96914824e-13 -0.8942610301 0 -0.5964063221 2.481837565e-14 3.318789431)
(-1.892970895 -3.069322491e-14 92.65180825 1.922617253e-13 -0.9248280406 0 -0.6855921714 3.799939898e-14 3.271119139)
(-1.778350042 -4.411037617e-14 110.2463328 1.855091011e-13 -0.9508080446 0 -0.7751196726 5.325255541e-14 3.157690146)
(-1.597318337 -8.238911019e-14 130.8517513 1.863622858e-13 -0.9710133525 0 -0.8628363076 7.45119621e-14 2.970568109)
(-1.344852568 -5.328952811e-14 154.8856627 1.826077335e-13 -0.9842946019 0 -0.9462508815 1.091951652e-13 2.703868323)
(-1.018498542 9.31545651e-14 182.7939626 1.743225868e-13 -0.9895956576 -6.11323044e-13 -1.022614219 1.094442479e-13 2.354395498)
(-0.6190262369 1.473277398e-13 215.0455663 1.663063368e-13 -0.9860081965 0 -1.089023906 8.128535275e-14 1.922378623)
(-0.1508650603 7.522011506e-14 252.1255291 1.656205759e-13 -0.9728309347 0 -1.142559923 6.720668844e-14 1.411925437)
(0.37761719 1.48755361e-13 294.5275529 1.580139935e-13 -0.9496170129 -1.20750992e-12 -1.180471894 6.532514666e-14 0.8314000538)
(0.9539757497 3.239922124e-13 342.7460826 1.529372835e-13 -0.9162192674 0 -1.20033562 3.670952751e-14 0.1934098161)
(1.561971349 3.816637843e-13 397.2678132 1.409558963e-13 -0.8728207821 0 -1.200303872 3.262805416e-14 -0.4852339609)
(2.181864187 3.753673542e-13 458.5639556 1.267623042e-13 -0.8199495874 0 -1.179219729 3.228603267e-14 -1.184068569)
(2.791128591 3.35409455e-13 527.08225 1.197139359e-13 -0.7584844679 0 -1.136747415 3.69938797e-14 -1.879435116)
(3.365302719 3.001922275e-13 603.241061 1.127432577e-13 -0.6896353953 0 -1.073501292 2.157035111e-14 -2.545379806)
(3.878690332 3.100756635e-13 687.4253388 1.070080166e-13 -0.6149171051 0 -0.9910648809 -1.582546311e-15 -3.154654913)
(4.30522567 3.538122753e-13 779.9815454 9.778556625e-14 -0.5361101593 0 -0.8919772299 -2.415261513e-14 -3.679411447)
(4.619451628 5.278738336e-13 881.2149458 8.857930466e-14 -0.4552142115 -3.023506932e-13 -0.7796685574 -3.003518411e-15 -4.092098717)
(4.797292916 6.976494164e-13 991.3900315 7.93706822e-14 -0.374390265 0 -0.6583546303 1.107991726e-14 -4.366470106)
(4.816782178 7.577813004e-13 1110.731326 6.657572832e-14 -0.2959057623 0 -0.5328938575 2.38145437e-14 -4.478368893)
(4.659362994 7.890497102e-13 1239.424999 5.49092686e-14 -0.2220731221 0 -0.4086095322 4.662945887e-14 -4.406111191)
(4.310431976 7.378104406e-13 1377.62291 4.256800242e-14 -0.1551762474 0 -0.2910705795 3.474913849e-14 -4.13097375)
(3.751160215 7.11281987e-13 1525.450712 3.283871491e-14 -0.09741559898 0 -0.1858931086 3.427707794e-14 -3.637469486)
(2.937452087 7.657247178e-13 1683.028491 2.241531512e-14 -0.05107115286 0 -0.09895477582 4.073219899e-14 -2.913430584)
(1.850116434 7.072843425e-13 1850.53458 1.203494349e-14 -0.01897322324 7.799862109e-14 -0.03724684741 2.748091978e-14 -1.949767174)
(0.8929581821 6.46639324e-13 2028.410299 4.091016599e-15 -0.003335416219 0 -0.006622889116 1.831701046e-14 -0.7391781414)
(-0.3665602572 -1.488424972e-12 0.1488833893 -3.109101657e-12 -0.5996785274 0 0.006956471314 -1.322851632e-13 1.632917592)
(-0.4863115991 -1.282558143e-12 0.3477694071 2.744995198e-13 -0.5244248204 0 0.01818712239 -4.42716431e-13 1.631518831)
(-0.4777190934 -4.809189384e-13 0.5723093086 4.598063227e-13 -0.5007954983 6.898779112e-12 0.0288656066 -3.047317933e-13 1.628418241)
(-0.486396998 -2.602077879e-13 0.8139754639 4.056821448e-13 -0.4961863422 0 0.04004085437 -6.684821862e-14 1.624369902)
(-0.4858371209 -3.249188274e-13 1.079656302 3.728856662e-13 -0.4939732877 0 0.05133321117 1.57847101e-14 1.620091338)
(-0.4847099671 -4.129603872e-13 1.379848836 3.744331058e-13 -0.4922214711 0 0.06240779719 -1.883802695e-14 1.61684135)
(-0.4864294919 -1.486701532e-13 1.729214919 3.822280244e-13 -0.4909805418 0 0.07284755628 6.879894844e-14 1.616288143)
(-0.4928642662 6.885214592e-14 2.146631203 3.212495381e-13 -0.4905184334 0 0.08215082857 3.495690284e-14 1.620792286)
(-0.5062263834 -2.175389309e-13 2.655164795 2.844176273e-13 -0.4911691221 0 0.08957375025 -5.456759334e-14 1.633066967)
(-0.5289878224 -2.216393812e-13 3.281786653 2.982502192e-13 -0.4933672017 -2.205113534e-12 0.09420815834 8.683214949e-14 1.655838275)
(-0.5631369864 -2.541674854e-14 4.05712763 2.74429679e-13 -0.4975743255 0 0.09523730966 7.966916464e-14 1.691491043)
(-0.6099568498 1.204408994e-14 5.015389388 2.566663693e-13 -0.5042032727 0 0.09201287806 -2.517888888e-14 1.741722076)