/*--------------------------------*- C++ -*----------------------------------*\
  =========                 |
  \\      /  F ield         | OpenFOAM: The Open Source CFD Toolbox
   \\    /   O peration     | Website:  https://openfoam.org
    \\  /    A nd           | Version:  7
     \\/     M anipulation  |
\*---------------------------------------------------------------------------*/
FoamFile
{
    version     2.0;
    format      ascii;
    class       volScalarField;
    location    "0.0012";
    object      T;
}
// * * * * * * * * * * * * * * * * * * * * * * * * * * * * * * * * * * * * * //

dimensions      [0 0 0 1 0 0 0];

internalField   nonuniform List<scalar> 
1167
(
455.2237972
455.3350336
455.5735684
455.9262524
456.3854865
456.9448078
457.5980551
458.3396274
459.1639306
460.0655258
461.039341
462.0804064
463.1839282
464.3451474
465.5597438
466.8232704
468.1314803
469.4799214
470.8648976
472.2823413
473.7281126
475.1986441
476.6897291
478.1977874
479.7185496
481.248534
482.7834314
484.3195386
485.8528064
487.3795092
488.8957837
490.3981028
491.8830395
493.3473559
455.4067722
455.5180502
455.7566695
456.1094667
456.5686269
457.1280744
457.7812261
458.5226861
459.3468421
460.2483191
461.2218888
462.2625744
463.3656146
464.5263636
465.7403881
467.0032346
468.3104797
469.6579718
471.0418458
472.4577932
473.9019928
475.3704766
476.8592976
478.3645103
479.8821131
481.4082259
482.9388443
484.4699426
485.997759
487.518315
489.0280581
490.5232743
492.000864
493.4574415
494.8904602
496.2974733
497.6762938
499.02533
500.3430683
501.6285049
502.8810442
504.1002511
505.2858754
506.4380589
507.5571536
508.6436797
509.6982754
510.7217091
511.714825
512.6785767
455.589756
455.7010731
455.9397716
456.2925178
456.7517512
457.3111315
457.964363
458.7056976
459.5296917
460.43094
461.4042171
462.4445475
463.5471465
464.7073829
465.920778
467.1828367
468.4890387
469.8354823
471.2180408
472.632386
474.0748103
475.5410171
477.0273218
478.529426
480.0435983
481.565572
483.0916578
484.6175252
486.1397062
487.6539842
489.1571119
490.6452164
492.1154987
493.5644347
494.9897911
496.3890095
497.7601703
499.1016485
500.4119325
501.6901967
502.9357963
504.1483126
505.327455
506.4734464
507.5865782
508.6673572
509.7163984
510.7344578
511.7223613
512.6810535
455.7727412
455.8840948
456.122867
456.4755095
456.9348511
457.4941291
458.1474546
458.8886502
459.7124667
460.6134683
461.5864323
462.6263817
463.728505
464.8881832
466.1008883
467.3619341
468.6671537
470.012429
471.3934219
472.8061038
474.2464647
475.7102774
477.1937932
478.6925908
480.2030396
481.7207003
483.241953
484.7625015
486.2787868
487.7868162
489.2831746
490.764291
492.2272422
493.6687191
495.086553
496.4781489
497.8418406
499.1759411
500.4790048
501.7503017
502.9891596
504.1951298
505.3680108
506.507974
507.6152956
508.6904703
509.7340917
510.7469051
511.7297196
512.6834719
455.955721
456.0671082
456.3057765
456.6584785
457.117918
457.6770828
458.3302916
459.0715315
459.8951539
460.7958897
461.7685181
462.8080583
463.9096691
465.0687413
466.2805588
467.5406523
468.8447946
470.1887462
471.5680738
472.9789307
474.4169734
475.8782696
477.3586686
478.8540561
480.3604687
481.8737324
483.3899238
484.9050684
486.4153451
487.9170733
489.4066475
490.880803
492.3364588
493.7706165
495.1810349
496.5652008
497.9215975
499.2484619
500.5445359
501.8090453
503.0413341
504.2409199
505.4076925
506.5417681
507.64341
508.7131022
509.7514188
510.7590955
511.7369262
512.6858404
456.1386885
456.249996
456.4886343
456.8414162
457.3007708
457.859984
458.5130587
459.25422
460.0777398
460.978189
461.9504569
462.9895569
464.0906159
465.2489285
466.4598475
467.7189612
469.0219282
470.3643077
471.7419748
473.15085
474.5864054
476.0450017
477.5220934
479.0138794
480.516077
482.0247797
483.5357708
485.0454003
486.5495944
488.0449841
489.5277786
490.9950143
492.443453
493.8703977
495.2734748
496.6504236
497.9996851
499.3194803
500.6087291
501.8666104
503.0924815
504.2858256
505.4466213
506.5749308
507.6710056
508.7353204
509.768431
510.7710652
511.7440025
512.6881661
456.321448
456.4327704
456.6714631
457.0243153
457.4835375
458.0428235
458.6957483
459.436731
460.2600897
461.1603386
462.1322299
463.1708335
464.2712005
465.4287372
466.6387771
467.8968304
469.1984769
470.5392202
471.915095
473.3216767
474.7547577
476.2104223
477.6840999
479.1720952
480.6699417
482.1739215
483.6796233
485.1836195
486.6817137
488.1707273
489.6467825
491.1071496
492.5484547
493.9682933
495.3641577
496.7340299
498.0763037
499.3891805
500.6717516
501.9231465
503.1427335
504.3299613
505.4848951
506.6075446
507.6981504
508.7571791
509.7851696
510.782843
511.7509654
512.6904546
456.5041694
456.6155157
456.8542558
457.2071033
457.6662474
458.2255088
458.8783499
459.6191341
460.4422289
461.3421447
462.3136464
463.3517145
464.4514628
465.6082261
466.8173185
468.0742297
469.3743325
470.7134555
472.0874122
473.491564
474.9220229
476.3744987
477.8447219
479.3286536
480.8221316
482.3211532
483.8215977
485.3197967
486.8118606
488.2943964
489.7638445
491.2173391
492.6516593
494.0644968
495.4532706
496.8161967
498.151617
499.4577143
500.7337403
501.9787754
503.1921549
504.3734196
505.5225931
506.639676
507.7248992
508.7787219
509.8016679
510.7944522
511.7578288
512.6927103
456.6868586
456.7982254
457.0370052
457.3896947
457.848893
458.4079963
459.0608527
459.8014171
460.6242234
461.5237791
462.4948406
463.5323536
464.6314365
465.7873681
466.9954432
468.2510245
469.5495937
470.8869877
472.2587927
473.6604986
475.0881991
476.5373497
478.0039832
479.483722
480.9727147
482.4666839
483.9617993
485.4541574
486.9401737
488.4162449
489.8791246
491.3257722
492.7532326
494.1591622
495.5409702
496.897072
498.2256902
499.5252064
500.7948073
502.0335967
503.2408684
504.4162756
505.5597793
506.6713787
507.7512959
508.7999841
509.8179526
510.8059117
511.7646038
512.6949369
456.8695092
456.9808926
457.2196252
457.572227
458.0314663
458.590395
459.2431488
459.9835684
460.8060602
461.7052259
462.6758123
463.7127288
464.8110961
465.9661356
467.1730985
468.4272134
469.7242331
471.0597924
472.4292664
473.8284689
475.2531874
476.6989852
478.1618957
479.6373434
481.1217527
482.6105921
484.1003226
485.5868108
487.0667749
488.5364042
489.9927607
491.4326296
492.8533151
494.2523541
495.6273872
496.9767785
498.298711
499.5917594
500.8550445
502.0876913
503.2889521
504.4585904
505.5965054
506.702696
507.7773761
508.8209937
509.8340451
510.8172363
511.7712991
512.6971374
457.0521146
457.1634954
457.4020599
457.7546936
458.2138894
458.7726959
459.4252326
460.1655595
460.9877258
461.8864693
462.8565429
463.892818
464.9904164
466.1444998
467.3501205
468.6028506
469.8982259
471.2317661
472.5988808
473.9954641
475.4170246
476.8594093
478.3183469
479.7895645
481.2691921
482.75295
484.2371715
485.7178542
487.1917305
488.6549889
490.104872
491.5380319
492.9520263
494.3442708
495.7126317
497.0554185
498.3707732
499.6574581
500.9145273
502.1411256
503.3364633
504.500413
505.6328132
506.7336627
507.8031682
508.8417735
509.8499626
510.8284381
511.7779219
512.699314
457.234571
457.3458494
457.5844331
457.9370875
458.3960946
458.9548903
459.6071877
460.3472137
461.1691856
462.0674935
463.0370136
464.0726
465.1693537
466.3222573
467.5266447
468.7779089
470.0715481
471.4028807
472.7676201
474.1614642
475.5797706
477.0186381
478.4735118
479.9404185
481.4151703
482.8938219
484.3724587
485.8473738
487.3150956
488.7720984
490.2154969
491.6420821
493.0494674
494.4350097
495.7967952
497.1330771
498.4419537
499.7223714
500.973316
502.1939091
503.3834498
504.5417839
505.6687367
506.764307
507.8286952
508.8623417
509.8657189
510.8395269
511.7844779
512.7014687
457.4168578
457.5281429
457.7667383
458.1194016
458.5782042
459.1369695
459.7890036
460.5286997
461.3502695
462.2481808
463.2171337
464.2519536
465.3477403
466.4995595
467.7026458
468.9523616
470.2440835
471.5732089
472.9354721
474.3263233
475.7414294
477.176661
478.627413
480.0899382
481.5597592
483.0332651
484.5062983
485.9754455
487.4370339
488.8878192
490.3247453
491.7448682
493.1457243
494.5246529
495.8799547
497.2097669
498.5123168
499.7865564
501.0314617
502.2461214
503.4299484
504.582735
505.7043025
506.7946511
507.8539753
508.8827126
509.8813249
510.8505101
511.7909716
512.7036028
457.5990819
457.7103702
457.9489691
458.3014625
458.7602106
459.3187468
459.9706701
460.7100068
461.5311413
462.4285306
463.3968359
464.4308854
465.5257223
466.6763899
467.8781005
469.1261858
470.4158284
471.7427351
473.1024267
474.4901918
475.902008
477.333393
478.7800681
480.2380631
481.7030017
483.1713109
484.6387513
486.1021368
487.5576173
489.0022261
490.4327361
491.8464634
493.2407857
494.613272
495.9621758
497.2855901
498.5819158
499.8500608
501.0890057
502.2978069
503.4759891
504.6232914
505.7395321
506.8247127
507.8790227
508.9028976
509.8967892
510.8613939
511.7974064
512.7057176
457.7812376
457.8925251
458.1311191
458.483396
458.9421056
459.5003776
460.1521749
460.8911241
461.711788
462.6086147
463.5762267
464.6094533
465.7032796
466.8527277
468.052988
469.2992138
470.5868418
471.9114414
473.2683571
474.6530691
476.06151
477.4889703
478.9314994
480.3848526
481.8449333
483.3079131
484.769872
486.2274358
487.6769115
489.1153855
490.5395359
491.946934
493.3347953
494.7009242
496.0435124
497.3606121
498.6507947
499.9129231
501.145982
502.3489944
503.521596
504.6634735
505.7744423
506.8545057
507.9038487
508.9229056
509.9121184
510.8721828
511.8037852
512.707814
457.9633191
458.0746017
458.3130025
458.6652285
459.1238816
459.6818666
460.3333145
461.0720405
461.8921972
462.788419
463.7552897
464.787639
465.880393
467.0285535
468.2272088
469.4715533
470.7571077
472.0793148
473.433326
474.8149512
476.2198677
477.6434079
479.0817308
480.5303976
481.9855902
483.4432276
484.899706
486.3514226
487.79497
489.227283
490.6452046
492.0463374
493.4278106
494.7876584
496.1240095
497.4348737
498.7189898
499.9751752
501.2023671
502.3997071
503.5667888
504.7032975
505.8090464
506.8840409
507.9284621
508.9427433
509.9273178
510.8828804
511.8101101
512.7098926
458.1453204
458.2564767
458.4947712
458.8469528
459.305367
459.8632049
460.5142744
461.2526322
462.0723571
462.9679297
463.9340093
464.9654248
466.0570436
467.2037928
468.4007265
469.6432124
470.9266125
472.246246
473.5973738
474.9758352
476.3770695
477.7967222
479.2307117
480.674724
482.1250051
483.5772924
485.0282963
486.4741875
487.9118407
489.3380088
490.7497911
492.144722
493.5198771
494.8735166
496.2036532
497.5084088
498.786531
500.0368428
501.2582303
502.4499635
503.6115828
504.7427763
505.843355
506.9133269
507.9528697
508.9624162
509.9423913
510.8934896
511.8163827
512.711954
458.3270407
458.438178
458.6764391
459.0285616
459.4866898
460.0443831
460.6950443
461.4329157
462.2521487
463.1471331
464.11237
465.1427939
466.2331263
467.3783593
468.5736278
469.8141776
471.0953449
472.4122544
473.7604965
475.1357235
476.5332138
477.9489254
479.3784736
480.8178569
482.263097
483.7101425
485.1556761
486.5957721
488.0275666
489.447638
490.8533368
492.2420343
493.611033
494.9585342
496.2825027
497.5812455
498.8534426
500.0979471
501.3135932
502.4997785
503.6559904
504.78192
505.8773762
506.9423702
507.9770767
508.9819282
509.957342
510.9040125
511.8226042
512.7139986
458.508663
458.6197817
458.8579992
459.2099841
459.6678691
460.2253097
460.8756148
461.6129647
462.4315828
463.3258232
464.2902191
465.3195547
466.4086175
467.5523643
468.7458971
469.9844364
471.2631828
472.5774069
473.9226922
475.2944822
476.6883073
478.1000279
479.5250953
480.9598211
482.3999824
483.84181
485.281768
486.716213
488.1421857
489.5562081
490.955878
492.3383983
493.7013106
495.0427408
496.3606099
497.6534072
498.919745
500.1584965
501.3684703
502.549164
503.7000212
504.8207363
505.9111164
506.9711758
508.0010869
509.0012825
509.9721721
510.9144506
511.8287755
512.7160268
458.6901859
458.8012811
459.0394446
459.3911486
459.848897
460.4059431
461.0559761
461.7927682
462.6107296
463.5041766
464.467645
465.4958634
466.5836005
467.725794
468.9175209
470.1539733
471.4301766
472.7416983
474.0839587
475.4522363
476.8423525
478.249938
479.6705986
481.1006411
482.5357129
483.9723246
485.4067228
486.8355434
488.2556283
489.6637518
491.0574462
492.4338492
493.7907377
495.1261614
496.4379972
497.7249134
498.9854547
500.2184617
501.422873
502.5981293
503.7436829
504.8592313
505.9445802
506.9997476
508.0249034
509.0204811
509.9868832
510.924805
511.8348974
512.7180386
458.8716027
458.9826695
459.2206936
459.5721748
460.0297647
460.586389
461.2360242
461.9723163
462.789578
463.682184
464.6446717
465.6717141
466.7580619
467.8986347
469.0884845
470.3226186
471.5963762
472.9051253
474.2442022
475.609002
476.9953573
478.3987207
479.8150001
481.2402537
482.6703135
484.1017136
485.5305695
486.953793
488.3680205
489.7702981
491.1580614
492.5284122
493.8793364
495.2087604
496.5146847
497.795781
499.0505859
500.2779066
501.4768106
502.6466818
503.7869812
504.8974095
505.9777712
507.0280881
508.0485281
509.0395258
510.0014765
510.9350765
511.8409703
512.7200343
459.0529066
459.1639251
459.4016971
459.7530548
460.2103974
460.7666381
461.415741
462.1515977
462.9681173
463.8598334
464.8212864
465.8470939
466.9319893
468.0708748
469.2586708
470.4905285
471.7617742
473.0676851
474.4034525
475.7647846
477.1473327
478.5464399
479.9583131
481.378717
482.8038066
484.2299268
485.6533339
487.0709883
488.4793964
489.8758725
491.2576699
492.6221095
493.9671275
495.2905906
496.5906879
497.8660236
499.1151498
500.3368405
501.5302906
502.6948275
503.8299208
504.9352744
506.010692
507.0561993
508.0719626
509.0584174
510.0159528
510.9452657
511.8469944
512.722014
459.2340022
459.3448796
459.5825639
459.9337807
460.3907216
460.946682
461.5952201
462.3304172
463.1463364
464.0371134
464.9974774
466.021991
467.1053713
468.242408
469.4281193
470.6576953
471.9263635
473.2292972
474.5617795
475.9195942
477.2981493
478.6931044
480.1005505
481.5160944
482.936212
484.3570171
485.7750396
487.1871169
488.5897795
489.9804977
491.3563793
492.7149612
494.0541293
495.3716902
496.6660188
497.9356511
499.1791286
500.3952717
501.5833192
502.742571
503.872505
504.9728285
506.0433444
507.0840825
508.0952077
509.0771568
510.0303125
510.9553728
511.85297
512.7239777
473.3899592
474.7191867
476.0734353
477.4479537
478.8387258
480.2416324
481.6524042
483.0675495
484.4830504
485.8957079
487.3021603
488.6991908
490.0841939
491.4542085
492.8069846
494.1403572
495.4520724
496.7406881
498.0046721
499.242525
500.4532062
501.6359013
502.7899161
503.9147366
505.0100737
506.0757298
507.1117387
508.1182641
509.0957443
510.0445559
510.965398
511.8588972
512.7259255
)
;

boundaryField
{
    front_top
    {
        type            wedge;
    }
    front_middle
    {
        type            wedge;
    }
    front_bottom
    {
        type            wedge;
    }
    back_top
    {
        type            wedge;
    }
    back_middle
    {
        type            wedge;
    }
    back_bottom
    {
        type            wedge;
    }
    axis_top
    {
        type            symmetryPlane;
    }
    axis_middle
    {
        type            symmetryPlane;
    }
    axis_bottom
    {
        type            symmetryPlane;
    }
    wall_top
    {
        type            convectiveRadiativeHeatFlux;
        mode            convectiveRadiative;
        kappaMethod     fluidThermo;
        kappa           none;
        alphaAni        Anialpha;
        h               nonuniform 0();
        Ta              constant 513.15;
        emissivityNozzle 0.95;
        emissivityFilament 0.95;
        dNozzle         2;
        dFilament       1.65;
        refValue        nonuniform 0();
        refGradient     nonuniform 0();
        valueFraction   nonuniform 0();
        value           nonuniform 0();
    }
    wall_middle
    {
        type            fixedValue;
        value           nonuniform 0();
    }
    wall_bottom
    {
        type            fixedValue;
        value           uniform 513.15;
    }
    inlet
    {
        type            fixedValue;
        value           nonuniform 0();
    }
    outlet
    {
        type            zeroGradient;
    }
    procBoundary1to0
    {
        type            processor;
        value           nonuniform List<scalar> 
51
(
459.4148687
459.5257015
459.7632862
460.1143445
460.5708606
461.1265119
461.7744513
462.5089486
463.324034
464.2139504
465.1732089
466.1963442
467.278064
468.4132415
469.5968839
470.8241128
472.0901397
472.0901397
473.5497518
474.8756734
476.2262335
477.5967585
478.9833173
480.3816176
481.7876617
483.1977899
484.6080469
486.0153591
487.4162157
488.8076498
490.1869434
491.5511744
492.898195
494.2257511
495.5317485
496.8147055
498.0730953
499.3053772
500.510648
501.6880401
502.836865
503.9566172
505.0470113
506.1078488
507.1391682
508.141132
509.1141801
510.058683
510.9753414
511.8647759
512.7278573
)
;
    }
    procBoundary1to2
    {
        type            processor;
        value           nonuniform List<scalar> 
51
(
455.0407182
455.1520309
455.3904767
455.7430407
456.2023408
456.7615266
457.4148597
458.156533
458.980792
459.8825584
460.8566287
461.8980097
463.0019397
464.1637519
465.3788639
466.6429983
467.9519126
469.3013521
470.6872832
472.1059989
473.5531744
475.0253902
476.518579
478.0290704
479.5528132
481.0862957
482.6252293
484.1660729
485.7045577
487.2372282
488.7599136
490.2692856
491.7615843
493.2337239
494.7881785
494.7881785
496.2031687
497.5898568
498.9466771
500.2721063
501.5649498
502.8246575
504.0507734
505.2430868
506.4016548
507.5268922
508.619334
509.6796436
510.7086035
511.7070781
512.6760306
)
;
    }
}


// ************************************************************************* //
