/*--------------------------------*- C++ -*----------------------------------*\
  =========                 |
  \\      /  F ield         | OpenFOAM: The Open Source CFD Toolbox
   \\    /   O peration     | Website:  https://openfoam.org
    \\  /    A nd           | Version:  7
     \\/     M anipulation  |
\*---------------------------------------------------------------------------*/
FoamFile
{
    version     2.0;
    format      ascii;
    class       volScalarField;
    location    "0.0012";
    object      thermo:alpha;
}
// * * * * * * * * * * * * * * * * * * * * * * * * * * * * * * * * * * * * * //

dimensions      [1 -1 -1 0 0 0 0];

internalField   nonuniform List<scalar> 
1167
(
0.0001192378526
0.0001192264428
0.0001192019817
0.00011916583
0.0001191187833
0.000119061524
0.0001189905164
0.0001189078096
0.0001188159769
0.0001187156549
0.0001186074392
0.0001184832403
0.0001183503791
0.0001182003173
0.0001180436179
0.0001178808877
0.000117703594
0.0001175180629
0.0001173212437
0.0001171138553
0.0001168973972
0.0001166695255
0.0001164339624
0.0001161961205
0.000115939167
0.000115679907
0.0001154163872
0.0001151424827
0.0001148663071
0.0001145806307
0.000114294798
0.0001140007741
0.0001137084528
0.0001134189727
0.0001192190853
0.0001192076742
0.0001191832108
0.0001191470568
0.0001191000298
0.0001190427723
0.0001189700795
0.0001188874065
0.0001187956138
0.0001186953307
0.0001185864993
0.0001184613458
0.0001183268841
0.000118176921
0.0001180203351
0.0001178577334
0.0001176789456
0.0001174935911
0.0001172953318
0.0001170882131
0.0001168704287
0.0001166429288
0.0001164062064
0.0001161673495
0.0001159125058
0.0001156524642
0.0001153897362
0.0001151153658
0.0001148402281
0.0001145544397
0.0001142698912
0.0001139761101
0.0001136852836
0.0001133963645
0.0001131023781
0.0001128038406
0.0001125095281
0.0001122221091
0.0001119310369
0.0001116465
0.0001113630983
0.0001110831053
0.0001108112693
0.0001105449153
0.0001102790265
0.0001100168048
0.0001097574673
0.0001095061468
0.0001092626039
0.0001090218159
0.000119200322
0.0001191889099
0.0001191644446
0.0001191283051
0.0001190812827
0.0001190225398
0.0001189496517
0.0001188670139
0.0001187752628
0.0001186750308
0.0001185645592
0.0001184394803
0.000118303415
0.0001181535562
0.0001179970909
0.0001178343264
0.0001176543638
0.0001174691995
0.0001172695365
0.0001170627026
0.0001168436315
0.0001166165384
0.0001163787097
0.0001161388969
0.0001158861893
0.0001156254304
0.0001153635365
0.000115088763
0.0001148146948
0.0001145288453
0.0001142455301
0.0001139520865
0.0001136627453
0.0001133743947
0.0001130820215
0.0001127842848
0.0001124916424
0.0001122058648
0.0001119157809
0.0001116328568
0.0001113505144
0.0001110720774
0.000110801744
0.0001105365013
0.0001102720408
0.0001100109782
0.0001097530139
0.0001095030184
0.0001092607571
0.0001090211874
0.0001191815634
0.0001191701504
0.0001191456839
0.0001191095644
0.0001190625429
0.000119002114
0.0001189292342
0.0001188466331
0.0001187549253
0.0001186547464
0.0001185426383
0.000118417637
0.0001182799743
0.0001181302255
0.0001179738885
0.0001178096318
0.0001176298493
0.0001174448914
0.0001172438667
0.0001170373262
0.0001168170209
0.0001165903523
0.0001163518773
0.0001161107527
0.0001158597234
0.0001155987834
0.0001153369292
0.0001150626353
0.0001147885015
0.0001145037908
0.0001142206482
0.0001139286318
0.0001136407788
0.0001133529843
0.0001130621941
0.0001127652434
0.000112474229
0.0001121898177
0.0001119009232
0.0001116195656
0.0001113382506
0.0001110613356
0.0001107924538
0.0001105282921
0.0001102652234
0.0001100052906
0.0001097486662
0.0001094999639
0.0001092589538
0.0001090205738
0.0001191628102
0.0001191513967
0.0001191269471
0.0001190908307
0.0001190438114
0.0001189816984
0.0001189088503
0.0001188262655
0.0001187346028
0.000118634479
0.0001185207386
0.0001183958183
0.0001182565646
0.0001181069319
0.0001179507487
0.0001177849956
0.0001176054062
0.0001174203166
0.0001172183098
0.0001170120859
0.0001167905943
0.0001165643685
0.0001163264289
0.000116082908
0.0001158326303
0.000115572502
0.0001153102113
0.0001150369469
0.0001147626954
0.0001144792264
0.0001141962816
0.0001139056855
0.0001136193123
0.0001133320668
0.0001130425536
0.0001127466501
0.0001124572255
0.0001121737261
0.0001118864082
0.0001116065765
0.0001113262609
0.0001110508303
0.0001107833643
0.0001105202577
0.0001102585493
0.0001099997216
0.0001097444085
0.0001094969726
0.0001092571878
0.0001090199727
0.000119144063
0.0001191326606
0.0001191082204
0.0001190721051
0.0001190236963
0.0001189612939
0.0001188884794
0.0001188059246
0.0001187142967
0.0001186142304
0.0001184988621
0.0001183740264
0.000118233189
0.000118083692
0.0001179276637
0.000117760422
0.0001175810388
0.0001173945835
0.000117192869
0.0001169869763
0.0001167643407
0.0001165385855
0.0001163012101
0.0001160553526
0.0001158058563
0.000115546567
0.0001152838822
0.0001150116662
0.0001147373304
0.0001144551088
0.0001141723812
0.0001138831959
0.0001135982857
0.0001133115866
0.0001130227746
0.0001127284497
0.0001124405797
0.0001121579693
0.0001118721909
0.000111593849
0.0001113145081
0.0001110405284
0.0001107744477
0.0001105123738
0.0001102519987
0.0001099942546
0.0001097402284
0.0001094940354
0.0001092554537
0.0001090193826
0.000119125342
0.000119113941
0.0001190895015
0.0001190533883
0.0001190032961
0.0001189409015
0.0001188681224
0.0001187856086
0.0001186940221
0.0001185939071
0.0001184770111
0.0001183520727
0.000118209866
0.0001180605068
0.0001179046308
0.000117735915
0.0001175567579
0.0001173689518
0.0001171675485
0.0001169604601
0.0001167382606
0.0001165124535
0.0001162762158
0.0001160282838
0.000115779388
0.0001155209645
0.0001152579183
0.0001149867708
0.0001147123724
0.000114431404
0.0001141489044
0.0001138611184
0.0001135776537
0.0001132914962
0.000113003374
0.0001127105966
0.0001124242488
0.0001121425065
0.000111858234
0.00011158135
0.0001113029617
0.0001110304038
0.0001107656816
0.0001105046208
0.0001102455553
0.0001099888762
0.0001097361155
0.0001094911454
0.0001092537474
0.0001090188019
0.0001191066296
0.0001190952291
0.000119070791
0.0001190341535
0.0001189829074
0.0001189205315
0.0001188477805
0.0001187653098
0.0001186737761
0.000118572028
0.0001184552085
0.0001183286814
0.0001181865905
0.0001180373686
0.0001178816536
0.0001177114788
0.0001175325782
0.0001173434256
0.0001171423515
0.0001169340959
0.0001167123548
0.0001164855785
0.0001162514407
0.0001160027451
0.0001157532133
0.000115495695
0.0001152322985
0.0001149622478
0.0001146877915
0.0001144080942
0.0001141258144
0.0001138394274
0.0001135573777
0.0001132717556
0.0001129843115
0.0001126930528
0.0001124081977
0.0001121273039
0.0001118445073
0.0001115690524
0.000111291607
0.0001110204353
0.0001107570479
0.0001104969827
0.0001102392061
0.0001099835757
0.0001097320618
0.0001094882968
0.0001092520655
0.0001090182296
0.0001190879254
0.0001190765257
0.0001190520898
0.0001190137701
0.0001189625311
0.0001189001888
0.0001188274547
0.0001187450296
0.0001186535513
0.000118550175
0.0001184334381
0.0001183053272
0.0001181633582
0.0001180142809
0.0001178587357
0.0001176871319
0.0001175084862
0.0001173180085
0.0001171172974
0.0001169078858
0.0001166866237
0.0001164589103
0.0001162268809
0.0001159774549
0.0001157273204
0.0001154707225
0.0001152070035
0.0001149380565
0.0001146635612
0.0001143851314
0.0001141030795
0.0001138180854
0.0001135374249
0.0001132523331
0.0001129655537
0.0001126757867
0.0001123924125
0.0001121123338
0.0001118309858
0.0001115569344
0.0001112804157
0.0001110106054
0.0001107485318
0.0001104894469
0.0001102329407
0.0001099783443
0.0001097280607
0.000109485485
0.0001092504053
0.0001090176646
0.0001190692299
0.0001190578315
0.0001190327554
0.0001189933985
0.000118942168
0.0001188798613
0.0001188071571
0.0001187247692
0.0001186333492
0.0001185283502
0.0001184117
0.0001182820131
0.0001181401722
0.0001179912472
0.0001178356693
0.0001176628745
0.0001174844854
0.0001172927041
0.0001170923818
0.0001168818313
0.0001166610824
0.0001164324472
0.0001162023151
0.000115952406
0.0001157016985
0.0001154460334
0.000115182016
0.000114914177
0.0001146396584
0.0001143624907
0.0001140806723
0.0001137970566
0.0001135177678
0.0001132332155
0.0001129470724
0.000112658772
0.0001123768532
0.0001120975733
0.0001118176491
0.0001115449778
0.0001112693698
0.0001110009002
0.0001107401214
0.000110482003
0.0001102267507
0.0001099731753
0.0001097241068
0.0001094827064
0.0001092487646
0.0001090171062
0.0001190505439
0.0001190390224
0.0001190123899
0.0001189730395
0.000118921827
0.0001188595498
0.0001187868884
0.0001187045318
0.0001186131713
0.0001185065554
0.0001183899964
0.0001182587418
0.0001181170358
0.0001179682712
0.0001178112605
0.0001176386989
0.0001174605794
0.0001172675274
0.0001170675977
0.0001168559342
0.0001166357251
0.0001164061882
0.0001161753151
0.0001159275906
0.0001156763566
0.000115421615
0.0001151573353
0.0001148905916
0.0001146160703
0.0001143401504
0.0001140585693
0.0001137763171
0.0001134983826
0.0001132143618
0.000112928844
0.0001126419868
0.0001123614997
0.0001120830036
0.0001118044805
0.0001115331681
0.0001112584561
0.0001109913085
0.0001107318073
0.0001104746427
0.0001102206293
0.0001099680629
0.0001097201961
0.0001094799578
0.0001092471417
0.0001090165539
0.0001190310868
0.0001190186642
0.0001189920364
0.0001189526938
0.0001189015154
0.0001188392553
0.0001187666391
0.000118684337
0.0001185928423
0.0001184847924
0.0001183683294
0.0001182355161
0.0001180939545
0.0001179453791
0.0001177869263
0.0001176146088
0.0001174367712
0.0001172424824
0.0001170429473
0.0001168301973
0.0001166105424
0.0001163801306
0.0001161485429
0.0001159030033
0.0001156512709
0.0001153974563
0.0001151329409
0.0001148672846
0.0001145927865
0.0001143180916
0.0001140367626
0.0001137558467
0.0001134792494
0.0001131957521
0.0001129108488
0.0001126254128
0.0001123463354
0.0001120686094
0.0001117914666
0.0001115211049
0.0001112476637
0.0001109818209
0.0001107235816
0.0001104673594
0.000110214571
0.0001099630028
0.000109716325
0.0001094772371
0.0001092455352
0.0001090160072
0.0001190107382
0.000118998318
0.0001189716957
0.0001189323622
0.0001188812197
0.0001188189789
0.0001187464105
0.0001186641661
0.0001185710503
0.0001184630755
0.0001183460846
0.0001182123515
0.0001180709501
0.0001179225513
0.0001177626702
0.000117590608
0.0001174122048
0.0001172175585
0.0001170184322
0.0001168046431
0.0001165855335
0.000116354522
0.0001161219944
0.0001158786386
0.000115626429
0.0001153735472
0.0001151088119
0.0001148442422
0.0001145697759
0.0001142962978
0.0001140152305
0.0001137356278
0.0001134603513
0.0001131773693
0.0001128930703
0.0001126090473
0.0001123313468
0.0001120543779
0.0001117785961
0.0001115090935
0.000111236984
0.0001109724301
0.0001107154382
0.0001104601477
0.0001102085715
0.0001099579913
0.000109712491
0.0001094745423
0.0001092439439
0.0001090154657
0.0001189904018
0.0001189779845
0.0001189513686
0.000118912064
0.0001188609407
0.0001187987413
0.0001187262037
0.0001186440201
0.0001185492894
0.0001184414046
0.0001183228473
0.0001181892472
0.0001180480035
0.0001178997898
0.0001177384953
0.0001175666994
0.000117387033
0.0001171927578
0.0001169940538
0.0001167792483
0.0001165606973
0.0001163303298
0.0001160956665
0.0001158536954
0.0001156018233
0.0001153496864
0.0001150849373
0.0001148214522
0.0001145470247
0.0001142747549
0.0001139939495
0.0001137156459
0.0001134408621
0.0001131591988
0.0001128754945
0.0001125928685
0.0001123165223
0.0001120402986
0.0001117658598
0.0001114972041
0.0001112264101
0.0001109631303
0.0001107073722
0.0001104530035
0.0001102026274
0.0001099530257
0.0001097086918
0.000109471872
0.0001092423672
0.0001090149291
0.0001189700782
0.0001189576641
0.0001189310556
0.0001188917852
0.0001188406792
0.0001187785251
0.00011870602
0.0001186239003
0.000118527561
0.0001184197711
0.000118299656
0.0001181661956
0.0001180251174
0.0001178770973
0.0001177144045
0.0001175429061
0.0001173619745
0.0001171680828
0.0001169687359
0.0001167540128
0.000116536033
0.000116306321
0.0001160695551
0.0001158284344
0.0001155774475
0.0001153250187
0.0001150613071
0.0001147982068
0.0001145245205
0.0001142534502
0.0001139729062
0.000113695888
0.0001134215524
0.0001131412286
0.0001128581096
0.0001125768622
0.0001123018527
0.0001120263628
0.0001117532501
0.0001114854301
0.0001112159365
0.0001109539169
0.0001106993796
0.0001104459234
0.0001101967361
0.0001099481038
0.0001097049259
0.000109469225
0.0001092408041
0.0001090143972
0.0001189497681
0.0001189373578
0.0001189107776
0.0001188715229
0.0001188204362
0.0001187583298
0.000118685882
0.000118603808
0.0001185058667
0.0001183981766
0.0001182765128
0.0001181431991
0.0001180022942
0.0001178544763
0.0001176904113
0.0001175192132
0.0001173370313
0.0001171435354
0.000116943133
0.0001167289372
0.0001165109062
0.0001162824932
0.000116043656
0.0001158033926
0.0001155532954
0.000115300588
0.000115037913
0.0001147747745
0.000114502253
0.0001142316794
0.0001139520889
0.0001136763426
0.0001134024494
0.0001131234489
0.0001128409061
0.0001125610198
0.00011228733
0.0001120125634
0.0001117407722
0.0001114737662
0.0001112055587
0.000110944786
0.0001106914576
0.0001104389048
0.0001101908954
0.0001099432239
0.000109701192
0.0001094666003
0.0001092392543
0.0001090138697
0.0001189294721
0.000118917079
0.0001188905175
0.0001188512777
0.0001188002307
0.0001187381565
0.0001186657692
0.0001185827995
0.0001184842078
0.0001183766228
0.0001182534199
0.0001181202599
0.0001179795362
0.0001178314366
0.0001176665208
0.0001174956194
0.0001173122056
0.0001171191314
0.0001169176789
0.0001167040218
0.0001164851575
0.0001162588438
0.0001160187213
0.0001157785654
0.0001155293612
0.0001152763874
0.0001150147472
0.0001147515772
0.0001144802131
0.0001142098265
0.0001139314877
0.0001136570002
0.0001133835437
0.0001131058507
0.0001128238868
0.0001125453339
0.0001122729479
0.0001119988948
0.0001117284108
0.000111462208
0.0001111952731
0.0001109357348
0.0001106836035
0.0001104319457
0.0001101851038
0.0001099383847
0.0001096974891
0.0001094639975
0.0001092377173
0.0001090133467
0.0001189092127
0.0001188968249
0.0001188702738
0.0001188310506
0.0001187800484
0.0001187180061
0.0001186456825
0.0001185611064
0.0001184625987
0.0001183551113
0.0001182303791
0.0001180973801
0.000117956857
0.0001178073673
0.0001176427208
0.0001174721266
0.0001172874988
0.000117094868
0.000116892374
0.000116679266
0.0001164595876
0.0001162353708
0.0001159946193
0.0001157539485
0.0001155056586
0.0001152524106
0.0001149918034
0.0001147286067
0.0001144583926
0.0001141881933
0.0001139110944
0.0001136378712
0.0001133648273
0.0001130884269
0.0001128070391
0.0001125297986
0.0001122587011
0.0001119853522
0.000111716161
0.000111450752
0.0001111850768
0.000110926761
0.0001106758156
0.0001104250446
0.0001101793599
0.0001099335852
0.0001096938164
0.0001094614158
0.0001092361928
0.0001090128279
0.0001188889693
0.0001188765867
0.0001188500473
0.0001188108494
0.0001187598872
0.0001186978887
0.000118625623
0.0001185394469
0.0001184410379
0.0001183320292
0.00011820741
0.0001180745845
0.0001179342594
0.0001177833813
0.0001176190136
0.0001174487365
0.0001172629287
0.0001170707352
0.0001168672187
0.0001166546906
0.0001164341952
0.0001162120724
0.0001159707082
0.0001157295373
0.0001154821676
0.0001152286515
0.0001149690956
0.0001147058561
0.0001144367842
0.0001141667724
0.0001138909019
0.0001136189311
0.0001133462936
0.0001130711713
0.0001127903518
0.0001125144088
0.0001122445854
0.0001119719336
0.0001117040196
0.0001114393957
0.0001111749676
0.0001109178626
0.0001106680924
0.0001104182002
0.0001101736629
0.0001099288246
0.0001096901735
0.000109458855
0.0001092346807
0.0001090123133
0.0001188687422
0.0001188563653
0.0001188298387
0.0001187906821
0.000118739748
0.0001186778091
0.0001186055919
0.0001185178224
0.0001184195171
0.0001183089698
0.0001181845014
0.0001180518527
0.0001179117329
0.0001177594804
0.0001175954008
0.0001174254142
0.0001172384878
0.0001170467337
0.0001168422131
0.0001166302761
0.0001164089798
0.0001161871202
0.0001159469842
0.0001157053276
0.0001154588792
0.0001152051047
0.0001149465965
0.000114683319
0.000114415401
0.000114145557
0.0001138709037
0.0001136001729
0.0001133279367
0.0001130540787
0.00011277382
0.0001124991603
0.0001122305971
0.0001119586456
0.000111691984
0.0001114281366
0.0001111649437
0.0001109090384
0.0001106604328
0.0001104114116
0.0001101680121
0.0001099241024
0.0001096865598
0.0001094563148
0.0001092331806
0.0001090118028
0.000118848532
0.0001188361615
0.0001188096571
0.0001187705352
0.0001187196317
0.0001186577554
0.0001185847982
0.0001184962341
0.0001183980374
0.0001182859607
0.0001181616499
0.0001180291856
0.0001178892789
0.0001177356664
0.0001175718845
0.0001174006936
0.0001172141689
0.000117022864
0.0001168173716
0.0001166060198
0.0001163839401
0.0001161614467
0.0001159234446
0.0001156813301
0.0001154357889
0.0001151817651
0.0001149243007
0.0001146609896
0.000114394219
0.0001141245416
0.000113851096
0.0001135815916
0.0001133097521
0.000113036621
0.0001127574395
0.0001124840494
0.0001122167332
0.000111945474
0.0001116800523
0.0001114169733
0.0001111550039
0.0001109002872
0.0001106528359
0.0001104046783
0.0001101624069
0.0001099194182
0.0001096829751
0.0001094537949
0.0001092316926
0.0001090112964
0.0001188283395
0.0001188159776
0.0001187895079
0.0001187504097
0.0001186995466
0.0001186377286
0.0001185631727
0.0001184746832
0.0001183766003
0.0001182630037
0.0001181388572
0.0001180065848
0.0001178668992
0.0001177119409
0.0001175484807
0.0001173760865
0.0001171899728
0.0001169991262
0.0001167926896
0.0001165819209
0.0001163590741
0.0001161359619
0.0001159000871
0.0001156575348
0.0001154128929
0.0001151586418
0.0001149022035
0.000114638863
0.0001143732318
0.0001141037208
0.0001138314891
0.0001135631828
0.0001132917354
0.0001130191127
0.0001127412068
0.0001124690732
0.0001122029913
0.0001119324167
0.0001116682226
0.0001114059042
0.000111145147
0.0001108916083
0.0001106453013
0.0001103979997
0.0001101568471
0.0001099147717
0.0001096794193
0.0001094512953
0.0001092302166
0.0001090107941
0.0001188081754
0.0001187958323
0.0001187693791
0.0001187303065
0.0001186795009
0.0001186177296
0.0001185415813
0.0001184531933
0.0001183552069
0.0001182401001
0.0001181161248
0.0001179840516
0.000117844595
0.0001176883184
0.0001175251839
0.000117351594
0.0001171659006
0.0001169747987
0.0001167681561
0.0001165579776
0.0001163357693
0.0001161106642
0.0001158769095
0.0001156339306
0.0001153901875
0.000115135725
0.0001148803006
0.0001146169412
0.0001143524348
0.0001140830902
0.0001138120618
0.0001135449425
0.0001132738828
0.0001130017626
0.0001127251194
0.0001124542296
0.0001121891104
0.0001119194718
0.0001116564936
0.0001113949283
0.0001111353723
0.0001108830011
0.0001106378284
0.0001103913755
0.0001101513323
0.0001099101628
0.0001096758921
0.0001094488158
0.0001092287524
0.0001090102959
0.0001169498629
0.0001167437705
0.0001165341892
0.0001163126502
0.0001160855515
0.0001158530811
0.0001156105142
0.0001153676694
0.0001151130028
0.0001148585879
0.0001145952277
0.0001143318241
0.0001140626458
0.0001137928103
0.0001135268672
0.0001132561912
0.0001129845678
0.0001127091749
0.0001124395167
0.0001121750434
0.0001119066379
0.0001116448642
0.0001113840447
0.000111125679
0.0001108744651
0.000110630417
0.0001103848055
0.0001101458625
0.0001099055914
0.0001096723936
0.0001094463564
0.0001092273001
0.0001090098017
)
;

boundaryField
{
    front_top
    {
        type            wedge;
    }
    front_middle
    {
        type            wedge;
    }
    front_bottom
    {
        type            wedge;
    }
    back_top
    {
        type            wedge;
    }
    back_middle
    {
        type            wedge;
    }
    back_bottom
    {
        type            wedge;
    }
    axis_top
    {
        type            symmetryPlane;
    }
    axis_middle
    {
        type            symmetryPlane;
    }
    axis_bottom
    {
        type            symmetryPlane;
    }
    wall_top
    {
        type            calculated;
        value           nonuniform 0();
    }
    wall_middle
    {
        type            calculated;
        value           nonuniform 0();
    }
    wall_bottom
    {
        type            calculated;
        value           uniform 0.0001089022317;
    }
    inlet
    {
        type            calculated;
        value           nonuniform 0();
    }
    outlet
    {
        type            calculated;
        value           nonuniform 0();
    }
    procBoundary1to0
    {
        type            processor;
        value           nonuniform List<scalar> 
51
(
0.0001187880419
0.0001187757069
0.0001187492715
0.0001187102264
0.0001186594809
0.0001185977595
0.0001185200251
0.0001184317433
0.0001183322606
0.0001182172594
0.0001180934573
0.000117961594
0.0001178211953
0.0001176647979
0.0001175019865
0.000117327217
0.0001171419527
0.0001171419527
0.0001169250674
0.0001167195328
0.0001165098634
0.0001162896901
0.0001160606214
0.0001158289911
0.0001155872829
0.0001153449045
0.0001150904714
0.0001148370619
0.0001145737041
0.0001143113958
0.0001140423908
0.0001137737313
0.0001135089538
0.0001132386727
0.000112967526
0.0001126933711
0.0001124249326
0.0001121610983
0.0001118939142
0.0001116333337
0.0001113732529
0.0001111160669
0.000110866
0.0001106230668
0.0001103782895
0.0001101404376
0.0001099010574
0.0001096689237
0.0001094439172
0.0001092258598
0.0001090093115
)
;
    }
    procBoundary1to2
    {
        type            processor;
        value           nonuniform List<scalar> 
51
(
0.0001192566353
0.0001192452148
0.0001192207565
0.0001191846078
0.0001191375422
0.0001190802821
0.0001190109612
0.0001189282219
0.0001188363706
0.0001187360038
0.0001186277319
0.0001185051678
0.0001183725399
0.0001182237426
0.000118066937
0.0001179040875
0.000117728327
0.0001175426121
0.0001173472596
0.000117139634
0.0001169245364
0.0001166963485
0.0001164619839
0.0001162230126
0.0001159661885
0.0001157077936
0.0001154435225
0.0001151701574
0.0001148929845
0.0001146074827
0.0001143203866
0.0001140261608
0.0001137323398
0.0001134423127
0.0001131233422
0.0001131233422
0.0001128239904
0.000112527962
0.0001122388519
0.0001119467592
0.0001116605565
0.0001113760589
0.0001110944589
0.0001108210721
0.0001105535714
0.000110286211
0.0001100227961
0.0001097620459
0.0001095093629
0.0001092645025
0.000109022462
)
;
    }
}


// ************************************************************************* //
