/*--------------------------------*- C++ -*----------------------------------*\
  =========                 |
  \\      /  F ield         | OpenFOAM: The Open Source CFD Toolbox
   \\    /   O peration     | Website:  https://openfoam.org
    \\  /    A nd           | Version:  7
     \\/     M anipulation  |
\*---------------------------------------------------------------------------*/
FoamFile
{
    version     2.0;
    format      ascii;
    class       volScalarField;
    location    "0.0012";
    object      thermo:mu;
}
// * * * * * * * * * * * * * * * * * * * * * * * * * * * * * * * * * * * * * //

dimensions      [1 -1 -1 0 0 0 0];

internalField   nonuniform List<scalar> 
1167
(
62962.7096
62423.9352
61286.75786
59649.71954
57594.57976
55203.046
52556.42281
49731.12175
46798.26829
43821.1404
40853.4494
37939.91036
35116.14065
32409.54673
29839.20563
27418.15869
25153.63168
23048.70646
21101.73822
19309.02925
17664.91004
16161.66438
14791.36925
13544.97871
12413.83939
11388.72463
10461.21785
9622.840982
8865.766425
8182.500115
7566.159423
7010.283464
6508.953682
6056.752555
62079.34325
61549.24207
60430.35959
58819.62647
56798.32065
54445.00974
51841.34071
49061.4969
46175.43379
43245.1422
40323.92847
37455.73048
34675.46238
32009.84085
29477.94849
27092.6594
24861.40743
22786.74775
20867.39368
19100.02594
17478.67711
15996.20533
14644.53753
13415.08289
12299.08319
11287.7218
10372.48521
9545.201321
8797.994064
8123.602688
7515.113505
6966.249372
6471.076866
6024.331224
5621.03301
5256.723324
4927.379378
4629.311442
4359.257012
4114.250554
3891.622198
3689.010879
3504.322157
3335.666329
3181.362402
3039.917645
2910.009586
2790.462199
2680.232905
2578.391427
61210.47315
60688.89785
59587.99856
58003.81507
56015.05741
53700.0506
51137.82886
48402.65048
45562.56776
42678.59981
39803.12903
36979.35629
34241.69102
31616.39679
29122.37431
26772.38826
24573.9227
22529.11112
20637.12892
18894.72677
17295.90801
15833.99573
14500.76706
13288.06683
12187.03692
11189.25819
10286.12227
9469.75401
8732.234588
8066.532827
7465.713524
6923.674845
6434.483125
5993.023531
5594.320278
5234.038935
4908.172842
4613.119842
4345.683872
4102.923846
3882.233455
3681.293809
3498.054935
3330.647042
3177.425804
3036.922988
2907.837959
2789.011866
2679.417323
2578.135955
60355.86319
59842.66969
58759.4488
57201.5464
55244.5842
52967.30763
50445.71507
47754.42512
44959.52813
42121.08949
39290.58398
36510.49572
33814.74303
31229.14521
28772.42501
26457.49332
24291.09023
22275.74416
20410.93627
18693.07141
17116.63131
15674.95143
14359.9947
13163.821
12077.61364
11093.19561
10202.02901
9396.341003
8668.380313
8011.127519
7417.839244
6882.406901
6399.054969
5962.699513
5568.447571
5212.063642
4889.559648
4597.424806
4332.513812
4091.925373
3873.109693
3673.795676
3491.955364
3325.758724
3173.589643
3034.003253
2905.719768
2787.596728
2678.621301
2577.886545
59515.27962
59010.32683
57945.24324
56412.40517
54486.69658
52246.48954
49765.55983
47116.66566
44366.17522
41572.48654
38786.18585
36049.05776
33394.54083
30848.01964
28428.29945
26147.64929
24012.8662
22026.65347
20188.6219
18495.00061
16940.75124
15518.99064
14222.18785
13042.24336
11970.73134
10999.40498
10120.04704
9324.819037
8606.234149
7957.244413
7371.309991
6842.31671
6364.657637
5933.250419
5543.325581
5190.711949
4871.466023
4582.167281
4319.693765
4081.211078
3864.214758
3666.480268
3485.999964
3320.982845
3169.839579
3031.14766
2903.647268
2786.211649
2677.841967
2577.642304
58688.49142
58192.12998
57144.50841
55636.18247
53741.89196
51537.40652
49096.44759
46489.59131
43782.37166
41032.67039
38289.83116
35594.95481
32981.0103
30473.17038
28089.77159
25842.81003
23739.21035
21781.9264
19970.13277
18300.45695
16768.12314
15366.03785
14087.15926
12923.23081
11866.20386
10907.76814
10040.02014
9255.061271
8545.664823
7904.759744
7326.007752
6803.293987
6331.178738
5904.58494
5518.880621
5169.912596
4853.830592
4567.286089
4307.180645
4070.745207
3855.519343
3659.323605
3480.169757
3316.30444
3166.164046
3028.347514
2901.614218
2784.852493
2677.077009
2577.402509
57876.10272
57387.74712
56356.8915
54872.66649
53009.39494
50839.87444
48438.1988
45872.94048
43208.35966
40501.55656
37801.41955
35148.15734
32574.35002
30104.48877
27756.69034
25542.92884
23470.1496
21541.32506
19755.42624
18109.57104
16598.67964
15216.07314
13954.82097
12806.70087
11763.92798
10818.19042
9961.836122
9186.970624
8486.560602
7853.573784
7281.830514
6765.244024
6298.531941
5876.625447
5495.028304
5149.606917
4836.602988
4552.738765
4294.939079
4060.498582
3846.999623
3652.306459
3474.449388
3311.711424
3162.553707
3025.595808
2899.615586
2783.515927
2676.324563
2577.166581
57077.08254
56596.54508
55582.17657
54121.91429
52288.85648
50154.02047
47790.64728
45266.28011
42643.86732
39979.53338
37321.30301
34708.94443
32174.33518
29741.73542
27429.00301
25247.95796
23205.75202
21304.80315
19544.45073
17922.0942
16432.35932
15069.0597
13825.08664
12692.63503
11663.80935
10730.63002
9885.393788
9120.478479
8428.822937
7803.624423
7238.690009
6728.106602
6266.643837
5849.306651
5471.711692
5129.745936
4819.741927
4538.490355
4282.94004
4050.447349
3838.643366
3645.413226
3468.826429
3307.19403
3159.001035
3022.886892
2897.647322
2782.199267
2675.583129
2576.934052
56291.1537
55818.30529
54820.15136
53384.02088
51580.08054
49479.77588
47153.62812
44669.46153
42088.50861
39465.93264
36848.96543
34276.79686
31780.76289
29384.84976
27106.65616
24958.01981
22945.77471
21072.31176
19337.28877
17737.9687
16269.09698
14924.82767
13697.88093
12580.85884
11565.75756
10644.92119
9810.601353
9055.443944
8372.364759
7754.787451
7196.509765
6691.803403
6235.451954
5822.575964
5448.882998
5110.288741
4803.228786
4524.512027
4271.159698
4040.572014
3830.428677
3638.631233
3463.290817
3302.744373
3155.499957
3020.216221
2895.706169
2780.900357
2674.851504
2576.704547
55518.09806
55052.81229
54070.92815
52658.18567
50882.87639
48816.51742
46527.31138
44082.33606
41542.14987
38960.63869
36384.25819
33851.63118
31393.56354
29033.7714
26789.6378
24673.01251
22690.16784
20843.79984
19133.82293
17557.13584
16108.92267
14783.30875
13573.14004
12471.29279
11469.68942
10560.97989
9737.375582
8991.786216
8317.108968
7706.990744
7155.223422
6656.261018
6204.902977
5796.407062
5426.502041
5091.201142
4787.018149
4510.779927
4259.578444
4030.856609
3822.341448
3631.950184
3457.834401
3298.356082
3152.045583
3017.580135
2893.789508
2779.617466
2674.128721
2576.477765
54757.70119
54299.91721
53334.48012
51944.20748
50197.31688
48164.06902
45911.504
43504.80992
41004.65935
38463.53654
35927.08264
33433.36397
31012.66722
28688.4422
26478.12801
24392.74885
22438.87806
20619.31951
18933.91923
17379.5376
15951.7341
14644.44135
13450.89873
12363.85751
11375.59746
10478.72859
9665.683418
8929.432822
8263.004799
7660.171009
7114.773288
6621.427794
6174.951345
5770.736894
5404.534926
5072.454486
4771.08611
4497.274305
4248.180127
4021.288045
3814.371169
3625.361708
3452.450577
3294.024009
3148.633967
3014.975692
2891.895236
2778.349206
2673.414005
2576.253465
54010.14684
53560.12262
52610.0647
51241.88994
49523.42268
47522.25688
45305.72169
42937.24724
40475.96805
37974.51145
35477.33972
33021.90996
30638.04151
28349.13448
26171.77785
24117.17564
22191.8513
20398.82152
18737.52117
17205.12647
15797.41097
14508.15561
13330.96849
12258.48539
11283.35414
10398.09675
9595.436377
8868.318746
8210.007834
7614.272587
7075.131922
6587.259129
6145.558026
5745.531827
5382.953044
5054.024763
4755.4128
4483.97891
4236.951649
4011.863469
3806.509069
3618.858896
3447.133943
3289.74397
3145.261921
3012.400519
2890.021664
2777.094461
2672.706735
2576.031453
53275.26441
52832.41415
51897.4803
50551.03985
48860.51829
46890.91039
44709.80873
42378.92737
39956.39097
37493.71958
35035.10757
32617.40798
30269.90601
28015.43826
25870.52666
23846.23905
21949.1625
20182.12939
18544.56961
17033.98585
15645.88893
14374.40608
13213.28381
12155.11148
11192.87718
10319.02006
9526.548168
8808.385675
8158.028803
7569.246411
7036.247429
6553.716374
6116.689462
5720.763158
5361.732142
5035.905397
4739.981562
4470.880114
4225.881898
4002.567627
3798.748259
3612.436263
3441.880189
3285.512627
3141.9269
3009.852729
2888.167447
2775.852346
2672.006419
2575.811578
52552.38215
52116.58714
51196.52879
49872.08276
48208.42394
46270.46235
44123.60986
41829.70634
39445.28006
37020.99665
34600.39726
32219.70194
29907.82989
27687.27185
25574.31087
23579.87962
21710.72523
19969.18372
18355.00386
16865.89154
15497.10284
14243.21028
13097.7852
12053.73618
11104.10493
10241.45077
9458.962273
8749.581076
8107.019706
7525.049332
6998.065974
6520.766707
6088.341749
5696.405636
5340.851286
5018.069023
4724.778312
4457.966493
4214.961679
3993.391687
3791.083103
3606.089386
3436.685867
3281.327321
3138.626888
3007.330827
2886.331525
2774.622167
2671.31267
2575.593718
51841.29616
51412.44095
50507.01536
49204.31834
47566.96264
45660.17197
43546.9784
41289.44218
38942.50833
36555.99653
34172.80296
31828.52872
29551.73306
27364.56245
25283.06306
23318.25565
21476.36939
19759.92896
18168.89463
16700.78047
15350.99249
14114.40197
12984.41104
11954.27871
11016.98204
10165.38558
9392.627183
8691.890272
8056.936545
7481.642491
6960.553449
6488.38021
6060.465294
5672.438512
5320.29294
5000.497268
4709.79123
4445.22853
4204.183416
3984.329689
3783.508952
3599.814654
3431.548194
3277.185925
3135.360282
3004.833633
2884.513066
2773.403375
2670.625185
2575.37778
51141.80691
50719.77879
49829.41056
48547.437
46935.96003
45059.82861
42980.36343
40757.99531
38447.94925
36098.60505
33752.22367
31443.79886
29201.53409
27047.23523
24996.84474
23061.10619
21246.03257
19554.30413
17986.09899
16538.59472
15207.56338
13987.91991
12873.10079
11856.63967
10931.45462
10090.7099
9327.49728
8635.257074
8007.741575
7439.018746
6923.678963
6456.530524
6033.036924
5648.843638
5300.042097
4983.177856
4695.010386
4432.658279
4193.550345
3975.376731
3776.021995
3593.609132
3426.464926
3273.086737
3132.125809
3002.360219
2882.711414
2772.195546
2669.94373
2575.163692
50453.71889
50038.84215
49162.91861
47901.25852
46315.79902
44469.27251
42422.98993
40235.55121
37961.47472
35648.70818
33338.55792
31065.42179
28857.15168
26735.31296
24715.60969
22808.32714
21019.6497
19352.36564
17806.50349
16379.27638
15066.76985
13863.70343
12763.84983
11760.76616
10847.47239
10017.3771
9263.529594
8579.622294
7959.400502
7397.131681
6887.416113
6425.194869
6006.03749
5625.605157
5280.098787
4966.100308
4680.427382
4420.249091
4183.048308
3966.528759
3768.619114
3587.470436
3421.434255
3269.028401
3128.922464
2999.909853
2880.926061
2770.998348
2669.268123
2574.951398
49777.55851
49369.29561
48507.27785
47265.60605
45705.83136
43888.34627
41874.71153
39721.88158
37483.24264
35206.19312
32931.70426
30693.30644
28518.6699
26428.83529
24439.11549
22559.84824
20797.15396
19154.01199
17630.04604
16222.7641
14928.47016
13741.69706
12656.59391
11666.6074
10765.05411
9945.343683
9200.687211
8524.950427
7911.881735
7355.94176
6851.741773
6394.383001
5979.450363
5602.709319
5260.444769
4949.255631
4666.035084
4407.995363
4172.672225
3957.782425
3761.297753
3581.396635
3416.454732
3265.009838
3125.749456
2997.481967
2879.156613
2769.81153
2668.598225
2574.740856
49112.41541
48710.64177
47862.30784
46640.5215
45105.7975
43317.15255
41335.38158
39216.60537
37013.05714
34771.41281
32531.86905
30327.7216
28186.01117
26127.49556
24167.28963
22315.59906
20578.62331
18959.08924
17456.66416
16069.12911
14792.6078
13621.84824
12551.23681
11574.11419
10684.10131
9874.568836
9138.988161
8471.208924
7865.156718
7315.424455
6816.635126
6364.048833
5953.260936
5580.144137
5241.064032
4932.636085
4651.827392
4395.894062
4162.418448
3949.134951
3754.055816
3575.386161
3411.525194
3261.030196
3122.606165
2995.076121
2877.402769
2768.634898
2667.933932
2574.532033
48458.08659
48062.69899
47227.83138
46026.0406
44515.5349
42755.62715
40804.85628
38719.59031
36550.57688
34343.78387
32138.71165
29968.21241
27858.89942
25831.21299
23900.05779
22075.51436
20363.90911
18767.53292
17286.29678
15918.19203
14659.13151
13504.18559
12447.72606
11483.23902
10604.55652
9805.014163
9078.339303
8418.367753
7819.241049
7275.557536
6782.077382
6334.174988
5927.456274
5557.899079
5221.94812
4916.234965
4637.799062
4383.949758
4152.283909
3940.584024
3746.891581
3569.437742
3406.644713
3257.088802
3119.492112
2992.69198
2875.664303
2767.46831
2667.275169
2574.324908
47814.39179
47425.28906
46603.92857
45421.55322
43934.88453
42203.25359
40283.26536
38230.70282
36095.67881
33923.18728
31752.04586
29614.66898
27537.24738
25539.90804
23637.34873
21839.74458
20152.86881
18579.2775
17118.97966
15769.88254
14527.98653
13388.6148
12346.01439
11393.99153
10526.37949
9736.643655
9018.708873
8366.399206
7774.0713
7236.320766
6748.054153
6304.747601
5902.025275
5535.979912
5203.089228
4900.046251
4623.945482
4372.148437
4142.265971
3932.12769
3739.803613
3563.550338
3401.812542
3253.185127
3116.406927
2990.329291
2873.941046
2766.311664
2666.621882
2574.119464
47181.15419
46798.28742
45990.55715
44826.89546
43363.89786
41659.88474
39770.48053
37749.8158
35648.24149
33509.512
31371.76983
29266.99693
27220.96733
25253.49854
23379.24616
21607.98295
19945.43643
18394.25879
16954.6188
15624.14266
14399.11702
13275.04553
12246.05793
11306.30408
10449.53259
9669.462712
8960.067315
8315.277626
7729.62243
7197.695594
6714.57596
6275.753953
5876.957457
5514.36897
5184.480886
4884.064802
4610.262675
4360.48708
4132.36238
3923.764291
3732.790712
3557.723093
3397.028078
3249.318753
3113.350324
2987.987862
2872.232877
2765.164885
2665.974031
2573.915691
46558.50173
46182.06436
45387.14714
44241.9059
42802.61204
41125.37218
39266.0632
37277.28485
35208.14589
33102.64765
30997.78149
28925.10156
26909.97095
24972.05836
23125.59445
21380.15786
19741.54681
18212.50047
16793.08213
15480.91152
14272.5859
13163.43216
12147.81443
11220.10802
10373.98052
9603.423006
8902.387049
8264.994843
7685.874156
7159.664945
6681.599427
6247.182327
5852.243235
5493.0527
5166.117525
4868.286345
4596.752878
4348.962949
4122.571136
3915.492384
3725.851852
3551.955288
3392.290828
3245.489346
3110.322084
2985.667553
2870.539707
2764.027923
2665.331594
2573.713581
18033.9379
16634.30951
15340.135
14148.22478
13053.72826
12051.30602
11135.36449
10299.68924
9538.470973
8845.642159
8215.545361
7642.807643
7122.213027
6649.111495
6219.022049
5827.874042
5472.024414
5147.994022
4852.706973
4583.413999
4337.573715
4112.89052
3907.310732
3718.986162
3546.246323
3387.600388
3241.696642
3107.322038
2983.368258
2868.861476
2762.900745
2664.694556
2573.513132
)
;

boundaryField
{
    front_top
    {
        type            wedge;
    }
    front_middle
    {
        type            wedge;
    }
    front_bottom
    {
        type            wedge;
    }
    back_top
    {
        type            wedge;
    }
    back_middle
    {
        type            wedge;
    }
    back_bottom
    {
        type            wedge;
    }
    axis_top
    {
        type            symmetryPlane;
    }
    axis_middle
    {
        type            symmetryPlane;
    }
    axis_bottom
    {
        type            symmetryPlane;
    }
    wall_top
    {
        type            calculated;
        value           nonuniform 0();
    }
    wall_middle
    {
        type            calculated;
        value           nonuniform 0();
    }
    wall_bottom
    {
        type            calculated;
        value           uniform 2530.329233;
    }
    inlet
    {
        type            calculated;
        value           nonuniform 0();
    }
    outlet
    {
        type            calculated;
        value           nonuniform 0();
    }
    procBoundary1to0
    {
        type            processor;
        value           nonuniform List<scalar> 
51
(
45946.29562
45575.83905
44793.53445
43666.42567
42250.45554
40599.57129
38769.87956
36812.48651
34775.73448
32702.62467
30630.02955
28588.98413
26604.4046
24695.47172
22876.22182
21156.19721
19541.133
19541.133
17858.41679
16478.24606
15201.8314
14025.9809
12945.88742
11956.45985
11052.03783
10226.65264
9474.57779
8789.807986
8166.874672
7600.405217
7085.338016
6617.100076
6191.263302
5803.862679
5451.277947
5130.105546
4837.322882
4570.236526
4326.31753
4103.319145
3899.218325
3712.192931
3540.595713
3382.956437
3237.940436
3104.350058
2981.089904
2867.198143
2761.783332
2664.062907
2573.314341
)
;
    }
    procBoundary1to2
    {
        type            processor;
        value           nonuniform List<scalar> 
51
(
63861.40634
63313.21231
62157.42112
60493.61725
58404.03519
55973.6049
53283.25545
50411.68578
47431.83538
44406.7862
41391.70127
38432.13929
35564.2212
32815.59294
30206.2161
27748.88936
25450.90364
23315.04416
21340.13298
19521.85555
17854.67975
16330.57482
14941.36746
13677.97178
12531.43862
11492.45706
10552.48697
9702.850389
8935.735673
8243.411043
7619.032542
7055.954469
6548.281025
6090.442079
5648.702521
5648.702521
5280.219811
4947.268747
4646.07137
4373.298207
4125.959648
3901.320506
3696.9762
3510.786106
3340.839567
3185.417238
3043.000618
2912.244273
2791.954107
2681.071613
2578.654073
)
;
    }
}


// ************************************************************************* //
