/*--------------------------------*- C++ -*----------------------------------*\
  =========                 |
  \\      /  F ield         | OpenFOAM: The Open Source CFD Toolbox
   \\    /   O peration     | Website:  https://openfoam.org
    \\  /    A nd           | Version:  7
     \\/     M anipulation  |
\*---------------------------------------------------------------------------*/
FoamFile
{
    version     2.0;
    format      ascii;
    class       volScalarField;
    location    "0.0024";
    object      p;
}
// * * * * * * * * * * * * * * * * * * * * * * * * * * * * * * * * * * * * * //

dimensions      [1 -1 -2 0 0 0 0];

internalField   nonuniform List<scalar> 
1167
(
1469088.725
1469608.522
1469403.957
1469252.019
1469096.127
1468910.628
1468702.773
1468477.744
1468236.385
1467983.027
1467726.896
1467467.085
1467204.117
1466947.816
1466694.47
1466447.417
1466209.883
1465978.294
1465759.488
1469424.531
1470089.416
1469844.754
1469677.619
1469514.07
1469321.17
1469102.454
1468862.415
1468605.149
1468339.66
1468068.576
1467790.436
1467514.161
1467241.654
1466970.594
1466709.64
1466454.668
1466209.445
1465974.353
1465748.629
1465535.07
1465330.425
1465138.578
1464955.104
1464783.858
1464620.09
1464467.437
1464321.648
1464185.589
1464055.497
1463933.745
1463817.164
1463707.372
1463602.123
1463502.49
1463406.782
1463315.54
1463227.706
1463143.556
1463062.45
1462984.456
1462909.164
1462836.707
1462766.826
1462699.676
1462635.031
1462573.432
1462513.953
1462454.669
1462395.812
1469684.397
1470509.459
1470223.566
1470044.454
1469877.118
1469676.105
1469445.814
1469192.924
1468926.14
1468650.082
1468364.363
1468074.647
1467787.686
1467500.804
1467219.519
1466946.005
1466678.055
1466422.275
1466174.038
1465938.435
1465712.384
1465498.259
1465294.555
1465101.845
1464919.171
1464746.359
1464582.74
1464428.006
1464281.15
1464142.114
1464009.603
1463883.771
1463763.075
1463648.198
1463537.298
1463431.291
1463328.207
1463229.308
1463132.624
1463039.598
1462948.276
1462860.199
1462773.745
1462690.341
1462608.59
1462529.874
1462453.411
1462379.602
1462304.365
1462229.624
1469854.273
1470853.465
1470524.654
1470334.137
1470162.443
1469953.658
1469714.162
1469454.964
1469182.206
1468896.617
1468601.476
1468306.244
1468010.306
1467714.937
1467427.562
1467144.942
1466871.529
1466607.902
1466353.344
1466111.381
1465878.127
1465658.399
1465447.438
1465249.393
1465059.505
1464881.366
1464710.651
1464550.31
1464396.182
1464251.028
1464110.893
1463978.093
1463849.196
1463726.35
1463606.385
1463491.161
1463377.92
1463268.422
1463160.415
1463055.42
1462951.532
1462850.245
1462750.059
1462652.411
1462555.873
1462462.116
1462370.219
1462280.904
1462188.689
1462096.612
1469915.422
1471100.722
1470725.087
1470523.357
1470348.22
1470134.633
1469892.264
1469631.282
1469354.196
1469062.774
1468766.406
1468468.465
1468167.903
1467872.108
1467582.075
1467297.102
1467023.313
1466757.015
1466502.771
1466258.592
1466025.813
1465804.363
1465593.391
1465393.593
1465203.04
1465022.805
1464850.702
1464687.527
1464531.15
1464382.165
1464238.633
1464100.765
1463967.2
1463837.825
1463711.62
1463588.207
1463467.044
1463347.685
1463229.936
1463113.33
1462997.907
1462883.433
1462770.099
1462657.818
1462546.762
1462437.315
1462329.932
1462224.213
1462114.506
1462003.634
1469845.029
1471228.511
1470802.646
1470590.247
1470415.73
1470203.108
1469962.356
1469701.31
1469422.578
1469133.703
1468840.923
1468544.127
1468247.492
1467956.627
1467669.48
1467391.002
1467121.777
1466861.153
1466612.977
1466373.342
1466147.106
1465930.012
1465725.192
1465529.168
1465343.898
1465166.636
1464998.612
1464837.17
1464683.416
1464534.677
1464391.927
1464252.567
1464117.792
1463984.926
1463855.231
1463726.126
1463599.126
1463471.847
1463345.833
1463219.021
1463093.014
1462966.227
1462840.226
1462713.675
1462588.165
1462462.87
1462339.7
1462216.944
1462089.056
1461957.981
1469621.252
1471214.425
1470736.895
1470517.691
1470348.785
1470140.855
1469903.669
1469645.51
1469372.713
1469093.215
1468808.172
1468519.212
1468234.423
1467953.758
1467678.048
1467412.689
1467154.827
1466908.422
1466672.351
1466446.916
1466233.161
1466028.935
1465836.217
1465651.561
1465477.388
1465309.885
1465151.295
1464997.756
1464851.365
1464708.382
1464570.523
1464434.548
1464301.934
1464169.83
1464039.362
1463908.226
1463777.454
1463645.214
1463512.51
1463377.86
1463242.408
1463105.069
1462967.087
1462827.483
1462687.712
1462547.102
1462407.858
1462267.989
1462121.215
1461969.163
1469227.839
1471042.267
1470512.112
1470289.584
1470128.861
1469927.764
1469697.24
1469448.63
1469189.724
1468923.487
1468651.459
1468380.017
1468113.003
1467849.427
1467594.594
1467348.895
1467111.742
1466886.899
1466670.915
1466467.641
1466273.797
1466090.928
1465917.088
1465752.307
1465595.446
1465445.772
1465302.319
1465164.094
1465030.223
1464899.595
1464771.302
1464644.519
1464518.254
1464391.85
1464264.29
1464135.275
1464003.9
1463870.175
1463733.342
1463593.666
1463450.756
1463305.052
1463156.441
1463005.39
1462852.145
1462697.372
1462542.353
1462385.893
1462219.931
1462046.812
1468650.78
1470696.715
1470111.687
1469887.311
1469737.435
1469546.17
1469328.133
1469096.678
1468856.059
1468608.31
1468357.814
1468111.231
1467868.428
1467631.575
1467405.11
1467186.874
1466980.196
1466784.463
1466599.049
1466425.629
1466260.883
1466107.351
1465961.012
1465824.056
1465692.628
1465568.443
1465447.727
1465331.994
1465217.672
1465105.981
1464993.68
1464881.97
1464767.816
1464652.28
1464532.721
1464410.272
1464282.692
1464151.217
1464013.962
1463872.328
1463724.944
1463573.289
1463416.318
1463255.606
1463090.412
1462922.621
1462752.581
1462580.095
1462394.882
1462200.708
1467873.653
1470160.361
1469518.772
1469295.12
1469158.899
1468982.741
1468784.139
1468574.779
1468357.544
1468135.288
1467915.247
1467699.765
1467488.861
1467288.066
1467097.414
1466916.445
1466748.54
1466590.634
1466445.194
1466309.932
1466184.772
1466068.819
1465960.323
1465859.258
1465763.087
1465672.079
1465583.328
1465497.339
1465411.121
1465325.112
1465236.639
1465146.11
1465051.108
1464951.957
1464846.673
1464735.673
1464617.396
1464492.405
1464359.491
1464219.51
1464071.642
1463916.981
1463754.892
1463586.776
1463412.039
1463232.652
1463049.092
1462861.391
1462657.565
1462442.428
1466884.678
1469420.457
1468720.297
1468499.781
1468382.474
1468227.47
1468053.113
1467870.542
1467682.367
1467494.508
1467311.437
1467133.851
1466964.864
1466807.848
1466661.205
1466527.687
1466406.856
1466297.273
1466200.595
1466113.168
1466036.908
1465967.898
1465906.878
1465850.824
1465799.543
1465750.523
1465703.171
1465655.334
1465606.172
1465553.798
1465497.506
1465435.561
1465367.359
1465291.355
1465207.246
1465113.766
1465010.918
1464897.736
1464774.509
1464640.748
1464496.96
1464343.041
1464179.617
1464007.013
1463825.833
1463637.08
1463442.237
1463240.775
1463019.72
1462784.09
1465673.115
1468465.886
1467706.831
1467493.984
1467400.68
1467270.935
1467125.128
1466974.494
1466823.422
1466677.333
1466537.928
1466406.423
1466288.115
1466182.649
1466089.802
1466012.349
1465947.484
1465896.436
1465857.46
1465829.034
1465810.785
1465799.399
1465795.298
1465794.555
1465797.669
1465800.7
1465804.111
1465804.133
1465801.092
1465791.607
1465776.068
1465751.389
1465717.966
1465673.141
1465617.501
1465548.839
1465467.971
1465373.111
1465265.358
1465143.479
1465008.764
1464860.368
1464699.803
1464526.568
1464342.281
1464147.013
1463943.371
1463729.993
1463493.426
1463238.3
1464234.754
1467292.123
1466473.914
1466272.887
1466206.792
1466106.243
1465993.848
1465882.127
1465775.978
1465677.715
1465588.822
1465513.136
1465452.993
1465407.243
1465378.166
1465365.241
1465366.427
1465383.035
1465411.367
1465451.884
1465501.216
1465558.246
1465620.646
1465686.321
1465753.481
1465819.577
1465883.286
1465941.871
1465994.273
1466037.964
1466072.12
1466094.428
1466104.255
1466099.689
1466080.404
1466044.913
1465993.233
1465924.268
1465838.483
1465735.198
1465615.249
1465478.206
1465325.342
1465156.337
1464972.745
1464774.681
1464565.134
1464342.463
1464092.387
1463819.409
1462568.647
1465897.193
1465018.621
1464832.335
1464797.328
1464730.364
1464657.391
1464592.086
1464536.802
1464492.974
1464463.024
1464451.167
1464456.944
1464480.403
1464523.575
1464583.821
1464661.365
1464754.622
1464860.917
1464979.819
1465107.062
1465242.49
1465381.749
1465524.214
1465665.796
1465805.551
1465939.904
1466067.655
1466185.72
1466293.002
1466386.795
1466466.137
1466528.732
1466573.954
1466599.977
1466606.545
1466592.31
1466557.389
1466501.04
1466423.681
1466325.063
1466205.817
1466066.234
1465907.034
1465728.828
1465532.525
1465320.722
1465092.192
1464831.18
1464542.913
1460674.381
1464279.985
1463340.549
1463172.704
1463172.668
1463144.431
1463117.655
1463104.744
1463106.62
1463124.388
1463162.209
1463221.389
1463301.079
1463403.178
1463526.881
1463669.788
1463832.662
1464011.742
1464206.106
1464412.717
1464628.876
1464852.425
1465079.662
1465308.942
1465536.049
1465759.807
1465975.888
1466183.293
1466378.061
1466559.378
1466723.658
1466870.278
1466996.157
1467101.03
1467182.37
1467240.317
1467272.887
1467280.659
1467262.295
1467218.716
1467149.062
1467054.59
1466934.89
1466791.472
1466624.093
1466434.474
1466224.598
1465994.001
1465725.105
1465424.755
1458556.382
1462444.308
1461443.497
1461297.615
1461337.127
1461353.464
1461378.584
1461423.763
1461489.04
1461576.795
1461689.7
1461827.42
1461990.134
1462179.011
1462391.485
1462627.013
1462883.89
1463158.599
1463450.273
1463754.3
1464069.294
1464390.838
1464716.617
1465042.804
1465366.585
1465684.638
1465993.918
1466291.527
1466574.57
1466840.561
1467086.832
1467311.312
1467511.764
1467686.637
1467834.198
1467953.449
1468043.164
1468102.991
1468132.212
1468131.02
1468099.053
1468037.064
1467944.957
1467823.934
1467673.778
1467496.307
1467293.386
1467064.907
1466791.876
1466482.947
1456221.64
1460396.516
1459333.898
1459214.614
1459298.617
1459364.496
1459446.686
1459555.872
1459691.888
1459857.302
1460052.403
1460276.462
1460530.953
1460814.578
1461124.722
1461461.472
1461820.951
1462201.182
1462599.11
1463010.87
1463434.114
1463863.919
1464298.21
1464731.86
1465162.8
1465586.02
1465999.429
1466398.408
1466780.985
1467143.017
1467482.712
1467796.478
1468082.926
1468339.089
1468564.075
1468755.572
1468913.213
1469035.467
1469122.421
1469173.198
1469188.249
1469167.336
1469111.164
1469019.976
1468894.328
1468735.243
1468545.216
1468323.648
1468051.087
1467737.553
1453680.34
1458146.682
1457022.495
1456934.269
1457066.829
1457186.724
1457331.407
1457510.915
1457725.354
1457975.03
1458259.342
1458578.41
1458932.374
1459318.558
1459735.786
1460181.996
1460653.105
1461147.683
1461660.867
1462189.993
1462730.672
1463279.218
1463831.671
1464383.773
1464931.981
1465471.773
1465999.918
1466512.021
1467005.208
1467475.337
1467919.893
1468335.199
1468719.253
1469068.967
1469382.946
1469658.72
1469895.598
1470091.804
1470247.285
1470360.788
1470432.883
1470462.764
1470451.504
1470398.622
1470305.215
1470171.519
1470000.677
1469791.305
1469524.273
1469210.74
1450946.073
1455707.665
1454521.984
1454468.488
1454653.458
1454832.055
1455044.577
1455301.389
1455600.736
1455941.461
1456322.479
1456744.52
1457205.509
1457702.599
1458235.041
1458798.75
1459390.943
1460008.305
1460646.174
1461301.684
1461969.354
1462646.265
1463326.804
1464007.662
1464683.562
1465350.906
1466004.786
1466641.662
1467256.998
1467847.422
1468408.843
1468938.299
1469432.277
1469888.371
1470303.737
1470676.595
1471004.922
1471287.574
1471523.266
1471711.396
1471851.396
1471943.109
1471986.572
1471981.759
1471929.055
1471828.886
1471684.141
1471493.128
1471237.019
1470928.767
1448033.675
1453093.452
1451846.042
1451831.325
1452072.596
1452314.28
1452600.754
1452941.087
1453331.38
1453769.596
1454255.33
1454787.405
1455362.708
1455979.395
1456634.763
1457324.32
1458045.93
1458794.454
1459566.308
1460356.886
1461161.565
1461976.035
1462795.064
1463614.602
1464429.136
1465234.743
1466025.966
1466799.097
1467548.876
1468271.808
1468963.03
1469619.454
1470236.787
1470812.491
1471342.929
1471826.264
1472259.657
1472641.982
1472971.076
1473246.538
1473466.805
1473632.123
1473741.424
1473795.165
1473792.739
1473735.049
1473624.031
1473458.448
1473219.099
1472922.45
1444959.491
1450319.997
1449010.84
1449038.795
1449339.848
1449649.584
1450015.609
1450444.748
1450931.819
1451474.422
1452071.779
1452720.756
1453418.039
1454161.793
1454947.512
1455771.72
1456630.609
1457518.979
1458433.378
1459367.978
1460318.948
1461280.456
1462248.189
1463216.522
1464180.806
1465135.592
1466076.214
1466997.41
1467894.596
1468762.752
1469597.601
1470394.527
1471149.752
1471859.201
1472519.718
1473127.993
1473681.589
1474177.95
1474615.313
1474991.913
1475306.614
1475558.341
1475746.346
1475870.124
1475929.114
1475923.665
1475855.379
1475722.736
1475506.961
1475228.753
1441741.743
1447404.784
1446033.699
1446107.902
1446472.656
1446855.007
1447305.008
1447828.057
1448417.601
1449071.34
1449786.4
1450558.758
1451385.66
1452263.415
1453187.038
1454153.537
1455157.411
1456194.391
1457259.474
1458347.488
1459453.632
1460572.17
1461698.432
1462826.377
1463951.29
1465067.11
1466169.132
1467251.386
1468309.146
1469336.694
1470329.46
1471282.144
1472190.518
1473049.832
1473856.41
1474606.265
1475296.365
1475923.453
1476485.231
1476979.193
1477403.78
1477757.038
1478037.989
1478245.239
1478378.154
1478436.179
1478420.93
1478329.554
1478145.324
1477892.85
1438399.124
1444365.836
1442932.818
1443057.183
1443488.998
1443947.369
1444485.521
1445107.033
1445804.875
1446575.244
1447413.725
1448316.087
1449279.009
1450297.236
1451366.535
1452482.34
1453639.035
1454832.502
1456056.597
1457306.884
1458577.254
1459862.845
1461157.636
1462456.433
1463753.2
1465042.659
1466318.727
1467576.087
1468808.602
1470011.073
1471177.471
1472302.811
1473381.431
1474408.671
1475379.494
1476289.758
1477135.1
1477911.991
1478616.869
1479246.903
1479799.235
1480271.601
1480661.858
1480968.323
1481189.357
1481324.234
1481373.428
1481333.544
1481189.583
1480971.9
1439727.182
1439905.172
1440406.363
1440943.858
1441573.82
1442298.347
1443109.351
1444001.1
1444968.229
1446006.666
1447111.269
1448276.336
1449497.79
1450769.56
1452086.813
1453443.996
1454835.649
1456256.448
1457700.537
1459162.664
1460636.739
1462117.347
1463598.324
1465074.075
1466538.386
1467985.38
1469408.878
1470802.799
1472161.133
1473477.672
1474746.65
1475962.157
1477118.765
1478211.044
1479233.998
1480182.881
1481053.321
1481841.277
1482542.934
1483155.011
1483674.398
1484098.548
1484424.986
1484652.319
1484779.917
1484803.312
1484710.328
1484537.951
)
;

boundaryField
{
    front_top
    {
        type            wedge;
    }
    front_middle
    {
        type            wedge;
    }
    front_bottom
    {
        type            wedge;
    }
    back_top
    {
        type            wedge;
    }
    back_middle
    {
        type            wedge;
    }
    back_bottom
    {
        type            wedge;
    }
    axis_top
    {
        type            symmetryPlane;
    }
    axis_middle
    {
        type            symmetryPlane;
    }
    axis_bottom
    {
        type            symmetryPlane;
    }
    wall_top
    {
        type            fixedFluxPressure;
        gradient        uniform 0;
        value           nonuniform List<scalar> 
23
(
1462395.812
1462229.624
1462096.612
1462003.634
1461957.981
1461969.163
1462046.812
1462200.708
1462442.428
1462784.09
1463238.3
1463819.409
1464542.913
1465424.755
1466482.947
1467737.553
1469210.74
1470928.767
1472922.45
1475228.753
1477892.85
1480971.9
1484537.951
)
;
    }
    wall_middle
    {
        type            fixedFluxPressure;
        gradient        nonuniform 0();
        value           nonuniform 0();
    }
    wall_bottom
    {
        type            fixedFluxPressure;
        gradient        nonuniform 0();
        value           nonuniform 0();
    }
    inlet
    {
        type            zeroGradient;
    }
    outlet
    {
        type            fixedValue;
        value           nonuniform 0();
    }
    procBoundary6to5
    {
        type            processor;
        value           nonuniform List<scalar> 
51
(
1434951.199
1441222.159
1441222.159
1436435.212
1436669.571
1437242.25
1437861.469
1438586.526
1439418.122
1440345.944
1441363.048
1442463.869
1443643.135
1444894.403
1446212.441
1447591.604
1449025.82
1450510.214
1452038.292
1453605.277
1455204.769
1456831.783
1458479.984
1460144.165
1461817.94
1463495.87
1465171.502
1466839.021
1468491.834
1470123.801
1471728.206
1473298.575
1474828.176
1476310.344
1477738.479
1479106.062
1480406.583
1481633.973
1482782.074
1483845.391
1484818.2
1485695.648
1486472.861
1487145.753
1487710.31
1488163.306
1488502.169
1488725.366
1488826.472
1488797.481
1488683.321
)
;
    }
    procBoundary6to7
    {
        type            processor;
        value           nonuniform List<scalar> 
51
(
1468697.792
1469085.518
1468916.617
1468781.083
1468637.696
1468464.235
1468267.357
1468055.884
1467833.031
1467597.925
1467356.379
1467115.95
1466873.114
1466632.808
1466400.031
1466169.867
1465950.582
1465738.355
1465536.033
1465547.928
1465547.928
1465349.158
1465158.96
1464980.709
1464811.4
1464653.04
1464502.934
1464362.7
1464229.866
1464105.999
1463988.277
1463878.671
1463774.026
1463676.521
1463582.952
1463495.831
1463411.911
1463333.418
1463257.57
1463186.463
1463117.654
1463053.071
1462990.475
1462931.69
1462874.865
1462821.607
1462770.287
1462722.511
1462676.431
1462631.652
1462587.563
)
;
    }
}


// ************************************************************************* //
