/*--------------------------------*- C++ -*----------------------------------*\
  =========                 |
  \\      /  F ield         | OpenFOAM: The Open Source CFD Toolbox
   \\    /   O peration     | Website:  https://openfoam.org
    \\  /    A nd           | Version:  7
     \\/     M anipulation  |
\*---------------------------------------------------------------------------*/
FoamFile
{
    version     2.0;
    format      ascii;
    class       volVectorField;
    location    "0.0009";
    object      grad(generalizedNewtonian:nu);
}
// * * * * * * * * * * * * * * * * * * * * * * * * * * * * * * * * * * * * * //

dimensions      [0 1 -1 0 0 0 0];

internalField   nonuniform List<vector> 
1167
(
(-99250.74021 -2.2053486e-07 584149.8636)
(-215957.8506 0 582233.8197)
(-348384.5404 2.323668784e-08 578139.4395)
(-479640.946 0 572406.364)
(-599666.3328 0 565265.5176)
(-713470.0421 0 556548.6036)
(-818499.4167 1.997471216e-08 546556.8364)
(-913709.8342 0 534953.5297)
(-999471.2155 -8.073877753e-09 522263.0742)
(-1076011.614 -7.42733373e-09 508710.457)
(-1142534.814 0 494261.4987)
(-1199380.168 0 479020.2014)
(-1247303.641 0 463450.4136)
(-1285573.698 0 447119.2834)
(-1315460.032 0 430606.0697)
(-1337205.323 0 413900.9779)
(-1351320.892 0 397009.1149)
(-1358514.19 0 380311.688)
(-1359178.889 2.445383862e-09 363473.8195)
(-1354030.228 0 347042.144)
(-1343708.949 4.662950627e-09 330659.3342)
(-1328754.345 0 314799.9917)
(-1309885 2.243978923e-09 299191.2936)
(-1287515.363 0 284137.7166)
(-1262245.675 0 269519.9053)
(-1234548.466 0 255394.5407)
(-1204841.01 0 241886.0187)
(-1173843.18 0 228826.6171)
(-1141515.184 0 216476.0303)
(-1108549.574 0 204512.4527)
(-1074913.724 1.029538895e-09 193287.261)
(-1041190.931 0 182495.5805)
(-1007318.61 0 172337.3013)
(-973715.1101 0 162692.0931)
(-940604.006 0 153557.6834)
(-907916.6485 0 144990.9673)
(-96972.10024 0 566064.3931)
(-210506.6411 0 564459.3651)
(-339741.5255 0 560792.4888)
(-468539.6802 -3.465894889e-08 555375.0895)
(-585728.0745 0 548451.5545)
(-695871.8027 0 539871.5332)
(-797361.4224 2.028579069e-08 529734.8004)
(-890194.4273 -1.807659002e-08 518599.3461)
(-974061.13 0 506478.3039)
(-1047856.106 0 493232.4168)
(-1112176.517 0 479161.6399)
(-1167631.255 0 464643.184)
(-1213320.049 0 449323.3062)
(-1250361.153 -5.929912631e-09 433620.2638)
(-1279161.91 5.675625958e-09 417745.0658)
(-1299757.577 0 401407.8964)
(-1313158.553 0 385258.3226)
(-1319566.813 0 368789.9366)
(-1319819.531 -4.96693467e-09 352702.3468)
(-1314441.024 2.421779914e-09 336507.5667)
(-1304063.467 0 320852.7486)
(-1289341.84 2.320449444e-09 305258.4963)
(-1270744.399 0 290309.7805)
(-1248954.087 0 275561.0807)
(-1224219.023 0 261485.3433)
(-1197312.315 0 247729.1051)
(-1168469.824 0 234656.5682)
(-1138280.762 0 222043.8586)
(-1106954.964 1.059718847e-09 209998.8333)
(-1074812.462 1.052031978e-09 198539.8279)
(-1042372.662 0 187543.2079)
(-1009556.49 0 177212.8125)
(-976925.7008 0 167256.9891)
(-944397.7655 0 157987.6017)
(-912399.1751 -1.030204365e-09 149114.5897)
(-880789.1334 -1.028620929e-09 140807.1124)
(-849845.6915 0 132931.6845)
(-819653.7429 1.027774647e-09 125507.7718)
(-790206.972 1.028425161e-09 118550.3699)
(-761717.5532 0 111942.8298)
(-734043.0491 0 105811.5959)
(-707376.882 0 99950.24006)
(-681570.518 0 94536.76386)
(-656780.9824 0 89366.52417)
(-632916.317 -1.045300569e-09 84586.3419)
(-610048.1919 5.250229399e-10 80040.66905)
(-588047.9185 0 75814.69285)
(-566856.0907 -5.305135488e-10 71812.84153)
(-547091.3197 0 68080.49477)
(-531750.3087 -2.684767592e-10 64545.68927)
(-95097.45946 0 549960.9925)
(-205857.5601 0 548324.6721)
(-331836.5014 0 544692.8558)
(-457100.965 0 539349.5653)
(-570942.996 0 532238.6465)
(-678247.3273 0 523861.1508)
(-777822.9736 0 514291.5689)
(-868431.0186 0 503611.5859)
(-949174.1088 8.327315098e-09 491561.4415)
(-1020868.299 0 478727.289)
(-1083769.91 0 465331.6498)
(-1136879.699 0 451041.1925)
(-1181128.282 0 436182.9066)
(-1216961.567 0 421091.969)
(-1244138.049 0 405324.6142)
(-1263960.125 0 389666.6187)
(-1276364.492 0 373676.6219)
(-1282329.701 0 357869.4135)
(-1282181.104 0 342057.536)
(-1276668.521 0 326530.3139)
(-1266346.09 0 311188.545)
(-1251746.489 0 296258.1682)
(-1233570.923 0 281616.3262)
(-1212074.923 0 267495.8156)
(-1188008.658 2.245045712e-09 253668.6165)
(-1161658.339 0 240520.9174)
(-1133729.298 0 227675.1224)
(-1104294.43 0 215557.9099)
(-1073971.048 1.076222523e-09 203796.0762)
(-1042793.527 0 192720.5452)
(-1011297.041 0 182083.0168)
(-979521.5174 0 172010.9163)
(-947790.9162 0 162474.0059)
(-916465.0844 0 153395.0746)
(-885377.0936 0 144898.6625)
(-854908.2412 0 136750.0684)
(-824937.1247 0 129185.0182)
(-795784.4385 0 121950.3927)
(-767314.1862 0 115222.3045)
(-739762.2882 0 108835.7245)
(-713019.2683 1.047759115e-09 102859.2542)
(-687171.9815 0 97232.15908)
(-662282.8935 0 91929.49215)
(-638274.7198 0 86977.05933)
(-615260.979 -5.307898504e-10 82287.93001)
(-593117.5453 0 77930.5315)
(-571877.0845 0 73783.76066)
(-551363.8194 0 69946.13594)
(-532260.9679 0 66283.20392)
(-517536.2192 0 62896.26434)
(-92809.1069 0 534542.9758)
(-200600.7705 7.89408287e-08 532848.8567)
(-323654.9858 0 529147.6521)
(-446091.7591 0 524093.4082)
(-557511.8523 0 517553.5844)
(-662636.5273 0 509566.0415)
(-759221.3664 0 500228.4549)
(-846593.2867 0 489416.2738)
(-925500.3917 0 477881.5675)
(-995731.9333 0 465650.2744)
(-1056113.801 0 452364.1247)
(-1107523.771 0 438391.1607)
(-1150425.826 0 424104.0072)
(-1184315.407 0 408996.5913)
(-1210682.599 0 393876.0406)
(-1229467.946 -2.81469058e-09 378520.4642)
(-1241235.725 0 363033.0225)
(-1246687.763 -2.634290035e-09 347688.1714)
(-1246239.701 0 332256.5006)
(-1240592.276 0 317215.7547)
(-1230289.301 0 302216.1979)
(-1215906.392 -2.393287803e-09 287737.9213)
(-1197986.424 0 273455.0146)
(-1176909.984 0 259687.6506)
(-1153392.04 0 246300.7473)
(-1127753.777 2.251269517e-09 233445.0086)
(-1100433.049 -2.226252455e-09 221107.6278)
(-1071950.065 0 209224.7856)
(-1042340.26 -1.092983171e-09 197956.7034)
(-1012206.963 0 187068.1507)
(-981541.3481 0 176857.1704)
(-950869.8289 0 166993.7666)
(-920155.8192 0 157801.3476)
(-889798.2225 1.065042446e-09 148997.2527)
(-859702.1081 1.062542236e-09 140725.7137)
(-830116.3716 1.060909097e-09 132894.6416)
(-801206.8349 1.060089545e-09 125490.8131)
(-772910.4929 0 118560.0096)
(-745466.1382 5.303535917e-10 111960.8426)
(-718749.7725 1.062065013e-09 105844.2574)
(-692951.2266 5.320382425e-10 99983.22548)
(-667939.847 0 94575.23602)
(-643872.1391 0 89405.7766)
(-620664.9233 0 84621.22308)
(-598394.5867 0 80073.00497)
(-576977.6825 0 75839.55081)
(-556419.018 5.442091485e-10 71832.19973)
(-536576.3357 0 68089.14536)
(-518100.0363 -2.751839761e-10 64559.09731)
(-503783.7515 2.769041812e-10 61252.91449)
(-90847.72768 0 521322.4344)
(-195871.3091 0 519804.3825)
(-316448.1172 0 516301.8668)
(-436543.5657 0 511294.1331)
(-544850.2984 0 504723.3427)
(-646649.4585 0 496528.9719)
(-740422.3213 0 487117.9917)
(-826269.5856 0 476928.9498)
(-903507.2655 8.58870748e-09 465872.659)
(-970907.5319 0 453553.7106)
(-1029431.062 -7.34950508e-09 440481.7432)
(-1079515.08 0 426972.4294)
(-1120311.682 -1.305042894e-08 412623.3007)
(-1153292.513 0 398085.874)
(-1178724.135 0 383380.9536)
(-1196518.225 0 368228.9243)
(-1207691.664 0 353298.339)
(-1212476.496 0 338049.5874)
(-1211741.101 2.601313435e-09 323222.2446)
(-1205898.487 0 308275.3403)
(-1195617.485 0 293873.3152)
(-1181418.253 2.430559979e-09 279525.5729)
(-1163704.457 0 265783.6439)
(-1143156.356 0 252187.5577)
(-1120155.358 0 239307.0233)
(-1095288.827 0 226678.6943)
(-1068714.823 1.130461642e-09 214754.6918)
(-1040987.639 0 203173.3247)
(-1012227.415 1.110004885e-09 192198.634)
(-982903.3508 -1.101953257e-09 181688.0432)
(-953224.3754 0 171688.2259)
(-923373.9297 0 162238.1963)
(-893750.0814 0 153206.2677)
(-864230.5823 0 144766.07)
(-835185.2088 -1.079089874e-09 136646.636)
(-806524.4337 0 129116.2112)
(-778557.1695 -1.076598986e-09 121906.1553)
(-751174.8891 0 115192.6657)
(-724607.31 0 108820.3698)
(-698764.1506 0 102850.2094)
(-673730.5432 0 97230.07702)
(-649587.8672 0 91928.5253)
(-626255.1522 0 86978.70352)
(-603850.9198 0 82287.29374)
(-582263.5863 5.474512138e-10 77929.55281)
(-561564.0129 0 73778.43274)
(-541643.9598 5.526844597e-10 69938.76157)
(-522454.9794 -2.778438038e-10 66269.15245)
(-504576.9498 -2.794695892e-10 62887.48536)
(-490721.4305 2.812165841e-10 59641.21632)
(-89060.32395 0 510138.6515)
(-191414.5302 4.070938219e-08 508511.7309)
(-308893.4328 0 504935.4362)
(-425882.7625 3.686897216e-08 499677.0919)
(-531389.6039 0 492914.0294)
(-631032.6436 0 485123.8523)
(-723451.8844 0 476278.9651)
(-807109.8463 0 466326.4308)
(-881238.3438 0 454919.6085)
(-946801.6334 0 442768.0388)
(-1003953.941 0 430076.0328)
(-1051812.061 0 416474.4991)
(-1091611.724 0 402461.4389)
(-1123658.14 0 388350.5362)
(-1147571.905 -3.018765746e-09 373537.9132)
(-1164721.006 0 358856.1038)
(-1175026.343 0 343887.8943)
(-1179500.977 0 329116.8578)
(-1178442.596 -2.641825299e-09 314389.9716)
(-1172538.749 2.576204389e-09 299915.37)
(-1162340.584 0 285693.1697)
(-1148294.878 0 271795.89)
(-1130917.708 -2.424241192e-09 258232.4658)
(-1110759.548 0 245145.7365)
(-1088432.441 2.35157813e-09 232448.2051)
(-1064075.357 0 220310.4379)
(-1038301.622 -2.296134042e-09 208528.9851)
(-1011217.223 0 197393.1492)
(-983391.7457 0 186576.8114)
(-954874.0323 0 176452.5011)
(-926149.8139 -1.112243334e-09 166663.3445)
(-897234.691 0 157515.7075)
(-868504.9806 0 148761.5389)
(-839907.7364 -1.0984739e-09 140520.8274)
(-811678.2703 0 132723.9059)
(-784016.4598 0 125341.1114)
(-756850.3474 0 118432.6012)
(-730428.8404 0 111847.2941)
(-704645.7084 -1.094002554e-09 105744.9494)
(-679691.4916 -5.477015032e-10 99892.62448)
(-655450.2216 -1.097477618e-09 94496.10279)
(-632079.0913 0 89330.33665)
(-609504.8481 5.517652195e-10 84552.47264)
(-587804.4687 0 80006.44635)
(-566906.8665 5.559770105e-10 75777.59819)
(-546855.4008 0 71772.20946)
(-527570.7165 0 68033.26717)
(-508983.2549 -2.821708373e-10 64504.33761)
(-491666.674 0 61203.28937)
(-478235.4141 -2.855961441e-10 58078.90171)
(-86896.03693 0 499963.3504)
(-186536.4245 0 498266.5365)
(-301329.3583 0 494757.7031)
(-415889.3934 0 489953.7792)
(-519558.0363 1.497147957e-08 483767.2293)
(-617244.9165 0 476241.5449)
(-706618.7672 1.09576894e-08 467270.1973)
(-787144.3035 0 456771.3948)
(-859619.9197 -8.858304839e-09 445570.4364)
(-923778.5201 0 433701.7683)
(-978600.1512 0 420796.2256)
(-1025161.257 0 407341.0538)
(-1063936.547 0 393701.7424)
(-1094191.798 3.203135722e-09 379273.4767)
(-1117369.415 0 364829.5722)
(-1133654.16 2.948253921e-09 350219.1741)
(-1143475.567 -2.847005773e-09 335467.706)
(-1147572.25 2.759292968e-09 320973.5969)
(-1146288.187 0 306352.3447)
(-1140363.22 0 292241.3157)
(-1130193.555 -2.557992539e-09 278111.7123)
(-1116322.073 0 264567.4498)
(-1099344.775 0 251148.2966)
(-1079707.657 0 238410.6432)
(-1057898.702 0 225925.2228)
(-1034186.318 -2.358097272e-09 214056.7069)
(-1009082.709 0 202573.4147)
(-982772.3727 0 191639.7012)
(-955666.9196 0 181199.2184)
(-928084.6046 1.136543292e-09 171231.7072)
(-900127.2612 -1.129564957e-09 161829.177)
(-872219.8231 1.123805535e-09 152823.1306)
(-844278.1739 0 144416.8854)
(-816661.0817 0 136319.0263)
(-789309.3347 0 128816.2581)
(-762522.8866 0 121623.2947)
(-736219.7222 1.110393156e-09 114929.7512)
(-710624.9152 0 108570.7852)
(-685667.7971 0 102616.8873)
(-661443.984 0 97007.74835)
(-638016.2138 5.572846427e-10 91719.78567)
(-615339.6893 0 86779.00573)
(-593528.21 0 82098.84938)
(-572474.8851 0 77748.75133)
(-552260.8298 5.646355692e-10 73607.18083)
(-532816.6494 0 69774.36257)
(-514153.7113 0 66112.77233)
(-496135.0135 0 62736.30345)
(-479346.539 -2.88242069e-10 59501.6319)
(-466430.7047 0 56512.7759)
(-84997.02806 0 493419.2085)
(-182254.026 0 491825.6991)
(-294940.4277 0 488547.0732)
(-407282.1907 1.901314063e-08 483706.8667)
(-507884.5507 0 477204.5458)
(-602296.0017 1.279097167e-08 469008.6435)
(-688944.602 0 459541.6053)
(-768028.2737 0 449335.1868)
(-838923.4141 -8.996261031e-09 438280.0543)
(-900496.7212 0 425998.1658)
(-953797.4989 0 413059.4537)
(-999316.4122 0 399836.1444)
(-1036175.836 -6.834850621e-09 385821.2142)
(-1065604.247 0 371546.9201)
(-1088042.179 0 357245.6804)
(-1103429.805 0 342502.3031)
(-1112849.402 0 328076.2403)
(-1116413.372 2.802265247e-09 313401.6554)
(-1115044.598 -2.724751627e-09 299154.2334)
(-1109022.542 0 284932.0151)
(-1098956.035 0 271166.2683)
(-1085348.187 0 257586.4027)
(-1068730.581 0 244576.1767)
(-1049639.57 -2.460384997e-09 231848.5733)
(-1028323.478 2.425393661e-09 219744.742)
(-1005340.702 -1.197410734e-09 207942.4055)
(-980862.922 0 196830.6633)
(-955414.1956 0 186004.2631)
(-929104.7232 0 175894.1277)
(-902381.2723 -1.154243426e-09 166115.1113)
(-875312.792 0 156971.6332)
(-848253.0292 0 148227.8039)
(-821188.0267 0 139996.9537)
(-794352.6308 1.132954759e-09 132212.5543)
(-767942.3922 0 124844.3628)
(-741919.3778 0 117949.8595)
(-716527.2627 -1.127686037e-09 111382.6175)
(-691677.3906 0 105295.3146)
(-667564.9302 -5.641715297e-10 99462.89603)
(-644085.9946 0 94087.72295)
(-621400.1216 -5.65963602e-10 88933.05743)
(-599443.9311 0 84178.21142)
(-578299.8288 0 79643.72551)
(-557901.1773 0 75435.75281)
(-538301.0976 -5.734290093e-10 71441.24092)
(-519457.6194 -2.880160914e-10 67720.32165)
(-501362.166 2.894552923e-10 64199.87404)
(-483893.0876 2.910281193e-10 60912.81966)
(-467607.6094 0 57806.37315)
(-455044.9076 2.945609456e-10 54899.59051)
(-83140.20632 -1.247781462e-07 490102.4002)
(-178100.8645 0 488237.465)
(-287860.2422 0 484716.3382)
(-396972.7643 0 479219.914)
(-494727.5337 0 472117.4463)
(-586973.9626 0 463916.0068)
(-672351.1213 0 454676.8116)
(-749427.1208 0 444360.9873)
(-817438.9726 0 432619.1675)
(-877389.0683 0 420169.7624)
(-929603.13 0 407332.6249)
(-973164.0965 -3.669437852e-09 393646.5795)
(-1008949.251 6.941293768e-09 379471.4059)
(-1037616.734 0 365302.1895)
(-1058762.087 3.162012896e-09 350531.495)
(-1073726.9 0 335946.9976)
(-1082532.034 0 321253.999)
(-1085895.512 0 306709.262)
(-1084409.691 0 292411.1377)
(-1078405.998 0 278255.2255)
(-1068502 0 264543.6264)
(-1055222.27 2.585544262e-09 251078.3849)
(-1039072.582 2.539276829e-09 238184.1372)
(-1020478.252 0 225632.3993)
(-999784.0267 0 213640.6484)
(-977451.9755 2.43211743e-09 202096.3754)
(-953719.9597 -2.40509071e-09 191072.2027)
(-928962.4356 0 180583.7667)
(-903565.901 0 170557.1536)
(-877596.0169 0 161120.6729)
(-851489.2322 0 152082.7253)
(-825198.7532 -1.159081546e-09 143658.6419)
(-799074.6872 0 135551.2004)
(-773084.0127 -1.15059893e-09 128051.7183)
(-747521.4497 -1.147897874e-09 120856.122)
(-722330.5246 -5.730667712e-10 114180.7198)
(-697732.9803 -1.145248154e-09 107830.2871)
(-673678.4397 0 101902.6886)
(-650284.0548 0 96310.3885)
(-627561.8396 1.147382316e-09 91052.79017)
(-605537.9407 5.747776859e-10 86133.10403)
(-584311.3367 0 81484.7981)
(-563781.3425 -5.779477065e-10 77157.99462)
(-544033.5921 0 73047.95312)
(-525007.0655 0 69238.36114)
(-506751.5981 0 65606.28832)
(-489190.1174 2.939631497e-10 62251.08272)
(-472245.0038 0 59041.85971)
(-456454.7142 0 56081.43054)
(-444248.7245 2.991483164e-10 53242.7112)
(-80673.94867 0 488205.5815)
(-173141.7845 4.330521e-08 486099.5871)
(-280157.0355 -2.670403658e-08 482512.4343)
(-386617.2845 0 477056.2109)
(-482495.6102 -1.568191012e-08 470295.6897)
(-572876.4038 0 462168.3047)
(-655383.1283 0 452477.4893)
(-729465.3756 -1.022769557e-08 441230.0449)
(-795908.6604 0 429275.1986)
(-854717.4183 0 416798.7632)
(-904855.5169 0 403350.7342)
(-946964.8102 0 389215.716)
(-981945.3001 0 374991.0541)
(-1009159.933 0 360182.3675)
(-1029751.663 0 345318.4472)
(-1044181.614 0 330540.3159)
(-1052579.082 0 315544.8544)
(-1055840.331 0 301046.7897)
(-1054156.187 0 286420.1402)
(-1048279.161 0 272385.6713)
(-1038590.256 -2.679375067e-09 258439.4477)
(-1025709.073 0 245175.4394)
(-1010060.894 0 232138.5969)
(-991993.5773 0 219810.3564)
(-971995.1787 0 207761.7229)
(-950312.767 0 196463.3246)
(-927420.1939 0 185455.9089)
(-903484.0161 0 175207.3044)
(-878914.8901 0 165304.7995)
(-853832.636 0 156064.8628)
(-828570.0967 0 147241.2551)
(-803152.1944 -1.177132648e-09 138958.866)
(-777821.2373 0 131132.0207)
(-752735.2841 0 123746.2814)
(-727928.7247 0 116838.9547)
(-703625.9121 0 110281.3989)
(-679756.5472 -5.815419106e-10 104202.7357)
(-656522.4377 0 98398.51787)
(-633830.2949 0 93052.92563)
(-611846.2876 5.826256095e-10 87925.02399)
(-590515.6078 0 83217.684)
(-569929.911 0 78714.2421)
(-550027.5804 0 74556.50278)
(-530866.1325 0 70596.55865)
(-512412.7064 0 66925.53639)
(-494696.7295 0 63440.57087)
(-477654.7529 2.985412219e-10 60201.55392)
(-461196.5195 0 57128.38071)
(-445865.6532 0 54270.87291)
(-434006.596 -3.038071405e-10 51546.7619)
(-78327.03554 1.286949018e-07 490381.019)
(-168687.047 0 488262.7429)
(-273274.4094 0 484963.6139)
(-377274.0874 1.991535589e-08 479381.6054)
(-470374.9822 0 472111.0849)
(-557343.6599 0 463044.3043)
(-636936.087 0 452408.4649)
(-709542.7209 -1.038697754e-08 441046.3681)
(-774676.2112 0 428941.1571)
(-831142.7004 -4.334280688e-09 415656.3487)
(-879499.769 0 401488.6057)
(-920719.664 3.784620612e-09 387142.5176)
(-954222.998 0 372209.094)
(-980660.9437 -3.407383208e-09 356913.5489)
(-1000800.312 0 341836.0888)
(-1014395.861 0 326364.457)
(-1022687.834 3.028544685e-09 311276.2062)
(-1025653.213 2.935238885e-09 296209.2573)
(-1024043.586 0 281518.281)
(-1018335.451 -2.783154737e-09 267125.228)
(-1009012.049 0 253155.97)
(-996613.0268 -2.666703866e-09 239680.2499)
(-981505.356 0 226675.0823)
(-964089.0055 0 214210.1578)
(-944780.6048 0 202288.2233)
(-923888.0731 0 190899.8766)
(-901736.7005 0 180116.5485)
(-878732.3837 0 169824.2701)
(-854964.9352 -1.217848703e-09 160172.0985)
(-830857.7988 0 150957.0882)
(-806399.9372 0 142390.2227)
(-781931.791 0 134179.5671)
(-757444.4967 -5.952676718e-10 126607.9392)
(-733234.5943 0 119349.313)
(-709266.7111 0 112659.3479)
(-685759.7241 0 106289.1102)
(-662684.1881 0 100382.706)
(-640180.8051 -1.181137832e-09 94803.61797)
(-618213.7878 -5.909427072e-10 89590.54406)
(-596887.9419 0 84705.12007)
(-576259.9111 0 80114.94268)
(-556268.0469 0 75835.22136)
(-536995.2759 0 71789.82392)
(-518383.2435 0 68032.96421)
(-500494.8887 -3.003197373e-10 64467.05128)
(-483287.9226 0 61165.69538)
(-466744.325 0 58020.57169)
(-450760.6009 0 55110.83485)
(-435849.7291 0 52340.11204)
(-424366.0088 -3.085385091e-10 49759.20899)
(-75908.41514 0 497666.6304)
(-164391.0555 0 495097.6731)
(-265968.8541 0 491452.1861)
(-366183.2321 2.022551017e-08 484971.202)
(-456161.4271 1.617416143e-08 476632.3068)
(-540629.2322 1.360658571e-08 466895.4271)
(-618818.4115 1.183793736e-08 456265.143)
(-689741.024 0 444574.6829)
(-752112.0815 0 431400.7652)
(-806507.5886 4.401781148e-09 417161.0128)
(-853888.998 4.094566794e-09 402628.7388)
(-893624.108 0 387479.2366)
(-925853.5013 -3.635336829e-09 371671.574)
(-951772.5486 -3.460448515e-09 356003.5327)
(-970912.739 0 339982.2041)
(-984251.6062 -3.185091669e-09 324085.8705)
(-992308.9566 0 308464.2053)
(-995259.0233 0 292841.3143)
(-993825.2618 0 277857.9218)
(-988341.4808 2.826498544e-09 262942.5662)
(-979499.7595 0 248833.1565)
(-967617.6049 -1.354117056e-09 234944.1095)
(-953135.6876 0 221881.9611)
(-936460.9608 0 209128.4462)
(-917912.1276 0 197224.699)
(-897904.0255 0 185668.9438)
(-876656.5217 0 174948.8176)
(-854546.1676 0 164630.0433)
(-831737.2025 -1.236815022e-09 155050.9507)
(-808540.4056 -1.227843553e-09 145931.4784)
(-785016.3788 0 137427.1873)
(-761422.7846 0 129408.9616)
(-737854.7866 -1.209076294e-09 121896.3975)
(-714448.0161 0 114885.1812)
(-691392.6028 0 108276.8326)
(-668640.9772 -1.200520138e-09 102159.6164)
(-646402.7226 -5.997963684e-10 96361.34711)
(-624593.0984 0 91025.60452)
(-603387.9147 -6.001458272e-10 85936.46682)
(-582741.3988 0 81286.98019)
(-562758.5822 6.020521707e-10 76833.66403)
(-543382.7614 0 72757.28766)
(-524681.486 0 68859.87817)
(-506624.5007 0 65277.42047)
(-489254.0471 3.049968042e-10 61861.09852)
(-472542.1378 0 58710.62738)
(-456457.6209 0 55704.79713)
(-440930.6027 0 52928.20997)
(-426415.3999 0 50283.78873)
(-415258.6625 -3.13343572e-10 47825.76424)
(-72642.10894 0 507859.3042)
(-158894.1329 -4.53601398e-08 504881.8211)
(-257304.009 -2.797120329e-08 500970.032)
(-354079.7383 0 494008.4216)
(-441743.1767 0 485669.4207)
(-524583.2265 0 475879.534)
(-600378.5063 0 464620.3202)
(-668055.8413 -1.071302278e-08 451544.5211)
(-728130.0848 4.859472174e-09 437248.3956)
(-781430.672 0 422487.8191)
(-827236.3637 -4.158334128e-09 407024.3604)
(-865188.6524 0 390619.7907)
(-896745.1403 7.383904556e-09 374236.0299)
(-921677.2602 0 357575.9498)
(-940296.2134 0 340654.5848)
(-953529.8998 0 324178.4756)
(-961198.6578 0 307559.4377)
(-964315.8169 0 291488.077)
(-962965.9562 0 275612.0033)
(-957959.2368 0 260365.8889)
(-949643.8463 0 245576.6441)
(-938415.3528 0 231427.5893)
(-924683.4737 0 217844.9472)
(-908817.8302 0 204945.0244)
(-891178.9374 0 192645.7464)
(-872053.1718 0 181064.9337)
(-851837.0848 0 170062.1315)
(-830664.026 0 159793.794)
(-808929.256 0 150055.9777)
(-786657.0562 0 141041.2432)
(-764173.6863 0 132473.0674)
(-741492.4254 6.164951226e-10 124605.0642)
(-718913.7213 0 117113.5162)
(-696416.4151 0 110272.752)
(-674221.1033 0 103767.3834)
(-652318.1753 0 97806.6339)
(-630853.5854 0 92179.34387)
(-609805.5931 -6.091067611e-10 86981.65482)
(-589312.0641 6.094922858e-10 82110.57096)
(-569352.9786 0 77583.55545)
(-549980.3533 0 73360.7568)
(-531229.0561 0 69407.64183)
(-513070.687 0 65732.12922)
(-495568.5377 3.084940388e-10 62272.8801)
(-478689.4308 -3.097467164e-10 59063.70667)
(-462454.5445 0 56028.87103)
(-446811.1991 -3.127076756e-10 53211.09047)
(-431716.5124 0 50542.89603)
(-417589.2708 0 48069.67961)
(-406619.0561 0 45706.61995)
(-69412.72935 0 522933.0597)
(-153762.2841 0 519984.5968)
(-249067.9817 0 516457.9672)
(-342672.6227 0 509462.8133)
(-427874.0192 0 500735.7193)
(-507248.9994 0 489936.7174)
(-579528.0261 0 477067.5305)
(-644801.1481 0 462862.9332)
(-703576.1971 -4.935151518e-09 447945.9985)
(-755066.2028 0 432105.737)
(-798624.8264 0 415079.8911)
(-835751.9249 0 397825.3057)
(-866415.837 0 380394.2681)
(-890232.7618 0 362374.0182)
(-908594.1051 0 344687.1768)
(-921304.154 0 326932.157)
(-928991.8488 0 309441.3986)
(-932196.679 0 292433.8841)
(-931252.2986 0 275668.4616)
(-926805.8941 0 259755.4015)
(-919101.7981 0 244137.1732)
(-908642.3479 0 229475.7777)
(-895759.6468 0 215201.07)
(-880831.5165 0 201920.2981)
(-864205.5364 0 189094.1008)
(-846148.2844 0 177238.8122)
(-826996.5394 -1.299147631e-09 165890.8375)
(-806948.9352 0 155427.967)
(-786290.0657 0 145515.113)
(-765111.6859 0 136360.4477)
(-743665.9515 0 127766.5063)
(-722037.8359 1.252192309e-09 119808.3993)
(-700423.2774 0 112413.2863)
(-678921.1538 0 105530.4692)
(-657591.8021 0 99186.49394)
(-636619.2483 0 93253.14589)
(-615929.8656 6.186238302e-10 87815.37099)
(-595709.8344 0 82697.42579)
(-575921.1226 0 78037.40531)
(-556685.2171 0 73622.12875)
(-537950.6368 0 69616.45674)
(-519799.5244 0 65797.6463)
(-502206.1748 0 62331.71851)
(-485223.8574 0 59017.50985)
(-468834.1413 -3.145705795e-10 56003.85587)
(-453043.4127 0 53113.2813)
(-437832.6589 0 50476.34023)
(-423148.4733 -3.193032882e-10 47945.80549)
(-409369.4337 0 45641.75593)
(-398637.2072 0 43391.89525)
(-66307.69036 0 546233.4626)
(-149140.6 -4.678398293e-08 542960.1545)
(-241098.7886 -2.884921217e-08 539059.6216)
(-330257.5399 2.118525597e-08 531143.9498)
(-411703.2592 0 521003.6185)
(-487588.8865 0 508722.4802)
(-557388.3275 0 494968.196)
(-621015.8303 5.524650904e-09 480118.7416)
(-677516.372 0 464013.0124)
(-726328.8024 0 446449.8291)
(-768744.9154 -4.288863168e-09 428314.2138)
(-804897.2403 0 409914.5528)
(-833944.4332 0 390728.7689)
(-857280.4958 0 371605.1622)
(-875152.4779 0 352611.2539)
(-887541.3554 0 333467.6607)
(-895401.662 0 314947.7077)
(-898675.4822 0 296554.0883)
(-898283.6039 0 278937.4655)
(-894344.6474 0 261755.8225)
(-887432.123 0 245384.8353)
(-877816.6244 0 229637.9396)
(-865914.6463 -1.392991645e-09 214742.9367)
(-852064.0074 0 200560.5282)
(-836534.87 0 187252.6377)
(-819692.8107 0 174668.9152)
(-801707.0359 0 162967.4749)
(-782934.9408 0 151957.1206)
(-763431.4145 0 141804.8501)
(-743499.2021 0 132261.8075)
(-723169.8027 0 123536.8411)
(-702737.9159 0 115337.5444)
(-682191.6029 0 107908.0081)
(-661757.5715 0 100909.3675)
(-641437.6233 0 94596.91677)
(-621386.0892 -6.287437551e-10 88667.41701)
(-601590.1865 -6.282580507e-10 83292.62016)
(-582193.4554 0 78277.24103)
(-563191.4992 6.28624092e-10 73706.33211)
(-544666.1 0 69458.97702)
(-526599.8609 0 65557.35871)
(-509058.1284 0 61940.09691)
(-492037.6106 0 58594.9369)
(-475574.8722 0 55496.18563)
(-459674.6345 3.194695862e-10 52612.12323)
(-444323.0887 -3.2091987e-10 49933.07484)
(-429534.5069 0 47429.36559)
(-415253.4242 3.242760005e-10 45099.82379)
(-401781.7933 0 42925.51341)
(-391237.1561 0 40851.29675)
(-62494.7785 0 575742.5054)
(-143140.5678 0 571962.503)
(-231142.4034 -2.929849912e-08 567104.1694)
(-315706.8241 2.15151873e-08 558096.0926)
(-393929.4713 -8.602752406e-09 547016.9762)
(-467246.262 0 534223.2118)
(-534826.0738 6.296390977e-09 519809.0254)
(-595534.7146 -5.610689771e-09 503655.3198)
(-648994.2714 -5.09006494e-09 485747.6344)
(-696173.0664 0 466929.5145)
(-737242.9262 -4.355656334e-09 447613.7376)
(-771394.6696 0 427334.9061)
(-799629.6035 -3.867143627e-09 406656.143)
(-822532.2013 0 386165.6337)
(-839568.8638 0 365342.7924)
(-851889.9385 3.388188641e-09 344950.5732)
(-859653.7841 0 324798.4581)
(-863309.3755 -3.171031173e-09 305067.542)
(-863412.3949 0 286103.6518)
(-860177.0934 0 267574.7232)
(-854110.8698 0 250067.5775)
(-845478.5728 0 233066.2013)
(-834684.1957 0 217203.1513)
(-822008.0948 0 201922.0679)
(-807751.4683 1.372282462e-09 187789.3315)
(-792205.7402 0 174301.325)
(-775589.1251 0 161905.0752)
(-758152.655 -1.326889435e-09 150195.4412)
(-740010.07 0 139463.3771)
(-721385.6562 1.306136844e-09 129423.3817)
(-702379.9752 0 120234.6625)
(-683203.9638 0 111732.4219)
(-663882.6759 0 103943.9076)
(-644585.0315 0 96807.30928)
(-625405.5857 0 90258.28334)
(-606345.1866 -6.385355775e-10 84301.22863)
(-587570.9238 0 78812.15916)
(-569055.3104 -6.380102321e-10 73856.48311)
(-550934.5063 -6.384140508e-10 69268.39757)
(-533160.6092 0 65143.58711)
(-515832.8853 0 61295.30809)
(-498931.8889 0 57846.33144)
(-482527.1361 3.219870625e-10 54602.0626)
(-466606.9444 3.231327673e-10 51698.18845)
(-451196.3889 0 48940.92665)
(-436300.2525 0 46463.58908)
(-421924.1267 0 44098.76255)
(-408043.7178 -3.293261548e-10 41967.96552)
(-394849.8657 0 39930.54196)
(-384562.7497 -3.333238857e-10 38040.68904)
(-58437.04913 0 610559.2772)
(-136451.2459 0 606793.9053)
(-220481.5097 0 601419.5321)
(-300761.8956 0 592238.8711)
(-376169.0479 0 580882.7602)
(-446415.883 0 567319.0418)
(-510310.916 0 551440.7433)
(-567612.3023 5.698068511e-09 533498.7633)
(-618932.4306 0 514283.8459)
(-664391.8167 -4.75538302e-09 494246.9471)
(-703206.8551 4.423489663e-09 473068.6537)
(-735862.2172 0 451056.8549)
(-763280.5894 0 429027.5445)
(-785009.9841 0 406572.1126)
(-801731.8261 0 384099.0657)
(-813944.1335 -3.440954997e-09 362101.6866)
(-821648.3233 0 340135.0801)
(-825786.0852 0 318993.6651)
(-826311.535 0 298243.3347)
(-823890.967 0 278402.7871)
(-818669.939 0 259216.9021)
(-811123.5482 0 241008.0795)
(-801497.1646 0 223614.9356)
(-790102.8752 0 207239.0203)
(-777232.9996 0 191748.5851)
(-763090.6947 0 177295.5407)
(-747983.6681 -1.360795138e-09 163726.4131)
(-731990.2371 0 151181.9061)
(-715376.7139 0 139462.8158)
(-698183.4219 0 128732.0898)
(-680685.6972 0 118752.5673)
(-662880.5877 0 109711.3124)
(-644984.6969 0 101314.7158)
(-626994.8993 0 93794.80439)
(-609072.8904 0 86819.66439)
(-591200.6064 0 80610.99312)
(-573529.3597 0 74870.38376)
(-556062.6682 0 69772.38434)
(-538890.057 0 65087.20468)
(-522000.7067 0 60911.47924)
(-505469.718 0 57085.87691)
(-489303.0863 0 53661.42891)
(-473554.9458 -3.270015661e-10 50524.66161)
(-458226.9517 0 47699.46494)
(-443336.863 -3.294976681e-10 45098.15251)
(-428917.8387 -3.309934759e-10 42739.31371)
(-414967.2312 -3.326474324e-10 40552.51489)
(-401486.168 0 38560.23906)
(-388568.037 0 36701.65954)
(-378433.8743 0 34955.93103)
(-54769.95467 0 653296.1488)
(-129789.083 0 649849.0974)
(-209930.8436 0 643874.4819)
(-286000.6744 0 634325.8697)
(-357365.4138 0 622017.8564)
(-423333.7485 0 606880.2542)
(-483527.4499 0 589378.5238)
(-538212.2741 -5.786807937e-09 570240.3677)
(-587351.0605 5.249840822e-09 549855.6197)
(-630223.1891 0 528069.1776)
(-666860.0603 -4.492379311e-09 505008.1932)
(-698323.6911 -4.21698661e-09 481602.9045)
(-724413.5268 0 457784.7766)
(-745156.3187 0 433464.1814)
(-761563.9904 -3.633844359e-09 409468.148)
(-773299.542 -3.494543046e-09 385431.683)
(-781177.5018 0 361897.0498)
(-785590.1397 0 338941.8175)
(-786709.3226 0 316484.7708)
(-785029.0279 0 295009.9357)
(-780760.9711 0 274106.8674)
(-774321.9772 0 254396.8436)
(-765927.4919 -2.918184425e-09 235360.4406)
(-755897.1811 0 217590.9114)
(-744465.9586 0 200579.0998)
(-731858.627 0 184838.1405)
(-718299.2136 -1.381987613e-09 169898.3334)
(-703910.5418 0 156163.9823)
(-688884.795 0 143249.8173)
(-673323.8654 1.347136157e-09 131438.5309)
(-657415.8686 0 120460.3751)
(-641193.5479 0 110461.9161)
(-624825.231 -6.632727712e-10 101271.9394)
(-608332.666 0 92935.53902)
(-591820.729 0 85358.2983)
(-575320.0393 0 78503.25428)
(-558906.5011 0 72347.4686)
(-542685.372 0 66792.51573)
(-526604.3502 0 61848.50794)
(-510769.988 0 57383.7368)
(-495164.1571 3.302726334e-10 53440.45374)
(-479869.4071 0 49870.58985)
(-464879.8926 0 46732.68902)
(-450237.88 0 43871.88611)
(-435952.4008 -3.346291321e-10 41353.48803)
(-422063.5704 0 39039.24982)
(-408589.3592 0 36989.05851)
(-395521.8483 -3.396636215e-10 35085.62299)
(-382907.4627 0 33387.83292)
(-372884.9663 0 31749.27879)
(-51473.57406 0 702759.4403)
(-122672.9225 0 699460.5927)
(-198305.7316 0 692165.6723)
(-269583.1739 0 681707.1312)
(-336478.3877 0 668080.0588)