/*--------------------------------*- C++ -*----------------------------------*\
  =========                 |
  \\      /  F ield         | OpenFOAM: The Open Source CFD Toolbox
   \\    /   O peration     | Website:  https://openfoam.org
    \\  /    A nd           | Version:  7
     \\/     M anipulation  |
\*---------------------------------------------------------------------------*/
FoamFile
{
    version     2.0;
    format      ascii;
    class       surfaceScalarField;
    location    "0.0009";
    object      phi;
}
// * * * * * * * * * * * * * * * * * * * * * * * * * * * * * * * * * * * * * //

dimensions      [1 0 -1 0 0 0 0];

internalField   nonuniform List<scalar> 
2260
(
2.235064346e-15
4.56071144e-11
8.74788064e-15
1.334536173e-10
1.921792742e-14
2.164052434e-10
3.32917078e-14
2.946659245e-10
5.059144966e-14
3.684326418e-10
7.071861262e-14
4.378954988e-10
9.332370286e-14
5.032379377e-10
1.179607642e-13
5.646369388e-10
1.44225489e-13
6.222630966e-10
1.717582584e-13
6.76280793e-10
2.001758759e-13
7.268484514e-10
2.290624207e-13
7.741186729e-10
2.581662195e-13
8.182382268e-10
2.870751943e-13
8.593485283e-10
3.155095665e-13
8.975855525e-10
3.431976007e-13
9.330800002e-10
3.697980047e-13
9.659577441e-10
3.951791434e-13
9.963394722e-10
4.1898139e-13
1.024341462e-09
4.411457841e-13
1.050075091e-09
4.613456987e-13
1.073647626e-09
4.795602241e-13
1.095161737e-09
4.955351541e-13
1.11471627e-09
5.092480971e-13
1.132405739e-09
5.205517082e-13
1.148321135e-09
5.293484124e-13
1.16254946e-09
5.356309962e-13
1.175174338e-09
5.392551387e-13
1.186275801e-09
5.403447356e-13
1.195930495e-09
5.386726778e-13
1.204212114e-09
5.344345071e-13
1.211190897e-09
5.274664739e-13
1.216934521e-09
5.178971092e-13
1.221507375e-09
5.057089197e-13
1.224971509e-09
4.909191023e-13
1.22738594e-09
1.228807378e-09
2.247110448e-15
4.560486729e-11
8.796365371e-15
1.33447068e-10
1.932405821e-14
2.163947157e-10
3.347072321e-14
2.946517778e-10
5.087976281e-14
3.684152327e-10
7.11518428e-14
4.378752267e-10
9.386923804e-14
5.032152203e-10
1.186229033e-13
5.646121851e-10
1.450500314e-13
6.222366695e-10
1.727355482e-13
6.762531075e-10
2.012606793e-13
7.268199263e-10
2.303338188e-13
7.740895998e-10
2.595560222e-13
8.182090046e-10
2.885762722e-13
8.59319508e-10
3.171645107e-13
8.975569643e-10
3.449066326e-13
9.330522581e-10
3.716754854e-13
9.659309753e-10
3.970737568e-13
9.96314074e-10
4.21027965e-13
1.024317508e-09
4.431706898e-13
1.050052949e-09
4.634916202e-13
1.073627305e-09
4.816537058e-13
1.095143575e-09
4.977045265e-13
1.114700219e-09
5.11346314e-13
1.132392098e-09
5.226523772e-13
1.148309829e-09
5.313646588e-13
1.162540747e-09
5.375772359e-13
1.175168125e-09
5.411564751e-13
1.186272222e-09
5.42098194e-13
1.195929553e-09
5.404125856e-13
1.204213799e-09
5.359925662e-13
1.211195317e-09
5.29001695e-13
1.216941511e-09
5.192334192e-13
1.221517144e-09
5.069476001e-13
1.224983794e-09
4.920075937e-13
1.22740088e-09
4.745829031e-13
1.228824803e-09
4.546520676e-13
1.229310018e-09
4.322744706e-13
1.228908151e-09
4.075743441e-13
1.227668937e-09
3.804967971e-13
1.225639733e-09
3.512906736e-13
1.222865827e-09
3.198061197e-13
1.219390706e-09
2.863434325e-13
1.215255551e-09
2.50766225e-13
1.21050022e-09
2.133543672e-13
1.20516222e-09
1.740292095e-13
1.199277938e-09
1.329961756e-13
1.192881561e-09
9.022983471e-14
1.186006318e-09
4.589442447e-14
1.17868334e-09
1.170942874e-09
2.263942221e-15
4.560260334e-11
8.863112498e-15
1.334404689e-10
1.947736278e-14
2.163841015e-10
3.374683482e-14
2.946375084e-10
5.128560547e-14
3.68397694e-10
7.169453774e-14
4.378548178e-10
9.455913126e-14
5.031923557e-10
1.195224301e-13
5.645872219e-10
1.461322183e-13
6.222100597e-10
1.739729876e-13
6.762252667e-10
2.027217661e-13
7.267911775e-10
2.319775332e-13
7.74060344e-10
2.613466956e-13
8.181796354e-10
2.906020905e-13
8.592902526e-10
3.192944873e-13
8.975282719e-10
3.472447929e-13
9.330243078e-10
3.740904225e-13
9.659041297e-10
3.996426079e-13
9.962885218e-10
4.236346051e-13
1.024293516e-09
4.458919806e-13
1.050030691e-09
4.662078217e-13
1.073606989e-09
4.844594449e-13
1.095125323e-09
5.004663174e-13
1.114684212e-09
5.141836281e-13
1.13237838e-09
5.253846135e-13
1.148298628e-09
5.341543235e-13
1.162531978e-09
5.402380638e-13
1.175162041e-09
5.437957705e-13
1.186268664e-09
5.44594782e-13
1.195928754e-09
5.427943096e-13
1.2042156e-09
5.382645514e-13
1.211199847e-09
5.310670652e-13
1.216948709e-09
5.21232112e-13
1.221526979e-09
5.087239901e-13
1.224996303e-09
4.937203284e-13
1.227415884e-09
4.760584189e-13
1.228842464e-09
4.560062654e-13
1.229330071e-09
4.334240934e-13
1.228930733e-09
4.085479315e-13
1.227693813e-09
3.813268683e-13
1.225666954e-09
3.519052058e-13
1.222895249e-09
3.20333354e-13
1.219422278e-09
2.866621405e-13
1.215289222e-09
2.510403401e-13
1.210535842e-09
2.134564935e-13
1.205199804e-09
1.741179348e-13
1.199317277e-09
1.329539758e-13
1.192922725e-09
9.021751281e-14
1.186049054e-09
4.580621261e-14
1.178727751e-09
1.17098868e-09
2.285663375e-15
4.560031768e-11
8.946144372e-15
1.334338084e-10
1.965234384e-14
2.163733953e-10
3.404091813e-14
2.946231198e-10
5.172167931e-14
3.683800132e-10
7.23020613e-14
4.378342374e-10
9.539659573e-14
5.031692612e-10
1.205465356e-13
5.645620719e-10
1.47337904e-13
6.221832683e-10
1.754253111e-13
6.761971793e-10
2.043925042e-13
7.267622103e-10
2.338255881e-13
7.740309109e-10
2.634719532e-13
8.18149989e-10
2.92870581e-13
8.59260854e-10
3.217638028e-13
8.974993787e-10
3.498626342e-13
9.32996209e-10
3.768375968e-13
9.658771547e-10
4.025311559e-13
9.962628282e-10
4.265912345e-13
1.024269456e-09
4.489591176e-13
1.050008323e-09
4.693001077e-13
1.073586648e-09
4.876128476e-13
1.095107011e-09
5.036250558e-13
1.1146682e-09
5.173177269e-13
1.132364688e-09
5.285070044e-13
1.148287439e-09
5.371740376e-13
1.162523311e-09
5.432565988e-13
1.175155959e-09
5.466620077e-13
1.186265259e-09
5.47456011e-13
1.19592796e-09
5.454626444e-13
1.204217593e-09
5.408705155e-13
1.211204439e-09
5.334610866e-13
1.216956118e-09
5.234856898e-13
1.221536954e-09
5.108186952e-13
1.22500897e-09
4.955920142e-13
1.22743111e-09
4.778107265e-13
1.228860246e-09
4.575081583e-13
1.229350373e-09
4.34828883e-13
1.228953412e-09
4.09698497e-13
1.227718943e-09
3.823845942e-13
1.225694268e-09
3.527229975e-13
1.22292491e-09
3.210292246e-13
1.219453972e-09
2.871719005e-13
1.21532308e-09
2.514227854e-13
1.210571591e-09
2.137200972e-13
1.205237507e-09
1.742632596e-13
1.199356734e-09
1.330451231e-13
1.192963943e-09
9.022439041e-14
1.186091875e-09
4.583164112e-14
1.178772144e-09
1.171034512e-09
2.305554901e-15
4.559801213e-11
9.024867261e-15
1.334270891e-10
1.982329414e-14
2.163625969e-10
3.433892602e-14
2.946086042e-10
5.219340784e-14
3.683621587e-10
7.296884168e-14
4.378134619e-10
9.623592655e-14
5.031459941e-10
1.215688545e-13
5.64536739e-10
1.486103116e-13
6.221562269e-10
1.76920123e-13
6.761688695e-10
2.060732804e-13
7.267330572e-10
2.357713042e-13
7.740012129e-10
2.655779837e-13
8.181201824e-10
2.951469618e-13
8.59231285e-10
3.242413212e-13
8.974702843e-10
3.52437501e-13
9.329680128e-10
3.79612813e-13
9.658499794e-10
4.053473022e-13
9.962370937e-10
4.295802349e-13
1.024245223e-09
4.51937474e-13
1.049985966e-09
4.724091605e-13
1.073566176e-09
4.906726944e-13
1.095088747e-09
5.067671403e-13
1.114652106e-09
5.203577643e-13
1.132351097e-09
5.315678227e-13
1.148276229e-09
5.401114839e-13
1.162514767e-09
5.461404752e-13
1.17514993e-09
5.494358426e-13
1.186261964e-09
5.500860793e-13
1.19592731e-09
5.480043018e-13
1.204219675e-09
5.431999951e-13
1.211209244e-09
5.357328532e-13
1.216963586e-09
5.255297542e-13
1.221547157e-09
5.127883995e-13
1.225021711e-09
4.973201586e-13
1.227446578e-09
4.794050203e-13
1.228878161e-09
4.589022852e-13
1.229370876e-09
4.360344658e-13
1.22897628e-09
4.107606149e-13
1.227744217e-09
3.832176404e-13
1.225721811e-09
3.534639399e-13
1.222954664e-09
3.215480201e-13
1.219485888e-09
2.87626315e-13
1.215357001e-09
2.516872828e-13
1.21060753e-09
2.139472346e-13
1.205275247e-09
1.74337278e-13
1.199396344e-09
1.331213642e-13
1.193005159e-09
9.019955754e-14
1.186134797e-09
4.586653763e-14
1.178816477e-09
1.171080378e-09
2.325033008e-15
4.559568709e-11
9.101636427e-15
1.334203125e-10
1.999871951e-14
2.163516998e-10
3.464214502e-14
2.945939607e-10
5.263168691e-14
3.683441692e-10
7.355177901e-14
4.377925419e-10
9.697601019e-14
5.031225699e-10
1.225347459e-13
5.645111802e-10
1.497643457e-13
6.221289973e-10
1.782357274e-13
6.761403981e-10
2.076138208e-13
7.267036791e-10
2.374719077e-13
7.739713548e-10
2.673981021e-13
8.180902562e-10
2.971820872e-13
8.592015011e-10
3.263541765e-13
8.974411122e-10
3.547213815e-13
9.329396456e-10
3.819325903e-13
9.658227682e-10
4.077733695e-13
9.962112529e-10
4.320079351e-13
1.024220989e-09
4.544215728e-13
1.049963553e-09
4.748618844e-13
1.073545736e-09
4.931488496e-13
1.09507046e-09
5.091419763e-13
1.114636113e-09
5.227364544e-13
1.132337503e-09
5.338135599e-13
1.148265152e-09
5.423653189e-13
1.162506215e-09
5.482252452e-13
1.17514407e-09
5.514994908e-13
1.186258689e-09
5.519555765e-13
1.195926854e-09
5.497983246e-13
1.204221832e-09
5.448107409e-13
1.211214231e-09
5.372073594e-13
1.216971189e-09
5.268787192e-13
1.221557486e-09
5.139338019e-13
1.225034656e-09
4.983858274e-13
1.227462126e-09
4.802562132e-13
1.22889629e-09
4.596916219e-13
1.229391441e-09
4.366133009e-13
1.228999358e-09
4.112879562e-13
1.227769542e-09
3.835527987e-13
1.225749546e-09
3.53727824e-13
1.222984489e-09
3.216760902e-13
1.21951794e-09
2.876767974e-13
1.215391001e-09
2.516661643e-13
1.21064354e-09
2.13853279e-13
1.20531306e-09
1.742305502e-13
1.199435966e-09
1.329671415e-13
1.193046422e-09
9.009564646e-14
1.186177668e-09
4.576018741e-14
1.178860812e-09
1.171126139e-09
2.340995554e-15
4.55933461e-11
9.162448314e-15
1.33413491e-10
2.012412475e-14
2.163407381e-10
3.484925588e-14
2.945792356e-10
5.293198445e-14
3.683260865e-10
7.397027036e-14
4.377715036e-10
9.756196465e-14
5.030989782e-10
1.232378153e-13
5.644855044e-10
1.505693683e-13
6.221016657e-10
1.79194602e-13
6.761117729e-10
2.086825742e-13
7.266741911e-10
2.385962288e-13
7.739414411e-10
2.686778485e-13
8.180601745e-10
2.98482438e-13
8.591716965e-10
3.277173711e-13
8.974118773e-10
3.561123528e-13
9.329112506e-10
3.833015229e-13
9.65795579e-10
4.09170516e-13
9.96185384e-10
4.33322484e-13
1.024196837e-09
4.557481765e-13
1.049941127e-09
4.76074553e-13
1.07352541e-09
4.943336568e-13
1.095052201e-09
5.101757756e-13
1.114620271e-09
5.237049048e-13
1.132323973e-09
5.346494316e-13
1.148254207e-09
5.430859641e-13
1.162497779e-09
5.488381731e-13
1.175138318e-09
5.519367665e-13
1.186255591e-09
5.523224462e-13
1.195926468e-09
5.499663356e-13
1.204224188e-09
5.449419127e-13
1.211219256e-09
5.371512303e-13
1.21697898e-09
5.267955282e-13
1.221567841e-09
5.136746048e-13
1.225047777e-09
4.980699167e-13
1.227477731e-09
4.798300158e-13
1.22891453e-09
4.591777233e-13
1.229412093e-09
4.360622993e-13
1.229022474e-09
4.106278313e-13
1.227794977e-09
3.829209691e-13
1.225777253e-09
3.530011222e-13
1.223014409e-09
3.210124134e-13
1.219549928e-09
2.869570893e-13
1.215425056e-09
2.510405134e-13
1.210679457e-09
2.132090515e-13
1.205350891e-09
1.737176558e-13
1.199475458e-09
1.324819384e-13
1.193087658e-09
8.979009122e-14
1.18622036e-09
4.553367494e-14
1.178905069e-09
1.171171672e-09
2.346180441e-15
4.559099992e-11
9.18329313e-15
1.334066539e-10
2.016669901e-14
2.163297547e-10
3.492484669e-14
2.945644775e-10
5.30637938e-14
3.683079475e-10
7.4160792e-14
4.377504066e-10
9.777036856e-14
5.030753686e-10
1.234546648e-13
5.644598201e-10
1.508364285e-13
6.22074284e-10
1.794717484e-13
6.760831376e-10
2.089099266e-13
7.266447529e-10
2.38841789e-13
7.739115093e-10
2.688557539e-13
8.180301606e-10
2.985643156e-13
8.591419879e-10
3.277593037e-13
8.973826823e-10
3.55989875e-13
9.3288302e-10
3.83132644e-13
9.657684362e-10
4.087956119e-13
9.96159721e-10
4.32868981e-13
1.024172763e-09
4.550680853e-13
1.049918928e-09
4.7529207e-13
1.073505186e-09
4.932950067e-13
1.095034198e-09
5.090378873e-13
1.114604528e-09
5.223175068e-13
1.132310694e-09
5.331699564e-13
1.148243355e-09
5.413657236e-13
1.162489583e-09
5.47039931e-13
1.175132643e-09
5.499179252e-13
1.186252713e-09
5.502134332e-13
1.195926173e-09
5.477036801e-13
1.204226698e-09
5.425795966e-13
1.21122438e-09
5.347318851e-13
1.216986827e-09
5.242600654e-13
1.221578313e-09
5.111681384e-13
1.225060869e-09
4.954777091e-13
1.227493422e-09
4.773195194e-13
1.228932689e-09
4.566232409e-13
1.229432789e-09
4.336346913e-13
1.229045462e-09
4.082054278e-13
1.227820406e-09
3.806478353e-13
1.225804811e-09
3.508072733e-13
1.22304425e-09
3.189827824e-13
1.219581753e-09
2.850880963e-13
1.215458951e-09
2.493544074e-13
1.210715191e-09
2.117530764e-13
1.205388492e-09
1.724764073e-13
1.199514734e-09
1.315385048e-13
1.193128596e-09
8.91073027e-14
1.186262791e-09
4.520693059e-14
1.178948969e-09
1.171216879e-09
2.339460427e-15
4.558866046e-11
9.157745714e-15
1.333998356e-10
2.011634886e-14
2.163187961e-10
3.483937732e-14
2.945497544e-10
5.291419919e-14
3.682898727e-10
7.39168427e-14
4.377294039e-10
9.740788422e-14
5.030518776e-10
1.230038929e-13
5.644342241e-10
1.502443038e-13
6.220470436e-10
1.786751498e-13
6.760547067e-10
2.079478513e-13
7.266154802e-10
2.376678615e-13
7.738817893e-10
2.673960905e-13
8.180004324e-10
2.969118594e-13
8.591124721e-10
3.257714086e-13
8.973538227e-10
3.537414213e-13
9.3285505e-10
3.805426652e-13
9.65741635e-10
4.058904543e-13
9.961343732e-10
4.296446442e-13
1.024149009e-09
4.515076261e-13
1.049897065e-09
4.714159888e-13
1.073485277e-09
4.890880574e-13
1.095016526e-09
5.045355239e-13
1.11458908e-09
5.175394683e-13
1.13229769e-09
5.281104343e-13
1.148232784e-09
5.361051575e-13
1.162481588e-09
5.415104669e-13
1.175127238e-09
5.442824126e-13
1.186249941e-09
5.443667882e-13
1.195926088e-09
5.418371321e-13
1.204229228e-09
5.365837216e-13
1.211229633e-09
5.28795869e-13
1.216994615e-09
5.182743514e-13
1.221588835e-09
5.052918784e-13
1.225073851e-09
4.896763439e-13
1.227509037e-09
4.716623649e-13
1.228950703e-09
4.511695086e-13
1.229453282e-09
4.283608371e-13
1.229068271e-09
4.03250674e-13
1.227845516e-09
3.759200669e-13
1.225832142e-09
3.464796248e-13
1.22307369e-09
3.14956327e-13
1.219613276e-09
2.815235499e-13
1.215492383e-09
2.461539352e-13
1.21075056e-09
2.090725316e-13
1.205425574e-09
1.702220654e-13
1.199553585e-09
1.29864207e-13
1.193168954e-09
8.791889743e-14
1.186304737e-09
4.465297862e-14
1.178992235e-09
1.171261532e-09
2.316400512e-15
4.558634406e-11
9.065994072e-15
1.33393086e-10
1.99075783e-14
2.163079545e-10
3.446200945e-14
2.945352e-10
5.232102022e-14
3.682720137e-10
7.30713528e-14
4.377086536e-10
9.630575783e-14
5.030286432e-10
1.215638411e-13
5.64408966e-10
1.483975936e-13
6.220202098e-10
1.764317346e-13
6.760266726e-10
2.052763075e-13
7.265866357e-10
2.344712542e-13
7.738525943e-10
2.637354696e-13
8.179711681e-10
2.926868778e-13
8.590835207e-10
3.209733866e-13
8.973255362e-10
3.48410475e-13
9.328276129e-10
3.745778214e-13
9.657154676e-10
3.99424697e-13
9.961095263e-10
4.225498692e-13
1.024125884e-09
4.439308945e-13
1.049875684e-09
4.632307905e-13
1.073465977e-09
4.804735237e-13
1.094999283e-09
4.953842234e-13
1.11457417e-09
5.080383994e-13
1.132285036e-09
5.181596861e-13
1.148222662e-09
5.259005829e-13
1.162473847e-09
5.30965363e-13
1.175122173e-09
5.335690529e-13
1.186247337e-09
5.334786521e-13
1.195926179e-09
5.308746422e-13
1.204231832e-09
5.256345336e-13
1.211234873e-09
5.178610469e-13
1.217002389e-09
5.075332514e-13
1.221599163e-09
4.946832859e-13
1.225086701e-09
4.794085237e-13
1.227524312e-09
4.616574033e-13
1.228968454e-09
4.41634498e-13
1.229473305e-09
4.192157809e-13
1.22909069e-09
3.946850848e-13
1.227870047e-09
3.678700663e-13
1.225858957e-09
3.390908189e-13
1.223102469e-09
3.082161641e-13
1.219644151e-09
2.755079742e-13
1.215525092e-09
2.408935331e-13
1.210785175e-09
2.045970968e-13
1.20546187e-09
1.665912955e-13
1.199591591e-09
1.27077763e-13
1.193208467e-09
8.604364699e-14
1.186345771e-09
4.368363783e-14
1.179034595e-09
1.171305216e-09
2.266570187e-15
4.558407749e-11
8.871246175e-15
1.333864814e-10
1.947562945e-14
2.162973501e-10
3.370652311e-14
2.945209691e-10
5.117484042e-14
3.682545454e-10
7.147390092e-14
4.376883545e-10
9.414516121e-14
5.030059719e-10
1.187561191e-13
5.643843551e-10
1.449190121e-13
6.219940469e-10
1.722403383e-13
6.759993513e-10
2.002526368e-13
7.265586234e-10
2.286293151e-13
7.738242176e-10
2.570311455e-13
8.179427663e-10
2.85031439e-13
8.590555204e-10
3.124655047e-13
8.972981022e-10
3.389172644e-13
9.328011612e-10
3.642150261e-13
9.656901699e-10
3.881021219e-13
9.960856392e-10
4.103708679e-13
1.024103615e-09
4.30862008e-13
1.049855193e-09
4.493705873e-13
1.073447469e-09
4.65833949e-13
1.09498282e-09
4.800834922e-13
1.11455992e-09
4.920810735e-13
1.132273038e-09
5.017125193e-13
1.148213031e-09
5.089373926e-13
1.162466622e-09
5.137205274e-13
1.17511739e-09
5.159971572e-13
1.18624506e-09
5.158316413e-13
1.195926344e-09
5.131161779e-13
1.204234547e-09
5.080158956e-13
1.211239973e-09
5.003447607e-13
1.21701006e-09
4.903579235e-13
1.221609149e-09
4.778534505e-13
1.225099206e-09
4.630871956e-13
1.227539078e-09
4.459291763e-13
1.228985612e-09
4.265700023e-13
1.229492664e-09
4.049695024e-13
1.22911229e-09
3.81238411e-13
1.227893778e-09
3.554294266e-13
1.225884766e-09
3.276008217e-13
1.223130298e-09
2.978693275e-13
1.219673882e-09
2.662392111e-13
1.215556722e-09
2.328801748e-13
1.210818534e-09
1.977672707e-13
1.205496983e-09
1.611099001e-13
1.199628248e-09
1.228619133e-13
1.193246715e-09
8.324219302e-14
1.18638539e-09
4.22157854e-14
1.179075621e-09
1.171347432e-09
2.184768615e-15
4.558189272e-11
8.552112101e-15
1.33380114e-10
1.877622882e-14
2.16287126e-10
3.24980086e-14
2.945072473e-10
4.932059635e-14
3.682377228e-10
6.88255057e-14
4.376688496e-10
9.058742566e-14
5.0298421e-10
1.14221968e-13
5.643607205e-10
1.393287516e-13
6.219689401e-10
1.654463469e-13
6.759732337e-10
1.922172589e-13
7.265318524e-10
2.193326615e-13
7.737971022e-10
2.463404506e-13
8.179157585e-10
2.730107276e-13
8.590288502e-10
2.990227155e-13
8.972720902e-10
3.240677421e-13
9.327761162e-10
3.480159611e-13
9.656662217e-10
3.704979659e-13
9.960631572e-10
3.915192145e-13
1.024082594e-09
4.106924605e-13
1.049836019e-09
4.28098593e-13
1.073430063e-09
4.434135975e-13
1.094967505e-09
4.567541535e-13
1.114546579e-09
4.678172801e-13
1.132261975e-09
4.767731801e-13
1.148204075e-09
4.833247923e-13
1.162460071e-09
4.876849362e-13
1.17511303e-09
4.896144312e-13
1.186243131e-09
4.892984095e-13
1.19592666e-09
4.865925678e-13
1.204237253e-09
4.816161468e-13
1.21124495e-09
4.743103945e-13
1.217017366e-09
4.647295263e-13
1.22161873e-09
4.529212617e-13
1.225111014e-09
4.3886124e-13
1.227553138e-09
4.226927094e-13
1.22900178e-09
4.043232992e-13
1.229511033e-09
3.839701e-13
1.229132643e-09
3.614769113e-13
1.227916271e-09
3.371457189e-13
1.225909097e-09
3.10794663e-13
1.223156649e-09
2.827128448e-13
1.219701964e-09
2.527562442e-13
1.215586678e-09
2.211834705e-13
1.210850107e-09
1.878974242e-13
1.205530269e-09
1.531362807e-13
1.199663009e-09
1.168218447e-13
1.19328303e-09
7.918338991e-14
1.186423029e-09
4.016328711e-14
1.179114641e-09
1.171387595e-09
2.065256498e-15
4.557982746e-11
8.082313336e-15
1.33374097e-10
1.773571917e-14
2.162774726e-10
3.067209044e-14
2.944943109e-10
4.651019908e-14
3.682218847e-10
6.484634408e-14
4.376505135e-10
8.531406963e-14
5.029637423e-10
1.075090861e-13
5.643385255e-10
1.309897187e-13
6.219454595e-10
1.553836679e-13
6.759488397e-10
1.803959851e-13
7.265068401e-10
2.055810149e-13
7.737719172e-10
2.306525053e-13
8.17890687e-10
2.553664663e-13
8.590041362e-10
2.79328347e-13
8.972481283e-10
3.024469495e-13
9.327529976e-10
3.243770802e-13
9.656442915e-10
3.450095684e-13
9.960425247e-10
3.641223877e-13
1.024063481e-09
3.815936077e-13
1.049818548e-09
3.973137556e-13
1.073414343e-09
4.111720414e-13
1.094953647e-09
4.231058706e-13
1.114534646e-09
4.33035979e-13
1.132252045e-09
4.409167499e-13
1.148196194e-09
4.467245508e-13
1.162454263e-09
4.504032255e-13
1.175109351e-09
4.520065016e-13
1.186241528e-09
4.514457977e-13
1.195927221e-09
4.488559467e-13
1.204239843e-09
4.44078766e-13
1.211249727e-09
4.373294493e-13
1.217024115e-09
4.284025491e-13
1.221627657e-09
4.17566547e-13
1.22512185e-09
4.046242057e-13
1.22756608e-09
3.898003545e-13
1.229016604e-09
3.729781048e-13
1.229527856e-09
3.543014048e-13
1.22915132e-09
3.337378181e-13
1.227936835e-09
3.113802649e-13
1.225931454e-09
2.872594189e-13
1.22318077e-09
2.614119966e-13
1.219727812e-09
2.339219016e-13
1.215614168e-09
2.047955987e-13
1.210879233e-09
1.741595974e-13
1.205560905e-09
1.420013398e-13
1.199695168e-09
1.084618452e-13
1.193316569e-09
7.353829314e-14
1.186457952e-09
3.738054417e-14
1.179150799e-09
1.171424976e-09
1.892441218e-15
4.557793502e-11
7.405742125e-15
1.333685837e-10
1.624316329e-14
2.162686352e-10
2.806819388e-14
2.944824859e-10
4.253148749e-14
3.682074214e-10
5.927115958e-14
4.376337738e-10
7.790414066e-14
5.029451093e-10
9.802160844e-14
5.64318408e-10
1.192550196e-13
6.219242261e-10
1.413080746e-13
6.759267867e-10
1.63774069e-13
7.264843741e-10
1.863180511e-13
7.737493732e-10
2.087536513e-13
8.178682514e-10
2.306804911e-13
8.589822094e-10
2.519344028e-13
8.972268744e-10
2.723005897e-13
9.327326314e-10
2.915318417e-13
9.656250603e-10
3.095743578e-13
9.960244822e-10
3.261212105e-13
1.024046934e-09
3.41270207e-13
1.049803399e-09
3.547111845e-13
1.073400902e-09
3.666037243e-13
1.094941754e-09
3.766480123e-13
1.114524601e-09
3.850469708e-13
1.132243646e-09
3.915203385e-13
1.148189721e-09
3.962963396e-13
1.162449487e-09
3.991385228e-13
1.175106509e-09
4.002578475e-13
1.186240408e-09
3.994882339e-13
1.195927991e-09
3.96983104e-13
1.204242348e-09
3.926397249e-13
1.21125407e-09
3.865484214e-13
1.217030206e-09
3.786943962e-13
1.221635511e-09
3.690911798e-13
1.225131453e-09
3.57802326e-13
1.227577369e-09
3.447722452e-13
1.229029634e-09
3.301279813e-13
1.2295425e-09
3.137460618e-13
1.229167702e-09
2.958298307e-13
1.227954751e-09
2.762051458e-13
1.225951079e-09
2.551217828e-13
1.223201853e-09
2.323776705e-13
1.219750556e-09
2.082365544e-13
1.21563831e-09
1.825057256e-13
1.210904964e-09
1.554508729e-13
1.20558796e-09
1.26894082e-13
1.199723724e-09
9.709438432e-14
1.193346369e-09
6.590326884e-14
1.186489143e-09
3.358692261e-14
1.179183115e-09
1.171458562e-09
1.656659026e-15
4.557627836e-11
6.483417853e-15
1.333637569e-10
1.421422228e-14
2.162609044e-10
2.454816913e-14
2.94472152e-10
3.716522092e-14
3.681948043e-10
5.170958974e-14
4.376192294e-10
6.782026092e-14
5.029289986e-10
8.515161495e-14
5.643010767e-10
1.034129595e-13
6.219059647e-10
1.222383292e-13
6.759079613e-10
1.41283586e-13
7.264653289e-10
1.603655847e-13
7.737302912e-10
1.791575237e-13
8.178494595e-10
1.974122069e-13
8.589639547e-10
2.150337891e-13
8.972092528e-10
2.316979019e-13
9.327159673e-10
2.474025135e-13
9.656093557e-10
2.618976689e-13
9.960099871e-10
2.75169229e-13
1.024033663e-09
2.871002005e-13
1.049791468e-09
2.976597637e-13
1.073390342e-09
3.067978956e-13
1.094932616e-09
3.144903471e-13
1.114516909e-09
3.207192013e-13
1.132237417e-09
3.254890066e-13
1.148184951e-09
3.287815672e-13
1.162446194e-09
3.306510344e-13
1.17510464e-09
3.310536312e-13
1.186240006e-09
3.300986124e-13
1.195928946e-09
3.276765419e-13
1.20424477e-09
3.239520705e-13
1.211257795e-09
3.187574891e-13
1.217035401e-09
3.123259661e-13
1.221641943e-09
3.044257444e-13
1.225139353e-09
2.953072215e-13
1.227586488e-09
2.847568547e-13
1.229040185e-09
2.729532441e-13
1.229554304e-09
2.597519036e-13
1.229180903e-09
2.452762625e-13
1.227969227e-09
2.294376116e-13
1.225966918e-09
2.122995556e-13
1.223218991e-09
1.93821468e-13
1.219769034e-09
1.740334463e-13
1.215658098e-09
1.529374538e-13
1.21092606e-09
1.305448738e-13
1.205610353e-09
1.068762797e-13
1.199747393e-09
8.195014965e-14
1.193371295e-09
5.580554017e-14
1.186515288e-09
2.847918904e-14
1.179210442e-09
1.171487042e-09
1.348618949e-15
4.557492974e-11
5.276287047e-15
1.333598292e-10
1.155508565e-14
2.162546256e-10
1.991924114e-14
2.944637878e-10
3.007268917e-14
3.681846509e-10
4.170687658e-14
4.376075952e-10
5.451975528e-14
5.029161857e-10
6.823763188e-14
5.642873588e-10
8.253930451e-14
6.218916631e-10
9.710968851e-14
6.758933909e-10
1.117581663e-13
7.264506804e-10
1.2623934e-13
7.737158101e-10
1.402672422e-13
8.178354316e-10
1.537929314e-13
8.58950429e-10
1.665681134e-13
8.971964776e-10
1.78501144e-13
9.327040342e-10
1.895200986e-13
9.655983367e-10
1.99460679e-13
9.960000465e-10
2.084218296e-13
1.024024702e-09
2.161993785e-13
1.049783691e-09
2.22992217e-13
1.073383549e-09
2.285700274e-13
1.094927038e-09
2.331921353e-13
1.114512287e-09
2.366272739e-13
1.132233982e-09
2.391559443e-13
1.148182423e-09
2.405659224e-13
1.162444784e-09
2.411271078e-13
1.175104078e-09
2.406662897e-13
1.186240467e-09
2.393988383e-13
1.195930213e-09
2.371845403e-13
1.204246984e-09
2.341709676e-13
1.211260808e-09
2.302779946e-13
1.217039294e-09
2.255726121e-13
1.221646648e-09
2.200254966e-13
1.2251449e-09
2.136277221e-13
1.227592886e-09
2.063956131e-13
1.229047417e-09
1.982380762e-13
1.229562461e-09
1.892311618e-13
1.22918991e-09
1.792259533e-13
1.227979232e-09
1.683359272e-13
1.225977808e-09
1.563589748e-13
1.223230968e-09
1.434481294e-13
1.219781945e-09
1.293732706e-13
1.215672172e-09
1.143225462e-13
1.21094111e-09
9.805212671e-14
1.205626623e-09
8.075674186e-14
1.199764688e-09
6.222091931e-14
1.193389831e-09
4.264756074e-14
1.186534861e-09
2.184141603e-14
1.179231248e-09
1.171508883e-09
9.508732672e-16
4.557397887e-11
3.717241914e-15
1.333570629e-10
8.113445855e-15
2.162502294e-10
1.392161115e-14
2.944579797e-10
2.089754504e-14
3.681776749e-10
2.88052235e-14
4.375996876e-10
3.740463674e-14
5.029075863e-10
4.642819342e-14
5.642783352e-10
5.561062467e-14
6.218824806e-10
6.477718185e-14
6.758842243e-10
7.375537162e-14
7.264417022e-10
8.228435787e-14
7.737072811e-10
9.030094378e-14
8.17827415e-10
9.768986253e-14
8.589430401e-10
1.042854684e-13
8.97189882e-10
1.101751541e-13
9.326981445e-10
1.151527508e-13
9.655933591e-10
1.193535133e-13
9.959958457e-10
1.227027658e-13
1.024021352e-09
1.252929269e-13
1.0497811e-09
1.271370875e-13
1.073381705e-09
1.283058693e-13
1.094925869e-09
1.288589109e-13
1.114511734e-09
1.288639288e-13
1.132233977e-09
1.283875086e-13
1.148182899e-09
1.275133812e-13
1.162445659e-09
1.262830878e-13
1.175105309e-09
1.248025105e-13
1.186241947e-09
1.230448547e-13
1.195931971e-09
1.211370763e-13
1.204248892e-09
1.189832966e-13
1.211262962e-09
1.167485856e-13
1.217041528e-09
1.142417069e-13
1.221649155e-09
1.116715067e-13
1.225147471e-09
1.08777735e-13
1.227595779e-09
1.0575256e-13
1.229050442e-09
1.0231647e-13
1.229565897e-09
9.861897223e-14
1.229193608e-09
9.44191958e-14
1.227983432e-09
8.979358191e-14
1.225982433e-09
8.453508824e-14
1.223236227e-09
7.867828237e-14
1.219787801e-09
7.205033711e-14
1.2156788e-09
6.466434567e-14
1.210948496e-09
5.636507187e-14
1.205634922e-09
4.716665607e-14
1.199773887e-09
3.69405057e-14
1.193400057e-09
2.572198366e-14
1.18654608e-09
1.338189753e-14
1.179243588e-09
1.171522265e-09
4.440618991e-16
4.557353481e-11
1.73194133e-15
1.33355775e-10
3.736121845e-15
2.162482252e-10
6.306202683e-15
2.944554096e-10
9.278773535e-15
3.681747024e-10
1.247895373e-14
4.375964874e-10
1.570504527e-14
5.029043602e-10
1.876302313e-14
5.642752773e-10
2.151879015e-14
6.218797249e-10
2.386813832e-14
6.75881875e-10
2.561117852e-14
7.264399592e-10
2.668838821e-14
7.737062039e-10
2.711066752e-14
8.178269927e-10
2.6721402e-14
8.589434293e-10
2.562274737e-14
8.971909807e-10
2.378956426e-14
9.326999777e-10
2.125000406e-14
9.655958987e-10
1.816536727e-14
9.959989304e-10
1.449773178e-14
1.02402502e-09
1.052964726e-14
1.049785069e-09
6.169385662e-15
1.073386065e-09
1.768526676e-15
1.09493027e-09
-2.785678904e-15
1.114516288e-09
-7.123993801e-15
1.132238315e-09
-1.136942338e-14
1.148187144e-09
-1.515638818e-14
1.162449446e-09
-1.862386205e-14
1.175108776e-09
-2.145255931e-14
1.186244776e-09
-2.379369913e-14
1.195934312e-09
-2.540608506e-14
1.204250505e-09
-2.641972162e-14
1.211263976e-09
-2.668760613e-14
1.217041796e-09
-2.633042652e-14
1.221648798e-09
-2.529225672e-14
1.225146432e-09
-2.368013628e-14
1.227594167e-09
-2.154284376e-14
1.229048305e-09
-1.895679082e-14
1.229563311e-09
-1.604974701e-14
1.229190701e-09
-1.288041422e-14
1.227980262e-09
-9.650089155e-15
1.225979203e-09
-6.395078613e-15
1.223232972e-09
-3.359017834e-15
1.219784765e-09
-5.53487437e-16
1.215675995e-09
1.753109574e-15
1.21094619e-09
3.56032281e-15
1.205633115e-09
4.616114493e-15
1.199772831e-09
4.935201397e-15
1.193399738e-09
4.292806244e-15
1.186546722e-09
2.703915236e-15
1.179245177e-09
1.171524969e-09
-1.904139594e-16
4.557372522e-11
-7.526077868e-16
1.333563372e-10
-1.733749393e-15
2.162492063e-10
-3.201787995e-15
2.944568776e-10
-5.23628025e-15
3.681767369e-10
-7.954493845e-15
4.375992056e-10
-1.145730089e-14
5.02907863e-10
-1.58095135e-14
5.642796295e-10
-2.104907221e-14
6.218849644e-10
-2.727432132e-14
6.758881002e-10
-3.451715277e-14
7.26447202e-10
-4.267766192e-14
7.737143644e-10
-5.179686619e-14
8.178361119e-10
-6.179210077e-14
8.589534246e-10
-7.249216184e-14
8.972016807e-10
-8.392047363e-14
9.32711406e-10
-9.575407652e-14
9.656077323e-10
-1.079520939e-13
9.960111284e-10
-1.202353503e-13
1.024037303e-09
-1.324582821e-13
1.049797292e-09
-1.443928477e-13
1.073398e-09
-1.558343496e-13
1.094941712e-09
-1.665938542e-13
1.114527047e-09
-1.764540599e-13
1.132248175e-09
-1.852511357e-13
1.148195941e-09
-1.92795313e-13
1.16245699e-09
-1.989416375e-13
1.175114923e-09
-2.035791129e-13
1.186249413e-09
-2.065846687e-13
1.195937317e-09
-2.079383258e-13
1.204251858e-09
-2.075205266e-13
1.211263558e-09
-2.054273566e-13
1.217039703e-09
-2.015412813e-13
1.221644912e-09
-1.960697073e-13
1.225140961e-09
-1.889102169e-13
1.227587008e-09
-1.803729655e-13
1.229039767e-09
-1.703540262e-13
1.229553292e-09
-1.592258514e-13
1.229179573e-09
-1.46938875e-13
1.227967975e-09
-1.338963146e-13
1.22596616e-09
-1.200883103e-13
1.223219164e-09
-1.059147402e-13
1.219770592e-09
-9.139634487e-14
1.215661476e-09
-7.69273011e-14
1.210931721e-09