/*--------------------------------*- C++ -*----------------------------------*\
  =========                 |
  \\      /  F ield         | OpenFOAM: The Open Source CFD Toolbox
   \\    /   O peration     | Website:  https://openfoam.org
    \\  /    A nd           | Version:  7
     \\/     M anipulation  |
\*---------------------------------------------------------------------------*/
FoamFile
{
    version     2.0;
    format      ascii;
    class       volScalarField;
    location    "0.0009";
    object      thermo:mu;
}
// * * * * * * * * * * * * * * * * * * * * * * * * * * * * * * * * * * * * * //

dimensions      [1 -1 -1 0 0 0 0];

internalField   nonuniform List<scalar> 
1167
(
1547387.954
1539459.799
1522623.525
1498139.175
1466997.344
1430098.163
1388377.713
1342751.371
1294137.968
1243343.109
1191085.296
1138087.559
1084922.169
1032072.085
980033.596
929092.8875
879602.4268
831734.9476
785697.1628
741576.9076
699478.4309
659412.5358
621418.4449
585446.2937
551496.129
519480.748
489372.6939
461069.1556
434509.7438
409603.2535
386266.996
364422.7432
343974.0557
324856.4322
306969.945
290252.3534
1477167.251
1469692.383
1453816.876
1430722.989
1401297.429
1366422.02
1326976.793
1283881.484
1237908.235
1189820.193
1140369.414
1090172.755
1039756.142
989671.6606
940263.8463
891912.5517
844876.4985
799370.1569
755564.8592
713562.5185
673451.3406
635259.1824
599005.1043
564672.4686
532227.4349
501634.848
472819.9392
445736.4348
420286.5412
396421.0591
374038.3049
353074.7114
333443.4562
315068.4139
297877.4649
281788.9
266745.9902
252667.9288
239503.9491
227183.2354
215656.1634
204865.03
194761.4621
185299.2405
176431.9309
168121.9534
160326.6402
153015.6659
146150.307
139705.5497
1411891.803
1404822.276
1389806.227
1367959.1
1340116.113
1307131.655
1269841.441
1229027.929
1185465.266
1139925.748
1093050.903
1045412.984
997597.3638
950016.661
903073.8284
857109.1147
812347.4964
769042.9135
727297.4023
687278.0049
649003.1414
612563.5171
577927.0904
545120.5402
514089.4384
484813.425
457223.8977
431265.258
406871.4235
383964.2578
362484.0276
342338.7006
323476.0072
305802.173
289259.685
273771.8982
259276.5757
245711.1033
233011.0323
221126.6937
209994.406
199574.9442
189809.6312
180663.1943
172085.8736
164044.5209
156498.3293
149416.7707
142765.6344
136517.4148
1351059.658
1344364.3
1330141.716
1309466.473
1283124.662
1251886.411
1216531.256
1177822.14
1136541.853
1093334.454
1048814.196
1003594.878
958145.8185
912894.5498
868256.4657
824478.8966
781868.3081
740574.0961
700782.2292
662572.2674
626039.9171
591203.3036
558098.4246
526695.8274
497000.1437
468941.524
442504.0225
417599.5985
394189.8828
372192.5315
351548.7308
332185.7223
314031.446
297023.9254
281084.8542
266164.7468
252186.069
239101.3038
226844.0402
215366.3413
204613.6773
194538.9093
185098.0825
176245.6013
167945.5583
160155.8156
152847.3032
145981.5653
139534.5743
133471.8035
1294335.461
1287995.516
1274526.559
1254924.002
1229930.59
1200283.956
1166724.975
1130022.319
1090813.245
1049743.428
1007449.039
964442.4539
921178.4033
878133.6276
835593.4039
793887.3502
753241.0429
713842.8287
675847.2037
639343.0187
604418.0164
571095.2052
539405.0124
509334.8079
480869.1633
453971.418
428592.4596
404689.5241
382190.6567
361053.1038
341191.9193
322562.2365
305080.7625
288694.1539
273333.1398
258938.8533
245453.7995
232816.2248
220980.027
209883.5771
199490.1286
189742.6331
180607.27
172035.7214
163995.7688
156447.6271
149361.3852
142703.5858
136447.0853
130563.4895
1241369.338
1235348.86
1222557.521
1203938.525
1180194.502
1152051.18
1120197.214
1085294.757
1047995.05
1008949.501
968697.7391
927730.3126
886549.1324
845503.4019
804936.6258
765147.1549
726327.9263
688707.9748
652372.8856
617476.7672
584037.9052
552141.5964
521764.6803
492947.2761
465632.3366
439818.3611
415441.2601
392469.7308
370839.2847
350497.3966
331384.0806
313432.7596
296590.4513
280783.4898
265968.5923
252072.1388
239050.3872
226840.3992
215396.903
204667.6721
194607.64
185174.3597
176323.8145
168021.0719
160225.1584
152907.6401
146030.8938
139571.316
133494.9421
127782.1924
1191812.455
1186088.267
1173925.427
1156240.44
1133690.897
1106928.412
1076610.095
1043379.563
1007895.415
970706.7561
932336.3351
893307.532
854023.8259
814844.2707
776134.9566
738108.682
701027.6437
665033.9218
630281.8465
596856.9496
564833.8273
534247.7168
505125.3127
477457.5888
451237.8983
426425.0945
402998.2184
380892.9712
360082.2996
340489.1398
322076.7804
304771.2826
288524.7502
273274.2605
258965.4691
245545.1031
232955.0966
221152.0729
210077.366
199695.9167
189952.7353
180815.8352
172237.6347
164187.5082
156626.064
149524.5978
142849.8339
136575.5179
130673.3125
125120.1913
1145427.766
1139987.249
1128425.96
1111592.08
1090115.28
1064619.996
1035730.243
1004100.661
970273.1199
934796.9394
898212.3031
860965.237
823439.2397
786038.3032
749023.6644
712669.0557
677185.8031
642725.6137
609442.0868
577400.6536
546697.556
517345.1409
489391.4801
462811.2724
437611.2632
413750.463
391205.8674
369929.5959
349876.8295
330999.2599
313237.1266
296545.4521
280856.3989
266131.9753
252303.112
239330.3754
227153.4611
215730.7152
205011.4204
194953.4019
185515.0234
176654.571
168337.4374
160524.4361
153187.1875
146289.4547
139807.5272
133708.4956
127972.5819
122570.7965
1101954.198
1096768.532
1085747.931
1069699.205
1049220.423
1024921.241
997399.3057
967213.8851
934920.1293
901069.4607
866136.7302
830533.8087
794684.2214
758907.6756
723485.7241
688696.311
654695.5064
621689.5391
589761.9145
559035.7375
529551.6875
501373.6351
474500.109
448952.8555
424699.9406
401740.9447
380020.5557
359526.3536
340189.9141
321983.4248
304841.3362
288722.4212
273569.2113
259332.9989
245963.9377
233408.6187
221625.6317
210560.1658
200178.1242
190427.0073
181277.0502
172680.7492
164609.7242
157024.385
149897.8146
143196.3772
136895.2242
130965.5657
125385.4698
120129.8936
1061129.867
1056181.503
1045664.426
1030355.829
1010835.233
987651.1619
961364.8008
932526.1708
901691.644
869349.3377
835937.081
801894.9922
767593.2889
733328.6984
699423.8802
666071.351
633485.689
601814.9456
571175.1837
541666.4467
513340.2285
486251.5181
460405.1263
435817.1751
412468.5277
390345.752
369416.5362
349645.0716
330993.8082
313411.0613
296859.0129
281276.7972
266630.9183
252857.4903
239921.933
227765.8211
216352.0536
205630.6963
195563.2728
186108.3118
177227.1184
168884.8025
161044.5793
153677.5752
146749.4865
140235.9914
134105.7223
128338.2272
122905.7428
117790.2774
1022770.591
1018050.361
1008017.297
993402.7231
974747.0895
952585.6878
927452.6492
899902.6293
870419.9097
839464.9364
807490.6618
774908.0585
742037.5197
709218.5106
676703.3106
644707.4608
613442.6426
583019.9758
553598.2084
525223.6918
497995.6018
471920.8248
447048.1282
423355.8223
400862.9792
379524.7913
359341.5806
340255.2852
322247.3868
305259.9081
289259.4619
274193.2588
260019.3105
246690.4936
234159.0085
222384.7264
211317.5715
200923.7441
191153.974
181980.1974
173355.2979
165253.4759
157634.3855
150473.472
143736.2251
137399.7149
131434.2116
125819.3368
120529.1917
115545.6961
986702.7376
982188.5183
972592.6655
958613.2914
940765.6034
919560.4111
895542.1818
869175.4491
840938.3446
811292.1254
780676.9851
749435.862
717923.3225
686446.2689
655228.6676
624525.9725
594479.8305
565253.9504
536952.0257
509662.7256
483448.5032
458342.8843
434372.245
411538.2656
389838.1855
369254.4088
349761.3253
331331.3823
313922.1564
297502.2758
282018.9464
267442.4797
253714.8039
240806.7492
228661.0919
217246.2059
206512.2752
196425.3222
186943.4411
178031.6698
169654.2644
161777.4541
154371.3518
147404.1317
140850.3795
134680.754
128873.6717
123403.032
118249.8256
113391.0902
952721.2146
948399.5829
939212.4802
925827.0249
908752.4636
888471.0377
865457.7794
840187.5332
813124.7079
784725.5232
755353.576
725376.1567
695148.0688
664912.0142
634937.0052
605423.4328
576531.3658
548422.0477
521174.7928
494909.209
469645.5681
445456.9594
422332.7379
400310.6066
379357.1852
359485.1211
340647.0781
322834.6466
305996.7387
290108.9265
275122.4357
261003.0484
247705.7469
235189.28
223414.1839
212335.99
201920.5849
192123.3211
182915.366
174252.5515
166110.6156
158448.6403
151244.7714
144463.1314
138083.2219
132073.9032
126416.8081
121084.7667
116061.299
111322.3554
920673.0197
916537.1006
907746.2054
894936.2309
878575.7771
859128.3738
837056.4688
812822.1173
786882.9356
759620.5219
731414.8392
702651.1356
673599.8828
644539.7699
615726.925
587325.9112
559534.9588
532460.7938
506227.4778
480905.1012
456554.7005
433213.5169
410903.1912
389632.5471
369398.0162
350185.2521
331976.0815
314738.4518
298446.8445
283057.5948
268544.2328
254856.152
241967.0614
229823.4604
218399.0581
207643.5493
197528.2525
188010.2701
179059.0883
170637.5716
162715.5779
155261.7103
148247.1687
141644.9836
135428.3263
129574.0397
124058.122
118860.1549
113958.851
109336.1917
890463.9474
886497.3114
878063.622
865772.8012
850073.0381
831407.5134
810230.742
786986.0889
762069.7941
735874.5321
708794.71
681139.2247
653194.1122
625258.3949
597519.194
570182.9741
543410.8809
517319.3478
492033.9046
467602.8524
444113.2505
421571.1388
400030.3934
379469.5749
359914.2547
341327.2393
323711.3128
307021.7185
291244.053
276332.9956
262263.1194
248990.9737
236482.7848
224699.2018
213602.2299
203156.8809
193323.8915
184073.1434
175364.9844
167173.5192
159460.9473
152205.4549
145371.5193
138940.5256
132879.8466
127173.4596
121792.5204
116722.5468
111938.041
107426.5616
861917.1043
858108.2843
850009.6278
838205.8163
823125.9603
805214.1329
784883.5933
762541.3626
738585.9511
713417.3419
687373.5707
660757.461
633878.9709
606974.5798
580249.9432
553919.231
528101.3768
502950.76
478544.8793
454971.2331
432278.2567
410506.847
389678.1232
369801.9996
350876.3257
332891.8199
315827.8256
299664.1979
284367.4117
269913.7197
256261.4078
243385.2109
231238.0534
219796.6772
209012.1365
198861.0345
189298.964
180300.5783
171826.842
163851.862
156342.2589
149272.81
142614.5459
136343.6435
130434.9421
124866.9778
119617.5422
114667.4026
109996.8658
105589.5808
834915.054
831254.4035
823470.3265
812133.3707
797657.3925
780440.144
760886.1009
739392.1643
716359.7933
692145.3743
667067.197
641444.2949
615557.1854
589621.8355
563873.1608
538470.6293
513565.9877
489290.0519
465719.2335
442950.9963
421012.0499
399968.5755
379813.804
360585.785
342257.2309
324843.0293
308304.3116
292637.7051
277800.8785
263778.1822
250527.2702
238022.7602
226224.9231
215103.1045
204620.9281
194745.2757
185444.2617
176683.4335
168434.7872
160664.8146
153349.5537
146457.1048
139966.7147
133848.686
128085.2342
122649.6511
117525.9748
112690.5135
108129.1615
103821.5383
809364.8532
805848.7304
798371.453
787470.8927
773540.7673
756969.949
738146.3258
717468.444
695298.9469
671969.6469
647806.2448
623126.5505
598160.311
573152.2725
548310.4859
523784.1444
499749.8428
476291.8302
453523.1367
431503.4163
410292.2458
389923.5334
370420.2587
351793.25
334041.7486
317157.4265
301125.1372
285922.4515
271527.9375
257909.7193
245043.1445
232889.5353
221424.875
210606.6672
200412.5305
190799.6298
181747.3339
173214.2282
165179.2944
157606.7183
150475.4137
143753.9802
137422.1023
131452.1981
125825.7837
120518.4855
115513.5124
110789.1442
106331.1052
102119.7519
785177.0567
781791.5567
774591.6508
764094.4472
750678.0282
734715.6974
716598.9616
696683.6471
675312.5736
652817.4183
629538.336
605725.2467
581629.3695
557504.0383
533509.3571
509829.1704
486598.4976
463920.8419
441903.7742
420594.0756
400070.5118
380341.2596
361455.4783
343398.5189
326194.4012
309813.2087
294261.8193
279501.173
265526.125
252295.0471
239791.8432
227975.9751
216824.9902
206300.6605
196376.7699
187019.219
178199.4482
169886.8951
162052.9435
154671.0577
147713.497
141156.9626
134975.2853
129148.1616
123651.9016
118468.2963
113576.1237
108959.1774
104599.1934
100481.3767
762236.7255
758974.2201
752035.5082
741918.1846
728986.2867
713620.1706
696157.4065
676948.2411
656330.0172
634646.4356
612175.9539
589180.9137
565927.5124
542615.0678
519425.1824
496542.6848
474069.9885
452140.6175
430825.1426
410201.3463
390316.1808
371205.3862
352893.3846
335387.6789
318693.0957
302799.212
287695.5911
273362.7938
259779.6873
246921.888
234759.971
223268.7686
212413.962
202171.0579
192503.9694
183390.1233
174792.4511
166690.5805
159048.7592
151849.1723
145058.0883
138659.0354
132621.6031
126930.7395
121559.539
116494.0436
111710.1584
107196.0332
102930.0961
98901.98584
740461.4936
737314.8961
730622.3426
720875.9309
708417.8921
693590.4698
676736.8188
658193.8343
638305.4776
617369.7855
595660.7653
573451.5572
550980.9262
528437.1367
506024.3712
483880.3205
462134.6272
440904.3023
420255.69
400280.1418
381000.678
362477.4558
344709.5972
327728.4087
311517.1826
296086.7841
281409.069
267483.4956
254273.7395
241771.5175
229935.9356
218753.313
208183.1552
198206.905
188787.8349
179903.9809
171521.8002
163618.1742
156163.5852
149134.9954
142506.1672
136254.9474
130358.1246
124795.4609
119546.1521
114591.8221
109913.8312
105496.3674
101322.4414
97378.62534
719789.9318
716757.1556
710306.2615
700898.295
688869.133
674550.0235
658271.2927
640373.6354
621164.5018
600928.1393
579942.6521
558480.8848
536741.8892
514936.2776
493247.7797
471803.1588
450753.0582
430178.3154
410174.5225
390801.6673
372108.0415
354132.0888
336889.4137
320398.6946
304654.0516
289657.8627
275392.4485
261848.2682
249000.931
236831.1046
225312.1335
214418.6888
204123.7789
194398.9492
185218.8351
176552.9152
168377.7101
160662.9432
153387.7232
146522.7442
140049.3196
133939.791
128177.7436
122738.0341
117605.6233
112757.9715
108181.6016
103856.948
99771.56375
95908.50691
700151.7087
697221.7429
690989.2222
681898.9701
670274.7078
656435.6046
640715.7793
623420.9964
604843.8469
585268.6712
564984.6937
544212.4943
523166.0613
502067.9852
481056.6188
460286.8306
439884.0244
419933.6668
400539.3957
381738.989
363603.4893
346146.1964
329405.6017
313378.8697
298080.7214
283495.7705
269624.727
256442.8094
243941.3648
232088.5473
220871.8135
210254.6689
200222.7907
190738.6314
181786.8017
173330.3845
165352.3702
157819.8722
150715.1056
144008.5137
137682.4577
131710.4418
126076.1168
120755.7394
115734.1654
110989.9947
106510.2068
102275.3131
98274.38678
94488.99626
373076.2119
355461.92
338503.8955
322235.2141
306654.4564
291777.5341
277588.3816
264089.8419
251257.309
239082.3505
227536.5481
216604.3597
206255.9591
196471.2374
187221.6921
178484.0187
170231.2601
162439.2013
155083.5093
148140.0958
141586.8998
135400.7446
129561.8869
124049.0664
118844.2689
113928.1746
109284.5141
104896.52
100749.2183
96828.17184
93119.04668
)
;

boundaryField
{
    front_top
    {
        type            wedge;
    }
    front_middle
    {
        type            wedge;
    }
    front_bottom
    {
        type            wedge;
    }
    back_top
    {
        type            wedge;
    }
    back_middle
    {
        type            wedge;
    }
    back_bottom
    {
        type            wedge;
    }
    axis_top
    {
        type            symmetryPlane;
    }
    axis_middle
    {
        type            symmetryPlane;
    }
    axis_bottom
    {
        type            symmetryPlane;
    }
    wall_top
    {
        type            calculated;
        value           nonuniform List<scalar> 
23
(
136614.8884
133519.6483
130565.146
127741.099
125039.3322
122453.0044
119977.7941
117606.1884
115331.8476
113149.5512
111055.2847
109045.1574
107113.2241
105255.4722
103468.149
101748.8211
100093.8164
98499.02058
96961.44758
95478.23966
94047.19139
92666.32621
91332.00187
)
;
    }
    wall_middle
    {
        type            calculated;
        value           nonuniform 0();
    }
    wall_bottom
    {
        type            calculated;
        value           nonuniform 0();
    }
    inlet
    {
        type            calculated;
        value           nonuniform 0();
    }
    outlet
    {
        type            calculated;
        value           nonuniform 0();
    }
    procBoundary7to6
    {
        type            processor;
        value           nonuniform List<scalar> 
51
(
681465.3084
678632.429
672606.1454
663815.9927
652574.2459
639206.8224
624006.3212
607271.4426
589291.9952
570359.6468
550721.8902
530602.6381
510229.9779
489784.0231
469414.6652
449288.6527
429496.0715
410149.9876
391323.1276
391323.1276
364782.1835
347661.2937
331183.1615
315359.3417
300208.3709
285728.3044
271920.9921
258773.9587
246278.0102
234412.064
223161.5791
212499.7289
202409.193
192860.4566
183835.5808
175303.1493
167245.5957
159631.9032
152445.8107
145657.2764
139251.3238
133199.5522
127488.6059
122092.5683
116998.8533
112184.195
107637.189
103337.5097
99274.46931
95430.30544
91794.57913
)
;
    }
    procBoundary7to8
    {
        type            processor;
        value           nonuniform List<scalar> 
51
(
1622998.337
1614590.405
1596737.085
1570775.623
1537712.902
1498552.806
1454362.66
1406054.186
1354558.948
1300781.626
1245533.433
1189480.16
1133308.29
1077528.109
1022585.651
968896.1092
916708.3558
866326.6663
817851.6565
771477.3046
727214.1076
685160.1962
645270.2659
607565.9589
571974.1648
538458.3221
506940.6448
477343.3483
449587.554
423569.3781
399221.1358
376428.4854
355121.9509
335199.1324
316581.3442
299184.9938
274618.4672
274618.4672
260003.8794
246339.8449
233560.2454
221610.9108
210427.045
199966.0776
190168.1344
180996.8705
172400.3233
164345.0949
156788.6825
149700.5466
143045.1134
)
;
    }
}


// ************************************************************************* //
