/*--------------------------------*- C++ -*----------------------------------*\
  =========                 |
  \\      /  F ield         | OpenFOAM: The Open Source CFD Toolbox
   \\    /   O peration     | Website:  https://openfoam.org
    \\  /    A nd           | Version:  7
     \\/     M anipulation  |
\*---------------------------------------------------------------------------*/
FoamFile
{
    version     2.0;
    format      ascii;
    class       volVectorField;
    location    "0.0009";
    object      U;
}
// * * * * * * * * * * * * * * * * * * * * * * * * * * * * * * * * * * * * * //

dimensions      [0 1 -1 0 0 0 0];

internalField   nonuniform List<vector> 
1167
(
(1.849470506e-08 4.445202028e-20 -0.002154785891)
(4.815390626e-08 -1.777298216e-20 -0.002154788684)
(7.581274647e-08 -5.47200813e-20 -0.002154794663)
(1.038086263e-07 -1.490117206e-19 -0.002154803522)
(1.308788088e-07 4.155059852e-20 -0.002154815071)
(1.567086299e-07 1.63171898e-19 -0.002154829193)
(1.812354766e-07 2.741520525e-19 -0.002154845771)
(2.043683656e-07 2.385311612e-19 -0.002154864685)
(2.25986636e-07 3.66394019e-19 -0.002154885812)
(2.460563204e-07 2.685224767e-19 -0.002154909051)
(2.6455198e-07 1.867163706e-19 -0.002154934307)
(2.814154766e-07 1.133200574e-19 -0.002154961466)
(2.966562221e-07 1.171121109e-19 -0.002154990441)
(3.102744764e-07 9.113414759e-20 -0.002155021141)
(3.222488266e-07 1.245091692e-19 -0.00215505345)
(3.326059507e-07 1.0041783e-19 -0.002155087283)
(3.413439291e-07 1.063472828e-19 -0.002155122522)
(3.485001834e-07 1.041667322e-19 -0.002155159076)
(3.540995074e-07 1.051121702e-19 -0.002155196827)
(3.581763352e-07 1.453398162e-19 -0.002155235672)
(3.607688193e-07 1.921328858e-19 -0.002155275486)
(3.619156485e-07 2.186768866e-19 -0.002155316156)
(3.616693724e-07 2.289431796e-19 -0.002155357548)
(3.600735925e-07 2.261115613e-19 -0.002155399544)
(3.57190029e-07 2.345531145e-19 -0.002155441997)
(3.530521777e-07 2.437009729e-19 -0.002155484779)
(3.477193919e-07 2.552934493e-19 -0.002155527734)
(3.41239257e-07 2.680582246e-19 -0.002155570731)
(3.336785183e-07 2.827335432e-19 -0.00215561361)
(3.250793579e-07 2.816283403e-19 -0.002155656223)
(3.15491166e-07 2.674808766e-19 -0.002155698411)
(3.049753076e-07 2.605653285e-19 -0.002155740009)
(2.935718507e-07 2.566087127e-19 -0.002155780861)
(2.813462737e-07 2.531927708e-19 -0.002155820791)
(2.68339808e-07 2.478079949e-19 -0.002155859645)
(2.546163453e-07 2.529091807e-19 -0.002155897249)
(1.889167048e-08 4.169642458e-19 -0.002155249114)
(4.918639669e-08 1.975397951e-19 -0.002155251983)
(7.743550147e-08 -8.588393694e-20 -0.002155258127)
(1.060235355e-07 8.259912795e-20 -0.002155267254)
(1.336941547e-07 8.889261497e-20 -0.00215527918)
(1.601382192e-07 9.142051836e-20 -0.002155293761)
(1.852052591e-07 6.708014729e-20 -0.002155310862)
(2.087953807e-07 2.784797241e-19 -0.002155330337)
(2.308692717e-07 4.125680601e-19 -0.002155352092)
(2.513757545e-07 3.729244055e-19 -0.00215537602)
(2.702339586e-07 2.196277274e-19 -0.002155401997)
(2.874421653e-07 1.862756195e-19 -0.002155429928)
(3.029976276e-07 1.599364626e-19 -0.002155459719)
(3.168616441e-07 1.541479685e-19 -0.002155491248)
(3.290626791e-07 1.254978176e-19 -0.002155524429)
(3.395975681e-07 1.115290058e-19 -0.002155559145)
(3.484892864e-07 1.046823887e-19 -0.002155595295)
(3.557617902e-07 9.687000255e-20 -0.00215563277)
(3.614435477e-07 7.539176227e-20 -0.00215567145)
(3.655662801e-07 8.441182516e-20 -0.002155711225)
(3.681697097e-07 7.499384297e-20 -0.002155751968)
(3.692969786e-07 9.593862291e-20 -0.00215579356)
(3.689964729e-07 1.247542935e-19 -0.002155835868)
(3.67321482e-07 1.607731069e-19 -0.002155878762)
(3.643187255e-07 1.920996416e-19 -0.002155922106)
(3.600387768e-07 1.987698289e-19 -0.002155965751)
(3.545313078e-07 2.043836317e-19 -0.002156009559)
(3.478709286e-07 2.108924463e-19 -0.002156053371)
(3.400999536e-07 2.18645109e-19 -0.002156097045)
(3.312833742e-07 2.11922196e-19 -0.002156140409)
(3.2146092e-07 2.110958085e-19 -0.002156183319)
(3.10695808e-07 2.273623997e-19 -0.002156225601)
(2.990274641e-07 2.429416531e-19 -0.002156267098)
(2.865099861e-07 2.583972107e-19 -0.002156307643)
(2.732117865e-07 2.675653708e-19 -0.002156347066)
(2.591745944e-07 2.815422449e-19 -0.002156385208)
(2.44456658e-07 2.870823788e-19 -0.002156421889)
(2.290929735e-07 2.929725019e-19 -0.002156456954)
(2.131406524e-07 2.97168899e-19 -0.002156490228)
(1.96635919e-07 3.176072616e-19 -0.002156521555)
(1.796311553e-07 3.213325888e-19 -0.002156550769)
(1.621605422e-07 3.149620384e-19 -0.002156577713)
(1.442620265e-07 3.105181126e-19 -0.002156602231)
(1.259768833e-07 3.069772628e-19 -0.00215662417)
(1.073403418e-07 3.031652826e-19 -0.002156643383)
(8.839402483e-08 3.054951297e-19 -0.002156659726)
(6.915823613e-08 3.176016803e-19 -0.002156673064)
(4.966766233e-08 3.139502146e-19 -0.002156683258)
(3.002103708e-08 3.194019807e-19 -0.002156690186)
(1.048212668e-08 3.20717557e-19 -0.002156693719)
(1.933568148e-08 2.893600831e-19 -0.002155700019)
(5.034187468e-08 8.507243209e-19 -0.002155703005)
(7.927633214e-08 4.569073362e-19 -0.002155709381)
(1.0858089e-07 4.613602224e-19 -0.002155718842)
(1.369127914e-07 2.748745151e-19 -0.002155731197)
(1.639389761e-07 1.91052705e-19 -0.002155746271)
(1.89545368e-07 1.47866775e-19 -0.00215576393)
(2.136890873e-07 3.467413683e-19 -0.002155784066)
(2.362851885e-07 3.847573652e-19 -0.002155806552)
(2.572227701e-07 3.309358228e-19 -0.002155831249)
(2.764943279e-07 2.823563899e-19 -0.002155858058)
(2.940897096e-07 3.187842722e-19 -0.002155886881)
(3.099554027e-07 2.256708506e-19 -0.002155917588)
(3.241165308e-07 2.050214645e-19 -0.00215595009)
(3.365649414e-07 1.21951523e-19 -0.002155984272)
(3.473008057e-07 8.462430681e-20 -0.00215602001)
(3.563523373e-07 1.047818971e-19 -0.002156057208)
(3.637341771e-07 1.022512099e-19 -0.00215609573)
(3.694847031e-07 1.479328146e-19 -0.002156135478)
(3.736374361e-07 1.137966694e-19 -0.002156176308)
(3.762352639e-07 1.037929991e-19 -0.002156218115)
(3.773270095e-07 8.575610491e-20 -0.002156260752)
(3.769620103e-07 1.14626287e-19 -0.002156304106)
(3.751975836e-07 1.347037446e-19 -0.002156348024)
(3.720713165e-07 1.474315253e-19 -0.002156392376)
(3.676449785e-07 1.607647998e-19 -0.002156437005)
(3.619701956e-07 1.445261191e-19 -0.002156481773)
(3.551055464e-07 1.410286852e-19 -0.002156526522)
(3.471103571e-07 1.262279542e-19 -0.002156571096)
(3.380349592e-07 1.433287414e-19 -0.002156615338)
(3.279477363e-07 1.73269888e-19 -0.002156659078)
(3.168881314e-07 2.019965642e-19 -0.002156702161)
(3.049243825e-07 2.340030404e-19 -0.002156744407)
(2.921036758e-07 2.754094992e-19 -0.002156785663)
(2.78493976e-07 3.010628299e-19 -0.002156825753)
(2.641335763e-07 3.121468339e-19 -0.002156864515)
(2.490718238e-07 2.983794434e-19 -0.002156901777)
(2.333633643e-07 2.747110586e-19 -0.002156937372)
(2.170513612e-07 2.812246497e-19 -0.002156971136)
(2.001929727e-07 2.890354933e-19 -0.002157002901)
(1.828244746e-07 2.856802217e-19 -0.002157032513)
(1.649960467e-07 2.89454374e-19 -0.002157059804)
(1.467399854e-07 2.908559635e-19 -0.002157084629)
(1.281023781e-07 2.953146343e-19 -0.002157106827)
(1.091191309e-07 3.019609956e-19 -0.002157126261)
(8.982970079e-08 2.943774183e-19 -0.002157142782)
(7.025698824e-08 2.984841033e-19 -0.002157156259)
(5.043509865e-08 3.03458699e-19 -0.002157166557)
(3.046440431e-08 3.039157622e-19 -0.002157173553)
(1.061775446e-08 3.163349798e-19 -0.002157177124)
(1.983421812e-08 9.530650179e-20 -0.002156138865)
(5.16255672e-08 2.25904095e-19 -0.002156141968)
(8.126667659e-08 2.649734479e-19 -0.002156148586)
(1.112727004e-07 2.989049738e-19 -0.002156158388)
(1.402725793e-07 2.590355251e-19 -0.002156171179)
(1.679502095e-07 2.197000499e-19 -0.002156186812)
(1.942210028e-07 2.01540994e-19 -0.002156205144)
(2.189590305e-07 2.216081763e-19 -0.002156226032)
(2.420440526e-07 2.810775614e-19 -0.002156249316)
(2.634645596e-07 2.281925008e-19 -0.002156274897)
(2.831950285e-07 2.238946595e-19 -0.002156302666)
(3.011665681e-07 1.438046232e-19 -0.002156332485)
(3.173965288e-07 1.001168038e-19 -0.002156364251)
(3.318666484e-07 1.371667858e-19 -0.002156397851)
(3.445494041e-07 1.532640469e-19 -0.002156433144)
(3.554866286e-07 1.808124824e-19 -0.002156470036)
(3.646832379e-07 1.826976335e-19 -0.002156508389)
(3.721775823e-07 1.998038987e-19 -0.002156548099)
(3.779933309e-07 2.141009499e-19 -0.002156589028)
(3.821745582e-07 1.966187621e-19 -0.002156631063)
(3.847640894e-07 1.87966651e-19 -0.00215667406)
(3.858108899e-07 1.901285695e-19 -0.002156717898)
(3.853738954e-07 1.693728599e-19 -0.002156762429)
(3.834927639e-07 1.576662465e-19 -0.002156807522)
(3.80223954e-07 1.465718385e-19 -0.002156853013)
(3.756191361e-07 1.517541095e-19 -0.002156898769)
(3.697527331e-07 1.709045482e-19 -0.00215694462)
(3.626731556e-07 1.621363577e-19 -0.002156990428)
(3.54447525e-07 1.607529552e-19 -0.002157036019)
(3.4511988e-07 1.449502162e-19 -0.002157081244)
(3.347523114e-07 1.53140479e-19 -0.002157125928)
(3.23395106e-07 1.589052784e-19 -0.002157169909)
(3.111070246e-07 1.607237753e-19 -0.002157213018)
(2.979645681e-07 1.510461887e-19 -0.002157255084)
(2.840090762e-07 1.554972264e-19 -0.002157295945)
(2.69302136e-07 1.609227257e-19 -0.002157335419)
(2.538844302e-07 1.496803231e-19 -0.002157373349)
(2.378179693e-07 1.675964525e-19 -0.002157409557)
(2.211435494e-07 1.67809596e-19 -0.002157443886)
(2.039184082e-07 1.815438223e-19 -0.002157476165)
(1.861813202e-07 1.828752298e-19 -0.002157506238)
(1.679745803e-07 2.112916624e-19 -0.002157533944)
(1.493470607e-07 2.304827591e-19 -0.002157559128)
(1.303363715e-07 2.475073252e-19 -0.002157581642)
(1.109904201e-07 2.629965987e-19 -0.002157601338)
(9.133971236e-08 2.641147942e-19 -0.002157618079)
(7.141592086e-08 2.574883013e-19 -0.002157631726)
(5.125023502e-08 2.518061583e-19 -0.002157642153)
(3.094978879e-08 2.548849622e-19 -0.002157649232)
(1.077947068e-08 2.582939795e-19 -0.002157652852)
(2.0326453e-08 2.929280474e-20 -0.002156565644)
(5.290241166e-08 -1.033822804e-19 -0.002156568867)
(8.326950074e-08 2.152144392e-19 -0.002156575754)
(1.14020953e-07 4.193634648e-19 -0.002156585975)
(1.437747802e-07 2.955859854e-19 -0.002156599322)
(1.721772806e-07 2.179888818e-19 -0.002156615619)
(1.990680108e-07 1.620800547e-19 -0.002156634697)
(2.243446955e-07 9.261960645e-20 -0.002156656391)
(2.479806307e-07 2.159322362e-20 -0.002156680597)
(2.699251992e-07 7.576986534e-20 -0.002156707192)
(2.900866298e-07 7.674737156e-20 -0.002156736022)
(3.084656209e-07 9.071430473e-20 -0.002156766973)
(3.250442979e-07 1.742378719e-19 -0.002156799927)
(3.397763663e-07 1.885408578e-19 -0.002156834726)
(3.5270373e-07 1.99766564e-19 -0.00215687128)
(3.638270764e-07 2.575289375e-19 -0.00215690945)
(3.731763643e-07 2.458514448e-19 -0.002156949115)
(3.807756981e-07 2.566808831e-19 -0.002156990149)
(3.866571159e-07 2.227941652e-19 -0.002157032412)
(3.908621464e-07 2.186762349e-19 -0.002157075783)
(3.934363101e-07 2.013306996e-19 -0.002157120112)
(3.944353363e-07 1.912807077e-19 -0.002157165275)
(3.939131575e-07 1.565258328e-19 -0.002157211117)
(3.919110978e-07 1.67111026e-19 -0.002157257496)
(3.884842013e-07 1.72218231e-19 -0.002157304256)
(3.836987688e-07 1.504229013e-19 -0.002157351249)
(3.776172892e-07 1.553464793e-19 -0.002157398319)
(3.703109476e-07 1.669807603e-19 -0.002157445301)
(3.618237119e-07 1.791463331e-19 -0.00215749204)
(3.522250232e-07 1.77469839e-19 -0.002157538357)
(3.415611574e-07 1.551727317e-19 -0.0021575841)
(3.299042128e-07 1.519045379e-19 -0.002157629083)
(3.173068043e-07 1.377842132e-19 -0.002157673152)
(3.038410608e-07 1.087980482e-19 -0.002157716128)
(2.895494768e-07 1.185917118e-19 -0.002157757843)
(2.744850242e-07 1.131844427e-19 -0.002157798125)
(2.587111133e-07 1.125136847e-19 -0.002157836803)
(2.422729359e-07 1.184590184e-19 -0.002157873711)
(2.252318666e-07 1.04919771e-19 -0.002157908676)
(2.076290063e-07 1.141867348e-19 -0.002157941544)
(1.89519449e-07 1.347265593e-19 -0.002157972141)
(1.709401229e-07 1.715801673e-19 -0.00215800032)
(1.519419926e-07 2.007107817e-19 -0.002158025917)
(1.325654388e-07 2.137767602e-19 -0.002158048792)
(1.128565519e-07 2.157217455e-19 -0.002158068793)
(9.284855231e-08 2.273614231e-19 -0.002158085784)
(7.257371517e-08 2.215215546e-19 -0.002158099628)
(5.206754868e-08 2.293683465e-19 -0.002158110199)
(3.143924244e-08 2.262236066e-19 -0.002158117373)
(1.094581894e-08 2.207161241e-19 -0.002158121035)
(2.082459196e-08 -1.294968307e-20 -0.002156980734)
(5.419702138e-08 -4.846511768e-20 -0.002156984112)
(8.532709463e-08 1.805020157e-20 -0.002156991324)
(1.168533408e-07 1.308678513e-19 -0.002157002017)
(1.4730617e-07 2.788003946e-19 -0.002157015957)
(1.763283229e-07 2.006152691e-19 -0.002157032941)
(2.038004448e-07 2.085962156e-19 -0.002157052815)
(2.296796154e-07 6.779894534e-20 -0.002157075454)
(2.538787678e-07 -3.707181504e-20 -0.002157100708)
(2.762813818e-07 6.320703921e-20 -0.002157128407)
(2.968764605e-07 1.495038609e-19 -0.002157158424)
(3.156413714e-07 2.330176228e-19 -0.002157190635)
(3.325086016e-07 3.129135498e-19 -0.002157224876)
(3.47521e-07 3.134137695e-19 -0.002157261038)
(3.606815248e-07 3.035092904e-19 -0.002157298989)
(3.719828838e-07 2.868055504e-19 -0.002157338584)
(3.814610195e-07 2.453602778e-19 -0.002157379705)
(3.891344633e-07 2.452584479e-19 -0.002157422192)
(3.950516074e-07 1.967870837e-19 -0.002157465933)
(3.992511813e-07 1.832267611e-19 -0.002157510763)
(4.017883699e-07 1.65583511e-19 -0.002157556566)
(4.027172627e-07 1.665994898e-19 -0.002157603174)
(4.020825616e-07 1.701940051e-19 -0.002157650458)
(3.99941709e-07 1.787690192e-19 -0.002157698241)
(3.963538135e-07 1.61469677e-19 -0.002157746392)
(3.913925998e-07 1.469396897e-19 -0.002157794737)
(3.851119001e-07 1.558459834e-19 -0.002157843131)
(3.775816418e-07 1.818022775e-19 -0.002157891398)
(3.688497463e-07 1.959828435e-19 -0.002157939379)
(3.589785564e-07 2.337670292e-19 -0.002157986899)
(3.480320287e-07 2.252762897e-19 -0.00215803379)
(3.360688655e-07 2.291340738e-19 -0.002158079883)
(3.231681105e-07 2.260672169e-19 -0.002158125)
(3.093760969e-07 2.292294197e-19 -0.00215816898)
(2.947584479e-07 2.365630909e-19 -0.002158211633)
(2.793606179e-07 2.359814764e-19 -0.002158252803)
(2.632490027e-07 2.464721291e-19 -0.002158292306)
(2.464686409e-07 2.36566853e-19 -0.002158329983)
(2.290811623e-07 2.42804058e-19 -0.002158365659)
(2.111299398e-07 2.407490858e-19 -0.002158399173)
(1.926628645e-07 2.496831805e-19 -0.002158430362)
(1.737327963e-07 2.433147063e-19 -0.002158459065)
(1.54380713e-07 2.477945956e-19 -0.002158485133)
(1.346592216e-07 2.434160301e-19 -0.00215850841)
(1.146049181e-07 2.394575037e-19 -0.002158528758)
(9.425994506e-08 2.504846243e-19 -0.002158546031)
(7.365243276e-08 2.533191488e-19 -0.002158560101)
(5.282360357e-08 2.672076588e-19 -0.002158570835)
(3.187951726e-08 2.670012901e-19 -0.002158578116)
(1.108340828e-08 2.650044272e-19 -0.002158581822)
(2.130393027e-08 -1.916568522e-19 -0.002157384608)
(5.542981988e-08 -5.73767077e-19 -0.002157388135)
(8.723448183e-08 -3.181664731e-19 -0.002157395675)
(1.194253945e-07 -1.976634431e-19 -0.002157406835)
(1.505045041e-07 -9.666997908e-20 -0.002157421385)
(1.80140419e-07 -1.863217124e-20 -0.00215743915)
(2.082450951e-07 -7.542979898e-21 -0.002157459964)
(2.346836432e-07 -1.275362204e-21 -0.002157483653)
(2.593291013e-07 -2.294333264e-21 -0.002157510024)
(2.821636846e-07 1.065314443e-19 -0.002157538945)
(3.031541103e-07 2.159017037e-19 -0.002157570277)
(3.222180251e-07 2.602383351e-19 -0.002157603844)
(3.393751983e-07 2.017001236e-19 -0.002157639519)
(3.546290118e-07 2.445094226e-19 -0.002157677173)
(3.67953067e-07 2.848512283e-19 -0.002157716631)
(3.793897343e-07 2.733483022e-19 -0.00215775778)
(3.88944129e-07 2.751398085e-19 -0.002157800457)
(3.966672219e-07 2.757902676e-19 -0.002157844536)
(4.025902095e-07 2.498602356e-19 -0.00215788986)
(4.067668795e-07 2.332891061e-19 -0.00215793629)
(4.092512618e-07 2.588537694e-19 -0.002157983673)
(4.10091635e-07 2.584545389e-19 -0.002158031859)
(4.093360414e-07 2.689794417e-19 -0.002158080689)
(4.070452805e-07 2.307194282e-19 -0.002158130008)
(4.032972834e-07 2.243647472e-19 -0.002158179654)
(3.981473351e-07 2.09233394e-19 -0.002158229473)
(3.916674161e-07 2.44967764e-19 -0.002158279288)
(3.839079684e-07 2.337535181e-19 -0.002158328946)
(3.749411023e-07 2.280677767e-19 -0.002158378257)
(3.648190999e-07 2.183416982e-19 -0.00215842707)
(3.536174457e-07 2.473440376e-19 -0.002158475194)
(3.413933664e-07 2.414790109e-19 -0.002158522472)
(3.282222259e-07 2.578965232e-19 -0.00215856872)
(3.141509527e-07 2.738699149e-19 -0.002158613768)
(2.992369289e-07 2.571010518e-19 -0.00215865744)
(2.835480513e-07 2.448613596e-19 -0.002158699561)
(2.671321588e-07 2.417700708e-19 -0.002158739962)
(2.500542727e-07 2.490041305e-19 -0.002158778466)
(2.323594359e-07 2.62268713e-19 -0.002158814914)
(2.141070086e-07 2.747481907e-19 -0.002158849128)
(1.953373811e-07 2.704623752e-19 -0.002158880958)
(1.761056306e-07 2.6592259e-19 -0.002158910235)
(1.564557488e-07 2.586857436e-19 -0.002158936813)
(1.364379679e-07 2.612914809e-19 -0.002158960535)
(1.160911069e-07 2.615016389e-19 -0.002158981262)
(9.545730243e-08 2.845418422e-19 -0.002158998849)
(7.456761805e-08 2.965312633e-19 -0.002159013168)
(5.346275856e-08 3.123705758e-19 -0.002159024087)
(3.224841858e-08 3.115453255e-19 -0.002159031489)
(1.119484677e-08 3.262022503e-19 -0.002159035254)
(2.16923457e-08 -4.510364029e-19 -0.002157777582)
(5.643363646e-08 -3.225466712e-19 -0.002157781263)
(8.880215068e-08 -4.531076875e-19 -0.002157789166)
(1.215747979e-07 -3.030120017e-19 -0.002157800889)
(1.532493884e-07 -3.738105547e-19 -0.002157816188)
(1.834577914e-07 -2.223057455e-19 -0.002157834857)
(2.120334966e-07 -1.960024649e-19 -0.002157856687)
(2.388593646e-07 -1.612510297e-20 -0.002157881474)
(2.638987525e-07 8.436458322e-20 -0.002157909079)
(2.870978203e-07 1.548903684e-19 -0.002157939344)
(3.08353753e-07 1.855387437e-19 -0.002157972077)
(3.276616452e-07 1.772098471e-19 -0.002158007129)
(3.450271824e-07 2.522482407e-19 -0.002158044365)
(3.60405006e-07 2.243750973e-19 -0.002158083598)
(3.738408723e-07 2.567631665e-19 -0.002158124701)
(3.85341865e-07 2.336791256e-19 -0.002158167514)
(3.949339412e-07 2.549292384e-19 -0.002158211881)
(4.02658537e-07 2.278679744e-19 -0.002158257663)
(4.085481273e-07 2.607229948e-19 -0.002158304687)
(4.126657548e-07 2.655943169e-19 -0.002158352822)
(4.15061652e-07 2.965034967e-19 -0.002158401889)
(4.157856436e-07 3.097354206e-19 -0.002158451748)
(4.148963442e-07 3.116601404e-19 -0.002158502217)
(4.124603094e-07 2.992722457e-19 -0.002158553155)
(4.08552083e-07 2.99568993e-19 -0.002158604381)
(4.032300356e-07 3.168093134e-19 -0.002158655743)
(3.965656646e-07 2.789409113e-19 -0.00215870706)
(3.886120409e-07 2.675494765e-19 -0.002158758166)
(3.794326059e-07 2.566322668e-19 -0.002158808888)
(3.691014795e-07 2.336512003e-19 -0.002158859048)
(3.57677702e-07 2.485952127e-19 -0.002158908478)
(3.452421437e-07 2.231993069e-19 -0.002158956994)
(3.318452532e-07 2.280804131e-19 -0.002159004433)
(3.175556304e-07 2.200241591e-19 -0.002159050601)
(3.024219092e-07 2.204079922e-19 -0.002159095341)
(2.865134807e-07 2.251909704e-19 -0.002159138462)
(2.698783124e-07 2.422602459e-19 -0.002159179802)
(2.525808601e-07 2.663316173e-19 -0.002159219183)
(2.346680032e-07 2.983662995e-19 -0.002159256439)
(2.161934521e-07 3.071361409e-19 -0.002159291401)
(1.972088461e-07 3.048760881e-19 -0.002159323906)
(1.777586715e-07 2.985514818e-19 -0.002159353797)
(1.578994074e-07 2.908314479e-19 -0.002159380916)
(1.376705229e-07 2.960115837e-19 -0.002159405116)
(1.171195265e-07 3.016911493e-19 -0.002159426246)
(9.628334212e-08 3.066094209e-19 -0.002159444173)
(7.519940081e-08 3.025300789e-19 -0.002159458758)
(5.390589268e-08 3.10297854e-19 -0.002159469879)
(3.251087261e-08 3.155001818e-19 -0.002159477409)
(1.1281344e-08 3.164354161e-19 -0.00215948124)
(2.197477451e-08 2.588469102e-19 -0.002158160519)
(5.716589341e-08 4.661953906e-19 -0.002158164389)
(8.997319801e-08 4.124286743e-20 -0.002158172724)
(1.231976661e-07 -2.445805604e-19 -0.002158185077)
(1.552630769e-07 -2.492426783e-19 -0.002158201167)
(1.857848376e-07 -9.212108864e-20 -0.002158220752)
(2.146306679e-07 7.115309407e-21 -0.002158243631)
(2.417479127e-07 7.420720543e-20 -0.002158269637)
(2.670528879e-07 2.386547246e-19 -0.002158298587)
(2.904166122e-07 2.143009868e-19 -0.002158330266)
(3.118146975e-07 2.085189071e-19 -0.002158364504)
(3.31251674e-07 1.772856354e-19 -0.00215840116)
(3.486682207e-07 2.906684649e-19 -0.002158440033)
(3.640936418e-07 2.377765202e-19 -0.002158480972)
(3.775424577e-07 2.231335297e-19 -0.002158523821)
(3.890081119e-07 2.242208586e-19 -0.002158568392)
(3.98546243e-07 2.256864279e-19 -0.002158614552)
(4.061818589e-07 2.139069133e-19 -0.002158662109)
(4.119775115e-07 2.412924198e-19 -0.002158710931)
(4.159798596e-07 2.235240015e-19 -0.002158760835)
(4.18244723e-07 1.98150891e-19 -0.002158811672)
(4.188237523e-07 2.338838458e-19 -0.002158863259)
(4.17782481e-07 2.490073322e-19 -0.002158915444)
(4.151977128e-07 2.85863334e-19 -0.002158968047)
(4.111312735e-07 2.87143753e-19 -0.002159020916)
(4.056560167e-07 3.158392793e-19 -0.002159073859)
(3.98828145e-07 3.225646514e-19 -0.002159126725)
(3.907213202e-07 3.12475831e-19 -0.002159179315)
(3.813927246e-07 3.143872228e-19 -0.002159231477)
(3.709198627e-07 3.222988945e-19 -0.002159283016)
(3.593633132e-07 3.116524741e-19 -0.002159333772)
(3.468000707e-07 2.93781873e-19 -0.002159383557)
(3.332803409e-07 3.023045641e-19 -0.0021594322)
(3.188655513e-07 3.038883021e-19 -0.00215947952)
(3.03622359e-07 3.197872287e-19 -0.00215952534)
(2.876007383e-07 3.25469698e-19 -0.002159569488)
(2.708674199e-07 3.403645161e-19 -0.002159611782)
(2.53469097e-07 3.439496327e-19 -0.002159652061)
(2.354673006e-07 3.528007028e-19 -0.002159690141)
(2.169033736e-07 3.490660837e-19 -0.002159725869)
(1.978343279e-07 3.50666816e-19 -0.002159759066)
(1.783057169e-07 3.463764947e-19 -0.002159789586)
(1.583700298e-07 3.451084506e-19 -0.002159817262)
(1.380678511e-07 3.41352754e-19 -0.002159841952)
(1.174455815e-07 3.399671459e-19 -0.002159863501)
(9.654228318e-08 3.273048824e-19 -0.002159881776)
(7.539512589e-08 3.230855762e-19 -0.002159896636)
(5.404369036e-08 3.053646963e-19 -0.002159907959)
(3.259591028e-08 2.996518841e-19 -0.002159915619)
(1.131205915e-08 2.889928337e-19 -0.002159919503)
(2.210748429e-08 1.374664642e-18 -0.002158534515)
(5.749624843e-08 5.819420687e-19 -0.002158538566)
(9.046171574e-08 4.708359642e-19 -0.002158547329)
(1.238151592e-07 2.702775642e-19 -0.002158560296)
(1.5597456e-07 2.232988085e-19 -0.00215857717)
(1.865863357e-07 2.175756432e-19 -0.00215859773)
(2.155509993e-07 2.332365355e-19 -0.002158621776)
(2.427414575e-07 2.202116656e-19 -0.002158649088)
(2.680184864e-07 3.069522108e-19 -0.002158679422)
(2.913446983e-07 2.303192001e-19 -0.002158712596)
(3.127167533e-07 2.487132439e-19 -0.002158748448)
(3.320620629e-07 2.743179438e-19 -0.002158786767)
(3.493741201e-07 1.862008237e-19 -0.002158827368)
(3.64678958e-07 1.537204783e-19 -0.002158870097)
(3.77955379e-07 1.629121552e-19 -0.00215891474)
(3.892613817e-07 2.104073932e-19 -0.002158961153)
(3.98615137e-07 2.584943715e-19 -0.002159009149)
(4.060738683e-07 2.687744821e-19 -0.002159058558)
(4.1169156e-07 2.448531394e-19 -0.002159109216)
(4.155113477e-07 2.184017484e-19 -0.002159160941)
(4.175909453e-07 2.15417248e-19 -0.002159213571)
(4.179910079e-07 1.917016651e-19 -0.00215926692)
(4.167859881e-07 2.179141976e-19 -0.002159320832)
(4.140500068e-07 2.573454662e-19 -0.002159375122)
(4.098472631e-07 2.813552472e-19 -0.002159429626)
(4.042492895e-07 2.963930069e-19 -0.002159484162)
(3.973152976e-07 3.299223543e-19 -0.002159538557)
(3.891109823e-07 3.31061693e-19 -0.002159592634)
(3.797153113e-07 3.291623395e-19 -0.002159646214)
(3.691871951e-07 3.50282683e-19 -0.002159699126)
(3.576076993e-07 3.709153072e-19 -0.002159751183)
(3.450294862e-07 3.863985383e-19 -0.002159802221)
(3.315218011e-07 3.897736448e-19 -0.002159852044)
(3.171333749e-07 4.132442447e-19 -0.002159900493)
(3.019335663e-07 4.242689467e-19 -0.002159947374)
(2.859703548e-07 4.233409824e-19 -0.002159992525)
(2.693077279e-07 4.093079686e-19 -0.00216003576)
(2.519928453e-07 3.716719775e-19 -0.002160076915)
(2.340820509e-07 3.592614291e-19 -0.002160115813)
(2.156202481e-07 3.596707781e-19 -0.002160152289)
(1.966555339e-07 3.565938152e-19 -0.002160186177)
(1.772439236e-07 3.690247384e-19 -0.002160217315)
(1.57424229e-07 3.778163838e-19 -0.002160245549)
(1.372445298e-07 3.699182654e-19 -0.002160270721)
(1.167437504e-07 3.598347517e-19 -0.002160292691)
(9.596631126e-08 3.532022849e-19 -0.002160311309)
(7.494466983e-08 3.519875755e-19 -0.002160326446)
(5.371933779e-08 3.419246772e-19 -0.002160337966)
(3.239738566e-08 3.377417115e-19 -0.002160345751)
(1.12388488e-08 3.304845495e-19 -0.002160349677)
(2.197844173e-08 -8.260014076e-20 -0.002158900597)
(5.715247706e-08 -3.088531257e-19 -0.002158904814)
(8.9903447e-08 1.473760499e-19 -0.002158914014)
(1.230278866e-07 4.193543488e-19 -0.002158927649)
(1.549754847e-07 5.023087854e-19 -0.002158945416)
(1.853964276e-07 4.256051122e-19 -0.00215896706)
(2.141074083e-07 3.905170498e-19 -0.002158992323)
(2.409634046e-07 3.579568225e-19 -0.002159020946)
(2.659225365e-07 2.967977498e-19 -0.002159052728)
(2.889644169e-07 3.248052854e-19 -0.002159087489)
(3.09996655e-07 2.773592235e-19 -0.002159124993)
(3.289830511e-07 2.360309643e-19 -0.002159165024)
(3.459578894e-07 1.717819229e-19 -0.00215920742)
(3.608866566e-07 1.790105227e-19 -0.002159251957)
(3.738146168e-07 1.852498156e-19 -0.002159298454)
(3.847780618e-07 1.877682888e-19 -0.002159346733)
(3.937918815e-07 2.119692933e-19 -0.002159396587)
(4.009293857e-07 2.607445277e-19 -0.002159447865)
(4.062350966e-07 2.589643565e-19 -0.002159500349)
(4.097705722e-07 3.017700266e-19 -0.002159553892)
(4.115879195e-07 3.085213852e-19 -0.002159608284)
(4.117622354e-07 2.86612752e-19 -0.002159663376)
(4.103694537e-07 2.975164704e-19 -0.002159718966)
(4.074782181e-07 3.118200268e-19 -0.002159774901)
(4.031617212e-07 3.267034352e-19 -0.002159830979)
(3.97481896e-07 3.413419972e-19 -0.002159887047)
(3.905128329e-07 3.554545332e-19 -0.0021599429)
(3.823152017e-07 3.644640644e-19 -0.002159998387)
(3.729664885e-07 3.667846911e-19 -0.002160053309)
(3.625284698e-07 3.815168836e-19 -0.002160107507)
(3.51076974e-07 4.151082819e-19 -0.00216016079)
(3.386629768e-07 4.423541888e-19 -0.00216021299)
(3.253501836e-07 4.390827862e-19 -0.002160263922)
(3.111963488e-07 4.470280366e-19 -0.002160313413)
(2.96251261e-07 4.477251296e-19 -0.002160361286)
(2.805792506e-07 4.409501469e-19 -0.002160407362)
(2.642240004e-07 4.481617571e-19 -0.002160451475)
(2.472444539e-07 4.415945995e-19 -0.00216049344)
(2.2967826e-07 4.41591327e-19 -0.002160533099)
(2.115796396e-07 4.330173177e-19 -0.002160570269)
(1.929906145e-07 4.296738411e-19 -0.0021606048)
(1.739616131e-07 4.284331058e-19 -0.002160636517)
(1.545302038e-07 4.276643905e-19 -0.002160665272)
(1.347407373e-07 4.268187106e-19 -0.002160690902)
(1.146319205e-07 4.182011321e-19 -0.002160713265)
(9.4245542e-08 4.171974947e-19 -0.00216073221)
(7.361252977e-08 4.092170784e-19 -0.002160747607)
(5.276950877e-08 4.095430821e-19 -0.002160759315)
(3.182286018e-08 4.10732303e-19 -0.002160767216)
(1.103529997e-08 4.124273574e-19 -0.002160771182)
(2.152356629e-08 -9.447429274e-19 -0.002159260319)
(5.596627033e-08 -4.331862849e-19 -0.002159264732)
(8.80457228e-08 -3.776270754e-19 -0.002159274436)
(1.204985633e-07 -8.892673053e-20 -0.00215928881)
(1.517562976e-07 3.747151033e-20 -0.002159307506)
(1.814228494e-07 8.7088417e-20 -0.002159330224)
(2.093498131e-07 1.475034837e-19 -0.002159356683)
(2.354781467e-07 1.427589494e-19 -0.002159386673)
(2.597604765e-07 1.266108127e-19 -0.00215941998)
(2.820782297e-07 1.936254336e-19 -0.00215945634)
(3.023707325e-07 1.302974362e-19 -0.002159495504)
(3.20680086e-07 1.712470969e-19 -0.002159537295)
(3.369684935e-07 2.706351996e-19 -0.002159581475)
(3.512351447e-07 2.96079668e-19 -0.002159627825)
(3.635384565e-07 2.850053424e-19 -0.002159676171)
(3.738837855e-07 2.486800911e-19 -0.002159726272)
(3.823459348e-07 2.128647375e-19 -0.002159777962)
(3.889626885e-07 2.354595293e-19 -0.002159831033)
(3.938060856e-07 2.817949415e-19 -0.002159885298)
(3.969293318e-07 3.140026102e-19 -0.002159940566)
(3.983962253e-07 3.389648424e-19 -0.002159996645)
(3.982878327e-07 3.639635203e-19 -0.002160053363)
(3.966781983e-07 3.585538826e-19 -0.002160110529)
(3.936382997e-07 3.627509011e-19 -0.002160167969)
(3.892396915e-07 3.732592058e-19 -0.002160225498)
(3.835485227e-07 3.88806261e-19 -0.00216028294)
(3.766311928e-07 4.098885163e-19 -0.002160340116)
(3.685658665e-07 4.391183554e-19 -0.002160396846)
(3.59411472e-07 4.700415005e-19 -0.00216045296)
(3.492465731e-07 4.843874524e-19 -0.002160508274)
(3.381226001e-07 5.081110789e-19 -0.002160562626)
(3.26105076e-07 5.329986496e-19 -0.002160615822)
(3.132383155e-07 5.411693181e-19 -0.002160667706)
(2.995868474e-07 5.311328553e-19 -0.002160718083)
(2.851930923e-07 5.288330451e-19 -0.002160766798)
(2.701146845e-07 5.250366235e-19 -0.00216081366)
(2.543923276e-07 5.263012856e-19 -0.002160858511)
(2.380752494e-07 5.33685081e-19 -0.002160901168)
(2.211985274e-07 5.278781584e-19 -0.002160941467)
(2.03811718e-07 5.026135324e-19 -0.002160979237)
(1.85958207e-07 4.94378422e-19 -0.002161014313)
(1.67672291e-07 4.777236833e-19 -0.002161046532)
(1.489953452e-07 4.721769932e-19 -0.002161075733)
(1.299599992e-07 4.68751138e-19 -0.002161101762)
(1.106078771e-07 4.595541831e-19 -0.002161124465)
(9.097275882e-08 4.564696112e-19 -0.0021611437)
(7.108481136e-08 4.545314297e-19 -0.002161159319)
(5.097703479e-08 4.613349578e-19 -0.002161171193)
(3.075260258e-08 4.707828557e-19 -0.002161179189)
(1.067171099e-08 4.839846922e-19 -0.002161183187)
(2.067415346e-08 -5.566659164e-20 -0.002159615811)
(5.374009545e-08 -1.115595288e-19 -0.002159620396)
(8.45049278e-08 -1.461786266e-19 -0.002159630587)