/*--------------------------------*- C++ -*----------------------------------*\
  =========                 |
  \\      /  F ield         | OpenFOAM: The Open Source CFD Toolbox
   \\    /   O peration     | Website:  https://openfoam.org
    \\  /    A nd           | Version:  7
     \\/     M anipulation  |
\*---------------------------------------------------------------------------*/
FoamFile
{
    version     2.0;
    format      ascii;
    class       volTensorField;
    location    "0.003";
    object      grad(U);
}
// * * * * * * * * * * * * * * * * * * * * * * * * * * * * * * * * * * * * * //

dimensions      [0 0 -1 0 0 0 0];

internalField   nonuniform List<tensor> 
1166
(
(0.0009951177695 -3.580873711e-15 -6.232925605e-05 -1.56538121e-14 0.001627455151 0 4.812022201e-06 1.015264675e-15 0.01272509946)
(0.001316724773 -4.142832844e-15 -0.0001473308845 -2.082870222e-15 0.001423505946 0 1.251359328e-05 -1.122069417e-15 0.01272531354)
(0.0009800843893 3.691922941e-15 -6.301593309e-05 1.276216414e-14 0.00160292001 -2.948118397e-13 4.769525505e-06 3.829491017e-15 0.01264145215)
(0.001296768482 3.691010126e-15 -0.0001487559223 1.005386257e-15 0.001402017941 0 1.248315479e-05 4.655929669e-16 0.01264176964)
(0.001261828998 1.713026953e-15 -0.0002425640544 -4.436472712e-16 0.001336620903 0 1.985077462e-05 -2.125161666e-15 0.0126424044)
(0.001265339531 3.631232191e-15 -0.0003358027641 -5.903201011e-16 0.001318567459 4.562171951e-14 2.742861774e-05 -4.827499719e-15 0.01264328816)
(0.00123763944 1.981875621e-15 -0.0004288953761 -1.725741335e-15 0.001304658615 3.648328521e-14 3.449236456e-05 -4.428740373e-15 0.0126444514)
(0.001198037475 -1.014206102e-15 -0.0005222260167 -1.176416294e-15 0.001289676211 0 4.093838065e-05 -2.133308297e-15 0.01264592739)
(0.001152086548 -1.686564848e-16 -0.0006156497839 -9.028966214e-16 0.001272973169 -2.67022712e-14 4.700400155e-05 -7.825428529e-16 0.01264772361)
(0.001101532644 8.099769114e-16 -0.0007092172443 -8.36518047e-16 0.00125467431 2.379429111e-14 5.280308664e-05 -1.426229591e-15 0.01264989893)
(0.001045568955 1.928248747e-15 -0.000803352914 -8.80108795e-16 0.001234917198 0 5.8085516e-05 -1.010003033e-15 0.01265234268)
(0.0009840960237 1.618305644e-15 -0.00089822225 -1.03991527e-15 0.001213592703 -1.985777597e-14 6.274834288e-05 1.975257962e-16 0.01265493684)
(0.0009183069174 1.351499755e-15 -0.0009936325673 -1.014688389e-15 0.00119079225 0 6.705627707e-05 6.444567851e-17 0.01265772477)
(0.0008487969793 1.111034959e-15 -0.001089576624 -1.085833774e-15 0.001166640968 0 7.105009548e-05 -1.442850031e-16 0.01266068614)
(0.0007761980934 7.469916863e-16 -0.001186019943 -1.033014874e-15 0.001141263069 0 7.477216913e-05 -9.808693766e-16 0.01266390193)
(0.0007008139867 1.436541151e-15 -0.001283145382 -1.040488422e-15 0.001114802623 0 7.80409987e-05 -1.606159946e-15 0.01266729935)
(0.0006227422948 2.11119403e-15 -0.001380864533 -1.081595257e-15 0.001087357518 0 8.087645518e-05 -1.465838822e-15 0.01267089915)
(0.0005423019043 7.11734089e-16 -0.001478969872 -1.159406184e-15 0.001059022883 0 8.336406269e-05 -1.633880912e-15 0.01267461128)
(0.0004598214916 -7.563234647e-16 -0.001577330941 -1.050145089e-15 0.001029888856 2.775093086e-14 8.546843985e-05 -2.175021461e-15 0.01267846295)
(0.0003759319965 -4.50590073e-16 -0.001675762096 -9.71826616e-16 0.001000044724 1.344797912e-14 8.715238887e-05 -1.959378438e-15 0.01268241356)
(0.000291015751 -1.778942008e-16 -0.00177406712 -9.098286699e-16 0.0009696029129 0 8.834995613e-05 -1.526082861e-15 0.01268647423)
(0.0002048608465 -7.124009249e-16 -0.001871692335 -8.701072573e-16 0.0009386488107 0 8.925888195e-05 -1.314224118e-15 0.01269054955)
(0.0001175849088 -1.346360337e-15 -0.001968168269 -7.822249437e-16 0.0009072394234 1.246690027e-14 8.991854314e-05 -1.280384257e-15 0.01269459547)
(2.94782487e-05 -1.232255184e-15 -0.002063080278 -6.994734968e-16 0.0008754425277 0 9.027725328e-05 -9.288961961e-16 0.01269861797)
(-5.879590389e-05 -3.582972396e-16 -0.002155948355 -6.312970558e-16 0.0008433163672 0 9.025971411e-05 -6.856200616e-16 0.01270259219)
(-0.0001469150869 4.365037002e-16 -0.002246212764 -6.255335983e-16 0.0008109527731 0 8.984856546e-05 -4.957932434e-16 0.01270649503)
(-0.000235078813 4.076430937e-16 -0.002333065664 -6.194789721e-16 0.0007784090212 0 8.915672175e-05 -3.435069086e-16 0.01271026773)
(-0.0003231267355 3.389708243e-16 -0.002415759924 -6.116704125e-16 0.0007457390068 0 8.817424774e-05 -2.1459248e-16 0.01271388152)
(-0.000411003087 2.059661338e-16 -0.002493534623 -6.034859475e-16 0.0007129924823 0 8.685485911e-05 -1.000160098e-16 0.01271730832)
(-0.0004982010147 1.161445307e-17 -0.00256545059 -5.893707724e-16 0.0006802110151 0 8.522124969e-05 -1.666005024e-16 0.01272052641)
(-0.0005845890677 -2.463887184e-16 -0.002630519107 -5.707698012e-16 0.0006474577682 0 8.332990233e-05 -2.542263407e-16 0.01272350324)
(-0.0006705048684 -5.716691879e-16 -0.002687655616 -5.449922082e-16 0.0006147673459 0 8.123663342e-05 -3.775318246e-16 0.01272620116)
(-0.0007553688008 -3.049974321e-16 -0.002735844424 -5.134212474e-16 0.0005821711397 0 7.884480717e-05 -5.032483337e-16 0.0127286185)
(-0.000838925743 5.026379899e-16 -0.002774037574 -5.041175084e-16 0.0005497216866 0 7.610411225e-05 -6.430090813e-16 0.01273075065)
(-0.0009216494509 6.939329034e-16 -0.002800866353 -5.140237949e-16 0.0005174515427 1.090902313e-14 7.318878782e-05 -9.52461603e-16 0.01273255841)
(-0.001003601 4.682258692e-16 -0.00281503196 -5.123747389e-16 0.000485380349 0 7.012221864e-05 -9.122053852e-16 0.01273402872)
(-0.001084572644 4.053097408e-16 -0.002815328298 -5.12496208e-16 0.0004535305501 0 6.683138745e-05 -8.869202978e-16 0.01273516384)
(-0.001164494432 5.328230822e-17 -0.002800366091 -5.090640072e-16 0.0004219246511 5.415912139e-15 6.337175066e-05 -8.625669117e-16 0.01273596704)
(-0.001243275721 -6.201179579e-16 -0.002768765524 -4.954585279e-16 0.0003905818974 5.411728348e-15 5.975473198e-05 -7.929525253e-16 0.01273644598)
(-0.001320588788 -9.647692407e-16 -0.002719186672 -4.676893367e-16 0.0003595225358 0 5.593579017e-05 -7.30654878e-16 0.01273661764)
(-0.00139647979 -7.497743858e-16 -0.002650201712 -4.408845067e-16 0.0003287723721 0 5.193346023e-05 -7.626424772e-16 0.012736507)
(-0.001471325828 -4.158613132e-16 -0.002560350296 -4.249028303e-16 0.0002983443981 5.421813062e-15 4.779669218e-05 -8.200201249e-16 0.01273613627)
(-0.001545005589 -3.970092404e-16 -0.002448115373 -4.124456465e-16 0.0002682463154 0 4.360272104e-05 -7.587498124e-16 0.01273552467)
(-0.001617510961 -5.990856038e-16 -0.002312075718 -3.975134691e-16 0.0002384918637 0 3.931570006e-05 -7.239811165e-16 0.01273471435)
(-0.001688864391 -5.703479467e-16 -0.002150880162 -3.797158386e-16 0.0002090862735 0 3.484944421e-05 -7.107357059e-16 0.01273374711)
(-0.001759000498 -3.447642852e-16 -0.001963032549 -3.683535719e-16 0.0001800395568 0 3.02781182e-05 -7.410456048e-16 0.01273267951)
(-0.001828227299 -1.800925095e-16 -0.001747031548 -3.594357571e-16 0.0001513567526 5.50373406e-15 2.567562781e-05 -7.248394236e-16 0.01273156221)
(-0.001896777936 -1.533426222e-16 -0.001501394331 -3.519564253e-16 0.0001230367923 -5.528719149e-15 2.110526087e-05 -6.211104738e-16 0.0127304535)
(-0.001964939963 -1.997824554e-16 -0.001224768679 -3.454063878e-16 9.507709167e-05 5.556345859e-15 1.652435131e-05 -6.551088448e-16 0.01272941524)
(-0.002027795286 -7.793763997e-17 -0.0009158189096 -3.377359334e-16 6.746872354e-05 -5.586537641e-15 1.184452756e-05 -5.657791223e-16 0.01272850432)
(-0.00206880027 -7.015904839e-17 -0.0005729990805 -3.337959345e-16 4.033454093e-05 -5.619226911e-15 7.148570658e-06 -5.052716384e-16 0.01272781538)
(-0.002189908726 -8.880828175e-17 -0.0001960478938 -3.276860638e-16 1.406623724e-05 0 2.549254718e-06 -5.2042835e-16 0.0127274309)
(0.0009661792573 9.014881266e-15 -6.352021595e-05 2.225787375e-14 0.001580402282 2.994031227e-13 4.84457938e-06 -3.698926656e-15 0.01256143117)
(0.001277913103 1.086007032e-14 -0.0001499475812 -5.120831016e-16 0.001382201558 0 1.267297933e-05 -2.266330752e-15 0.012561694)
(0.00124259304 9.948645216e-15 -0.0002447114383 -4.101219044e-15 0.00131740491 0 1.996521146e-05 -1.64926933e-15 0.01256225239)
(0.001245533435 3.798772879e-15 -0.0003391400214 -5.794354659e-15 0.001299182547 4.633221412e-14 2.722587134e-05 -1.627797001e-15 0.01256321292)
(0.001218795869 -5.502286513e-15 -0.0004331809471 -4.213065961e-15 0.001285205298 -3.705146147e-14 3.417810748e-05 8.445378857e-16 0.0125646367)
(0.001181286626 -7.36815876e-15 -0.0005271289134 -1.921472467e-15 0.001270471945 0 4.084746755e-05 5.569911418e-16 0.01256636004)
(0.001136674569 -3.051498612e-15 -0.0006213800798 -7.713040017e-16 0.001254302204 0 4.698985388e-05 5.127066016e-16 0.01256834683)
(0.001085975052 -4.540231988e-16 -0.000716042477 -6.25359991e-16 0.001236435014 0 5.257193412e-05 6.616046662e-16 0.01257056257)
(0.001030798866 -7.124419724e-16 -0.0008107976953 -5.031055962e-16 0.001216944317 2.192255874e-14 5.801405843e-05 1.059725907e-15 0.01257306931)
(0.0009708234134 7.482585773e-16 -0.0009060480849 -3.59422221e-16 0.001196029416 -2.016703312e-14 6.306844698e-05 1.757704524e-15 0.01257573939)
(0.0009059069496 2.211395568e-15 -0.001002067791 -5.335652079e-16 0.001173645642 0 6.752319574e-05 1.644086085e-15 0.01257853927)
(0.0008373271795 3.756642e-15 -0.001098763166 -6.556275953e-16 0.001149899048 -1.760951233e-14 7.153069932e-05 1.850222985e-15 0.01258152548)
(0.0007657333438 4.450168452e-15 -0.001196130169 -9.901414443e-16 0.001124938303 0 7.510282639e-05 1.470636849e-15 0.01258471196)
(0.0006913687918 1.988567425e-15 -0.001294061862 -1.161200634e-15 0.001098894283 0 7.830605226e-05 1.287232029e-15 0.01258811071)
(0.0006142919695 1.048220106e-15 -0.001392439751 -1.11881537e-15 0.001071874651 0 8.117280612e-05 1.233304119e-15 0.01259162726)
(0.0005348285874 2.284864597e-15 -0.001491157731 -1.145398291e-15 0.001043960337 -1.459269486e-14 8.367673835e-05 1.352072897e-15 0.01259527669)
(0.0004536822788 1.651065337e-15 -0.001590121979 -1.241956024e-15 0.001015250618 0 8.573787131e-05 9.91936676e-16 0.01259903299)
(0.0003711963143 -8.394987943e-16 -0.001689127268 -1.202025696e-15 0.0009858599199 0 8.734060908e-05 7.818074488e-16 0.01260289423)
(0.0002872134477 -1.582872118e-15 -0.001787715078 -1.050439811e-15 0.0009558775101 0 8.864067992e-05 6.546422211e-16 0.01260677263)
(0.0002019037658 -7.382227962e-16 -0.001885484543 -9.579547869e-16 0.000925363612 0 8.966558859e-05 6.648923849e-16 0.01261062462)
(0.0001156988932 -9.166766424e-16 -0.001982132947 -9.05685808e-16 0.0008943923589 0 9.030888501e-05 5.827989914e-16 0.01261445861)
(2.910230747e-05 -1.168386099e-15 -0.00207719173 -8.179063603e-16 0.0008630349627 0 9.055671566e-05 1.74715655e-16 0.01261825436)
(-5.774347153e-05 -7.08393209e-16 -0.002170094522 -7.541814701e-16 0.0008313770025 0 9.045028828e-05 -1.22857047e-16 0.01262198409)
(-0.0001448172164 -3.782096928e-16 -0.002260136572 -7.099275908e-16 0.0007994745375 0 9.005363837e-05 -1.494122509e-16 0.01262558787)
(-0.0002318518162 -1.608579989e-16 -0.002346645144 -6.781868154e-16 0.0007673898549 0 8.935642984e-05 -1.504365312e-16 0.01262903835)
(-0.0003187936193 -5.198155892e-18 -0.002428870221 -6.568153809e-16 0.0007351776196 0 8.835704705e-05 -1.427557038e-16 0.01263230951)
(-0.0004052194255 1.224117708e-16 -0.002506000686 -6.36836203e-16 0.0007028851411 0 8.702500589e-05 -1.414148074e-16 0.01263537763)
(-0.0004909657902 2.367514015e-16 -0.002577189741 -6.250585805e-16 0.0006705752413 0 8.535006346e-05 -1.646505848e-16 0.01263821714)
(-0.0005762927798 3.877505428e-16 -0.002641354509 -6.15628022e-16 0.0006382888613 0 8.345539364e-05 -2.101212789e-16 0.01264078565)
(-0.0006607796873 4.175896727e-16 -0.002697519102 -6.139092468e-16 0.0006060595046 0 8.128368323e-05 -3.123086009e-16 0.01264307466)
(-0.0007440414503 3.820092356e-16 -0.002744731326 -6.060449677e-16 0.0005739379051 0 7.874081858e-05 -4.763908502e-16 0.01264508844)
(-0.000826503587 1.000520542e-15 -0.002781699256 -6.029548678e-16 0.000541964908 1.112478891e-14 7.598787951e-05 -5.639225278e-16 0.01264678474)
(-0.0009083557302 8.712589808e-16 -0.002807167292 -6.221070963e-16 0.0005101591408 0 7.309111453e-05 -4.334773741e-16 0.01264814107)
(-0.0009891535705 2.896634855e-17 -0.002819964654 -6.147190227e-16 0.0004785441652 0 6.999117645e-05 -3.73581558e-16 0.01264916543)
(-0.001068911682 -2.922669499e-16 -0.002818790759 -5.998269226e-16 0.0004471516727 0 6.670733769e-05 -3.420066864e-16 0.01264985664)
(-0.001147760489 -6.1507934e-16 -0.002802353575 -5.767481832e-16 0.0004159977983 -5.500257412e-15 6.323637751e-05 -3.248789248e-16 0.01265021911)
(-0.001225179254 -6.493166872e-16 -0.002769307346 -5.50137566e-16 0.0003851022275 -5.496008464e-15 5.959240372e-05 -4.337762315e-16 0.01265026927)
(-0.00130116474 -2.396274778e-16 -0.002718303772 -5.319965335e-16 0.0003544957797 0 5.576079478e-05 -6.45675589e-16 0.01265002739)
(-0.001376130538 3.108198905e-16 -0.002647990627 -5.236064778e-16 0.0003241922715 5.499210598e-15 5.172561427e-05 -8.365305362e-16 0.01264950215)
(-0.001450257604 3.392045404e-16 -0.002556865179 -5.242767557e-16 0.000294201788 0 4.760189957e-05 -9.25126548e-16 0.01264872291)
(-0.001523349743 1.658533543e-16 -0.002443501347 -5.15841779e-16 0.0002645287182 0 4.340672681e-05 -9.984125574e-16 0.01264772721)
(-0.001594624487 2.588814277e-16 -0.002306522532 -5.117186848e-16 0.0002351870223 0 3.911499576e-05 -1.097799939e-15 0.0126465716)
(-0.001664521022 2.594762923e-16 -0.002144567742 -5.088682726e-16 0.000206203098 5.54710431e-15 3.470208208e-05 -1.227450006e-15 0.0126452975)
(-0.001733860422 -8.652666648e-17 -0.001956263331 -5.049028017e-16 0.0001775732135 5.566842196e-15 3.014579643e-05 -1.284599545e-15 0.01264393909)
(-0.00180259921 -5.870996023e-16 -0.001740129739 -4.912599935e-16 0.0001492956645 0 2.554927318e-05 -1.312187478e-15 0.01264256063)
(-0.001871041415 -2.574615234e-16 -0.001494752209 -4.72928058e-16 0.0001213679911 0 2.095297694e-05 -1.343424064e-15 0.01264122839)
(-0.001938513441 -4.80632361e-19 -0.001218718684 -4.708138726e-16 9.378005595e-05 5.642878192e-15 1.641238906e-05 -1.391690642e-15 0.01264002006)
(-0.002000212884 -2.999732878e-16 -0.0009107842074 -4.609058816e-16 6.654751368e-05 5.673540168e-15 1.182862236e-05 -1.416076913e-15 0.01263900093)
(-0.002040774231 -6.799535464e-17 -0.0005695944548 -4.50715311e-16 3.978222644e-05 0 7.123684809e-06 -1.421866474e-15 0.01263823361)
(-0.002159715063 9.599847935e-17 -0.0001948283427 -4.474868462e-16 1.386868355e-05 5.742411974e-15 2.529023667e-06 -1.466790614e-15 0.01263781336)
(0.0009511827913 -1.44948694e-15 -6.398591865e-05 -2.274369967e-14 0.001555890609 3.040659122e-13 4.910733838e-06 -4.477642192e-15 0.01248437025)
(0.001258555585 -9.757499441e-16 -0.0001509882041 -6.339000713e-15 0.001360754 0 1.287530292e-05 -1.311678679e-15 0.01248472258)
(0.001224949206 4.38270908e-16 -0.0002465501816 -3.734892782e-15 0.001297271709 0 2.019991022e-05 1.217841135e-15 0.01248547043)
(0.001228775308 -3.362300446e-15 -0.0003420643794 -2.963836367e-15 0.001279885533 0 2.726639142e-05 3.753577066e-15 0.01248658228)
(0.00120194777 -3.245899087e-15 -0.0004372107401 -8.199078222e-16 0.001266539999 -3.762848672e-14 3.39961867e-05 4.125683942e-15 0.01248801275)
(0.0011639016 -2.755057333e-16 -0.0005321788739 -6.800907459e-16 0.001252061145 0 4.044558268e-05 1.948013453e-15 0.01248966232)
(0.0011202667 -5.253810214e-16 -0.0006271169749 -5.076425544e-16 0.001236026816 0 4.663013826e-05 5.79778674e-16 0.01249162767)
(0.001070976651 -7.485631583e-16 -0.0007223485394 -3.804603145e-16 0.001218523397 2.454118816e-14 5.240078114e-05 3.407297949e-16 0.01249379071)
(0.001015964621 -1.221486356e-15 -0.0008179905708 -2.282926844e-16 0.001199395472 0 5.772406685e-05 1.320903832e-16 0.01249615101)
(0.0009568019139 3.22698102e-17 -0.0009139694786 -7.000378286e-17 0.001178727868 0 6.276496968e-05 -5.207816643e-17 0.01249879972)
(0.0008935390122 1.059809457e-15 -0.001010607348 -1.883770583e-16 0.001156713576 0 6.732786162e-05 3.051125173e-16 0.01250164947)
(0.0008261915555 1.726143458e-15 -0.001108025248 -2.270398727e-16 0.001133380514 1.788375612e-14 7.132042456e-05 5.997209183e-16 0.0125046891)
(0.0007556045365 2.483149471e-15 -0.001206072469 -3.985079565e-16 0.001108845302 -1.691490767e-14 7.48912401e-05 1.945549169e-15 0.01250788274)
(0.0006820158655 2.162187069e-15 -0.001304589807 -5.228162291e-16 0.001083224233 -1.610116748e-14 7.813979686e-05 2.643911857e-15 0.01251119056)
(0.0006058004241 1.875580508e-15 -0.001403506145 -6.207930344e-16 0.001056607338 0 8.104040575e-05 2.201385741e-15 0.01251461114)
(0.0005276360994 1.548650878e-15 -0.001502806687 -6.78403743e-16 0.001029104073 0 8.347906824e-05 2.117121609e-15 0.01251815153)
(0.0004478331976 1.122138887e-15 -0.001602311082 -7.145024771e-16 0.001000834118 0 8.545853616e-05 2.295439911e-15 0.01252179289)
(0.0003662489022 6.53980769e-16 -0.001701615106 -7.212727026e-16 0.0009718901632 -1.387010793e-14 8.712699e-05 2.188393453e-15 0.01252545975)
(0.0002831141431 1.838319529e-16 -0.001800373214 -7.111993051e-16 0.0009423345607 0 8.850902652e-05 1.480254293e-15 0.01252911075)
(0.0001990920553 -4.583171845e-16 -0.001898340797 -6.758742389e-16 0.0009122486964 0 8.949386684e-05 1.014135555e-15 0.01253275703)
(0.0001144488589 4.039565416e-16 -0.001995119312 -6.184257695e-16 0.0008817242394 0 9.006727032e-05 7.34124188e-16 0.01253637716)
(2.898042402e-05 1.279792216e-15 -0.00209016351 -6.537476874e-16 0.0008508330694 0 9.029007488e-05 4.186395887e-16 0.01253991738)
(-5.694137711e-05 7.946301745e-16 -0.002182835991 -6.662203554e-16 0.0008196230207 0 9.021450717e-05 2.142128813e-16 0.01254333741)
(-0.000142819005 5.243101003e-16 -0.002272563197 -6.630077196e-16 0.0007881703304 0 8.980699515e-05 8.911518022e-17 0.01254661564)
(-0.0002286121134 3.731504105e-16 -0.002358646039 -6.56509339e-16 0.000756537313 0 8.907992153e-05 1.425002759e-17 0.01254972679)
(-0.0003140767089 2.994764483e-16 -0.002440339004 -6.438931572e-16 0.0007247801088 0 8.801656348e-05 -2.692536851e-17 0.01255264587)
(-0.0003991118209 2.923799245e-16 -0.002516869933 -6.338761998e-16 0.0006929569551 0 8.658458904e-05 -4.210385513e-17 0.01255535072)
(-0.0004838263454 2.911898699e-16 -0.002587212958 -6.262913112e-16 0.0006611127824 1.160764349e-14 8.491241674e-05 -3.34699762e-17 0.01255779386)
(-0.0005679025548 3.685174389e-16 -0.002650434189 -6.167857039e-16 0.0006292842893 1.150958653e-14 8.298771965e-05 -2.649060004e-18 0.01255995635)
(-0.0006507888565 5.522486948e-16 -0.002705628904 -6.095221585e-16 0.0005975206215 0 8.072069254e-05 5.37384547e-17 0.01256184685)
(-0.0007328150329 7.630050872e-16 -0.002751632141 -6.14097056e-16 0.0005658740826 0 7.820775215e-05 6.86882185e-17 0.01256342993)
(-0.0008144139016 3.095557688e-16 -0.002787270553 -6.206199889e-16 0.000534364502 1.129804211e-14 7.550710432e-05 3.511886324e-18 0.01256467285)
(-0.0008951385048 -1.329152772e-16 -0.002811379972 -6.00205776e-16 0.0005030132444 -5.625727365e-15 7.261492001e-05 2.184976924e-16 0.01256558316)
(-0.0009748472228 5.487479897e-17 -0.002822749316 -5.845896136e-16 0.0004718540134 -5.607679291e-15 6.952774705e-05 1.978239606e-16 0.01256615983)
(-0.001053571883 1.739776107e-16 -0.002820154448 -5.777538834e-16 0.0004409073902 -1.118903029e-14 6.622394642e-05 7.813093032e-17 0.01256639443)
(-0.001131226701 4.781085931e-16 -0.002802287583 -5.686833746e-16 0.0004101980327 0 6.273394755e-05 -1.51030726e-16 0.01256630851)
(-0.001207658006 9.033554017e-16 -0.002767846016 -5.74376197e-16 0.0003797440974 5.581601193e-15 5.90592183e-05 -4.201632098e-16 0.01256592195)
(-0.001282398259 9.843636771e-16 -0.002715457821 -5.832043971e-16 0.0003495700275 5.581320585e-15 5.524891351e-05 -5.526568943e-16 0.01256526019)
(-0.001356134948 6.300520099e-16 -0.00264374836 -5.883457407e-16 0.0003197053795 5.584853195e-15 5.133437461e-05 -5.732284246e-16 0.01256433466)
(-0.001429415404 4.039242331e-16 -0.002551407501 -5.836379525e-16 0.0002901443461 0 4.725973261e-05 -4.85171411e-16 0.01256316016)
(-0.001501443106 4.93200187e-16 -0.002437074955 -5.813237675e-16 0.0002608935174 0 4.303138977e-05 -4.470308721e-16 0.01256180016)
(-0.001571981409 6.050899095e-16 -0.0022993724 -5.800211663e-16 0.0002319725646 0 3.867250873e-05 -4.036016246e-16 0.012560305)
(-0.001641058881 4.246518326e-16 -0.002136857482 -5.824668445e-16 0.00020339247 0 3.4269265e-05 -3.496995178e-16 0.01255872187)
(-0.00170930597 1.135457912e-16 -0.001948182889 -5.752226532e-16 0.0001751677035 -5.653538062e-15 2.982888154e-05 -2.985620683e-16 0.01255709307)
(-0.001777377717 1.369629208e-16 -0.001732050351 -5.682038394e-16 0.0001472877622 0 2.529683776e-05 -3.419155534e-16 0.01255546629)
(-0.001845291081 2.911468586e-16 -0.001487093882 -5.641705592e-16 0.0001197467283 5.702264307e-15 2.072263173e-05 -4.044102388e-16 0.01255391792)
(-0.001912541324 2.155037254e-16 -0.001211998517 -5.610434677e-16 9.253498348e-05 0 1.61166637e-05 -3.912838805e-16 0.01255252681)
(-0.00197343685 9.249878384e-17 -0.0009053902402 -5.542450431e-16 6.566078345e-05 -5.761897707e-15 1.154583577e-05 -4.07076839e-16 0.01255138469)
(-0.002013370865 2.33127409e-16 -0.0005659500229 -5.486447691e-16 3.925957234e-05 0 6.985146293e-06 -4.583618696e-16 0.0125505504)
(-0.002131457882 1.812703152e-16 -0.0001935304383 -5.464014959e-16 1.36892748e-05 0 2.483973583e-06 -4.541591547e-16 0.01255008225)
(0.0009372095986 -2.532600242e-15 -6.479748109e-05 -2.091156423e-14 0.001533430483 0 4.707120382e-06 1.925724366e-15 0.01240972287)
(0.001239903878 -3.170182818e-15 -0.0001528839089 -4.772738365e-15 0.00134089682 0 1.230962987e-05 1.24096892e-15 0.01241009108)
(0.001206774312 -2.734588464e-15 -0.0002494627694 -1.743615436e-15 0.001278188483 0 1.937194305e-05 1.147694342e-15 0.01241092316)
(0.001210627261 -3.086473819e-15 -0.0003456612801 -5.337489485e-16 0.001261034339 0 2.645410795e-05 1.377010859e-15 0.01241209983)
(0.001184810629 -3.251231408e-16 -0.000441177641 3.312047644e-16 0.001247876953 0 3.348259317e-05 3.049978073e-17 0.0124135212)
(0.001148079208 1.851130625e-15 -0.000536693204 -1.491245725e-16 0.001233802904 0 4.009947274e-05 8.571312543e-18 0.01241517375)
(0.001104688376 1.086941417e-15 -0.0006324710604 -3.243516385e-16 0.001218200427 0 4.618003999e-05 -9.73085478e-17 0.01241706005)
(0.001055745926 7.493646118e-16 -0.0007284139996 -3.894278695e-16 0.001200954195 0 5.191864654e-05 -1.230469378e-16 0.01241918132)
(0.001001995978 3.60205954e-16 -0.00082476152 -4.222946281e-16 0.001182143067 2.261070323e-14 5.723202478e-05 -8.527576771e-16 0.01242152879)
(0.0009436532011 1.881739456e-16 -0.0009216455332 -3.83399765e-16 0.001161863026 0 6.209099255e-05 -9.115062187e-16 0.01242411449)
(0.0008812630274 3.342241471e-16 -0.001019081983 -3.755359631e-16 0.001140185139 0 6.652186058e-05 -5.132769634e-16 0.01242693148)
(0.0008151168976 -1.16816856e-15 -0.001117104149 -3.746855264e-16 0.001117243658 0 7.053980636e-05 -3.207450396e-16 0.01242990494)
(0.0007453229312 -1.592435759e-15 -0.001215616414 -1.614662765e-16 0.001093106607 0 7.421672262e-05 1.656087397e-16 0.01243298584)
(0.0006726194711 1.323084091e-15 -0.001314607655 -1.09784627e-16 0.001067865562 0 7.751020381e-05 4.907263209e-16 0.0124361743)
(0.0005977131972 2.653175276e-15 -0.001414095416 -2.961256391e-16 0.001041644689 0 8.031726699e-05 7.162759788e-16 0.0124394943)
(0.0005208535559 1.954490096e-15 -0.001513919065 -3.968461179e-16 0.001014569005 -1.505075647e-14 8.26613807e-05 8.722021614e-16 0.01244291879)
(0.0004419194178 1.438539193e-15 -0.001613715497 -4.719255436e-16 0.0009867338753 0 8.469225786e-05 6.070095851e-16 0.01244637276)
(0.000361174176 1.892705627e-15 -0.001713194585 -5.038124957e-16 0.000958204347 0 8.642831013e-05 2.540583393e-16 0.01244981702)
(0.0002792982074 2.327981236e-15 -0.00181216774 -6.00224119e-16 0.0009290664543 0 8.775440476e-05 -1.97969036e-16 0.01245326521)
(0.000196599823 1.778277115e-15 -0.001910291474 -6.61943998e-16 0.0008994172257 0 8.865597918e-05 -7.885547226e-16 0.01245669823)
(0.0001129443332 1.161255202e-15 -0.002007035875 -6.99789294e-16 0.0008693348662 1.305848268e-14 8.922612637e-05 -1.287895345e-15 0.01246006065)
(2.859114614e-05 6.88551646e-16 -0.002101853907 -7.014213711e-16 0.0008388739205 0 8.949277884e-05 -7.89681102e-16 0.01246330903)
(-5.598939961e-05 4.890510826e-16 -0.002194274745 -6.950065984e-16 0.0008081073694 0 8.938215829e-05 -5.060796275e-16 0.01246643105)
(-0.0001406348615 3.616859876e-16 -0.00228363542 -6.884303153e-16 0.0007771023945 0 8.893237379e-05 -3.340493138e-16 0.01246939789)
(-0.0002251317691 2.763498702e-16 -0.002369240035 -6.741747982e-16 0.0007459196369 0 8.814966532e-05 -2.307883593e-16 0.01247218069)
(-0.0003092517152 2.110763374e-16 -0.002450339061 -6.627378249e-16 0.0007146190636 0 8.703312469e-05 -1.731063134e-16 0.01247475791)
(-0.0003931365868 1.485369166e-16 -0.002526021631 -6.452011115e-16 0.0006832562939 0 8.56609512e-05 -1.448935662e-16 0.01247708309)
(-0.0004767016515 8.07788095e-17 -0.002595438128 -6.331669116e-16 0.0006518659495 0 8.40037429e-05 -1.343351605e-16 0.01247912666)
(-0.0005593516227 3.610483908e-17 -0.002657716192 -6.164032826e-16 0.0006204939374 0 8.200315882e-05 -1.378318298e-16 0.01248090218)
(-0.0006411016897 1.313867856e-16 -0.002711804086 -6.006000107e-16 0.0005891945111 0 7.972014022e-05 -1.215446196e-16 0.01248238365)
(-0.0007221760108 6.026123376e-16 -0.00275656906 -5.926889118e-16 0.0005579992177 0 7.723163759e-05 -8.62670866e-17 0.01248352775)
(-0.0008026073479 3.346106406e-16 -0.002790887326 -6.022726177e-16 0.0005269387305 0 7.455133421e-05 -5.044010002e-18 0.0124843383)
(-0.0008823248189 3.377083178e-17 -0.002813629382 -5.802611328e-16 0.0004960346895 0 7.166786143e-05 -6.267745153e-17 0.01248481787)
(-0.0009608053961 6.541619072e-16 -0.002823552229 -5.756188116e-16 0.0004653133895 0 6.863331459e-05 -9.814831793e-17 0.01248496408)
(-0.001038212721 1.286805431e-15 -0.002819454922 -5.853644914e-16 0.0004348120227 0 6.541743907e-05 -1.237489527e-16 0.01248478296)
(-0.00111477369 1.680700071e-15 -0.002800172473 -6.05239594e-16 0.0004045425917 0 6.193502728e-05 -1.430849276e-16 0.01248427513)
(-0.001190072058 1.233695079e-15 -0.002764385949 -6.282986479e-16 0.0003745259389 0 5.824278499e-05 -1.081261734e-16 0.01248347794)
(-0.001264245684 4.96786621e-16 -0.002710714179 -6.275751369e-16 0.0003447855236 0 5.442715932e-05 -3.675135835e-17 0.01248241103)
(-0.001337219631 -1.82718664e-17 -0.00263776145 -6.224334547e-16 0.0003153316774 0 5.056252142e-05 1.960253919e-17 0.01248109745)
(-0.001409060531 -2.772560013e-16 -0.002544291795 -6.065922829e-16 0.0002861854032 0 4.65684507e-05 2.61514923e-17 0.01247957685)
(-0.001479940636 -2.385763747e-16 -0.002429073151 -5.917662138e-16 0.0002573511823 0 4.235658912e-05 4.475848019e-17 0.01247789192)
(-0.001549503461 -2.339159277e-16 -0.002290676298 -5.786099803e-16 0.0002288403581 0 3.80473776e-05 7.778469988e-17 0.01247608806)
(-0.001618118138 -2.846288152e-16 -0.002127723404 -5.663958603e-16 0.0002006664255 0 3.370122761e-05 1.239034922e-16 0.01247421346)
(-0.001685883951 -1.175484994e-16 -0.001938869777 -5.526414964e-16 0.0001728264615 0 2.934080117e-05 1.245814475e-16 0.01247232018)
(-0.00175299423 -2.412519041e-18 -0.001722850828 -5.457371659e-16 0.0001453286812 0 2.494617196e-05 1.115265148e-16 0.01247047194)
(-0.001820092686 1.702297711e-17 -0.001478459773 -5.365504868e-16 0.0001181640536 0 2.043912579e-05 1.162939675e-16 0.01246872734)
(-0.001886630901 2.007507097e-17 -0.001204421724 -5.312390373e-16 9.132217181e-05 0 1.585163295e-05 1.463350587e-16 0.01246717437)
(-0.001947602741 9.232183836e-17 -0.0008994272401 -5.228752662e-16 6.480983713e-05 0 1.123949823e-05 1.526953536e-16 0.0124658946)
(-0.001987578456 2.065093663e-16 -0.0005619814326 -5.19558237e-16 3.874449001e-05 0 6.775082788e-06 1.608193478e-16 0.01246497768)
(-0.00210326842 7.274078059e-17 -0.0001920675813 -5.150791867e-16 1.350429236e-05 0 2.447867205e-06 1.912528284e-16 0.01246448957)
(0.0009239558669 9.535396401e-16 -6.530535863e-05 -4.71832159e-15 0.001511567186 0 4.670035343e-06 1.690589911e-15 0.01233754603)
(0.001222617764 6.168291187e-16 -0.0001541695559 -2.426804156e-15 0.001321874663 0 1.215176722e-05 5.358133233e-16 0.01233786718)
(0.001190178045 -4.906549997e-17 -0.000251602343 -1.524717502e-15 0.001260238343 0 1.904961875e-05 -3.136140901e-16 0.01233853798)
(0.001193530987 -2.015923666e-16 -0.0003486164005 -1.045615588e-15 0.001243434971 0 2.599575494e-05 -9.318407998e-16 0.01233950491)
(0.001167326077 -1.529510702e-17 -0.0004450717735 -7.769507238e-16 0.00123033075 0 3.274541271e-05 -1.732401325e-15 0.01234075728)
(0.001131106707 9.980352752e-17 -0.0005413800027 -6.695550617e-16 0.001216259028 0 3.91962365e-05 -1.413474004e-15 0.01234237579)
(0.001089125282 -1.681722655e-16 -0.000637722731 -5.755883295e-16 0.001200821705 0 4.53383765e-05 -1.377209176e-15 0.01234424797)
(0.001041313032 1.38354239e-15 -0.0007343864769 -4.603781764e-16 0.001183906669 2.531153034e-14 5.101407154e-05 -1.513797368e-15 0.01234636525)
(0.0009881556864 8.619334811e-16 -0.0008315233355 -7.372100981e-16 0.001165418152 0 5.617263971e-05 -8.488994004e-16 0.01234872326)
(0.0009309217538 -9.567437687e-16 -0.0009290642786 -5.544019585e-16 0.001145446493 0 6.097211084e-05 -3.284774037e-16 0.0123512907)
(0.0008695555237 -5.946575976e-16 -0.00102707913 -4.389518661e-16 0.001124159753 0 6.540967365e-05 2.541837538e-16 0.01235401487)
(0.0008039345438 -2.979370695e-16 -0.001125565738 -3.692627176e-16 0.001101577066 0 6.948452724e-05 3.200212201e-16 0.01235684538)
(0.0007350664944 6.142628194e-17 -0.001224576244 -3.322210178e-16 0.001077783498 0 7.313983135e-05 -4.214754776e-17 0.01235980156)
(0.0006637091213 5.165523e-16 -0.001324161123 -3.304287644e-16 0.001052916688 0 7.628658137e-05 -4.810260651e-16 0.0123629066)
(0.0005900517253 7.347071793e-16 -0.001424166052 -3.531238913e-16 0.001027105583 0 7.897847677e-05 -2.489739618e-16 0.01236612199)