/*--------------------------------*- C++ -*----------------------------------*\
  =========                 |
  \\      /  F ield         | OpenFOAM: The Open Source CFD Toolbox
   \\    /   O peration     | Website:  https://openfoam.org
    \\  /    A nd           | Version:  7
     \\/     M anipulation  |
\*---------------------------------------------------------------------------*/
FoamFile
{
    version     2.0;
    format      ascii;
    class       volVectorField;
    location    "0.003";
    object      grad(generalizedNewtonian:nu);
}
// * * * * * * * * * * * * * * * * * * * * * * * * * * * * * * * * * * * * * //

dimensions      [0 1 -1 0 0 0 0];

internalField   nonuniform List<vector> 
1167
(
(-39990.5874 0 929064.5472)
(-76917.4248 0 927397.9861)
(-129607.5566 0 915816.4239)
(-183362.7852 0 905116.3316)
(-226102.8078 0 890099.0826)
(-267600.3465 0 872128.7528)
(-305877.2523 0 851687.2707)
(-340380.09 0 829005.8209)
(-370970.4204 0 804293.6837)
(-397876.2598 0 777914.809)
(-421533.2893 0 750503.8857)
(-441798.6813 0 722117.3704)
(-458858.288 0 692903.575)
(-473302.4103 0 663563.6689)
(-484921.3272 0 633971.9483)
(-494196.8646 0 604512.8012)
(-501453.1036 0 575431.234)
(-506698.4346 0 546623.9828)
(-510309.2159 0 518637.3357)
(-38539.53857 0 949682.7504)
(-67489.68317 0 948142.7912)
(-115909.3167 -1.683519325e-08 936916.9476)
(-166937.475 -1.236282905e-08 926672.5219)
(-204881.8703 9.886444946e-09 912185.5396)
(-242465.7314 -8.317016068e-09 894788.5969)
(-277012.1164 0 874843.0871)
(-307999.1803 0 852614.6727)
(-335509.6096 0 828399.187)
(-359927.6498 2.690585671e-09 802771.3837)
(-381331.3317 0 776003.7666)
(-399543.1308 0 748111.592)
(-415115.0728 2.222097113e-09 719665.8659)
(-428270.0511 0 690890.7136)
(-439027.2903 0 661760.4741)
(-447882.3131 -3.893770143e-09 632897.4397)
(-454718.5711 1.880025665e-09 604136.1086)
(-459960.5804 0 575847.796)
(-463726.1911 0 548081.235)
(-466155.0818 0 520938.2339)
(-467466.1857 0 494637.4128)
(-467725.3406 0 469074.3143)
(-467120.5663 -1.625783291e-09 444556.7998)
(-465725.9709 0 420864.9201)
(-463649.7115 0 398314.8532)
(-460950.2045 1.557174008e-09 376639.5386)
(-457710.7039 0 356125.1092)
(-454020.5648 0 336521.7645)
(-449912.3976 0 318054.7023)
(-445467.3088 0 300493.247)
(-440710.4061 0 284006.311)
(-435693.4776 0 268398.4834)
(-430420.4309 -7.390470455e-10 253771.4183)
(-424963.2686 0 239976.5217)
(-419322.1862 0 227059.9838)
(-413516.1005 0 214901.705)
(-407518.8364 0 203505.5355)
(-401351.7431 -3.666066822e-10 192778.6832)
(-394988.7852 -3.668387202e-10 182696.2612)
(-388423.3908 0 173182.0886)
(-381612.6008 0 164195.7841)
(-374526.2932 0 155677.7585)
(-367162.5137 0 147596.8861)
(-359489.2861 0 139901.8714)
(-351521.5301 -3.728581696e-10 132576.5413)
(-343233.1561 -3.745508194e-10 125583.1999)
(-334456.6159 0 118936.4449)
(-324740.9688 0 112567.0753)
(-317446.1282 0 106468.9936)
(-315894.0734 0 100914.6)
(-37198.93272 0 958919.6716)
(-58667.81651 0 957391.3894)
(-103056.8902 0 946868.7735)
(-151537.9151 0 937017.9851)
(-184734.798 -1.004040916e-08 923120.421)
(-218387.4939 0 906302.8769)
(-249340.6688 3.674309026e-09 887036.1311)
(-277012.1085 0 865554.7858)
(-301747.2268 2.970347874e-09 842332.0755)
(-323770.0174 0 817727.6177)
(-342781.3773 0 791813.2066)
(-359136.3481 2.385961335e-09 764916.1338)
(-373332.4429 2.256702417e-09 737522.6188)
(-385124.0837 0 709578.7708)
(-394975.0149 0 681470.6334)
(-403132.7418 1.977204426e-09 653406.1486)
(-409613.0328 0 625355.7298)
(-414760.6578 0 597803.5174)
(-418556.3949 -1.799294213e-09 570536.4688)
(-421323.4027 -1.754601127e-09 543979.6962)
(-423054.3621 0 517981.3219)
(-423981.2721 0 492813.247)
(-424132.2284 0 468402.1402)
(-423653.9827 0 444907.2045)
(-422571.6331 0 422278.7094)
(-420957.3831 -7.907121449e-10 400611.5149)
(-418885.8593 7.819254163e-10 379862.9414)
(-416406.0811 0 360100.7646)
(-413567.3652 0 341254.4777)
(-410390.8467 0 323388.2754)
(-406941.439 0 306402.9118)
(-403194.3018 0 290357.9477)
(-399211.8623 0 275128.9983)
(-394985.4952 0 260788.2649)
(-390554.2576 0 247180.8037)
(-385874.1676 0 234377.4924)
(-380966.0001 -3.723346634e-10 222208.1422)
(-375796.6234 0 210753.6405)
(-370367.9053 0 199835.4544)
(-364640.6104 3.730285062e-10 189538.0735)
(-358595.8014 -3.737349942e-10 179683.9987)
(-352217.9278 0 170364.4725)
(-345500.7067 0 161428.9844)
(-338442.9621 0 152963.0773)
(-331058.2757 -3.786647882e-10 144842.6082)
(-323382.9059 0 137153.8967)
(-315178.901 0 129809.8545)
(-306012.718 -1.921808966e-10 122859.3952)
(-299592.8751 0 116216.0884)
(-299088.3463 0 110143.4436)
(-35812.72296 0 956735.4137)
(-50559.94596 0 955035.3291)
(-91058.10501 0 945366.2511)
(-136851.6075 6.375448112e-09 935823.1892)
(-165629.5046 0 922513.7766)
(-195638.8777 0 906495.8404)
(-223220.7254 3.731532839e-09 888141.3378)
(-247947.3357 0 867805.5756)
(-270099.4353 0 845857.3344)
(-289557.2191 0 822431.4664)
(-306410.108 0 797678.3276)
(-321103.3767 0 772168.1291)
(-333659.6717 2.291848377e-09 745979.3618)
(-344227.8574 0 719208.0826)
(-353226.9021 2.088041326e-09 692348.2158)
(-360554.6008 0 665293.8658)
(-366578.2102 0 638373.3141)
(-371416.0075 0 611681.0177)
(-375167.5662 0 585279.0723)
(-378048.4425 0 559448.4201)
(-380081.0223 0 534034.0529)
(-381452.6489 0 509402.9161)
(-382194.0954 8.384081805e-10 485323.7522)
(-382417.1695 0 462149.4423)
(-382138.1074 0 439624.3963)
(-381425.7858 0 418065.0417)
(-380329.5537 0 397228.0928)
(-378881.2635 0 377382.6734)
(-377119.6133 0 358281.3033)
(-375059.1584 0 340163.2294)
(-372727.1889 0 322788.1118)
(-370108.6515 7.654017384e-10 306348.3402)
(-367244.6019 0 290622.6021)
(-364121.8379 0 275772.5791)
(-360747.6885 0 261583.815)
(-357082.0685 0 248185.4676)
(-353130.6111 0 235378.895)
(-348867.5754 0 223271.1843)
(-344284.7497 0 211688.1096)
(-339348.7004 0 200717.6154)
(-334042.5946 -7.591111112e-10 190207.8285)
(-328376.0351 0 180243.9772)
(-322343.7812 0 170697.1798)
(-315959.3243 0 161654.6439)
(-309251.5736 0 152998.8711)
(-302277.5605 3.863079081e-10 144828.3816)
(-294779.0122 0 137040.0212)
(-286292.793 0 129712.59)
(-280812.7859 1.963159762e-10 122727.7297)
(-281346.8202 1.975431688e-10 116327.158)
(-34213.3581 0 943231.3335)
(-43060.02605 0 941296.2573)
(-79898.7147 0 932628.5628)
(-123045.0327 0 923510.7998)
(-147835.9881 0 910992.23)
(-174463.3191 0 895959.1445)
(-199054.1684 0 878794.5595)
(-221081.3559 0 859813.5171)
(-240631.7884 0 839214.8533)
(-257679.6956 0 817084.6783)
(-272574.2017 0 793879.9802)
(-285573.9737 0 769879.4143)
(-296564.6212 0 745071.1913)
(-305944.0485 0 719849.278)
(-313874.9287 0 694357.7116)
(-320425.5527 2.039268566e-09 668608.3164)
(-325916.4872 0 643006.3903)
(-330314.3541 0 617410.2757)
(-333925.6544 0 592162.0185)
(-336722.0782 9.048388921e-10 567205.068)
(-338890.1266 0 542721.0252)
(-340509.9353 0 518753.6085)
(-341644.4021 0 495360.5944)
(-342366.3824 0 472632.245)
(-342690.4307 0 450551.8729)
(-342678.7696 0 429229.1238)
(-342366.0545 0 408619.9306)
(-341761.8172 0 388815.3034)
(-340898.1725 0 369756.9362)
(-339778.2077 0 351512.4358)
(-338407.0865 0 334021.5254)
(-336767.0652 0 317318.1088)
(-334883.8542 0 301356.697)
(-332732.8091 0 286136.9237)
(-330303.9939 0 271618.3586)
(-327557.4141 0 257774.9094)
(-324480.5024 0 244581.6672)
(-321066.6979 -3.840028845e-10 231996.3849)
(-317286.2371 0 220002.0857)
(-313126.54 0 208552.5149)
(-308573.0182 0 197641.481)
(-303644.348 0 187235.1684)
(-298350.9513 0 177328.7998)
(-292702.0555 0 167900.3421)
(-286754.209 0 158946.6729)
(-280566.1253 0 150466.0148)
(-273861.6934 -3.942844083e-10 142443.9087)
(-266149.1114 0 134882.5869)
(-261617.3256 0 127722.2013)
(-263079.8394 0 121111.0268)
(-32465.88197 0 919461.3206)
(-36383.84887 0 917370.8395)
(-69855.01536 0 909894.8451)
(-110306.7114 0 901300.6851)
(-131497.4686 0 889713.1506)
(-155126.5367 0 875818.4147)
(-176962.3347 0 859963.3065)
(-196388.2537 0 842343.2646)
(-213419.3063 0 823083.2795)
(-228328.9544 0 802511.0824)
(-241478.0357 0 780990.5981)
(-252707.5908 0 758563.0069)
(-262254.4082 0 735405.0769)
(-270492.1008 0 711869.4102)
(-277322.5574 0 687899.3471)
(-283071.3814 2.071028217e-09 663781.9366)
(-287865.5554 0 639617.7657)
(-291787.4424 0 615440.2315)
(-295056.4862 0 591531.2623)
(-297676.4967 0 567735.6965)
(-299834.6646 1.796885502e-09 544409.189)
(-301536.9428 0 521381.0812)
(-302905.4971 0 498932.6447)
(-303932.784 0 476921.3452)
(-304686.7311 0 455562.4044)
(-305187.9539 0 434747.6667)
(-305470.3931 0 414647.7833)
(-305536.0994 0 395151.1529)
(-305394.5789 0 376410.3638)
(-305051.1572 0 358303.0022)
(-304477.219 0 340960.1912)
(-303681.3344 -3.947137927e-10 324249.9122)
(-302639.6149 3.930861937e-10 308300.6049)
(-301343.845 0 292960.6653)
(-299746.0163 0 278348.3549)
(-297834.1157 0 264303.5552)
(-295573.4845 3.900029677e-10 250945.9625)
(-292952.3183 0 238116.3474)
(-289945.9614 0 225923.1759)
(-286543.2885 3.907297353e-10 214219.0662)
(-282750.2921 -3.914697481e-10 203107.4818)
(-278579.1017 0 192463.5171)
(-274049.2822 0 182380.7729)
(-269178.2437 0 172746.5394)
(-264045.4952 0 163652.0513)
(-258679.3828 0 155002.0614)
(-252833.0354 0 146872.3071)
(-245916.8353 0 139177.4954)
(-242336.3472 -4.049566111e-10 131942.0874)
(-244612.9196 0 125199.9745)
(-30652.47136 0 887216.5351)
(-30617.96942 0 884986.4079)
(-60921.32744 0 878724.345)
(-98684.66777 0 870687.6394)
(-116751.3927 0 860058.0896)
(-137604.5937 0 847317.5818)
(-156863.6176 0 832724.8295)
(-173766.5831 0 816425.426)
(-188608.6259 0 798643.6759)
(-201701.5562 0 779784.5192)
(-213039.8158 -2.703854218e-09 759956.1624)
(-222672.7387 0 739187.6856)
(-230940.3903 0 717868.6413)
(-237921.3102 0 696067.3212)
(-243735.384 0 673829.5964)
(-248680.6562 0 651477.6251)
(-252730.3781 0 628920.9549)
(-256153.6104 0 606421.0866)
(-258961.5785 0 583983.7255)
(-261291.156 0 561706.4218)
(-263282.8693 0 539708.6803)
(-264946.8364 0 517970.1148)
(-266373.3317 0 496672.3798)
(-267563.3215 0 475714.8572)
(-268576.2886 0 455311.3452)
(-269427.8963 0 435330.9093)
(-270135.0091 0 415980.6657)
(-270700.6106 0 397114.5793)
(-271123.9305 4.083664625e-10 378926.1245)
(-271390.5219 0 361266.2004)
(-271471.9034 0 344296.3097)
(-271365.5473 0 327879.1924)
(-271040.3931 0 312147.6506)
(-270469.6173 0 296972.9019)
(-269604.7669 0 282455.4725)
(-268425.9189 0 268481.9209)
(-266900.6147 0 255132.5023)
(-265013.5424 0 242306.3237)
(-262739.9182 0 230071.6675)
(-260070.5089 3.968146482e-10 218336.5185)
(-257023.9124 0 207167.27)
(-253610.0853 0 196480.9182)
(-249852.5492 0 186342.8211)
(-245768.883 0 176669.2858)
(-241445.6765 0 167531.7114)
(-236915.6528 0 158844.4789)
(-231916.8916 0 150682.6902)
(-225829.3648 0 142950.8772)
(-223160.4378 0 135704.7256)
(-226275.9353 0 128911.3158)
(-28725.71805 0 848149.7833)
(-25672.67084 0 845773.4964)
(-53106.32267 0 840620.633)
(-88141.14518 0 833117.6834)
(-103427.2216 0 823372.2992)
(-121776.6278 0 811720.734)
(-138618.4788 0 798335.2957)
(-153334.5135 0 783399.6524)
(-166302.9949 0 767249.9779)
(-177662.0118 2.951992148e-09 750053.9167)
(-187319.2525 0 731868.4552)
(-195527.1227 2.577629631e-09 712931.5737)
(-202573.5903 -2.437987127e-09 693466.8732)
(-208395.5653 0 673449.9981)
(-213279.8099 0 653133.8107)
(-217352.632 0 632600.3098)
(-220698.4309 0 611863.5068)
(-223536.3609 0 591167.7264)
(-225866.9041 0 570397.4799)
(-227879.8635 0 549828.2668)
(-229587.0486 9.266443475e-10 529362.8211)
(-231117.0379 -9.081194137e-10 509171.5266)
(-232456.7539 0 489223.2916)
(-233682.4155 -8.776178562e-10 469620.4365)
(-234798.436 0 450372.6828)
(-235846.5224 0 431542.3894)
(-236818.5806 0 413145.7353)
(-237723.197 0 395223.6689)
(-238547.463 0 377791.49)
(-239264.6229 0 360874.5467)
(-239851.5687 0 344478.153)
(-240284.2677 0 328627.9134)
(-240539.4263 -4.054249412e-10 313311.8237)
(-240562.0262 4.041242847e-10 298549.6781)
(-240319.9266 0 284316.4601)
(-239772.6269 4.025559089e-10 270635.3695)
(-238898.1532 0 257472.5791)
(-237669.9696 0 244851.8518)
(-236070.2822 -4.024792941e-10 232735.1572)
(-234093.7612 -4.029945149e-10 221146.9649)
(-231755.8942 -4.037577564e-10 210056.6232)
(-229076.6002 0 199482.0014)
(-226063.475 0 189397.8436)
(-222759.0538 0 179813.7483)
(-219227.8081 2.045417845e-10 170717.6316)
(-215519.0388 0 162106.4727)
(-211349.1836 2.064970591e-10 153981.0308)
(-206087.7572 2.07619112e-10 146304.8719)
(-204297.9173 2.08833982e-10 139100.0647)
(-208186.0317 -2.101394261e-10 132331.0816)
(-26727.92539 0 803616.4275)
(-21439.77194 0 801129.9966)
(-46205.84023 0 796954.1624)
(-78534.93084 0 789931.527)
(-91447.19345 0 781050.1005)
(-107521.5398 0 770437.5358)
(-122249.516 0 758257.0552)
(-135106.4057 0 744771.4316)
(-146382.2311 0 730176.8551)
(-156068.486 0 714570.2552)
(-164279.2515 -1.394364071e-09 698069.1262)
(-171296.4083 0 680982.4412)
(-177126.8071 -1.237977866e-09 663335.5341)
(-181924.3734 0 645205.5736)
(-185956.9471 0 626833.7439)
(-189208.5423 0 608164.6472)
(-191908.9598 0 589390.5949)
(-194131.7213 1.015133334e-09 570544.7865)
(-195973.9019 0 551662.6746)
(-197585.9728 0 532894.9045)
(-198980.4393 0 514160.0199)
(-200264.7182 0 495658.7042)
(-201441.3548 0 477270.7769)
(-202579.3327 0 459201.8779)
(-203685.8753 -4.393049439e-10 441331.3839)
(-204792.515 0 423850.7002)
(-205889.1891 0 406635.4422)
(-206982.5192 0 389864.3259)
(-208051.29 4.211850768e-10 373416.3716)
(-209066.9404 0 357449.4477)
(-210007.6511 0 341849.7532)
(-210840.2233 0 326763.0621)
(-211527.8233 0 312075.0534)
(-212017.3165 0 297910.1777)
(-212271.8027 0 284161.4195)
(-212250.9739 0 270941.293)
(-211928.2369 -4.085093971e-10 258148.0977)
(-211275.8679 0 245883.5903)
(-210275.1663 0 234049.9133)
(-208929.8988 -2.046353256e-10 222741.5343)
(-207248.3274 0 211871.4443)
(-205250.4593 0 201522.4732)
(-202943.7965 0 191611.144)
(-200376.2113 0 182214.1043)
(-197605.8399 -2.077272674e-10 173252.6886)
(-194697.7717 -2.086702788e-10 164795.6018)
(-191305.0001 -2.097129929e-10 156774.0375)
(-186863.255 0 149222.0756)
(-185879.1927 0 142104.6175)
(-190453.3489 0 135413.7842)
(-24682.04211 0 754968.0766)
(-17839.14729 0 752421.734)
(-40169.10143 0 749134.204)
(-69869.70386 0 742628.7452)
(-80727.09042 0 734568.837)
(-94809.5579 0 724978.2577)
(-107735.7964 0 714030.5569)
(-118945.6889 -1.824106387e-09 701915.851)
(-128641.0494 -3.309689307e-09 688775.0882)
(-136884.763 0 674685.5987)
(-143880.5443 0 659914.3846)
(-149766.0306 0 644589.8032)
(-154556.0063 0 628708.9923)
(-158493.729 2.393546901e-09 612501.9596)
(-161685.8967 0 596023.146)
(-164223.7278 0 579280.1424)
(-166314.3277 0 562470.9334)
(-167969.3816 0 545515.2754)
(-169374.8387 0 528591.6979)
(-170545.1581 0 511662.8043)
(-171593.6578 0 494806.4202)
(-172576.6493 0 478054.3981)
(-173518.9958 0 461416.4195)
(-174481.6645 4.525830169e-10 444969.1459)
(-175475.2984 0 428686.415)
(-176521.1761 0 412662.9905)
(-177616.9486 -4.356274582e-10 396850.1054)
(-178763.3508 0 381353.2177)
(-179935.6409 0 366113.5462)
(-181106.9408 0 351230.8281)
(-182254.6779 0 336650.5398)
(-183341.4211 0 322462.977)
(-184323.3997 0 308614.0851)
(-185147.3139 -4.168096322e-10 295180.44)
(-185775.1205 0 282114.0376)
(-186165.3051 0 269482.2402)
(-186289.9368 4.148712898e-10 257240.1942)
(-186119.1725 2.074252163e-10 245447.5462)
(-185634.5358 0 234059.7417)
(-184843.8459 0 223134.6165)
(-183750.768 0 212626.9414)
(-182373.5251 0 202591.4486)
(-180718.1088 0 192975.6223)
(-178829.0714 0 183838.408)
(-176763.608 0 175116.1404)
(-174586.5975 0 166869.7038)
(-171936.8985 0 159033.4829)
(-168262.6215 0 151657.2996)
(-168021.9979 0 144689.984)
(-173183.1101 0 138115.5895)
(-22649.8379 0 703724.6491)
(-14839.84328 0 701185.8845)
(-34957.31007 0 698677.2511)
(-62074.40401 0 692667.034)
(-71211.64763 5.68084408e-09 685411.4807)
(-83598.04729 2.389517757e-09 676827.7406)
(-94925.17693 0 667025.1453)
(-104649.2256 -1.852514885e-09 656165.1664)
(-112943.0067 3.361234163e-09 644347.366)
(-119982.2438 0 631774.5006)
(-125951.137 1.438133014e-09 618628.2617)
(-130810.2785 0 604945.5052)
(-134723.9509 -1.276837862e-09 590831.9778)
(-137920.9052 0 576457.2008)
(-140390.1714 0 561792.7781)
(-142329.3755 0 546981.8725)
(-143840.8302 0 532064.9525)
(-144998.2802 0 517038.7897)
(-145952.6988 0 502039.0473)
(-146725.4489 0 486974.7986)
(-147433.2979 0 472012.0393)
(-148087.3747 0 457053.2448)
(-148767.9605 0 442224.2349)
(-149488.2707 0 427465.3079)
(-150297.4982 0 412865.4396)
(-151187.1579 4.47383402e-10 398387.7816)
(-152180.0086 0 384103.0223)
(-153260.8026 4.381069938e-10 369988.7703)
(-154413.7983 0 356101.3246)
(-155612.848 0 342426.4948)
(-156833.8247 0 329019.165)
(-158039.7025 -4.264217168e-10 315864.0855)
(-159181.0628 0 303010.8093)
(-160211.8764 0 290443.1508)
(-161089.0167 -4.223072865e-10 278211.5471)
(-161774.6489 0 266298.0734)
(-162237.2025 2.106662323e-10 254751.0613)
(-162445.9787 -2.106556413e-10 243550.0886)
(-162388.3884 0 232739.3263)
(-162063.3117 0 222303.0908)
(-161481.8909 2.114585368e-10 212275.1897)
(-160643.8147 0 202641.5297)
(-159575.5104 0 193423.8516)
(-158293.642 0 184616.1879)
(-156870.4788 0 176225.9122)
(-155359.5068 0 168253.556)
(-153395.6618 0 160683.9505)
(-150443.7069 -2.17471159e-10 153535.754)
(-150847.1802 0 146790.8084)
(-156428.4202 0 140368.599)
(-20678.07865 0 651295.5007)
(-12355.16504 0 648796.8726)
(-30431.87518 0 646946.1487)
(-55125.98572 -3.607213864e-09 641423.7719)
(-62849.83201 0 634932.4668)
(-73720.74014 0 627255.1882)
(-83629.30909 0 618481.145)
(-92014.20747 0 608742.5399)
(-99152.5738 1.706789959e-09 598197.2558)
(-105220.4482 0 587057.9064)
(-110234.3714 0 575401.4431)
(-114257.72 0 563254.1305)
(-117486.7684 -1.296722535e-09 550826.6186)
(-119995.9559 -1.234339975e-09 538149.5417)
(-121879.777 0 525238.2425)
(-123321.6545 1.136120348e-09 512248.332)
(-124339.4885 1.097104007e-09 499125.3133)
(-125089.7812 0 485978.9562)
(-125628.2144 0 472805.7282)
(-126034.4263 0 459619.2899)
(-126399.6561 0 446479.8351)
(-126740.5159 0 433335.5117)
(-127130.0367 0 420286.3885)
(-127586.9697 0 407251.6197)
(-128153.0593 4.601508931e-10 394342.6757)
(-128831.5035 4.543506709e-10 381472.88)
(-129641.4118 0 368757.3975)
(-130569.0408 0 356111.9793)
(-131602.9105 0 343646.1621)
(-132722.6301 4.379710822e-10 331285.9901)
(-133903.8702 -4.352819556e-10 319139.363)
(-135108.2965 0 307137.0694)
(-136290.4397 0 295379.7798)
(-137407.2801 2.149466095e-10 283806.3338)
(-138417.6189 0 272514.1986)
(-139284.6031 0 261447.1459)
(-139975.3889 0 250697.5035)
(-140460.1115 -2.139362603e-10 240210.5041)
(-140730.3597 2.140716679e-10 230073.2991)
(-140779.8549 0 220236.0792)
(-140616.3182 0 210775.7487)
(-140237.5382 0 201641.0482)
(-139668.6605 -2.159360604e-10 192901.9537)
(-138925.7132 0 184506.1988)
(-138082.6077 0 176517.269)
(-137152.6729 0 168883.0113)
(-135820.3611 0 161643.0917)
(-133526.5666 -2.208579186e-10 154771.0825)
(-134478.0718 0 148306.3716)
(-140264.5507 0 142078.7428)
(-18769.56798 0 598868.3916)
(-10313.17334 0 596436.1418)
(-26566.31243 0 595115.6964)
(-48944.13154 0 590064.3523)
(-55465.77123 0 584231.9203)
(-65017.56426 0 577362.0916)
(-73657.1256 0 569504.8443)
(-80932.31018 0 560809.4633)
(-87131.57077 0 551481.4562)
(-92346.74337 0 541624.6239)
(-96555.15957 0 531294.3928)
(-99902.27159 0 520620.5242)
(-102557.3148 0 509718.6562)
(-104517.8463 0 498584.9366)
(-105947.9134 0 487334.9277)
(-106949.3588 0 476008.3805)
(-107581.87 0 464586.5046)
(-107984.9834 0 453183.5065)
(-108184.4091 0 441728.041)
(-108296.1343 0 430320.1324)
(-108340.2683 0 418904.3117)
(-108397.3369 0 407525.8909)
(-108495.9945 0 396173.3029)
(-108681.1113 0 384855.9729)
(-108982.4793 0 373585.5087)
(-109412.7995 0 362351.3828)
(-109988.6477 4.562990568e-10 351184.0327)
(-110700.7013 0 340063.0147)
(-111541.5991 0 329028.8131)
(-112497.4606 0 318063.4575)
(-113545.0085 0 307213.0289)
(-114649.087 2.199034796e-10 296460.8385)
(-115768.5283 0 285854.8783)
(-116865.8609 0 275384.3509)
(-117902.1714 0 265099.3698)
(-118844.1181 0 254991.918)
(-119658.5531 0 245112.072)
(-120318.3954 0 235450.7732)
(-120817.2888 0 226059.9322)
(-121146.1741 -2.176838762e-10 216927.0544)
(-121309.3615 0 208102.2107)
(-121303.6542 0 199563.5939)
(-121149.0946 0 191364.1305)
(-120858.9134 0 183469.0614)
(-120501.1191 0 175931.8004)
(-120082.3082 0 168708.1837)
(-119294.6653 0 161844.9616)
(-117609.7106 0 155306.7847)
(-119005.1721 0 149164.6181)
(-124881.6079 0 143179.6414)
(-16958.52936 0 547380.572)
(-8620.260465 8.215958827e-09 545046.0842)
(-23213.1266 0 544127.6272)
(-43423.53161 0 539492.1034)
(-48952.16361 2.975206168e-09 534260.5856)
(-57342.36481 0 528111.1564)
(-64905.75888 0 521088.6281)
(-71267.97861 0 513385.2541)
(-76666.56738 0 505133.4828)
(-81122.05534 0 496413.4892)
(-84697.29551 0 487297.549)
(-87537.89979 0 477955.8172)
(-89684.41594 0 468413.1734)
(-91227.23409 0 458701.5407)
(-92317.87036 0 448943.8439)
(-92972.52331 0 439108.4653)
(-93318.28522 0 429266.5281)
(-93434.5833 0 419433.2936)
(-93372.48863 -5.331726182e-10 409590.6685)
(-93225.53925 0 399804.0598)
(-93016.53242 0 389999.7074)
(-92821.76699 0 380262.1952)
(-92664.71806 0 370510.9749)
(-92599.21638 0 360821.1133)
(-92636.53332 -4.745949963e-10 351119.0856)
(-92812.02832 4.686127056e-10 341466.6887)
(-93127.49502 -2.317026412e-10 331807.6632)
(-93590.22259 -2.294480559e-10 322192.3224)
(-94191.11308 4.550195319e-10 312580.6648)
(-94925.40541 -2.258594814e-10 303022.7894)
(-95769.91244 2.244727123e-10 293487.7764)
(-96696.66084 2.233281717e-10 284024.8857)
(-97670.49334 0 274612.2871)
(-98660.10088 -2.216937681e-10 265303.3246)
(-99630.34375 -2.211733372e-10 256083.1096)
(-100552.7845 0 247006.3726)
(-101393.9935 0 238062.1303)
(-102136.6255 0 229303.3986)
(-102766.9653 0 220726.1247)
(-103284.1366 2.21074001e-10 212375.3072)
(-103677.2677 0 204248.9576)
(-103959.2375 0 196381.1575)
(-104126.5015 0 188775.272)
(-104205.1431 2.235067469e-10 181452.1647)
(-104245.2944 0 174418.5138)
(-104253.3149 2.254330883e-10 167672.8079)
(-103930.7437 0 161231.3219)
(-102786.3207 -1.138953164e-10 155087.9367)
(-104517.1332 0 149304.5826)
(-110362.5241 2.305558114e-10 143617.1657)
(-15254.15599 0 497568.0027)
(-7214.551028 0 495350.7083)
(-20305.78054 0 494749.3991)
(-38509.22525 0 490514.4201)
(-43205.70563 0 485821.1641)
(-50593.87816 0 480321.3925)
(-57259.16623 0 474081.2487)
(-62849.00076 0 467254.9281)
(-67544.56235 0 459949.7381)
(-71382.21954 0 452227.2572)
(-74461.30363 0 444235.248)
(-76874.17759 0 436054.5626)
(-78637.61677 0 427702.1212)
(-79880.2017 0 419282.2382)
(-80685.35515 0 410832.5664)
(-81102.2851 0 402337.625)
(-81250.59512 0 393895.3478)
(-81155.42475 0 385455.8305)
(-80915.59498 0 377073.4393)
(-80564.61367 0 368727.0183)
(-80159.18997 0 360415.3865)
(-79760.06699 0 352151.9843)
(-79392.25761 0 343900.6459)
(-79101.15928 0 335694.9056)
(-78904.77027 0 327476.052)
(-78834.23038 0 319294.8254)
(-78894.80238 0 311083.0671)
(-79097.22421 0 302897.6073)
(-79440.055 2.310528521e-10 294677.402)
(-79920.56278 0 286483.5784)
(-80520.62228 0 278261.6191)
(-81218.31361 0 270074.9621)
(-81986.95813 2.258709033e-10 261879.2837)
(-82800.72878 0 253743.2035)
(-83631.53711 0 245630.7336)
(-84453.77547 0 237613.5571)
(-85239.82357 0 229660.6256)
(-85977.62666 0 221845.1247)
(-86653.76031 0 214141.8254)
(-87265.75808 0 206619.5453)
(-87803.161 0 199252.2719)
(-88276.83391 0 192104.8536)
(-88684.76445 0 185149.5461)
(-89050.5931 0 178446.8129)
(-89396.58194 0 171964.9945)
(-89753.83262 0 165744.4273)
(-89805.75662 0 159763.7916)
(-89138.10193 0 154060.6048)
(-91097.51435 -1.163458765e-10 148666.189)
(-96780.26003 0 143323.7712)
(-13670.63275 0 450064.5183)
(-6052.082673 0 447983.8255)
(-17790.69626 0 447625.3708)
(-34134.62885 0 443759.8803)
(-38141.42239 0 439554.3302)
(-44686.42598 0 434657.1702)
(-50579.88879 0 429112.1741)
(-55497.68337 0 423047.4898)
(-59589.07564 0 416553.8482)
(-62938.07352 0 409741.1697)
(-65635.74514 0 402727.7345)
(-67686.24128 0 395552.4064)
(-69170.69089 0 388265.2762)
(-70207.12952 0 380964.9488)
(-70805.58207 0 373641.0098)
(-71067.57257 0 366348.5069)
(-71071.41971 0 359114.1509)
(-70850.1011 0 351911.5578)
(-70488.48849 0 344802.4771)
(-70008.17923 -2.68124719e-10 337725.8893)
(-69479.24299 0 330737.0983)
(-68926.43443 0 323780.9551)
(-68404.52428 0 316881.9965)
(-67928.29863 0 310003.4996)
(-67539.28013 -2.447461964e-10 303150.6193)
(-67250.37707 0 296301.2443)
(-67078.78093 2.389757186e-10 289448.5983)
(-67034.76757 0 282582.1197)
(-67123.0159 2.346512302e-10 275694.2809)
(-67342.39634 0 268783.7982)
(-67681.09966 0 261844.2397)
(-68122.8564 0 254883.1076)
(-68650.01068 0 247900.5982)
(-69242.14973 0 240913.4536)
(-69879.35904 0 233927.618)
(-70539.87561 0 226967.2411)
(-71203.69028 0 220041.3465)
(-71863.41207 0 213182.3739)
(-72507.93759 0 206399.3217)
(-73134.30341 0 199728.0649)
(-73734.40555 0 193172.1317)
(-74316.93937 0 186772.1458)
(-74879.57936 0 180522.4344)
(-75439.01829 0 174467.0784)
(-76009.97457 0 168584.9235)
(-76620.25316 0 162917.9857)
(-76971.80003 0 157438.6422)
(-76698.42189 0 152204.1934)
(-78793.4333 0 147227.9771)
(-84207.22399 0 142259.5715)
(-12215.99793 0 405335.5476)
(-5088.161083 4.302911467e-09 403398.2663)
(-15597.64014 5.306756633e-09 403210.2935)
(-30248.40282 0 399697.5835)
(-33701.57885 0 395941.7161)
(-39510.37201 0 391577.5855)
(-44725.91562 -1.140447995e-09 386631.541)
(-49049.2931 0 381224.683)
(-52657.60749 9.219494751e-10 375451.8179)
(-55630.31075 0 369448.7085)
(-57994.93336 0 363274.3376)
(-59776.65322 7.405650426e-10 356962.472)
(-61071.42314 -7.004450983e-10 350615.8207)
(-61937.5291 0 344269.7505)
(-62415.9643 6.38156663e-10 337922.4183)
(-62603.06905 0 331660.1866)
(-62518.03612 0 325453.1986)
(-62236.95094 0 319335.8023)
(-61807.70258 0 313309.0716)
(-61262.85289 0 307354.4163)
(-60659.73722 -2.662292528e-10 301500.0604)
(-60021.19989 0 295692.587)
(-59392.42043 0 289970.5236)
(-58792.10314 0 284267.3719)
(-58255.69587 0 278623.4483)
(-57795.6877 -2.4542467e-10 272969.1393)
(-57432.28613 -2.42697407e-10 267342.0038)
(-57173.57793 -2.40335837e-10 261679.1647)
(-57031.4618 0 256016.4366)
(-57003.68785 -2.365769773e-10 250299.6707)
(-57086.53383 -2.351244032e-10 244564.1186)
(-57268.69664 0 238766.3992)
(-57540.86528 2.329609617e-10 232946.8257)
(-57888.09172 0 227072.3859)
(-58298.66711 2.31668466e-10 221188.402)
(-58754.62267 0 215270.722)
(-59248.42002 1.155668501e-10 209368.2873)
(-59770.99259 0 203468.2435)
(-60321.60562 -1.156341827e-10 197617.8231)
(-60890.26367 0 191810.6451)
(-61482.806 -1.160014908e-10 186089.2851)
(-62094.02357 0 180454.1097)
(-62736.48822 0 174939.1617)
(-63402.30455 0 169549.2792)
(-64116.40102 2.350632434e-10 164302.7067)
(-64894.67663 0 159208.1975)
(-65462.59389 0 154266.9772)
(-65501.30669 0 149517.639)
(-67634.90486 0 144991.7291)
(-72663.4227 0 140411.9511)
(-10885.21392 0 363678.0526)
(-4274.714905 4.369923512e-09 361888.8001)
(-13695.43937 0 361823.7517)
(-26815.38784 0 358642.4166)
(-29794.18343 0 355279.2731)
(-34955.82626 0 351372.539)
(-39575.10941 0 346947.8994)
(-43402.02949 0 342113.7406)
(-46618.88596 0 336998.7481)
(-49277.67282 0 331684.5718)
(-51367.72065 0 326221.1532)
(-52953.52712 0 320674.7156)
(-54121.16846 0 315125.052)
(-54872.95182 0 309579.8792)
(-55288.44145 0 304090.9298)
(-55432.5976 3.116253718e-10 298691.3104)
(-55327.37916 0 293360.5501)
(-55043.39112 0 288158.7764)
(-54598.51336 0 283044.5559)
(-54051.86986 0 278049.7285)
(-53422.58283 2.703754145e-10 273147.8994)
(-52753.32244 0 268339.7051)
(-52073.05754 0 263611.7495)
(-51403.48861 0 258943.6755)
(-50772.87444 0 254332.1656)
(-50193.99855 0 249743.4076)
(-49685.52256 0 245180.2018)
(-49258.51848 0 240605.5509)
(-48923.62061 0 236027.6188)
(-48682.13929 0 231408.9479)
(-48533.33011 0 226762.6893)
(-48473.15188 0 222056.8173)
(-48496.72571 1.182945073e-10 217312.0752)
(-48597.22625 0 212503.0695)
(-48767.27843 0 207658.4083)
(-48997.69119 0 202758.3411)
(-49287.8817 1.17366648e-10 197840.6244)
(-49634.3356 0 192891.2869)
(-50038.7304 0 187953.9431)
(-50496.29054 -1.175853598e-10 183014.6203)
(-51013.88462 0 178123.2175)
(-51589.91599 0 173263.5523)
(-52233.79445 0 168488.181)
(-52934.77072 0 163777.3138)
(-53718.54012 0 159177.4902)
(-54579.4186 0 154667.7079)
(-55289.08468 0 150279.5338)
(-55554.87025 0 146023.2255)
(-57636.67716 1.21866765e-10 141964.1526)
(-62141.77264 0 137784.3697)
(-9682.743578 0 325253.883)
(-3597.800487 4.43798042e-09 323613.0923)
(-12034.15576 0 323633.6404)
(-23763.19094 0 320742.8224)
(-26343.03459 0 317721.3706)
(-30936.59169 0 314217.0346)
(-35035.27257 0 310242.1516)
(-38452.54381 0 305930.7135)
(-41347.27378 0 301383.5501)
(-43726.01534 0 296661.8935)
(-45608.62149 0 291809.9664)
(-47061.56016 0 286928.5836)
(-48118.68379 0 282049.8327)
(-48814.55152 0 277188.239)
(-49222.78097 0 272420.8541)
(-49355.48322 -3.164786053e-10 267735.1145)
(-49271.20876 0 263160.3979)
(-49016.13658 0 258711.7729)
(-48608.34918 0 254370.5882)
(-48095.94099 0 250170.4616)
(-47497.01669 0 246066.3441)
(-46849.50764 0 242093.7464)
(-46168.46431 0 238199.9948)
(-45485.17946 0 234407.6522)
(-44812.31462 2.563600117e-10 230669.8142)
(-44170.39512 2.531285825e-10 226995.9427)
(-43570.04383 2.503157103e-10 223345.4734)
(-43027.12949 0 219722.631)
(-42547.64572 0 216090.9)
(-42137.36375 0 212451.9169)
(-41796.33471 0 208774.6015)
(-41526.73247 0 205063.6917)
(-41326.37009 0 201295.0119)
(-41196.01893 0 197478.0975)
(-41131.01975 0 193596.1332)
(-41133.40219 0 189663.8129)
(-41204.64729 -1.191945086e-10 185674.9125)
(-41351.89566 1.191885162e-10 181647.6529)
(-41574.04667 0 177583.499)
(-41879.72038 1.194166266e-10 173501.6495)
(-42270.51071 0 169412.125)
(-42754.15661 0 165332.3886)
(-43335.89725 0 161278.4553)
(-44003.30101 0 157258.3037)
(-44778.13262 0 153293.1649)
(-45650.70205 0 149378.9618)
(-46414.91896 0 145539.1283)
(-46835.47119 0 141782.3066)
(-48782.66743 0 138187.2265)
(-52701.56608 0 134416.653)
(-8597.765413 0 290099.8069)
(-3020.824801 0 288599.992)
(-10573.07579 0 288668.1696)
(-21049.76724 0 286045.6875)
(-23290.53186 0 283328.846)
(-27376.75444 0 280172.2491)
(-31037.03715 0 276609.2224)