/*--------------------------------*- C++ -*----------------------------------*\
  =========                 |
  \\      /  F ield         | OpenFOAM: The Open Source CFD Toolbox
   \\    /   O peration     | Website:  https://openfoam.org
    \\  /    A nd           | Version:  7
     \\/     M anipulation  |
\*---------------------------------------------------------------------------*/
FoamFile
{
    version     2.0;
    format      ascii;
    class       volTensorField;
    location    "0.003";
    object      grad(U);
}
// * * * * * * * * * * * * * * * * * * * * * * * * * * * * * * * * * * * * * //

dimensions      [0 0 -1 0 0 0 0];

internalField   nonuniform List<tensor> 
1167
(
(-0.003605423827 -4.956286278e-16 -8.112719566e-05 -2.674069374e-15 -0.005929257972 0 0.0007860511093 -6.806002902e-16 0.02181202142)
(-0.004786840417 -3.374606129e-15 -0.0003421436203 -4.631714057e-16 -0.005168507612 0 0.002041563857 -2.076999768e-15 0.0217810663)
(-0.004722740333 -1.245397238e-15 -0.0006133737141 1.744557227e-15 -0.004934329441 0 0.003216846206 -4.61078942e-15 0.02175562434)
(-0.004817152071 5.243341987e-15 -0.000813668932 7.59593671e-16 -0.004897170523 0 0.004422400326 -2.255597201e-15 0.02170897661)
(-0.004800664967 2.579053823e-15 -0.0009958842831 -1.160483026e-15 -0.004878007046 0 0.00560017429 6.574939896e-16 0.02164208534)
(-0.004760687533 1.343819483e-15 -0.001156179771 -5.644012034e-16 -0.004860198136 0 0.006738433133 -9.931866374e-16 0.02155471777)
(-0.004705446384 2.933745283e-15 -0.001291595383 -1.15460208e-15 -0.004841264721 0 0.007833114809 -1.420410177e-15 0.02144570581)
(-0.004632279498 7.356715217e-16 -0.001399191268 -1.170773397e-15 -0.004819425276 0 0.00888179154 1.957827138e-16 0.02131215098)
(-0.004541555323 2.756244481e-15 -0.00147548564 -1.062135471e-15 -0.004793789016 0 0.009883135835 5.163207375e-16 0.02114995483)
(-0.004429985084 2.79935476e-15 -0.001520417245 -1.450817622e-15 -0.004763955234 0 0.01083305974 1.928318429e-15 0.02095706127)
(-0.004293022431 1.022516522e-15 -0.001536279598 -1.377102479e-15 -0.004729094505 0 0.01172615373 1.766010592e-15 0.02073323542)
(-0.004132246366 1.829937651e-15 -0.001521577135 -1.387479837e-15 -0.004688530336 0 0.01256157452 7.474476232e-16 0.020475347)
(-0.003946555489 2.191062904e-16 -0.001476473212 -1.434578656e-15 -0.004642213816 0 0.01333708376 5.879961312e-16 0.02018112833)
(-0.00373176167 -1.32670908e-15 -0.001404676646 -1.241421938e-15 -0.004589675714 0 0.01404779905 8.092042631e-16 0.0198515786)
(-0.003489148344 -1.482376726e-15 -0.001306097439 -1.113925546e-15 -0.004530521981 0 0.01469339942 5.006574503e-16 0.01948433232)
(-0.003218108508 7.732339288e-16 -0.001183520047 -9.426769941e-16 -0.004464715482 0 0.0152711159 -5.186223051e-17 0.01907935459)
(-0.002918443283 1.310891935e-15 -0.0010400738 -1.062021138e-15 -0.004391996927 0 0.01577869575 7.340464317e-16 0.01863737486)
(-0.002591259443 -5.279400027e-16 -0.00087734922 -9.891988934e-16 -0.00431241107 0 0.01621579744 1.047828927e-15 0.01815759617)
(-0.002236372632 -1.994911862e-16 -0.000699316278 -9.228432301e-16 -0.004225924402 0 0.01658046193 1.482063072e-15 0.01764261752)
(-0.004881818248 3.327288082e-15 -4.816419385e-05 -7.328709302e-15 -0.008030664879 0 0.0009836126248 -1.249753025e-15 0.02523941362)
(-0.006479180695 5.648440419e-15 -0.0002995888562 -5.37764145e-15 -0.006999045261 0 0.00255423312 -3.932463899e-15 0.02519732152)
(-0.006387075642 -8.816219563e-16 -0.0005549816851 -5.722833366e-15 -0.006680157474 6.422116567e-14 0.004024433193 -9.739693755e-15 0.0251573184)
(-0.00650580931 -6.316051406e-15 -0.0007239248847 -2.314270138e-15 -0.006627190214 4.716045017e-14 0.005532372659 -1.032299328e-14 0.0250877625)
(-0.006469713622 3.605299722e-16 -0.0008748763329 -4.972033455e-16 -0.006597342268 -3.77137945e-14 0.007003460432 -1.821522208e-15 0.02499089412)
(-0.006398758339 4.912638105e-15 -0.001001403679 -1.456215066e-15 -0.006567937329 3.172689845e-14 0.008423625822 -3.833151837e-15 0.0248666769)
(-0.006307860787 7.180178863e-16 -0.001097258162 -1.83300416e-15 -0.006536065385 0 0.00979028438 -1.110110146e-15 0.02471167308)
(-0.006194611708 -5.966614315e-16 -0.001158152271 -1.333128734e-15 -0.006500062155 0 0.01110105499 1.189731621e-15 0.02452166118)
(-0.006055374446 -4.246141073e-16 -0.001182959515 -1.274799954e-15 -0.00645893917 0 0.0123511345 2.234518629e-15 0.0242939389)
(-0.005885029346 1.028749663e-16 -0.001173526408 -1.00232127e-15 -0.006411640104 -2.05275396e-14 0.01353390727 4.877293843e-15 0.02402791992)
(-0.005683767053 2.575552006e-15 -0.001128950828 -1.044249998e-15 -0.006357148881 0 0.01464667018 4.107841189e-15 0.02372092192)
(-0.005452291485 2.265802413e-15 -0.001047832334 -1.242798179e-15 -0.006295239587 0 0.01568772039 4.200041711e-15 0.02336910754)
(-0.005185610305 2.634556764e-16 -0.0009340076937 -1.258249436e-15 -0.00622557291 -1.695325556e-14 0.0166509815 4.291000159e-15 0.02297286366)
(-0.004883529908 1.437741453e-16 -0.0007889880419 -1.103161072e-15 -0.006147510619 0 0.01753384996 2.566880766e-15 0.02253102829)
(-0.004546949355 1.283008531e-15 -0.0006135879617 -1.086022583e-15 -0.006061003945 0 0.01833484602 7.804295929e-16 0.02204151207)
(-0.00417358984 -1.888963192e-16 -0.0004123191464 -1.131423083e-15 -0.00596582979 1.485355432e-14 0.01904978429 -5.792796554e-16 0.02150626208)
(-0.003765094274 -1.443611899e-15 -0.0001869477585 -9.945170747e-16 -0.00586182505 -1.434345753e-14 0.01967813396 1.541857091e-15 0.02092403122)
(-0.003322095944 -1.184204496e-15 5.821968409e-05 -8.552713237e-16 -0.005749088624 0 0.02021735847 9.134959436e-16 0.0202964257)
(-0.002845464917 -4.744472204e-16 0.0003195197649 -7.65612534e-16 -0.005627617005 0 0.02066646705 2.771890218e-16 0.0196248372)
(-0.002336907256 1.348879694e-15 0.0005932086199 -7.594676398e-16 -0.005497614822 0 0.02102486023 -1.584050781e-17 0.01891065186)
(-0.001798104846 1.802013662e-15 0.0008746378783 -8.180468512e-16 -0.005359248817 0 0.02129185195 -9.526108321e-17 0.01815703858)
(-0.001231405565 1.23611993e-15 0.001159911922 -8.386941477e-16 -0.005212829271 0 0.02146789549 -3.875810051e-16 0.01736565531)
(-0.0006391146293 6.423217759e-16 0.001444291763 -8.115729724e-16 -0.005058662695 1.240374215e-14 0.02155321632 -1.133918343e-15 0.0165408179)
(-2.432677831e-05 2.082299995e-16 0.001723644476 -8.224438955e-16 -0.00489715094 0 0.02154896312 4.664709462e-17 0.01568477489)
(0.0006096372575 1.930252087e-16 0.001993591135 -7.989972259e-16 -0.004728726422 0 0.02145645586 8.85568063e-16 0.01480255958)
(0.001258995723 3.928993848e-16 0.002250006272 -7.889258308e-16 -0.004553895749 -1.188029486e-14 0.02127751962 1.726335537e-15 0.01389707177)
(0.001920279402 4.053617719e-16 0.002488827174 -7.801589524e-16 -0.004373199958 0 0.02101425128 1.254597203e-15 0.0129738768)
(0.002589655864 4.056667824e-16 0.002706188218 -7.612063181e-16 -0.004187208004 0 0.02066901671 8.086281811e-16 0.01203653702)
(0.003263012091 6.901214038e-16 0.002898769248 -7.547759365e-16 -0.003996525297 0 0.02024475836 5.866738752e-16 0.01109084692)
(0.003936090356 8.878837119e-16 0.00306332986 -7.493010284e-16 -0.003801782755 0 0.01974442879 4.405427917e-16 0.01014084691)
(0.004604711599 1.100171891e-15 0.003197353402 -7.669302082e-16 -0.003603637545 0 0.01917157154 2.598137577e-16 0.009192468521)
(0.005264282608 7.573070739e-16 0.003298556226 -7.796071739e-16 -0.003402754068 0 0.01852974868 -3.350770403e-17 0.008250094837)
(0.005910381321 1.768155558e-16 0.00336541859 -7.598734816e-16 -0.00319982923 5.638481487e-15 0.01782305201 -2.507799405e-16 0.007319545626)
(0.006538839244 1.395643042e-16 0.003396662845 -7.464583785e-16 -0.002995548807 0 0.01705543688 -1.089236555e-16 0.006405439569)
(0.007145467948 2.596717448e-16 0.003391926359 -7.447060516e-16 -0.002790609264 0 0.01623139613 -9.332591505e-17 0.005513345955)
(0.007725901316 2.831442885e-16 0.003351357231 -7.271593396e-16 -0.002585692456 0 0.0153554743 -1.443505541e-16 0.00464786704)
(0.008275874729 7.608329303e-16 0.003275771385 -7.211344692e-16 -0.002381491756 0 0.01443249189 -2.157580418e-16 0.003814171417)
(0.008791502662 1.064074395e-15 0.003166541326 -7.210982151e-16 -0.002178678572 5.593974032e-15 0.0134673022 -7.259560701e-16 0.003016701684)
(0.009269091449 8.18645913e-16 0.00302573875 -7.270209459e-16 -0.001977917157 5.597514651e-15 0.01246498781 -8.714478397e-16 0.002260119371)
(0.009705191867 -2.807749244e-17 0.002856043773 -7.334249387e-16 -0.00177984321 0 0.01143069053 -3.480104301e-16 0.001548524702)
(0.0100963456 -6.05620693e-16 0.00266082256 -7.073955581e-16 -0.001585076613 0 0.01036976533 -8.793030671e-17 0.0008859765262)
(0.01043953544 -2.667624661e-16 0.002444030014 -6.871585532e-16 -0.001394211295 0 0.009287625518 -3.459518296e-16 0.0002760568912)
(0.01073212922 1.328674096e-17 0.002210105471 -6.754564482e-16 -0.001207812727 0 0.008189651883 -5.58346824e-16 -0.0002778427937)
(0.01097185135 1.863466205e-16 0.001964189731 -6.695595541e-16 -0.001026412154 0 0.0070813639 -8.019693684e-16 -0.0007728254038)
(0.01115657056 3.657640617e-16 0.001711942632 -6.625553477e-16 -0.0008505064201 5.68936416e-15 0.005968267108 -1.156621348e-15 -0.001206269239)
(0.01128525715 1.299287552e-16 0.001459632213 -6.58586572e-16 -0.0006805596369 5.715191947e-15 0.004855904588 -1.198994847e-15 -0.001576142827)
(0.01135665635 -3.00073461e-16 0.001213696974 -6.478546652e-16 -0.0005169771587 0 0.003749449018 -9.222976409e-16 -0.001880696136)
(0.01136244728 1.297413187e-17 0.0009809883008 -6.358660167e-16 -0.0003601453748 0 0.002654184591 -8.322525626e-16 -0.002118868243)
(0.01128280504 2.708518803e-16 0.0007700708168 -6.310778318e-16 -0.0002105803356 0 0.001576885929 -8.308702958e-16 -0.002289773435)
(0.01124977923 8.066231056e-17 0.0003346078997 -6.25925532e-16 -6.905054669e-05 0 0.0005267691659 -8.320069525e-16 -0.002393591443)
(-0.006452378449 4.391109555e-15 -4.924897183e-06 -8.689611581e-15 -0.01061747376 0 0.001227513654 7.228794599e-16 0.02946135621)
(-0.008560882794 8.027139165e-15 -0.0002402213713 -6.791230614e-15 -0.009251827895 0 0.003186805859 2.398833894e-15 0.02940664992)
(-0.008433238708 5.785894811e-15 -0.000472319239 -7.754583135e-15 -0.00882812917 -6.522129881e-14 0.005019702122 6.419421547e-15 0.02935025726)
(-0.008579826719 -6.006799167e-15 -0.0005999846451 -6.454585095e-15 -0.008755144467 0 0.006899012654 3.794027238e-16 0.02925399283)
(-0.008518322647 -4.678699003e-15 -0.0007087066676 -2.131996014e-15 -0.008711214679 7.660224273e-14 0.0087315813 -3.761616654e-15 0.0291206316)
(-0.008410956747 6.388419896e-17 -0.0007876935828 -2.281271251e-15 -0.008666956987 0 0.01050143025 1.240711074e-15 0.0289485789)
(-0.008278189497 -3.727912174e-15 -0.0008284815043 -1.587792661e-15 -0.00861922358 -5.606550638e-14 0.01220603982 5.621475796e-15 0.02873365002)
(-0.008113513337 -3.717146265e-15 -0.0008286499458 -8.050156157e-16 -0.008565956844 0 0.0138397484 4.462911768e-15 0.02847269091)
(-0.007910745779 -2.467369889e-15 -0.0007891513409 -4.204855085e-16 -0.008505363581 -2.266195583e-14 0.01539459506 5.661080132e-15 0.02816454942)
(-0.007668800653 3.285212228e-16 -0.0007093548507 -1.22151682e-16 -0.008435971472 0 0.01686564146 4.356619646e-15 0.02780676285)
(-0.007389091784 1.966323549e-15 -0.0005865725074 -3.598166998e-16 -0.008357190169 0 0.01825098192 4.78485814e-15 0.02739472513)
(-0.007067443927 1.569566202e-15 -0.0004234168721 -4.799735251e-16 -0.008268707707 -1.820344036e-14 0.01954425573 6.509693803e-15 0.02692719374)
(-0.006700937701 2.729392674e-15 -0.000223341091 -5.884810135e-16 -0.008169776243 -1.721727308e-14 0.02073965693 6.460906413e-15 0.02640407999)
(-0.006291311596 4.0014988e-15 1.388669396e-05 -7.202191436e-16 -0.008060070869 0 0.02183604017 4.484760368e-15 0.0258222671)
(-0.005836647928 3.382766365e-15 0.0002837541859 -9.803871103e-16 -0.007939495186 0 0.02282834233 3.589100133e-15 0.02518244535)
(-0.005337354129 -5.875265106e-16 0.0005826336992 -1.045923786e-15 -0.007807741139 -1.508487263e-14 0.02371365387 3.095889924e-15 0.02448508399)
(-0.004794960289 -9.996970772e-16 0.0009077905743 -8.108490454e-16 -0.007664922965 0 0.02449057149 1.802443842e-15 0.02372970365)
(-0.004209419805 1.520760764e-15 0.001253566205 -8.272292281e-16 -0.007511051124 0 0.02515593154 6.826105348e-16 0.02291949081)
(-0.003583114682 1.323611956e-15 0.001616242731 -8.713761257e-16 -0.007346279624 1.372752543e-14 0.02570934924 -9.777538053e-16 0.02205467118)
(-0.002917748735 8.239436773e-16 0.00199008984 -8.628046093e-16 -0.007170874953 1.338654424e-14 0.02614912387 -1.5481251e-15 0.02113920441)
(-0.002215895438 9.452942546e-16 0.002370550875 -8.691305033e-16 -0.006985122951 0 0.02647566037 -2.628089108e-16 0.02017508986)
(-0.00148045175 1.808120824e-15 0.002752017475 -8.893327948e-16 -0.00678944542 0 0.02668877074 4.141928534e-16 0.01916651514)
(-0.0007144889493 -3.829855494e-17 0.003129322679 -9.472285007e-16 -0.00658427539 0 0.0267894886 8.524912414e-16 0.01811705028)
(7.80748509e-05 -1.933080745e-15 0.003497079978 -8.231469292e-16 -0.006370147181 0 0.02677895971 9.297034071e-16 0.01703123313)
(0.0008931719493 -1.424285481e-15 0.003850131727 -7.637084427e-16 -0.006147637894 0 0.02665918436 1.005557304e-15 0.01591367523)
(0.001726389262 -6.611563709e-17 0.004183301954 -6.833866895e-16 -0.00591739538 0 0.02643235011 1.040175271e-15 0.0147694433)
(0.002573502974 1.327952043e-15 0.004491518857 -6.990958002e-16 -0.005680103307 -1.193123499e-14 0.02610113768 1.048638072e-15 0.01360388171)
(0.003429729362 1.169326551e-15 0.004770150264 -7.038314608e-16 -0.005436476185 1.181513796e-14 0.02566864227 7.999943427e-16 0.01242259212)
(0.004290191748 9.336166076e-16 0.00501485524 -7.093265104e-16 -0.005187274835 0 0.02513844928 7.389313847e-16 0.01123129136)
(0.005149857865 1.066509432e-15 0.005221714521 -7.382545658e-16 -0.00493327567 0 0.02451439142 7.656835275e-16 0.01003606062)
(0.006003543155 1.333298895e-15 0.005387187769 -7.337217093e-16 -0.004675289382 0 0.0238006676 8.64778065e-16 0.008842794278)
(0.006845808139 1.178607218e-15 0.005508504671 -7.749024955e-16 -0.004414134865 -5.750001126e-15 0.02300193088 1.064754271e-15 0.007657890848)
(0.007671489578 4.589766095e-16 0.005583162625 -7.717071917e-16 -0.004150661191 0 0.02212294515 7.617586578e-16 0.006487264873)
(0.008475525793 2.433678656e-16 0.005609512361 -7.469348897e-16 -0.003885701574 0 0.0211688269 4.950067463e-16 0.005337505537)
(0.009252665841 5.432781987e-16 0.005586424242 -7.34059333e-16 -0.003620103761 0 0.02014488895 3.005608151e-16 0.004214353152)
(0.009997590774 7.933037569e-16 0.005513718605 -7.329310756e-16 -0.003354702283 0 0.01905685429 1.281764016e-16 0.003124348213)
(0.01070514572 1.059222161e-15 0.005391668153 -7.323648865e-16 -0.003090340664 1.136275218e-14 0.01791052367 -5.946015602e-17 0.002072992251)
(0.01137052029 7.950024514e-16 0.005221492087 -7.434239476e-16 -0.002827838361 0 0.0167120294 2.362157078e-16 0.001066598533)
(0.01198904492 -5.412231398e-16 0.005004912707 -7.383430348e-16 -0.002568005959 0 0.01546752698 2.566715803e-16 0.0001102868412)
(0.01255620766 -1.32208454e-15 0.004744594874 -7.059368533e-16 -0.002311624605 -5.69196329e-15 0.0141834827 3.000528479e-16 -0.0007900591003)
(0.01306750037 1.719128801e-17 0.004443812004 -6.682902471e-16 -0.002059460085 1.140548688e-14 0.01286646444 -1.996435232e-16 -0.001629849334)
(0.01351908047 9.625013962e-16 0.00410663669 -6.81111218e-16 -0.001812249937 0 0.0115231882 -2.978285854e-16 -0.00240380585)
(0.01390739719 1.140778804e-15 0.003737792839 -6.831756095e-16 -0.001570695803 0 0.01016039661 -4.024574017e-16 -0.003107980284)
(0.01422913195 1.65495427e-15 0.003342771501 -6.968459579e-16 -0.001335465684 0 0.008784888603 -3.69229406e-16 -0.003737959985)
(0.01448129281 1.161306302e-15 0.002927889767 -7.081394034e-16 -0.001107189589 5.777966128e-15 0.007403605886 -3.563663834e-16 -0.004290644249)
(0.01466243884 -8.845706594e-17 0.002500083241 -7.099370764e-16 -0.0008864594907 0 0.006023327518 -9.622220146e-17 -0.004762678616)
(0.01477084912 -3.827422393e-16 0.002066799869 -6.878504166e-16 -0.0006737929765 0 0.004650610236 -2.65536882e-17 -0.005151972009)
(0.01479469438 1.389253056e-16 0.00163573834 -6.772694296e-16 -0.0004696862808 5.864895525e-15 0.003291873733 -1.353665234e-16 -0.005456400065)
(0.01470700303 2.210167104e-16 0.001217110335 -6.740312402e-16 -0.0002748290798 0 0.001955695154 7.507851041e-17 -0.005674906442)
(0.01468739832 6.956839271e-17 0.000504671747 -6.679188426e-16 -9.024427863e-05 0 0.0006529575615 1.741123952e-16 -0.005806915819)
(-0.008378873199 3.738011217e-16 4.93718973e-05 -3.990409409e-15 -0.01379174198 0 0.001527331602 1.326882925e-15 0.03465348112)
(-0.01111337759 -1.814036948e-15 -0.0001626857935 -1.652132473e-15 -0.01201556279 0 0.003964415325 4.029469522e-15 0.03458363201)
(-0.01094118377 3.319003559e-15 -0.0003616283209 3.234231324e-16 -0.0114625003 0 0.006243665526 8.779886178e-15 0.03450718438)
(-0.01112215649 6.036636042e-15 -0.0004336546302 -2.13753555e-15 -0.01136446474 -4.864080896e-14 0.008580993507 1.146181844e-14 0.03437674373)
(-0.01103086394 -1.715229371e-15 -0.0004841292381 -2.545059404e-15 -0.01130316586 0 0.01086092766 3.705856337e-15 0.03419545885)
(-0.0108800694 -7.135331596e-15 -0.000498482117 -9.267199385e-16 -0.0112409525 0 0.01306374912 5.541351097e-15 0.0339616604)
(-0.01069413386 -3.143862076e-15 -0.0004683651281 3.058229478e-16 -0.01117404667 -2.846933623e-14 0.01518430591 6.483354689e-15 0.03367214427)
(-0.01046251702 -8.566257549e-16 -0.00039298167 1.2387166e-16 -0.01109930082 0 0.01721374172 3.718676232e-15 0.03332498565)
(-0.01018161304 -1.589086836e-16 -0.0002715108644 4.27034164e-16 -0.01101418996 0 0.01914461522 2.496528395e-15 0.03291746238)
(-0.009853459184 1.216472981e-15 -0.0001005720355 1.654054352e-16 -0.01091748853 0 0.02097346651 1.57206181e-15 0.03244441916)
(-0.009475068571 -5.32053446e-16 0.0001194170726 9.616328874e-17 -0.01080877156 0 0.02269400498 2.629489493e-15 0.03190282883)
(-0.009040886617 -5.77575873e-17 0.0003840854777 2.346974976e-16 -0.01068717755 0 0.02429764532 3.208106124e-15 0.03129286977)
(-0.008552523104 3.349552569e-15 0.0006928220318 1.024536063e-16 -0.01055199183 -1.748541547e-14 0.02578122471 4.152333516e-15 0.03061150724)
(-0.008009648927 4.424139328e-15 0.001043087298 -2.275578234e-16 -0.01040317759 0 0.02714033641 4.158932539e-15 0.02985721309)
(-0.00740992984 3.401722331e-15 0.001429164571 -4.978278461e-16 -0.01024039216 -1.593049107e-14 0.02836889963 5.03836289e-15 0.02903183032)
(-0.006755754794 2.597705802e-15 0.001848485314 -6.283513748e-16 -0.01006352719 0 0.02946528074 4.06912198e-15 0.02813401181)
(-0.006047524302 2.352118931e-15 0.002294995127 -6.934545143e-16 -0.009872734876 0 0.0304252242 2.247521593e-15 0.02716617038)
(-0.005286941223 3.335317823e-15 0.002763480051 -7.561012715e-16 -0.009668067762 0 0.03124671767 1.960456569e-15 0.02613031993)
(-0.004476441933 3.152517205e-15 0.003248630936 -9.257906729e-16 -0.00944987864 0 0.03192837761 1.835403408e-15 0.02502853934)
(-0.003618623202 7.888044609e-17 0.003743769874 -9.824531037e-16 -0.009218461908 0 0.03246874423 1.741787251e-15 0.02386532113)
(-0.002717134362 -1.514192661e-15 0.004243338571 -8.307448197e-16 -0.008974330717 0 0.03286814236 1.317412131e-15 0.0226430988)
(-0.001775116073 -6.723686811e-16 0.004740413727 -8.141370535e-16 -0.008717997782 0 0.03312646558 1.991214728e-15 0.02136797089)
(-0.0007968700035 -2.618215448e-16 0.005229003141 -7.745818376e-16 -0.008450085343 -1.279309358e-14 0.03324520509 3.018198549e-15 0.02004337772)
(0.000212929046 -9.906934703e-17 0.005702492877 -7.130303755e-16 -0.00817127175 0 0.03322587773 1.898375036e-15 0.01867619945)
(0.00124916827 -3.216686243e-17 0.00615475153 -6.786521557e-16 -0.007882322674 0 0.03307109199 1.184553459e-15 0.01727083164)
(0.002306766676 3.065594215e-16 0.006579434392 -6.461656543e-16 -0.007584051667 0 0.03278364122 5.66691243e-16 0.01583477114)
(0.00338043579 8.841976021e-16 0.006970492577 -6.389851875e-16 -0.007277320232 0 0.03236698624 6.363934609e-16 0.01437325532)
(0.004464382411 1.008930989e-15 0.007322281687 -6.679212864e-16 -0.006963022799 0 0.03182512667 7.52208427e-16 0.01289415881)
(0.005552731381 7.5824857e-16 0.007629378291 -6.738978701e-16 -0.006642104381 0 0.03116246175 7.576690003e-16 0.01140330542)
(0.006639571714 6.355546391e-16 0.007886962845 -6.805442749e-16 -0.006315524496 0 0.03038392045 8.648371911e-16 0.009908926887)
(0.007718532421 4.889366739e-16 0.008090529534 -6.878295839e-16 -0.005984272955 0 0.02949471237 1.092661431e-15 0.008417246496)
(0.00878322724 9.961213665e-16 0.00823639351 -6.729171062e-16 -0.005649360319 -5.839551837e-15 0.02850065404 1.535621881e-15 0.006936610382)
(0.009827519952 1.388468905e-15 0.008321131838 -6.81500683e-16 -0.005311810476 0 0.02740758033 1.07424212e-15 0.005473578343)
(0.01084524877 1.135396964e-15 0.008342372114 -7.132800562e-16 -0.004972642863 0 0.026221946 7.968709599e-16 0.004036496849)
(0.01182996458 1.07105955e-15 0.008298232402 -7.229009433e-16 -0.004632880772 0 0.02495030425 6.139337399e-16 0.002632007086)
(0.01277518816 1.099304336e-15 0.008187849023 -7.217898364e-16 -0.004293546935 0 0.02359977265 4.775108383e-16 0.001268273976)
(0.01367457583 5.010746117e-16 0.008010845063 -7.212322539e-16 -0.003955660329 0 0.02217747276 3.52294246e-16 -4.808609274e-05)
(0.01452219224 3.334937229e-16 0.007767882861 -7.099273074e-16 -0.003620226954 0 0.02069099171 4.740282091e-16 -0.001309195533)
(0.01531220835 6.454415774e-16 0.007460297673 -7.160145548e-16 -0.003288228875 0 0.01914797671 3.447759876e-16 -0.002508623162)
(0.01603875288 1.075187219e-15 0.007090441166 -6.999957564e-16 -0.002960629022 0 0.01755646852 -2.844520091e-16 -0.003639028581)
(0.01669620478 8.622085444e-16 0.006661426105 -7.12633133e-16 -0.002638367004 1.158311632e-14 0.01592460056 -7.694360874e-16 -0.004694427319)
(0.01727947422 2.614321691e-16 0.006177245272 -7.143981741e-16 -0.002322354089 0 0.01426063369 -4.173390059e-16 -0.005668190855)
(0.01778398668 2.080924178e-16 0.00564287395 -6.995024209e-16 -0.002013462011 1.164699966e-14 0.01257296484 -2.758477759e-16 -0.006555036812)
(0.01820513409 8.953801489e-17 0.005064184945 -6.991377894e-16 -0.001712521158 0 0.01087001054 1.819003375e-16 -0.007349323545)
(0.01853894205 -3.561227977e-16 0.0044481225 -6.905158791e-16 -0.001420328118 0 0.009160322908 6.54420493e-16 -0.008046836565)
(0.01878345393 -7.583655248e-16 0.003802383697 -6.706248417e-16 -0.001137624855 -5.894590884e-15 0.007452154189 9.325679131e-16 -0.008643140264)
(0.01893641406 -1.866405279e-16 0.003135502764 -6.508351138e-16 -0.0008650701386 0 0.005753606576 8.211846069e-16 -0.00913532968)
(0.01898168511 -2.82765778e-16 0.002456180017 -6.45646633e-16 -0.0006032878727 0 0.004072450122 9.946375936e-16 -0.009520402449)
(0.01888415611 -6.110438421e-16 0.001776431699 -6.282159073e-16 -0.0003531843008 -5.99108814e-15 0.002419279817 1.335801242e-15 -0.009796796814)
(0.01887900069 -2.04329778e-16 0.0007168653618 -6.144812179e-16 -0.0001160726171 -6.028539087e-15 0.0008070916092 1.421236459e-15 -0.00996328404)
(-0.0107355642 -3.865862321e-16 0.000117698688 -2.532845714e-15 -0.01767583661 0 0.001895913655 3.32381702e-16 0.04102155245)
(-0.0142359421 -1.552396487e-15 -6.17016847e-05 -5.060217472e-16 -0.01539678749 0 0.004920251637 6.868626301e-16 0.04093207493)
(-0.01401006643 -2.819013413e-15 -0.0002142968881 5.912278002e-16 -0.01468539706 0 0.007748923292 -2.629507585e-16 0.04082888789)
(-0.01423423354 1.616670276e-15 -0.0002119056179 1.326614651e-15 -0.01455705977 0 0.01065138089 3.618041441e-15 0.04065396984)
(-0.01410719091 1.755428171e-15 -0.0001857653189 -1.543101079e-16 -0.01447491753 0 0.0134828384 5.035515548e-15 0.04041185809)
(-0.01390164695 -3.478357839e-15 -0.0001181414982 9.736055181e-17 -0.01439107364 0 0.01621738622 2.668482043e-15 0.04010252904)
(-0.01364716428 -1.104089939e-15 -2.063929349e-07 8.752867246e-16 -0.01430044061 0 0.01884741831 2.160754113e-16 0.03972327083)
(-0.01333312679 1.445332646e-15 0.0001704165338 4.025623908e-16 -0.01419877074 0 0.02136384702 5.03134816e-16 0.03927071268)
(-0.01295919237 4.137121717e-16 0.0003976560414 3.652079861e-16 -0.01408341792 0 0.02376056766 -5.004590257e-16 0.0387392247)
(-0.01252434533 4.978743791e-17 0.0006830520662 2.939673434e-16 -0.01395338853 0 0.02603037144 2.606152397e-16 0.03812393501)
(-0.01202187199 -3.129344073e-16 0.001022631016 2.343860781e-16 -0.01380767627 0 0.02816240926 1.175331356e-15 0.03742424995)
(-0.01145093984 -6.227030833e-16 0.001414528277 2.566873139e-16 -0.01364512677 0 0.03015020368 4.425842549e-17 0.0366379394)
(-0.0108130992 1.416043822e-15 0.001857970061 3.121474326e-16 -0.0134654621 0 0.03198951974 4.745547489e-16 0.03576130778)
(-0.01010482564 2.670081585e-15 0.002346514588 9.904356145e-17 -0.01326842655 0 0.03367190587 1.893988479e-15 0.03479562226)
(-0.009327390536 3.597479146e-15 0.00287586905 -6.319758185e-17 -0.01305363242 0 0.03519297934 2.81523771e-15 0.03374076833)
(-0.00848266185 3.74012181e-15 0.003441439834 -3.950371051e-16 -0.01282127002 -1.555838445e-14 0.03654895787 3.78306722e-15 0.03259677398)
(-0.007570875004 2.254638276e-15 0.004035570559 -4.695025803e-16 -0.01257139393 0 0.03773466607 3.019903043e-15 0.031367577)
(-0.006595507223 2.192313335e-15 0.004652973862 -5.119174952e-16 -0.01230428163 0 0.03874863566 2.980017007e-15 0.03005417181)
(-0.005559063032 1.701832047e-15 0.005285709466 -6.083700528e-16 -0.01202037424 0 0.03958775452 3.764230646e-15 0.02866170029)
(-0.004465421056 1.673701354e-15 0.005927275994 -7.011238096e-16 -0.01172014149 -1.380674579e-14 0.04025187118 4.499580077e-15 0.02719371183)
(-0.003318770688 4.496222801e-16 0.006569796927 -6.591267463e-16 -0.01140426203 0 0.04074019431 3.157856258e-15 0.02565564366)
(-0.002123612787 -1.135711078e-15 0.007205601385 -6.459498686e-16 -0.01107341682 0 0.04105341053 2.446788002e-15 0.02405327)
(-0.0008854310065 1.979497593e-16 0.007827232693 -5.58263918e-16 -0.01072844611 0 0.04119301669 1.977643536e-15 0.02239245748)
(0.0003900406475 1.317297777e-15 0.008427019832 -5.992838002e-16 -0.01037022643 0 0.04116140028 1.581078807e-15 0.02068044047)
(0.001696553146 9.888321246e-16 0.008997548536 -6.153758846e-16 -0.009999750125 0 0.04096166458 1.182742529e-15 0.01892370842)
(0.003028068146 9.195459776e-16 0.009531248722 -6.076190446e-16 -0.009618041794 0 0.04059756369 8.380878059e-16 0.01713050684)
(0.004377966086 9.730758179e-16 0.01002099526 -6.48936278e-16 -0.009226184584 0 0.04007348166 6.3537146e-16 0.01530798728)
(0.005739396578 9.400156716e-16 0.0104599497 -6.188209885e-16 -0.008825300517 0 0.03939461612 5.738308242e-16 0.01346491972)
(0.007105272919 7.090064641e-16 0.01084154942 -6.607929183e-16 -0.008416552794 0 0.0385664519 3.412125174e-16 0.01160904684)
(0.008468445713 3.940070944e-16 0.01115978191 -6.325711716e-16 -0.008001130804 0 0.03759525874 4.733377447e-16 0.009749496108)
(0.009821286279 -3.699631389e-17 0.01140916896 -6.05402496e-16 -0.007580245043 0 0.03648765619 4.893369652e-16 0.007894490676)
(0.01115631959 1.245217068e-15 0.01158475398 -6.02315672e-16 -0.007155135875 0 0.03525085401 3.994130309e-16 0.006053298567)
(0.01246614575 2.009833819e-15 0.01168217342 -6.690434163e-16 -0.006727039406 0 0.03389221502 7.045381156e-16 0.004234570957)
(0.0137431938 1.23334181e-15 0.01169793023 -6.553988123e-16 -0.006297202217 0 0.03241976568 7.167798526e-16 0.00244755005)
(0.01497962908 1.242253817e-15 0.0116293004 -6.768027145e-16 -0.005866863529 0 0.03084176794 7.390216354e-16 0.0007011123063)
(0.016167638 1.375617751e-15 0.01147434586 -6.986696632e-16 -0.005437272312 0 0.02916700567 7.821462153e-16 -0.0009956241641)
(0.0172996096 1.049754334e-15 0.01123189841 -7.095746942e-16 -0.005009660048 0 0.02740437705 8.631176208e-16 -0.002633692547)
(0.0183680436 8.14045375e-16 0.01090167374 -6.980948434e-16 -0.00458525076 5.859419014e-15 0.02556317084 4.805363331e-16 -0.004204236855)
(0.01936557004 1.267204874e-15 0.01048449455 -7.099881129e-16 -0.004165241888 0 0.02365298014 5.321857645e-16 -0.005698470592)
(0.02028477274 1.362380855e-15 0.00998209508 -7.338291419e-16 -0.003750813935 0 0.02168370391 4.485067285e-16 -0.007108000385)
(0.02111871931 3.223875005e-16 0.009397316748 -7.352189593e-16 -0.003343120173 0 0.01966542485 6.015290473e-16 -0.00842453419)
(0.02186091932 -2.605663816e-16 0.008733975348 -7.140074426e-16 -0.002943278581 0 0.01760830722 5.783651087e-16 -0.009640396341)
(0.0225053262 -3.940872421e-16 0.007997184274 -7.046203859e-16 -0.002552366287 0 0.01552265823 6.109386649e-16 -0.01074820818)
(0.02304600233 -7.564795793e-16 0.007193275687 -6.839430778e-16 -0.002171414089 0 0.01341891987 5.638388348e-16 -0.01174136645)
(0.02347808109 -8.172137664e-16 0.006329785019 -6.634416574e-16 -0.001801412719 0 0.01130744503 5.48511368e-16 -0.0126138178)
(0.02379893656 -5.284453655e-16 0.00541544132 -6.401460845e-16 -0.001443281049 0 0.00919837312 3.172006152e-16 -0.01336037274)
(0.02400576169 -5.589219123e-16 0.004459904256 -6.257189733e-16 -0.001097843781 6.016302617e-15 0.007101497141 9.576035624e-17 -0.01397672251)
(0.02407723797 -1.29688005e-15 0.003473190418 -6.084437009e-16 -0.0007658731131 0 0.005026319509 2.130918729e-16 -0.01445934054)
(0.02396866665 -9.838530154e-16 0.002469187058 -5.79324147e-16 -0.0004485326648 0 0.002985620219 9.953720798e-17 -0.01480568804)
(0.02397851827 -1.766296009e-16 0.0009793886987 -5.668771941e-16 -0.0001474753783 0 0.0009951901096 8.817222476e-17 -0.01501422677)
(-0.01361269389 -2.474130958e-16 0.0002040428419 -2.413997441e-15 -0.02241916376 0 0.002348923698 -6.058040549e-17 0.04880489003)
(-0.01804827331 -8.128514124e-16 6.994470227e-05 -5.950450581e-16 -0.01952520235 0 0.006094876386 -2.620143295e-16 0.04869092509)
(-0.01775853904 -9.96426015e-16 -2.022817607e-05 1.00072601e-16 -0.01862045095 0 0.009598712716 -9.327343752e-16 0.04855404983)
(-0.01803644481 -8.659689187e-17 7.750187065e-05 2.939509965e-16 -0.01845585637 0 0.01319527129 -2.100778629e-15 0.04832449808)