/*--------------------------------*- C++ -*----------------------------------*\
  =========                 |
  \\      /  F ield         | OpenFOAM: The Open Source CFD Toolbox
   \\    /   O peration     | Website:  https://openfoam.org
    \\  /    A nd           | Version:  7
     \\/     M anipulation  |
\*---------------------------------------------------------------------------*/
FoamFile
{
    version     2.0;
    format      ascii;
    class       surfaceScalarField;
    location    "0.003";
    object      phi;
}
// * * * * * * * * * * * * * * * * * * * * * * * * * * * * * * * * * * * * * //

dimensions      [1 0 -1 0 0 0 0];

internalField   nonuniform List<scalar> 
2260
(
-6.275885371e-15
4.559057123e-11
-2.459215814e-14
1.334055218e-10
-5.425153296e-14
2.163290368e-10
-9.452360871e-14
2.945656251e-10
-1.446715681e-13
3.683126896e-10
-2.039399883e-13
4.377606214e-10
-2.715212053e-13
5.030929021e-10
-3.465696553e-13
5.644863356e-10
-4.282393803e-13
6.221112763e-10
-5.156634596e-13
6.761318011e-10
-6.078255962e-13
7.267058009e-10
-7.037454648e-13
7.739852835e-10
-8.024928111e-13
8.181166691e-10
-9.028891989e-13
8.592406075e-10
-1.003931935e-12
8.974925049e-10
-1.104541566e-12
9.330027094e-10
-1.203545258e-12
9.658962305e-10
-1.300013298e-12
9.962936664e-10
1.024310527e-09
-8.36605937e-15
4.559893729e-11
-3.278065516e-14
1.334299364e-10
-7.229231495e-14
2.163685485e-10
-1.258923762e-13
2.946192252e-10
-1.925527262e-13
3.6837935e-10
-2.711919295e-13
4.378392606e-10
-3.606982073e-13
5.031824084e-10
-4.599323069e-13
5.645855697e-10
-5.677384665e-13
6.222190824e-10
-6.828387436e-13
6.762469014e-10
-8.039117021e-13
7.268268738e-10
-9.297220277e-13
7.741110938e-10
-1.058853741e-12
8.182458008e-10
-1.189869077e-12
8.593716228e-10
-1.321488714e-12
8.976241245e-10
-1.452153065e-12
9.331333738e-10
-1.580562691e-12
9.660246401e-10
-1.705294611e-12
9.964183983e-10
-1.824985934e-12
1.024430218e-09
-1.938399453e-12
1.050171559e-09
-2.044189101e-12
1.073749048e-09
-2.141320767e-12
1.095265659e-09
-2.228540779e-12
1.114819723e-09
-2.305030271e-12
1.132506248e-09
-2.369704966e-12
1.148415853e-09
-2.421984785e-12
1.162636155e-09
-2.461009112e-12
1.175250603e-09
-2.486424836e-12
1.186339875e-09
-2.497630888e-12
1.195980723e-09
-2.494520574e-12
1.204247373e-09
-2.476766967e-12
1.211210348e-09
-2.444499615e-12
1.216937853e-09
-2.39769129e-12
1.221494619e-09
-2.336688691e-12
1.224943239e-09
-2.261738398e-12
1.227343019e-09
-2.173394095e-12
1.228751335e-09
-2.072169647e-12
1.229222477e-09
-1.95880425e-12
1.228808964e-09
-1.834034812e-12
1.227560409e-09
-1.698757956e-12
1.225524825e-09
-1.553892177e-12
1.222747476e-09
-1.400474625e-12
1.219272225e-09
-1.239551281e-12
1.215140275e-09
-1.072257401e-12
1.210391653e-09
-8.99715848e-13
1.205063831e-09
-7.231429361e-13
1.199193274e-09
-5.436785743e-13
1.192814022e-09
-3.625800697e-13
1.185959273e-09
-1.80931011e-13
1.17865989e-09
1.170945966e-09
-1.088671442e-14
4.5609824e-11
-4.265416375e-14
1.334617038e-10
-9.40407738e-14
2.164199351e-10
-1.63696239e-13
2.946888807e-10
-2.502254527e-13
3.684658792e-10
-3.521915993e-13
4.379412267e-10
-4.681168177e-13
5.032983336e-10
-5.964960389e-13
5.647139489e-10
-7.357203175e-13
6.223583067e-10
-8.841066407e-13
6.763952877e-10
-1.040009414e-12
7.269827766e-10
-1.201710923e-12
7.742727953e-10
-1.367346255e-12
8.184114362e-10
-1.535204649e-12
8.595394812e-10
-1.703449149e-12
8.97792369e-10
-1.87022147e-12
9.333001461e-10
-2.033868016e-12
9.661882867e-10
-2.192482433e-12
9.965770127e-10
-2.344528418e-12
1.024582264e-09
-2.488244547e-12
1.050315276e-09
-2.622187204e-12
1.07388299e-09
-2.744832583e-12
1.095388304e-09
-2.854881734e-12
1.114929772e-09
-2.951079163e-12
1.132602445e-09
-3.032352486e-12
1.148497126e-09
-3.097737183e-12
1.16270154e-09
-3.146435214e-12
1.175299301e-09
-3.177768759e-12
1.186371209e-09
-3.191261968e-12
1.195994216e-09
-3.186530596e-12
1.204242642e-09
-3.163433815e-12
1.211187251e-09
-3.121885635e-12
1.216896305e-09
-3.062091381e-12
1.221434825e-09
-2.98423622e-12
1.224865384e-09
-2.888852041e-12
1.227247635e-09
-2.776391778e-12
1.228638874e-09
-2.647696985e-12
1.229093782e-09
-2.503459125e-12
1.228664726e-09
-2.344784942e-12
1.227401734e-09
-2.172573359e-12
1.225352614e-09
-1.9881566e-12
1.222563059e-09
-1.792619085e-12
1.219076688e-09
-1.587445914e-12
1.214935102e-09
-1.373864951e-12
1.210178072e-09
-1.1534668e-12
1.204843432e-09
-9.275893187e-13
1.198967396e-09
-6.978544415e-13
1.192584287e-09
-4.656537765e-13
1.185727072e-09
-2.325605862e-13
1.178426797e-09
1.170713405e-09
-1.391896872e-14
4.562374297e-11
-5.453094658e-14
1.335023158e-10
-1.201945317e-13
2.164855987e-10
-2.09148653e-13
2.947778348e-10
-3.195734985e-13
3.68576304e-10
-4.496009993e-13
4.380712542e-10
-5.973146158e-13
5.034460472e-10
-7.607039975e-13
5.648773383e-10
-9.37663837e-13
6.225352666e-10
-1.126079559e-12
6.765837034e-10
-1.323825241e-12
7.271805223e-10
-1.528578074e-12
7.744775482e-10
-1.73808328e-12
8.186209414e-10
-1.950130453e-12
8.597515284e-10
-2.162304495e-12
8.98004543e-10
-2.372436507e-12
9.335102781e-10
-2.578242284e-12
9.663940924e-10
-2.777521758e-12
9.967762922e-10
-2.968244328e-12
1.024772987e-09
-3.14826363e-12
1.050495295e-09
-3.315842573e-12
1.074050569e-09
-3.469004552e-12
1.095541466e-09
-3.606298567e-12
1.115067066e-09
-3.726028361e-12
1.132722175e-09
-3.827068891e-12
1.148598167e-09
-3.908060199e-12
1.162782531e-09
-3.968220434e-12
1.175359461e-09
-4.006551428e-12
1.18640954e-09
-4.022654085e-12
1.196010319e-09
-4.015901122e-12
1.204235889e-09
-3.986276045e-12
1.211157626e-09
-3.9335471e-12
1.216843576e-09
-3.858071654e-12
1.221359349e-09
-3.759985656e-12
1.224767298e-09
-3.640005517e-12
1.227127655e-09
-3.498631741e-12
1.228497501e-09
-3.336917268e-12
1.228932067e-09
-3.155695475e-12
1.228483504e-09
-2.956303442e-12
1.227202342e-09
-2.739870102e-12
1.22513618e-09
-2.507989787e-12
1.222331179e-09
-2.262036345e-12
1.218830734e-09
-2.003801155e-12
1.214676867e-09
-1.734832115e-12
1.209909103e-09
-1.45708633e-12
1.204565687e-09
-1.172226037e-12
1.198682536e-09
-8.822868145e-13
1.192294347e-09
-5.889681867e-13
1.185433753e-09
-2.943070007e-13
1.178132136e-09
1.170419098e-09
-1.755859841e-14
4.564130157e-11
-6.878727163e-14
1.335535445e-10
-1.515914297e-13
2.165684028e-10
-2.637171539e-13
2.948899605e-10
-4.02843595e-13
3.687154305e-10
-5.665788775e-13
4.382349895e-10
-7.524377208e-13
5.036319061e-10
-9.578261893e-13
5.650827267e-10
-1.180092604e-12
6.22757533e-10
-1.416585773e-12
6.768201966e-10
-1.664479359e-12
7.274284159e-10
-1.9208928e-12
7.747339616e-10
-2.183055969e-12
8.188831046e-10
-2.4480247e-12
8.600164971e-10
-2.712905645e-12
8.98269424e-10
-2.974964326e-12
9.337723368e-10
-3.231273513e-12
9.666504016e-10
-3.479266406e-12
9.970242851e-10
-3.716228958e-12
1.025009949e-09
-3.939743786e-12
1.05071881e-09
-4.147444472e-12
1.07425827e-09
-4.337133272e-12
1.095731155e-09
-4.506841935e-12
1.115236775e-09
-4.654694875e-12
1.132870028e-09
-4.779159367e-12
1.148722631e-09
-4.878749793e-12
1.162882121e-09
-4.952370546e-12
1.175433082e-09
-4.998979386e-12
1.186456148e-09
-5.01793497e-12
1.196029275e-09
-5.008659176e-12
1.204226613e-09
-4.970961908e-12
1.211119929e-09
-4.904753068e-12
1.216777367e-09
-4.810270718e-12
1.221264867e-09
-4.687891892e-12
1.224644919e-09
-4.538272224e-12
1.226978035e-09
-4.362244982e-12
1.228321473e-09
-4.160855812e-12
1.228730678e-09
-3.935348904e-12
1.228257997e-09
-3.687123777e-12
1.226954117e-09
-3.417787389e-12
1.224866844e-09
-3.129062012e-12
1.222042453e-09
-2.822845738e-12
1.218524518e-09
-2.501121059e-12
1.214355142e-09
-2.166005066e-12
1.209573987e-09
-1.819691284e-12
1.204219373e-09
-1.464423423e-12
1.198327268e-09
-1.102527059e-12
1.191932451e-09
-7.362605936e-13
1.185067487e-09
-3.680209572e-13
1.177763896e-09
1.170051077e-09
-2.192086162e-14
4.566322243e-11
-8.587425814e-14
1.336174979e-10
-1.892253503e-13
2.166717539e-10
-3.291388054e-13
2.95029874e-10
-5.026783734e-13
3.688889701e-10
-7.068065354e-13
4.384391177e-10
-9.383646905e-13
5.038634642e-10
-1.194101404e-12
5.653384634e-10
-1.47072354e-12
6.230341551e-10
-1.764803163e-12
6.771142762e-10
-2.072782342e-12
7.27736395e-10
-2.391155566e-12
7.750523348e-10
-2.716367473e-12
8.192083165e-10
-3.044734612e-12
8.603448643e-10
-3.372788629e-12
8.98597478e-10
-3.696954022e-12
9.340965022e-10
-4.01377037e-12
9.66967218e-10
-4.319988434e-12
9.973305031e-10
-4.612265479e-12
1.025302226e-09
-4.887738211e-12
1.050994282e-09
-5.143354465e-12
1.074513886e-09
-5.376623702e-12
1.095964424e-09
-5.584953628e-12
1.115445104e-09
-5.766288119e-12
1.133051363e-09
-5.918557469e-12
1.148874901e-09
-6.040191058e-12
1.163003755e-09
-6.129656974e-12
1.175522548e-09
-6.185931502e-12
1.186512423e-09
-6.208026193e-12
1.196051369e-09
-6.195482023e-12
1.204214069e-09
-6.147864325e-12
1.211072311e-09
-6.065286627e-12
1.216694789e-09
-5.947836991e-12
1.221147417e-09
-5.796185346e-12
1.224493267e-09
-5.610935924e-12
1.226792786e-09
-5.393294578e-12
1.228103832e-09
-5.144345224e-12
1.228481729e-09
-4.865775704e-12
1.227979428e-09
-4.559121944e-12
1.226647463e-09
-4.226500666e-12
1.224534223e-09
-3.869852396e-12
1.221685805e-09
-3.491639713e-12
1.218146305e-09
-3.094129536e-12
1.213957632e-09
-2.680065909e-12
1.209159923e-09
-2.251959754e-12
1.203791267e-09
-1.812723543e-12
1.197888032e-09
-1.365024853e-12
1.191484752e-09
-9.118096185e-13
1.184614272e-09
-4.558447208e-13
1.177307931e-09
1.169595233e-09
-2.714126851e-14
4.56903637e-11
-1.063248176e-13
1.336966814e-10
-2.342691818e-13
2.167996983e-10
-4.074372862e-13
2.952030421e-10
-6.221495173e-13
3.691036823e-10
-8.746025567e-13
4.386915707e-10
-1.160861415e-12
5.041497231e-10
-1.476899384e-12
5.656545014e-10
-1.818571587e-12
6.233758273e-10
-2.181545686e-12
6.774772503e-10
-2.561469791e-12
7.281163191e-10
-2.954014368e-12
7.754448794e-10
-3.35464448e-12
8.196089466e-10
-3.758927974e-12
8.607491478e-10
-4.162532947e-12
8.99001083e-10
-4.560994959e-12
9.344949642e-10
-4.950202764e-12
9.673564258e-10
-5.325976521e-12
9.977062769e-10
-5.684427844e-12
1.025660678e-09
-6.02186064e-12
1.051331715e-09
-6.334718576e-12
1.074826744e-09
-6.619876186e-12
1.096249582e-09
-6.874248134e-12
1.115699476e-09
-7.095343112e-12
1.133272458e-09
-7.280643559e-12
1.149060201e-09
-7.428310056e-12
1.163151421e-09
-7.536458324e-12
1.175630696e-09
-7.603926391e-12
1.186579891e-09
-7.629490545e-12
1.196076933e-09
-7.612664234e-12
1.204197243e-09
-7.552912074e-12
1.211012559e-09
-7.450403796e-12
1.216592281e-09
-7.305269513e-12
1.221002283e-09
-7.118310213e-12
1.224306308e-09
-6.890315408e-12
1.226564791e-09
-6.622689207e-12
1.227836206e-09
-6.316832091e-12
1.228175872e-09
-5.974707463e-12
1.227637303e-09
-5.598270641e-12
1.226271027e-09
-5.190000554e-12
1.224125953e-09
-4.752335345e-12
1.22124814e-09
-4.288184235e-12
1.217682154e-09
-3.800368849e-12
1.213469817e-09
-3.292159451e-12
1.208651714e-09
-2.766650962e-12
1.203265758e-09
-2.227358913e-12
1.19734874e-09
-1.677527602e-12
1.190934921e-09
-1.120768289e-12
1.184057512e-09
-5.603966632e-13
1.17674756e-09
1.169034836e-09
-3.337731798e-14
4.572374102e-11
-1.307537756e-13
1.337940579e-10
-2.880740114e-13
2.169570185e-10
-5.009558598e-13
2.954159239e-10
-7.648469633e-13
3.693675734e-10
-1.07504014e-12
4.390017639e-10
-1.426686173e-12
5.045013691e-10
-1.814789675e-12
5.660426049e-10
-2.234153711e-12
6.237951913e-10
-2.679478606e-12
6.779225752e-10
-3.145447688e-12
7.285822882e-10
-3.62659811e-12
7.759260298e-10
-4.117390638e-12
8.200997391e-10
-4.612455934e-12
8.612442131e-10
-5.106309682e-12
8.994949367e-10
-5.593614068e-12
9.349822686e-10
-6.069273859e-12
9.678320856e-10
-6.528147304e-12
9.981651503e-10
-6.965611455e-12
1.026098142e-09
-7.376982842e-12
1.051743087e-09
-7.75814645e-12
1.075207908e-09
-8.105104472e-12
1.09659654e-09
-8.414350136e-12
1.116008722e-09
-8.682655638e-12
1.133540763e-09
-8.907220826e-12
1.149284766e-09
-9.085618624e-12
1.163329819e-09
-9.215830992e-12
1.175760909e-09
-9.296251494e-12
1.186660312e-09
-9.325669843e-12
1.196106352e-09
-9.30330017e-12
1.204174873e-09
-9.228756935e-12
1.210938016e-09
-9.102041777e-12
1.216465566e-09
-8.923569917e-12
1.220823811e-09
-8.694110242e-12
1.224076848e-09
-8.414858307e-12
1.226285539e-09
-8.087309352e-12
1.227508657e-09
-7.713385576e-12
1.227801948e-09
-7.295257111e-12
1.227219175e-09
-6.835510148e-12
1.22581128e-09
-6.336936226e-12
1.223627379e-09
-5.802688184e-12
1.220713892e-09
-5.236085142e-12
1.217115551e-09
-4.640739936e-12
1.212874471e-09
-4.020405583e-12
1.208031379e-09
-3.379016684e-12
1.202624369e-09
-2.720628511e-12
1.196690352e-09
-2.049330216e-12
1.190263623e-09
-1.369357702e-12
1.18337754e-09
-6.848221883e-13
1.176063024e-09
1.168350014e-09
-4.081013255e-14
4.576455115e-11
-1.598703152e-13
1.339131181e-10
-3.522043201e-13
2.171493525e-10
-6.124318767e-13
2.956761515e-10
-9.349620379e-13
3.696901036e-10
-1.314028684e-12
4.393808305e-10
-1.743669544e-12
5.0493101e-10
-2.217696679e-12
5.66516632e-10
-2.729751202e-12
6.243072459e-10
-3.273377479e-12
6.784662015e-10
-3.842016426e-12
7.291509272e-10
-4.428909003e-12
7.765129224e-10
-5.027382018e-12
8.206982121e-10
-5.630789486e-12
8.618476205e-10
-6.232399545e-12
9.000965468e-10
-6.825817013e-12
9.355756861e-10
-7.404645687e-12
9.684109142e-10
-7.962790504e-12
9.987232951e-10
-8.494489889e-12
1.026629841e-09
-8.994127193e-12
1.052242724e-09
-9.456727105e-12
1.075670508e-09
-9.877381889e-12
1.097017194e-09
-1.025197427e-11
1.116383314e-09
-1.05764724e-11
1.133865261e-09
-1.084767988e-11
1.149555974e-09
-1.106251704e-11
1.163544656e-09
-1.121877091e-11
1.175917162e-09
-1.131434627e-11
1.186755887e-09
-1.134802119e-11
1.196140027e-09
-1.131869865e-11
1.204145551e-09
-1.122613927e-11
1.210845456e-09
-1.107020568e-11
1.216309632e-09
-1.085160818e-11
1.220605214e-09
-1.057115205e-11
1.223796392e-09
-1.023045774e-11
1.225944845e-09
-9.831216755e-12
1.227109416e-09
-9.375900238e-12
1.227346631e-09
-8.867019301e-12
1.226710294e-09
-8.307829115e-12
1.225252089e-09
-7.701584877e-12
1.223021135e-09
-7.05221073e-12
1.220064517e-09
-6.363590051e-12
1.21642693e-09
-5.64020727e-12
1.212151089e-09
-4.88644194e-12
1.207277614e-09
-4.107181673e-12
1.201845109e-09
-3.307138868e-12
1.195890309e-09
-2.491403832e-12
1.189447888e-09
-1.664912783e-12
1.182551049e-09
-8.327825604e-13
1.175230894e-09
1.167517231e-09
-4.964960711e-14
4.581420076e-11
-1.94498633e-13
1.340579671e-10
-4.284796913e-13
2.173833336e-10
-7.450292561e-13
2.95992701e-10
-1.137341685e-12
3.70082416e-10
-1.598374268e-12
4.398418631e-10
-2.120818822e-12
5.054534545e-10
-2.697130352e-12
5.670929436e-10
-3.319578498e-12
6.24929694e-10
-3.98031155e-12
6.791269345e-10
-4.671227634e-12
7.298418433e-10
-5.384154599e-12
7.772258494e-10
-6.111011033e-12
8.214250685e-10
-6.843560082e-12
8.625801696e-10
-7.57372776e-12
9.008267145e-10
-8.293686629e-12
9.362956449e-10
-8.995610781e-12
9.691128384e-10
-9.672223862e-12
9.993999082e-10
-1.031634856e-11
1.027273966e-09
-1.092138216e-11
1.052847757e-09
-1.148109275e-11
1.076230218e-09
-1.198973984e-11
1.097525842e-09
-1.244219268e-11
1.116835767e-09
-1.283373875e-11
1.134256807e-09
-1.31604236e-11
1.149882659e-09
-1.341867183e-11
1.163802905e-09
-1.360575452e-11
1.176104245e-09
-1.371927769e-11
1.18686941e-09
-1.375773259e-11
1.196178482e-09
-1.371993038e-11
1.204107748e-09
-1.360554474e-11
1.210731071e-09
-1.341455355e-11
1.216118641e-09
-1.314776856e-11
1.220338429e-09
-1.28063027e-11
1.223454926e-09
-1.239204979e-11
1.225530592e-09
-1.190718606e-11
1.226624552e-09
-1.135461547e-11
1.226794061e-09
-1.073749273e-11
1.226093171e-09
-1.005965485e-11
1.224574252e-09
-9.325127212e-12
1.222286607e-09
-8.53855295e-12
1.219277943e-09
-7.704683965e-12
1.215593061e-09
-6.828845663e-12
1.21127525e-09
-5.916345316e-12
1.206365114e-09
-4.973018222e-12
1.200901782e-09
-4.004536429e-12
1.194921827e-09
-3.017013096e-12
1.188460364e-09
-2.016331743e-12
1.181550367e-09
-1.008700286e-12
1.174223263e-09
1.166508531e-09
-6.013589616e-14
4.587433665e-11
-2.355807651e-13
1.34233412e-10
-5.189793092e-13
2.176667321e-10
-9.023797537e-13
2.963761015e-10
-1.377520779e-12
3.70557557e-10
-1.93584267e-12
4.40400185e-10
-2.568481546e-12
5.060860934e-10
-3.266300548e-12
5.677907626e-10
-4.019963576e-12
6.25683357e-10
-4.819861667e-12
6.799268326e-10
-5.656181865e-12
7.306781635e-10
-6.519096315e-12
7.780887638e-10
-7.398702615e-12
8.223046748e-10
-8.285022856e-12
8.634664898e-10
-9.168368496e-12
9.017100601e-10
-1.003908374e-11
9.371663602e-10
-1.088782173e-11
9.699615764e-10
-1.170568816e-11
1.000217775e-09
-1.248398769e-11
1.028052265e-09
-1.321481749e-11
1.053578587e-09
-1.389049091e-11
1.076905892e-09
-1.450425213e-11
1.098139603e-09
-1.504971672e-11
1.117381232e-09
-1.552141049e-11
1.134728501e-09
-1.591437771e-11
1.150275626e-09
-1.62245492e-11
1.164113076e-09
-1.644844928e-11
1.176328145e-09
-1.658345941e-11
1.18700442e-09
-1.662759117e-11
1.196222613e-09
-1.65796826e-11
1.20405984e-09
-1.643917791e-11
1.210590566e-09
-1.620632552e-11
1.215885789e-09
-1.588194952e-11
1.220014053e-09
-1.546765386e-11
1.223040631e-09
-1.49655627e-11
1.225028501e-09
-1.437854629e-11
1.226037536e-09
-1.370993616e-11
1.226125451e-09
-1.296376611e-11
1.225347001e-09
-1.214447564e-11
1.223754961e-09
-1.125711686e-11
1.221399248e-09
-1.030708939e-11
1.218327916e-09
-9.300299797e-12
1.214586272e-09
-8.242948005e-12
1.210217899e-09
-7.141588356e-12
1.205263754e-09
-6.003013872e-12
1.199763208e-09
-4.834181602e-12
1.193752995e-09
-3.642269534e-12
1.187268452e-09
-2.434412705e-12
1.180342511e-09
-1.217963093e-12
1.173006813e-09
1.165290568e-09
-7.254288626e-14
4.594687954e-11
-2.841920977e-13
1.344450612e-10
-6.26071194e-13
2.180086112e-10
-1.088589077e-12
2.968386194e-10
-1.661765181e-12
3.711307331e-10
-2.335279328e-12
4.410736992e-10
-3.098447403e-12
5.068492615e-10
-3.940279296e-12
5.686325945e-10
-4.84947558e-12
6.265925533e-10
-5.814407469e-12
6.808917645e-10
-6.82329253e-12
7.316870485e-10
-7.864297003e-12
7.791297683e-10
-8.925352634e-12
8.233657305e-10
-9.994522829e-12
8.6453566e-10
-1.106006573e-11
9.02775603e-10
-1.211026245e-11
9.382165569e-10
-1.313395038e-11
9.709852643e-10
-1.412020012e-11
1.001204024e-09
-1.505867729e-11
1.028990742e-09
-1.593967127e-11
1.054459581e-09
-1.675400775e-11
1.077720228e-09
-1.749347561e-11
1.098879071e-09
-1.815036078e-11
1.118038117e-09
-1.871810884e-11
1.135296249e-09
-1.919067627e-11
1.150748193e-09
-1.956326782e-11
1.164485668e-09
-1.98316078e-11
1.176596485e-09
-1.999269469e-11
1.187165507e-09
-2.004405128e-11
1.19627397e-09
-1.998444745e-11
1.204000236e-09
-1.981314566e-11
1.210419264e-09
-1.953062265e-11
1.215603266e-09
-1.913781813e-11
1.219621248e-09
-1.86368306e-11
1.222539643e-09
-1.803017022e-11
1.22442184e-09
-1.732144416e-11
1.22532881e-09
-1.651461061e-11
1.225318617e-09
-1.561466016e-11
1.22444705e-09
-1.462686222e-11
1.222767163e-09
-1.355741051e-11
1.220329796e-09
-1.241269976e-11
1.217183205e-09
-1.119994245e-11
1.213373515e-09
-9.926446147e-12
1.208944402e-09
-8.600203501e-12
1.203937511e-09
-7.229174495e-12
1.198392179e-09
-5.821837466e-12
1.192345658e-09
-4.386603538e-12
1.185833218e-09
-2.932149288e-12
1.178888056e-09
-1.467081404e-12
1.171541745e-09
1.163823486e-09
-8.717715273e-14
4.603405669e-11
-3.415326045e-13
1.346994166e-10
-7.524007852e-13
2.184194794e-10
-1.308259727e-12
2.973944783e-10
-1.99713891e-12
3.718196123e-10
-2.806656659e-12
4.418832169e-10
-3.724014153e-12
5.07766619e-10
-4.736021711e-12
5.69644602e-10
-5.829065149e-12
6.276855968e-10
-6.989238159e-12
6.820519375e-10
-8.20245486e-12
7.329002652e-10
-9.454391154e-12
7.803817046e-10
-1.073059537e-11
8.246419347e-10
-1.201679667e-11
8.658218613e-10
-1.329872239e-11
9.040575287e-10
-1.456238148e-11
9.39480216e-10
-1.579429621e-11
9.722171791e-10
-1.698123743e-11
1.002390966e-09
-1.811086177e-11
1.030120367e-09
-1.917127195e-11
1.055519991e-09
-2.015158501e-11
1.078700541e-09
-2.104167215e-11
1.099769158e-09
-2.183240919e-11
1.118828854e-09
-2.251567775e-11
1.135979518e-09
-2.308435751e-11
1.151316873e-09
-2.353248903e-11
1.164933799e-09
-2.385507551e-11
1.176919072e-09
-2.404836329e-11
1.187358795e-09
-2.410952331e-11
1.19633513e-09
-2.403696515e-11
1.203927678e-09
-2.382997166e-11
1.210212271e-09
-2.348903328e-11
1.215262327e-09
-2.301546224e-11
1.219147677e-09
-2.24117114e-11
1.221935892e-09
-2.168098606e-11
1.223691115e-09
-2.082755566e-11
1.224475379e-09
-1.985635877e-11
1.22434742e-09
-1.877332317e-11
1.223364015e-09
-1.758492901e-11
1.221578769e-09
-1.629854616e-11
1.219043414e-09
-1.492196074e-11
1.21580662e-09
-1.346376096e-11
1.211915315e-09
-1.193276466e-11
1.207413406e-09
-1.033849996e-11
1.202343247e-09
-8.690512468e-12
1.196744191e-09
-6.998929364e-12
1.190654075e-09
-5.273755407e-12
1.184108045e-09
-3.525400451e-12
1.177139701e-09
-1.764023497e-12
1.169780368e-09
1.162059463e-09
-1.043781315e-13
4.613843482e-11
-4.089329685e-13
1.350039715e-10
-9.009071827e-13
2.189114536e-10
-1.566531567e-12
2.980601027e-10
-2.391514288e-12
3.72644595e-10
-3.361087595e-12
4.428527902e-10
-4.459982592e-12
5.08865514e-10
-5.672414425e-12
5.708570338e-10
-6.982162033e-12
6.289953444e-10
-8.372667977e-12
6.834424435e-10
-9.827098848e-12
7.343546961e-10
-1.132827549e-11
7.818828812e-10
-1.285902023e-11
8.261726794e-10
-1.440221469e-11
8.673650558e-10
-1.594071832e-11
9.055960324e-10
-1.745788612e-11
9.409973838e-10
-1.893736638e-11
9.736966593e-10
-2.036339657e-11
1.003816996e-09
-2.172103636e-11
1.031478007e-09
-2.299595782e-11
1.056794913e-09
-2.417508475e-11
1.079879668e-09
-2.524605178e-11
1.100840125e-09
-2.619796115e-11
1.119780763e-09
-2.702079603e-11
1.136802353e-09
-2.770610634e-11
1.152002183e-09
-2.824645192e-11
1.165474145e-09
-2.86359664e-11
1.177308586e-09
-2.886988008e-11
1.187592709e-09
-2.894495785e-11
1.196410208e-09
-2.885905937e-11
1.203841779e-09
-2.861152554e-11
1.209964737e-09
-2.820275621e-11
1.214853558e-09
-2.763455784e-11
1.218579479e-09
-2.690971704e-11
1.221211052e-09
-2.603233476e-11
1.222813733e-09
-2.500739639e-11
1.223450441e-09
-2.384109427e-11
1.223181118e-09
-2.25404046e-11
1.222063325e-09
-2.111335161e-11
1.220151716e-09
-1.956863349e-11
1.217498695e-09
-1.7915819e-11
1.214153805e-09
-1.616503724e-11
1.210164533e-09
-1.432706214e-11
1.205575431e-09
-1.241310812e-11
1.200429293e-09
-1.043477111e-11
1.194765854e-09
-8.404004944e-12
1.188623309e-09
-6.332861836e-12
1.182036901e-09
-4.233674643e-12
1.175040514e-09
-2.118602678e-12
1.167665296e-09
1.15994086e-09
-1.245189625e-13
4.626295378e-11
-4.878592241e-13
1.353673117e-10
-1.074826472e-12
2.194984209e-10
-1.869043225e-12
2.988543194e-10
-2.853536026e-12
3.736290878e-10
-4.010771188e-12
4.440100254e-10
-5.322593914e-12
5.101773367e-10
-6.770276932e-12
5.723047169e-10
-8.334593769e-12
6.305596612e-10
-9.995930106e-12
6.851037798e-10
-1.173419671e-11
7.360929627e-10
-1.352904397e-11
7.836777285e-10
-1.536010215e-11
8.280037376e-10
-1.720686023e-11
8.692118138e-10
-1.90489829e-11
9.07438155e-10
-2.086659703e-11
9.428149979e-10
-2.264005864e-11
9.754701209e-10
-2.435062506e-11
1.005527562e-09
-2.598017763e-11
1.033107559e-09
-2.751165728e-11
1.058326393e-09
-2.892911375e-11
1.081297125e-09
-3.021772977e-11
1.102128741e-09
-3.136419166e-11
1.120927225e-09
-3.235638486e-11
1.137794546e-09
-3.318398013e-11
1.152829778e-09
-3.383786747e-11
1.166128032e-09
-3.431088462e-11
1.177781603e-09
-3.459710487e-11
1.187878929e-09
-3.469257212e-11
1.196505675e-09
-3.459454441e-11
1.203743752e-09
-3.430221689e-11
1.209672409e-09
-3.381594691e-11
1.214367288e-09
-3.313794337e-11
1.217901475e-09
-3.227147951e-11
1.220344588e-09
-3.12215666e-11
1.22176382e-09
-2.999415566e-11
1.22222303e-09
-2.859680497e-11
1.221783768e-09
-2.703786492e-11
1.220504385e-09
-2.532710685e-11
1.218440958e-09
-2.347493293e-11
1.215646522e-09
-2.149297493e-11
1.212171847e-09
-1.939330124e-11
1.208064859e-09
-1.718898961e-11
1.203371119e-09
-1.489333152e-11
1.198133635e-09
-1.25203829e-11
1.192392905e-09
-1.008428182e-11
1.186187207e-09
-7.599597933e-12
1.179552218e-09
-5.080889095e-12
1.172521805e-09
-2.54283025e-12
1.165127237e-09
1.15739803e-09
-1.480021381e-13
4.641095592e-11
-5.79891676e-13
1.357992013e-10
-1.277648162e-12
2.201961774e-10
-2.221888513e-12
2.997985598e-10
-3.392540913e-12
3.747997402e-10
-4.768873007e-12
4.453863575e-10
-6.329444261e-12
5.117379079e-10
-8.052170491e-12
5.740274431e-10
-9.914403841e-12
6.324218946e-10
-1.189293084e-11
6.870823068e-10
-1.396403081e-11
7.381640627e-10
-1.610373955e-11
7.858174372e-10
-1.828791273e-11
8.301879108e-10
-2.049223497e-11
8.714161361e-10
-2.269271095e-11
9.09638631e-10
-2.486556477e-11
9.449878518e-10
-2.698751388e-11
9.7759207e-10
-2.903616413e-11
1.007576212e-09
-3.098976463e-11
1.03506116e-09
-3.282795357e-11
1.060164582e-09
-3.453133754e-11
1.083000509e-09
-3.608218701e-11
1.10367959e-09
-3.746413655e-11
1.122309175e-09
-3.866262775e-11
1.138993037e-09
-3.966477896e-11
1.15383193e-09
-4.045959779e-11
1.166922851e-09
-4.103797789e-11
1.178359983e-09
-4.139272928e-11
1.18823368e-09
-4.151862484e-11
1.19663157e-09
-4.141232654e-11
1.203637453e-09
-4.107246063e-11
1.209332543e-09
-4.049946912e-11
1.213794296e-09
-3.969567985e-11
1.217097686e-09
-3.86651117e-11
1.21931402e-09
-3.741354412e-11
1.220512252e-09
-3.594828183e-11
1.220757768e-09
-3.427823961e-11
1.220113725e-09
-3.241363383e-11
1.218639779e-09
-3.036609796e-11
1.216393422e-09
-2.814831196e-11
1.213428736e-09
-2.577417699e-11
1.209797712e-09
-2.325832981e-11
1.205549012e-09
-2.061642198e-11
1.200729211e-09
-1.786448588e-11
1.195381698e-09
-1.501938795e-11
1.189547807e-09
-1.209806527e-11
1.183265885e-09
-9.118030319e-12
1.176572183e-09
-6.096621393e-12
1.169500396e-09
-3.051520028e-12
1.162082136e-09
1.15434651e-09
-1.752549484e-13
4.658621087e-11
-6.867082355e-13
1.363106546e-10
-1.513082996e-12
2.210225521e-10
-2.631531458e-12
3.009170083e-10
-4.018427886e-12
3.761866366e-10
-5.649397738e-12
4.470173273e-10
-7.499272967e-12
5.135877832e-10
-9.542153507e-12
5.760703236e-10
-1.175146396e-11
6.34631205e-10
-1.409991121e-11
6.894307541e-10
-1.655971602e-11
7.406238675e-10
-1.910278205e-11
7.883605033e-10
-2.170061283e-11
8.327857416e-10
-2.432467213e-11
8.740401954e-10
-2.694667584e-11
9.122606347e-10
-2.953841935e-11
9.475795953e-10
-3.207247088e-11
9.801261216e-10
-3.452203582e-11
1.010025777e-09
-3.686131992e-11
1.037400444e-09
-3.906584151e-11
1.062369103e-09
-4.11123174e-11
1.085046985e-09
-4.29793498e-11
1.105546623e-09
-4.464697881e-11
1.123976804e-09
-4.609752492e-11
1.140443583e-09
-4.731498852e-11
1.155049393e-09
-4.828590681e-11
1.167893769e-09
-4.89986905e-11
1.179072767e-09
-4.944440802e-11
1.188679398e-09
-4.961610387e-11
1.196803266e-09
-4.950950207e-11
1.203530851e-09
-4.912232891e-11
1.20894537e-09
-4.845492995e-11
1.213126897e-09
-4.750957819e-11
1.216152334e-09
-4.629103641e-11
1.218095478e-09
-4.480584867e-11
1.219027064e-09
-4.306285879e-11
1.219014778e-09
-4.107249545e-11
1.218123362e-09
-3.884720207e-11
1.216414486e-09
-3.640076997e-11
1.21394699e-09
-3.374867782e-11
1.210776643e-09
-3.090748687e-11
1.206956521e-09
-2.789505759e-11
1.202536583e-09
-2.473005269e-11
1.197564207e-09
-2.143201041e-11
1.192083656e-09
-1.802104858e-11
1.186136846e-09
-1.451772511e-11
1.179762561e-09
-1.094296237e-11
1.17299742e-09
-7.317704857e-12
1.165875139e-09
-3.663134576e-12
1.158427566e-09
1.150683375e-09
-2.067217652e-13
4.679293264e-11
-8.100520831e-13
1.369139849e-10
-1.784973228e-12
2.219974733e-10
-3.10467435e-12
3.022367094e-10
-4.741492436e-12
3.778234547e-10
-6.666928494e-12
4.489427634e-10
-8.851591843e-12
5.157724465e-10
-1.126527652e-11
5.784840083e-10
-1.387692165e-11
6.372428502e-10
-1.665474257e-11
6.92208575e-10
-1.956640128e-11
7.435355262e-10
-2.257904105e-11
7.91373143e-10
-2.565938042e-11
8.358660809e-10
-2.877414913e-11
8.771549641e-10
-3.18900508e-11
9.153765364e-10
-3.497404139e-11
9.506635859e-10
-3.79938226e-11
9.831459028e-10
-4.091760447e-11
1.012949559e-09
-4.371491968e-11
1.040197759e-09
-4.635638119e-11
1.065010565e-09
-4.881427327e-11
1.087504877e-09
-5.10625772e-11
1.107794927e-09
-5.307724826e-11
1.125991475e-09
-5.483647308e-11
1.142202808e-09
-5.632066274e-11
1.156533583e-09
-5.751287813e-11
1.169085985e-09
-5.83986072e-11
1.179958496e-09
-5.896624734e-11
1.189247038e-09
-5.920674298e-11
1.197043762e-09
-5.911408965e-11
1.203438198e-09
-5.868486838e-11
1.208516149e-09
-5.791872184e-11
1.212360751e-09
-5.681780726e-11
1.21505142e-09
-5.538724721e-11
1.216664918e-09
-5.363450589e-11
1.217274323e-09
-5.156983067e-11
1.216950103e-09
-4.92055299e-11
1.215759061e-09
-4.655640214e-11
1.213765358e-09
-4.363894249e-11
1.21102953e-09
-4.047180236e-11
1.207609503e-09
-3.707488141e-11
1.2035596e-09
-3.346984955e-11
1.198931551e-09
-2.967914627e-11
1.193773503e-09
-2.572655449e-11
1.188131064e-09
-2.163623966e-11
1.182046531e-09
-1.743324096e-11
1.175559563e-09
-1.314267057e-11
1.168706849e-09
-8.79004004e-12
1.161522508e-09
-4.400737504e-12
1.154038263e-09
1.146282638e-09
-2.428510183e-13
4.703578365e-11
-9.516854172e-13
1.376228193e-10
-2.097210218e-12
2.231429981e-10
-3.64812247e-12
3.037876216e-10
-5.572189752e-12
3.79747522e-10
-7.836258897e-12
4.512068325e-10
-1.040621159e-11
5.183423992e-10
-1.324695384e-11
5.813247506e-10
-1.632248535e-11
6.403183817e-10
-1.959601816e-11
6.954821078e-10
-2.303011516e-11
7.469696232e-10
-2.658660607e-11
7.94929634e-10
-3.022697153e-11
8.395064464e-10
-3.391257853e-11
8.808405711e-10
-3.760457561e-11
9.190685335e-10
-4.12645685e-11
9.543235788e-10
-4.485457896e-11
9.867359132e-10
-4.833737371e-11
1.016432354e-09
-5.167695394e-11
1.043537339e-09
-5.48384044e-11
1.068172015e-09
-5.778874038e-11
1.090455213e-09
-6.049652032e-11
1.110502707e-09
-6.293278451e-11
1.128427739e-09
-6.507064628e-11
1.14434067e-09
-6.688610063e-11
1.158349037e-09
-6.8357712e-11
1.170557596e-09
-6.946724532e-11
1.18106803e-09
-7.019939167e-11
1.189979184e-09
-7.054228449e-11
1.197386655e-09
-7.048722483e-11
1.203383138e-09
-7.002908909e-11
1.208058013e-09
-6.916601029e-11
1.211497672e-09
-6.789969871e-11
1.213785108e-09