/*--------------------------------*- C++ -*----------------------------------*\
  =========                 |
  \\      /  F ield         | OpenFOAM: The Open Source CFD Toolbox
   \\    /   O peration     | Website:  https://openfoam.org
    \\  /    A nd           | Version:  7
     \\/     M anipulation  |
\*---------------------------------------------------------------------------*/
FoamFile
{
    version     2.0;
    format      ascii;
    class       volVectorField;
    location    "0.003";
    object      U;
}
// * * * * * * * * * * * * * * * * * * * * * * * * * * * * * * * * * * * * * //

dimensions      [0 1 -1 0 0 0 0];

internalField   nonuniform List<vector> 
1167
(
(-7.459762298e-08 3.384499777e-20 -0.002164389241)
(-1.938745585e-07 1.754907383e-20 -0.002164391928)
(-3.058216751e-07 -1.075459854e-19 -0.002164403913)
(-4.211209183e-07 -6.501371039e-20 -0.002164420852)
(-5.344449123e-07 1.264280573e-19 -0.002164442091)
(-6.449236974e-07 7.453655835e-20 -0.002164466971)
(-7.523285441e-07 1.776165062e-19 -0.002164494794)
(-8.563289336e-07 2.103256301e-19 -0.002164524854)
(-9.566177559e-07 2.116244445e-19 -0.002164556407)
(-1.052925518e-06 3.245241853e-19 -0.002164588675)
(-1.144852887e-06 3.347534738e-19 -0.002164620989)
(-1.23198052e-06 3.663229799e-19 -0.00216465275)
(-1.314021836e-06 4.092167784e-19 -0.0021646833)
(-1.390570247e-06 3.775563564e-19 -0.002164712113)
(-1.461217707e-06 3.565602631e-19 -0.002164738747)
(-1.525659533e-06 3.2061602e-19 -0.002164762731)
(-1.583520265e-06 3.831683919e-19 -0.002164783778)
(-1.634532311e-06 3.714382434e-19 -0.002164801587)
(-1.678412187e-06 3.637347032e-19 -0.002164815965)
(-1.010360004e-07 9.199325105e-20 -0.002165095274)
(-2.62539385e-07 2.022039079e-19 -0.002165096869)
(-4.140252436e-07 3.55171515e-19 -0.002165107879)
(-5.698899834e-07 2.009388415e-19 -0.002165123079)
(-7.228189662e-07 5.465687423e-20 -0.002165141869)
(-8.715320462e-07 1.94941632e-19 -0.002165163613)
(-1.015699169e-06 2.828854308e-19 -0.002165187541)
(-1.154949185e-06 2.349487016e-19 -0.002165212819)
(-1.288904429e-06 2.532125649e-19 -0.002165238578)
(-1.41709549e-06 2.189391111e-19 -0.002165264027)
(-1.538983889e-06 2.546763081e-19 -0.002165288469)
(-1.654167081e-06 3.249930154e-19 -0.002165311164)
(-1.762206367e-06 3.490145262e-19 -0.002165331436)
(-1.862559775e-06 3.367525116e-19 -0.002165348777)
(-1.954840153e-06 3.537576276e-19 -0.002165362649)
(-2.038612568e-06 3.859358201e-19 -0.002165372634)
(-2.113462034e-06 3.485039067e-19 -0.002165378425)
(-2.179075919e-06 3.315617508e-19 -0.002165379722)
(-2.235123033e-06 3.053989527e-19 -0.002165376412)
(-2.28137256e-06 3.136723303e-19 -0.002165368364)
(-2.317605399e-06 3.522183168e-19 -0.002165355615)
(-2.343691357e-06 3.763254284e-19 -0.002165338213)
(-2.359531567e-06 3.943093049e-19 -0.002165316331)
(-2.36510466e-06 3.980211968e-19 -0.002165290175)
(-2.36044085e-06 4.011205442e-19 -0.002165260038)
(-2.345645277e-06 4.042059788e-19 -0.002165226251)
(-2.320881108e-06 4.133696971e-19 -0.002165189211)
(-2.286366871e-06 4.168387524e-19 -0.002165149342)
(-2.242381557e-06 4.255728357e-19 -0.00216510712)
(-2.189259213e-06 4.373317461e-19 -0.002165063025)
(-2.127389391e-06 4.51478878e-19 -0.002165017581)
(-2.057205687e-06 4.688357013e-19 -0.002164971289)
(-1.979200037e-06 4.730230994e-19 -0.002164924684)
(-1.893895572e-06 4.737709902e-19 -0.002164878257)
(-1.801858151e-06 4.767629298e-19 -0.002164832519)
(-1.703678687e-06 4.806614336e-19 -0.002164787917)
(-1.599988088e-06 4.841603432e-19 -0.002164744906)
(-1.491433485e-06 4.999754057e-19 -0.00216470386)
(-1.378685653e-06 5.110145063e-19 -0.002164665149)
(-1.262421954e-06 5.202230001e-19 -0.002164629055)
(-1.143332452e-06 5.106082329e-19 -0.002164595841)
(-1.0221103e-06 5.05729267e-19 -0.002164565675)
(-8.994472121e-07 5.043176616e-19 -0.002164538698)
(-7.760264208e-07 5.059819162e-19 -0.002164514953)
(-6.525196749e-07 5.08491864e-19 -0.002164494448)
(-5.295858025e-07 5.140111421e-19 -0.002164477095)
(-4.07847675e-07 5.114151746e-19 -0.002164462764)
(-2.879202684e-07 5.076362547e-19 -0.002164451233)
(-1.705295305e-07 5.115739749e-19 -0.002164442243)
(-5.661920347e-08 5.13212547e-19 -0.00216443542)
(-1.335813534e-07 1.091647795e-19 -0.002165903182)
(-3.470429344e-07 2.545756121e-19 -0.002165903345)
(-5.471530191e-07 4.795892979e-19 -0.002165912933)
(-7.528785163e-07 5.538426488e-19 -0.002165925703)
(-9.544193605e-07 2.338073002e-19 -0.002165941135)
(-1.150061333e-06 3.04663392e-19 -0.00216595857)
(-1.339420234e-06 2.453423095e-19 -0.002165977102)
(-1.522023119e-06 1.398491775e-19 -0.002165995773)
(-1.697275745e-06 7.918687844e-20 -0.002166013675)
(-1.864511565e-06 3.244152389e-20 -0.002166029996)
(-2.023168132e-06 8.888613918e-20 -0.002166043906)
(-2.172724946e-06 1.15558889e-19 -0.002166054576)
(-2.31253122e-06 1.527465737e-19 -0.002166061371)
(-2.442023237e-06 2.240619988e-19 -0.002166063694)
(-2.560705145e-06 3.100393912e-19 -0.00216606098)
(-2.668021008e-06 3.561164922e-19 -0.002166052873)
(-2.763563147e-06 2.908129416e-19 -0.002166039012)
(-2.846912215e-06 3.164243156e-19 -0.002166019191)
(-2.917724993e-06 3.46332109e-19 -0.002165993302)
(-2.975733638e-06 3.642352052e-19 -0.002165961301)
(-3.020714137e-06 3.755149872e-19 -0.002165923301)
(-3.052538981e-06 3.966983007e-19 -0.00216587943)
(-3.071128985e-06 4.364842267e-19 -0.002165829986)
(-3.076495898e-06 3.970899808e-19 -0.002165775261)
(-3.068719634e-06 3.72932846e-19 -0.002165715707)
(-3.047964049e-06 3.513073035e-19 -0.002165651755)
(-3.014461855e-06 3.700520386e-19 -0.002165583978)
(-2.968512438e-06 3.922960924e-19 -0.002165512924)
(-2.910490628e-06 4.056967926e-19 -0.002165439249)
(-2.840830186e-06 4.200800149e-19 -0.002165363573)
(-2.760033691e-06 4.368269092e-19 -0.002165286603)
(-2.668656966e-06 4.582495776e-19 -0.002165208995)
(-2.567321001e-06 4.701740595e-19 -0.002165131459)
(-2.456682725e-06 4.711115689e-19 -0.002165054649)
(-2.337451377e-06 4.766903493e-19 -0.002164979246)
(-2.210369129e-06 4.855163687e-19 -0.00216490586)
(-2.076223122e-06 4.973656669e-19 -0.002164835102)
(-1.935821501e-06 5.126238514e-19 -0.002164767509)
(-1.790000638e-06 5.175315403e-19 -0.00216470359)
(-1.639608272e-06 4.995902637e-19 -0.002164643777)
(-1.485510245e-06 4.85403976e-19 -0.002164588457)
(-1.328578626e-06 4.99570532e-19 -0.002164537931)
(-1.169682956e-06 5.079666628e-19 -0.002164492444)
(-1.009688604e-06 5.255864447e-19 -0.002164452151)
(-8.494503669e-07 5.451746136e-19 -0.002164417142)
(-6.898092912e-07 5.514180132e-19 -0.002164387407)
(-5.315610067e-07 5.434482946e-19 -0.002164362871)
(-3.754933688e-07 5.431609307e-19 -0.002164343362)
(-2.22558644e-07 5.462956135e-19 -0.002164328647)
(-7.399737465e-08 5.477074562e-19 -0.002164318356)
(-1.735176937e-07 4.986620628e-20 -0.002166835306)
(-4.507126828e-07 6.233702452e-20 -0.002166833671)
(-7.104270369e-07 -1.93623789e-20 -0.002166841352)
(-9.772610129e-07 1.841020088e-19 -0.00216685087)
(-1.23839909e-06 2.77989638e-19 -0.002166861789)
(-1.491617511e-06 1.238676704e-19 -0.002166873377)
(-1.736437635e-06 -4.733949979e-20 -0.002166884619)
(-1.972154747e-06 -2.821981998e-20 -0.002166894492)
(-2.197921027e-06 -8.142774713e-20 -0.002166902061)
(-2.41297445e-06 -3.939728613e-20 -0.002166906389)
(-2.616664419e-06 -2.845487375e-20 -0.002166906507)
(-2.808213581e-06 -5.995350985e-20 -0.002166901601)
(-2.986839518e-06 -3.286883127e-20 -0.00216689099)
(-3.151932759e-06 7.203363424e-20 -0.002166873983)
(-3.302807582e-06 1.42618831e-19 -0.002166850081)
(-3.438856576e-06 2.039328253e-19 -0.002166818895)
(-3.55958258e-06 2.419224641e-19 -0.002166780089)
(-3.664485802e-06 2.913008278e-19 -0.00216673355)
(-3.753212307e-06 3.633627788e-19 -0.00216667918)
(-3.825430978e-06 4.052312917e-19 -0.002166617081)
(-3.880946385e-06 3.679866183e-19 -0.002166547408)
(-3.91961735e-06 3.523494844e-19 -0.002166470456)
(-3.941405923e-06 3.449651196e-19 -0.00216638661)
(-3.946358429e-06 3.434881885e-19 -0.002166296342)
(-3.934623146e-06 3.417217219e-19 -0.00216620022)
(-3.906434392e-06 3.423975781e-19 -0.002166098871)
(-3.862113602e-06 3.512122536e-19 -0.00216599301)
(-3.802062049e-06 3.695496476e-19 -0.00216588339)
(-3.726770446e-06 3.819363721e-19 -0.002165770827)
(-3.636799123e-06 3.921667537e-19 -0.002165656158)
(-3.532785593e-06 4.005426202e-19 -0.002165540256)
(-3.415438185e-06 4.062351203e-19 -0.002165424001)
(-3.285530175e-06 4.28309128e-19 -0.002165308275)
(-3.143886782e-06 4.447025228e-19 -0.002165193958)
(-2.991387611e-06 4.591366331e-19 -0.002165081903)
(-2.828961499e-06 4.732194921e-19 -0.002164972941)
(-2.657581908e-06 4.87849647e-19 -0.002164867851)
(-2.478258047e-06 4.863174444e-19 -0.002164767382)
(-2.292024192e-06 4.960629683e-19 -0.002164672206)
(-2.099939508e-06 5.023112046e-19 -0.002164582951)
(-1.903081902e-06 5.219290585e-19 -0.002164500152)
(-1.702541102e-06 5.23099787e-19 -0.002164424288)
(-1.499406946e-06 5.279740639e-19 -0.002164355733)
(-1.294764155e-06 5.279345262e-19 -0.002164294792)
(-1.089694352e-06 5.299520651e-19 -0.002164241655)
(-8.852566906e-07 5.202273351e-19 -0.002164196432)
(-6.824611858e-07 5.134635315e-19 -0.002164159115)
(-4.823019214e-07 5.161190464e-19 -0.00216412961)
(-2.860112879e-07 5.07703747e-19 -0.002164107719)
(-9.517577254e-08 5.035313972e-19 -0.002164093102)
(-2.223845549e-07 3.163891669e-20 -0.002167918428)
(-5.77544932e-07 1.895908332e-20 -0.002167914531)
(-9.101769109e-07 -3.502870801e-20 -0.002167919675)
(-1.251800881e-06 -1.13652604e-19 -0.002167924863)
(-1.585903004e-06 2.050301258e-20 -0.002167929759)
(-1.909622646e-06 -1.807633514e-20 -0.002167933604)
(-2.222276675e-06 -1.335064975e-19 -0.002167935307)
(-2.522877212e-06 -7.745177578e-20 -0.002167933797)
(-2.810396453e-06 -6.743042181e-20 -0.00216792801)
(-3.083966604e-06 -5.943369682e-20 -0.002167916833)
(-3.342660635e-06 -6.474456474e-20 -0.002167899259)
(-3.58545838e-06 -7.237419465e-20 -0.00216787447)
(-3.811524402e-06 -8.986234948e-20 -0.002167841655)
(-4.020039832e-06 -1.841333263e-20 -0.002167800127)
(-4.210154791e-06 1.654818426e-20 -0.002167749429)
(-4.381218225e-06 1.188250218e-19 -0.002167689126)
(-4.53257536e-06 1.602878311e-19 -0.002167618998)
(-4.66368942e-06 2.028390892e-19 -0.002167538956)
(-4.774137133e-06 2.406134634e-19 -0.002167449011)
(-4.863565395e-06 2.642900469e-19 -0.002167349383)
(-4.931769388e-06 2.993294564e-19 -0.002167240324)
(-4.978615249e-06 2.810424273e-19 -0.002167122317)
(-5.004110528e-06 2.608047603e-19 -0.002166995861)
(-5.008355091e-06 2.866525283e-19 -0.002166861648)
(-4.991580518e-06 3.040564442e-19 -0.002166720384)
(-4.954113039e-06 3.1844855e-19 -0.002166572939)
(-4.89638656e-06 3.330166678e-19 -0.002166420187)
(-4.818932975e-06 3.485130882e-19 -0.002166263136)
(-4.72238291e-06 3.61583304e-19 -0.00216610278)
(-4.607456675e-06 3.697147654e-19 -0.002165940219)
(-4.474959728e-06 3.731781562e-19 -0.00216577652)
(-4.32578609e-06 3.68782465e-19 -0.002165612824)
(-4.160895999e-06 4.075034584e-19 -0.002165450224)
(-3.981321675e-06 4.246938747e-19 -0.00216528986)
(-3.788153363e-06 4.409715636e-19 -0.002165132797)
(-3.582547079e-06 4.577554914e-19 -0.002164980121)
(-3.36570403e-06 4.768776575e-19 -0.002164832828)
(-3.13887354e-06 4.848492334e-19 -0.002164691911)
(-2.903336579e-06 4.972943578e-19 -0.002164558256)
(-2.660408417e-06 5.160567428e-19 -0.00216443272)
(-2.411427783e-06 5.303927051e-19 -0.002164316038)
(-2.157747082e-06 5.240292297e-19 -0.002164208897)
(-1.900724086e-06 5.242013332e-19 -0.002164111849)
(-1.641713514e-06 5.151192102e-19 -0.002164025375)
(-1.382067453e-06 5.071538004e-19 -0.002163949812)
(-1.123106795e-06 4.970916153e-19 -0.002163885408)
(-8.660982913e-07 4.955718551e-19 -0.002163832257)
(-6.122816167e-07 4.853141425e-19 -0.00216379036)
(-3.632251061e-07 4.685723256e-19 -0.002163759575)
(-1.209250158e-07 4.649653575e-19 -0.002163739605)
(-2.820616565e-07 3.068870671e-20 -0.002169184248)
(-7.32404839e-07 2.261937697e-20 -0.002169177491)
(-1.15406512e-06 -4.653189409e-21 -0.002169179267)
(-1.58706893e-06 -2.617238599e-20 -0.002169178773)
(-2.01031204e-06 -1.225856408e-20 -0.002169175834)
(-2.420087802e-06 -3.002897952e-20 -0.002169169716)
(-2.815481988e-06 -6.094661046e-20 -0.002169159248)
(-3.195268853e-06 -5.758218964e-20 -0.002169143216)
(-3.558250724e-06 -5.275938335e-20 -0.002169120362)
(-3.90325409e-06 -5.45221542e-20 -0.002169089469)
(-4.229007276e-06 -9.583633878e-20 -0.002169049535)
(-4.534360923e-06 -6.266034842e-20 -0.002168999617)
(-4.818291015e-06 -6.072369789e-20 -0.002168938824)
(-5.079704346e-06 -3.703849427e-20 -0.002168866535)
(-5.317663488e-06 -1.937838497e-20 -0.002168782247)
(-5.531345318e-06 -1.246287683e-20 -0.002168685571)
(-5.719956003e-06 6.8970698e-20 -0.002168576397)
(-5.882911703e-06 1.205118699e-19 -0.002168454669)
(-6.019680475e-06 1.474597503e-19 -0.002168320583)
(-6.129922256e-06 1.472405964e-19 -0.002168174444)
(-6.213396476e-06 1.873892841e-19 -0.002168016718)
(-6.270001112e-06 2.121412616e-19 -0.002167848032)
(-6.299784013e-06 2.312330799e-19 -0.002167669105)
(-6.302928071e-06 2.527223637e-19 -0.002167480824)
(-6.279759282e-06 2.7389829e-19 -0.002167284128)
(-6.230726819e-06 2.943792794e-19 -0.002167080117)
(-6.1564031e-06 3.148083697e-19 -0.002166869916)
(-6.057486921e-06 3.366007033e-19 -0.002166654779)
(-5.934782986e-06 3.622241867e-19 -0.002166435964)
(-5.789210553e-06 3.649102328e-19 -0.002166214834)
(-5.621786074e-06 3.723008995e-19 -0.002165992731)
(-5.433630645e-06 3.82951651e-19 -0.002165771064)
(-5.225939032e-06 3.879326601e-19 -0.002165551214)
(-4.999995982e-06 4.036422575e-19 -0.002165334588)
(-4.757154075e-06 4.168400537e-19 -0.002165122546)
(-4.49884505e-06 4.2851243e-19 -0.002164916444)
(-4.226551778e-06 4.386077362e-19 -0.002164717572)
(-3.941815275e-06 4.589734214e-19 -0.002164527188)
(-3.646219027e-06 4.658237486e-19 -0.002164346465)
(-3.341388947e-06 4.770215661e-19 -0.002164176513)
(-3.028980203e-06 4.878581995e-19 -0.002164018341)
(-2.710664456e-06 4.902303513e-19 -0.002163872868)
(-2.388121681e-06 4.931804207e-19 -0.00216374089)
(-2.063034431e-06 4.956802268e-19 -0.00216362309)
(-1.737077105e-06 4.984161416e-19 -0.002163520005)
(-1.41188936e-06 5.018377057e-19 -0.002163432041)
(-1.08904194e-06 5.07744588e-19 -0.002163359438)
(-7.700729678e-07 5.035310471e-19 -0.002163302303)
(-4.569466082e-07 5.014443578e-19 -0.002163260584)
(-1.521534404e-07 4.979268487e-19 -0.002163234028)
(-3.548027755e-07 3.501590306e-20 -0.002170670152)
(-9.211376761e-07 3.368392824e-20 -0.00217065983)
(-1.451295061e-06 1.765443668e-20 -0.00217065726)
(-1.995671497e-06 5.299719181e-21 -0.00217064951)
(-2.527501481e-06 -1.247983643e-21 -0.002170636663)
(-3.042076917e-06 -1.691564771e-20 -0.002170617995)
(-3.538287381e-06 -3.591136978e-20 -0.002170592173)
(-4.014657426e-06 -4.103074867e-20 -0.002170557776)
(-4.469640821e-06 -2.45677304e-20 -0.002170513398)
(-4.901630252e-06 2.741943728e-20 -0.002170457801)
(-5.309088434e-06 5.412145239e-21 -0.002170389861)
(-5.690697189e-06 5.304463483e-21 -0.00217030849)
(-6.045086886e-06 -7.152099956e-20 -0.00217021282)
(-6.370926997e-06 -4.015194426e-20 -0.002170102228)
(-6.667137369e-06 -2.596853793e-20 -0.002169976174)
(-6.932648093e-06 -3.000874428e-20 -0.002169834409)
(-7.166571664e-06 4.274232872e-20 -0.002169676866)
(-7.36818897e-06 9.188045689e-20 -0.002169503632)
(-7.536894117e-06 1.172570667e-19 -0.002169315073)
(-7.672307964e-06 1.315959624e-19 -0.002169111631)
(-7.774165257e-06 1.437253316e-19 -0.002168894042)
(-7.842420126e-06 1.50361088e-19 -0.0021686631)
(-7.87716401e-06 1.914168874e-19 -0.002168419821)
(-7.878693847e-06 2.184097739e-19 -0.0021681653)
(-7.847445608e-06 2.447833728e-19 -0.002167900798)
(-7.784029762e-06 2.688593667e-19 -0.002167627655)
(-7.689192515e-06 2.90055588e-19 -0.00216734733)
(-7.563839233e-06 3.082529586e-19 -0.002167061341)
(-7.408996937e-06 3.225793421e-19 -0.002166771295)
(-7.225830577e-06 3.410970998e-19 -0.00216647883)
(-7.015622747e-06 3.581650718e-19 -0.002166185645)
(-6.779771139e-06 3.786129068e-19 -0.002165893442)
(-6.519769491e-06 3.650509261e-19 -0.002165603962)
(-6.237208459e-06 3.903442989e-19 -0.002165318915)
(-5.933769394e-06 3.972413389e-19 -0.002165040023)
(-5.61121569e-06 4.044320407e-19 -0.002164768951)
(-5.271381546e-06 3.930308874e-19 -0.002164507355)
(-4.91616475e-06 4.061140401e-19 -0.0021642568)
(-4.547516987e-06 4.065367873e-19 -0.002164018816)
(-4.167440297e-06 4.077085104e-19 -0.002163794813)
(-3.77797066e-06 4.35655925e-19 -0.002163586136)
(-3.381167173e-06 4.521297852e-19 -0.002163393985)
(-2.979096422e-06 4.633678449e-19 -0.002163219455)
(-2.573833323e-06 4.72794969e-19 -0.002163063471)
(-2.167437625e-06 4.839337757e-19 -0.002162926824)
(-1.76193753e-06 4.887636893e-19 -0.002162810107)
(-1.35926484e-06 5.021910322e-19 -0.00216271375)
(-9.613218512e-07 5.046668623e-19 -0.002162637987)
(-5.70535918e-07 5.059646066e-19 -0.002162582889)
(-1.899820544e-07 4.925180131e-19 -0.002162548259)
(-4.432811977e-07 3.757613992e-20 -0.002172420443)
(-1.150649363e-06 4.267929011e-20 -0.002172405753)
(-1.812706916e-06 3.526532335e-20 -0.002172397755)
(-2.492490192e-06 3.016584787e-20 -0.002172380968)
(-3.156327374e-06 2.584307401e-20 -0.002172355777)
(-3.798361448e-06 5.939075952e-21 -0.002172321433)
(-4.41727242e-06 -2.841944403e-20 -0.002172276386)
(-5.011185015e-06 -5.993316331e-20 -0.002172219031)
(-5.578025516e-06 -6.022375023e-20 -0.002172147891)
(-6.115800536e-06 -5.185694763e-20 -0.002172061613)
(-6.622743648e-06 -1.60620732e-20 -0.002171958874)
(-7.097134616e-06 -3.164166983e-20 -0.002171838508)
(-7.537215724e-06 -4.36163444e-20 -0.002171699687)
(-7.941478059e-06 -4.477921196e-21 -0.002171541716)
(-8.308531264e-06 1.155061588e-20 -0.002171364117)
(-8.637063492e-06 2.820313543e-20 -0.002171166761)
(-8.926059056e-06 6.470323786e-20 -0.002170949647)
(-9.174606482e-06 1.146050088e-19 -0.002170713094)
(-9.382054454e-06 1.11537989e-19 -0.002170457615)
(-9.547935953e-06 1.192312862e-19 -0.002170183926)
(-9.671989216e-06 1.31470422e-19 -0.002169892997)
(-9.754200552e-06 1.640385639e-19 -0.002169585905)
(-9.794748568e-06 1.924085459e-19 -0.00216926398)
(-9.794044646e-06 2.169673197e-19 -0.002168928616)
(-9.752683866e-06 2.332394674e-19 -0.002168581435)
(-9.671463983e-06 2.526779158e-19 -0.002168224093)
(-9.551361098e-06 2.699883602e-19 -0.002167858436)
(-9.393530178e-06 2.863673554e-19 -0.002167486314)
(-9.199284394e-06 3.008108251e-19 -0.002167109733)
(-8.970092942e-06 3.180470919e-19 -0.002166730679)
(-8.707570872e-06 3.339164564e-19 -0.002166351256)
(-8.413458365e-06 3.479027545e-19 -0.002165973531)
(-8.089618912e-06 3.588041404e-19 -0.002165599654)
(-7.738025331e-06 3.603851222e-19 -0.002165231712)
(-7.360761601e-06 3.733574393e-19 -0.00216487184)
(-6.960001298e-06 3.836407103e-19 -0.002164522092)
(-6.538006815e-06 3.988342757e-19 -0.002164184534)
(-6.097111043e-06 4.143056308e-19 -0.002163861126)
(-5.639716266e-06 4.247552374e-19 -0.002163553799)
(-5.16828009e-06 4.211768709e-19 -0.002163264349)
(-4.685299993e-06 4.393727709e-19 -0.002162994502)
(-4.193301079e-06 4.426426511e-19 -0.002162745815)
(-3.694819644e-06 4.422783113e-19 -0.002162519726)
(-3.19239949e-06 4.373987449e-19 -0.002162317471)
(-2.688564496e-06 4.25824595e-19 -0.002162140129)
(-2.185800029e-06 4.223048675e-19 -0.002161988537)
(-1.686467498e-06 4.197658264e-19 -0.002161863346)
(-1.192906335e-06 4.296891746e-19 -0.002161764956)
(-7.08093827e-07 4.405359294e-19 -0.002161693589)
(-2.357743041e-07 4.534573954e-19 -0.002161649123)
(-5.506374794e-07 3.910471321e-20 -0.002174487728)
(-1.429062957e-06 4.733440521e-20 -0.002174467733)
(-2.251093165e-06 4.611350562e-20 -0.002174453028)
(-3.095180876e-06 5.522987624e-20 -0.002174425067)
(-3.919221646e-06 8.096523657e-20 -0.002174384576)
(-4.716005637e-06 6.488571094e-20 -0.002174330776)
(-5.483912381e-06 -1.337161687e-20 -0.002174261903)
(-6.220477541e-06 -1.225094666e-19 -0.002174176217)
(-6.923094141e-06 -1.085505523e-19 -0.002174072102)
(-7.589411394e-06 -8.398156099e-20 -0.002173947972)
(-8.217238737e-06 8.285767277e-21 -0.002173802338)
(-8.804325982e-06 -1.46079508e-20 -0.002173634033)
(-9.348576419e-06 8.80354136e-20 -0.002173442154)
(-9.848162838e-06 9.017508723e-20 -0.002173225966)
(-1.030129704e-05 5.403823129e-20 -0.00217298514)
(-1.070646319e-05 4.781152144e-20 -0.002172719606)
(-1.1062385e-05 5.211576771e-20 -0.002172429536)
(-1.136796745e-05 5.750495236e-20 -0.002172115489)
(-1.162245563e-05 7.860927226e-20 -0.002171778179)
(-1.1825281e-05 9.594286136e-20 -0.002171418683)
(-1.197621463e-05 1.07433868e-19 -0.002171038229)
(-1.207525633e-05 1.851675589e-19 -0.002170638301)
(-1.212270298e-05 2.076828349e-19 -0.002170220559)
(-1.211909289e-05 2.500389361e-19 -0.00216978683)
(-1.206522709e-05 2.523155554e-19 -0.002169339115)
(-1.196212855e-05 2.521695912e-19 -0.00216887952)
(-1.181106418e-05 2.506936975e-19 -0.002168410295)
(-1.161349573e-05 2.662643993e-19 -0.002167933752)
(-1.137109493e-05 2.755668015e-19 -0.002167452318)
(-1.108570788e-05 2.955129231e-19 -0.002166968451)
(-1.075936231e-05 3.123026165e-19 -0.002166484687)
(-1.039422506e-05 3.265135868e-19 -0.002166003574)
(-9.992616724e-06 3.41060097e-19 -0.002165527701)
(-9.556984014e-06 3.314212504e-19 -0.002165059647)
(-9.08990526e-06 3.597566207e-19 -0.002164601995)
(-8.594060291e-06 3.894856124e-19 -0.002164157298)
(-8.072235093e-06 4.287641999e-19 -0.002163728077)
(-7.527295453e-06 4.472070788e-19 -0.002163316789)
(-6.962192053e-06 4.564366325e-19 -0.002162925817)
(-6.379934998e-06 4.641829887e-19 -0.002162557438)
(-5.78358224e-06 4.625027341e-19 -0.002162213812)
(-5.176219284e-06 4.520023754e-19 -0.00216189694)
(-4.560950661e-06 4.451188626e-19 -0.002161608653)
(-3.940878982e-06 4.393296285e-19 -0.002161350575)
(-3.319089107e-06 4.3283433e-19 -0.002161124116)
(-2.698608852e-06 4.324400369e-19 -0.002160930425)
(-2.082318201e-06 4.228499302e-19 -0.002160770398)
(-1.473073637e-06 4.228101187e-19 -0.002160644656)
(-8.745134721e-07 4.339052915e-19 -0.002160553592)
(-2.911464382e-07 4.465726559e-19 -0.002160497193)
(-6.805868024e-07 3.716409177e-20 -0.002176933961)
(-1.765993862e-06 4.487892808e-20 -0.002176907542)
(-2.781605525e-06 3.478256306e-20 -0.002176884577)
(-3.82461285e-06 5.216922118e-20 -0.002176842856)
(-4.842658671e-06 2.044056746e-19 -0.002176783531)
(-5.826878299e-06 2.555076494e-19 -0.002176705821)
(-6.775208249e-06 9.511515299e-20 -0.002176607772)
(-7.684547855e-06 4.832793332e-20 -0.002176487451)
(-8.551752011e-06 1.506102486e-19 -0.002176342971)
(-9.373975345e-06 1.06791218e-19 -0.002176172492)
(-1.014838517e-05 1.816275357e-19 -0.002175974425)
(-1.087218825e-05 8.807947092e-20 -0.002175747542)
(-1.154292669e-05 7.680859519e-20 -0.002175490813)
(-1.21582535e-05 3.945028909e-20 -0.002175203563)
(-1.271596859e-05 4.380914262e-20 -0.00217488557)
(-1.321427247e-05 4.905489068e-20 -0.00217453685)
(-1.365154031e-05 3.973456156e-20 -0.002174157859)
(-1.402650575e-05 9.324673791e-21 -0.002173749372)
(-1.433821953e-05 5.11655734e-20 -0.002173312448)
(-1.45860368e-05 8.669344821e-20 -0.002172848525)
(-1.476969998e-05 1.344258461e-19 -0.002172359206)
(-1.488924843e-05 1.479830944e-19 -0.002171846459)
(-1.494509969e-05 1.677590986e-19 -0.002171312358)
(-1.493795785e-05 1.90856225e-19 -0.002170759274)
(-1.486886455e-05 2.282870315e-19 -0.002170189659)
(-1.47391301e-05 2.549052805e-19 -0.002169606184)
(-1.45503678e-05 2.613635575e-19 -0.002169011574)
(-1.430442576e-05 2.646469878e-19 -0.002168408721)
(-1.400341038e-05 2.552499491e-19 -0.002167800543)
(-1.364963936e-05 2.756207263e-19 -0.002167190076)
(-1.324564317e-05 2.967397516e-19 -0.002166580366)
(-1.279412495e-05 3.017309439e-19 -0.002165974542)
(-1.229796651e-05 3.267528248e-19 -0.002165375712)
(-1.176020229e-05 3.327828058e-19 -0.002164787038)
(-1.118401582e-05 3.37984114e-19 -0.002164211637)
(-1.057271296e-05 3.58284219e-19 -0.002163652651)
(-9.92971938e-06 3.792673495e-19 -0.002163113141)
(-9.258556106e-06 3.739800004e-19 -0.002162596152)
(-8.562839959e-06 4.055781351e-19 -0.0021621046)
(-7.846252935e-06 4.311525161e-19 -0.002161641335)
(-7.112532702e-06 4.399274341e-19 -0.002161209024)
(-6.365442736e-06 4.367433272e-19 -0.002160810198)
(-5.608770195e-06 4.370791072e-19 -0.002160447148)
(-4.846287756e-06 4.416326689e-19 -0.002160121961)
(-4.08175405e-06 4.507038625e-19 -0.002159836431)
(-3.3188502e-06 4.513713294e-19 -0.002159592086)
(-2.561085062e-06 4.431345832e-19 -0.002159390111)
(-1.811920395e-06 4.236887637e-19 -0.002159231399)
(-1.075787882e-06 4.172333097e-19 -0.002159116548)
(-3.580732836e-07 4.213468005e-19 -0.002159045696)
(-8.374742444e-07 4.195057242e-20 -0.002179831665)
(-2.172680882e-06 4.373237817e-20 -0.00217979749)
(-3.421958554e-06 -2.519937053e-20 -0.002179764421)
(-4.705231344e-06 -1.695109142e-19 -0.002179705904)
(-5.957602233e-06 -7.492527542e-20 -0.002179623632)
(-7.168186579e-06 -2.544172352e-20 -0.002179516888)
(-8.334475063e-06 1.036842408e-19 -0.002179383452)
(-9.452686696e-06 2.72563507e-19 -0.002179221065)
(-1.051903015e-05 2.785606915e-19 -0.002179027511)
(-1.152990538e-05 1.200513018e-19 -0.002178800722)
(-1.248174107e-05 5.067247543e-20 -0.002178539014)
(-1.337123411e-05 5.087393229e-20 -0.002178240973)
(-1.419532408e-05 2.215276836e-20 -0.002177905479)
(-1.495103632e-05 -4.748358224e-20 -0.00217753198)
(-1.563577671e-05 2.654799801e-20 -0.002177120294)
(-1.624726805e-05 8.024085693e-20 -0.002176670625)
(-1.67835062e-05 7.569186305e-20 -0.00217618373)
(-1.724297766e-05 3.85304993e-20 -0.002175660655)
(-1.762447725e-05 3.864903517e-20 -0.002175102923)
(-1.792728598e-05 4.944349045e-20 -0.002174512365)
(-1.8151062e-05 6.264707463e-20 -0.002173891132)
(-1.829590521e-05 9.259406699e-20 -0.002173241699)
(-1.836233786e-05 1.128912363e-19 -0.002172566731)
(-1.83512754e-05 1.204727636e-19 -0.002171869192)
(-1.826402441e-05 1.812995313e-19 -0.002171152151)
(-1.810225463e-05 2.146456451e-19 -0.002170418917)
(-1.786798004e-05 2.267974367e-19 -0.002169672847)
(-1.756353071e-05 2.181283421e-19 -0.002168917492)
(-1.719153482e-05 2.310520597e-19 -0.002168156406)
(-1.675489445e-05 2.502266904e-19 -0.002167393291)
(-1.625675104e-05 2.518378434e-19 -0.002166631835)
(-1.570047305e-05 2.852580336e-19 -0.002165875835)
(-1.508962983e-05 3.004312148e-19 -0.002165129047)
(-1.442798427e-05 3.331025878e-19 -0.002164395303)
(-1.371946121e-05 3.315302827e-19 -0.00216367838)
(-1.296814048e-05 3.184933869e-19 -0.002162982091)
(-1.217822964e-05 3.196545755e-19 -0.002162310165)
(-1.135405737e-05 3.266511751e-19 -0.002161666311)
(-1.050005136e-05 3.655306619e-19 -0.002161054104)
(-9.620715725e-06 3.800886563e-19 -0.002160477037)
(-8.720611146e-06 3.885539735e-19 -0.002159938401)
(-7.804328927e-06 3.979515023e-19 -0.002159441325)
(-6.876478193e-06 4.01420477e-19 -0.00215898866)
(-5.94164602e-06 4.144004702e-19 -0.002158583018)
(-5.00439287e-06 4.223488151e-19 -0.002158226665)
(-4.0691799e-06 4.253052865e-19 -0.002157921554)
(-3.140271278e-06 4.233286722e-19 -0.002157669226)
(-2.221850172e-06 4.164057246e-19 -0.00215747089)
(-1.319285182e-06 4.111058225e-19 -0.002157327395)
(-4.389822806e-07 4.154850395e-19 -0.002157239061)
(-1.026369849e-06 7.683272492e-20 -0.002183265461)
(-2.662235563e-06 1.519731492e-19 -0.00218322199)
(-4.192787798e-06 4.087176606e-20 -0.002183176693)
(-5.765388297e-06 -6.167852591e-20 -0.002183097896)
(-7.299913541e-06 -2.242594558e-19 -0.002182988014)
(-8.783159651e-06 -2.745258901e-19 -0.002182846337)
(-1.021216218e-05 5.725858806e-21 -0.002182670253)
(-1.158234269e-05 1.635079979e-19 -0.002182457097)
(-1.288900498e-05 -1.685941529e-21 -0.002182204313)
(-1.412762002e-05 1.287220224e-21 -0.002181909645)
(-1.529387406e-05 -7.419246271e-20 -0.002181571153)
(-1.63838062e-05 5.838301836e-20 -0.002181187203)
(-1.73935386e-05 1.630061005e-19 -0.002180756681)
(-1.831943144e-05 9.996722208e-20 -0.00218027906)
(-1.915834472e-05 3.364119615e-20 -0.002179754224)
(-1.990738964e-05 -1.886691776e-20 -0.002179182685)
(-2.056416459e-05 -2.826386087e-20 -0.002178565464)
(-2.112674719e-05 -6.602778881e-21 -0.002177904014)
(-2.159365592e-05 4.016596279e-21 -0.002177200364)
(-2.196399563e-05 1.103643994e-20 -0.002176456848)
(-2.223732397e-05 1.755809665e-21 -0.002175676299)
(-2.241379491e-05 4.933608939e-20 -0.002174861787)
(-2.249402173e-05 7.789440363e-20 -0.002174016744)
(-2.247916122e-05 9.52176298e-20 -0.002173144815)
(-2.237081366e-05 1.11959127e-19 -0.002172249877)
(-2.217106756e-05 1.236009215e-19 -0.002171335972)
(-2.188240659e-05 1.561962631e-19 -0.002170407284)
(-2.150773817e-05 1.575716944e-19 -0.002169468113)
(-2.105031563e-05 1.84928466e-19 -0.002168522841)
(-2.051374863e-05 2.030443319e-19 -0.002167575933)
(-1.990192374e-05 2.33671068e-19 -0.002166631898)
(-1.921902198e-05 2.714952562e-19 -0.002165695291)
(-1.846945644e-05 2.662042498e-19 -0.00216477069)
(-1.765788293e-05 2.858201885e-19 -0.00216386269)
(-1.67891396e-05 3.075723599e-19 -0.00216297589)
(-1.586825685e-05 3.108769396e-19 -0.002162114871)
(-1.490040481e-05 3.18384834e-19 -0.002161284174)
(-1.389090305e-05 3.509467532e-19 -0.002160488271)
(-1.284517236e-05 3.468098738e-19 -0.002159731534)
(-1.176872472e-05 3.502576947e-19 -0.002159018192)
(-1.066712257e-05 3.62168499e-19 -0.002158352285)
(-9.545968522e-06 3.859352815e-19 -0.00215773762)
(-8.410863945e-06 4.067888426e-19 -0.002157177725)
(-7.267388434e-06 4.129650393e-19 -0.002156675806)
(-6.121065108e-06 4.188906303e-19 -0.002156234699)
(-4.977299957e-06 4.249311976e-19 -0.002155856834)
(-3.841261928e-06 4.309533648e-19 -0.002155544183)
(-2.718005696e-06 4.399495344e-19 -0.002155298314)
(-1.614003695e-06 4.333631614e-19 -0.002155120383)
(-5.368402126e-07 4.31927632e-19 -0.002155010919)
(-1.253098275e-06 1.855958131e-19 -0.002187333757)
(-3.249690753e-06 6.273181174e-19 -0.002187279255)
(-5.117739978e-06 1.585187044e-19 -0.002187219386)
(-7.037650685e-06 -4.283521943e-21 -0.002187116395)
(-8.910934663e-06 1.32208289e-19 -0.002186973551)
(-1.072172983e-05 -4.934055893e-20 -0.002186790093)
(-1.246655973e-05 -2.013248193e-20 -0.002186562927)
(-1.413981665e-05 -3.386148289e-21 -0.00218628894)