/*--------------------------------*- C++ -*----------------------------------*\
  =========                 |
  \\      /  F ield         | OpenFOAM: The Open Source CFD Toolbox
   \\    /   O peration     | Website:  https://openfoam.org
    \\  /    A nd           | Version:  7
     \\/     M anipulation  |
\*---------------------------------------------------------------------------*/
FoamFile
{
    version     2.0;
    format      ascii;
    class       volScalarField;
    location    "0.0018";
    object      generalizedNewtonian:nu;
}
// * * * * * * * * * * * * * * * * * * * * * * * * * * * * * * * * * * * * * //

dimensions      [0 2 -1 0 0 0 0];

internalField   nonuniform List<scalar> 
1167
(
15.3821369
15.2167446
14.94066251
14.49195386
13.92280044
13.24109854
12.46032215
11.59671897
10.66851084
9.69705474
8.706643806
7.723457936
6.773546377
5.880029947
5.06049439
4.32553935
3.678872348
15.61604382
15.44558241
15.15519262
14.68913976
14.09795265
13.39124065
12.58342945
11.69261716
10.73868399
9.744149328
8.734268503
7.73590039
6.775173211
5.874711982
5.051278104
4.314593942
3.667636055
3.107901267
2.629091277
2.22290577
1.880360679
1.592581422
1.351363115
1.149386076
0.9802807908
0.8386133536
0.7197833678
0.6199459317
0.5358944734
0.4649679084
0.4049663425
0.3540667271
0.3107642418
0.2738151634
0.2421890851
0.2150342059
0.19164499
0.1714341343
0.1539133741
0.1386757993
0.1253814534
0.1137455905
0.1035292792
0.09453130758
0.0865818657
0.0795371347
0.0732751818
0.06769173818
0.06269683478
0.05821004269
15.8720836
15.69593683
15.38973047
14.90454701
14.28915029
13.55493438
12.71766386
11.79706438
10.81495887
9.79532462
8.764488719
7.749860982
6.777551364
5.869651754
5.042049919
4.303539837
3.65630173
3.097127169
2.619287157
2.21424874
1.872857692
1.586163051
1.345931059
1.144822789
0.9764744885
0.8354535313
0.717172361
0.617798868
0.5341352973
0.4635327928
0.4037994276
0.3531216885
0.3100025634
0.2732038674
0.2417011381
0.2146473668
0.1913410308
0.1711977043
0.1537320087
0.1385393196
0.1252815273
0.1136754037
0.1034832669
0.0945049297
0.08657136333
0.0795394505
0.07328785225
0.06771274175
0.0627245291
0.05824311327
16.15132085
15.96876735
15.64529501
15.13892706
14.49678488
13.73222745
12.86304075
11.91011082
10.89735033
9.850544012
8.797168109
7.76517535
6.780586902
5.86483087
5.032852504
4.292491824
3.644957735
3.08635078
2.609512801
2.20564853
1.865432754
1.57984282
1.340601092
1.140359846
0.9727627679
0.832380632
0.7146405518
0.615720065
0.5324344048
0.4621467482
0.4026733116
0.3522101136
0.3092679477
0.2726141883
0.2412302846
0.2142740214
0.1910472437
0.1709688479
0.1535561336
0.1384066553
0.1251840782
0.1136066379
0.1034378707
0.09447850142
0.08656029761
0.07954080899
0.0732992787
0.06773229461
0.06275062727
0.05827448838
16.45432837
16.26476322
15.92225134
15.39246291
14.72106574
13.92327913
13.01923666
12.03146099
10.98563837
9.909579566
8.832123398
7.781736666
6.784208407
5.860238083
5.023779201
4.281517613
3.633664291
3.075626393
2.599822942
2.197147952
1.858115616
1.573635816
1.335384239
1.136006304
0.969151211
0.8293972917
0.712187579
0.6137091956
0.5307912048
0.4608089625
0.4015871005
0.3513312564
0.3085596936
0.2720455439
0.2407760192
0.2139135941
0.1907632945
0.1707473313
0.1533855782
0.1382776859
0.1250890272
0.1135392504
0.103393042
0.09445198569
0.08654865325
0.07954123319
0.07330947034
0.06775040396
0.06277513663
0.05830417489
16.78185339
16.58458897
16.22110353
15.66546783
14.96201734
14.12793853
13.18574115
12.16047102
11.0794158
9.972187323
8.869153328
7.799364052
6.788332872
5.855939344
5.014906736
4.270671383
3.622466105
3.065008474
2.590252645
2.188775737
1.850932681
1.567559151
1.330290612
1.131769709
0.9656440905
0.8265058551
0.709813959
0.6117661147
0.5292059518
0.4595189029
0.400540183
0.3504848202
0.3078772985
0.2714974855
0.2403379738
0.213565756
0.1904889482
0.1705329824
0.1532202179
0.1381523247
0.124996324
0.1134732453
0.1033487473
0.09442536777
0.08653642058
0.07954069836
0.07331842409
0.06776707018
0.06279805625
0.0583321698
17.13465188
16.92893472
16.54244061
15.95853236
15.21984258
14.34616371
13.36235135
12.29640897
11.17779243
10.0377403
8.907894285
7.817909959
6.793002649
5.851983658
5.006241008
4.259966379
3.6113976
3.054547085
2.58083938
2.180556261
1.843905718
1.561628362
1.325330662
1.127653208
0.9622436145
0.8237088747
0.7075208227
0.6098911452
0.5276779729
0.4582762142
0.399532122
0.3496699371
0.3072202861
0.2709696647
0.239915963
0.2132303043
0.1902240469
0.170325691
0.1530599811
0.1380305309
0.1249059532
0.1134085527
0.1033049664
0.09439863891
0.0865235928
0.07953919736
0.07332613175
0.06778228343
0.06281937438
0.05835845948
17.51337464
17.29820519
16.88643713
16.27160675
15.49435558
14.57770122
13.54877549
12.43876671
11.27996052
10.10539782
8.947790617
7.837098004
6.798021798
5.848220891
4.99770533
4.24938263
3.600480596
3.044254805
2.571600555
2.172508998
1.837043105
1.555850774
1.320512249
1.12366183
0.9589523997
0.8210073154
0.7053087347
0.6080844429
0.526206865
0.4570805249
0.398562575
0.3488862843
0.3065883656
0.2704618572
0.2395098905
0.2129071229
0.1899685042
0.1701254017
0.1529048356
0.1379122925
0.1248179403
0.1133451691
0.1032616909
0.09437179007
0.08651015927
0.07953671717
0.07333257756
0.0677960251
0.06283906966
0.05838302015
17.91876631
17.69292006
17.25350478
16.60458255
15.78512385
14.82162292
13.74429457
12.5870841
11.38548586
10.17466171
8.988328658
7.856486239
6.803067378
5.844458416
4.989208199
4.238897392
3.589732436
3.03414759
2.562545697
2.164651911
1.830357463
1.550233709
1.315840935
1.11979954
0.9557731121
0.8184014411
0.7031778051
0.6063464009
0.5247925624
0.4559316856
0.3976317803
0.3481338069
0.305981486
0.2699740005
0.2391195359
0.2125961664
0.18972232
0.1699321308
0.1527548073
0.1377976358
0.1247322501
0.1132831002
0.1032189279
0.0943448206
0.08649611088
0.07953324208
0.0733377434
0.06780826838
0.06285711098
0.05840581827
18.35106163
18.11319419
17.64366399
16.9571838
16.09155383
15.07704181
13.94790994
12.74057432
11.49370177
10.24497075
9.029042792
7.875709704
6.807915874
5.840572666
4.980690694
4.228530979
3.579161595
3.02423672
2.553690853
2.156992396
1.823857311
1.54478511
1.311319046
1.11606817
0.9527082333
0.8158925052
0.7011286535
0.6046776565
0.5234352836
0.454829759
0.3967395762
0.347412472
0.3053996491
0.2695061253
0.2387449462
0.2122974897
0.1894855544
0.1697459394
0.1526099668
0.1376866912
0.124648933
0.1132223734
0.1031766926
0.094317734
0.08648143915
0.07952875345
0.07334160547
0.06781897766
0.0628734564
0.05842680793
18.80894935
18.5577687
18.05547491
17.32778228
16.41219763
15.34261823
14.15782925
12.8977894
11.60366993
10.31561916
9.069400722
7.894415296
6.812321233
5.836418844
4.972133759
4.218271543
3.568760196
3.014519435
2.545050031
2.149538377
1.817547023
1.539513006
1.306951431
1.112470373
0.9497596624
0.8134819098
0.6991621407
0.6030778172
0.522135151
0.4537748687
0.3958857573
0.3467222514
0.3048429256
0.2690586165
0.2383862685
0.212011217
0.1892583409
0.1695669628
0.1524704228
0.1375794695
0.1245680554
0.1131630461
0.103135021
0.09429054499
0.08646613974
0.07952322874
0.0733441198
0.0678281073
0.06288805521
0.05844593481
19.29010415
19.02411671
18.48688041
17.71443707
16.74487153
15.61629262
14.37202151
13.05664252
11.71391618
10.38573006
9.10884671
7.912216719
6.816063784
5.831952443
4.963531857
4.208099356
3.55851426
3.004998559
2.536627713
2.142296908
1.811432415
1.534419042
1.302740562
1.109008404
0.946927223
0.8111698704
0.6972787472
0.6015472291
0.5208923816
0.4527673651
0.3950706182
0.3460634493
0.3043115611
0.2686314333
0.2380436943
0.2117375653
0.1890408815
0.1693953985
0.1523364255
0.1374761172
0.1244897246
0.1131051991
0.1030939673
0.09426328052
0.08645021382
0.07951664616
0.07334524531
0.06783560105
0.06290083971
0.05846312248
19.7915197
19.50910556
18.93483763
18.11430423
17.08676092
15.89557941
14.58843596
13.21496961
11.82233868
10.45388594
9.146590073
7.928736744
6.819043993
5.827129793
4.95481941
4.197968244
3.548401969
2.995677298
2.52842131
2.135266331
1.805515962
1.529502983
1.298686266
1.105684049
0.944211565
0.8089566627
0.6954799325
0.6000863359
0.5197073133
0.4518080169
0.394294542
0.345436403
0.303805889
0.268224866
0.2377175182
0.2114768251
0.1888334539
0.1692314879
0.1522081331
0.1373768086
0.1244140882
0.1130489439
0.1030536054
0.09423597848
0.0864336656
0.07950898025
0.07334493259
0.06784139235
0.06291173366
0.0584782921
20.30848329
20.0077799
19.39488015
18.52269833
17.43358926
16.1766173
14.80409636
13.37058615
11.92715182
10.51855394
9.181610474
7.943408155
6.820889696
5.821685184
4.945832058
4.187788437
3.538383326
2.986534656
2.520419133
2.12843839
1.799797511
1.524765161
1.294788815
1.102497636
0.9416134641
0.8068429259
0.693764703
0.5986953405
0.518580267
0.4508965161
0.3935577324
0.3448414634
0.3033265014
0.2678393284
0.2374081305
0.2112293775
0.1886364274
0.1690755978
0.1520858219
0.1372818025
0.1243413655
0.1129944531
0.1030140596
0.0942087144
0.08641652391
0.0795002169
0.07334312978
0.06784539752
0.06292062685
0.05849131007
20.83372391
20.51259448
19.86070122
18.93374286
17.77999755
16.45449728
15.01529306
13.52096778
12.02660528
10.57851991
9.21299179
7.955561104
6.821138686
5.815327414
4.936402132
4.177468014
3.52843498
2.977550629
2.512607834
2.121808391
1.794269589
1.520202495
1.291047313
1.099446961
0.9391320236
0.8048285243
0.692133128
0.5973743198
0.5175114844
0.4500331957
0.3928605525
0.3442790051
0.3028737248
0.2674752044
0.2371159203
0.2109956008
0.1884501715
0.1689281347
0.1519698058
0.137191369
0.1242717872
0.1129419122
0.1029754644
0.09418156923
0.08639881614
0.07949033376
0.07333977291
0.06784752383
0.06292741506
0.05850207981
21.35635332
21.01228328
20.32205894
19.33827316
18.11857886
16.72326557
15.21716296
13.66274549
12.11842901
10.63226472
9.239762969
7.964560937
6.819408956
5.807833128
4.926390813
4.16694593
3.518501004
2.968686361
2.504962148
2.115369474
1.788925471
1.51580893
1.287460675
1.09653051
0.9367661729
0.802914513
0.6905853652
0.5961235854
0.5165021922
0.4492187867
0.3922037253
0.3437497296
0.3024480829
0.267133152
0.2368415579
0.2107761477
0.1882752889
0.1687895636
0.1518605939
0.13710598
0.1242057665
0.1128916677
0.1029380937
0.09415473879
0.08638065653
0.07947936257
0.07333481318
0.06784764537
0.06293189729
0.05851032233
21.85925382
21.49008938
20.76493246
19.72374349
18.43881341
16.97470071
15.40297561
13.79132601
12.19993139
10.67806877
9.260766134
7.969674706
6.815218898
5.798884335
4.915635646
4.156139275
3.508518658
2.959896355
2.497456368
2.109099995
1.783753648
1.511577563
1.284022565
1.093745249
0.9345140762
0.8010979915
0.6891203688
0.5949425831
0.5155513997
0.4484530144
0.3915872327
0.3432538863
0.3020497889
0.2668134121
0.2365853133
0.2105713294
0.1881122029
0.168660218
0.1517585005
0.1370259385
0.1241435849
0.1128439665
0.1029021459
0.09412835978
0.08636211022
0.07946729389
0.07332817528
0.06784564671
0.06293396406
0.05851599411
22.31676592
21.92192542
21.16972582
20.07406715
18.7272475
17.19826783
15.56474086
13.90022571
12.26669506
10.71326588
9.274323224
7.9697613
6.807806081
5.78802961
4.903870572
4.144838629
3.498338485
2.951079713
2.490031547
2.102956015
1.778723026
1.507489117
1.280718927
1.091081944
0.9323702247
0.7993756435
0.6877363051
0.5938305794
0.5146589035
0.4477362032
0.3910117587
0.3427925481
0.3016798911
0.2665170838
0.2363483111
0.2103822474
0.1879619363
0.1685411154
0.151664498
0.1369521557
0.1240860812
0.1127995618
0.1028682723
0.09410296255
0.08634356398
0.07945434641
0.07331988406
0.06784133097
0.06293316098
0.0585183345
22.70315028
22.27965033
21.51032683
20.36685439
18.96624983
17.38105086
15.69344206
13.98261793
12.3133449
10.734283
9.278252757
7.963479465
6.796365277
5.774738544
4.890666408
4.13272054
3.487731493
2.942080838
2.482573739
2.096856683
1.773775125
1.503504694
1.277519803
1.088518098
0.9303199604
0.7977353695
0.6864238824
0.5927811164
0.5138193458
0.4470641678
0.3904739464
0.3423627009
0.3013362034
0.2662424742
0.2361292258
0.2102078651
0.1878236376
0.1684316656
0.1515781824
0.1368843783
0.1240331246
0.1127584163
0.1028364959
0.09407859142
0.08632504433
0.07944049871
0.07330986776
0.06783462762
0.06292955187
0.05851774782
22.94215018
22.50792461
21.7417907
20.56275648
19.12178423
17.49433248
15.76663996
14.02190496
12.32756107
10.73183746
9.265934454
7.946293746
6.777745019
5.75677626
4.874455654
4.118701477
3.475953562
2.932403473
2.474732306
2.090556428
1.768740165
1.499502153
1.27434237
1.085996816
0.9283218793
0.7961501113
0.6851652165
0.5917822218
0.5130254613
0.4464328045
0.3899719258
0.3419638875
0.3010192251
0.2659907195
0.2359296274
0.2100501445
0.1876992315
0.1683338136
0.1515014909
0.1368244991
0.1239865368
0.1127222578
0.1028084234
0.09405669193
0.08630776888
0.0794266344
0.07329851849
0.06782522072
0.06292182978
0.05851160503
23.18818399
22.71083703
21.94395364
20.72187794
19.23643175
17.56549833
15.80052345
14.02666451
12.31283665
10.70635322
9.236048358
7.916177354
6.749813352
5.732207209
4.853618223
4.101466577
3.461965012
2.921218226
2.465862611
2.083557772
1.763240839
1.495188756
1.270959735
1.083343505
0.9262402098
0.7945138153
0.6838772015
0.5907680061
0.512225206
0.4458007573
0.389473009
0.3415695606
0.3007075033
0.2657444537
0.2357353824
0.2098974291
0.1875793597
0.1682399954
0.1514283325
0.1367676642
0.1239425129
0.1126881753
0.1027819035
0.09403574904
0.0862907451
0.07941219235
0.07328567821
0.06781347149
0.06291126131
0.05850277435
22.72096263
22.22505973
21.48632305
20.32554733
18.90731175
17.29722025
15.58466964
13.85364492
12.17399455
10.59539671
9.147928852
7.846605888
6.69522419
5.689634324
4.820590995
4.075967851
3.442390439
2.906231468
2.45439713
2.074786317
1.756533297
1.490050566
1.267015308
1.080311715
0.9239029525
0.7927072384
0.6824784547
0.5896825379
0.5113809156
0.4451431228
0.38896085
0.341170158
0.3003959923
0.2655017254
0.2355466912
0.2097512608
0.1874664662
0.1681532122
0.1513620264
0.1367173514
0.1239045913
0.1126597128
0.1027604545
0.094019214
0.08627724403
0.07939997093
0.07327305257
0.06779889673
0.06289350844
0.05848109459
22.44744258
22.08008023
21.37668752
20.13334942
18.64465142
16.99806744
15.28183337
13.57155777
11.9257013
10.38581755
8.976781293
7.710348157
6.588815148
5.607743528
4.758272444
4.028969935
3.407147584
2.879882401
2.434721515
2.060101169
1.745561842
1.48183201
1.260839896
1.075658195
0.9203810324
0.7900304459
0.680437246
0.5881190141
0.5101785878
0.4442155312
0.3882436949
0.3406139996
0.2999638288
0.2651656082
0.2352854999
0.2095483025
0.1873090373
0.1680314868
0.1512683497
0.1366457052
0.1238502021
0.1126187426
0.1027297387
0.09399605772
0.0862592493
0.07938492683
0.07325890088
0.06778388925
0.06287667003
0.05846286712
24.67660471
23.61598386
22.43386398
20.83785387
19.05723057
17.19390463
15.33447216
13.54082375
11.85371543
10.2987637
8.889882008
7.631514785
6.521246539
5.551957451
4.713428428
3.993579143
3.379559177
2.858558111
2.418339497
2.047579866
1.736009002
1.47454708
1.255286703
1.071420953
0.9171420193
0.7875500007
0.6785358924
0.586657747
0.5090535417
0.4433490277
0.3875751274
0.3400977833
0.2995652877
0.2648583008
0.2350493583
0.2093672993
0.1871709943
0.1679269809
0.1511900445
0.1365878477
0.1238082567
0.1125891028
0.1027094738
0.09398269287
0.08625050069
0.07937831591
0.07325104552
0.06776934857
0.06284688111
0.0584079256
)
;

boundaryField
{
    front_top
    {
        type            wedge;
    }
    front_middle
    {
        type            wedge;
    }
    front_bottom
    {
        type            wedge;
    }
    back_top
    {
        type            wedge;
    }
    back_middle
    {
        type            wedge;
    }
    back_bottom
    {
        type            wedge;
    }
    axis_top
    {
        type            symmetryPlane;
    }
    axis_middle
    {
        type            symmetryPlane;
    }
    axis_bottom
    {
        type            symmetryPlane;
    }
    wall_top
    {
        type            calculated;
        value           nonuniform 0();
    }
    wall_middle
    {
        type            calculated;
        value           nonuniform 0();
    }
    wall_bottom
    {
        type            calculated;
        value           nonuniform List<scalar> 
23
(
0.05616726826
0.05620254338
0.05623608855
0.05626791019
0.05629800425
0.05632635626
0.05635294144
0.0563777254
0.05640066078
0.05642169219
0.05644073972
0.05645772492
0.05647250413
0.05648498857
0.05649486284
0.05650212797
0.0565058728
0.05650670948
0.05650133488
0.05649353082
0.05647004779
0.0564515361
0.05638303201
)
;
    }
    inlet
    {
        type            calculated;
        value           nonuniform 0();
    }
    outlet
    {
        type            calculated;
        value           nonuniform List<scalar> 
50
(
25.02750253
23.96397717
22.76378685
21.1277584
19.30248447
17.39350246
15.49145424
13.66061144
11.94281002
10.36353477
8.935978098
7.663702513
6.54334764
5.566909869
4.723413438
4.000167237
3.383860557
2.861343741
2.420132192
2.048727705
1.736741168
1.475013677
1.255584788
1.071612318
0.917266016
0.7876316377
0.6785907812
0.5866956505
0.5090805818
0.4433689961
0.3875903493
0.3401097058
0.2995748248
0.2648660322
0.2350556548
0.2093724109
0.1871750995
0.167930215
0.1511925164
0.1365896506
0.1238094745
0.1125898138
0.102709754
0.09398261847
0.08625015101
0.07937777697
0.07325041784
0.06776876052
0.06284648365
0.05840779105
)
;
    }
    procBoundary0to1
    {
        type            processor;
        value           nonuniform List<scalar> 
51
(
15.16943117
15.00858093
14.74540714
14.31258368
13.76340618
13.10461694
12.34836293
11.50925317
10.60440754
9.654233783
8.681892149
7.712792696
6.772844111
5.885666772
5.069673601
4.336292724
3.689917769
3.1186032
3.1186032
2.638860279
2.231577414
1.887912653
1.599072296
1.35688025
1.15403943
0.9841783359
0.8418581994
0.7224715048
0.6221610256
0.5377125219
0.466453623
0.406175197
0.3550462644
0.3115539999
0.2744489422
0.2426948083
0.215434888
0.1919595267
0.1716784651
0.1541004696
0.1388162631
0.1254839697
0.1138172638
0.1035759164
0.09455766057
0.08659181712
0.07953385527
0.07326125311
0.06766926579
0.06266752459
0.05817525668
)
;
    }
}


// ************************************************************************* //
