/*--------------------------------*- C++ -*----------------------------------*\
  =========                 |
  \\      /  F ield         | OpenFOAM: The Open Source CFD Toolbox
   \\    /   O peration     | Website:  https://openfoam.org
    \\  /    A nd           | Version:  7
     \\/     M anipulation  |
\*---------------------------------------------------------------------------*/
FoamFile
{
    version     2.0;
    format      ascii;
    class       volVectorField;
    location    "0.0018";
    object      grad(generalizedNewtonian:nu);
}
// * * * * * * * * * * * * * * * * * * * * * * * * * * * * * * * * * * * * * //

dimensions      [0 1 -1 0 0 0 0];

internalField   nonuniform List<vector> 
1167
(
(-21129.97057 0 -22330.63227)
(-40727.63107 0 -21850.07418)
(-65600.37965 -1.766087453e-09 -20489.27391)
(-91830.5137 0 -18827.80409)
(-114375.3509 0 -16727.32342)
(-135844.6394 0 -14331.18575)
(-155341.4362 0 -11753.32581)
(-172256.6658 0 -9168.199262)
(-185906.1008 -6.136491728e-10 -6713.822558)
(-195477.5756 5.645090647e-10 -4495.777205)
(-200237.354 0 -2618.817672)
(-199726.3068 0 -1155.384661)
(-193970.264 0 -116.4550071)
(-183586.4677 0 547.7395131)
(-169689.1177 0 919.7748841)
(-153632.811 1.021184976e-10 1084.939098)
(-136721.4551 0 1114.085651)
(-21777.58372 1.676159064e-08 -24497.33503)
(-42588.49732 0 -23959.61129)
(-68411.98552 1.766087453e-09 -22453.39844)
(-95383.41522 0 -20629.65743)
(-118667.8466 1.037132521e-09 -18317.49265)
(-140669.6871 0 -15691.79236)
(-160451.9458 0 -12867.08586)
(-177329.0491 0 -10017.2707)
(-190665.4667 0 -7322.401439)
(-199700.4964 -5.645090647e-10 -4913.494002)
(-203737.0431 0 -2892.245651)
(-202398.0945 0 -1320.152346)
(-195827.5024 2.331079767e-10 -200.2493748)
(-184739.9337 -2.218936483e-10 518.9096328)
(-170297.4376 0 922.2235853)
(-153853.3667 0 1099.975649)
(-136691.3325 0 1128.530916)
(-119854.6517 0 1073.801517)
(-104057.6775 0 978.6561243)
(-89696.38986 0 866.433695)
(-76937.79947 0 752.7480484)
(-65790.29847 0 645.4622534)
(-56161.6932 0 547.4595533)
(-47913.17406 0 460.8320258)
(-40885.43608 0 385.1923711)
(-34919.78064 0 320.2334059)
(-29867.20692 0 264.95719)
(-25592.2631 0 218.1078762)
(-21976.86874 0 178.8612344)
(-18917.80006 -9.841595743e-12 146.0415101)
(-16327.34637 0 118.7884697)
(-14131.26839 0 96.22879635)
(-12266.32862 0 77.57182553)
(-10679.92033 0 62.25373906)
(-9327.756688 0 49.68350852)
(-8172.399615 0 39.37606018)
(-7182.978441 0 30.92479653)
(-6333.74084 0 24.03804191)
(-5602.909308 -2.405189498e-12 18.42304617)
(-4972.319828 0 13.84717622)
(-4426.797614 1.206414697e-12 10.12211923)
(-3953.607221 0 7.093005132)
(-3542.074284 -1.213068337e-12 4.632473718)
(-3183.252043 0 2.63654346)
(-2869.616187 0 1.022689569)
(-2594.802831 -1.227877028e-12 -0.2797613317)
(-2353.516423 0 -1.32995695)
(-2141.503711 0 -2.173798118)
(-1955.79125 0 -2.850225655)
(-1795.426677 0 -3.392829603)
(-22503.9266 0 -26763.85154)
(-44651.43326 0 -26159.24687)
(-71515.85002 0 -24505.11951)
(-99293.08564 1.296916343e-09 -22489.36506)
(-123386.5933 -1.037132521e-09 -19941.61144)
(-145949.1058 0 -17049.33964)
(-166034.5078 -7.590816911e-10 -13980.56493)
(-182883.0366 0 -10874.68331)
(-195859.7709 6.136491728e-10 -7933.316648)
(-204270.4254 0 -5319.734231)
(-207495.1882 -2.625550867e-10 -3144.9803)
(-205259.4068 -2.464598854e-10 -1463.748018)
(-197816.5483 0 -270.6845883)
(-185974.5573 0 494.0556054)
(-170945.2671 0 921.2799709)
(-154083.1839 2.042369953e-10 1105.105907)
(-136657.018 1.972231438e-10 1133.916009)
(-119676.5005 0 1077.524354)
(-103807.7436 0 978.9237765)
(-89420.14745 0 862.8619837)
(-76664.20043 0 746.3962809)
(-65532.51165 0 636.9301275)
(-55926.49092 0 538.1011502)
(-47703.17496 0 451.3115001)
(-40700.76007 0 375.9011456)
(-34759.53211 0 311.6360796)
(-29728.86882 -1.009620547e-11 257.1408036)
(-25473.71936 0 211.2933375)
(-21875.9191 -9.913505491e-12 173.0034315)
(-18832.24086 0 141.0580112)
(-16255.21084 0 114.6515424)
(-14070.49381 0 92.83067447)
(-12215.33344 0 74.81470338)
(-10637.30419 0 60.04875415)
(-9292.151672 0 47.94002413)
(-8142.66259 0 38.00922225)
(-7158.210388 0 29.88731791)
(-6313.171571 0 23.26432195)
(-5585.822424 0 17.8620263)
(-4958.134516 0 13.45719632)
(-4415.032482 0 9.868756413)
(-3943.858359 1.209402773e-12 6.947626879)
(-3534.003009 0 4.570425481)
(-3176.586368 0 2.640308086)
(-2864.128325 0 1.078404553)
(-2590.287136 0 -0.1837142998)
(-2349.806039 0 -1.204845314)
(-2138.464486 6.203589913e-13 -2.027821414)
(-1953.304057 0 -2.689624732)
(-1793.378239 0 -3.222284034)
(-23322.42947 0 -29112.23852)
(-46917.7071 0 -28441.31957)
(-74934.07923 0 -26626.0434)
(-103616.2933 0 -24395.79532)
(-128595.3645 0 -21595.77229)
(-151715.7655 0 -18417.23754)
(-172088.5282 0 -15078.63962)
(-188919.0164 0 -11719.8303)
(-201497.5694 0 -8533.974954)
(-209202.6208 0 -5712.747282)
(-211524.4769 0 -3381.733939)
(-208305.4999 0 -1593.784184)
(-199922.0091 0 -332.8521185)
(-187275.7274 -2.218936483e-10 470.6835338)
(-171618.0095 0 913.5358666)
(-154317.4781 1.021184976e-10 1101.111197)
(-136623.5851 0 1131.871951)
(-119493.7169 0 1075.038805)
(-103550.8599 0 973.2107659)
(-89138.12551 0 855.0394295)
(-76385.55097 0 737.1038126)
(-65271.77332 0 626.3617672)
(-55691.02427 0 527.3409819)
(-47494.15772 0 440.8242548)
(-40517.85776 0 366.1638763)
(-34601.34955 0 302.8119799)
(-29593.09239 0 249.2390989)
(-25358.08844 0 204.4836236)
(-21777.69292 0 167.2046256)
(-18749.20936 -9.841595743e-12 136.1915176)
(-16185.37397 0 110.6163541)
(-14011.78026 0 89.5216061)
(-12166.14897 0 72.14349364)
(-10596.24027 0 57.91617567)
(-9257.834927 0 46.25594739)
(-8114.045285 0 36.68863789)
(-7134.416878 0 28.88681275)
(-6293.387724 0 22.51864807)
(-5569.377954 0 17.32152571)
(-4944.47402 0 13.08168353)
(-4403.692208 0 9.62500587)
(-3934.445806 0 6.807666528)
(-3526.202851 0 4.511245427)
(-3170.142026 0 2.647200416)
(-2858.813854 0 1.135503837)
(-2585.903985 0 -0.08913441746)
(-2346.193546 0 -1.080904561)
(-2135.496434 0 -1.883110483)
(-1950.867258 0 -2.53037641)
(-1791.365001 0 -3.05308113)
(-24218.21418 0 -31526.62721)
(-49412.97855 0 -30791.08108)
(-78709.39177 0 -28790.42572)
(-108365.0723 0 -26327.03838)
(-134296.8642 0 -23261.62308)
(-158021.5904 0 -19785.55427)
(-178654.0878 0 -16135.02013)
(-195426.8311 0 -12518.00996)
(-207572.6284 0 -9103.273627)
(-214493.2088 0 -6082.165535)
(-215812.4968 0 -3599.260976)
(-211524.96 0 -1709.435096)
(-202133.7314 0 -387.2984674)
(-188625.6153 -2.218936483e-10 444.5762802)
(-172307.4496 0 897.2884005)
(-154559.8828 1.021184976e-10 1091.022052)
(-136592.5519 0 1124.581496)
(-119306.9166 0 1067.115309)
(-103288.4146 0 963.0078095)
(-88853.32579 0 843.6396674)
(-76105.24636 0 725.0036201)
(-65010.388 0 614.1834145)
(-55456.05304 0 515.523975)
(-47286.83041 0 429.506844)
(-40337.57424 0 355.9338713)
(-34446.03112 0 293.7388474)
(-29460.27505 0 241.3296383)
(-25245.40317 0 197.6975133)
(-21682.25894 0 161.4226469)
(-18668.74903 -9.841595743e-12 131.3922631)
(-16117.82542 0 106.6564294)
(-13955.09901 0 86.26466953)
(-12118.74996 0 69.53246)
(-10556.69817 0 55.83514144)
(-9224.805766 0 44.61554026)
(-8086.519163 0 35.41327383)
(-7111.54191 0 27.9147753)
(-6274.361932 0 21.79327233)
(-5553.556548 0 16.79578258)
(-4931.32233 0 12.71653172)
(-4392.762956 0 9.387713403)
(-3925.364227 0 6.669632298)
(-3518.672721 0 4.456169603)
(-3163.912702 0 2.656682396)
(-2853.661225 0 1.193851438)
(-2581.648743 -1.227877028e-12 0.00553142474)
(-2342.682054 0 -0.9572695942)
(-2132.599926 0 -1.738778543)
(-1948.480921 0 -2.371448517)
(-1789.387249 0 -2.884071213)
(-25201.84814 0 -34016.17574)
(-52159.96294 0 -33208.57494)
(-82872.95013 0 -31009.46327)
(-113583.0575 0 -28303.47219)
(-140532.4142 0 -24938.84236)
(-164917.1771 0 -21144.22877)
(-185776.3993 0 -17155.73446)
(-202394.7768 0 -13247.39915)
(-214046.1793 0 -9607.703106)
(-220122.1743 0 -6408.036616)
(-220352.9335 0 -3788.544367)
(-214905.2789 0 -1808.66465)
(-204425.5394 0 -439.7121068)
(-190007.5398 0 412.7212683)
(-173014.9814 0 876.9096796)
(-154813.924 1.021184976e-10 1077.561728)
(-136563.8278 0 1113.334517)
(-119117.3003 0 1053.965408)
(-103023.4021 0 949.1780929)
(-88566.77706 0 829.5845294)
(-75824.72697 0 710.4948945)
(-64750.37944 0 600.3726675)
(-55222.77994 0 502.678837)
(-47081.95024 0 417.654802)
(-40160.59125 0 345.3798258)
(-34294.08099 0 284.4208473)
(-29330.75444 0 233.3378188)
(-25135.69727 0 190.9025206)
(-21589.67532 0 155.661594)
(-18590.98335 -9.841595743e-12 126.6374155)
(-16052.52937 0 102.748924)
(-13900.43506 0 83.06596333)
(-12073.15901 0 66.97037222)
(-10518.65685 0 53.79396249)
(-9193.045267 0 43.00281073)
(-8060.062596 0 34.16448725)
(-7089.559718 0 26.96238016)
(-6256.075619 0 21.08201315)
(-5538.343587 0 16.27985374)
(-4918.666525 0 12.35775275)
(-4382.228544 0 9.153702757)
(-3916.610788 0 6.534884814)
(-3511.415959 0 4.403777752)
(-3157.893981 0 2.667339174)
(-2848.672407 0 1.253022613)
(-2577.520021 0 0.1017913557)
(-2339.266622 0 -0.8330707168)
(-2129.77454 0 -1.593973615)
(-1946.145749 0 -2.211887618)
(-1787.445855 0 -2.714229341)
(-26281.74216 0 -36576.06249)
(-55173.94761 5.72803201e-09 -35680.81072)
(-87432.2742 0 -33266.68013)
(-119308.1462 0 -30306.94611)
(-147358.4038 0 -26616.91185)
(-172439.5314 8.72492374e-10 -22488.13449)
(-193522.4475 0 -18151.71709)
(-209887.0079 0 -13914.78454)
(-220906.0893 0 -10027.23615)
(-226037.0706 0 -6660.525096)
(-225097.3197 -5.251101735e-10 -3931.864468)
(-218404.5827 0 -1886.697595)
(-206777.3672 0 -484.4463054)
(-191425.5782 0 385.922692)
(-173744.3528 0 860.070336)
(-155076.3813 1.021184976e-10 1064.437669)
(-136533.2509 9.861157192e-11 1099.275481)
(-118924.5988 9.557346841e-11 1037.683465)
(-102758.8499 0 932.6045112)
(-88280.33433 0 813.3369369)
(-75545.08403 0 694.4788202)
(-64493.1547 0 585.4188753)
(-54992.7837 0 488.9181401)
(-46880.56644 0 405.3939607)
(-39986.98389 0 334.5845383)
(-34145.64843 0 274.9269831)
(-29204.834 0 225.2612172)
(-25029.22271 0 184.08359)
(-21500.03496 0 149.9543427)
(-18515.87919 0 121.9188995)
(-15989.5623 0 98.88040005)
(-13847.79221 0 79.92679253)
(-12029.2973 0 64.44664533)
(-10482.07085 0 51.78141605)
(-9162.53073 4.818700871e-12 41.40416549)
(-8034.670894 0 32.931654)
(-7068.455037 0 26.02219927)
(-6238.514394 -2.403668045e-12 20.37903585)
(-5523.727217 0 15.76911671)
(-4906.496753 0 12.00160865)
(-4372.094347 1.206414697e-12 8.919181119)
(-3908.186125 1.209402773e-12 6.403812107)
(-3504.421384 0 4.352820781)
(-3152.083347 0 2.678885245)
(-2843.847097 -1.222328066e-12 1.313065776)
(-2573.518096 0 0.1990592361)
(-2335.947784 0 -0.7076731092)
(-2127.020993 0 -1.447746039)
(-1943.862525 0 -2.050670726)
(-1785.54157 -6.278896109e-13 -2.542517298)
(-27489.33608 0 -39205.72112)
(-58496.60609 0 -38199.2671)
(-92427.14912 0 -35553.20856)
(-125571.6912 0 -32302.50978)
(-154792.8304 0 -28264.06327)
(-180598.2632 0 -23772.96057)
(-201917.1839 0 -19097.16145)
(-217953.4429 0 -14533.75659)
(-228183.6844 -6.136491728e-10 -10384.67144)
(-232211.4811 5.645090647e-10 -6846.070719)
(-229988.4188 0 -4021.718638)
(-221986.4086 0 -1928.813973)
(-209176.037 0 -503.2364403)
(-192866.8412 0 376.2620969)
(-174481.3862 0 851.6404526)
(-155336.3281 1.021184976e-10 1053.449358)
(-136497.281 0 1083.258214)
(-118729.2808 0 1019.974753)
(-102493.9538 0 914.6841166)
(-87995.11871 0 795.217487)
(-75267.77541 0 677.4127616)
(-64238.77407 0 569.7326487)
(-54766.36503 0 474.4863581)
(-46683.35619 0 392.6834159)
(-39817.28564 0 323.5251176)
(-34001.00571 0 265.3716802)
(-29082.62443 0 217.1508794)
(-24926.11475 0 177.2372112)
(-21413.41122 0 144.2705249)
(-18443.42781 -9.841595743e-12 117.2264264)
(-15928.91708 -9.781168704e-12 95.01708739)
(-13797.16264 0 76.80651016)
(-11987.14963 0 61.94000433)
(-10446.90966 -4.830039681e-12 49.78320778)
(-9133.245412 0 39.82135288)
(-8010.342404 0 31.70689508)
(-7048.217816 0 25.0863447)
(-6221.669089 0 19.67801333)
(-5509.699983 0 15.25868881)
(-4894.802938 0 11.64475121)
(-4362.359074 0 8.68515556)
(-3900.09631 0 6.272627512)
(-3497.689988 0 4.30192828)
(-3146.481228 0 2.690915436)
(-2839.18606 0 1.374096009)
(-2569.64397 0 0.2977639313)
(-2332.726656 0 -0.5805825245)
(-2124.34042 0 -1.299247525)
(-1941.632312 0 -1.886830163)
(-1783.67532 0 -2.367939751)
(-28853.36669 1.676159064e-08 -41884.34935)
(-62155.30001 0 -40749.45013)
(-97917.53005 3.532174906e-09 -37861.3429)
(-132447.2155 0 -34278.85269)
(-162911.3523 1.037132521e-09 -29859.9127)
(-189415.5359 0 -24967.02917)
(-210916.2555 0 -19956.72222)
(-226567.883 0 -15090.38034)
(-235883.0831 0 -10687.06226)
(-238653.1198 -5.645090647e-10 -6978.646028)
(-235020.1871 0 -4062.608734)
(-225630.8667 0 -1930.585012)
(-211595.2491 2.331079767e-10 -494.7038063)
(-194306.5896 -2.218936483e-10 382.4112255)
(-175207.6112 0 850.7317726)
(-155581.728 0 1042.582512)
(-136451.6508 0 1065.950024)
(-118532.2649 0 1000.904231)
(-102228.4345 0 895.4850956)
(-87710.79771 0 775.8300856)
(-74994.10232 0 659.2897063)
(-63988.10754 -4.341488838e-11 553.2831973)
(-54543.94977 0 459.660187)
(-46490.69321 0 379.6829741)
(-39651.98736 0 312.2083203)
(-33860.49013 0 255.7405136)
(-28964.10692 0 209.0040565)
(-24826.39984 0 170.3393235)
(-21329.88019 0 138.5790677)
(-18373.58402 -9.841595743e-12 112.5382951)
(-15870.58151 0 91.14994007)
(-13748.58905 0 73.69061929)
(-11946.71722 0 59.43582706)
(-10413.20011 0 47.78659619)
(-9105.185675 0 38.24721586)
(-7987.041733 0 30.48165655)
(-7028.837991 0 24.14748872)
(-6205.535407 0 18.97311623)
(-5496.260236 -2.405189498e-12 14.74344236)
(-4883.595925 0 11.2800673)
(-4353.026058 1.206414697e-12 8.450365662)
(-3892.333749 0 6.139782627)
(-3491.222991 0 4.24991616)
(-3141.090669 0 2.702803511)
(-2834.692179 0 1.436005858)
(-2565.899385 -1.227877028e-12 0.3981863218)
(-2329.605458 0 -0.4513956876)
(-2121.735443 0 -1.147628255)
(-1939.456494 0 -1.719337151)
(-1781.847964 0 -2.189389258)
(-30389.15528 0 -44509.15229)
(-66168.47686 0 -43242.43188)
(-103940.0744 -3.532174906e-09 -40098.50674)
(-139989.655 0 -36159.98667)
(-171769.2698 0 -31353.68892)
(-198927.6913 0 -26049.7655)
(-220508.4793 0 -20676.734)
(-235698.916 0 -15535.26494)
(-243982.2951 0 -10909.20356)
(-245342.0016 5.645090647e-10 -7047.872258)
(-240172.6906 0 -4053.603173)
(-229312.7792 0 -1896.452887)
(-214009.7219 0 -462.6927796)
(-195727.2778 -2.218936483e-10 401.97862)
(-175907.2496 0 853.722013)
(-155805.3563 1.021184976e-10 1031.292458)
(-136397.3415 0 1048.611982)
(-118332.67 0 981.4077334)
(-101962.7883 0 874.7833136)
(-87428.24719 0 755.6766989)
(-74724.00273 0 640.5219747)
(-63741.94055 0 536.035153)
(-54326.29968 0 444.475202)
(-46302.55438 0 366.4583345)
(-39491.17022 0 300.672487)
(-33724.35016 0 245.9765659)
(-28849.36408 0 200.7832171)
(-24730.135 0 163.4291847)
(-21249.52278 0 132.8705696)
(-18306.40298 -9.841595743e-12 107.8408454)
(-15814.56877 0 87.30114832)
(-13702.04715 0 70.57777488)
(-11907.99035 0 56.92802164)
(-10380.93516 0 45.76919833)
(-9078.347721 0 36.66336801)
(-7964.766812 0 29.24747008)
(-7010.314512 0 23.19895633)
(-6190.111535 0 18.25840087)
(-5483.395984 0 14.21922665)
(-4872.879543 0 10.90831569)
(-4344.113465 -1.206414697e-12 8.209733828)
(-3884.904825 0 6.002702066)
(-3485.024799 0 4.195341133)
(-3135.916145 0 2.713780483)
(-2830.369685 0 1.498557043)
(-2562.287323 0 0.5006668052)
(-2326.587585 0 -0.3188196954)
(-2119.20972 0 -0.9919458865)
(-1937.337194 0 -1.547211105)
(-1780.06094 0 -2.005827096)
(-32090.00663 0 -46952.12585)
(-70551.36259 0 -45546.126)
(-110527.2605 0 -42160.82101)
(-148196.4447 2.593832687e-09 -37862.66316)
(-181340.9046 -1.037132521e-09 -32665.88476)
(-209170.026 0 -26962.54075)
(-230699.7543 -7.590816911e-10 -21205.57873)
(-245263.7888 0 -15803.41)
(-252409.9924 6.136491728e-10 -11010.72063)
(-252237.9312 -5.645090647e-10 -7037.965789)
(-245410.1219 0 -3990.195919)
(-233002.8169 0 -1825.350739)
(-216397.5351 0 -407.3955038)
(-197104.4648 0 431.0111489)
(-176566.1459 0 857.9418764)
(-156005.9777 1.021184976e-10 1021.581183)
(-136333.3179 1.972231438e-10 1032.366768)
(-118127.9309 0 961.9080671)
(-101695.822 0 853.1569927)
(-87148.61661 0 734.7743999)
(-74457.44364 0 621.2448014)
(-63500.23253 0 518.3034097)
(-54114.09501 0 428.9242075)
(-46119.31754 0 352.9883111)
(-39334.9983 0 289.0505169)
(-33592.72535 0 236.1317357)
(-28738.64326 -1.009620547e-11 192.4953185)
(-24637.41858 0 156.5213694)
(-21172.26704 -9.913505491e-12 127.1451007)
(-18241.93299 0 103.1196955)
(-15760.89995 0 83.4478986)
(-13657.49561 0 67.45113406)
(-11870.90525 0 54.40439701)
(-10350.10433 0 43.73459626)
(-9052.772436 0 35.06259632)
(-7943.519744 0 27.99622278)
(-6992.645588 0 22.23364444)
(-6175.401715 0 17.52704495)
(-5471.128693 0 13.67706485)
(-4862.660839 0 10.52869969)
(-4335.613218 0 7.960423283)
(-3877.815036 0 5.85871476)
(-3479.103274 0 4.136266704)
(-3130.965222 0 2.722674184)
(-2826.225714 0 1.561266403)
(-2558.815522 0 0.6053643038)
(-2323.677579 0 -0.1819921752)
(-2116.764628 0 -0.83116956)
(-1935.276195 0 -1.369165471)
(-1778.315452 0 -1.815727547)
(-33981.6728 0 -49128.51747)
(-75269.11181 0 -47566.84299)
(-117631.879 0 -43968.13563)
(-157082.0663 0 -39326.09736)
(-191634.3769 0 -33728.16448)
(-220129.0089 0 -27648.059)
(-241493.1033 0 -21530.33531)
(-255205.821 0 -15859.01053)
(-261047.9576 0 -10933.43752)
(-259250.5701 0 -6913.339093)
(-250683.2847 0 -3859.467551)
(-236666.2467 0 -1716.07236)
(-218722.6584 0 -336.1379767)
(-198415.6244 -2.218936483e-10 464.4525405)
(-177181.7613 0 865.7174084)
(-156184.4708 1.021184976e-10 1015.164925)
(-136256.9877 0 1017.911397)
(-117915.9574 0 942.1068765)
(-101427.0348 0 831.4360557)
(-86871.75666 0 713.6023333)
(-74195.09491 0 601.553047)
(-63263.38654 0 500.5011919)
(-53907.2608 0 413.2582477)
(-45941.33097 0 339.3161928)
(-39183.733 0 277.404869)
(-33465.52784 0 226.2623556)
(-28631.92768 0 184.1104093)
(-24548.28729 0 149.5740667)
(-21098.11166 0 121.3918816)
(-18180.16331 -9.841595743e-12 98.34259156)
(-15709.58168 0 79.56076432)
(-13614.94202 0 64.29242031)
(-11835.5153 0 51.85183157)
(-10320.71473 0 41.6875284)
(-9028.419367 0 33.4375172)
(-7923.298913 0 26.71959785)
(-6975.834389 0 21.2443514)
(-6161.397709 0 16.77374218)
(-5459.467545 0 13.11448468)
(-4852.964528 0 10.13304744)
(-4327.536934 0 7.698358349)
(-3871.074053 0 5.705112251)
(-3473.468354 0 4.070781603)
(-3126.247837 0 2.728325415)
(-2822.269596 0 1.623707099)
(-2555.492221 -1.227877028e-12 0.7124247033)
(-2320.882274 0 -0.04063935008)
(-2114.405547 0 -0.6642525501)
(-1933.277661 0 -1.18392291)
(-1776.614782 0 -1.617864079)
(-36080.29365 0 -50918.95715)
(-80321.32379 0 -49183.15936)
(-125227.3196 0 -45399.98709)
(-166627.6805 0 -40413.06313)
(-202614.9865 0 -34435.88673)
(-231733.3542 0 -28016.23378)
(-252861.2017 0 -21603.74254)
(-265529.0635 0 -15697.1816)
(-269820.4455 0 -10661.78193)
(-266249.5663 0 -6641.194093)
(-255887.4418 0 -3638.188191)
(-240232.1111 0 -1559.571832)
(-220950.7293 0 -241.2955708)
(-199657.3714 -2.218936483e-10 513.3629399)
(-177754.2368 0 884.9899469)
(-156335.9455 1.021184976e-10 1015.545919)
(-136162.744 0 1006.546689)
(-117694.6166 0 923.1951633)
(-101156.9803 0 810.4290035)
(-86597.05021 0 692.9258894)
(-73936.80129 0 581.7451627)
(-63031.72496 0 482.6940292)
(-53705.53551 0 397.5873349)
(-45768.49672 0 325.5384192)
(-39037.57141 0 265.6879453)
(-33342.64478 0 216.3472287)
(-28529.20003 0 175.7022066)
(-24462.89514 0 142.5944265)
(-21027.00912 0 115.6057304)
(-18121.08952 -9.841595743e-12 93.54245235)
(-15660.6767 0 75.64429266)
(-13574.3937 0 61.09929471)
(-11801.82782 0 49.25298519)
(-10292.77224 0 39.60524589)
(-9005.288493 0 31.77818749)
(-7904.10712 0 25.40939012)
(-6959.889096 0 20.22270685)
(-6148.119702 0 15.99003472)
(-5448.423747 0 12.53017873)
(-4843.792577 0 9.715737216)
(-4319.895814 0 7.41795152)
(-3864.695186 0 5.537301086)
(-3468.133616 0 3.995385407)
(-3121.777138 0 2.728305983)
(-2818.513455 0 1.684495839)
(-2552.327867 0 0.8214629212)
(-2318.20983 0 0.1057768792)
(-2112.137891 0 -0.4898230421)
(-1931.344102 0 -0.989356649)
(-1774.959303 0 -1.409379504)
(-38416.86814 0 -52110.21063)
(-85674.07066 0 -50174.4461)
(-133298.2769 0 -46293.17971)
(-176810.7637 0 -40971.93134)
(-214207.8655 0 -34661.83149)
(-243859.9357 0 -27945.89358)
(-264646.6078 0 -21342.85511)
(-276121.1694 0 -15299.90832)
(-278664.3958 0 -10213.32965)
(-273157.6294 0 -6231.698429)
(-260924.8373 0 -3320.08586)
(-243634.3423 0 -1341.218038)
(-223050.2982 0 -104.7346779)
(-200807.4233 -2.218936483e-10 590.1189566)
(-178264.4221 0 920.8639367)
(-156446.625 1.021184976e-10 1025.011487)
(-136042.8742 0 998.3494388)
(-117460.6638 0 906.3334544)
(-100884.1744 0 790.6738048)
(-86323.09952 0 672.8970044)
(-73681.53373 0 562.318632)
(-62805.19641 0 465.0243593)
(-53508.91951 0 381.9476541)
(-45600.74838 0 311.8544036)
(-38896.47388 0 253.9770713)
(-33224.31772 0 206.4069201)
(-28430.51268 0 167.3402295)
(-24381.06167 0 135.6008068)
(-20959.0339 0 109.7914496)
(-18064.7256 -9.841595743e-12 88.74105816)
(-15614.08881 0 71.69947611)
(-13535.79208 0 57.86989552)
(-11769.83421 0 46.60820997)
(-10266.30799 0 37.48307808)
(-8983.385006 0 30.07989451)
(-7885.947743 0 24.06121614)
(-6944.812049 0 19.1641206)
(-6135.583572 0 15.16766201)
(-5438.015595 0 11.91636197)
(-4835.154995 0 9.271979236)
(-4312.705183 0 7.115049732)
(-3858.695671 0 5.35158585)
(-3463.116989 0 3.907052526)
(-3117.571018 0 2.720462594)
(-2814.974446 0 1.742472647)
(-2549.338194 -1.227877028e-12 0.9323244843)
(-2315.674063 0 0.2579836075)
(-2109.973474 0 -0.3065738656)
(-1929.485813 0 -0.7840695516)
(-1773.35813 0 -1.18938552)
(-41026.43074 0 -52393.50133)
(-91217.13263 0 -50225.16911)
(-141707.9588 0 -46358.93967)
(-187546.0333 0 -40778.74165)
(-226325.6643 0 -34249.47998)
(-256351.6297 0 -27332.4136)
(-276624.7737 0 -20653.32976)
(-286796.1166 0 -14607.96696)
(-287452.7779 0 -9563.859623)
(-279892.6551 0 -5685.538788)
(-265740.4381 0 -2907.624719)
(-246826.1538 0 -1057.63906)
(-224981.6101 0 74.03698394)
(-201834.33 0 692.6028313)
(-178690.6818 0 972.0622512)
(-156500.4557 1.021184976e-10 1042.125375)
(-135889.4127 0 994.1161325)
(-117212.9324 0 892.4147264)
(-100606.8078 0 772.8492365)
(-86049.23155 0 653.4458186)
(-73429.07488 0 543.6019941)
(-62582.98724 0 447.8115663)
(-53317.3105 0 366.4069908)
(-45438.07919 0 298.3563019)
(-38760.16955 0 242.3645594)
(-33110.41841 0 196.4206431)
(-28335.83704 0 158.966894)
(-24302.76244 0 128.5877568)
(-20894.14978 0 103.903739)
(-18011.05417 -9.841595743e-12 83.88646654)
(-15569.81192 0 67.70035472)
(-13499.14282 0 54.58669)
(-11739.53281 0 43.92092581)
(-10241.31232 0 35.30882328)
(-8962.709815 0 28.32863209)
(-7868.823949 0 22.66149007)
(-6930.598459 0 18.05692537)
(-6123.798982 0 14.30170934)
(-5428.266312 0 11.26139796)
(-4827.066299 0 8.791121159)
(-4305.98012 0 6.77995314)
(-3853.092911 0 5.139271251)
(-3458.43775 0 3.798293662)
(-3113.649646 0 2.698780471)
(-2811.672352 0 1.793368837)
(-2546.541009 -1.227877028e-12 1.042716452)
(-2313.288929 0 0.4158296846)
(-2107.920396 0 -0.1123928991)
(-1927.70354 0 -0.5635224307)
(-1771.806374 0 -0.9506129955)
(-43957.24676 0 -51276.49518)
(-96870.13795 1.145606402e-08 -48874.74469)
(-150271.4561 0 -45211.56201)
(-198574.6468 0 -39500.03179)
(-238679.0787 0 -32940.79296)
(-268975.4388 8.72492374e-10 -26010.17158)
(-288550.0434 -7.590816911e-10 -19384.12736)
(-297306.9904 0 -13517.91173)
(-296006.2893 0 -8666.305617)
(-286326.1007 0 -4977.443195)
(-270245.3124 -2.625550867e-10 -2388.717207)
(-249746.9548 2.464598854e-10 -705.6800658)
(-226701.6696 0 295.9894099)
(-202712.2409 0 822.1539095)
(-179015.2918 0 1038.324272)
(-156488.429 1.021184976e-10 1066.436947)
(-135699.805 9.861157192e-11 995.8160968)
(-116947.8869 9.557346841e-11 882.713684)
(-100321.0967 0 757.5732871)
(-85773.27245 0 635.4197601)
(-73179.32517 0 525.7970585)
(-62364.38295 0 431.2465996)
(-53130.14676 0 351.2373729)
(-45280.4849 0 285.0856307)
(-38628.31506 0 230.8973681)
(-33000.78981 0 186.5266369)
(-28245.27207 0 150.63796)
(-24227.84646 0 121.5868316)
(-20832.30091 0 98.004234)
(-17960.14687 0 79.00906644)
(-15527.8504 0 63.66598714)
(-13464.47624 0 51.25593831)
(-11710.92948 0 41.19679405)
(-10217.7627 0 33.08961483)
(-8943.26383 4.818700871e-12 26.53035098)
(-7852.746768 0 21.21356995)
(-6917.279521 0 16.89842642)
(-6112.781213 -2.403668045e-12 13.39583332)
(-5419.174949 0 10.56526845)
(-4819.543253 0 8.271524806)
(-4299.742911 1.206414697e-12 6.410115364)
(-3847.912159 0 4.89728185)
(-3454.123734 1.213068337e-12 3.665925362)
(-3110.043041 0 2.660472408)
(-2808.638598 -1.222328066e-12 1.835296232)
(-2543.968126 0 1.151993234)
(-2311.085768 0 0.5798817521)
(-2106.009485 -1.240717983e-12 0.09385556294)
(-1926.028887 0 -0.3274500564)
(-1770.33563 0 -0.6957151534)
(-47163.22426 0 -48020.63023)
(-102320.6428 0 -45482.1071)
(-158634.3655 0 -42383.34376)
(-209579.5261 0 -36789.69932)
(-250873.5475 0 -30433.43178)
(-281385.9223 0 -23750.11323)
(-300077.1686 0 -17378.89529)
(-307267.37 0 -11874.01084)
(-304048.1223 0 -7413.302493)
(-292306.8941 5.645090647e-10 -4050.057941)
(-274339.8696 0 -1728.012773)
(-252327.4643 0 -260.0181506)
(-228167.0746 0 580.1437232)
(-203406.9338 -2.218936483e-10 990.1758619)
(-179212.7929 0 1126.012024)
(-156399.6215 1.021184976e-10 1105.365056)
(-135469.814 0 1008.125913)
(-116661.2377 0 880.3323884)
(-100024.2762 0 746.5300569)
(-85493.50066 0 620.6729377)
(-72930.49672 0 510.122254)
(-62148.74994 0 415.9906556)
(-52946.92973 0 337.0874192)
(-45127.38908 0 272.4282865)
(-38500.89903 0 219.7974094)
(-32895.3182 0 176.9434766)
(-28158.50034 0 142.4530028)
(-24156.30849 0 114.6503016)
(-20773.44457 0 92.16443443)
(-17911.8641 0 74.1291777)
(-15488.12696 0 59.59832746)
(-13431.7584 0 47.8590736)
(-11684.02534 0 38.40958825)
(-10195.65025 0 30.80340962)
(-8925.03589 0 24.66234019)
(-7837.691197 0 19.69501228)
(-6904.852073 0 15.66762626)
(-6102.548402 0 12.42240814)
(-5410.746705 0 9.804798241)
(-4812.59159 0 7.69121486)
(-4294.003547 -1.206414697e-12 5.984265129)
(-3843.168534 0 4.605295078)
(-3450.19531 0 3.49106869)
(-3106.776269 0 2.588811692)
(-2805.901191 1.222328066e-12 1.854627348)
(-2541.646933 0 1.250808298)
(-2309.085585 0 0.7464562653)
(-2104.247542 0 0.315720177)
(-1924.446843 0 -0.06318413183)
(-1768.913349 0 -0.4006082444)
(-50443.51264 0 -42194.82319)
(-106985.8591 0 -39478.04778)
(-166106.6692 3.532174906e-09 -37269.71831)
(-220020.7985 0 -32155.54486)
(-262402.9694 0 -26371.82148)
(-293080.1673 0 -20317.50712)
(-310830.1435 7.590816911e-10 -14523.32234)
(-316331.6885 0 -9564.595594)
(-311206.4766 0 -5670.675772)
(-297565.3469 0 -2810.711439)
(-277871.0971 0 -874.3311381)
(-254473.5995 0 309.7620473)
(-229305.4166 0 942.6810532)
(-203865.5599 -2.218936483e-10 1207.289563)
(-179257.1385 0 1248.461893)
(-156221.0337 1.021184976e-10 1170.936777)
(-135187.1571 0 1039.358228)
(-116342.538 0 890.7758367)
(-99709.71329 9.292980586e-11 744.1314343)
(-85206.57891 4.531075074e-11 612.1656348)
(-72679.57641 0 498.9261815)
(-61933.9834 0 403.6434898)
(-52766.38516 4.263799363e-11 325.1381262)
(-44977.68881 0 261.357521)
(-38377.14558 -2.067999104e-11 209.7057874)
(-32793.51194 0 168.1311024)
(-28075.16948 0 134.8243197)
(-24087.92271 0 108.0733392)
(-20717.43052 0 86.60269182)
(-17866.07793 0 69.44233251)
(-15450.53117 9.781168704e-12 55.66431752)
(-13400.93561 0 44.55927081)
(-11658.81619 0 35.67927515)
(-10174.96315 4.830039681e-12 28.5468959)
(-8908.02568 0 22.80437696)
(-7823.673873 0 18.17321421)
(-6893.329798 0 14.42826446)
(-6093.109085 0 11.42762019)
(-5402.99981 0 9.01590267)
(-4806.23469 0 7.078012181)
(-4288.7902 0 5.523017911)
(-3838.89598 1.209402773e-12 4.27751064)
(-3446.693621 0 3.282499648)
(-3103.899144 0 2.488418073)
(-2803.519891 0 1.853294671)
(-2539.648132 0 1.339759454)
(-2307.371091 0 0.9153761075)
(-2102.731755 0 0.5509549516)
(-1923.073916 -6.239889687e-13 0.2206090997)
(-1767.666779 0 -0.08768541536)
(-54104.94852 0 -31269.21279)
(-110824.4905 0 -29299.95926)
(-172163.9914 0 -28603.24424)
(-229133.0377 0 -24434.46635)
(-272407.567 0 -19726.8365)
(-303266.5912 0 -14803.23247)
(-320244.5983 0 -10094.955)
(-324154.0881 0 -6083.962667)
(-317161.7174 -6.136491728e-10 -3043.300511)
(-301785.0656 5.645090647e-10 -928.5790687)
(-280614.6578 0 419.4385078)
(-256044.1902 0 1173.377673)
(-230032.1973 0 1503.053142)
(-204048.3424 -2.218936483e-10 1562.667517)
(-179125.6862 0 1470.745892)
(-155930.4004 2.042369953e-10 1306.857594)
(-134832.8471 0 1119.246148)
(-115978.5777 0 933.8120315)
(-99368.62619 0 764.9620535)
(-84905.87956 0 619.9793542)
(-72421.44084 0 499.1430491)
(-61716.5579 0 399.3482)
(-52586.43508 0 318.8278198)
(-44829.4043 0 254.2563832)
(-38255.69828 0 202.4172693)
(-32694.64981 0 161.2766098)
(-27994.50757 0 128.554428)
(-24022.14527 0 102.4178775)
(-20663.93582 0 81.67211159)
(-17822.49969 0 65.16993126)
(-15414.8916 -4.890584352e-12 51.99164985)
(-13371.83076 0 41.43302986)
(-11635.10068 0 33.03330206)
(-10155.56752 -4.830039681e-12 26.31821542)
(-8892.129197 0 20.93418311)
(-7810.618322 0 16.60514746)
(-6882.638846 0 13.1352437)
(-6084.388265 0 10.36509082)
(-5395.876687 0 8.150352796)
(-4800.424952 0 6.382829693)
(-4284.064483 0 4.977218435)
(-3835.066787 0 3.865199612)
(-3443.603749 0 2.99244613)
(-3101.411081 0 2.313530978)
(-2801.507371 0 1.789755346)
(-2537.990908 0 1.385600414)
(-2305.951908 0 1.068278456)
(-2101.434285 0 0.8055127244)
(-1921.811512 0 0.5665598761)
(-1766.437317 0 0.336473294)
(-55475.2186 0 -24251.68545)
(-111255.2934 0 -21559.33508)
(-175460.7064 0 -21681.34077)
(-235946.1028 2.593832687e-09 -17751.17733)
(-279922.0922 0 -13509.09578)
(-310866.9251 0 -9222.373932)
(-327181.2712 -7.590816911e-10 -5354.069664)
(-329771.0965 0 -2202.32905)
(-321204.2251 6.136491728e-10 25.41251722)
(-304399.923 -5.645090647e-10 1396.489165)
(-282091.0682 0 2110.219929)
(-256683.1792 0 2365.10553)
(-230106.7232 0 2327.596256)
(-203786.1307 0 2126.566746)
(-178693.142 0 1852.409276)
(-155436.4491 1.021184976e-10 1562.698147)
(-134340.5072 1.972231438e-10 1288.324052)
(-115524.1571 0 1043.130625)
(-98971.59649 0 835.556414)