/*--------------------------------*- C++ -*----------------------------------*\
  =========                 |
  \\      /  F ield         | OpenFOAM: The Open Source CFD Toolbox
   \\    /   O peration     | Website:  https://openfoam.org
    \\  /    A nd           | Version:  7
     \\/     M anipulation  |
\*---------------------------------------------------------------------------*/
FoamFile
{
    version     2.0;
    format      ascii;
    class       volScalarField;
    location    "0.0018";
    object      rho;
}
// * * * * * * * * * * * * * * * * * * * * * * * * * * * * * * * * * * * * * //

dimensions      [1 -3 0 0 0 0 0];

internalField   nonuniform List<scalar> 
1167
(
933.9265886
933.8540233
933.698508
933.4688112
933.1702826
932.8071842
932.3841352
931.905035
931.3739442
930.7947858
930.1713053
929.5072267
928.806153
928.0715685
927.3068576
926.5153155
925.7001634
933.8082602
933.7357461
933.5803433
933.3509241
933.0526609
932.6899859
932.2673441
931.7888465
931.2584623
930.6801098
930.0575669
929.3945662
928.6947199
927.961523
927.1983701
926.4085663
925.5954083
924.7621429
923.9116859
923.0470306
922.1712451
921.2869018
920.396784
919.503468
918.609295
917.7167765
916.827847
915.9447016
915.0691775
914.2029407
913.3477739
912.5049618
911.6758469
910.8616638
910.0632577
909.2814974
908.5172551
907.7710055
907.0431987
906.3341739
905.6441571
904.9732397
904.3214611
903.6887174
903.0748313
902.4794587
901.9023021
901.3428657
900.800707
900.2752351
933.6900547
933.6175955
933.4623133
933.2332089
932.9352014
932.5729851
932.1507555
931.6728865
931.1432375
930.5657226
929.9441519
929.2822659
928.5836843
927.8519133
927.0903572
926.3023323
925.491241
924.6601237
923.8120039
922.9499692
922.0768867
921.1954254
920.308423
919.4182831
918.5275002
917.6383952
916.7529776
915.8734819
915.0015895
914.1390767
913.2875823
912.4484481
911.6230384
910.8124722
910.0176377
909.2393953
908.4786435
907.7357731
907.0112682
906.3054649
905.618585
904.9507183
904.3019052
903.6720502
903.0609536
902.4682788
901.8937459
901.3368509
900.7971552
900.2740693
933.5719769
933.4995765
933.3445336
933.1156454
932.8179094
932.4561704
932.0344852
931.5571609
931.0282759
930.4516303
929.8310661
929.1703308
928.4730511
927.7427436
926.9828218
926.1967144
925.3876215
924.5586835
923.71295
922.8535356
921.9831724
921.1046753
920.2207284
919.3337644
918.4463652
917.560663
916.6787998
915.8028722
914.9345885
914.0757724
913.2279212
912.3924337
911.5706961
910.7637138
909.9724177
909.1976967
908.4403666
907.7008443
906.9796111
906.2770005
905.5932297
904.9283872
904.2825266
903.6555293
903.047197
902.4571921
901.8852608
901.3308861
900.793633
900.2729132
933.4540319
933.3817639
933.2269173
932.9982393
932.7008897
932.339547
931.9184415
931.4417253
930.913583
930.3378386
929.7183148
929.0587658
928.362825
927.6340186
926.87584
926.0916097
925.2845488
924.4578203
923.6145701
922.757725
921.890097
921.0145892
920.1336911
919.2499257
918.3658804
917.4835702
916.6052535
915.7328635
914.8681654
914.0130194
913.1687832
912.3369212
911.518814
910.7153836
909.9275939
909.1563679
908.4024223
907.6662176
906.9482266
906.24878
905.5680909
904.9062497
904.2633187
903.6391479
903.0335563
902.4462104
901.8768472
901.3249715
900.7901404
900.2717669
933.3363444
933.2641522
933.1094509
932.8809957
932.5840766
932.2231206
931.8026184
931.3266117
930.7992008
930.2243526
929.6059031
928.9475757
928.2530099
927.5258105
926.7693722
925.9870188
925.182022
924.3575506
923.516789
922.6625338
921.7976764
920.9251458
920.0473021
919.1667935
918.2860368
917.4071073
916.5323209
915.6634492
914.8023603
913.9508094
913.1101615
912.281936
911.4673857
910.6674768
909.8831625
909.1154003
908.3648087
907.6318918
906.9171138
906.2208031
905.5431686
904.8843208
904.2442754
903.6229066
903.0200321
902.4353224
901.8685054
901.3191074
900.7866776
900.2706303
933.218809
933.1466872
932.9921398
932.7639502
932.4674464
932.1069305
931.6870207
931.2117489
930.6851751
930.1112561
929.4938815
928.836819
928.1437104
927.4180896
926.663387
925.8829426
925.0800402
924.2579332
923.4196044
922.56796
921.7059577
920.8363355
919.9615521
919.0842993
918.2068252
917.3313073
916.4599935
915.5946212
914.737131
913.8891359
913.0520493
912.2274308
911.4164073
910.6199897
909.8391355
909.0747915
908.3275242
907.5978657
906.8862722
906.1930696
905.5184688
904.8625821
904.2253969
903.6068058
903.0066249
902.4245286
901.8602356
901.3132939
900.7832448
900.2695036
933.1014217
933.0293743
932.8749895
932.647175
932.351004
931.9910359
931.5716536
931.0971423
930.5714342
929.9985153
929.3822811
928.7265056
928.0348381
927.3108189
926.5578854
925.779382
924.9786423
924.158885
923.3230121
922.4739967
921.6148603
920.7481532
919.8764634
919.0024349
918.1282372
917.2561519
916.3882632
915.5263714
914.672457
913.8279928
912.994441
912.173401
911.3658753
910.5729194
909.7955229
909.0345399
908.2905675
907.5641387
906.8557015
906.1655795
905.4940031
904.8410339
904.2066838
903.590846
902.993335
902.4138292
901.8520383
901.3075315
900.7798421
900.2683868
932.9841876
932.9122188
932.7580421
932.5305771
932.2347549
931.8753542
931.4565557
930.9827968
930.4579828
929.8860949
929.2710335
928.6165777
927.9263843
927.2040002
926.4528685
925.6763375
924.8778469
924.0604015
923.2270054
922.3807088
921.52438
920.660594
919.7920492
918.9211928
918.0502649
917.1816008
916.3171223
915.4587156
914.6083319
913.7673746
912.9373675
912.1198422
911.3157861
910.5262632
909.752295
908.994644
908.2539378
907.5307103
906.8254017
906.1383357
905.4697542
904.8196767
904.1881367
903.5750278
902.9801631
902.4032249
901.8439163
901.3018202
900.7764696
900.2672799
932.8671122
932.795226
932.6413563
932.4141615
932.1187258
931.7598912
931.3417905
930.8687165
930.3448254
929.7739989
929.1601419
928.5070381
927.8183514
927.0976348
926.3483365
925.573898
924.7775912
923.9624801
923.1315805
922.2880358
921.4345103
920.5736517
919.708253
918.8405659
917.972932
917.1076465
916.2465637
915.3916664
914.5447496
913.707276
912.8808101
912.066751
911.2661369
910.4800189
909.7094502
908.9551027
908.2176346
907.4975804
906.7953727
906.1113604
905.4457228
904.7985113
904.1697563
903.559352
902.9671099
902.3927162
901.8358729
901.2961605
900.7731276
900.266183
932.7502467
932.6785253
932.5248458
932.2979334
932.0030005
931.6446514
931.2272706
930.7549879
930.2319662
929.6622309
929.0496094
928.3978893
927.7107413
926.9917238
926.2443494
925.4719863
924.6778733
923.8651196
923.036795
922.1959552
921.3452456
920.4873778
919.6250668
918.7605469
917.8962411
917.0342822
916.1765807
915.3251748
914.4817047
913.6476922
912.8247426
912.014124
911.2169252
910.4342256
909.6669873
908.9159155
908.1816575
907.4647492
906.7656153
906.0846295
905.4219096
904.7775385
904.1515435
903.5438192
902.9541759
902.3823037
901.8279031
901.2905527
900.7698163
900.2650962
932.6336326
932.5620008
932.4085156
932.1818978
931.8874835
931.5296394
931.1130003
930.6415663
930.1194791
929.5507945
928.9394391
928.2891341
927.6035567
926.8863308
926.1408878
925.3705852
924.5786912
923.768317
922.9426211
922.1044624
921.2565797
920.4017377
919.542484
918.6811289
917.8201441
916.9615014
916.107172
915.2592351
914.4191921
913.5886284
912.7691615
911.9619582
911.1681487
910.3888439
909.6249055
908.8770821
908.1460071
907.4322176
906.7361519
906.0581435
905.3983155
904.7567592
904.1334993
903.5284306
902.9413623
902.3719882
901.8200076
901.2849973
900.7665359
900.2640195
932.517192
932.4456534
932.2923708
932.0661364
931.7721802
931.4149391
930.9989839
930.5284235
930.0073458
929.4397956
928.8296959
928.1808374
927.4968965
926.7814342
926.0379081
925.2696929
924.4800421
923.6721285
922.8490174
922.0135527
921.1685174
920.3166954
919.4605
918.6023422
917.7446339
916.8892976
916.0383895
915.1938422
914.3572073
913.5301162
912.7140637
911.9102514
911.1198058
910.3438693
909.5832045
908.8386026
908.1106839
907.3999865
906.7069695
906.031904
905.3749419
904.736175
904.115625
903.5131875
902.9286701
902.3617706
901.8121873
901.2794948
900.7632867
900.2629532
932.4009298
932.3294882
932.1764164
931.9506224
931.6570956
931.3005218
930.8852257
930.4155637
929.8955224
929.3291498
928.7203724
928.072986
927.3906707
926.6769923
925.93541
925.1693076
924.3819231
923.5765201
922.755979
921.9232199
921.0811103
920.232247
919.3791103
918.5241855
917.6697046
916.817665
915.9701649
915.1289914
914.2957463
913.4721069
912.6594467
911.8590024
911.0719219
910.2993007
909.5418838
908.8004774
908.0756886
907.368064
906.6780618
906.005913
905.3517909
904.7157878
904.0979226
903.4980914
902.9161007
902.3516522
901.804443
901.2740458
900.7600693
900.2618972
932.2848509
932.2135101
932.0607394
931.8353156
931.542234
931.1863458
930.7717947
930.3029908
929.7840125
929.2188452
928.6114183
927.9655325
927.2848716
926.5730048
925.8333927
925.0694277
924.2844229
923.4814575
922.6635018
921.8334604
920.9942852
920.148386
919.2983088
918.4466124
917.5953516
916.7465989
915.9024935
915.0646786
914.2348057
913.414598
912.6053089
911.8082098
911.0244893
910.255138
909.5009439
908.7627073
908.0410225
907.336468
906.649431
905.9801728
905.3288649
904.6956001
904.0803943
903.4831446
902.9036562
902.3416346
901.7967761
901.2686514
900.7568841
900.2608518
932.1689602
932.0977674
931.9453016
931.7202212
931.427665
931.072415
930.6586792
930.1907086
929.672819
929.1088841
928.5028354
927.8584782
927.1794996
926.4694718
925.731856
924.9700995
924.1874514
923.3869382
922.5715851
921.7443463
920.9080342
920.0651057
919.2181436
918.3696183
917.5215721
916.6761572
915.83537
915.0008997
914.1744325
913.3575871
912.5516483
911.7578724
910.9774879
910.2113822
909.4603861
908.7252942
908.0066879
907.3051775
906.6210799
905.9546866
905.3061672
904.6756149
904.0630433
903.4683499
902.8913389
902.3317199
901.7891882
901.2633127
900.7537318
900.2598172
932.0533526
931.9822994
931.8300689
931.6053439
931.3133877
930.9587334
930.5458341
930.0788329
929.5619448
928.9992688
928.3946255
927.7518245
927.0745554
926.3663933
925.6308313
924.8713229
924.0910008
923.2929587
922.480224
921.6558126
920.8223536
919.9824008
919.1385792
918.2931983
917.4483607
916.6062771
915.7687917
914.9376518
914.1145824
913.3010724
912.498464
911.7080043
910.9309185
910.1680349
909.4202127
908.6882407
907.9727095
907.2741961
906.5930124
905.9294584
905.2837018
904.6558365
904.0458734
903.4537109
902.8791523
902.321911
901.7816815
901.2580314
900.7506134
900.2587938
931.9379741
931.867033
931.7150458
931.4906881
931.1993462
930.8453055
930.4332632
929.9672588
929.4514822
928.8900015
928.2867903
927.6455722
926.9700393
926.2638096
925.5303572
924.7730456
923.9950685
923.1995142
922.3894763
921.5678404
920.7372404
919.9002744
919.0595865
918.2173475
917.375713
916.5369511
915.7027561
914.8749328
914.055245
913.2450529
912.4457556
911.6586251
910.8847823
910.1250982
909.3804264
908.6515504
907.9390822
907.2435282
906.5652333
905.9044932
905.261474
904.6362699
904.0288896
903.4392323
902.8671003
902.3122113
901.774259
901.2528094
900.7475302
900.257782
931.8227985
931.7519733
931.6002377
931.3763796
931.0855444
930.7322393
930.3209702
929.8559855
929.3413713
928.7811971
928.1793951
927.5397781
926.8660344
926.1617378
925.4303581
924.6752647
923.8996515
923.1066011
922.2992967
921.4804251
920.6526909
919.8187845
918.9811611
918.1420619
917.3036941
916.4681766
915.6372618
914.8127793
913.9964184
913.1895279
912.3935236
911.6097023
910.8390817
910.0825754
909.3410315
908.6152282
907.9057988
907.2131799
906.5377492
905.879798
905.2394907
904.6169223
904.0120988
903.4249206
902.855189
902.3026258
901.7669245
901.2476498
900.7444839
900.2567822
931.7078305
931.637125
931.4856506
931.2623046
930.9719864
930.6194432
930.2089587
929.7450158
929.2315877
928.6727452
928.0724232
927.4344365
926.7624762
926.0601156
925.3308318
924.5779777
923.804748
923.0142999
922.2096564
921.3935607
920.5686997
919.7378562
918.9032983
918.0673366
917.2322319
916.3999499
915.5723055
914.7511697
913.9381008
913.1344964
912.3417728
911.5612363
910.7938183
910.0404692
909.3020319
908.5793093
907.8728632
907.1831561
906.5105655
905.8553788
905.2177584
904.5978
903.9955075
903.4107819
902.843424
902.2931597
901.7596824
901.2425555
900.7414764
900.2557953
931.5930753
931.5224932
931.3714103
931.1484631
930.8586762
930.5069118
930.0973244
929.6343517
929.1221326
928.5646453
927.9658276
927.3294956
926.6593424
925.9589407
925.2317744
924.4811802
923.7103759
922.9225318
922.1205499
921.3072409
920.4853195
919.6574808
918.8259902
917.9931767
917.161318
916.3322645
915.507881
914.6900798
913.8802895
913.0799566
912.2905385
911.5132251
910.7489915
909.9987803
909.263429
908.5437667
907.8402797
907.1534617
906.4836879
905.8312416
905.1962835
904.5789098
903.9791221
903.3968225
902.8318111
902.2838181
901.7525366
901.2375297
900.7385095
900.2548216
931.478547
931.4081685
931.2573969
931.0348587
930.7457073
930.3946471
929.9859991
929.5240074
929.0130052
928.4568957
927.8596052
927.224951
926.5566274
925.8582062
925.1331781
924.3848623
923.6165647
922.8312733
922.0319646
921.2214515
920.4024996
919.5776423
918.7492194
917.9196087
917.0909339
916.2651014
915.4440067
914.6294901
913.8229646
913.0258876
912.239757
911.4656481
910.7045795
909.9574856
909.2252073
908.5085742
907.8080232
907.1240708
906.45709
905.8073601
905.1750404
904.5602277
903.9629214
903.3830245
902.8203362
902.2745908
901.7454811
901.2325731
900.7355819
900.253861
931.3643135
931.2940643
931.1435719
930.921453
930.6329725
930.2826102
929.8749195
929.4140299
928.9041648
928.349455
927.7537142
927.1207598
926.4542874
925.7578671
925.0349955
924.2890615
923.5231971
922.7404686
921.9438396
921.1361665
920.3201441
919.4982628
918.672899
917.8464783
917.0209712
916.1983397
915.3805347
914.5692511
913.7659608
912.9721084
912.1892309
911.418292
910.6603539
909.9163438
909.1871371
908.4734744
907.7758347
907.0947285
906.4305274
905.7835075
905.1538263
904.5415809
903.9467672
903.3692865
902.808934
902.2654442
901.7385059
901.2276873
900.7327016
900.2529172
931.2221749
931.152089
931.00195
930.7804177
930.4927281
930.1432941
929.7367671
929.2772691
928.7689634
928.2159166
927.6221003
926.991285
926.3271401
925.6332645
924.9131758
924.1701353
923.4073186
922.6278112
921.8345518
921.030499
920.2181236
919.3999972
918.5785575
917.7561124
916.9346256
916.1160661
915.3024538
914.4953048
913.696164
912.906526
912.1277763
911.3609393
910.607063
909.8670635
909.1418539
908.432065
907.738221
907.0608186
906.4002204
905.7566895
905.1303714
904.5213514
903.9296085
903.3550299
902.7973947
902.2564283
901.7318103
901.2231131
900.7300608
900.2520633
)
;

boundaryField
{
    front_top
    {
        type            wedge;
    }
    front_middle
    {
        type            wedge;
    }
    front_bottom
    {
        type            wedge;
    }
    back_top
    {
        type            wedge;
    }
    back_middle
    {
        type            wedge;
    }
    back_bottom
    {
        type            wedge;
    }
    axis_top
    {
        type            symmetryPlane;
    }
    axis_middle
    {
        type            symmetryPlane;
    }
    axis_bottom
    {
        type            symmetryPlane;
    }
    wall_top
    {
        type            calculated;
        value           nonuniform 0();
    }
    wall_middle
    {
        type            calculated;
        value           nonuniform 0();
    }
    wall_bottom
    {
        type            calculated;
        value           uniform 900.0184441;
    }
    inlet
    {
        type            calculated;
        value           nonuniform 0();
    }
    outlet
    {
        type            calculated;
        value           nonuniform List<scalar> 
50
(
931.2221749
931.152089
931.00195
930.7804177
930.4927281
930.1432941
929.7367671
929.2772691
928.7689634
928.2159166
927.6221003
926.991285
926.3271401
925.6332645
924.9131758
924.1701353
923.4073186
922.6278112
921.8345518
921.030499
920.2181236
919.3999972
918.5785575
917.7561124
916.9346256
916.1160661
915.3024538
914.4953048
913.696164
912.906526
912.1277763
911.3609393
910.607063
909.8670635
909.1418539
908.432065
907.738221
907.0608186
906.4002204
905.7566895
905.1303714
904.5213514
903.9296085
903.3550299
902.7973947
902.2564283
901.7318103
901.2231131
900.7300608
900.2520633
)
;
    }
    procBoundary0to1
    {
        type            processor;
        value           nonuniform List<scalar> 
51
(
934.045035
933.9724221
933.8168021
933.5869435
933.2880615
932.9246693
932.501123
932.0214461
931.4896796
930.9098174
930.2854645
929.6203288
928.9180088
928.1820449
927.4158161
926.6225752
925.8055348
924.8647429
924.8647429
924.0119783
923.1447759
922.2662549
921.3790443
920.4858187
919.5893285
918.6918101
917.795815
916.9033588
916.0165431
915.1373633
914.2674149
913.4085047
912.5619824
911.7291345
910.9112943
910.1092824
909.3239703
908.5562043
907.8065433
907.0754039
906.363128
905.6699462
904.9959512
904.3411814
903.7055348
903.0888328
902.4907316
901.9109293
901.3489305
900.8042883
900.2764106
)
;
    }
}


// ************************************************************************* //
