/*--------------------------------*- C++ -*----------------------------------*\
  =========                 |
  \\      /  F ield         | OpenFOAM: The Open Source CFD Toolbox
   \\    /   O peration     | Website:  https://openfoam.org
    \\  /    A nd           | Version:  7
     \\/     M anipulation  |
\*---------------------------------------------------------------------------*/
FoamFile
{
    version     2.0;
    format      ascii;
    class       volScalarField;
    location    "0.0018";
    object      T;
}
// * * * * * * * * * * * * * * * * * * * * * * * * * * * * * * * * * * * * * //

dimensions      [0 0 0 1 0 0 0];

internalField   nonuniform List<scalar> 
1167
(
459.4148791
459.5257087
459.7632865
460.1143347
460.5708376
461.1264731
461.7743943
462.5088713
463.3239346
464.2138274
465.1730609
466.1961704
467.2778638
468.4130146
469.5966303
470.8238328
472.0898339
459.5956119
459.7063913
459.9438574
460.2945701
460.7507822
461.3059094
461.9533696
462.687106
463.5012874
464.3901616
465.3481878
466.3698853
467.4499455
468.5832223
469.7647047
470.9894967
472.2526893
473.5494219
474.8753202
476.225859
477.5963641
478.9829053
480.3811907
481.7872221
483.1973409
484.6075908
486.014899
487.4157551
488.8071912
490.1864902
491.5507291
492.8977604
494.2253303
495.5313435
496.8143185
498.0727283
499.3050323
500.5103264
501.687743
502.8365934
503.9563717
505.0467924
506.1076569
507.1390031
508.1409936
509.1140682
510.058597
510.9752808
511.8647401
512.7278455
459.7762027
459.8869263
460.1242681
460.4745879
460.9305239
461.4850883
462.132079
462.8650345
463.6782891
464.566095
465.5228594
466.5430868
467.6214542
468.7527961
469.932083
471.1543989
472.4146673
473.7083455
475.0308884
476.377621
477.7441798
479.1264809
480.5201446
481.9214413
483.3264691
484.7315706
486.1335531
487.5288423
488.9147168
490.2882837
491.6468484
492.9881729
494.3099685
495.6103255
496.8876943
498.140562
499.3673468
500.5672804
501.7394422
502.8831491
503.9979036
505.0834238
506.1395106
507.1661896
508.1636606
509.132353
510.0726085
510.9851428
511.8705706
512.7297615
459.956644
460.0673058
460.3043416
460.6544192
461.1100546
461.6640271
462.3103453
463.0426475
463.8549302
464.7416179
465.6970663
466.7157667
467.7923823
468.921729
470.0987602
471.3183824
472.5758298
473.8664016
475.1855098
476.528433
477.8910164
479.2689448
480.6580769
482.0546353
483.4545785
484.8545443
486.2511302
487.6409784
489.0213244
490.389199
491.7421329
493.0777978
494.3938692
495.6886203
496.9604338
498.2077517
499.4291262
500.623748
501.7907022
502.9293112
504.0390858
505.1197475
506.1710769
507.1931384
508.1861306
509.1504856
510.0865038
510.9949229
511.8763527
512.7316615
460.136928
460.2474153
460.4842109
460.834055
461.2892132
461.8427177
462.4883083
463.2198595
464.0312021
464.9167213
465.8708001
466.8879169
467.9627221
469.0900132
470.2646177
471.4816061
472.7361775
474.0235934
475.3391117
476.6783018
478.0368813
479.4103941
480.7950012
482.186782
483.5816834
484.9765274
486.367725
487.7521771
489.1270278
490.4892492
491.8365945
493.1666304
494.4770418
495.7662358
497.0325433
498.2743517
499.4903739
500.6797316
501.8415245
502.9750805
504.0799185
505.155758
506.2023664
507.2198604
508.2084119
509.168447
510.1002823
511.0046208
511.8820862
512.7335455
460.3168638
460.427263
460.663896
461.0134872
461.4681006
462.021151
462.6659775
463.3966209
464.2070395
465.0913969
466.0440527
467.0595299
468.1324668
469.2575366
470.4297163
471.6440687
472.8957115
474.1798941
475.4918112
476.8272326
478.1817493
479.5508616
480.9309313
482.3178388
483.7077978
485.0975339
486.4833656
487.8624483
489.2317628
490.5884473
491.9302433
493.2546297
494.5594962
495.8431795
497.1040285
498.3403757
499.5510929
500.735233
501.8919101
503.0204576
504.1204019
505.1914309
506.2333892
507.246355
508.2305035
509.1862555
510.1139436
511.0142361
511.8877707
512.7354135
460.4966123
460.6069317
460.8433887
461.1926611
461.6467525
462.1992666
462.8433447
463.5730406
464.3823719
465.2655154
466.2167456
467.2305148
468.3014544
469.4243446
470.5941043
471.8057683
473.0544325
474.3352115
475.6436113
476.9752279
478.3255458
479.6903619
481.0658813
482.4479132
483.8329357
485.2175112
486.5980646
487.9718048
489.3355964
490.6868033
492.0230901
493.3418714
494.6412383
495.9194571
497.1748699
498.4058271
499.6112857
500.7902538
501.94186
503.0654426
504.1605259
505.2267962
506.2641447
507.2726213
508.2524049
509.2039105
510.127487
511.0237683
511.8934062
512.7372652
460.6761797
460.7864128
461.0226804
461.3714663
461.8251613
462.3769734
463.0204022
463.7491103
464.5573093
465.4391284
466.3888307
467.4008558
468.4698211
469.5904939
470.7577794
471.9667028
473.2122796
474.4896749
475.794518
477.1222979
478.4683964
479.8289022
481.1998154
482.5770178
483.9571097
485.3364878
486.7118346
488.0802589
489.4385605
490.7843264
492.1151435
493.4283625
494.722274
495.9950731
497.2450513
498.4707088
499.670954
500.8447951
501.9913746
503.1100355
504.200272
505.2618532
506.294632
507.2986585
508.274115
509.2214113
510.140912
511.0332172
511.8989923
512.7391008
460.8555576
460.9656983
461.2017066
461.5500446
462.0033184
462.5543978
463.19709
463.9248221
464.731844
465.6122899
466.5604129
467.570642
468.63758
469.7559814
470.9207396
472.1268711
473.3692229
474.6432903
475.9445409
477.2683404
478.6103075
479.96649
481.3327122
482.7051637
484.080332
485.4545272
486.8246875
488.1877849
489.5406652
490.8810252
492.2063538
493.5141096
494.8026082
496.0700315
497.3146203
498.5350227
499.7300992
500.8988575
502.0404538
503.1542318
504.2396679
505.296601
506.3248501
507.3244656
508.2956331
509.2387571
510.1542139
511.0425822
511.9045287
512.74092
461.0347378
461.1447796
461.380377
461.7283882
462.1811827
462.7315308
463.3733107
464.1001693
464.9059688
465.7849935
466.7314869
467.7398683
468.8047267
469.9208044
471.0829842
472.2861343
473.5253599
474.7960613
476.0936856
477.4134496
478.7512885
480.1031343
481.4646603
482.8323616
484.2025642
485.5716404
486.936634
488.2943626
489.6419197
490.9769079
492.2967505
493.5991181
494.8822454
496.1443358
497.3835792
498.5987705
499.788722
500.952441
502.0890973
503.1979949
504.2787125
505.3310385
506.3547979
507.3500414
508.316958
509.255947
510.1673875
511.0518627
511.9100152
512.7427227
461.2136416
461.3234586
461.5588237
461.906489
462.3586255
462.9083651
463.5491981
464.2750187
465.0796769
465.9572332
466.9020475
467.9085305
468.9712579
470.084961
471.2444192
472.444612
473.6806929
474.9479896
476.2418616
477.55766
478.8913475
480.2387535
481.5956716
482.9586225
484.3238022
485.687838
487.0476842
488.4000694
489.7423324
491.0719817
492.3863752
493.6833933
494.9611896
496.2179229
497.4519298
498.661953
499.8468227
501.0055454
502.1373043
503.2413641
504.3174046
505.3651642
506.3844739
507.3753845
508.3380886
509.2729798
510.1804405
511.0610583
511.9154513
512.7445089
461.3922053
461.5019125
461.7370386
462.0843391
462.5357928
463.0848934
463.7247451
464.4494388
465.2528543
466.1290031
467.0720897
468.076624
469.1371692
470.2483518
471.4050744
472.6023303
473.8352246
475.0990788
476.3891115
477.7009784
479.0304938
480.3734015
481.7257561
483.0839568
484.4441214
485.8031299
487.1578398
488.5049139
489.8419109
491.166238
492.4752334
493.7669392
495.039444
496.2908558
497.5196733
498.7245704
499.9044004
501.0581688
502.185038
503.2843384
504.3557427
505.3989764
506.4138763
507.4004933
508.3590232
509.2898545
510.1933721
511.0701681
511.9208367
512.7462784
461.5705477
461.6801396
461.9150139
462.2618131
462.712676
463.2609869
463.8999451
464.6234724
465.4255286
466.3001397
467.2415129
468.2440481
469.3023068
470.4110099
471.565017
472.7592916
473.9889586
475.249241
476.5354997
477.8434116
479.1687195
480.5071346
481.8549204
483.2083164
484.5635324
485.9175258
487.2670181
488.6089039
489.9406621
491.2596261
492.5633297
493.8497596
495.1170109
496.3631416
497.5868102
498.7866224
499.9614542
501.11031
502.2323195
503.3269154
504.3937245
505.4324728
506.4430029
507.4253657
508.3797601
509.3065692
510.2061809
511.0791913
511.9261708
512.7480311
461.7486614
461.858132
462.0927417
462.4389519
462.8892675
463.4366889
464.0747912
464.7971129
465.5977671
466.4707725
467.4103277
468.4108224
469.4668095
470.5729996
471.724247
472.9154979
474.141899
475.3985285
476.6810333
477.9849688
479.305943
480.6399582
481.9831711
483.3317025
484.6820444
486.0310345
487.3753271
488.7120466
490.038592
491.3522232
492.6506674
493.931856
495.1938496
496.4347819
497.6533407
498.8481083
500.0179827
501.1619556
502.279159
503.3690916
504.4313466
505.4656502
506.4718507
507.4499989
508.4002968
509.3231221
510.2188653
511.0881267
511.931453
512.7497666
461.9265386
462.035882
462.2700884
462.6158165
463.0655604
463.6120636
464.2491768
464.9703539
465.7695642
466.6409195
467.5786117
468.5770201
469.630689
470.7343208
471.8827651
473.0709516
474.2939072
475.5469946
476.825718
478.1256549
479.4422785
480.7718819
482.1105176
483.4541881
484.7996638
486.143663
487.4827737
488.814348
490.1357057
491.4440332
492.7372495
494.0132303
495.269972
496.5057768
497.719264
498.9090265
500.0739836
501.2130765
502.3255527
503.4108631
504.4686048
505.4985045
506.5004157
507.4743893
508.4206301
509.3395104
510.2314233
511.0969727
511.9366823
512.7514847
462.1041716
462.2133153
462.4471122
462.7923992
463.2414474
463.7871045
464.4231198
465.1431893
465.9409148
466.8105769
467.7463617
468.7426386
469.793944
470.894973
472.0405709
473.2255799
474.4451228
475.6946425
476.9695546
478.2653567
479.5777378
480.902916
482.2368833
483.5757799
484.916395
486.2553192
487.5893661
488.9158144
490.231928
491.5350597
492.8230783
494.0938844
495.3454102
496.5761242
497.7845779
498.969374
500.1294533
501.2637066
502.3714961
503.4522248
504.505494
505.5310305
506.528693
507.4985323
508.440756
509.3557308
510.243852
511.1057276
511.9418575
512.7531851
462.2814147
462.3903714
462.6238653
462.9686921
463.4169297
463.9618052
464.5966891
465.3154407
466.1118141
466.9797408
467.9135745
468.9076755
469.9565731
471.0549556
472.1976155
473.3793823
474.5955577
475.8414769
477.1125501
478.4041753
479.7123267
481.0330683
482.3623237
483.6964853
485.0322457
486.3661023
487.6951082
489.01645
490.3273291
491.6253051
492.9081553
494.1737952
495.4201629
496.6458217
497.8492786
499.0291462
500.1843517
501.3138401
502.4169828
503.4931701
504.5420073
505.5632214
506.5566761
507.522422
508.460669
509.3717785
510.2561479
511.1143885
511.9469771
512.7548671
462.4583504
462.5671621
462.8003404
463.1446885
463.5920928
464.1361586
464.7698786
465.4872687
466.2821195
467.1484072
468.0802471
469.0721288
470.1185754
471.2142054
472.3538382
473.5324401
474.7452153
475.9875052
477.2546136
478.54214
479.8460489
481.1623332
482.4868844
483.8163114
485.1472229
486.4760235
487.8000035
489.1162577
490.4219254
491.7147708
492.9924808
494.2529313
495.4942276
496.7148654
497.9133613
499.0883374
500.2386869
501.3634696
502.4620048
503.5336907
504.5781365
505.5950689
506.584357
507.5460507
508.4803625
509.3876478
510.2683062
511.1229521
511.9520389
512.7565302
462.6350187
462.7436794
462.9765292
463.3201951
463.7669306
464.3099983
464.9426822
465.6586748
466.4519231
467.3163987
468.2462781
469.2359104
470.2798216
471.3726958
472.509356
473.684757
474.8940998
476.1327324
477.3958155
478.6792573
479.97891
481.2906192
482.6105715
483.9352644
485.2612228
486.5850867
487.9040539
489.2151791
490.5157195
491.8034575
493.0760538
494.3313444
495.5676003
496.78325
497.9768193
499.1469396
500.2924703
501.4125851
502.5065515
503.5737753
504.6138697
505.6265615
506.6117244
507.5694078
508.4998267
509.4033305
510.2803203
511.1314136
511.9570403
512.7581733
462.811412
462.9199159
463.1524222
463.495386
463.9414364
464.4834646
465.1150942
465.829654
466.6212618
467.483885
468.4116928
469.3990287
470.4404112
471.5305225
472.6641719
473.8363363
475.0422138
476.2770321
477.5362003
478.8155364
480.110918
481.4180436
482.7333923
484.0533511
485.3743591
486.6932975
488.0072644
489.313248
490.6087137
491.8913666
493.1588663
494.4090336
495.6402785
496.8509709
498.0396459
499.2048957
500.3456957
501.4611788
502.5506138
503.6134142
504.6491968
505.6576885
506.6387677
507.5924834
508.5190524
509.4188183
510.2921835
511.1397679
511.9619779
512.7597955
462.9875224
463.0958635
463.3278258
463.6702611
464.1156039
464.6565661
465.286967
466.0002029
466.7901338
467.6508667
468.5765637
469.5615633
470.6003784
471.6876892
472.8182913
473.9871849
475.1895284
476.4205271
477.6757762
478.9509863
480.2419894
481.5446194
482.8553588
484.1705636
485.4866449
486.8006657
488.1096442
489.4105027
490.7009125
491.9785007
493.2408615
494.4860019
495.7122626
496.9180269
498.1018387
499.2622489
500.3983558
501.5092425
502.5941826
503.6525973
504.6841072
505.6884391
506.6654762
507.6152668
508.5380299
509.4341028
510.303889
511.1480102
511.9668491
512.7613957
463.1633277
463.2713829
463.502924
463.8448145
464.2892889
464.8292987
465.4584052
466.1702995
466.9585398
467.817346
468.7408949
469.7235207
470.7597313
471.8442057
472.9717263
474.1373173
475.3359973
476.5632534
477.8145625
479.0856292
480.3722036
481.6703719
482.9764979
484.2868592
485.598109
486.9072209
488.211164
489.5069741
490.7923471
492.064893
493.3221411
494.5622822
495.7835878
496.9844549
498.1634226
499.3190417
500.4504911
501.5568181
502.6373007
503.6913673
504.7186423
505.7188522
506.6918847
507.6377877
508.5567823
509.4492004
510.3154468
511.1561389
511.9716557
512.7629745
463.3387236
463.4466067
463.6777755
464.0191053
464.4626561
465.0017227
465.6295059
466.3398708
467.1265424
467.9833864
468.904751
469.8849669
470.9185377
472.0001419
473.1245499
474.2866748
475.4818032
476.7052979
477.952654
479.2195054
480.5017109
481.7954229
483.0969462
484.4024815
485.7089227
487.0131549
488.3120585
489.6028997
490.8832808
492.1508323
493.4030209
494.6382162
495.8546204
497.0506428
498.2247677
499.3756895
500.5025201
501.6043181
502.680364
503.7300927
504.7531319
505.7492089
506.7182183
507.6602113
508.5754165
509.4641664
510.3268731
511.1641517
511.9763846
512.7645257
463.5570254
463.6646905
463.8953869
464.2359186
464.678387
465.2161869
465.8423649
466.5507945
467.3352898
468.1898123
469.1084628
470.0856413
471.1158877
472.1938327
473.3142104
474.4721286
475.6628038
476.8815654
478.1239443
479.3854114
480.6621745
481.9502562
483.2458632
484.5453793
485.8457084
487.1437235
488.4361943
489.7206701
490.9946377
492.255647
493.5014067
494.73019
495.9402225
497.1299317
498.297742
499.4425258
500.5633232
501.659216
502.7295007
503.7736346
504.7912664
505.7821439
506.7461903
507.683482
508.5942752
509.4789189
510.3378417
511.1716535
511.9807203
512.7659291
)
;

boundaryField
{
    front_top
    {
        type            wedge;
    }
    front_middle
    {
        type            wedge;
    }
    front_bottom
    {
        type            wedge;
    }
    back_top
    {
        type            wedge;
    }
    back_middle
    {
        type            wedge;
    }
    back_bottom
    {
        type            wedge;
    }
    axis_top
    {
        type            symmetryPlane;
    }
    axis_middle
    {
        type            symmetryPlane;
    }
    axis_bottom
    {
        type            symmetryPlane;
    }
    wall_top
    {
        type            convectiveRadiativeHeatFlux;
        mode            convectiveRadiative;
        kappaMethod     fluidThermo;
        kappa           none;
        alphaAni        Anialpha;
        h               nonuniform 0();
        Ta              constant 513.15;
        emissivityNozzle 0.95;
        emissivityFilament 0.95;
        dNozzle         2;
        dFilament       1.65;
        refValue        nonuniform 0();
        refGradient     nonuniform 0();
        valueFraction   nonuniform 0();
        value           nonuniform 0();
    }
    wall_middle
    {
        type            fixedValue;
        value           nonuniform 0();
    }
    wall_bottom
    {
        type            fixedValue;
        value           uniform 513.15;
    }
    inlet
    {
        type            fixedValue;
        value           nonuniform 0();
    }
    outlet
    {
        type            zeroGradient;
    }
    procBoundary0to1
    {
        type            processor;
        value           nonuniform List<scalar> 
51
(
459.234012
459.3448861
459.5825635
459.9337703
460.3906981
460.9466427
461.5951627
462.3303396
463.1462367
464.03699
464.9973292
466.021817
467.1051709
468.2421811
469.4278656
470.6574152
471.9260576
473.389629
473.389629
474.7188331
476.0730599
477.4475587
478.8383131
480.2412046
481.6519636
483.0670988
484.4825931
485.8952465
487.3016982
488.6987306
490.0837386
491.4537615
492.8065483
494.1399343
495.4516656
496.7402993
498.0043035
499.2421785
500.4528831
501.6356028
502.7896431
503.9144899
505.0098538
506.0755369
507.1115728
508.1181251
509.0956319
510.0444695
510.9653371
511.8588612
512.7259136
)
;
    }
}


// ************************************************************************* //
