/*--------------------------------*- C++ -*----------------------------------*\
  =========                 |
  \\      /  F ield         | OpenFOAM: The Open Source CFD Toolbox
   \\    /   O peration     | Website:  https://openfoam.org
    \\  /    A nd           | Version:  7
     \\/     M anipulation  |
\*---------------------------------------------------------------------------*/
FoamFile
{
    version     2.0;
    format      ascii;
    class       volScalarField;
    location    "0.0018";
    object      thermo:alpha;
}
// * * * * * * * * * * * * * * * * * * * * * * * * * * * * * * * * * * * * * //

dimensions      [1 -1 -1 0 0 0 0];

internalField   nonuniform List<scalar> 
1167
(
0.0001187880407
0.000118775706
0.0001187492715
0.0001187102275
0.0001186594835
0.0001185977638
0.0001185200319
0.0001184317526
0.0001183322735
0.0001182172753
0.0001180934764
0.0001179616164
0.0001178212229
0.0001176648291
0.0001175020214
0.000117327258
0.0001171419974
0.0001187679272
0.0001187556012
0.0001187291858
0.000118690189
0.00011863949
0.0001185763882
0.0001184985119
0.0001184103436
0.0001183093433
0.0001181945051
0.0001180708924
0.0001179392464
0.0001177974987
0.0001176414003
0.0001174789243
0.000117302997
0.0001171181896
0.0001169251186
0.0001167195875
0.0001165099248
0.000116289751
0.0001160606924
0.0001158290645
0.0001155873584
0.0001153449856
0.0001150905536
0.0001148371447
0.0001145737911
0.0001143114822
0.0001140424802
0.000113773819
0.0001135090392
0.000113238759
0.0001129676126
0.0001126934538
0.0001124250108
0.0001121611748
0.0001118939854
0.0001116333994
0.0001113733153
0.0001111161232
0.0001108660502
0.0001106231108
0.0001103783288
0.0001101404705
0.000109901085
0.0001096689448
0.000109443932
0.0001092258685
0.0001090093145
0.0001187478346
0.0001187355179
0.000118709123
0.0001186701797
0.0001186195242
0.0001185548296
0.0001184770292
0.0001183889768
0.0001182864641
0.0001181717922
0.0001180483726
0.000117916948
0.0001177738591
0.0001176180643
0.0001174559282
0.0001172788531
0.0001170945153
0.0001169004635
0.0001166954972
0.0001164850672
0.0001162669482
0.0001160359424
0.0001158051565
0.0001155643098
0.0001153216682
0.0001150682092
0.0001148158015
0.0001145524535
0.0001142912327
0.0001140224165
0.000113754909
0.0001134912847
0.0001132213975
0.0001129507211
0.0001126777886
0.0001124105537
0.0001121473501
0.0001118813707
0.0001116219669
0.0001113626145
0.0001111065917
0.0001108576557
0.0001106158216
0.0001103718708
0.00011013497
0.0001098965882
0.0001096655034
0.0001094415128
0.00010922444
0.0001090088284
0.0001187277637
0.000118715457
0.0001186891027
0.0001186501962
0.0001185995869
0.0001185333052
0.0001184556052
0.0001183676531
0.0001182636373
0.000118149138
0.0001180259182
0.000117894722
0.0001177503052
0.0001175948219
0.0001174330338
0.0001172548492
0.0001170709656
0.0001168759483
0.0001166715587
0.0001164603704
0.000116244301
0.0001160124845
0.0001157814288
0.0001155414414
0.0001152985388
0.00011504605
0.0001147937285
0.0001145312987
0.000114271159
0.0001140025287
0.0001137361658
0.0001134736871
0.0001132041894
0.0001129339783
0.0001126622609
0.0001123962351
0.0001121336454
0.0001118688647
0.0001116106323
0.0001113520049
0.0001110971409
0.0001108493321
0.000110608408
0.0001103654696
0.0001101294369
0.000109892129
0.0001096620906
0.0001094391137
0.0001092230233
0.0001090083463
0.0001187077153
0.0001186954311
0.0001186691102
0.0001186302394
0.0001185783974
0.0001185118161
0.0001184342229
0.0001183457321
0.0001182408637
0.0001181265434
0.0001180035302
0.0001178725696
0.0001177268379
0.0001175716743
0.0001174091949
0.0001172309619
0.0001170475402
0.0001168515725
0.0001166477831
0.0001164358331
0.0001162218083
0.0001159894133
0.000115757879
0.000115518757
0.0001152755949
0.000115024073
0.0001147716938
0.0001145103239
0.0001142512585
0.000113982814
0.0001137175868
0.0001134560954
0.0001131871324
0.0001129173825
0.0001126468692
0.0001123820435
0.0001121200597
0.0001118564669
0.0001115993953
0.0001113414862
0.0001110877709
0.0001108410808
0.0001106009656
0.0001103591224
0.0001101239504
0.000109887712
0.0001096587065
0.0001094367347
0.0001092216185
0.0001090078682
0.0001186877107
0.0001186754394
0.0001186491432
0.0001186103103
0.0001185568733
0.0001184903633
0.0001184128812
0.0001183228751
0.0001182181519
0.0001181040095
0.0001179812096
0.0001178504916
0.0001177034582
0.0001175486367
0.0001173849978
0.0001172071914
0.0001170242388
0.0001168273402
0.0001166241522
0.0001164114545
0.0001161988885
0.0001159665067
0.0001157345046
0.0001154962638
0.0001152528337
0.0001150022755
0.0001147498431
0.0001144895273
0.0001142307952
0.00011396327
0.0001136991701
0.0001134380183
0.0001131702247
0.0001129009321
0.0001126316122
0.0001123679759
0.0001121065924
0.0001118441767
0.0001115882556
0.0001113310583
0.0001110784815
0.0001108329071
0.000110593587
0.0001103528295
0.0001101185108
0.0001098833328
0.0001096553513
0.0001094343761
0.0001092202257
0.0001090073943
0.000118667732
0.0001186554727
0.0001186292026
0.0001185900169
0.0001185353829
0.000118468954
0.0001183915811
0.0001183000678
0.0001181955109
0.000118081553
0.0001179589665
0.0001178277518
0.0001176801882
0.0001175257028
0.0001173609104
0.0001171835379
0.0001170010612
0.0001168032655
0.0001166006654
0.000116387234
0.0001161740729
0.0001159437622
0.000115711303
0.0001154739432
0.0001152302527
0.0001149806671
0.0001147281736
0.0001144689062
0.0001142103026
0.0001139438945
0.0001136809134
0.0001134200991
0.000113153465
0.0001128846259
0.0001126164941
0.0001123540316
0.000112093243
0.0001118319939
0.000111577213
0.0001113207211
0.0001110692751
0.0001108248044
0.0001105862723
0.000110346591
0.0001101131182
0.0001098789913
0.0001096520251
0.0001094320379
0.000109218845
0.0001090069244
0.0001186477784
0.0001186355318
0.0001186092894
0.0001185684998
0.0001185139272
0.0001184475992
0.0001183703235
0.0001182773114
0.0001181729263
0.0001180591671
0.0001179368071
0.0001178042659
0.0001176570092
0.0001175028647
0.0001173369329
0.0001171600015
0.0001169774403
0.0001167793284
0.0001165773218
0.0001163631699
0.0001161494254
0.0001159211786
0.0001156882804
0.000115451793
0.0001152078495
0.0001149592424
0.0001147066831
0.0001144484584
0.0001141899845
0.0001139246857
0.0001136628151
0.0001134023361
0.0001131368519
0.0001128684628
0.0001126015183
0.0001123402099
0.0001120800109
0.0001118199182
0.0001115662674
0.0001113104746
0.0001110601559
0.0001108167727
0.0001105790217
0.0001103404072
0.0001101077729
0.0001098746879
0.0001096487281
0.0001094297201
0.0001092174764
0.0001090064587
0.0001186278509
0.0001186156176
0.0001185889283
0.0001185470154
0.000118492507
0.0001184262836
0.0001183486769
0.0001182546069
0.0001181503993
0.0001180368448
0.0001179147176
0.0001177808622
0.0001176339192
0.0001174801229
0.0001173130656
0.0001171365825
0.000116953081
0.0001167555278
0.0001165541197
0.0001163403702
0.0001161249449
0.0001158987545
0.0001156654403
0.0001154298112
0.0001151856217
0.0001149379899
0.0001146853691
0.0001144281886
0.0001141698388
0.0001139056417
0.0001136448847
0.000113384728
0.0001131203845
0.0001128524418
0.0001125866745
0.0001123265103
0.0001120668959
0.0001118079494
0.0001115554187
0.0001113003199
0.0001110511175
0.0001108088121
0.0001105718354
0.0001103342782
0.000110102475
0.0001098704227
0.0001096454613
0.000109427423
0.0001092161199
0.0001090059971
0.0001186079504
0.0001185957311
0.0001185674277
0.0001185255646
0.0001184711274
0.0001184050083
0.000118325889
0.000118231955
0.0001181279307
0.0001180145869
0.0001178926989
0.000117757541
0.0001176109189
0.0001174574776
0.0001172893085
0.0001171133009
0.000116928852
0.000116731863
0.0001165310583
0.0001163179747
0.0001161006296
0.0001158764885
0.0001156427674
0.0001154079958
0.0001151635763
0.0001149169077
0.0001146642296
0.0001144081005
0.0001141498636
0.000113886761
0.0001136271165
0.0001133672736
0.0001131040617
0.0001128365623
0.0001125719624
0.0001123129325
0.0001120538978
0.0001117960875
0.0001115446671
0.0001112902653
0.0001110421602
0.0001108009231
0.0001105647136
0.0001103282044
0.0001100972248
0.000109866196
0.0001096422261
0.0001094251466
0.0001092147757
0.0001090055397
0.0001185874919
0.0001185742765
0.0001185459594
0.0001185041483
0.0001184498038
0.0001183837741
0.0001183031498
0.0001182093729
0.0001181055213
0.0001179923941
0.0001178707515
0.0001177343032
0.0001175880086
0.000117434929
0.0001172656752
0.0001170901393
0.0001169047531
0.0001167083337
0.0001165073034
0.0001162957224
0.000116076478
0.0001158535766
0.0001156202596
0.0001153863449
0.0001151417139
0.0001148959936
0.0001146432625
0.0001143881795
0.0001141300573
0.000113868042
0.0001136095023
0.0001133499718
0.0001130878827
0.0001128208377
0.0001125573814
0.0001122994763
0.0001120410164
0.0001117843325
0.0001115340126
0.0001112803018
0.0001110332842
0.0001107931058
0.0001105576568
0.000110322186
0.0001100920226
0.0001098620079
0.0001096390206
0.000109422891
0.0001092134439
0.0001090050865
0.0001185660045
0.0001185528056
0.0001185245243
0.0001184827675
0.0001184285185
0.0001183625819
0.0001182804602
0.0001181868518
0.0001180831857
0.0001179702672
0.000117848876
0.0001177111491
0.0001175651889
0.0001174115791
0.0001172421614
0.0001170670937
0.0001168807836
0.0001166849393
0.0001164831853
0.0001162736121
0.0001160524884
0.0001158304048
0.000115597915
0.0001153648567
0.0001151200208
0.0001148752458
0.0001146224675
0.0001143684238
0.0001141104182
0.0001138494864
0.0001135920408
0.0001133328216
0.0001130718468
0.0001128052544
0.0001125429312
0.0001122861416
0.0001120282521
0.0001117726848
0.0001115231458
0.0001112704297
0.0001110244899
0.0001107853607
0.0001105506654
0.0001103162235
0.0001100868688
0.0001098578589
0.0001096358449
0.0001094206566
0.0001092121244
0.0001090046376
0.0001185445491
0.0001185313673
0.0001185031234
0.0001184614372
0.0001184072727
0.0001183404134
0.000118257821
0.0001181643861
0.0001180609204
0.0001179482272
0.0001178262352
0.0001176880926
0.0001175424808
0.0001173877392
0.0001172187571
0.0001170441638
0.0001168569429
0.0001166616933
0.0001164592133
0.0001162516428
0.0001160288345
0.0001158073948
0.0001155757325
0.0001153430035
0.0001150984949
0.0001148546625
0.0001146018602
0.000114348832
0.0001140909449
0.000113831104
0.0001135747311
0.0001133158224
0.0001130559535
0.0001127898109
0.0001125286118
0.0001122729284
0.0001120156048
0.0001117611447
0.0001115122685
0.0001112606493
0.0001110157778
0.0001107776883
0.0001105437397
0.0001103103174
0.0001100817638
0.0001098537492
0.0001096326995
0.0001094184434
0.0001092108176
0.0001090041929
0.0001185231265
0.0001185099626
0.0001184817575
0.0001184401525
0.0001183860671
0.0001183176946
0.0001182352331
0.0001181419766
0.0001180387167
0.0001179262572
0.0001178029602
0.0001176651309
0.0001175198653
0.0001173640025
0.0001171954622
0.0001170213491
0.0001168332304
0.0001166385875
0.000116435386
0.0001162298128
0.0001160064494
0.0001157845454
0.0001155537107
0.0001153207232
0.0001150771347
0.0001148342421
0.0001145814199
0.0001143294025
0.0001140716362
0.0001138128797
0.0001135575725
0.0001132989736
0.0001130398116
0.0001127745068
0.000112514423
0.0001122598369
0.000112003075
0.0001117497151
0.0001115014937
0.0001112509616
0.0001110071487
0.0001107700893
0.0001105368807
0.0001103044682
0.0001100767082
0.0001098496795
0.0001096295846
0.0001094162517
0.0001092095235
0.0001090037525
0.0001185017377
0.0001184885924
0.0001184604428
0.000118418906
0.0001183649026
0.0001182950237
0.0001182127101
0.000118119624
0.0001180165752
0.0001179043551
0.0001177797637
0.0001176422539
0.0001174973405
0.0001173403692
0.0001171722766
0.0001169986493
0.0001168096673
0.0001166156135
0.0001164117024
0.0001162081214
0.0001159842134
0.000115761855
0.0001155318481
0.0001152986093
0.0001150559387
0.0001148139831
0.0001145611454
0.0001143101343
0.0001140524909
0.0001137948126
0.0001135405644
0.0001132822749
0.000113023524
0.0001127593421
0.0001125003649
0.0001122468673
0.0001119906631
0.0001117384024
0.000111490822
0.0001112413674
0.0001109986034
0.0001107625647
0.0001105300891
0.0001102986768
0.0001100717029
0.0001098456503
0.0001096265009
0.000109414082
0.0001092082424
0.0001090033166
0.0001184803836
0.0001184672656
0.0001184391721
0.0001183976987
0.0001183429403
0.0001182724015
0.0001181902498
0.0001180973291
0.0001179944965
0.0001178825211
0.0001177566463
0.000117619462
0.0001174749067
0.0001173168391
0.0001171492002
0.0001169753758
0.0001167862321
0.0001165927709
0.0001163881624
0.0001161844594
0.0001159621244
0.0001157393217
0.0001155101577
0.0001152766604
0.0001150349062
0.0001147929367
0.0001145410351
0.000114291026
0.0001140335239
0.0001137769019
0.0001135237063
0.0001132657259
0.0001130073846
0.0001127443172
0.0001124864381
0.0001122340203
0.0001119783698
0.000111727199
0.0001114802546
0.0001112318678
0.0001109901432
0.0001107551156
0.0001105233662
0.0001102929444
0.0001100667487
0.0001098416624
0.0001096234489
0.0001094119347
0.0001092069745
0.0001090028852
0.0001184590817
0.0001184459894
0.0001184179393
0.0001183765313
0.0001183202493
0.0001182498288
0.0001181678432
0.000118075115
0.0001179724812
0.0001178607558
0.0001177336083
0.0001175967553
0.000117452564
0.0001172934123
0.0001171262402
0.0001169515043
0.0001167629228
0.0001165700588
0.0001163647647
0.0001161605056
0.0001159401814
0.0001157169441
0.0001154886298
0.0001152548752
0.0001150140357
0.0001147720005
0.0001145210881
0.0001142720768
0.0001140147213
0.0001137591471
0.0001135069978
0.0001132493311
0.0001129913934
0.0001127294324
0.0001124726432
0.0001122212968
0.0001119662041
0.0001117161063
0.0001114697929
0.0001112224645
0.0001109817696
0.0001107477435
0.0001105167135
0.0001102872724
0.0001100618471
0.0001098377171
0.0001096204296
0.0001094098105
0.0001092057202
0.0001090024584
0.000118437822
0.0001184247503
0.000118396745
0.0001183554047
0.0001182976051
0.0001182273065
0.000118145491
0.0001180529607
0.0001179505477
0.0001178390596
0.0001177106501
0.000117574134
0.0001174303124
0.000117270098
0.0001171034053
0.0001169277535
0.0001167397387
0.0001165474759
0.000116342489
0.0001161367036
0.0001159183838
0.000115694723
0.0001154672566
0.0001152332523
0.0001149933259
0.0001147512303
0.0001145013037
0.000114253286
0.0001139960797
0.0001137415479
0.0001134904388
0.0001132330971
0.0001129755511
0.0001127146887
0.0001124589813
0.0001122086979
0.0001119541641
0.0001117051259
0.0001114594387
0.0001112131591
0.0001109734846
0.0001107404504
0.000110510133
0.0001102816625
0.0001100569996
0.0001098338158
0.0001096174442
0.0001094077102
0.0001092044801
0.0001090020365
0.0001184165996
0.0001184035493
0.0001183755904
0.000118332757
0.0001182750085
0.0001182048559
0.000118123194
0.0001180308662
0.000117928684
0.0001178159098
0.0001176877855
0.0001175516104
0.0001174069663
0.0001172469
0.0001170806784
0.0001169041226
0.0001167166791
0.0001165250215
0.0001163206961
0.0001161130524
0.0001158967305
0.0001156726741
0.0001154460369
0.0001152117905
0.0001149727953
0.0001147306253
0.0001144816814
0.0001142340684
0.0001139775986
0.000113724104
0.0001134740295
0.0001132170131
0.0001129598583
0.0001127000871
0.0001124454538
0.0001121962255
0.0001119422472
0.0001116942599
0.0001114491945
0.0001112039544
0.0001109652907
0.0001107332389
0.0001105036271
0.0001102761172
0.0001100522087
0.0001098299604
0.0001096144942
0.0001094056349
0.0001092032549
0.0001090016196
0.0001183954155
0.0001183823873
0.0001183544539
0.0001183101062
0.0001182524603
0.0001181824591
0.0001181009529
0.000118008832
0.0001179068852
0.0001177928203
0.0001176650111
0.000117529183
0.0001173834305
0.0001172238042
0.0001170580589
0.0001168806111
0.0001166937436
0.0001165015424
0.0001162990335
0.0001160895502
0.0001158752202
0.0001156507772
0.0001154249694
0.0001151904884
0.0001149524235
0.0001147101844
0.0001144622204
0.000114214713
0.0001139592774
0.0001137068152
0.0001134576904
0.0001132010793
0.0001129443156
0.0001126856286
0.000112432062
0.0001121833928
0.0001119304548
0.0001116835101
0.0001114390623
0.0001111948525
0.0001109571904
0.0001107261114
0.0001104971986
0.0001102706389
0.0001100474767
0.000109826153
0.0001096115813
0.0001094035859
0.0001092020452
0.000109001208
0.0001183742707
0.0001183612652
0.0001183317703
0.0001182875017
0.0001182299614
0.0001181601147
0.0001180787867
0.0001179868584
0.0001178851517
0.0001177698057
0.0001176423168
0.000117506841
0.0001173599912
0.00011720081
0.0001170355461
0.0001168572179
0.0001166709366
0.0001164780404
0.0001162774999
0.0001160661954
0.0001158530197
0.0001156290299
0.000115404052
0.0001151693475
0.0001149322079
0.0001146899057
0.0001144429187
0.0001141955209
0.0001139411153
0.0001136896809
0.0001134408465
0.000113185295
0.0001129289229
0.0001126713133
0.0001124188064
0.000112170667
0.0001119187885
0.0001116728783
0.0001114290441
0.0001111858558
0.0001109491859
0.0001107190704
0.0001104908499
0.0001102652302
0.0001100428058
0.0001098223957
0.0001096087071
0.0001094015645
0.0001092008518
0.000109000802
0.0001183530435
0.000118339069
0.0001183091317
0.0001182649443
0.0001182075302
0.0001181378233
0.0001180566818
0.0001179649483
0.0001178634833
0.0001177468657
0.0001176197019
0.0001174845833
0.000117336647
0.000117177916
0.0001170131379
0.0001168339407
0.0001166482651
0.000116454669
0.0001162560922
0.000116042984
0.000115830611
0.0001156074279
0.00011538328
0.0001151483753
0.0001149121434
0.0001146697835
0.0001144237818
0.0001141764859
0.000113923106
0.0001136726944
0.0001134241515
0.0001131696535
0.0001129136726
0.0001126571334
0.0001124056818
0.0001121580666
0.0001119072393
0.0001116623551
0.0001114191302
0.0001111769544
0.0001109412679
0.0001107121069
0.0001104845727
0.000110259884
0.0001100381905
0.0001098186844
0.0001096058693
0.0001093995709
0.0001091996743
0.0001090004014
0.0001183303611
0.0001183164124
0.0001182865305
0.0001182424264
0.0001181851454
0.0001181155772
0.0001180346258
0.0001179431111
0.0001178418718
0.0001177239914
0.0001175971576
0.0001174624009
0.0001173133881
0.0001171551118
0.0001169908239
0.0001168107883
0.0001166257008
0.0001164314138
0.0001162347958
0.0001160205494
0.0001158083279
0.00011558595
0.0001153626299
0.0001151275279
0.0001148921989
0.0001146497816
0.0001144047654
0.0001141575611
0.0001139051975
0.000113655799
0.0001134075404
0.0001131540846
0.0001128984863
0.0001126430061
0.0001123926091
0.0001121454994
0.0001118957145
0.0001116518493
0.0001114092294
0.0001111680637
0.0001109333607
0.0001107051567
0.0001104783135
0.000110254561
0.0001100336043
0.0001098150055
0.0001096030638
0.0001093976057
0.0001091985158
0.0001090000079
0.000118302138
0.0001182882217
0.0001182584099
0.0001182144223
0.0001181572984
0.0001180879144
0.0001180071941
0.0001179159558
0.0001178133052
0.000117695561
0.0001175691369
0.0001174348356
0.0001172844912
0.0001171267932
0.0001169616189
0.0001167820473
0.0001165976963
0.000116402562
0.0001162083851
0.0001159934878
0.000115780724
0.0001155593621
0.0001153362231
0.0001151017671
0.0001148675843
0.0001146251322
0.0001143813722
0.0001141343299
0.00011388327
0.0001136351955
0.0001133873364
0.0001131352292
0.0001128801871
0.0001126260841
0.0001123770597
0.000112130673
0.0001118822472
0.0001116397081
0.000111397933
0.0001111580678
0.0001109246183
0.0001106976165
0.0001104716652
0.0001102490371
0.0001100289631
0.0001098113791
0.0001096003708
0.0001093957659
0.0001091974537
0.0001089996518
)
;

boundaryField
{
    front_top
    {
        type            wedge;
    }
    front_middle
    {
        type            wedge;
    }
    front_bottom
    {
        type            wedge;
    }
    back_top
    {
        type            wedge;
    }
    back_middle
    {
        type            wedge;
    }
    back_bottom
    {
        type            wedge;
    }
    axis_top
    {
        type            symmetryPlane;
    }
    axis_middle
    {
        type            symmetryPlane;
    }
    axis_bottom
    {
        type            symmetryPlane;
    }
    wall_top
    {
        type            calculated;
        value           nonuniform 0();
    }
    wall_middle
    {
        type            calculated;
        value           nonuniform 0();
    }
    wall_bottom
    {
        type            calculated;
        value           uniform 0.0001089022317;
    }
    inlet
    {
        type            calculated;
        value           nonuniform 0();
    }
    outlet
    {
        type            calculated;
        value           nonuniform List<scalar> 
50
(
0.000118302138
0.0001182882217
0.0001182584099
0.0001182144223
0.0001181572984
0.0001180879144
0.0001180071941
0.0001179159558
0.0001178133052
0.000117695561
0.0001175691369
0.0001174348356
0.0001172844912
0.0001171267932
0.0001169616189
0.0001167820473
0.0001165976963
0.000116402562
0.0001162083851
0.0001159934878
0.000115780724
0.0001155593621
0.0001153362231
0.0001151017671
0.0001148675843
0.0001146251322
0.0001143813722
0.0001141343299
0.00011388327
0.0001136351955
0.0001133873364
0.0001131352292
0.0001128801871
0.0001126260841
0.0001123770597
0.000112130673
0.0001118822472
0.0001116397081
0.000111397933
0.0001111580678
0.0001109246183
0.0001106976165
0.0001104716652
0.0001102490371
0.0001100289631
0.0001098113791
0.0001096003708
0.0001093957659
0.0001091974537
0.0001089996518
)
;
    }
    procBoundary0to1
    {
        type            processor;
        value           nonuniform List<scalar> 
51
(
0.0001188081743
0.0001187958315
0.0001187693792
0.0001187303077
0.0001186795036
0.000118617734
0.0001185415882
0.0001184532026
0.0001183552189
0.000118240116
0.000118116144
0.000117984074
0.0001178446207
0.0001176883497
0.0001175252187
0.0001173516351
0.0001171659453
0.0001169499141
0.0001169499141
0.0001167438253
0.0001165342472
0.0001163127112
0.0001160856226
0.0001158531548
0.0001156105898
0.0001153677467
0.0001151130852
0.000114858671
0.0001145953149
0.0001143319108
0.0001140627355
0.0001137928983
0.0001135269529
0.0001132562779
0.0001129846548
0.0001127092579
0.0001124395953
0.0001121751202
0.0001119067095
0.0001116449302
0.0001113841074
0.0001111257357
0.0001108745155
0.0001106304611
0.0001103848449
0.0001101458955
0.0001099056191
0.0001096724148
0.0001094463714
0.000109227309
0.0001090098047
)
;
    }
}


// ************************************************************************* //
