/*--------------------------------*- C++ -*----------------------------------*\
  =========                 |
  \\      /  F ield         | OpenFOAM: The Open Source CFD Toolbox
   \\    /   O peration     | Website:  https://openfoam.org
    \\  /    A nd           | Version:  7
     \\/     M anipulation  |
\*---------------------------------------------------------------------------*/
FoamFile
{
    version     2.0;
    format      ascii;
    class       volVectorField;
    location    "0.0018";
    object      U;
}
// * * * * * * * * * * * * * * * * * * * * * * * * * * * * * * * * * * * * * //

dimensions      [0 1 -1 0 0 0 0];

internalField   nonuniform List<vector> 
1167
(
(-1.231757582e-06 5.059296507e-18 -0.05026115287)
(-3.216553146e-06 -4.287525333e-19 -0.05026006125)
(-5.099195061e-06 -3.524458898e-18 -0.05025767043)
(-7.059691476e-06 -4.791712482e-18 -0.05025405176)
(-9.033893662e-06 -5.299200561e-18 -0.05024917209)
(-1.101330305e-05 -9.601599423e-18 -0.05024295795)
(-1.300342033e-05 -1.273082137e-17 -0.0502352882)
(-1.500969699e-05 -1.23985767e-17 -0.05022598949)
(-1.703544218e-05 -1.227662822e-17 -0.05021482154)
(-1.908158447e-05 -1.484360453e-17 -0.05020146006)
(-2.114817258e-05 -1.506568028e-17 -0.05018547541)
(-2.32347157e-05 -1.533085626e-17 -0.05016630578)
(-2.533925841e-05 -1.514861455e-17 -0.0501432271)
(-2.745804936e-05 -1.646080512e-17 -0.05011532084)
(-2.9585635e-05 -1.793833372e-17 -0.05008144095)
(-3.171537661e-05 -1.963828669e-17 -0.05004017969)
(-3.383980404e-05 -2.02286651e-17 -0.0499898323)
(-1.145865613e-06 -2.175969813e-18 -0.05027413838)
(-2.992605062e-06 -3.624105111e-18 -0.05027306612)
(-4.746402459e-06 -4.091530133e-18 -0.05027071565)
(-6.576615272e-06 -3.729887538e-18 -0.0502671553)
(-8.423568621e-06 -8.146591453e-18 -0.05026235078)
(-1.028060365e-05 -1.100911402e-17 -0.05025622612)
(-1.215347955e-05 -1.356690367e-17 -0.05024865769)
(-1.404713658e-05 -1.266508968e-17 -0.05023946842)
(-1.596568113e-05 -1.2226573e-17 -0.05022841499)
(-1.791035912e-05 -1.526446091e-17 -0.05021516966)
(-1.988097808e-05 -1.65696507e-17 -0.05019929828)
(-2.187618348e-05 -1.637594462e-17 -0.05018023434)
(-2.389299112e-05 -1.631705209e-17 -0.05015724912)
(-2.592680674e-05 -1.644215722e-17 -0.0501294196)
(-2.797156815e-05 -1.698781877e-17 -0.05009559498)
(-3.002002508e-05 -1.738510768e-17 -0.0500543622)
(-3.206431193e-05 -1.711003635e-17 -0.05000401038)
(-3.409402164e-05 -1.879804461e-17 -0.04994249421)
(-3.609547845e-05 -1.997761955e-17 -0.04986739418)
(-3.805385116e-05 -2.076459657e-17 -0.04977587269)
(-3.995114503e-05 -2.125958258e-17 -0.04966463044)
(-4.176510579e-05 -2.159037775e-17 -0.04952986237)
(-4.347121643e-05 -2.185781982e-17 -0.04936721231)
(-4.504131163e-05 -2.198888126e-17 -0.04917173271)
(-4.64443906e-05 -2.207560866e-17 -0.04893784726)
(-4.764779314e-05 -2.220624619e-17 -0.04865932025)
(-4.861710948e-05 -2.236815423e-17 -0.04832923415)
(-4.931870994e-05 -2.210539568e-17 -0.0479399746)
(-4.971969338e-05 -2.185243023e-17 -0.0474832286)
(-4.97895232e-05 -2.089589186e-17 -0.04694999097)
(-4.950170938e-05 -2.046482496e-17 -0.04633058572)
(-4.883465976e-05 -2.023813129e-17 -0.04561469904)
(-4.777377792e-05 -1.984805379e-17 -0.04479142162)
(-4.631167754e-05 -1.927315448e-17 -0.04384930661)
(-4.444926053e-05 -1.880271325e-17 -0.04277643412)
(-4.21970797e-05 -1.817543394e-17 -0.041560485)
(-3.957622401e-05 -1.740952845e-17 -0.04018882912)
(-3.661788444e-05 -1.650874357e-17 -0.03864861466)
(-3.33638252e-05 -1.546417105e-17 -0.03692685784)
(-2.98665525e-05 -1.456452099e-17 -0.03501054012)
(-2.618915007e-05 -1.35274116e-17 -0.03288670535)
(-2.240498252e-05 -1.236322003e-17 -0.03054255442)
(-1.859730457e-05 -1.118034506e-17 -0.02796553673)
(-1.485875445e-05 -9.790215184e-18 -0.02514343589)
(-1.129032633e-05 -8.28658638e-18 -0.02206444569)
(-7.999551494e-06 -6.648017405e-18 -0.01871723465)
(-5.099438335e-06 -5.340349027e-18 -0.0150910003)
(-2.718984491e-06 -3.927458082e-18 -0.01117549867)
(-1.030928287e-06 -2.419681222e-18 -0.006961016319)
(-1.859457705e-07 -8.308134333e-19 -0.002438186161)
(-1.057257896e-06 -1.117314367e-17 -0.05028663472)
(-2.761708786e-06 -1.246748126e-17 -0.0502855829)
(-4.383275817e-06 -1.468372415e-17 -0.05028327512)
(-6.078856603e-06 -1.261179881e-17 -0.05027977673)
(-7.793804002e-06 -1.382037688e-17 -0.05027505235)
(-9.523679457e-06 -1.223440262e-17 -0.05026902284)
(-1.127513013e-05 -1.205519701e-17 -0.05026156254)
(-1.305244657e-05 -1.2572218e-17 -0.05025249025)
(-1.485938348e-05 -1.366501571e-17 -0.05024155899)
(-1.669779157e-05 -1.275232914e-17 -0.05022843703)
(-1.856730668e-05 -1.412029005e-17 -0.05021268574)
(-2.046607065e-05 -1.540263369e-17 -0.05019373369)
(-2.239048504e-05 -1.688798701e-17 -0.05017084706)
(-2.43352659e-05 -1.686141943e-17 -0.05014309777)
(-2.629372433e-05 -1.721576076e-17 -0.05010932992)
(-2.825840392e-05 -1.771591642e-17 -0.05006812506)
(-3.022039142e-05 -1.83800711e-17 -0.0500177667)
(-3.216795829e-05 -1.894863288e-17 -0.04995620348)
(-3.40876367e-05 -1.943889958e-17 -0.04988100754)
(-3.596499863e-05 -1.979035123e-17 -0.04978933172)
(-3.778197537e-05 -1.99455778e-17 -0.04967786667)
(-3.951721447e-05 -1.980962892e-17 -0.04954279551)
(-4.114727387e-05 -2.035605438e-17 -0.04937974995)
(-4.26451071e-05 -2.066989197e-17 -0.04918377084)
(-4.39819326e-05 -2.082072423e-17 -0.04894927085)
(-4.512690209e-05 -2.084279199e-17 -0.04867000514)
(-4.604783446e-05 -2.075028474e-17 -0.04833904852)
(-4.671327808e-05 -2.064490235e-17 -0.04794878257)
(-4.7092408e-05 -2.043087208e-17 -0.04749089394)
(-4.715723053e-05 -2.024618691e-17 -0.04695638113)
(-4.688301046e-05 -1.99603882e-17 -0.04633557653)
(-4.624960737e-05 -1.96175571e-17 -0.04561817888)
(-4.524373515e-05 -1.920501161e-17 -0.04479329755)
(-4.385864164e-05 -1.871374168e-17 -0.04384950912)
(-4.209530204e-05 -1.814506545e-17 -0.04277492113)
(-3.996394425e-05 -1.748493089e-17 -0.0415572473)
(-3.748430817e-05 -1.67240101e-17 -0.04018389562)
(-3.46856766e-05 -1.585345142e-17 -0.0386420559)
(-3.16073108e-05 -1.486983378e-17 -0.03691878857)
(-2.829857915e-05 -1.405689304e-17 -0.03500112311)
(-2.481883522e-05 -1.313986285e-17 -0.03287615428)
(-2.12371901e-05 -1.2110449e-17 -0.03053113603)
(-1.763225819e-05 -1.059828597e-17 -0.02795357256)
(-1.40916001e-05 -9.460308641e-18 -0.02513130369)
(-1.071076984e-05 -8.222226753e-18 -0.02205257956)
(-7.591583033e-06 -7.003427777e-18 -0.01870612458)
(-4.841275067e-06 -5.758881899e-18 -0.01508119296)
(-2.582498892e-06 -4.508661879e-18 -0.01116759775)
(-9.798251845e-07 -2.739279863e-18 -0.006955682264)
(-1.769150399e-07 -9.339548298e-19 -0.002436137376)
(-9.662986669e-07 -3.662662304e-18 -0.05029862739)
(-2.524955819e-06 -7.284298314e-18 -0.0502975968)
(-4.010846933e-06 -1.003753814e-17 -0.05029533388)
(-5.567628056e-06 -1.288295249e-17 -0.05029190148)
(-7.146954221e-06 -1.086528248e-17 -0.05028726192)
(-8.745964431e-06 -9.833741648e-18 -0.05028133298)
(-1.037176058e-05 -8.969196979e-18 -0.05027398672)
(-1.202887663e-05 -1.127366952e-17 -0.05026503868)
(-1.372023051e-05 -1.337619281e-17 -0.05025423707)
(-1.544799328e-05 -1.281464037e-17 -0.05024124577)
(-1.72119509e-05 -1.239991323e-17 -0.0502256214)
(-1.900986554e-05 -1.390940183e-17 -0.05020678725)
(-2.083758082e-05 -1.548592929e-17 -0.05018400418)
(-2.268927678e-05 -1.712021726e-17 -0.0501563388)
(-2.455806682e-05 -1.747795649e-17 -0.05012262979)
(-2.64359681e-05 -1.83331968e-17 -0.05008145356)
(-2.831263079e-05 -1.987829615e-17 -0.05003108876)
(-3.017586149e-05 -1.94202949e-17 -0.04996947761)
(-3.201305848e-05 -1.93621076e-17 -0.04989418452)
(-3.380945321e-05 -1.946333693e-17 -0.04980235382)
(-3.554683036e-05 -1.96026743e-17 -0.04969066678)
(-3.720539599e-05 -1.973264785e-17 -0.04955529597)
(-3.876249985e-05 -1.986810949e-17 -0.04939186245)
(-4.01921569e-05 -1.993868145e-17 -0.04919539603)
(-4.146743211e-05 -1.990479532e-17 -0.04896029937)
(-4.255928e-05 -1.973258345e-17 -0.04868031945)
(-4.343792654e-05 -1.939896469e-17 -0.04834852461)
(-4.407370218e-05 -1.934539568e-17 -0.04795729296)
(-4.443760688e-05 -1.910777467e-17 -0.04749831047)
(-4.450384131e-05 -1.941026949e-17 -0.0469625794)
(-4.424943017e-05 -1.916203498e-17 -0.04634044023)
(-4.365569163e-05 -1.886396827e-17 -0.04562160355)
(-4.271029064e-05 -1.849577644e-17 -0.04479519612)
(-4.140695494e-05 -1.805167558e-17 -0.04384981641)
(-3.974668956e-05 -1.752852157e-17 -0.04277359764)
(-3.773936161e-05 -1.692557056e-17 -0.04155428495)
(-3.540330426e-05 -1.624473911e-17 -0.04017932182)
(-3.27658906e-05 -1.548645574e-17 -0.03863593629)
(-2.986392772e-05 -1.465588329e-17 -0.03691123089)
(-2.674372221e-05 -1.376504751e-17 -0.03499228048)
(-2.34610023e-05 -1.280567024e-17 -0.03286622796)
(-2.008078234e-05 -1.17728798e-17 -0.03052037762)
(-1.667718128e-05 -1.054782157e-17 -0.02794228613)
(-1.333271044e-05 -9.3684618e-18 -0.02511984682)
(-1.013761894e-05 -8.126734027e-18 -0.0220413632)
(-7.188208588e-06 -6.824242894e-18 -0.01869561326)
(-4.586027024e-06 -5.453106968e-18 -0.01507190583)
(-2.447566023e-06 -4.006772013e-18 -0.01116010936)
(-9.293069102e-07 -2.465740208e-18 -0.006950622266)
(-1.679883193e-07 -8.464605882e-19 -0.002434191837)
(-8.738233318e-07 -2.013394215e-18 -0.05031010312)
(-2.283891707e-06 -3.350678783e-18 -0.05030909471)
(-3.630266788e-06 -5.597798581e-18 -0.05030687919)
(-5.044456464e-06 -7.336642217e-18 -0.05030351631)
(-6.485151872e-06 -8.195173697e-18 -0.0502989657)
(-7.950093687e-06 -8.948534658e-18 -0.05029314277)
(-9.446134288e-06 -9.865771731e-18 -0.05028591628)
(-1.097924961e-05 -1.084087307e-17 -0.05027709886)
(-1.255181137e-05 -1.175101392e-17 -0.050266434)
(-1.416517974e-05 -1.24067169e-17 -0.05025358035)
(-1.581945741e-05 -1.321420599e-17 -0.05023808936)
(-1.751232623e-05 -1.393190744e-17 -0.05021937896)
(-1.923921919e-05 -1.46645555e-17 -0.0501967044)
(-2.099418855e-05 -1.537634082e-17 -0.05016912663)
(-2.276997867e-05 -1.594724812e-17 -0.05013547913)
(-2.455725305e-05 -1.651272577e-17 -0.05009433371)
(-2.634507825e-05 -1.707797089e-17 -0.05004396394)
(-2.812179944e-05 -1.755009166e-17 -0.04998230569)
(-2.98750526e-05 -1.802803328e-17 -0.04990691634)
(-3.158969465e-05 -1.844948702e-17 -0.04981493295)
(-3.324781114e-05 -1.879447327e-17 -0.04970302773)
(-3.483067565e-05 -1.905945443e-17 -0.04956736356)
(-3.631653604e-05 -1.924468276e-17 -0.04940355218)
(-3.768111934e-05 -1.934953391e-17 -0.04920661342)
(-3.889875352e-05 -1.936983208e-17 -0.0489709409)
(-3.994179372e-05 -1.930175626e-17 -0.04869027392)
(-4.078271172e-05 -1.915398123e-17 -0.04835767511)
(-4.139376956e-05 -1.894802716e-17 -0.04796551975)
(-4.174803732e-05 -1.864565214e-17 -0.04750549322)
(-4.182129147e-05 -1.821264953e-17 -0.04696860143)
(-4.15920002e-05 -1.81962949e-17 -0.04634519246)
(-4.10431474e-05 -1.802982676e-17 -0.04562498814)
(-4.016306195e-05 -1.774402515e-17 -0.04479713158)
(-3.89457722e-05 -1.73543131e-17 -0.04385024151)
(-3.739232957e-05 -1.687570477e-17 -0.04277247521)
(-3.551203976e-05 -1.632974162e-17 -0.04155160738)
(-3.33219732e-05 -1.570414449e-17 -0.04017511465)
(-3.0847635e-05 -1.499315949e-17 -0.0386302607)
(-2.812337906e-05 -1.4189901e-17 -0.03690418767)
(-2.51924826e-05 -1.33045277e-17 -0.03498401323)
(-2.210713075e-05 -1.234211746e-17 -0.03285692575)
(-1.892842232e-05 -1.130662933e-17 -0.03051027731)
(-1.572590183e-05 -1.020375722e-17 -0.02793167448)
(-1.257714711e-05 -9.043415447e-18 -0.02510906118)
(-9.567129829e-06 -7.830436782e-18 -0.0220307917)
(-6.78676483e-06 -6.575864765e-18 -0.01868569597)
(-4.332010322e-06 -5.204047225e-18 -0.01506313508)
(-2.31328121e-06 -3.790968924e-18 -0.01115303039)
(-8.790265681e-07 -2.323890574e-18 -0.006945834228)
(-1.5910253e-07 -7.965202918e-19 -0.002432348751)
(-7.797439882e-07 1.189853573e-18 -0.0503210511)
(-2.038307699e-06 8.040489531e-18 -0.05032006636)
(-3.242268834e-06 -1.824720897e-18 -0.05031790097)
(-4.511395939e-06 -5.207630783e-18 -0.05031461078)
(-5.810406049e-06 -6.916159644e-18 -0.05031015294)
(-7.138173484e-06 -8.504966278e-18 -0.05030444087)
(-8.501493536e-06 -1.113642543e-17 -0.05029733932)
(-9.906922254e-06 -1.095667448e-17 -0.05028865775)
(-1.135724083e-05 -1.124321067e-17 -0.05027813567)
(-1.285313278e-05 -1.142067006e-17 -0.05026542612)
(-1.439422464e-05 -1.447083156e-17 -0.05025007463)
(-1.59782326e-05 -1.397017878e-17 -0.05023149338)
(-1.760071443e-05 -1.384280721e-17 -0.05020893183)
(-1.925532775e-05 -1.355320228e-17 -0.05018144545)
(-2.093380188e-05 -1.452247066e-17 -0.050147863)
(-2.262621805e-05 -1.50225588e-17 -0.05010675156)
(-2.432190195e-05 -1.49678453e-17 -0.05005637926)
(-2.600980093e-05 -1.553126524e-17 -0.04999467615)
(-2.767705569e-05 -1.671573441e-17 -0.04991919342)
(-2.93082367e-05 -1.74975666e-17 -0.04982706144)
(-3.088685196e-05 -1.803552846e-17 -0.04971494415)
(-3.239454157e-05 -1.841028823e-17 -0.0495789957)
(-3.381012041e-05 -1.865876105e-17 -0.04941481904)
(-3.511131062e-05 -1.880318009e-17 -0.04921742522)
(-3.627371726e-05 -1.885539564e-17 -0.04898120005)
(-3.727126607e-05 -1.881940775e-17 -0.04869987541)
(-3.807822562e-05 -1.869465843e-17 -0.0483665088)
(-3.866855256e-05 -1.847132523e-17 -0.04797347297)
(-3.90175183e-05 -1.812090468e-17 -0.04751245328)
(-3.910226854e-05 -1.757811781e-17 -0.04697445919)
(-3.890253285e-05 -1.762290357e-17 -0.04634984534)
(-3.840283896e-05 -1.747754382e-17 -0.04562834479)
(-3.759212856e-05 -1.718100713e-17 -0.04479911585)
(-3.646467734e-05 -1.672785389e-17 -0.04385079549)
(-3.50215819e-05 -1.606640768e-17 -0.04277156392)
(-3.327143051e-05 -1.572070142e-17 -0.0415492234)
(-3.12300124e-05 -1.523256927e-17 -0.04017128149)
(-2.892099612e-05 -1.466772898e-17 -0.0386250351)
(-2.637630895e-05 -1.380443648e-17 -0.03689766352)
(-2.363624607e-05 -1.288501889e-17 -0.03497632467)
(-2.07495395e-05 -1.189723838e-17 -0.03284824983)
(-1.77733663e-05 -1.08241252e-17 -0.03050083669)
(-1.477271622e-05 -9.771935519e-18 -0.02792173869)
(-1.182028715e-05 -8.654431575e-18 -0.02509894704)
(-8.995803494e-06 -7.495944286e-18 -0.02202086492)
(-6.384782102e-06 -6.218509724e-18 -0.01867637204)
(-4.077680297e-06 -4.915146977e-18 -0.01505487961)
(-2.178822178e-06 -3.574151857e-18 -0.01114635999)
(-8.286711693e-07 -2.186871607e-18 -0.006941317636)
(-1.50201018e-07 -7.479565389e-19 -0.002430607952)
(-6.838713194e-07 -2.496287136e-18 -0.05033146353)
(-1.788259835e-06 -5.465908328e-18 -0.05033050347)
(-2.847800807e-06 -9.291861545e-18 -0.05032839007)
(-3.970205403e-06 -7.107504366e-18 -0.05032517518)
(-5.125218163e-06 -6.86172471e-18 -0.05032081378)
(-6.313370799e-06 -7.687553698e-18 -0.05031521673)
(-7.541579323e-06 -8.740445211e-18 -0.050308245)
(-8.815905233e-06 -9.918897999e-18 -0.05029970409)
(-1.014019534e-05 -1.133241567e-17 -0.05028932948)
(-1.151522779e-05 -1.031962197e-17 -0.05027676906)
(-1.294001729e-05 -1.146054271e-17 -0.05026156227)
(-1.441188539e-05 -1.236844781e-17 -0.05024311498)
(-1.592618927e-05 -1.315339411e-17 -0.05022067087)
(-1.74760125e-05 -1.396944391e-17 -0.05019328022)
(-1.905263135e-05 -1.469313805e-17 -0.05015976686)
(-2.064630201e-05 -1.503782783e-17 -0.05011869282)
(-2.224672775e-05 -1.605101901e-17 -0.05006832113)
(-2.384298815e-05 -1.669570615e-17 -0.05000657656)
(-2.54216793e-05 -1.715903582e-17 -0.04993100515)
(-2.696758292e-05 -1.754654492e-17 -0.04983873047)
(-2.846551054e-05 -1.787765243e-17 -0.04972640905)
(-2.989751264e-05 -1.814486002e-17 -0.04959018764)
(-3.124323519e-05 -1.829660112e-17 -0.04942566077)
(-3.248187986e-05 -1.837648869e-17 -0.04922783146)
(-3.359038746e-05 -1.83990528e-17 -0.04899107851)
(-3.454472247e-05 -1.837015527e-17 -0.0487091274)
(-3.53205307e-05 -1.829406374e-17 -0.0483750311)
(-3.589319718e-05 -1.817739443e-17 -0.04798115971)
(-3.624000991e-05 -1.803513801e-17 -0.04751919895)
(-3.633963833e-05 -1.790252572e-17 -0.04698016175)
(-3.617311552e-05 -1.786998411e-17 -0.04635440873)
(-3.572607964e-05 -1.753103767e-17 -0.04563168344)
(-3.498815546e-05 -1.723016431e-17 -0.0448011584)
(-3.395391371e-05 -1.698573537e-17 -0.04385148754)
(-3.262449449e-05 -1.651652758e-17 -0.04277087256)
(-3.100758709e-05 -1.565210617e-17 -0.0415471414)
(-2.911764455e-05 -1.479013377e-17 -0.04016782998)
(-2.697653378e-05 -1.389809979e-17 -0.03862026639)
(-2.461378602e-05 -1.324368698e-17 -0.03689166469)
(-2.206676328e-05 -1.256202469e-17 -0.03496922054)
(-1.938085722e-05 -1.18894562e-17 -0.03284020566)
(-1.660914628e-05 -1.090569674e-17 -0.03049206058)
(-1.381216126e-05 -9.556851408e-18 -0.02791248264)
(-1.105767047e-05 -8.166679535e-18 -0.02508950791)
(-8.420180564e-06 -6.699197981e-18 -0.02201158603)
(-5.979800142e-06 -5.565364741e-18 -0.01866764424)
(-3.821461703e-06 -4.434396447e-18 -0.01504714177)
(-2.043366627e-06 -3.221396746e-18 -0.01114009999)
(-7.779419358e-07 -1.933488659e-18 -0.00693707371)
(-1.41233728e-07 -5.730968941e-19 -0.002428969903)
(-5.868893807e-07 1.73428072e-18 -0.05034133377)
(-1.53538346e-06 -1.115840129e-17 -0.05034039897)
(-2.449163637e-06 -2.964892862e-18 -0.05033833892)
(-3.423058925e-06 -4.093546717e-18 -0.05033520134)
(-4.431902875e-06 -3.378037044e-18 -0.05033093969)
(-5.478114013e-06 -5.818928853e-18 -0.05032546135)
(-6.56901686e-06 -5.767769306e-18 -0.05031862411)
(-7.709965904e-06 -7.644940854e-18 -0.05031022852)
(-8.90511693e-06 -8.326021353e-18 -0.05030000563)
(-1.015564958e-05 -1.11891262e-17 -0.05028759832)
(-1.146049981e-05 -9.1837855e-18 -0.05027254021)
(-1.281646998e-05 -1.069385762e-17 -0.05025423103)
(-1.421831924e-05 -1.141394931e-17 -0.05023190855)
(-1.56589587e-05 -1.338768117e-17 -0.05020461766)
(-1.712978026e-05 -1.492999159e-17 -0.05017117704)
(-1.86211422e-05 -1.665613387e-17 -0.05013014389)
(-2.012317501e-05 -1.754767062e-17 -0.05007977638)
(-2.162448477e-05 -1.784199548e-17 -0.05001799484)
(-2.311140921e-05 -1.74757843e-17 -0.04994234042)
(-2.457005495e-05 -1.747526321e-17 -0.04984993038)
(-2.59855936e-05 -1.771793565e-17 -0.04973741455)
(-2.734045218e-05 -1.821369197e-17 -0.049600933)
(-2.861600936e-05 -1.795955569e-17 -0.0494360727)
(-2.979242753e-05 -1.783559687e-17 -0.04923782953)
(-3.084769547e-05 -1.775824291e-17 -0.04900057563)
(-3.17598088e-05 -1.768408814e-17 -0.04871803091)
(-3.250593764e-05 -1.759399295e-17 -0.04838324454)
(-3.306308277e-05 -1.748003429e-17 -0.04798858402)
(-3.341012358e-05 -1.735585654e-17 -0.04752573547)
(-3.352714337e-05 -1.726977342e-17 -0.04698571514)
(-3.33967142e-05 -1.6719088e-17 -0.04635888934)
(-3.300531814e-05 -1.632866859e-17 -0.04563501137)
(-3.234311518e-05 -1.591965509e-17 -0.04480326678)
(-3.140502729e-05 -1.548665754e-17 -0.04385232523)
(-3.01921575e-05 -1.526120654e-17 -0.04277040886)
(-2.871134607e-05 -1.451341471e-17 -0.0415453692)
(-2.697572158e-05 -1.375821696e-17 -0.04016476787)
(-2.500533949e-05 -1.297203719e-17 -0.03861596222)
(-2.282734892e-05 -1.242169694e-17 -0.03688619877)
(-2.047620977e-05 -1.160434057e-17 -0.0349627084)
(-1.799392348e-05 -1.071441761e-17 -0.03283280104)
(-1.54294692e-05 -9.916421552e-18 -0.03048395697)
(-1.283887215e-05 -8.924414195e-18 -0.02790391411)
(-1.028493966e-05 -7.7886378e-18 -0.02508075119)
(-7.836910123e-06 -6.642477189e-18 -0.02200296196)
(-5.56942059e-06 -5.533098358e-18 -0.01865951888)
(-3.561821605e-06 -4.351311737e-18 -0.01503992699)
(-1.90609676e-06 -3.155133219e-18 -0.01113425468)
(-7.265331642e-07 -1.92653887e-18 -0.006933105304)
(-1.321467639e-07 -6.572563684e-19 -0.002427435676)
(-4.891606239e-07 -3.055407167e-18 -0.05035065662)
(-1.280691614e-06 -5.940558951e-18 -0.05034974764)
(-2.048066215e-06 -6.617903265e-18 -0.05034774206)
(-2.871869236e-06 -6.962897206e-18 -0.050344684)
(-3.732675584e-06 -7.991228837e-18 -0.05034052488)
(-4.634927094e-06 -8.555130797e-18 -0.05033516821)
(-5.586615698e-06 -8.809234069e-18 -0.05032846891)
(-6.592418624e-06 -8.774896165e-18 -0.05032022269)
(-7.65584323e-06 -8.327318902e-18 -0.05031015543)
(-8.778713637e-06 -1.009199159e-17 -0.05029790476)
(-9.959898304e-06 -1.079272689e-17 -0.0502829986)
(-1.119591775e-05 -1.1473235e-17 -0.05026483072)
(-1.248129377e-05 -1.208410922e-17 -0.05024263301)
(-1.380881304e-05 -1.260012754e-17 -0.05021544487)
(-1.516991272e-05 -1.328048594e-17 -0.05018208002)
(-1.655545766e-05 -1.38945861e-17 -0.05014109093)
(-1.795547682e-05 -1.442694066e-17 -0.05009073151)
(-1.935793342e-05 -1.49724089e-17 -0.05002891829)
(-2.074975615e-05 -1.539163059e-17 -0.04995318726)
(-2.211838352e-05 -1.572193312e-17 -0.04986065011)
(-2.344921535e-05 -1.597288202e-17 -0.0497479511)
(-2.472508572e-05 -1.614333424e-17 -0.04961122367)
(-2.592905728e-05 -1.635509114e-17 -0.04944604813)
(-2.704235112e-05 -1.649885587e-17 -0.04924741433)
(-2.804426966e-05 -1.658071424e-17 -0.04900968806)
(-2.891437889e-05 -1.660052244e-17 -0.04872658419)
(-2.963133658e-05 -1.653989169e-17 -0.04839114851)
(-3.017416114e-05 -1.635433334e-17 -0.04799574642)
(-3.052297314e-05 -1.606625787e-17 -0.04753206456)
(-3.065905333e-05 -1.568210314e-17 -0.04699112198)
(-3.056670109e-05 -1.506501168e-17 -0.04636329071)
(-3.023313536e-05 -1.473817047e-17 -0.04563833312)
(-2.964897292e-05 -1.431635593e-17 -0.04480544631)
(-2.880952635e-05 -1.378108892e-17 -0.04385331475)
(-2.771572452e-05 -1.343465643e-17 -0.0427701794)
(-2.637367237e-05 -1.296694573e-17 -0.04154391359)
(-2.479521532e-05 -1.239474316e-17 -0.04016210257)
(-2.299857019e-05 -1.172665198e-17 -0.03861213074)
(-2.100851884e-05 -1.096610706e-17 -0.03688127467)
(-1.885673823e-05 -1.040456664e-17 -0.03495679801)
(-1.658160125e-05 -9.746722106e-18 -0.03282604611)
(-1.422803309e-05 -8.785910976e-18 -0.03047653606)
(-1.184745903e-05 -7.700780657e-18 -0.0278960436)
(-9.497679019e-06 -6.684339625e-18 -0.02507268747)
(-7.242570331e-06 -5.534218028e-18 -0.021995003)
(-5.151182489e-06 -4.550066882e-18 -0.01865200547)
(-3.297184403e-06 -3.676057972e-18 -0.01503324364)
(-1.766173169e-06 -2.711424122e-18 -0.01112883079)
(-6.74133731e-07 -1.673905437e-18 -0.006929416856)
(-1.228870607e-07 -5.756034752e-19 -0.002426006915)
(-3.912273409e-07 -9.547890215e-18 -0.05035942809)
(-1.025677271e-06 -8.924913942e-18 -0.05035854518)
(-1.645796952e-06 -1.070250729e-17 -0.0503565951)
(-2.318045799e-06 -7.788562914e-18 -0.05035361864)
(-3.030063483e-06 -1.387658155e-17 -0.05034956414)
(-3.78726877e-06 -1.20139258e-17 -0.05034433157)
(-4.597633906e-06 -1.258851798e-17 -0.05033777255)
(-5.466355299e-06 -1.119047276e-17 -0.05032967881)
(-6.395976084e-06 -1.092853392e-17 -0.05031977027)
(-7.388274322e-06 -1.147460725e-17 -0.05030767896)
(-8.442455e-06 -1.180871863e-17 -0.05029292715)
(-9.554900385e-06 -1.232352925e-17 -0.05027490273)
(-1.071993319e-05 -1.31512728e-17 -0.05025283187)
(-1.193030323e-05 -1.246657937e-17 -0.05022574868)
(-1.317783947e-05 -1.208008191e-17 -0.05019246192)
(-1.445370547e-05 -1.1286622e-17 -0.0501515198)
(-1.57472703e-05 -1.101867065e-17 -0.0501011728)
(-1.704657584e-05 -1.256227076e-17 -0.05003933341)
(-1.833991123e-05 -1.35069265e-17 -0.04996353281)
(-1.961514131e-05 -1.405804018e-17 -0.0498708777)
(-2.085794061e-05 -1.429340585e-17 -0.04975800758)
(-2.205252871e-05 -1.419175242e-17 -0.04962104981)
(-2.318289101e-05 -1.477220274e-17 -0.0494555786)
(-2.423120877e-05 -1.514537899e-17 -0.04925657844)
(-2.517877291e-05 -1.541051543e-17 -0.04901840957)
(-2.600635819e-05 -1.564818926e-17 -0.04873478244)
(-2.669387694e-05 -1.594557166e-17 -0.04839873949)
(-2.722240367e-05 -1.554461446e-17 -0.04800264466)
(-2.757341362e-05 -1.516481999e-17 -0.04753818523)
(-2.772941823e-05 -1.4305059e-17 -0.04699638245)
(-2.767616706e-05 -1.409525219e-17 -0.04636761403)
(-2.740172215e-05 -1.380368531e-17 -0.04564165075)
(-2.68972527e-05 -1.345019017e-17 -0.04480770002)
(-2.615857067e-05 -1.304136122e-17 -0.04385446007)
(-2.518621679e-05 -1.258814071e-17 -0.04277018925)
(-2.398549994e-05 -1.207359468e-17 -0.04154278073)
(-2.256706691e-05 -1.148576053e-17 -0.04015984136)
(-2.094734426e-05 -1.081552429e-17 -0.03860878036)
(-1.914877403e-05 -1.005369524e-17 -0.036876902)
(-1.720022982e-05 -9.456679721e-18 -0.03495150057)
(-1.513642378e-05 -8.792160457e-18 -0.03281995367)
(-1.299815948e-05 -8.033444974e-18 -0.03046981149)
(-1.083218241e-05 -7.217405123e-18 -0.02788888531)
(-8.691175892e-06 -6.456075392e-18 -0.02506533117)
(-6.63351475e-06 -5.644959631e-18 -0.0219877233)
(-4.722489744e-06 -4.657139933e-18 -0.01864511728)
(-3.025885375e-06 -3.704662929e-18 -0.01502710349)
(-1.622715799e-06 -2.704084376e-18 -0.01112383787)
(-6.204057843e-07 -1.6588094e-18 -0.006926014751)
(-1.133913325e-07 -5.68748413e-19 -0.00242468603)
(-2.936550755e-07 -2.103295884e-18 -0.05036764577)
(-7.711953235e-07 -2.734582348e-18 -0.05036678937)
(-1.243252492e-06 -1.231919651e-18 -0.05036489623)
(-1.763330198e-06 -5.249817426e-18 -0.05036200272)
(-2.326118081e-06 -7.271447322e-18 -0.05035805403)
(-2.93742989e-06 -8.226795064e-18 -0.05035294749)
(-3.604762007e-06 -8.946828456e-18 -0.0503465303)
(-4.334408763e-06 -9.723118951e-18 -0.05033859046)
(-5.128593151e-06 -1.065884017e-17 -0.0503288426)
(-5.988041753e-06 -1.185902822e-17 -0.05031691242)
(-6.912077099e-06 -1.166750025e-17 -0.05030231627)
(-7.897372136e-06 -1.195640794e-17 -0.05028443639)
(-8.9382085e-06 -1.242795286e-17 -0.05026249342)
(-1.00276471e-05 -1.282536963e-17 -0.05023551625)
(-1.115778993e-05 -1.294951877e-17 -0.05020230917)
(-1.231927321e-05 -1.309468641e-17 -0.05016141687)
(-1.350144192e-05 -1.331361602e-17 -0.05011108645)
(-1.469330865e-05 -1.350113884e-17 -0.05004922626)
(-1.588427815e-05 -1.368309311e-17 -0.04997336322)
(-1.70622909e-05 -1.383150696e-17 -0.04988060002)
(-1.821335339e-05 -1.393758072e-17 -0.04976757141)
(-1.932355533e-05 -1.401033456e-17 -0.04963039951)
(-2.037760951e-05 -1.409621949e-17 -0.04946465342)
(-2.135853542e-05 -1.414743291e-17 -0.04926531229)
(-2.224962074e-05 -1.414169779e-17 -0.04902673168)
(-2.303299239e-05 -1.406536145e-17 -0.0487426184)
(-2.368996112e-05 -1.39064445e-17 -0.04840601162)
(-2.420329111e-05 -1.376591129e-17 -0.04800927403)
(-2.455594975e-05 -1.354643943e-17 -0.04754409373)
(-2.473190627e-05 -1.33851289e-17 -0.04700149403)
(-2.471806295e-05 -1.315512884e-17 -0.04637185787)
(-2.450336159e-05 -1.288032726e-17 -0.0456449637)
(-2.407963775e-05 -1.256106682e-17 -0.04481002832)
(-2.344318996e-05 -1.219476416e-17 -0.04385576314)
(-2.259416306e-05 -1.177913316e-17 -0.04277044216)
(-2.153708687e-05 -1.131128209e-17 -0.04154197584)
(-2.028144575e-05 -1.078941863e-17 -0.04015799112)
(-1.884193603e-05 -1.021334511e-17 -0.03860591992)
(-1.723878771e-05 -9.58911729e-18 -0.03687309172)
(-1.549782592e-05 -8.928675345e-18 -0.03494682868)
(-1.365017887e-05 -8.239959888e-18 -0.03281453766)
(-1.173243921e-05 -7.561502786e-18 -0.03046379891)
(-9.786596837e-06 -6.863181643e-18 -0.02788245623)
(-7.860073222e-06 -6.139928951e-18 -0.02505870005)
(-6.005544673e-06 -5.394662075e-18 -0.02198114064)
(-4.280304809e-06 -4.543056769e-18 -0.01863887124)
(-2.74596072e-06 -3.58906611e-18 -0.01502152143)
(-1.474677793e-06 -2.610070766e-18 -0.01111928762)
(-5.6495582e-07 -1.597781713e-18 -0.006922906754)
(-1.035918223e-07 -5.472362386e-19 -0.002423475903)
(-1.962778419e-07 -2.179831521e-18 -0.050375311)
(-5.169051053e-07 -3.767316296e-18 -0.05037448167)
(-8.410346691e-07 -5.095342453e-18 -0.05037264612)
(-1.209704401e-06 -7.474123399e-18 -0.05036983605)
(-1.622971102e-06 -4.056543341e-18 -0.05036599375)
(-2.087766302e-06 -5.173808181e-18 -0.05036101391)
(-2.611377443e-06 -5.120720316e-18 -0.050354739)
(-3.199886553e-06 -7.630669052e-18 -0.05034695292)
(-3.856311774e-06 -9.631266088e-18 -0.05033736562)
(-4.580935784e-06 -8.734005483e-18 -0.0503255968)
(-5.372312151e-06 -9.885652223e-18 -0.05031115639)
(-6.227194612e-06 -1.084038146e-17 -0.05029342084)
(-7.140356516e-06 -1.184897059e-17 -0.05027160547)
(-8.105004795e-06 -1.314758638e-17 -0.05024473443)
(-9.112928505e-06 -1.319579009e-17 -0.05021160826)
(-1.015479419e-05 -1.375064802e-17 -0.05017076831)
(-1.122071793e-05 -1.495981649e-17 -0.05012045805)
(-1.230080244e-05 -1.412300213e-17 -0.05005858216)
(-1.338488813e-05 -1.369521424e-17 -0.04998266394)
(-1.446102575e-05 -1.3477033e-17 -0.04988980278)
(-1.551629044e-05 -1.33596549e-17 -0.04977662887)
(-1.653811471e-05 -1.328135015e-17 -0.04963925968)
(-1.75121181e-05 -1.320378391e-17 -0.04947326007)
(-1.842267227e-05 -1.308821748e-17 -0.0492736043)
(-1.925445373e-05 -1.289635715e-17 -0.04903464375)
(-1.999095512e-05 -1.257817572e-17 -0.04875008213)
(-2.061550774e-05 -1.206222455e-17 -0.04841295583)
(-2.111213398e-05 -1.212235005e-17 -0.04801562655)
(-2.14650567e-05 -1.201491831e-17 -0.04754978308)
(-2.166013982e-05 -1.219863377e-17 -0.04700645087)
(-2.168528775e-05 -1.206211663e-17 -0.04637601774)
(-2.153022945e-05 -1.185043553e-17 -0.04564826895)
(-2.118762162e-05 -1.15815056e-17 -0.04481242995)
(-2.065411588e-05 -1.126219105e-17 -0.04385722419)
(-1.992968378e-05 -1.089372585e-17 -0.04277093983)
(-1.901819478e-05 -1.047826862e-17 -0.04154150274)
(-1.792796546e-05 -1.0016321e-17 -0.04015655802)
(-1.667199734e-05 -9.508350765e-18 -0.03860355805)
(-1.526837005e-05 -8.955769927e-18 -0.03686985544)
(-1.373980686e-05 -8.361049553e-18 -0.03494279708)
(-1.211381094e-05 -7.728557897e-18 -0.03280981533)
(-1.042268927e-05 -7.062335183e-18 -0.03045851781)
(-8.703557969e-06 -6.363251265e-18 -0.02787677775)
(-6.998394434e-06 -5.633668273e-18 -0.02505281675)
(-5.353926709e-06 -4.877863684e-18 -0.021975278)
(-3.821143169e-06 -4.103725528e-18 -0.01863328951)
(-2.455123638e-06 -3.232190555e-18 -0.01501651742)
(-1.320798252e-06 -2.344391089e-18 -0.01111519637)
(-5.072907082e-07 -1.432357457e-18 -0.006920103989)
(-9.339246094e-08 -4.897994383e-19 -0.002422380845)
(-9.921396881e-08 -1.915429532e-18 -0.05038242697)
(-2.636837054e-07 -3.051132125e-18 -0.05038162465)
(-4.408470528e-07 -3.872273861e-18 -0.05037984626)
(-6.589231125e-07 -4.637656229e-18 -0.05037711903)
(-9.228730408e-07 -4.868898215e-18 -0.05037338291)
(-1.240945261e-06 -5.437426468e-18 -0.05036852914)
(-1.620267855e-06 -6.109132127e-18 -0.05036239612)
(-2.066122188e-06 -7.017941493e-18 -0.05035476265)
(-2.582367567e-06 -7.828636375e-18 -0.05034533392)
(-3.169493463e-06 -8.335376587e-18 -0.0503337243)
(-3.825571021e-06 -8.922493681e-18 -0.05031943778)