/*--------------------------------*- C++ -*----------------------------------*\
  =========                 |
  \\      /  F ield         | OpenFOAM: The Open Source CFD Toolbox
   \\    /   O peration     | Website:  https://openfoam.org
    \\  /    A nd           | Version:  7
     \\/     M anipulation  |
\*---------------------------------------------------------------------------*/
FoamFile
{
    version     2.0;
    format      ascii;
    class       volScalarField;
    location    "0.0012";
    object      generalizedNewtonian:nu;
}
// * * * * * * * * * * * * * * * * * * * * * * * * * * * * * * * * * * * * * //

dimensions      [0 2 -1 0 0 0 0];

internalField   nonuniform List<scalar> 
1167
(
34.86719471
34.69197227
31.27470218
31.11961646
31.18041963
30.90220522
30.63817188
30.32310243
29.96088187
29.56159766
29.13122465
28.67542922
28.19999618
27.70940884
27.20790416
26.69962998
26.18734708
25.67413983
25.16215365
24.65337125
24.14940431
23.65144399
23.16066781
22.67774505
22.20350728
21.73839295
21.2829576
20.83755095
20.40256868
19.97846108
19.56555683
19.16448484
18.77553329
18.39956065
18.03686637
17.68830821
17.35421607
17.03522781
16.7315821
16.44346315
16.1707319
15.91298994
15.66960797
15.43956242
15.22170416
15.01453568
14.81654433
14.62610435
14.44204547
14.26395163
14.08974228
13.91997841
28.14033987
28.0030665
28.06192557
27.81503002
27.58274948
27.30464732
26.98429764
26.63014131
26.24739339
25.84109826
25.41584804
24.97553282
24.52410455
24.06462779
23.59983151
23.13234659
22.66382016
22.19636664
21.73091409
21.26900458
20.81116122
20.35851296
19.91131458
19.47045657
19.03607439
18.60883438
18.18900199
17.77713663
17.37373915
16.97932328
16.59471135
16.22044399
15.85756126
15.50673627
15.16895964
14.84507188
14.53580044
14.24188831
13.96364611
13.70153679
13.45531213
13.2248189
13.00925438
12.80777284
12.61902156
12.44168635
12.27446116
12.1164712
11.96483599
11.8238384
25.40524632
25.28371845
25.34087712
25.12177456
24.91768448
24.67252671
24.38922162
24.07524853
23.73504697
23.37299882
22.99262728
22.59751351
22.19099429
21.77548149
21.35367571
20.9273751
20.4984409
20.06821778
19.63794881
19.20855002
18.78085373
18.35542647
17.93292745
17.51362603
17.09817816
16.68673131
16.27990335
15.87802643
15.48165063
15.09149218
14.70813095
14.33256085
13.9656067
13.60833494
13.26196493
12.92749853
12.60623004
12.29922219
12.00750501
11.732111
11.47363864
11.23271747
11.0094475
10.80369328
10.61475993
10.44165892
10.28335099
10.13828367
10.00292575
9.884450606
23.01738403
22.90974256
22.96540658
22.77096134
22.59196665
22.37584334
22.12546197
21.8473161
21.54529386
21.22266359
20.88257323
20.5282575
20.16211662
19.78652924
19.40359756
19.01486346
18.6220069
18.22596807
17.82799696
17.42866036
17.02878678
16.62878638
16.22912515
15.83020122
15.43221646
15.03573347
14.64089258
14.24817068
13.85811595
13.47121114
13.08826184
12.71006959
12.33756091
11.97197618
11.61447736
11.26636821
10.92919285
10.60440575
10.29351201
9.998153158
9.719789422
9.459822146
9.219574396
8.999836752
8.801101647
8.623249753
8.465727351
8.326545055
8.201327388
8.099502021
20.93093759
20.83550973
20.88987929
20.71736355
20.56043912
20.37010364
20.14906348
19.90303009
19.63505649
19.34778906
19.04408217
18.72645177
18.3968845
18.05764177
17.7100897
17.35589877
16.99606989
16.6317917
16.2636509
15.89254748
15.51876164
15.1428891
14.76511986
14.38572865
14.00507027
13.62323899
13.2405689
12.85741287
12.47408671
12.09112902
11.70923256
11.32907848
10.95158638
10.57792036
10.2092906
9.847073639
9.492839203
9.148372483
8.815507517
8.496234149
8.192713108
7.907286263
7.64220377
7.399666661
7.181602698
6.989324146
6.82345975
6.682234348
6.560708295
6.470099677
19.10591302
19.02130611
19.07445714
18.92126603
18.78392877
18.61655146
18.42171543
18.20441424
17.96683879
17.71132844
17.44042217
17.15585896
16.85961802
16.55327342
16.23818816
15.91559566
15.58643148
15.25152905
14.91154029
14.56690348
14.21818286
13.86548851
13.50913949
13.14931245
12.78607937
12.41964454
12.05019247
11.67786416
11.30294344
10.9258918
10.54717519
10.16738967
9.787329222
9.407967606
9.030495187
8.656215831
8.286677722
7.923649946
7.569146149
7.225452207
6.895140115
6.58106393
6.286267566
6.013909077
5.76719508
5.549451112
5.363769934
5.210148491
5.08423451
4.998632453
17.50818725
17.43305407
17.48465363
17.34838587
17.22819856
17.08095131
16.90926274
16.71711104
16.50639595
16.27921785
16.0373676
15.78244525
15.51616778
15.23958755
14.95412828
14.66047308
14.35968356
14.05220418
13.73865943
13.41942767
13.09472354
12.76489187
12.42996783
12.09002951
11.74520211
11.39554427
11.04107611
10.68189935
10.31818658
9.950237222
9.57834075
9.202949575
8.824674223
8.444269422
8.062678128
7.681050505
7.300753718
6.923434413
6.551032469
6.185809912
5.830389074
5.487760165
5.161317209
4.854989386
4.573386302
4.321869811
4.105761357
3.927458994
3.78562912
3.696124281
16.10715509
16.04009942
16.08935668
15.96790541
15.86277164
15.73327564
15.58188731
15.41202251
15.22532947
15.02354032
14.80795804
14.58014924
14.34119889
14.09226068
13.8341604
13.56776117
13.29353987
13.01221489
12.72398924
12.42920019
12.12811858
11.82078138
11.50728018
11.18771487
10.86207093
10.53032738
10.19249723
9.848628554
9.498809406
9.143164775
8.781909918
8.415344013
8.043860604
7.668011678
7.288457804
6.906063831
6.521917051
6.137369833
5.754164537
5.374377401
5.000572639
4.635904875
4.284160594
3.949621351
3.636852681
3.350378475
3.094416257
2.872867569
2.694426886
2.590548505
14.87270195
14.81234775
14.86012513
14.75321618
14.66335854
14.55167615
14.42063955
14.27324006
14.11086323
13.93459568
13.74565334
13.54517432
13.33395653
13.11293727
12.88268219
12.64380737
12.39676906
12.14185725
11.87945962
11.60968739
11.33265371
11.04845061
10.7571992
10.45883636
10.1533625
9.840772143
9.521074361
9.194287814
8.860452713
8.519654437
8.172011375
7.817690276
7.456926304
7.090070945
6.717502978
6.339713755
5.957439207
5.571551707
5.183251039
4.79410991
4.406246904
4.022289373
3.645417203
3.279137025
2.927299144
2.594980876
2.289414376
2.018762649
1.795828813
1.661597665
13.79584793
13.73728233
13.78596168
13.69240504
13.61666318
13.52096784
13.40802123
13.2803274
13.13866044
12.98374806
12.81664453
12.63789216
12.44833874
12.24839429
12.0388107
11.81984679
11.59196328
11.35554834
11.11079859
10.85796053
10.59728612
10.32893162
10.05301844
9.769683832
9.47905041
9.181249433
8.876396501
8.564615666
8.246056696
7.92086401
7.589274879
7.251392231
6.907415448
6.557625999
6.202189658
5.841446567
5.475642063
5.105197433
4.730686706
4.352894901
3.97298321
3.592662163
3.21436773
2.841642674
2.479665949
2.135753085
1.817222311
1.524418054
1.251549912
1.01120105
12.86903018
12.81279656
12.86075773
12.77315338
12.70352632
12.61529138
12.51143178
12.39442657
12.26482493
12.1235729
11.97152238
11.80932416
11.63768302
11.45711029
11.26804615
11.07100037
10.86619897
10.65392773
10.43449989
10.20802432
9.974648847
9.734495236
9.487662353
9.234220998
8.974244366
8.707782764
8.434859105
8.155500458
7.869705989
7.577558219
7.278938826
6.973826129
6.662162868
6.343824285
6.018677121
5.68656899
5.347261671
5.000580785
4.646367272
4.28458628
3.915448147
3.539568066
3.158209085
2.773590371
2.389000373
2.008635632
1.63670544
1.272149335
0.902323639
0.532667389
12.06053602
12.01297796
12.06267651
11.98532306
11.92648989
11.85143307
11.76264562
11.66201189
11.54990234
11.427083
11.29396002
11.15116867
10.99902752
10.83811136
10.66861721
10.49094137
10.30541786
10.11222772
9.911615101
9.703809725
9.489039296
9.267462666
9.039241186
8.80453687
8.563518332
8.316340823
8.063131056
7.803975704
7.538964235
7.268217332
6.991719479
6.709495725
6.421485562
6.12768892
5.827927299
5.522042075
5.209868716
4.891176045
4.565706338
4.233214668
3.893522445
3.546482841
3.192179712
2.830896251
2.463203001
2.089686299
1.708259899
1.309039697
0.8923848539
0.5261387458
11.33586098
11.29529385
11.34487959
11.27707209
11.22756161
11.16405304
11.08870059
11.00298743
10.90727536
10.80204831
10.68759211
10.56438576
10.43262435
10.29262814
10.14466191
9.988876405
9.825504084
9.654769441
9.476775325
9.29168876
9.099659955
8.900835357
8.695338886
8.483301932
8.264815062
8.039951721
7.808799497
7.571367454
7.327577777
7.077376673
6.820562065
6.55691496
6.286063961
6.007561484
5.720850003
5.425247045
5.119964685
4.804136855
4.476867386
4.137349611
3.785153572
3.420370325
3.044135109
2.658996451
2.269246827
1.880639023
1.499190462
1.132272984
0.7979878274
0.530698482
10.67717345
10.64096785
10.68985693
10.62953562
10.58711583
10.53249795
10.46733073
10.39301797
10.30988701
10.21810974
10.11803899
10.00984416
9.89381636
9.770014979
9.63870122
9.499993142
9.353982485
9.200804122
9.04059449
8.873496884
8.699591488
8.518977945
8.331761081
8.13807067
7.937923441
7.731353096
7.518327546
7.298863598
7.072737539
6.839786676
6.599652931
6.352020569
6.096314968
5.8318901
5.558011507
5.273820322
4.978310681
4.670427115
4.349105256
4.013395118
3.662671877
3.297053679
2.917960432
2.528842581
2.135948108
1.748657797
1.379547466
1.044420132
0.7603180933
0.5401305512
10.08013777
10.04672194
10.0949821
10.04109839
10.00483536
9.957908626
9.901583541
9.83721392
9.764965179
9.684874807
9.597281215
9.502159041
9.399730861
9.290044994
9.173156889
9.049208182
8.918257676
8.780351857
8.635579894
8.484022124
8.325761416
8.160864424
7.98940435
7.81140883
7.626909597
7.435918142
7.238291395
7.033920031
6.822566436
6.603916565
6.377528115
6.142929332
5.899437905
5.646266338
5.382541526
5.107225517
4.819181274
4.517212782
4.200063579
3.866719349
3.516639035
3.150401376
2.770509032
2.382543416
1.995931136
1.623698381
1.28089048
0.9816812096
0.7356862114
0.5454407239
9.537820118
9.506598089
9.554186466
9.505878422
9.474887249
9.4345196
9.385801892
9.330029692
9.267118581
9.197183256
9.120286373
9.03650755
8.945797322
8.848299279
8.743948587
8.632754185
8.514745573
8.38997385
8.25847182
8.120257532
7.975365654
7.823859025
7.665768681
7.501066691
7.329728375
7.151702938
6.966869729
6.774978934
6.575785214
6.368877013
6.153779474
5.929896322
5.696513777
5.452789203
5.197747235
4.930275441
4.649126494
4.352947706
4.040454706
3.710587362
3.363028488
2.998980141
2.622418607
2.241244664
1.867681019
1.516656438
1.20240548
0.9348670025
0.7177362177
0.5488614341
9.043959925
9.014585566
9.061382844
9.017868338
8.991180166
8.956278773
8.913957321
8.865336827
8.810238231
8.748801865
8.680876686
8.606581711
8.525778545
8.438427062
8.344569924
8.244102911
8.136999677
8.023254148
7.90286206
7.77583063
7.642162202
7.501872459
7.354941678
7.201391582
7.041136539
6.874041203
6.70001791
6.51874456
6.329956723
6.133217252
5.928008594
5.713687944
5.489508424
5.254595006
5.007884307
4.748182189
4.474135146
4.184317371
3.877369857
3.552265785
3.209081292
2.849903513
2.480355195
2.110581259
1.754540224
1.427055709
1.139799673
0.898673367
0.7037058182
0.5507396282
8.593403662
8.565619364
8.611534648
8.572003109
8.548813654
8.518404807
8.481375566
8.43859661
8.389980639
8.33546494
8.274981512
8.20841235
8.135749385
8.05682325
7.971550736
7.879865041
7.781739625
7.677090801
7.565886973
7.448105532
7.323765645
7.19285367
7.05532388
6.911139725
6.760279748
6.602575419
6.437872668
6.265881504
6.086322389
5.898731683
5.702561926
5.497145408
5.281712966
5.055315665
4.816830078
4.564974601
4.29829019
4.015297481
3.71456227
3.395270856
3.057970896
2.705902064
2.346368514
1.991241611
1.655031893
1.351127849
1.088237676
0.8691617033
0.6918492729
0.5514127503
8.181544141
8.155116367
8.199969781
8.163758762
8.143359317
8.116604699
8.083787729
8.045700068
8.002300223
7.953330174
7.898819181
7.83851603
7.772323037
7.70016535
7.621855029
7.537297893
7.446417332
7.349149169
7.245451201
7.135288906
7.018654013
6.895518802
6.765917583
6.629761151
6.486980047
6.337481279
6.181046418
6.017414346
5.846281761
5.667168072
5.47949973
5.282598573
5.07563916
4.857598784
4.627297548
4.383352355
4.124249225
3.848415228
3.554473618
3.241888876
2.911862325
2.568852274
2.221683985
1.883239184
1.567573203
1.286042321
1.044688445
0.8441568922
0.6813150396
0.5511526774
7.804100189
7.778819373
7.822481282
7.789005404
7.770760364
7.746867443
7.717301104
7.682906091
7.643511357
7.598916032
7.548977164
7.493566895
7.432470462
7.365544276
7.292678887
7.213746075
7.128636023
7.037285565
6.939648155
6.835719258
6.725502124
6.608956995
6.486073672
6.356875377
6.221225958
6.079055837
5.930126572
5.774208657
5.610948542
5.439853151
5.260327113
5.071663434
4.872967456
4.663163324
4.440994843
4.204995909
3.953600637
3.685197171
3.398544547
3.093469732
2.771954088
2.43963018
2.10650625
1.785757888
1.49034099
1.229473678
1.007038331
0.8222991245
0.671618282
0.5501366718
7.457238838
7.432921541
7.475275019
7.444011959
7.427397514
7.405573709
7.378420372
7.346784244
7.310343795
7.269006814
7.222498367
7.170701119
7.11344189
7.050519807
6.98180155
6.907179508
6.826567076
6.739910117
6.647172413
6.548353281
6.443447048
6.332510607
6.215507555
6.092416938
5.963194375
5.827697512
5.685716926
5.537035115
5.381231077
5.217801029
5.046134759
4.865469304
4.674845148
4.473138341
4.259010591
4.03094914
3.787339983
3.526601631
3.247674089
2.950834328
2.638891018
2.318520064
2.00049473
1.697694433
1.421652501
1.179602431
0.9738254765
0.8027055014
0.6624568012
0.5484867182
7.137498939
7.113979581
7.154919633
7.125428697
7.109885421
7.089481898
7.064040535
7.034275381
6.999923395
6.960805517
6.91673248
6.867486391
6.81291857
6.752890115
6.687236957
6.615861893
6.538700949
6.455716911
6.366904266
6.272326688
6.171959637
6.065836275
5.954017962
5.836440573
5.713080489
5.583767022
5.448330147
5.306481227
5.157791991
5.001732991
4.837662788
4.664757162
4.482011489
4.288242602
4.082049332
3.861878248
3.62609513
3.373212646
3.102405025
2.814444316
2.512953403
2.205448473
1.903032942
1.617908094
1.36005904
1.135064265
0.9440061885
0.7847844815
0.6536352439
0.5462856756
6.841739327
6.818872809
6.858324265
6.830178427
6.815215981
6.795671982
6.77129732
6.742654041
6.709608534
6.671858712
6.629308671
6.581738766
6.528973572
6.470882573
6.407367543
6.338355387
6.263810385
6.183721846
6.098118135
6.00703553
5.910550854
5.80871078
5.701516689
5.588999001
5.471052395
5.347543732
5.218292423
5.082947549
4.941068358
4.792108113
4.635375078
4.469989329
4.294911286
4.108895813
3.910507918
3.698160249
3.470237978
3.225379449
2.963038064
2.684511025
2.394155566
2.100092693
1.813375144
1.545302997
1.30437542
1.094797032
0.9168330197
0.7681168506
0.6450178541
0.5435892526
3.540014784
3.319968259
3.083277451
2.829709307
2.561074507
2.282326929
2.001979875
1.730756031
1.478908376
1.253613124
1.057998582
0.8917492896
0.7523981891
0.6365050969
0.5404338717
)
;

boundaryField
{
    front_top
    {
        type            wedge;
    }
    front_middle
    {
        type            wedge;
    }
    front_bottom
    {
        type            wedge;
    }
    back_top
    {
        type            wedge;
    }
    back_middle
    {
        type            wedge;
    }
    back_bottom
    {
        type            wedge;
    }
    axis_top
    {
        type            symmetryPlane;
    }
    axis_middle
    {
        type            symmetryPlane;
    }
    axis_bottom
    {
        type            symmetryPlane;
    }
    wall_top
    {
        type            calculated;
        value           nonuniform List<scalar> 10(13.83695229 11.75865328 9.833987011 8.060991502 6.441007808 4.97636767 3.678056129 2.574540731 1.640784518 0.9618987451);
    }
    wall_middle
    {
        type            calculated;
        value           nonuniform List<scalar> 
14
(
0.4237660789
0.4132185227
0.4434809796
0.463687731
0.4764182224
0.4856501488
0.492105737
0.4965622446
0.499532225
0.5013395196
0.5022041133
0.5022753941
0.5016561647
0.5004170503
)
;
    }
    wall_bottom
    {
        type            calculated;
        value           nonuniform 0();
    }
    inlet
    {
        type            calculated;
        value           nonuniform 0();
    }
    outlet
    {
        type            calculated;
        value           nonuniform 0();
    }
    procBoundary5to4
    {
        type            processor;
        value           nonuniform List<scalar> 
51
(
6.567124565
6.544796896
6.582665638
6.555458016
6.540679549
6.521549985
6.497625048
6.469509499
6.437050729
6.400007688
6.358199139
6.311524661
6.259809164
6.202939481
6.140849076
6.073502104
6.000896151
5.923058825
5.84007392
5.752006422
5.658915288
5.560886313
5.457947061
5.350085202
5.23720602
5.119200003
4.995805956
4.866669302
4.73132155
4.589189094
4.439528918
4.281423141
4.113791153
3.935340499
3.744615961
3.744615961
3.387528547
3.175377278
2.946966246
2.702423308
2.444024127
2.177201489
1.910583793
1.65440841
1.4178734
1.206987309
1.024035386
0.8683297057
0.7374009198
0.6280203909
0.5368422547
)
;
    }
    procBoundary5to6
    {
        type            processor;
        value           nonuniform List<scalar> 
51
(
38.98408822
38.786057
34.75496098
34.75496098
34.44150352
34.14168212
33.78508801
33.3758075
32.92565238
32.44182632
31.93078969
31.39893682
30.85213264
30.29492957
29.73194147
29.16681157
28.60250608
28.04208927
27.48723506
26.94020951
26.40199138
25.87409705
25.35708355
24.85193271
24.35892045
23.87874264
23.41144472
22.95760313
22.51715703
22.09072778
21.67820881
21.28028829
20.89688084
20.52861493
20.17548004
19.83787142
19.51565634
19.20887263
18.91706744
18.63972904
18.37587294
18.12442149
17.88393322
17.6529303
17.42968274
17.21262599
16.99994398
16.79064141
16.58464428
16.38101339
16.17554152
)
;
    }
}


// ************************************************************************* //
