/*--------------------------------*- C++ -*----------------------------------*\
  =========                 |
  \\      /  F ield         | OpenFOAM: The Open Source CFD Toolbox
   \\    /   O peration     | Website:  https://openfoam.org
    \\  /    A nd           | Version:  7
     \\/     M anipulation  |
\*---------------------------------------------------------------------------*/
FoamFile
{
    version     2.0;
    format      ascii;
    class       volVectorField;
    location    "0.0012";
    object      grad(generalizedNewtonian:nu);
}
// * * * * * * * * * * * * * * * * * * * * * * * * * * * * * * * * * * * * * //

dimensions      [0 1 -1 0 0 0 0];

internalField   nonuniform List<vector> 
1167
(
(-5291.19787 0 180379.4586)
(-1394.013504 0 179374.6013)
(-4683.128938 0 159841.8175)
(-1108.652822 0 158940.0337)
(-5453.200027 0 159038.1683)
(-11398.23321 -1.102453413e-09 157456.4293)
(-12514.06049 -8.816222349e-10 155851.4366)
(-14871.75566 0 153986.1861)
(-17001.85792 0 151872.875)
(-18853.59518 2.874957119e-10 149591.6301)
(-20503.61319 0 147189.6429)
(-21941.64715 2.399325709e-10 144700.5462)
(-23183.17838 -2.23186911e-10 142167.2931)
(-24251.94193 0 139636.6894)
(-25144.92371 1.981551745e-10 137123.005)
(-25889.4743 0 134663.1865)
(-26502.28191 0 132278.8139)
(-26992.35689 1.736131822e-10 129977.9644)
(-27381.11273 0 127794.252)
(-27677.14715 0 125717.2368)
(-27896.99192 1.579913487e-10 123778.7342)
(-28048.19432 0 121965.3265)
(-28142.21364 -1.506319458e-10 120300.6854)
(-28185.54776 0 118771.1507)
(-28182.69806 0 117394.0856)
(-28139.28014 1.426623771e-10 116154.826)
(-28056.15625 0 115066.7465)
(-27936.21667 0 114115.0838)
(-27774.39585 0 113307.2219)
(-27570.95423 0 112628.4883)
(-27317.63341 0 112081.6634)
(-27013.7987 0 111652.1556)
(-26648.47655 0 111336.6042)
(-26218.99891 -6.617729015e-11 111120.3578)
(-25721.63035 0 110993.4348)
(-25152.71922 -6.569297865e-11 110939.7755)
(-24516.65311 0 110945.0927)
(-23814.34098 0 110986.3523)
(-23060.3418 0 111047.106)
(-22267.81105 -6.538419103e-11 111098.9384)
(-21459.06169 0 111122.2838)
(-20654.36767 -6.550932737e-11 111082.681)
(-19881.33178 0 110960.4225)
(-19164.82448 0 110724.7983)
(-18529.81916 0 110359.7551)
(-17997.76417 0 109844.1931)
(-17581.16574 3.324957096e-11 109173.0563)
(-17271.09168 0 108334.3908)
(-17017.10073 0 107335.5774)
(-16868.01145 0 106195.6753)
(-16779.59738 0 104960.7746)
(-16630.39017 -3.415950329e-11 103429.2214)
(-4145.248717 0 141640.6342)
(-856.4997316 2.472492347e-09 140830.7817)
(-4751.433354 0 140918.7313)
(-10068.05946 0 139492.1622)
(-11030.49908 0 138045.5265)
(-13141.4978 0 136358.294)
(-15060.71371 0 134453.8191)
(-16746.94722 0 132394.9467)
(-18257.34223 0 130218.7489)
(-19594.29002 0 127956.2469)
(-20773.7516 -2.26662646e-10 125662.0232)
(-21800.01752 0 123357.8071)
(-22684.41986 0 121065.394)
(-23448.27141 0 118826.6178)
(-24094.83488 0 116642.9311)
(-24645.86058 0 114545.4596)
(-25108.07052 0 112540.9322)
(-25496.8249 0 110644.9213)
(-25822.21969 0 108866.1417)
(-26093.03152 0 107211.4177)
(-26316.78035 0 105688.9046)
(-26499.57716 0 104301.2737)
(-26645.16789 0 103052.5038)
(-26755.98413 0 101946.8771)
(-26836.21152 0 100981.7945)
(-26880.65464 0 100162.2945)
(-26890.38661 6.97280767e-11 99482.92285)
(-26856.04645 0 98946.59458)
(-26776.79312 0 98547.98669)
(-26639.12257 0 98284.93231)
(-26439.42388 0 98150.53306)
(-26166.29362 0 98141.3751)
(-25811.71515 -6.693075137e-11 98244.95209)
(-25372.93853 0 98456.11728)
(-24839.75779 0 98753.47642)
(-24217.50933 0 99128.24769)
(-23505.6091 0 99554.92995)
(-22716.64335 0 100012.3554)
(-21858.1318 0 100472.247)
(-20950.71978 0 100900.1108)
(-20018.07255 0 101266.2152)
(-19084.08349 0 101530.6637)
(-18179.61693 0 101663.1921)
(-17332.21091 0 101630.9038)
(-16567.04 0 101413.9605)
(-15887.65717 0 100996.9746)
(-15278.92713 0 100376.7072)
(-14822.69022 0 99580.63797)
(-14270.58558 0 98643.76424)
(-13435.06488 0 97406.588)
(-3669.781028 0 125551.7978)
(-633.1564179 0 124825.5602)
(-4128.226202 1.548401181e-09 124903.8655)
(-8887.349452 0 123618.3503)
(-9710.494786 0 122312.3395)
(-11605.82017 0 120793.3263)
(-13337.26554 0 119078.447)
(-14867.79902 0 117215.4554)
(-16250.00043 0 115236.8466)
(-17495.52097 0 113186.255)
(-18612.94495 -2.301927954e-10 111098.9614)
(-19598.35026 0 108991.0425)
(-20472.62097 -2.043753073e-10 106900.609)
(-21243.44689 0 104844.3622)
(-21920.88786 0 102837.779)
(-22520.18968 0 100907.4527)
(-23048.89094 0 99052.65347)
(-23519.02676 0 97302.10444)
(-23938.92625 -8.14753653e-11 95647.97077)
(-24316.84575 0 94114.11357)
(-24660.32202 -7.76801572e-11 92693.10456)
(-24972.00108 0 91402.49123)
(-25259.10223 0 90237.20766)
(-25519.64782 0 89209.18522)
(-25756.36839 7.252398074e-11 88316.98019)
(-25968.37689 0 87562.95879)
(-26148.70643 0 86950.34655)
(-26297.41743 0 86481.09682)
(-26399.84699 6.953260786e-11 86154.05829)
(-26452.56047 0 85970.07333)
(-26442.79026 0 85929.4636)
(-26358.79061 0 86025.95406)
(-26193.66434 0 86262.26823)
(-25928.60309 0 86624.53869)
(-25560.95528 0 87108.61761)
(-25082.18434 0 87703.11933)
(-24484.51994 0 88388.07884)
(-23772.27913 0 89146.03676)
(-22940.98192 0 89947.75028)
(-22002.87541 0 90764.31187)
(-20969.58661 0 91553.82716)
(-19858.57252 0 92278.1792)
(-18699.84764 -3.403349406e-11 92885.18176)
(-17527.55995 0 93334.67095)
(-16380.75339 0 93581.3022)
(-15277.97176 -3.444896191e-11 93595.67399)
(-14249.85641 0 93359.29696)
(-13422.20698 0 92899.4565)
(-12373.40247 0 92252.84713)
(-10857.9804 0 91293.43631)
(-3250.453192 0 111363.0293)
(-436.0602275 0 110713.3984)
(-3575.081262 1.572514374e-09 110782.8153)
(-7837.869161 0 109623.2167)
(-8542.201671 4.617284918e-10 108449.2607)
(-10245.97518 0 107084.6788)
(-11802.85162 0 105534.8222)
(-13186.51586 -3.011379619e-10 103843.6753)
(-14455.64116 0 102045.8204)
(-15618.44366 0 100184.3813)
(-16667.84188 2.33777579e-10 98275.99759)
(-17615.10464 0 96347.26673)
(-18473.75769 -2.075580361e-10 94431.71091)
(-19245.53303 0 92533.0922)
(-19946.43648 0 90684.6689)
(-20582.23803 0 88889.54647)
(-21165.37632 0 87169.24494)
(-21703.246 0 85527.52438)
(-22203.88056 -8.274417805e-11 83980.85849)
(-22675.99647 0 82529.51589)
(-23122.57239 0 81187.35016)
(-23552.13919 0 79953.56863)
(-23963.84713 7.592926182e-11 78839.87172)
(-24364.52788 0 77846.17441)
(-24747.7877 -7.365339392e-11 76979.85887)
(-25114.82732 0 76242.42033)
(-25466.76273 0 75640.79593)
(-25789.25028 0 75174.52186)
(-26080.30186 0 74849.47615)
(-26328.9179 0 74670.0263)
(-26521.6583 0 74633.42663)
(-26650.8934 -6.931753571e-11 74747.45174)
(-26697.01038 0 75009.76197)
(-26646.91243 0 75417.97403)
(-26492.76127 -3.432435457e-11 75972.29537)
(-26214.2178 0 76663.44068)
(-25798.91501 0 77484.59341)
(-25241.04346 -6.848680244e-11 78417.77488)
(-24525.52604 0 79442.99124)
(-23646.2557 0 80536.45233)
(-22604.90229 0 81659.28588)
(-21399.27291 0 82768.81809)
(-20048.25839 0 83811.56192)
(-18581.81392 0 84729.24036)
(-17036.37997 0 85456.49562)
(-15457.31528 0 85935.92409)
(-13933.02588 0 86125.85453)
(-12652.02009 0 86031.70709)
(-11062.00035 0 85688.50102)
(-8845.822923 0 84995.6031)
(-2881.63828 0 98870.87186)
(-262.2079052 0 98288.59469)
(-3082.50556 0 98352.13414)
(-6910.260491 0 97309.31726)
(-7508.871412 0 96256.27696)
(-9035.879733 0 95024.03253)
(-10431.0767 0 93619.89194)
(-11683.65652 0 92081.77723)
(-12850.352 0 90452.61718)
(-13928.43269 0 88755.84434)
(-14915.05968 0 87006.86358)
(-15825.06271 0 85243.51443)
(-16658.57931 0 83476.36418)
(-17427.01409 0 81725.87256)
(-18140.06692 0 80010.59099)
(-18804.2153 0 78338.43088)
(-19428.25185 0 76728.09823)
(-20021.18222 0 75182.41171)
(-20588.04887 8.403281239e-11 73716.35316)
(-21136.20366 8.19455019e-11 72333.32876)
(-21672.24136 0 71039.85906)
(-22198.16572 0 69843.66409)
(-22722.26025 0 68748.38124)
(-23238.96963 7.587960268e-11 67759.60632)
(-23753.29981 -7.480045097e-11 66880.70918)
(-24265.0462 0 66120.63935)
(-24765.45197 -7.303685117e-11 65478.34598)
(-25254.12203 0 64962.34096)
(-25723.62219 0 64579.27085)
(-26159.66759 -7.119498182e-11 64329.69923)
(-26555.16847 0 64222.23781)
(-26899.32717 -7.039706734e-11 64262.07655)
(-27171.52148 0 64452.59061)
(-27356.90273 0 64800.54485)
(-27442.39379 0 65305.23425)
(-27408.55272 0 65966.68484)
(-27232.77296 0 66784.80296)
(-26896.84645 0 67751.69936)
(-26383.72793 0 68854.54221)
(-25670.44805 -3.484325604e-11 70077.04611)
(-24731.60868 0 71391.15063)
(-23551.72327 0 72760.20007)
(-22124.43009 0 74140.69988)
(-20451.61238 0 75472.86468)
(-18561.50101 0 76688.08281)
(-16503.67971 0 77699.11914)
(-14417.02094 0 78413.50304)
(-12569.31538 0 78780.69528)
(-10329.63554 0 78799.88405)
(-7353.622326 0 78390.80652)
(-2554.877498 0 87865.09358)
(-109.9543403 0 87344.11082)
(-2649.835881 0 87415.3218)
(-6089.626288 0 86484.8022)
(-6590.138773 0 85541.72655)
(-7956.643288 0 84435.60619)
(-9204.717937 0 83168.66257)
(-10340.57608 0 81785.47166)
(-11412.68824 0 80315.54151)
(-12407.63052 1.296033681e-10 78772.88187)
(-13335.02088 0 77184.89391)
(-14202.46264 0 75574.97527)
(-15010.21222 0 73950.10199)
(-15769.379 0 72341.29513)
(-16485.09749 0 70747.06251)
(-17165.5175 0 69192.78603)
(-17818.51023 0 67676.86872)
(-18449.68154 0 66218.43086)
(-19068.20685 0 64816.52043)
(-19675.0483 0 63484.45499)
(-20278.87431 0 62224.04446)
(-20885.7484 0 61041.5896)
(-21493.56553 0 59941.14899)
(-22109.38301 0 58927.77319)
(-22732.12702 0 58007.29285)
(-23358.20256 0 57180.67334)
(-23989.33825 0 56455.98234)
(-24621.91434 0 55839.63546)
(-25244.71837 -3.641602959e-11 55335.3275)
(-25850.56326 0 54949.218)
(-26433.22189 0 54691.65509)
(-26979.21775 0 54568.52538)
(-27472.37778 0 54587.77858)
(-27894.67644 0 54759.93453)
(-28229.42649 0 55091.90233)
(-28457.63432 0 55589.51179)
(-28554.97979 0 56257.99737)
(-28495.50022 0 57100.93858)
(-28249.47576 0 58115.66724)
(-27783.57254 0 59295.25607)
(-27061.93164 1.77264581e-11 60627.92087)
(-26050.62224 0 62097.08421)
(-24720.99213 0 63673.45499)
(-23049.09145 0 65312.68412)
(-21009.50652 -1.796028096e-11 66945.86631)
(-18588.8501 0 68468.98697)
(-15926.17714 1.813196853e-11 69761.56519)
(-13367.78518 -1.823049307e-11 70716.2909)
(-10293.23266 0 71240.06368)
(-6425.208332 0 71213.48222)
(-2268.799263 0 78180.18899)
(11.33951608 0 77722.66255)
(-2279.616685 -8.235671981e-10 77824.38725)
(-5371.040837 0 76996.90736)
(-5785.062031 -4.836387466e-10 76157.33173)
(-7006.360599 4.068632606e-10 75169.71234)
(-8126.853345 0 74036.993)
(-9158.948155 0 72800.23559)
(-10135.79297 0 71473.587)
(-11055.91867 2.6324356e-10 70072.91206)
(-11926.68159 0 68630.39889)
(-12745.70685 0 67150.52165)
(-13523.39684 1.087036107e-10 65656.68093)
(-14263.05792 0 64159.71622)
(-14972.17775 0 62673.77219)
(-15656.91168 0 61208.36187)
(-16322.34502 0 59775.59157)
(-16978.0659 0 58378.32895)
(-17625.05153 0 57028.3627)
(-18273.75855 0 55728.32391)
(-18924.46346 0 54485.78355)
(-19582.27728 0 53302.75865)
(-20254.78439 7.953230885e-11 52185.11317)
(-20939.48486 0 51134.8254)
(-21637.15805 0 50154.19076)
(-22351.2546 0 49249.0715)
(-23080.62829 7.532948553e-11 48423.90948)
(-23820.51087 0 47681.13178)
(-24564.19831 0 47025.83906)
(-25307.35925 0 46466.81156)
(-26043.89083 -7.297894338e-11 46010.56792)
(-26761.39639 0 45664.85339)
(-27447.2573 0 45440.12015)
(-28086.8135 0 45347.36641)
(-28662.03254 0 45400.41853)
(-29152.53944 0 45610.7543)
(-29533.72256 0 45990.41559)
(-29776.30928 0 46550.30678)
(-29847.32388 0 47297.52897)
(-29708.83307 -1.796849474e-11 48237.58308)
(-29318.50785 1.800252572e-11 49370.69388)
(-28629.38914 0 50689.01568)
(-27584.14816 -1.810181346e-11 52173.17066)
(-26109.45529 0 53793.93773)
(-24117.40576 0 55516.16241)
(-21548.15505 0 57309.16606)
(-18512.49318 0 59144.2819)
(-15306.07169 -9.257205206e-12 60919.84303)
(-11252.23755 9.311373155e-12 62294.12438)
(-6196.845542 0 62772.95569)
(-2024.882161 0 69780.69272)
(89.50645213 0 69389.4749)
(-1973.136054 0 69490.54894)
(-4741.019352 3.071001278e-10 68712.88142)
(-5076.500836 -4.91170507e-10 67909.39412)
(-6170.981177 -2.065996939e-10 66967.25772)
(-7176.134726 0 65890.36404)
(-8106.597969 0 64704.82837)
(-8992.604991 1.453075515e-10 63424.27348)
(-9838.980576 0 62075.61059)
(-10645.59009 0 60673.98825)
(-11415.22309 0 59231.72399)
(-12154.63149 1.103964642e-10 57773.09385)
(-12868.18571 0 56301.21056)
(-13560.84995 0 54838.73554)
(-14240.23012 0 53387.53186)
(-14908.28969 0 51963.52063)
(-15571.77144 0 50570.93706)
(-16239.90988 8.802034227e-11 49215.93051)
(-16910.57185 0 47905.61536)
(-17592.06865 0 46642.72402)
(-18289.47708 0 45433.87876)
(-19001.22459 0 44276.80849)
(-19730.81442 0 43175.29182)
(-20482.30754 -3.917494315e-11 42132.60284)
(-21255.39034 0 41150.42094)
(-22048.38083 0 40229.03739)
(-22859.242 0 39370.64797)
(-23685.70062 0 38578.75164)
(-24523.53857 0 37858.9912)
(-25366.6061 0 37215.90325)
(-26208.12808 0 36657.05077)
(-27038.0983 0 36192.36519)
(-27845.32599 0 35832.52815)
(-28616.00699 0 35592.48471)
(-29331.05693 0 35489.70496)
(-29967.66246 -1.821437777e-11 35540.92523)
(-30494.7194 0 35766.69417)
(-30876.29001 0 36186.68776)
(-31069.79753 0 36819.23133)
(-31019.0314 -1.828288108e-11 37677.74863)
(-30657.8279 0 38771.99343)
(-29919.8225 0 40107.84277)
(-28749.79872 9.224564282e-12 41696.72087)
(-27113.5291 0 43558.87923)
(-25002.28498 0 45701.57053)
(-22420.36032 0 48073.33647)
(-19125.79439 0 50520.8973)
(-13725.05481 -9.456380213e-12 52670.97869)
(-6695.678105 9.515493079e-12 53859.06254)
(-1822.518017 0 62147.98515)
(165.8348586 0 61920.59947)
(-1657.635876 0 61935.65152)
(-4111.038924 0 61185.45406)
(-4362.098534 -2.494100133e-10 60394.9691)
(-5333.129296 0 59486.01476)
(-6220.135273 0 58452.29316)
(-7043.396334 0 57318.3476)
(-7839.724407 0 56107.76726)
(-8609.930098 0 54847.51492)
(-9350.533026 1.2627869e-10 53544.29647)
(-10069.38544 0 52225.70379)
(-10768.98337 0 50898.04683)
(-11453.79224 0 49581.39776)
(-12130.18475 0 48277.65198)
(-12800.03949 0 47003.08923)
(-13471.05436 0 45758.13973)
(-14144.32035 -9.193417289e-11 44551.57723)
(-14824.56466 -8.939117646e-11 43383.65202)
(-15519.12559 0 42256.73117)
(-16228.74554 0 41171.26079)
(-16953.36106 0 40124.02956)
(-17697.95675 0 39114.24143)
(-18466.51872 0 38140.81577)
(-19257.97103 0 37200.04103)
(-20072.61645 0 36287.79613)
(-20910.26795 0 35401.29851)
(-21770.45264 0 34538.47576)
(-22651.43123 0 33697.63509)
(-23550.93636 0 32878.23323)
(-24466.37678 -3.763486562e-11 32079.63307)
(-25393.68783 0 31307.10002)
(-26326.01087 0 30565.83212)
(-27257.56659 0 29863.07999)
(-28182.18095 0 29212.14067)
(-29084.89845 0 28627.08406)
(-29948.89256 0 28130.59016)
(-30752.65605 0 27747.70166)
(-31463.68758 0 27509.8673)
(-32038.09393 0 27451.88359)
(-32423.31322 0 27611.60223)
(-32562.78494 0 28027.95443)
(-32404.20353 0 28737.30144)
(-31900.96467 0 29759.35029)
(-30962.26827 0 31077.17333)
(-29407.63692 0 32615.31738)
(-27059.22496 0 34290.97334)
(-23604.76162 -4.773893096e-12 36202.34885)
(-17367.44458 0 38743.84749)
(-8664.924304 0 42431.04142)
(-1768.507389 0 55658.28689)
(218.330118 6.99465676e-10 55543.21006)
(-1327.405685 0 55539.2638)
(-3530.530992 0 55007.31348)
(-3712.929704 0 54450.02507)
(-4585.266157 0 53803.58299)
(-5376.570604 0 53053.68344)
(-6125.55625 0 52214.25033)
(-6867.038754 0 51308.282)
(-7592.607456 1.378674959e-10 50339.27588)
(-8305.746705 0 49317.39192)
(-9009.146076 1.203835664e-10 48255.68598)
(-9705.436245 0 47156.88874)
(-10395.21916 0 46032.40282)
(-11081.99697 -1.037364317e-10 44886.07939)
(-11771.99768 0 43720.43853)
(-12461.47025 0 42542.06032)
(-13157.00113 0 41351.20703)
(-13862.02937 0 40149.7282)
(-14574.88896 0 38937.88599)
(-15298.02612 0 37714.89094)
(-16035.14786 0 36479.98657)
(-16786.90353 0 35233.80839)
(-17553.41646 0 33972.82186)
(-18334.99462 0 32695.12466)
(-19132.02044 0 31399.32126)
(-19944.86649 0 30085.17042)
(-20772.56212 0 28752.58401)
(-21614.54273 0 27402.89205)
(-22467.81229 0 26036.26136)
(-23333.83598 0 24659.62244)
(-24213.7681 -3.802608895e-11 23278.26354)
(-25101.17401 0 21900.4828)
(-25997.05408 0 20539.77769)
(-26898.7176 1.882959264e-11 19210.46136)
(-27802.82795 0 17930.69677)
(-28705.40183 0 16727.59151)
(-29592.52943 0 15630.38333)
(-30447.80553 -1.879707318e-11 14676.96921)
(-31244.36258 0 13912.11425)
(-31939.17832 0 13388.9243)
(-32471.18037 0 13163.53095)
(-32750.48346 0 13289.59346)
(-32640.22486 0 13803.92574)
(-31947.16967 0 14724.48784)
(-30541.39417 -4.798061638e-12 16079.65865)
(-28715.67512 0 17955.87607)
(-27074.9789 0 20605.22197)
(-25018.45842 0 24727.46591)
(-16718.87283 0 31296.58724)
(-1708.10242 2.257672283e-09 50592.37015)
(241.2719476 0 50213.95838)
(-1207.36394 0 50285.41168)
(-3295.188361 -3.493716254e-10 49931.75229)
(-3439.487194 0 49508.10044)
(-4246.125834 0 49034.01791)
(-4963.329088 0 48472.0584)
(-5640.952367 -1.822169405e-10 47842.12783)
(-6307.895465 0 47157.20489)
(-6956.076415 1.52071065e-10 46414.12868)
(-7590.8023 0 45631.45712)
(-8213.916131 0 44805.73932)
(-8827.772248 1.255922375e-10 43952.04379)
(-9437.810662 0 43065.8708)
(-10043.10719 1.144237049e-10 42162.55012)
(-10648.71997 1.100373382e-10 41238.872)
(-11259.83328 5.312923276e-11 40299.25211)
(-11873.79762 0 39348.85121)
(-12495.29971 0 38387.41495)
(-13128.71997 4.882439961e-11 37416.46024)
(-13773.81402 -4.773582906e-11 36436.61907)
(-14432.09141 -4.678152232e-11 35448.3059)
(-15105.23443 0 34450.96333)
(-15794.23933 0 33444.28042)
(-16500.03736 -4.456726746e-11 32427.35499)
(-17224.54934 -4.400549525e-11 31400.29475)
(-17968.92006 0 30363.35737)
(-18734.4159 0 29318.32355)
(-19519.60996 0 28266.56711)
(-20329.13891 0 27210.8881)
(-21167.12916 0 26160.49044)
(-22032.36111 0 25117.54927)
(-22929.38684 2.088535455e-11 24091.92666)
(-23862.00292 0 23093.81383)
(-24832.46345 -2.076947998e-11 22134.77323)
(-25846.14853 0 21232.2904)
(-26905.39618 2.072153734e-11 20399.93)
(-28008.73873 -2.072049558e-11 19656.60173)
(-29151.9672 0 19024.95788)
(-30320.94761 0 18528.33828)
(-31488.53961 1.039973499e-11 18192.06674)
(-32608.14066 -1.042549292e-11 18045.74706)
(-33605.44204 0 18117.60304)
(-34381.95133 0 18447.49458)
(-34834.3937 0 19109.22918)
(-34901.68655 0 20258.46603)
(-34813.75778 0 22289.72516)
(-35377.82508 2.673860396e-12 25953.29146)
(-36292.16428 2.689506299e-12 30900.32382)
(-29193.01137 2.867115174e-13 30680.06885)
(-1461.85643 -2.311993518e-09 45709.45076)
(436.8476965 0 45187.38392)
(-944.6546825 0 45232.22592)
(-2881.953028 -3.577777604e-10 44750.54421)
(-2952.839983 -2.86111708e-10 44209.65427)
(-3665.579693 -2.406927548e-10 43586.33462)
(-4308.368066 0 42864.61543)
(-4925.254334 0 42075.99243)
(-5537.320348 0 41226.97616)
(-6143.48869 0 40330.5535)
(-6745.226217 0 39403.06077)
(-7344.300316 0 38449.34269)
(-7940.896712 0 37484.0113)
(-8537.930447 -1.224267283e-10 36512.86934)
(-9139.006084 -1.171768224e-10 35541.51821)
(-9740.297696 5.634245809e-11 34579.49736)
(-10347.15443 5.440756079e-11 33627.53156)
(-10961.62998 0 32687.8051)
(-11582.24352 5.127272543e-11 31766.06718)
(-12209.21422 0 30860.44549)
(-12844.43611 4.888438769e-11 29971.2673)
(-13489.7172 0 29098.26255)
(-14144.93122 4.704983788e-11 28240.6034)
(-14809.80428 9.259606906e-11 27396.33731)
(-15484.49855 0 26564.92824)
(-16170.31503 0 25746.07913)
(-16869.52309 4.456352567e-11 24938.67895)
(-17583.47106 0 24143.81228)
(-18311.17389 0 23363.42834)
(-19056.51981 0 22603.20318)
(-19823.1249 0 21867.20678)
(-20613.22423 -2.147642919e-11 21162.49397)
(-21428.28782 2.138787141e-11 20499.28849)
(-22273.59436 0 19889.80311)
(-23156.05555 0 19350.16964)
(-24076.48816 0 18897.09169)
(-25039.16542 0 18549.44619)
(-26049.39207 0 18330.96697)
(-27109.53419 0 18265.47031)
(-28218.15181 -1.062982798e-11 18376.00542)
(-29372.86022 1.064996019e-11 18681.27455)
(-30563.70477 0 19192.6885)
(-31772.62234 1.070869688e-11 19905.60991)
(-32977.49455 0 20799.49219)
(-34163.21806 5.395219829e-12 21837.36042)
(-35454.15263 0 23042.23869)
(-37359.47427 0 24647.52867)
(-39781.40621 -2.738195415e-12 26363.53202)
(-38848.71471 0 25083.25467)
(-29781.07754 2.863020388e-13 17116.20625)
(-1262.059654 0 41240.05813)
(560.6842268 0 40847.37311)
(-726.8561287 4.990723649e-10 40956.26488)
(-2507.626545 0 40544.91181)
(-2523.249951 -2.930795859e-10 40103.39262)
(-3144.556897 0 39592.13854)
(-3708.141498 2.145061919e-10 38998.77201)
(-4251.293315 0 38339.19667)
(-4793.882218 1.734089342e-10 37615.84202)
(-5337.356528 0 36846.21051)
(-5880.810831 1.483890138e-10 36031.32051)
(-6426.378951 -1.392924428e-10 35185.06729)
(-6977.258975 6.587315326e-11 34308.56164)
(-7531.523868 0 33416.5968)
(-8093.346967 0 32507.94042)
(-8663.307957 0 31590.95051)
(-9239.342654 1.114651723e-10 30672.2665)
(-9824.95988 5.401553202e-11 29754.03767)
(-10421.64449 0 28839.88397)
(-11028.13013 0 27932.07659)
(-11644.99774 0 27035.17378)
(-12273.06286 0 26151.19662)
(-12912.81522 0 25282.01784)
(-13565.40324 0 24429.04347)
(-14232.79218 4.675108092e-11 23597.55572)
(-14915.28396 4.616178187e-11 22791.42201)
(-15615.31446 4.564881211e-11 22016.4086)
(-16338.8578 4.520462598e-11 21277.10449)
(-17088.69657 0 20584.29567)
(-17870.13832 0 19949.05613)
(-18690.12324 0 19385.02785)
(-19556.39086 0 18906.4641)
(-20479.27165 2.190874511e-11 18534.1235)
(-21468.25751 4.367691776e-11 18292.73013)
(-22535.33036 0 18205.7448)
(-23693.05864 0 18301.60887)
(-24952.93326 0 18612.85882)
(-26324.04957 -2.173580804e-11 19170.71208)
(-27808.96594 -2.174956532e-11 20002.89599)
(-29392.84271 -1.088870357e-11 21125.43166)
(-31040.93494 0 22535.93454)
(-32686.02327 -1.093634624e-11 24192.82962)
(-34215.74021 0 25996.79846)
(-35477.2818 0 27768.90888)
(-36304.81437 0 29243.83779)
(-36591.49314 0 30090.92072)
(-36226.92239 0 29799.52877)
(-34571.6961 2.80488059e-12 27228.8094)
(-30193.04905 0 21037.02433)
(-22492.93638 3.147527962e-13 12467.76309)
(-1140.170825 0 37435.44963)
(626.2436585 0 37169.17497)
(-565.1648443 0 37286.29655)
(-2218.834066 3.755263987e-10 36958.5947)
(-2193.313799 -3.00305137e-10 36603.4639)
(-2746.313617 -2.526330405e-10 36195.84769)
(-3250.758573 0 35726.99482)
(-3734.709852 2.937871874e-10 35201.68316)
(-4224.376137 8.884206957e-11 34627.87179)
(-4718.423887 0 34018.49586)
(-5216.973338 0 33371.86039)
(-5720.976329 0 32702.94686)
(-6233.383832 -6.749718238e-11 32011.40087)
(-6754.537189 -6.425003658e-11 31305.35602)
(-7283.124058 0 30590.75323)
(-7823.580169 0 29868.85066)
(-8375.522109 0 29144.84306)
(-8937.823707 0 28423.82458)
(-9510.279034 0 27706.15791)
(-10094.62638 -5.247950782e-11 26994.95274)
(-10692.23746 0 26292.711)
(-11302.55315 0 25601.76038)
(-11924.76321 0 24923.43278)
(-12561.85947 0 24261.88709)
(-13217.12338 -4.79036769e-11 23620.17187)
(-13892.65155 -4.729984937e-11 23001.15956)
(-14589.46682 4.677423285e-11 22412.38854)
(-15314.912 0 21860.53493)
(-16076.03712 -4.592780975e-11 21353.64294)
(-16879.14292 0 20902.77328)
(-17731.2987 0 20518.86914)
(-18642.74213 0 20214.89719)
(-19628.36559 0 20007.87441)
(-20697.66684 0 19913.84032)
(-21862.81179 0 19949.60329)
(-23139.05728 0 20134.94556)
(-24539.51496 0 20488.91896)
(-26072.39764 0 21028.0276)
(-27739.33163 -1.114288833e-11 21766.61375)
(-29527.40038 0 22707.21059)
(-31394.79589 0 23834.36439)
(-33252.66231 0 25089.19871)
(-34946.65404 0 26349.64805)
(-36241.52007 0 27396.47642)
(-36832.90945 0 27903.68319)
(-36375.45585 0 27450.02618)
(-34494.64325 0 25535.15866)
(-30888.9812 -2.874031797e-12 21754.61413)
(-25615.05722 2.890849018e-12 16356.02259)
(-19235.53706 3.372076323e-13 10579.51734)
(-1065.368884 0 33966.65804)
(667.2231955 0 33765.79126)
(-424.2192964 0 33875.5384)
(-1966.736669 0 33596.73626)
(-1904.008751 0 33288.5356)
(-2397.085688 0 32940.20347)
(-2848.010948 -1.126405112e-10 32536.79979)
(-3281.185358 1.003735258e-10 32082.44168)
(-3725.269169 0 31591.99759)
(-4175.534441 8.376778187e-11 31066.54923)
(-4634.117593 0 30515.07907)
(-5103.329293 7.314461113e-11 29940.65842)
(-5581.755294 0 29353.28334)
(-6073.717835 0 28751.39321)
(-6576.881519 0 28144.38723)
(-7091.428427 0 27535.65524)
(-7620.128291 -5.853208169e-11 26927.84072)
(-8162.351385 0 26323.48684)
(-8717.385768 5.51596013e-11 25725.65629)
(-9285.6035 0 25138.31561)
(-9867.639536 0 24563.13811)
(-10464.00809 0 24001.53319)
(-11076.23008 0 23456.35912)
(-11705.93259 0 22933.06486)
(-12354.06683 0 22433.44656)
(-13027.02096 -4.848052777e-11 21962.60017)
(-13729.57962 4.794179129e-11 21525.39583)
(-14466.17753 0 21132.08576)
(-15245.29476 -4.707423994e-11 20787.339)
(-16076.06528 2.336638909e-11 20503.20692)
(-16966.41214 2.322292031e-11 20287.60969)
(-17928.0358 0 20155.25612)
(-18976.11301 -2.300924027e-11 20118.50816)
(-20122.03438 -2.293542348e-11 20190.29805)
(-21380.31968 0 20386.64506)
(-22766.84935 -2.284641274e-11 20725.00896)
(-24294.15326 -2.282876411e-11 21221.37249)
(-25973.87262 -1.141380806e-11 21893.28325)
(-27805.19665 1.142103234e-11 22750.18946)
(-29763.78894 0 23786.4145)
(-31783.99827 0 24962.00269)
(-33729.34716 -1.148568834e-11 26175.26994)
(-35362.5598 0 27223.70701)
(-36338.81442 5.78074655e-12 27784.08788)
(-36263.77861 0 27450.79771)
(-34804.6236 5.83056913e-12 25852.82858)
(-31828.37728 0 22836.05437)
(-27527.98415 0 18650.20156)
(-22433.07495 0 13966.18469)
(-17140.10111 0 9559.963663)
(-1007.927939 0 30891.28242)
(697.355688 4.357353219e-10 30719.04991)
(-302.2284471 2.68694967e-10 30827.75891)
(-1747.716443 0 30590.94805)
(-1654.158867 -1.577907634e-10 30331.75176)
(-2094.548429 0 30040.80254)
(-2496.719143 3.464631878e-10 29700.15624)
(-2886.597105 0 29318.10404)
(-3289.60863 9.336142651e-11 28907.30956)
(-3702.628677 -8.588518305e-11 28464.53216)
(-4126.564277 -7.989098202e-11 28004.62704)
(-4564.639066 -7.49934898e-11 27524.05019)
(-5015.186324 -7.093073427e-11 27033.48751)
(-5479.239277 0 26535.99375)
(-5960.556551 0 26033.02965)
(-6457.039446 0 25531.79671)
(-6967.853184 0 25034.87928)
(-7493.247181 0 24544.12075)
(-8034.518525 0 24062.88563)
(-8591.967083 0 23593.69922)
(-9164.586217 0 23138.90815)
(-9752.848003 0 22700.381)
(-10360.00969 0 22282.1581)
(-10988.34785 0 21885.50726)
(-11639.25787 0 21514.78567)
(-12316.69854 0 21176.1945)
(-13028.46516 0 20871.50088)
(-13780.15286 0 20609.90845)
(-14579.26011 0 20396.07036)
(-15436.07413 -2.395702208e-11 20238.87309)
(-16360.01784 2.380992696e-11 20145.80325)
(-17363.13654 0 20128.64057)
(-18458.561 0 20196.8528)
(-19660.86169 0 20361.66237)
(-20985.86685 0 20638.37998)
(-22450.48314 0 21042.27749)
(-24071.32237 2.340580753e-11 21590.7825)
(-25857.26279 0 22298.47501)
(-27803.31441 1.170972215e-11 23169.52665)
(-29873.82426 0 24189.86519)
(-31971.83346 0 25294.37569)
(-33899.59687 0 26336.35587)
(-35332.39924 1.181170437e-11 27048.55316)
(-35848.44806 -5.926866636e-12 27059.31699)
(-35055.57093 0 26001.26027)
(-32782.52527 0 23697.58626)
(-29199.78773 6.007820052e-12 20310.13988)
(-24776.67591 0 16320.22111)
(-20099.8758 -3.037905234e-12 12329.46016)
(-15613.4929 1.899593198e-12 8788.428034)
(-960.34172 0 28156.28128)
(718.7371294 0 28002.60245)
(-199.3679873 0 28112.47177)
(-1563.503378 0 27917.30144)
(-1446.081001 1.618302971e-10 27705.85894)
(-1839.020245 -1.361404619e-10 27468.75626)
(-2200.858188 0 27188.6793)
(-2555.02287 0 26879.7107)
(-2922.599688 0 26543.97465)
(-3303.941225 0 26187.18154)
(-3699.311066 0 25813.55087)
(-4109.302818 7.691336594e-11 25429.41887)
(-4538.239925 0 25034.71889)
(-4981.824351 0 24638.36318)
(-5442.435841 6.627746941e-11 24241.70952)
(-5922.354099 0 23847.92443)
(-6419.40985 -6.154793015e-11 23458.59701)
(-6933.453941 0 23078.03866)
(-7464.544398 0 22708.50056)
(-8012.946015 0 22351.57151)
(-8578.836563 -5.529990386e-11 22008.07326)
(-9163.406399 0 21680.96058)
(-9766.908312 -5.322459046e-11 21372.90996)
(-10392.13137 5.237412145e-11 21085.43052)
(-11044.97249 0 20820.89466)
(-11726.39349 -5.097847277e-11 20583.7169)
(-12444.1132 0 20378.35975)
(-13205.63225 0 20209.65186)
(-14017.07869 0 20082.06061)
(-14889.85385 0 20002.85952)
(-15834.43746 0 19979.99698)
(-16862.85383 2.429496466e-11 20022.38835)
(-17988.04803 0 20139.27642)
(-19227.17321 0 20343.69203)
(-20598.52204 0 20650.9751)
(-22120.41195 0 21077.68343)
(-23809.74712 2.400500953e-11 21641.50045)
(-25674.66369 0 22353.83916)
(-27705.79063 1.200949771e-11 23218.37357)
(-29846.13085 1.202487124e-11 24202.82418)
(-31957.65004 1.204764552e-11 25213.50094)
(-33778.58433 0 26053.63235)
(-34909.36707 0 26407.85203)
(-34908.75931 -6.078597787e-12 25907.37609)
(-33484.51118 0 24300.60872)
(-30673.26027 6.130987523e-12 21621.18851)
(-26854.00064 6.16162367e-12 18212.67122)
(-22576.44757 3.097552223e-12 14574.27646)
(-18348.93102 -1.557838673e-12 11156.84144)
(-14471.68605 -1.1818701e-12 8216.674836)
(-920.0600383 0 25712.23514)
(733.4379116 0 25573.7746)
(-116.5518608 5.654400508e-10 25687.42225)
(-1411.851062 0 25531.35151)
(-1274.798889 0 25360.78303)
(-1626.915682 -1.396709235e-10 25171.15465)
(-1956.606799 1.215158366e-10 24949.31391)
(-2280.595839 1.082822941e-10 24706.09187)
(-2620.112562 0 24439.62604)
(-2975.171624 0 24162.22447)
(-3347.75616 0 23869.28072)
(-3736.697562 7.890792151e-11 23572.08519)
(-4144.191648 0 23270.26809)
(-4572.728847 7.104266286e-11 22965.88659)
(-5020.244942 6.799620941e-11 22665.92712)
(-5485.722883 0 22370.28435)
(-5970.303197 0 22081.14638)
(-6474.660586 0 21800.84969)
(-6997.601841 -5.950581211e-11 21530.63439)
(-7538.074148 0 21271.80133)
(-8096.324586 0 21025.05342)
(-8674.919586 0 20792.79696)
(-9275.18593 0 20574.25283)
(-9896.967913 -5.373231312e-11 20373.07845)
(-10545.51979 0 20191.01095)
(-11226.25154 2.615023594e-11 20029.27384)
(-11944.76763 5.17192865e-11 19894.56379)
(-12706.97849 2.560801586e-11 19788.13548)
(-13521.18895 2.539168904e-11 19715.43462)
(-14399.58269 0 19683.85543)
(-15352.82878 0 19701.00975)
(-16392.933 2.492499369e-11 19774.8148)
(-17535.09675 0 19916.26125)
(-18798.40035 0 20140.60684)
(-20202.27658 0 20462.96102)
(-21767.54356 0 20901.83672)
(-23510.31012 0 21473.29342)
(-25437.96437 0 22189.23852)
(-27529.32988 1.2320934e-11 23043.84593)
(-29701.67444 1.233670615e-11 23984.65461)
(-31769.90477 0 24885.67912)
(-33407.96432 0 25505.34044)