/*--------------------------------*- C++ -*----------------------------------*\
  =========                 |
  \\      /  F ield         | OpenFOAM: The Open Source CFD Toolbox
   \\    /   O peration     | Website:  https://openfoam.org
    \\  /    A nd           | Version:  7
     \\/     M anipulation  |
\*---------------------------------------------------------------------------*/
FoamFile
{
    version     2.0;
    format      ascii;
    class       volTensorField;
    location    "0.0012";
    object      grad(U);
}
// * * * * * * * * * * * * * * * * * * * * * * * * * * * * * * * * * * * * * //

dimensions      [0 0 -1 0 0 0 0];

internalField   nonuniform List<tensor> 
1167
(
(-0.416649205 -2.430329727e-15 0.01099663474 0 -0.6905129174 0 0.06150756462 -7.085092422e-15 1.145054102)
(-0.5526377786 6.730487448e-16 0.0179217858 2.286190532e-15 -0.5990625378 0 0.1588024586 -2.273726056e-14 1.142754577)
(-0.4830568185 6.741047004e-15 0.01254796038 -6.794126114e-15 -0.8009360025 0 0.06986887089 2.889034331e-15 1.325943493)
(-0.640779431 2.72992264e-15 0.02053344777 -8.126281347e-15 -0.6946665579 0 0.1803153584 9.499211961e-15 1.323385496)
(-0.6331137057 7.009036526e-15 0.03133542305 -5.726912749e-15 -0.6620609054 0 0.2839263322 -8.144250628e-15 1.319850981)
(-0.6446488613 6.872995896e-15 0.0462441339 -4.205526022e-15 -0.6571937103 6.728841635e-14 0.3913764631 -1.064431764e-14 1.313972634)
(-0.6394134348 -1.587137375e-14 0.06118418358 -5.044682893e-15 -0.6538553884 5.380995086e-14 0.4963804017 -5.531425733e-15 1.306076174)
(-0.6321453289 -2.194872413e-14 0.07725183977 0 -0.6505679174 0 0.5986568907 -8.039227352e-16 1.296147014)
(-0.6234424953 -1.167762247e-14 0.09476794017 2.461483205e-15 -0.6471826005 0 0.6982111753 1.718731919e-15 1.284096893)
(-0.612779342 -3.808493732e-15 0.1137810143 3.290127318e-15 -0.6434969508 -3.50946914e-14 0.7948927454 6.566484672e-15 1.269846734)
(-0.6001759875 1.239793155e-15 0.1343527629 3.979774893e-15 -0.639410638 0 0.8886066367 4.676903131e-15 1.253306069)
(-0.5856108277 1.119060735e-15 0.156525066 1.830540244e-15 -0.6348736779 -2.92886439e-14 0.9792848632 4.436523446e-15 1.234366562)
(-0.5689983786 -2.100207423e-15 0.1802927724 5.108342996e-15 -0.6298523619 2.724449598e-14 1.066856869 -2.96567685e-16 1.21291712)
(-0.5502527864 -4.397152107e-15 0.205612746 3.19679358e-15 -0.6243204793 0 1.151267861 3.51479328e-15 1.188854888)
(-0.5292851326 -5.994066658e-16 0.2324234286 1.511804004e-15 -0.6182578517 0 1.232470099 7.464077594e-15 1.162065397)
(-0.5059963998 1.156599781e-15 0.2606334292 2.878148666e-15 -0.6116465865 0 1.310402964 5.674046196e-15 1.13243878)
(-0.4802953512 -8.917893276e-16 0.2901315309 2.754727817e-15 -0.604470655 0 1.38501634 5.923987696e-15 1.099871517)
(-0.4520845697 4.113390441e-16 0.3207949258 1.324563463e-15 -0.5967160985 0 1.456244377 8.182713453e-15 1.064252018)
(-0.4212692173 1.335285038e-15 0.3524780031 2.558151318e-15 -0.5883692884 0 1.524015927 5.889671564e-15 1.025480659)
(-0.3877546597 -1.706965944e-16 0.3850265661 2.479337769e-15 -0.5794183235 0 1.588245413 4.443181694e-15 0.9834489769)
(-0.3514460198 1.463169206e-15 0.4182714053 0 -0.5698514631 -9.643026657e-15 1.648829536 5.717375192e-15 0.9380599887)
(-0.3122500263 1.605895788e-15 0.4520312068 1.17543766e-15 -0.5596582778 0 1.705646736 3.282960788e-15 0.8892098357)
(-0.2700743835 1.63630677e-15 0.4861106695 3.44769163e-15 -0.5488285729 9.193844347e-15 1.758547189 1.830812634e-15 0.8368033611)
(-0.2248299488 3.284179499e-15 0.5202998488 2.252511592e-15 -0.5373532883 0 1.807355341 1.852929368e-15 0.7807435904)
(-0.1764317683 3.257815554e-15 0.5543715511 0 -0.5252237689 0 1.851858917 1.355485523e-15 0.7209425172)
(-0.1248020607 5.483591582e-15 0.5880772291 -1.08842756e-15 -0.5124325617 -8.707420477e-15 1.891808649 2.961747644e-15 0.6573163908)
(-0.06987370716 5.749283196e-15 0.6211465816 0 -0.4989729554 0 1.926911402 7.949752639e-16 0.5897975215)
(-0.01159636925 4.758094412e-15 0.6532826036 0 -0.4848398069 0 1.956828355 1.38991797e-15 0.518330731)
(0.05005842853 5.393764342e-15 0.6841581644 0 -0.4700294127 0 1.981170175 2.597089903e-15 0.4428874193)
(0.1150890515 5.955243803e-15 0.7134102644 0 -0.4545403653 0 1.999494965 1.238413543e-15 0.3634670181)
(0.1834547493 5.549313948e-15 0.7406379143 0 -0.4383737221 0 2.011307569 1.063868156e-15 0.2801139873)
(0.2550631037 4.824916174e-15 0.7654004518 0 -0.4215340074 0 2.016061548 3.880206021e-16 0.1929217944)
(0.3297596997 5.426668088e-15 0.7872192814 0 -0.4040297302 0 2.013164639 -4.889364582e-16 0.1020529806)
(0.4073126388 3.067814554e-15 0.8055779354 1.009785311e-15 -0.3858744527 1.615656498e-14 2.00198457 -1.763303768e-15 0.00774648929)
(0.4874023751 1.824653019e-15 0.81993497 0 -0.367087624 0 1.981865847 -2.226675455e-15 -0.08966376674)
(0.5696080584 1.93528859e-15 0.8297321836 1.002395304e-15 -0.3476955947 8.019162433e-15 1.952143205 -2.304941401e-15 -0.1897375924)
(0.6533961068 1.324274579e-15 0.8344164479 0 -0.327732553 0 1.912173001 -1.825337433e-15 -0.2919189596)
(0.7381168991 2.27686462e-15 0.8334580735 0 -0.3072414929 0 1.861356989 -1.838381683e-15 -0.3955270163)
(0.8230032307 3.527144663e-15 0.8263750744 0 -0.2862747864 0 1.799182498 -2.234935385e-15 -0.4997570742)
(0.9071797815 2.452314032e-15 0.8127619084 -4.988417895e-16 -0.2648947649 7.981468632e-15 1.725261837 -3.026237852e-15 -0.6036873812)
(0.9896762553 1.7051299e-15 0.7923094082 -9.983150473e-16 -0.2431736021 0 1.639373079 -2.838550259e-15 -0.7062954308)
(1.069451962 1.956234754e-15 0.7648190707 -4.99796504e-16 -0.2211931889 7.996744064e-15 1.541506464 -2.361065499e-15 -0.8064818413)
(1.14543023 3.770243316e-16 0.7302096135 -1.001486162e-15 -0.1990441082 0 1.431894219 -8.688813362e-16 -0.9030987144)
(1.216533643 -1.754980732e-16 0.6885146199 -1.003966631e-15 -0.1768244465 0 1.311039715 -8.421195348e-16 -0.9949953864)
(1.281722658 -5.310402032e-17 0.6398682593 -5.035047853e-16 -0.1546379452 0 1.179725399 -5.525882237e-16 -1.081049859)
(1.340031413 -2.284689652e-16 0.5844868154 -5.052963723e-16 -0.132592056 0 1.039007945 -4.886055859e-16 -1.160213356)
(1.390603985 8.207248792e-16 0.5226425392 -5.073481897e-16 -0.1107956221 0 0.8901887936 -8.891579323e-17 -1.231532794)
(1.432719108 1.730525238e-15 0.4546287275 -5.096513787e-16 -0.0893565667 0 0.7347727773 3.502167887e-17 -1.294172273)
(1.465679777 1.348771602e-15 0.3807374151 -7.682971186e-16 -0.0683796429 0 0.5744275515 -1.590490787e-16 -1.347410389)
(1.488695853 1.358615043e-15 0.301316488 -7.724718513e-16 -0.0479677652 0 0.4109610433 -5.577737797e-16 -1.390648534)
(1.501707249 1.779847705e-15 0.2167627687 -7.769919213e-16 -0.0282230341 0 0.2461485152 -8.539228725e-16 -1.423435308)
(1.506617985 1.043332107e-15 0.08636384433 -7.004063803e-16 -0.009227375484 4.169861241e-15 0.08153338893 -1.043682408e-15 -1.445416248)
(-0.5570175873 -1.062953456e-14 0.01424456958 1.207488173e-14 -0.924004081 0 0.07875556997 1.139446301e-14 1.527471412)
(-0.7389497585 1.428587597e-14 0.02341600089 9.431809797e-15 -0.8011731596 -1.509089568e-13 0.2031600683 3.69319733e-14 1.524631875)
(-0.7303450921 1.723246556e-14 0.03578731098 -5.816099121e-15 -0.7635570671 0 0.3198679557 2.723222693e-14 1.520645763)
(-0.7438021611 4.900828074e-16 0.052735397 -4.27101953e-15 -0.7580331658 0 0.4409388152 2.30541254e-14 1.514050976)
(-0.7379190729 -1.340682443e-14 0.06967719637 -3.415496508e-15 -0.7542348906 0 0.5592048309 1.864523348e-14 1.505230121)
(-0.7298605034 -1.738852617e-14 0.08787392875 0 -0.7505253584 0 0.6743996557 7.739934029e-15 1.494175304)
(-0.7202403725 -1.163488757e-14 0.107671842 2.499816382e-15 -0.7467310586 0 0.786534258 4.209204084e-15 1.480814277)
(-0.7084845329 -4.376840271e-15 0.1291293876 4.455153517e-15 -0.7426195136 0 0.8954597534 2.156487164e-15 1.465080822)
(-0.6946423702 2.202439478e-15 0.1523315573 4.041752733e-15 -0.7380803353 0 1.001091969 4.744089476e-15 1.446885439)
(-0.6786969525 2.76315476e-15 0.1773348374 3.718095236e-15 -0.7330595211 0 1.103369307 7.140604986e-15 1.42612463)
(-0.6605707073 -2.392984699e-15 0.2041412046 3.458597504e-15 -0.7275208058 2.766878003e-14 1.202247233 3.768775278e-15 1.402701111)
(-0.6401837715 -6.638998154e-15 0.2327218794 3.246577894e-15 -0.7214380799 0 1.297706664 3.040416482e-15 1.376507034)
(-0.6174385233 -1.623810047e-15 0.2630266997 3.070695268e-15 -0.7147909634 0 1.389722412 3.136184723e-15 1.34742565)
(-0.5922353748 1.370142496e-15 0.2949723246 2.922970658e-15 -0.7075608874 0 1.478279572 3.732215178e-15 1.315350241)
(-0.5644719294 -1.505364151e-15 0.3284619373 1.398813876e-15 -0.6997320726 0 1.563367328 3.976994299e-15 1.28015914)
(-0.5340368396 2.233227508e-16 0.3633800047 1.345191158e-15 -0.6912891756 0 1.644961762 3.40309192e-15 1.241734222)
(-0.5008172872 2.387410664e-15 0.3995966535 0 -0.6822178049 0 1.723044345 4.132152425e-15 1.199954273)
(-0.4646926809 3.24579363e-16 0.436969145 0 -0.6725038122 0 1.797572226 3.14489652e-15 1.154686907)
(-0.4255382222 2.180517068e-15 0.4753426318 0 -0.6621331972 0 1.868498354 1.065070504e-15 1.105802663)
(-0.3832210511 3.543924499e-15 0.5145514579 0 -0.6510920211 0 1.93574392 1.884018344e-15 1.053156669)
(-0.3376012986 2.683026082e-15 0.554415079 0 -0.6393660682 0 1.99921269 1.005399097e-15 0.9966050282)
(-0.288532722 3.279475316e-15 0.5947381707 0 -0.6269409572 0 2.058767318 1.641160941e-15 0.9359880495)
(-0.2358602774 3.124254277e-15 0.6353061047 0 -0.6138019605 0 2.114237451 1.344909143e-15 0.8711465357)
(-0.179425564 4.943975205e-15 0.6758785872 0 -0.5999339621 0 2.165399006 1.472489906e-15 0.8019091012)
(-0.1190678772 4.865149563e-15 0.7161881257 0 -0.5853217096 0 2.211977198 3.293283285e-15 0.7281066603)
(-0.05462909425 2.916757614e-15 0.7559333972 0 -0.5699498134 0 2.253631552 2.419550762e-15 0.649569548)
(0.01404128244 5.579587399e-15 0.7947701654 -2.127932028e-15 -0.5538032131 -1.702345623e-14 2.289951437 2.981233914e-15 0.566136048)
(0.08707796879 7.743644571e-15 0.8323026778 0 -0.5368673765 0 2.320442669 2.59807081e-15 0.4776617994)
(0.1645865466 6.574343477e-15 0.8680768116 0 -0.5191290244 0 2.344526217 3.42707465e-15 0.3840286053)
(0.2466304809 6.003023846e-15 0.9015739059 0 -0.5005768176 0 2.361525861 1.56047962e-15 0.2851620713)
(0.3332148156 6.239962866e-15 0.9322041023 0 -0.4812023733 0 2.370668616 8.614811959e-16 0.1810487841)
(0.4242641741 5.068467458e-15 0.9593102116 0 -0.4610013244 0 2.371084284 9.038148657e-16 0.07175567481)
(0.5196027775 2.887316424e-15 0.9821637801 1.021282217e-15 -0.4399748312 8.170257735e-15 2.361806312 -8.543461405e-16 -0.04254435925)
(0.6189239034 1.356015551e-15 0.9999839311 0 -0.4181309192 0 2.341790523 -5.760945765e-16 -0.1615474196)
(0.7217674008 1.19315046e-15 1.011951773 0 -0.3954865751 0 2.309934425 -8.092456953e-16 -0.2847883649)
(0.8274986839 2.143973718e-15 1.017237101 0 -0.3720692196 0 2.265107612 -1.05165714e-15 -0.4116168081)
(0.935282504 3.140746301e-15 1.015035382 -1.013271648e-15 -0.3479187439 0 2.20620291 -1.001055679e-15 -0.5411815987)
(1.044080561 2.454883374e-15 1.004607546 -1.013220707e-15 -0.3230891455 0 2.132192263 -2.776286758e-16 -0.6724081668)
(1.152643182 1.753466425e-15 0.9853222888 -1.01386201e-15 -0.2976497596 0 2.042201674 -6.489332954e-16 -0.8040091994)
(1.259530878 1.124210249e-15 0.9566867598 -1.015159872e-15 -0.2716864334 0 1.935592006 -2.604215282e-16 -0.9344904211)
(1.363152154 5.363521044e-17 0.918389545 -1.525623764e-15 -0.2453013907 0 1.812048879 -3.81882711e-16 -1.062191165)
(1.461811224 -6.870362389e-17 0.870308166 -1.019601607e-15 -0.2186127356 0 1.671659726 -9.479346972e-16 -1.185335641)
(1.553779972 2.421902286e-16 0.812509239 -1.022691934e-15 -0.1917527227 0 1.514989237 -1.572972311e-15 -1.302102944)
(1.637375902 3.37265968e-16 0.745230529 -1.02633091e-15 -0.1648652408 0 1.343109207 -1.235399092e-15 -1.410705439)
(1.711051253 4.297098036e-16 0.6688369186 -5.152492258e-16 -0.138102341 0 1.157601159 -1.394948353e-15 -1.509468669)
(1.773440921 1.048065727e-15 0.5837630639 -5.175882828e-16 -0.1116200484 0 0.9605013753 -8.546007166e-16 -1.59688916)
(1.823246519 1.169884965e-15 0.4904710466 -5.201746435e-16 -0.08557472734 0 0.7542495516 -4.618546124e-16 -1.67166428)
(1.85930464 1.193607097e-15 0.3895423871 -6.537514265e-16 -0.06012317434 0 0.5416150283 -3.711643745e-17 -1.732712987)
(1.881631964 1.196609991e-15 0.2815882609 -7.233344927e-16 -0.0354179193 0 0.325355082 6.628188083e-16 -1.779234914)
(1.890798786 5.511182022e-16 0.112617505 -7.278561356e-16 -0.01158208312 0 0.1079154352 6.152055297e-16 -1.810592057)
(-0.6387449615 -2.524441483e-14 0.01609809759 2.627773189e-14 -1.060097015 0 0.08807740476 5.505569934e-15 1.750234394)
(-0.847428194 -4.93668131e-15 0.02660297639 3.113079185e-14 -0.9188979876 0 0.2270998207 1.759553537e-14 1.747082852)
(-0.8378024626 1.834589972e-14 0.04071713209 1.033669307e-14 -0.8757314194 -9.450690803e-14 0.3575157631 6.274503047e-14 1.742570225)
(-0.8533670532 1.422831191e-14 0.05988919368 4.337538373e-15 -0.8694842717 0 0.4928371608 3.594632166e-14 1.735156754)
(-0.8467377576 -1.874922353e-15 0.07900066654 0 -0.8651675465 0 0.6249421799 3.062250705e-14 1.725290117)
(-0.8377982524 -9.358283515e-15 0.09948518998 2.918051863e-15 -0.8609831621 0 0.7535912142 1.304050507e-14 1.712978462)
(-0.8271700207 -6.644383938e-15 0.1217136498 5.077499367e-15 -0.8567304723 0 0.878803473 5.568352512e-15 1.698171931)
(-0.8142299706 -4.535586388e-15 0.1457611397 4.524540148e-15 -0.852145356 0 1.000425364 -7.302123537e-16 1.680816296)
(-0.7990578269 -3.467349855e-15 0.1717359015 4.104700869e-15 -0.8471069587 0 1.118374415 5.13631256e-15 1.660834929)
(-0.7816552695 2.315751582e-15 0.1997012096 1.888001289e-15 -0.8415568814 0 1.232603532 1.032627526e-14 1.638144615)
(-0.7619669345 1.838555013e-15 0.2296728381 3.512463308e-15 -0.8354585455 2.809970647e-14 1.343105656 9.210158882e-15 1.612663674)
(-0.7399155195 -3.82358951e-15 0.2616440874 3.297141607e-15 -0.8287874595 0 1.449888705 3.739148766e-15 1.584287564)
(-0.7154081607 -1.339988935e-15 0.2955703132 4.677779555e-15 -0.8215234675 0 1.552965598 -1.778160178e-15 1.552914027)
(-0.6883519878 2.927909477e-16 0.3313854387 4.452741542e-15 -0.8136498121 0 1.652376133 1.994475405e-15 1.518438227)
(-0.6586375476 -5.271756525e-16 0.3690101332 5.682398612e-15 -0.8051516152 0 1.748151764 3.408928859e-15 1.480737563)
(-0.6261508103 2.02786672e-16 0.408342997 4.09842537e-15 -0.7960139976 0 1.840335916 2.435280624e-15 1.43969488)
(-0.5907655517 1.682528618e-15 0.4492769007 5.276904457e-15 -0.7862230344 0 1.928964134 3.219665406e-15 1.395171583)
(-0.5523445367 3.313825746e-15 0.4916905934 0 -0.7757637486 0 2.014069274 2.218176652e-15 1.347028927)
(-0.5107375837 2.838513316e-15 0.5354551642 1.243215413e-15 -0.7646212812 1.989144661e-14 2.095669375 -2.034233337e-15 1.295102703)
(-0.4657782579 1.74983494e-15 0.5804328243 0 -0.7527792852 0 2.17376635 1.251432769e-15 1.239223908)
(-0.4172839736 1.898340252e-15 0.6264753432 1.185305133e-15 -0.7402207671 9.482441065e-15 2.248336808 1.588110546e-15 1.179195746)
(-0.3650512763 2.899485473e-15 0.673421814 0 -0.7269269389 0 2.319326751 3.079962781e-15 1.114808993)
(-0.308856791 3.453662177e-15 0.7210928143 0 -0.7128776975 0 2.386639991 3.381430901e-15 1.045824707)
(-0.248453455 2.981889066e-15 0.7692867001 0 -0.6980508823 0 2.450132416 1.065484943e-15 0.9719878942)
(-0.1835776922 4.590777609e-15 0.8177676887 -1.106628124e-15 -0.6824225379 -8.853024993e-15 2.509597169 1.731278204e-15 0.8930122757)
(-0.1139445368 5.100591557e-15 0.8662665753 0 -0.6659668459 0 2.564755007 1.215098418e-15 0.8085963729)
(-0.03925135035 5.183199556e-15 0.914460506 0 -0.6486560742 0 2.615236444 5.486217911e-16 0.7184191276)
(0.04081203622 5.352202587e-15 0.9619646002 0 -0.6304607861 0 2.660572484 1.291604097e-15 0.6221460341)
(0.1265560621 7.066315198e-15 1.00831575 -2.121966793e-15 -0.6113503459 -8.48786717e-15 2.700170878 1.897972028e-15 0.5194402052)
(0.2182785299 8.420127236e-15 1.052955718 0 -0.5912933824 0 2.733301025 1.11836492e-15 0.4099792793)
(0.3162400934 6.35861494e-15 1.095225279 0 -0.5702587261 0 2.759080114 5.171605824e-16 0.2934696786)
(0.4206490716 5.648823082e-15 1.134346477 0 -0.5482167483 0 2.776451524 5.423443107e-16 0.1696767621)
(0.5316232906 3.990743432e-15 1.169420106 0 -0.5251405091 0 2.784172749 6.977834265e-16 0.03845182666)
(0.6491470775 1.871853268e-15 1.199418864 0 -0.5010081854 0 2.780813423 3.515781884e-17 -0.1002236613)
(0.7730370518 2.055816573e-15 1.223201785 0 -0.4758052819 0 2.764751448 -1.031819618e-15 -0.2461839807)
(0.9028819571 2.569592367e-15 1.239546417 0 -0.4495274012 0 2.734196789 -8.76298688e-16 -0.3990416411)
(1.037988899 2.264117173e-15 1.247167217 0 -0.4221836954 0 2.687222514 -1.239013881e-15 -0.5581195297)
(1.1773375 1.904254924e-15 1.244780193 0 -0.3938003007 0 2.621834078 -1.846642489e-15 -0.7223963877)
(1.319531119 1.657096779e-15 1.23116511 0 -0.3644239228 0 2.536059349 -8.576968633e-16 -0.8904653171)
(1.462770401 1.503162962e-15 1.20523155 -1.030970444e-15 -0.3341254085 0 2.428069618 -1.445907138e-16 -1.060500249)
(1.604865374 1.571576243e-15 1.166108642 -1.032923025e-15 -0.3030026172 0 2.296348367 -3.992574077e-16 -1.230261323)
(1.743265647 1.92231451e-15 1.113207282 -1.035481356e-15 -0.2711820968 0 2.13986638 -6.430146879e-16 -1.397131924)
(1.875155647 4.422248426e-16 1.046272466 0 -0.2388198167 8.308958511e-15 1.958284208 -1.080526147e-15 -1.558208458)
(1.997600346 -5.318455373e-16 0.9654064323 -1.042315465e-15 -0.2060991709 0 1.752120646 -6.078624848e-16 -1.710435364)
(2.107729071 8.789367242e-17 0.8710301232 -1.046547913e-15 -0.1732272365 -4.186191654e-15 1.522871697 -1.384069995e-16 -1.850786473)
(2.202863754 -4.46596695e-17 0.7637775378 -2.628247216e-16 -0.1404281929 4.205195546e-15 1.273037661 -9.575970327e-16 -1.976423687)
(2.280457787 -2.337002603e-16 0.6444191453 -5.282760851e-16 -0.1079374244 0 1.006088382 -9.093495318e-16 -2.08483758)
(2.338576202 -8.644099762e-16 0.5139896448 -7.967199061e-16 -0.07599839589 0 0.7263252367 -6.935810377e-16 -2.173961323)
(2.377238374 4.832551756e-16 0.3735124649 -8.013818621e-16 -0.04484593782 -4.274036598e-15 0.4381684243 -2.251531542e-16 -2.242296556)
(2.394427938 1.131728878e-15 0.1499715524 -6.71992823e-16 -0.01467259472 0 0.145647886 -6.810177132e-17 -2.288663159)
(-0.7283369688 -2.564102e-14 0.01812435858 2.490782373e-14 -1.209404557 0 0.09772401816 -8.927987724e-16 1.994514972)
(-0.9663406122 -3.952423804e-14 0.03013843733 3.161559049e-14 -1.047991126 0 0.2518455827 -6.026841467e-15 1.991014611)
(-0.9556040666 9.961652354e-15 0.0461949698 3.599199769e-14 -0.9987211242 -1.91957321e-13 0.3964120205 1.970053389e-14 1.985881195)
(-0.9734403233 2.626489922e-14 0.0677924658 1.541780342e-14 -0.9916788475 0 0.5464323818 2.020205182e-14 1.977518224)
(-0.965935802 7.502956992e-15 0.08924944692 5.284063246e-15 -0.9867737236 -5.636334129e-14 0.6927666439 2.653250956e-14 1.966455475)
(-0.9560001445 4.291857864e-15 0.1121853797 5.926989147e-15 -0.9820503597 0 0.8352199577 1.365585595e-14 1.952720766)
(-0.9442401298 7.90607088e-16 0.1369980378 5.156571071e-15 -0.9772781894 0 0.973808421 7.28922317e-15 1.936284408)
(-0.9299792651 -4.543396628e-15 0.1637783841 6.892500958e-15 -0.9721583694 0 1.108361209 4.414865307e-15 1.917115224)
(-0.9133426681 -8.196799659e-15 0.1926481088 4.168623218e-15 -0.9665585459 0 1.238794835 6.042134769e-15 1.895163909)
(-0.8943710089 -8.800580457e-16 0.2236810748 3.834806123e-15 -0.9604177455 0 1.365090566 6.59995758e-15 1.870383152)
(-0.8730294598 4.225555112e-15 0.2569150034 1.783581383e-15 -0.9537016361 0 1.487271431 1.135821656e-14 1.842704582)
(-0.8492509515 4.267360026e-15 0.2923565365 5.0227318e-15 -0.9463874813 0 1.605369622 6.588847223e-15 1.81204599)
(-0.8229653561 -1.701070664e-16 0.3299736302 1.583542146e-15 -0.9384577686 0 1.719455048 1.606554289e-15 1.778331935)
(-0.7940873739 -3.897942125e-15 0.3697228 6.029445221e-15 -0.9298994682 0 1.829611577 4.149409918e-15 1.741461651)
(-0.7625164384 -1.879484321e-15 0.4115396778 5.770890389e-15 -0.9206997913 0 1.93593298 4.927258639e-15 1.701336694)
(-0.7281426104 3.766619459e-16 0.4553483124 5.549666656e-15 -0.9108470267 0 2.038531988 4.964064134e-15 1.657840953)
(-0.6908395401 2.671690527e-15 0.5010651548 5.359081488e-15 -0.9003286989 0 2.137516205 5.067327969e-15 1.610843509)
(-0.6504640318 6.266753615e-15 0.5486021684 5.193974667e-15 -0.8891318503 0 2.233004578 5.170884169e-15 1.56020094)
(-0.6068522506 3.072596963e-15 0.5978661788 0 -0.8772419098 2.020121534e-14 2.325102808 4.930508787e-15 1.505741291)
(-0.5598172343 -5.627035212e-16 0.6487606571 0 -0.864642845 0 2.413913057 7.023355734e-15 1.447273157)
(-0.509144322 5.054867707e-16 0.7011859863 0 -0.8513162843 0 2.499515954 5.950522117e-15 1.384573356)
(-0.4545867864 1.168178402e-15 0.7550356832 0 -0.8372415103 0 2.581971431 5.554906377e-15 1.31738605)
(-0.395861125 5.639067902e-15 0.8101926323 -2.31717718e-15 -0.8223946477 -9.268708719e-15 2.661303096 5.487626336e-15 1.245417179)
(-0.3326456562 6.882761317e-15 0.8665224273 0 -0.8067485698 0 2.737494646 3.109132973e-15 1.168327581)
(-0.264574302 4.701780372e-15 0.9238674873 2.247723203e-15 -0.790272358 8.990892813e-15 2.810471833 -1.198303977e-15 1.085732667)
(-0.1912336558 4.471291711e-15 0.9820280895 0 -0.7729310374 0 2.880086231 1.69425267e-17 0.9971957227)
(-0.1121649484 5.437523719e-15 1.040764187 0 -0.7546851646 0 2.946104479 -1.046968294e-15 0.9022284657)
(-0.02685966308 5.906732474e-15 1.099766361 0 -0.7354909122 0 3.008179987 -3.329294894e-16 0.8002877882)
(0.06523965438 6.850160534e-15 1.158632221 0 -0.7152996171 0 3.065827371 -1.388887883e-15 0.6907833679)
(0.1647190403 7.947463603e-15 1.216852411 0 -0.6940580475 0 3.118399516 -1.695808383e-15 0.5730788538)
(0.2721912193 7.039032415e-15 1.273780768 0 -0.6717091102 0 3.16504788 -3.432067233e-16 0.446511583)
(0.3882770103 4.815434686e-15 1.328613961 1.057701656e-15 -0.6481920954 8.461613246e-15 3.204684445 -8.563181866e-16 0.3104114796)
(0.5135626903 3.664060455e-15 1.38035834 0 -0.62344406 0 3.235946911 8.883703823e-16 0.1641259121)
(0.648561295 3.953759308e-15 1.427797642 0 -0.5974016818 0 3.257147898 7.235939424e-16 0.007077167151)
(0.7936530674 2.557363702e-15 1.469503334 1.047496172e-15 -0.5700036397 8.379969378e-15 3.266246519 -3.791447839e-17 -0.1611807122)
(0.9490097251 2.483979627e-15 1.50382414 0 -0.5411940195 0 3.260818346 2.168980332e-16 -0.3408860544)
(1.114489532 4.66304917e-15 1.52887938 0 -0.5109264732 0 3.238037203 -1.948466595e-17 -0.5319665431)
(1.289526946 1.795117341e-15 1.542620422 1.045025672e-15 -0.4791699918 8.360205376e-15 3.19470017 -7.623148245e-16 -0.7339232532)
(1.473016085 -1.029348244e-15 1.542889322 0 -0.4459150415 0 3.1272926 -9.790381516e-16 -0.9456915818)
(1.663167778 3.905896681e-16 1.52751311 0 -0.4111809201 0 3.032105447 -2.001421632e-15 -1.165521694)
(1.857409855 9.240291439e-16 1.494457927 0 -0.3750239175 0 2.905441516 -5.494828288e-16 -1.39086099)
(2.052318256 1.146087172e-15 1.441985636 0 -0.3375447178 0 2.743919199 9.54845107e-17 -1.618274103)
(2.243636403 1.596612315e-16 1.368843053 -1.054794201e-15 -0.2988954224 0 2.544851831 4.875651621e-16 -1.843457461)
(2.426436068 -1.37021932e-15 1.274442186 -1.058547403e-15 -0.2592832742 0 2.30671019 -1.791899398e-16 -2.061378672)
(2.595409815 1.0991735e-15 1.15890821 -1.594268646e-15 -0.2189704123 -4.251383056e-15 2.029579428 -5.344428587e-16 -2.266541101)
(2.745169431 2.448135605e-15 1.02300271 -1.067670724e-15 -0.1782679961 0 1.715539743 -1.650539375e-15 -2.453394138)
(2.870434243 6.418125613e-16 0.8680488411 -5.365029084e-16 -0.1375280193 0 1.368931969 -2.929015265e-15 -2.616790605)
(2.96744962 -1.704118799e-16 0.69604473 -5.394181298e-16 -0.09713412311 0 0.9962784014 -2.503451514e-15 -2.752452755)
(3.03589187 -4.093152362e-17 0.508889829 -8.138617512e-16 -0.05745960218 0 0.6048631013 -2.475292078e-15 -2.857352802)
(3.068670352 2.483718225e-16 0.205216107 -7.165806286e-16 -0.01881792091 0 0.2017430839 -1.686161496e-15 -2.929173626)
(-0.825764731 -1.907060978e-14 0.02034121652 2.529573111e-14 -1.37190948 0 0.1075654693 -3.996552803e-15 2.260265728)
(-1.095644091 -2.740705982e-14 0.03407548091 2.716827615e-14 -1.188421311 0 0.2770561079 -1.559197028e-14 2.256375901)
(-1.083696668 -6.484741904e-16 0.05230837465 2.436835123e-14 -1.132489811 0 0.4360217172 -3.353939335e-14 2.250507248)
(-1.103941225 8.185018268e-15 0.07655117997 1.342107079e-14 -1.12457396 0 0.6009893363 -2.486432386e-15 2.241027796)
(-1.095400564 5.17070736e-15 0.1005442896 1.252149674e-14 -1.118998681 0 0.7617382835 4.601523584e-15 2.228573364)
(-1.084316166 7.233146242e-15 0.1261141708 6.019294394e-15 -1.113659935 0 0.9181298433 9.24351992e-15 2.213182006)
(-1.071247762 1.490771436e-15 0.153676859 5.236878045e-15 -1.10829189 0 1.070160289 8.996230249e-15 2.1948554)
(-1.055472165 -3.616129734e-15 0.1833307699 2.333280937e-15 -1.102557621 0 1.21763019 1.077639333e-14 2.173599034)
(-1.037184205 -5.506914882e-15 0.2152057382 4.233544173e-15 -1.096313793 0 1.360464363 9.334045933e-15 2.149413498)
(-1.016470989 -2.879060475e-15 0.249393553 3.894528305e-15 -1.089499953 0 1.498671712 8.977116011e-15 2.122284588)
(-0.9933174032 2.228819873e-15 0.2859545458 5.434075119e-15 -1.082084854 0 1.632286605 1.010516378e-14 2.092169728)
(-0.9676886869 5.804992377e-15 0.3249021031 6.801272533e-15 -1.0740488 0 1.761380681 1.076494072e-14 2.059033028)
(-0.9395411611 8.543582591e-16 0.3662260413 6.432815127e-15 -1.065380208 0 1.886074192 1.189131205e-14 2.022824194)
(-0.908807599 -3.073632705e-15 0.4098992815 3.061673045e-15 -1.056070378 0 2.006494335 9.059356175e-15 1.98347116)
(-0.8754118117 -1.359308195e-15 0.455877425 5.860764598e-15 -1.046111694 0 2.122808633 7.83367538e-15 1.940907828)
(-0.83925867 5.779199579e-17 0.5041132145 5.636095589e-15 -1.035497146 0 2.235191191 7.264052896e-15 1.895034185)
(-0.8002352778 1.477565195e-15 0.554551402 2.721271151e-15 -1.024218504 0 2.343839775 7.616913935e-15 1.845748383)
(-0.758208432 3.513141947e-15 0.6071412013 2.637432077e-15 -1.012266668 0 2.448955049 8.671127558e-15 1.792912539)
(-0.7130165317 7.162506683e-16 0.6618354155 2.564477917e-15 -0.9996303456 -1.025791167e-14 2.550750811 1.206483672e-14 1.736374804)
(-0.6644704339 6.52058393e-16 0.7185872993 0 -0.9862959445 -1.000311302e-14 2.649436348 1.073993652e-14 1.675936724)
(-0.6123436073 3.555310081e-15 0.7773601426 4.890043685e-15 -0.9722469139 0 2.745218873 9.019907402e-15 1.611373678)
(-0.5563672858 3.409354944e-15 0.8381192008 4.792284781e-15 -0.9574631426 0 2.838292903 6.715612297e-15 1.542410385)
(-0.4962249907 6.469178549e-15 0.9008339754 0 -0.9419204012 0 2.928837935 4.742473614e-15 1.468720627)
(-0.4315427855 1.123910026e-14 0.9654696252 -2.315661703e-15 -0.9255897758 -9.262646812e-15 3.017003381 5.861266781e-15 1.389915503)
(-0.3618781556 8.294954243e-15 1.031976483 2.282728606e-15 -0.9084368763 9.130914426e-15 3.102900406 3.212604331e-15 1.305537894)
(-0.2867200012 4.952537209e-15 1.100290278 0 -0.8904210313 0 3.186588746 2.296081443e-15 1.215048371)
(-0.2054724032 5.594036207e-15 1.170309327 2.228907812e-15 -0.8714950108 1.783126249e-14 3.268055374 7.845969249e-16 1.117816463)
(-0.1174401138 5.849993598e-15 1.241877087 0 -0.8516037374 0 3.34719013 6.031156984e-16 1.013115857)
(-0.02183525732 8.869707652e-15 1.314760362 0 -0.8306836827 0 3.423763433 -6.576339009e-16 0.9001055432)
(0.08223674734 6.946693971e-15 1.388614801 2.17269842e-15 -0.8086625437 8.690793679e-15 3.497386958 2.436015204e-16 0.777830618)
(0.1957831301 5.2528917e-15 1.462952416 0 -0.7854583297 0 3.567460707 1.765983815e-15 0.6452204766)
(0.3199136281 3.835136863e-15 1.53711177 2.148348002e-15 -0.7609791606 8.593392009e-15 3.633127583 2.019100081e-15 0.5010850875)
(0.4558331688 1.755049823e-15 1.610193187 0 -0.7351232528 0 3.693199521 2.40875474e-15 0.3441325605)
(0.6048030688 3.28016136e-15 1.680994241 0 -0.7077792531 0 3.746071413 2.841567768e-15 0.1729966546)
(0.7680902419 2.800811161e-15 1.747979916 0 -0.6788279457 0 3.789632105 3.148098155e-15 -0.01371402567)
(0.9469030006 2.551708255e-15 1.809223841 0 -0.648144414 0 3.821159826 2.581082531e-15 -0.2173272658)
(1.142261503 3.832897419e-15 1.862336908 0 -0.6156015885 0 3.837214936 2.812664898e-15 -0.4389971178)
(1.354822987 3.409842765e-15 1.904439715 0 -0.5810762383 0 3.833533442 3.539150543e-15 -0.6795347474)
(1.584674145 3.636010762e-15 1.932177811 0 -0.5444570682 0 3.804966819 2.062903864e-15 -0.9391730624)
(1.831046682 7.185796852e-16 1.941778144 1.063331788e-15 -0.5056552493 8.506654307e-15 3.745474385 1.374237188e-15 -1.217283965)
(2.091968812 -1.928858254e-15 1.929162788 0 -0.4646184676 0 3.648218636 2.217349954e-15 -1.512029817)
(2.363920445 1.439275709e-16 1.890199168 0 -0.4213480232 0 3.505835485 1.40551758e-15 -1.819989101)
(2.641540011 9.415030659e-16 1.821115539 0 -0.3759176651 0 3.310925646 9.579959614e-16 -2.135844871)
(2.917491822 1.258754367e-15 1.718983322 0 -0.3284925664 0 3.056837172 -6.994569929e-16 -2.452231825)
(3.182636599 2.778607143e-15 1.582225997 -1.079398222e-15 -0.2793445952 0 2.738727003 -2.934711132e-15 -2.759885482)
(3.426355551 4.399138076e-15 1.410972263 -1.084298325e-15 -0.2288594581 0 2.35487656 -2.114927093e-15 -3.048205444)
(3.637225282 1.332348695e-15 1.207228866 -5.448582524e-16 -0.1775378648 4.35886602e-15 1.908198229 -2.901068868e-15 -3.30621991)
(3.806693652 -1.708991597e-15 0.9750231592 -1.095637749e-15 -0.1259820132 0 1.40711271 -3.855745547e-15 -3.524090183)
(3.932394092 -1.133259171e-15 0.7183029678 -6.887805026e-16 -0.07480337148 0 0.8633149403 -2.809611485e-15 -3.694655)
(3.996704001 -4.239276609e-16 0.2911786927 -6.930861447e-16 -0.0245404963 0 0.289685868 -2.196174636e-15 -3.812700329)
(-0.9308590571 -1.179474648e-14 0.0227672736 1.467981816e-14 -1.547365937 0 0.1174473468 -6.149491268e-15 2.547089224)
(-1.235114555 -1.421701211e-14 0.03847552991 1.504984879e-14 -1.339956849 0 0.3023382778 -1.836084651e-14 2.542745614)
(-1.221856519 -6.220195534e-15 0.05916731623 1.237392953e-14 -1.276812859 0 0.475756148 -3.82724882e-14 2.53600408)