/*--------------------------------*- C++ -*----------------------------------*\
  =========                 |
  \\      /  F ield         | OpenFOAM: The Open Source CFD Toolbox
   \\    /   O peration     | Website:  https://openfoam.org
    \\  /    A nd           | Version:  7
     \\/     M anipulation  |
\*---------------------------------------------------------------------------*/
FoamFile
{
    version     2.0;
    format      ascii;
    class       surfaceScalarField;
    location    "0.0012";
    object      phi;
}
// * * * * * * * * * * * * * * * * * * * * * * * * * * * * * * * * * * * * * //

dimensions      [1 0 -1 0 0 0 0];

internalField   nonuniform List<scalar> 
2259
(
-5.076878083e-13
4.898425741e-11
1.433117103e-10
-5.795964644e-13
4.956385388e-11
-2.272216621e-12
1.450043304e-10
-5.009285782e-12
2.350770461e-10
-8.718936482e-12
3.199566412e-10
-1.332831258e-11
3.998277511e-10
-1.876350734e-11
4.748680863e-10
-2.494955893e-11
5.452476671e-10
-3.181053758e-11
6.111307144e-10
-3.926968535e-11
6.72675786e-10
-4.72495226e-11
7.300361276e-10
-5.567181571e-11
7.833602541e-10
-6.445762801e-11
8.327923586e-10
-7.352764252e-11
8.78473239e-10
-8.280199603e-11
9.205406254e-10
-9.220053504e-11
9.591295292e-10
-1.016430405e-10
9.94373081e-10
-1.110490114e-10
1.026402242e-09
-1.203383059e-10
1.055346724e-09
-1.294306714e-10
1.081334532e-09
-1.382464898e-10
1.104492707e-09
-1.467063178e-10
1.124946903e-09
-1.547316064e-10
1.142821973e-09
-1.622443227e-10
1.158241522e-09
-1.691676704e-10
1.171328496e-09
-1.75425827e-10
1.182204708e-09
-1.80944718e-10
1.190991439e-09
-1.856519808e-10
1.197809073e-09
-1.894778056e-10
1.202777607e-09
-1.923552028e-10
1.206016462e-09
-1.94221005e-10
1.20764487e-09
-1.950165475e-10
1.207781876e-09
-1.946888352e-10
1.206546496e-09
-1.931916537e-10
1.204057683e-09
-1.904869206e-10
1.200434311e-09
-1.865460685e-10
1.195794892e-09
-1.813516221e-10
1.190257335e-09
-1.748983937e-10
1.183938057e-09
-1.671950357e-10
1.176951558e-09
-1.582646846e-10
1.169408947e-09
-1.48146068e-10
1.161417448e-09
-1.368932124e-10
1.153078584e-09
-1.245755307e-10
1.144487643e-09
-1.112765822e-10
1.135732242e-09
-9.709305766e-11
1.126892035e-09
-8.21327493e-11
1.118037885e-09
-6.651298613e-11
1.109232194e-09
-5.035829102e-11
1.100528758e-09
-3.379890615e-11
1.091973816e-09
-1.696799924e-11
1.08360481e-09
1.075450235e-09
-6.581153275e-13
5.022196921e-11
-2.580172835e-12
1.469263879e-10
-5.68842846e-12
2.381853017e-10
-9.901656814e-12
3.241698696e-10
-1.513771969e-11
4.05063814e-10
-2.13135127e-11
4.810438793e-10
-2.834496923e-11
5.522791236e-10
-3.614729424e-11
6.189330394e-10
-4.46351059e-11
6.811635977e-10
-5.372252177e-11
7.391235435e-10
-6.33230698e-11
7.929608022e-10
-7.334999667e-11
8.428192855e-10
-8.371629764e-11
8.888395399e-10
-9.433458635e-11
9.311589141e-10
-1.051175672e-10
9.699125101e-10
-1.159776947e-10
1.005233209e-09
-1.26827555e-10
1.037252102e-09
-1.375797072e-10
1.066098876e-09
-1.48146833e-10
1.091901658e-09
-1.58441719e-10
1.114787593e-09
-1.683772621e-10
1.134882447e-09
-1.778664996e-10
1.152311211e-09
-1.868226192e-10
1.167197642e-09
-1.951589078e-10
1.179664785e-09
-2.02788962e-10
1.189834762e-09
-2.096266187e-10
1.197829096e-09
-2.155863278e-10
1.203768782e-09
-2.205832634e-10
1.207774542e-09
-2.245338829e-10
1.209967081e-09
-2.273564947e-10
1.210467482e-09
-2.289720993e-10
1.209397481e-09
-2.293054387e-10
1.206879835e-09
-2.282864464e-10
1.20303869e-09
-2.25851708e-10
1.197999572e-09
-2.219468217e-10
1.191890005e-09
-2.165281409e-10
1.184838655e-09
-2.095656154e-10
1.176975532e-09
-2.0104505e-10
1.168430992e-09
-1.909705777e-10
1.159334475e-09
-1.793669649e-10
1.149813835e-09
-1.662808912e-10
1.13999251e-09
-1.517821814e-10
1.129988933e-09
-1.35963415e-10
1.119913476e-09
-1.189391235e-10
1.109867743e-09
-1.008435188e-10
1.099942281e-09
-8.182784417e-11
1.090216519e-09
-6.205717031e-11
1.080758084e-09
-4.170706834e-11
1.071623714e-09
-2.09596997e-11
1.062857441e-09
1.054490536e-09
-7.431393352e-13
5.096510854e-11
-2.913641041e-12
1.490968896e-10
-6.423774214e-12
2.416954349e-10
-1.118213501e-11
3.289282303e-10
-1.709650881e-11
4.109781878e-10
-2.407378138e-11
4.880211519e-10
-3.20200895e-11
5.602254317e-10
-4.084113672e-11
6.277540866e-10
-5.044235203e-11
6.90764813e-10
-6.072889305e-11
7.494100845e-10
-7.160582618e-11
8.038377353e-10
-8.297834563e-11
8.54191805e-10
-9.475157447e-11
9.006127688e-10
-1.068308735e-10
9.432382131e-10
-1.191218217e-10
9.822034583e-10
-1.315300891e-10
1.017641476e-09
-1.439617693e-10
1.049683782e-09
-1.563228921e-10
1.078459999e-09
-1.685198805e-10
1.104098646e-09
-1.804589284e-10
1.126726641e-09
-1.920463696e-10
1.146469888e-09
-2.031880754e-10
1.163452917e-09
-2.137896338e-10
1.1777992e-09
-2.237558565e-10
1.189631007e-09
-2.329907747e-10
1.19906968e-09
-2.413974263e-10
1.206235747e-09
-2.488776573e-10
1.211249013e-09
-2.553320934e-10
1.214228978e-09
-2.606602848e-10
1.215295273e-09
-2.647608498e-10
1.214568047e-09
-2.675320328e-10
1.212168664e-09
-2.688726056e-10
1.208220408e-09
-2.686827435e-10
1.202848828e-09
-2.668661873e-10
1.196183016e-09
-2.633321246e-10
1.188355943e-09
-2.579980769e-10
1.179504607e-09
-2.507935692e-10
1.169771024e-09
-2.416639026e-10
1.159301326e-09
-2.305748436e-10
1.148245416e-09
-2.175171287e-10
1.13675612e-09
-2.02511162e-10
1.124986544e-09
-1.856105731e-10
1.113088344e-09
-1.669052638e-10
1.101208167e-09
-1.465217697e-10
1.089484249e-09
-1.246223296e-10
1.078042841e-09
-1.014011998e-10
1.066995389e-09
-7.707993179e-11
1.056436816e-09
-5.190090026e-11
1.046444683e-09
-2.612007285e-11
1.037076614e-09
1.028370463e-09
-8.344304888e-13
5.179953903e-11
-3.271679508e-12
1.515341387e-10
-7.213204069e-12
2.456369595e-10
-1.25565823e-11
3.342716086e-10
-1.919867115e-11
4.176202767e-10
-2.70355433e-11
4.958580241e-10
-3.596279472e-11
5.691526832e-10
-4.587591286e-11
6.376672047e-10
-5.66704597e-11
7.015593599e-10
-6.824218128e-11
7.609818061e-10
-8.048736361e-11
8.160829176e-10
-9.330277996e-11
8.670072213e-10
-1.065857179e-10
9.138957067e-10
-1.202343436e-10
9.568868388e-10
-1.34147299e-10
9.961164137e-10
-1.482241077e-10
1.031718285e-09
-1.623647716e-10
1.063824446e-09
-1.764699758e-10
1.092565203e-09
-1.904406382e-10
1.118069308e-09
-2.041780003e-10
1.140464003e-09
-2.175830782e-10
1.159874966e-09
-2.305565945e-10
1.176426433e-09
-2.429983427e-10
1.190240948e-09
-2.548069374e-10
1.201439602e-09
-2.658792136e-10
1.210141957e-09
-2.761097533e-10
1.216466287e-09
-2.853902395e-10
1.2205295e-09
-2.936091022e-10
1.222447841e-09
-3.006508107e-10
1.222336981e-09
-3.063955703e-10
1.220312806e-09
-3.107193267e-10
1.21649242e-09
-3.134934652e-10
1.210994546e-09
-3.145855366e-10
1.2039409e-09
-3.138603134e-10
1.195457793e-09
-3.111813712e-10
1.185677001e-09
-3.064140335e-10
1.174737269e-09
-2.994289854e-10
1.162785976e-09
-2.901076578e-10
1.149979998e-09
-2.783487451e-10
1.136486504e-09
-2.640760126e-10
1.122483387e-09
-2.472476188e-10
1.10815815e-09
-2.278655816e-10
1.093706307e-09
-2.059849647e-10
1.07932755e-09
-1.817208567e-10
1.065220141e-09
-1.552522974e-10
1.051574281e-09
-1.268208212e-10
1.038563913e-09
-9.672420653e-11
1.026340201e-09
-6.530493899e-11
1.015025415e-09
-3.293459852e-11
1.004706273e-09
9.954358643e-10
-9.31610428e-13
5.273114946e-11
-3.652790568e-12
1.542553188e-10
-8.053370685e-12
2.500375396e-10
-1.401903827e-11
3.402372762e-10
-2.143486873e-11
4.250361071e-10
-3.018528266e-11
5.04608438e-10
-4.015447918e-11
5.791218797e-10
-5.122694689e-11
6.487396724e-10
-6.328766961e-11
7.136200826e-10
-7.622251086e-11
7.739166473e-10
-8.99184591e-11
8.297788658e-10
-1.042635261e-10
8.813522884e-10
-1.191471912e-10
9.287793718e-10
-1.34460225e-10
9.721998725e-10
-1.500948021e-10
1.011750991e-09
-1.65944518e-10
1.047568001e-09
-1.819041647e-10
1.079784093e-09
-1.978697657e-10
1.108530804e-09
-2.137381713e-10
1.133937714e-09
-2.29406877e-10
1.156132709e-09
-2.447736325e-10
1.175241721e-09
-2.597359071e-10
1.191388707e-09
-2.741903934e-10
1.204695435e-09
-2.880323192e-10
1.215281528e-09
-3.011546776e-10
1.223264315e-09
-3.13447245e-10
1.228758854e-09
-3.247958406e-10
1.231878095e-09
-3.350809566e-10
1.232732957e-09
-3.441766464e-10
1.231432671e-09
-3.519495434e-10
1.228085703e-09
-3.582573606e-10
1.222800237e-09
-3.629478248e-10
1.21568501e-09
-3.658578534e-10
1.206850929e-09
-3.668128394e-10
1.196412779e-09
-3.656269572e-10
1.184491118e-09
-3.621041813e-10
1.171214494e-09
-3.56040674e-10
1.156722469e-09
-3.472293769e-10
1.141168701e-09
-3.354670158e-10
1.124724143e-09
-3.205641162e-10
1.107580488e-09
-3.023590537e-10
1.089953087e-09
-2.807356199e-10
1.072082873e-09
-2.556434576e-10
1.054235387e-09
-2.271200566e-10
1.03669674e-09
-1.953099872e-10
1.019764212e-09
-1.604775873e-10
1.003731513e-09
-1.230081458e-10
9.888707596e-10
-8.339142996e-11
9.754086995e-10
-4.218805402e-11
9.635028974e-10
9.532478103e-10
-1.034163054e-12
5.376531251e-11
-4.054933989e-12
1.572760897e-10
-8.939757798e-12
2.549223634e-10
-1.556152827e-11
3.468590466e-10
-2.379267107e-11
4.332672499e-10
-3.350501055e-11
5.143207775e-10
-4.457046228e-11
5.901873314e-10
-5.68616079e-11
6.61030818e-10
-7.025217896e-11
7.270106537e-10
-8.461750277e-11
7.882819712e-10
-9.983458597e-11
8.44995949e-10
-1.157824287e-10
8.973001311e-10
-1.323423258e-10
9.453392688e-10
-1.493975935e-10
9.892551403e-10
-1.668340874e-10
1.029187485e-09
-1.845396718e-10
1.065273585e-09
-2.02404574e-10
1.097648995e-09
-2.203208227e-10
1.126447053e-09
-2.381823196e-10
1.151799211e-09
-2.558842125e-10
1.173834602e-09
-2.733226219e-10
1.19268013e-09
-2.903940151e-10
1.208460101e-09
-3.069945658e-10
1.221295985e-09
-3.230192862e-10
1.231306249e-09
-3.383610593e-10
1.238606088e-09
-3.529096023e-10
1.243307397e-09
-3.665499279e-10
1.245518421e-09
-3.791608646e-10
1.245343894e-09
-3.906133438e-10
1.24288515e-09
-4.00768301e-10
1.23824066e-09
-4.094741937e-10
1.23150613e-09
-4.165645956e-10
1.222775412e-09
-4.21855361e-10
1.212141694e-09
-4.251416178e-10
1.199699036e-09
-4.261950252e-10
1.185544526e-09
-4.247613416e-10
1.16978081e-09
-4.205588348e-10
1.152519962e-09
-4.132783697e-10
1.133888236e-09
-4.025865096e-10
1.114032283e-09
-3.881327805e-10
1.093126759e-09
-3.695633323e-10
1.071383639e-09
-3.465429255e-10
1.049062466e-09
-3.187874983e-10
1.02647996e-09
-2.861078305e-10
1.004017072e-09
-2.484628496e-10
9.82119231e-10
-2.060170671e-10
9.612857309e-10
-1.591857137e-10
9.420394061e-10
-1.086393772e-10
9.248623631e-10
-5.524886421e-11
9.101123844e-10
8.979989461e-10
-1.141426006e-12
5.490673852e-11
-4.475548929e-12
1.606102126e-10
-9.866792051e-12
2.603136065e-10
-1.717427477e-11
3.541665293e-10
-2.625685099e-11
4.423498262e-10
-3.697279555e-11
5.25036722e-10
-4.918074169e-11
6.023952775e-10
-6.274050017e-11
6.745905765e-10
-7.751373137e-11
7.41783885e-10
-9.336433969e-11
8.041325795e-10
-1.101587141e-10
8.617903233e-10
-1.277663494e-10
9.149077665e-10
-1.460597105e-10
9.636326299e-10
-1.64914631e-10
1.008110061e-09
-1.842101976e-10
1.048483051e-09
-2.038288788e-10
1.084892266e-09
-2.236562513e-10
1.117476368e-09
-2.435810518e-10
1.146371853e-09
-2.634946994e-10
1.171712858e-09
-2.832910534e-10
1.193630956e-09
-3.028658845e-10
1.212254961e-09
-3.221163387e-10
1.227710555e-09
-3.409401581e-10
1.240119805e-09
-3.592349173e-10
1.249601008e-09
-3.768969292e-10
1.2562681e-09
-3.938198997e-10
1.260230368e-09
-4.098934966e-10
1.261592018e-09
-4.250016145e-10
1.260452011e-09
-4.390201614e-10
1.256903697e-09
-4.518143296e-10
1.251034829e-09
-4.63235576e-10
1.242927376e-09
-4.731178652e-10
1.232657702e-09
-4.812730806e-10
1.22029691e-09
-4.874857479e-10
1.205911703e-09
-4.915066532e-10
1.189565431e-09
-4.930457923e-10
1.171319949e-09
-4.917644428e-10
1.151238612e-09
-4.872668806e-10
1.129390673e-09
-4.790929722e-10
1.105858374e-09
-4.667128904e-10
1.080746677e-09
-4.495272224e-10
1.054197971e-09
-4.268771056e-10
1.026412349e-09
-3.980718954e-10
9.976747501e-10
-3.62443865e-10
9.68389042e-10
-3.194407424e-10
9.391161084e-10
-2.687609386e-10
9.106059271e-10
-2.105164262e-10
8.837948937e-10
-1.453738438e-10
8.597197808e-10
-7.461156624e-11
8.393501068e-10
8.233873799e-10
-1.252655692e-12
5.615939421e-11
-4.911720163e-12
1.642692771e-10
-1.082816944e-11
2.662300558e-10
-1.884620037e-11
3.621845603e-10
-2.881016853e-11
4.523137943e-10
-4.056381452e-11
5.36790368e-10
-5.395147598e-11
6.15782939e-10
-6.881925666e-11
6.894583571e-10
-8.501572242e-11
7.579803507e-10
-1.023923404e-10
8.215091974e-10
-1.208041954e-10
8.802021783e-10
-1.401103042e-10
9.342138753e-10
-1.601737699e-10
9.836960956e-10
-1.80862235e-10
1.028798526e-09
-2.020476689e-10
1.069668485e-09
-2.236066731e-10
1.106451271e-09
-2.454201499e-10
1.139289844e-09
-2.67373273e-10
1.168324977e-09
-2.893552192e-10
1.193694804e-09
-3.112587639e-10
1.2155345e-09
-3.32979874e-10
1.233976072e-09
-3.544170363e-10
1.249147717e-09
-3.754708211e-10
1.26117359e-09
-3.960428109e-10
1.270172998e-09
-4.160346502e-10
1.276259939e-09
-4.353469147e-10
1.279542633e-09
-4.538776965e-10
1.2801228e-09
-4.715207907e-10
1.278095106e-09
-4.881635486e-10
1.273546455e-09
-5.036841898e-10
1.26655547e-09
-5.179486102e-10
1.257191796e-09
-5.308061287e-10
1.24551522e-09
-5.420842151e-10
1.231574996e-09
-5.515819325e-10
1.21540942e-09
-5.590612614e-10
1.19704476e-09
-5.642361847e-10
1.176494873e-09
-5.66758969e-10
1.153761397e-09
-5.662025744e-10
1.128834279e-09
-5.620391895e-10
1.101694989e-09
-5.53614499e-10
1.072321986e-09
-5.40119251e-10
1.040702723e-09
-5.20561359e-10
1.006854457e-09
-4.937470366e-10
9.708604277e-10
-4.582849813e-10
9.329269867e-10
-4.126368546e-10
8.934679818e-10
-3.552545728e-10
8.532236453e-10
-2.848746812e-10
8.134150021e-10
-2.010454667e-10
7.758905662e-10
-1.048790546e-10
7.431836948e-10
7.185083253e-10
-1.367035714e-12
5.752642992e-11
-5.360146158e-12
1.682623876e-10
-1.181678111e-11
2.726866908e-10
-2.056459057e-11
3.709323697e-10
-3.143255967e-11
4.631817634e-10
-4.424883522e-11
5.496066436e-10
-5.884234307e-11
6.303764469e-10
-7.504427406e-11
7.056602881e-10
-9.268882317e-11
7.756248999e-10
-1.11613982e-10
8.404343563e-10
-1.316623983e-10
9.002505946e-10
-1.526814999e-10
9.552329769e-10
-1.745242411e-10
1.005538837e-09
-1.970489836e-10
1.051323268e-09
-2.201199754e-10
1.092739477e-09
-2.436070662e-10
1.129938362e-09
-2.673858762e-10
1.163068655e-09
-2.913374447e-10
1.192276545e-09
-3.153481147e-10
1.217705474e-09
-3.39309069e-10
1.239495455e-09
-3.631159651e-10
1.257782968e-09
-3.866684401e-10
1.272700192e-09
-4.098693313e-10
1.284374481e-09
-4.326239735e-10
1.29292764e-09
-4.548393974e-10
1.298475363e-09
-4.764232741e-10
1.301126509e-09
-4.972826297e-10
1.300982156e-09
-5.173223537e-10
1.29813483e-09
-5.364434267e-10
1.292667528e-09
-5.545407075e-10
1.284652751e-09
-5.715002105e-10
1.274151299e-09
-5.871954056e-10
1.261210415e-09
-6.014827223e-10
1.245862313e-09
-6.141955851e-10
1.228122283e-09
-6.251360894e-10
1.207985264e-09
-6.340643394e-10
1.185423123e-09
-6.406830156e-10
1.160380073e-09
-6.446165042e-10
1.132767767e-09
-6.453813867e-10
1.102459872e-09
-6.423451454e-10
1.069285745e-09
-6.346681299e-10
1.033025708e-09
-6.212227947e-10
9.934091219e-10
-6.004827701e-10
9.50120403e-10
-5.703765084e-10
9.02820725e-10
-5.281134518e-10
8.512049253e-10
-4.700424979e-10
7.951526914e-10
-3.917147978e-10
7.350873019e-10
-2.884832668e-10
6.726590353e-10
-1.573076836e-10
6.120081115e-10
5.612006417e-10
-1.483122087e-12
5.900955201e-11
-5.816807376e-12
1.725960728e-10
-1.282360576e-11
2.796934891e-10
-2.23134142e-11
3.804221782e-10
-3.409901528e-11
4.749673645e-10
-4.799188712e-11
5.634995154e-10
-6.380434024e-11
6.461889e-10
-8.135139543e-11
7.232073433e-10
-1.00451713e-10
7.947252175e-10
-1.209288308e-10
8.60911474e-10
-1.426117141e-10
9.219334779e-10
-1.653354456e-10
9.779567083e-10
-1.88941685e-10
1.029145076e-09
-2.132789094e-10
1.075660493e-09
-2.382025032e-10
1.117663071e-09
-2.63574924e-10
1.155310782e-09
-2.892654699e-10
1.1887592e-09
-3.151501069e-10
1.218161182e-09
-3.411111847e-10
1.243666552e-09
-3.670370739e-10
1.265421344e-09
-3.928216519e-10
1.283567546e-09
-4.183637318e-10
1.298242272e-09
-4.435663827e-10
1.309577132e-09
-4.68336317e-10
1.317697574e-09
-4.925829759e-10
1.322722022e-09
-5.162175806e-10
1.324761114e-09
-5.391520196e-10
1.323916595e-09
-5.612976041e-10
1.320280414e-09
-5.825635213e-10
1.313933445e-09
-6.028552615e-10
1.304944491e-09
-6.220720463e-10
1.293368084e-09
-6.401044034e-10
1.279242772e-09
-6.568307144e-10
1.262588624e-09
-6.721125195e-10
1.243404088e-09
-6.857886079e-10
1.221661352e-09
-6.976668099e-10
1.197301325e-09
-7.075120945e-10
1.170225358e-09
-7.150299802e-10
1.140285653e-09
-7.198412327e-10
1.107271124e-09
-7.214437875e-10
1.0708883e-09
-7.191534436e-10
1.030735364e-09
-7.120103897e-10
9.86266068e-10
-6.986303423e-10
9.367403555e-10
-6.769694533e-10
8.81159836e-10
-6.439568046e-10
8.181922768e-10
-5.949119835e-10
7.461078703e-10
-5.225651665e-10
6.627404849e-10
-4.152457946e-10
5.653396634e-10
-2.527218221e-10
4.49484139e-10
3.084788196e-10
-7.454209345e-14
5.90840941e-11
-2.94523675e-13
1.728160544e-10
-6.34063134e-13
2.800330286e-10
-1.068072337e-12
3.808561874e-10
-1.564027545e-12
4.754633196e-10
-2.088152609e-12
5.640236405e-10
-2.605996086e-12
6.467067435e-10
-3.083594839e-12
7.236849418e-10
-3.488854957e-12
7.951304775e-10
-3.79259517e-12
8.612152143e-10
-3.968964586e-12
9.221098474e-10
-3.996377706e-12
9.779841214e-10
-3.857441398e-12
1.02900614e-09
-3.539612935e-12
1.075342664e-09
-3.034796734e-12
1.117158255e-09
-2.339646297e-12
1.154615632e-09
-1.455330537e-12
1.187874885e-09
-3.872822265e-13
1.217093134e-09
8.549645183e-13
1.242424305e-09
2.257992578e-12
1.264018316e-09
3.80476929e-12
1.282020769e-09
5.474896505e-12
1.296572144e-09
7.244755177e-12
1.307807273e-09
9.087763281e-12
1.315854566e-09
1.09743755e-11
1.320835409e-09
1.287228826e-11
1.322863201e-09
1.474627826e-11
1.322042605e-09
1.655820173e-11
1.318468491e-09
1.826692116e-11
1.312224725e-09
1.982783908e-11
1.303383573e-09
2.11927727e-11
1.29200315e-09
2.23090149e-11
1.27812653e-09
2.311878917e-11
1.26177885e-09
2.355803866e-11
1.242964839e-09
2.355481886e-11
1.221664572e-09
2.302731683e-11
1.197828827e-09
2.1880381e-11
1.171372294e-09
2.00016773e-11
1.142164356e-09
1.725639949e-11
1.110016402e-09
1.348075252e-11
1.074663946e-09
8.475282461e-12
1.035740834e-09
2.0009105e-12
9.927404397e-10
-6.216337287e-12
9.449576032e-10
-1.645453911e-11
8.913980378e-10
-2.889376019e-11
8.306314978e-10
-4.332045192e-11
7.60534562e-10
-5.837573137e-11
6.777957644e-10
-6.980392235e-11
5.767678545e-10
-6.58188703e-11
4.45499087e-10
2.426599493e-10
-1.439360706e-13
5.922803017e-11
-5.638361849e-13
1.732359545e-10
-1.226312216e-12
2.806955046e-10
-2.09677413e-12
3.817266493e-10
-3.133755955e-12
4.765003017e-10
-4.293988352e-12
5.65183873e-10
-5.533618261e-12
6.479463733e-10
-6.809495421e-12
7.24960819e-10
-8.080690472e-12
7.964016726e-10
-9.309301083e-12
8.624438249e-10
-1.046132807e-11
9.232618743e-10
-1.150726757e-11
9.790300608e-10
-1.242242909e-11
1.029921301e-09
-1.318710924e-11
1.076107344e-09
-1.378681504e-11
1.11775796e-09
-1.421190612e-11
1.155040723e-09
-1.445761668e-11
1.188120596e-09
-1.452388983e-11
1.217159407e-09
-1.441481686e-11
1.242315232e-09
-1.413862179e-11
1.26374212e-09
-1.370713367e-11
1.28158928e-09
-1.313556509e-11
1.296000575e-09
-1.244219085e-11
1.307113899e-09
-1.164816515e-11
1.31506054e-09
-1.077713443e-11
1.319964378e-09
-9.855124298e-12
1.321941191e-09
-8.910481004e-12
1.321097962e-09
-7.973775805e-12
1.317531786e-09
-7.077729825e-12
1.311328679e-09
-6.257160538e-12
1.302563003e-09
-5.549169529e-12
1.291295159e-09
-4.993348978e-12
1.277570709e-09
-4.631641516e-12
1.261417142e-09
-4.508575369e-12
1.242841773e-09
-4.671361968e-12
1.221827359e-09
-5.169807362e-12
1.198327273e-09
-6.056133441e-12
1.17225862e-09
-7.384400505e-12
1.143492623e-09
-9.209609988e-12
1.111841612e-09
-1.158578895e-11
1.077040126e-09
-1.456313647e-11
1.038718181e-09
-1.818214661e-11
9.963594499e-10
-2.246217577e-11
9.492376324e-10
-2.737481212e-11
8.963106742e-10
-3.278028487e-11
8.360369707e-10
-3.827464946e-11
7.660289266e-10
-4.27898758e-11
6.823109907e-10
-4.338972074e-11
5.773676993e-10
-3.203577289e-11
4.341451391e-10
2.106241764e-10
-2.10397901e-13
5.943842807e-11
-8.227119905e-13
1.738482686e-10
-1.796302618e-12
2.816690953e-10
-3.086689613e-12
3.830170364e-10
-4.643491829e-12
4.780571039e-10
-6.414099637e-12
5.669544808e-10
-8.345218156e-12
6.498774919e-10
-1.038452458e-11
7.270001256e-10
-1.248211093e-11
7.984992592e-10
-1.459131129e-11
8.645530255e-10
-1.666989104e-11
9.253404541e-10
-1.868028254e-11
9.810404523e-10
-2.059035978e-11
1.031831379e-09
-2.237323654e-11
1.077890221e-09
-2.400762804e-11
1.119392352e-09
-2.547761699e-11
1.156510712e-09
-2.677234458e-11
1.189415323e-09
-2.788586013e-11
1.218272922e-09
-2.881676458e-11
1.243246136e-09
-2.956782606e-11
1.264493182e-09
-3.014551124e-11
1.282166966e-09
-3.055970472e-11
1.29641477e-09
-3.08232837e-11
1.307377478e-09
-3.095187174e-11
1.315189128e-09
-3.096343621e-11
1.319975943e-09
-3.087814673e-11
1.321855902e-09
-3.071803085e-11
1.320937846e-09
-3.050713725e-11
1.317320892e-09
-3.02712132e-11
1.311092756e-09
-3.003774177e-11
1.302329532e-09
-2.983600516e-11
1.291093423e-09
-2.969724751e-11
1.277431952e-09
-2.965474772e-11
1.261374643e-09
-2.974369814e-11
1.242930724e-09
-3.000158967e-11
1.22208525e-09
-3.046800209e-11
1.198793685e-09
-3.118396353e-11
1.172974581e-09
-3.219085903e-11
1.144499519e-09
-3.352781021e-11
1.113178563e-09
-3.522648673e-11
1.078738802e-09
-3.730102797e-11
1.040792723e-09
-3.973011316e-11
9.987885353e-10
-4.242394209e-11
9.519314614e-10
-4.516489078e-11
8.990516228e-10
-4.750188593e-11
8.383739657e-10
-4.855910101e-11
7.670861417e-10
-4.667868202e-11
6.804305716e-10
-3.892386114e-11
5.696128784e-10
-2.184752812e-11
4.17068806e-10
1.887766482e-10
-2.733045176e-13
5.971173261e-11
-1.06838515e-12
1.746433493e-10
-2.337069337e-12
2.829377794e-10
-4.025528997e-12
3.847054959e-10
-6.07437917e-12
4.801059539e-10
-8.421681115e-12
5.693017828e-10
-1.100473703e-11
6.524605479e-10
-1.37619527e-11
7.297573411e-10
-1.663415219e-11
8.013714586e-10
-1.956576544e-11
8.674846387e-10
-2.250586169e-11
9.282805503e-10
-2.540856154e-11
9.839431523e-10
-2.823365714e-11
1.034656474e-09
-3.09467043e-11
1.080603268e-09
-3.351899819e-11
1.121964646e-09
-3.592754672e-11
1.158919261e-09
-3.815483225e-11
1.191642608e-09
-4.018832828e-11
1.220306419e-09
-4.202029442e-11
1.245078103e-09
-4.364720573e-11
1.266120094e-09
-4.50693997e-11
1.28358916e-09
-4.629060958e-11
1.297635979e-09
-4.731758618e-11
1.308404454e-09
-4.81595879e-11
1.31603113e-09
-4.882818719e-11
1.320644542e-09
-4.933708273e-11
1.322364797e-09
-4.97016277e-11
1.321302391e-09
-4.993877908e-11
1.317558043e-09
-5.006719491e-11
1.311221171e-09
-5.010694729e-11
1.302369284e-09
-5.007962933e-11
1.291066104e-09
-5.000835667e-11
1.277360679e-09
-4.991786573e-11
1.261284152e-09
-4.983441893e-11
1.242847277e-09
-4.978567847e-11
1.22203651e-09
-4.980023003e-11
1.198808237e-09
-4.990666583e-11
1.173081017e-09
-5.01319103e-11
1.144724763e-09
-5.049746902e-11
1.113544121e-09
-5.101331183e-11
1.079254645e-09
-5.166579287e-11
1.041445203e-09
-5.239677597e-11
9.995195182e-10
-5.306602681e-11
9.526007122e-10
-5.338679886e-11
8.993723949e-10
-5.281819135e-11
8.378053582e-10
-5.039812906e-11
7.646660794e-10
-4.455934045e-11
6.745917831e-10
-3.329634255e-11
5.583498806e-10
-1.606370169e-11
3.998361652e-10
1.727129466e-10
-3.321279213e-13
6.004386053e-11
-1.298531376e-12
1.756097527e-10
-2.843525535e-12
2.844827736e-10
-4.904541803e-12
3.867665123e-10
-7.41336452e-12
4.826147766e-10
-1.02989336e-11
5.721873516e-10
-1.348939699e-11
6.556510112e-10
-1.691397093e-11
7.331819151e-10
-2.050429828e-11
8.049617859e-10
-2.419599306e-11
8.711763334e-10
-2.792928797e-11
9.320138452e-10
-3.165003206e-11
9.876638964e-10
-3.530975405e-11
1.038316196e-09
-3.886626628e-11
1.08415978e-09
-4.228340422e-11
1.125381784e-09
-4.55309247e-11
1.162166781e-09
-4.858431667e-11
1.194696001e-09
-5.142447064e-11
1.223146573e-09
-5.403716175e-11
1.247690794e-09
-5.641257503e-11
1.268495507e-09
-5.854495011e-11
1.285721535e-09
-6.043205308e-11
1.299523082e-09
-6.207475499e-11
1.310047156e-09
-6.347659765e-11
1.317432973e-09
-6.464350719e-11
1.321811452e-09
-6.55834797e-11
1.32330477e-09
-6.630650983e-11
1.322025421e-09
-6.682409825e-11
1.318075632e-09
-6.714966849e-11
1.311546741e-09
-6.729805392e-11
1.30251767e-09
-6.728583048e-11
1.291053881e-09
-6.713090034e-11
1.277205749e-09
-6.685271289e-11
1.261005964e-09
-6.647204469e-11
1.242466609e-09
-6.601036734e-11
1.221574832e-09
-6.54890574e-11
1.198286927e-09
-6.492785238e-11
1.172519812e-09
-6.434200941e-11
1.14413892e-09
-6.373769261e-11
1.112939805e-09
-6.310371075e-11
1.078620663e-09
-6.239767504e-11
1.040739168e-09
-6.152234583e-11
9.98644189e-10
-6.028748155e-11
9.513658478e-10
-5.835075846e-11
8.974356717e-10
-5.513732949e-11
8.345919292e-10
-4.97623641e-11
7.592911141e-10
-4.107150716e-11
6.659009261e-10
-2.815557821e-11
5.454339516e-10
-1.213214141e-11
3.838127283e-10
1.605808051e-10
-3.863929843e-13
6.043025351e-11
-1.511051328e-12
1.76734411e-10
-3.311053404e-12
2.862827756e-10
-5.715723235e-12
3.89171182e-10
-8.648379338e-12
4.855474327e-10
-1.202927432e-11
5.755682466e-10
-1.577776375e-11
6.593995007e-10
-1.981411446e-11
7.372182659e-10
-2.406118365e-11
8.092088552e-10
-2.844592218e-11
8.75561072e-10
-3.290005801e-11
9.364679812e-10
-3.736119321e-11
9.921250316e-10
-4.177299429e-11
1.042727997e-09
-4.608547115e-11
1.088472257e-09
-5.02551428e-11
1.129551455e-09
-5.424474783e-11
1.166156386e-09
-5.802303348e-11
1.198474286e-09
-6.156437934e-11
1.226687919e-09
-6.484834963e-11
1.250974764e-09
-6.785925607e-11
1.271506413e-09
-7.058566049e-11
1.288447939e-09
-7.301988104e-11
1.301957302e-09
-7.515754094e-11
1.312184816e-09
-7.69972775e-11
1.319272709e-09
-7.854036767e-11
1.323354542e-09
-7.979022742e-11
1.32455463e-09
-8.075265265e-11
1.322987846e-09
-8.143519856e-11
1.318758178e-09
-8.184742119e-11
1.311958964e-09
-8.200061725e-11
1.302670866e-09
-8.190780247e-11
1.290961067e-09
-8.15834503e-11
1.276881397e-09
-8.10434453e-11
1.260465959e-09
-8.030467591e-11
1.241727839e-09
-7.938424988e-11
1.220654406e-09
-7.829837672e-11
1.197201053e-09
-7.70604032e-11
1.171281839e-09
-7.567741927e-11
1.142755936e-09
-7.414486934e-11
1.111407255e-09
-7.243684507e-11
1.076912639e-09
-7.049114211e-11
1.038793465e-09
-6.818444786e-11
9.963374948e-10
-6.529605376e-11
9.484774539e-10
-6.146066388e-11
8.936002819e-10
-5.612495759e-11
8.292562228e-10
-4.85582939e-11
7.517244504e-10
-3.803888897e-11
6.553815212e-10
-2.445768384e-11
5.318527463e-10
-9.710135777e-12
3.690651803e-10
1.508706694e-10
-4.356678696e-13
6.086592138e-11
-1.704043412e-12
1.780027866e-10
-3.73547917e-12
2.883142115e-10
-6.451837729e-12
3.918875407e-10
-9.768581594e-12
4.888641767e-10
-1.359784583e-11
5.793975111e-10
-1.785066097e-11
6.636523159e-10
-2.243886543e-11
7.418064702e-10
-2.727709705e-11
8.140470866e-10
-3.228395153e-11
8.805679266e-10
-3.738328886e-11
9.415673185e-10
-4.250469862e-11
9.972464413e-10
-4.758440796e-11
1.047807707e-09
-5.256518029e-11
1.093453029e-09
-5.739649027e-11
1.134382765e-09
-6.203442534e-11
1.170794321e-09
-6.644148878e-11
1.20288135e-09
-7.058602018e-11
1.23083245e-09
-7.444192753e-11
1.254830672e-09
-7.798816025e-11
1.275052646e-09
-8.120827546e-11
1.291668055e-09
-8.408991416e-11
1.304838942e-09
-8.662434018e-11
1.314719242e-09
-8.880607628e-11
1.321454445e-09
-9.06326634e-11
1.325181129e-09
-9.210422701e-11
1.326026193e-09
-9.322327748e-11
1.324106897e-09
-9.399460714e-11
1.319529507e-09
-9.442510984e-11
1.312389467e-09
-9.452362211e-11
1.302769378e-09
-9.430074555e-11
1.29073819e-09
-9.376857118e-11
1.276349222e-09
-9.294046299e-11
1.259637851e-09
-9.183038449e-11
1.24061776e-09
-9.045200921e-11
1.219276031e-09
-8.881736721e-11
1.195566411e-09
-8.69344127e-11
1.169398884e-09
-8.480343403e-11
1.140624958e-09
-8.241050967e-11
1.10901433e-09
-7.971780873e-11
1.074219938e-09
-7.664760703e-11
1.035723263e-09
-7.305923011e-11
9.927491179e-10
-6.871816629e-11
9.4413639e-10
-6.326695047e-11
8.881490661e-10
-5.622116053e-11
8.222104328e-10
-4.704471296e-11
7.425480026e-10
-3.539777156e-11
6.437345798e-10
-2.169366355e-11
5.181486385e-10
-8.112213768e-12
3.554837305e-10
1.427584556e-10
-4.795550988e-13
6.13454765e-11
-1.875904607e-12
1.793991361e-10
-4.113311421e-12
2.905516183e-10
-7.106940516e-12
3.948811697e-10
-1.076515913e-11
4.925223953e-10
-1.49926725e-11
5.836250243e-10
-1.96928439e-11
6.683524871e-10
-2.476988376e-11
7.468835102e-10
-3.013082295e-11
8.194080259e-10
-3.568663934e-11
8.861237428e-10
-4.13538219e-11
9.472345009e-10
-4.705483298e-11
1.002947452e-09
-5.271880667e-11
1.05347168e-09
-5.828193383e-11
1.099016157e-09
-6.368732646e-11
1.139788158e-09
-6.888505667e-11
1.175992052e-09
-7.383180454e-11
1.207828098e-09
-7.849060109e-11
1.235491247e-09
-8.283033004e-11
1.259170401e-09
-8.682529256e-11
1.279047609e-09
-9.045470026e-11
1.295297462e-09
-9.370214224e-11
1.308086383e-09
-9.655536056e-11
1.317572461e-09
-9.900560469e-11
1.323904689e-09
-1.010473448e-10
1.327222869e-09
-1.026781399e-10
1.327656988e-09
-1.038980622e-10
1.325326819e-09
-1.047098007e-10
1.320341246e-09
-1.051182931e-10
1.312797959e-09
-1.051304773e-10
1.302781563e-09
-1.047551269e-10
1.290362839e-09
-1.040025859e-10
1.275596681e-09
-1.028841874e-10
1.258519452e-09
-1.014115625e-10
1.239145135e-09
-9.959568274e-11
1.217460151e-09
-9.744515502e-11
1.193415884e-09
-9.496369444e-11
1.166917424e-09
-9.214588038e-11
1.137807144e-09
-8.897040528e-11
1.105838856e-09
-8.53901467e-11
1.070639679e-09
-8.131636163e-11
1.031649478e-09
-7.659852437e-11
9.880312804e-10
-7.100232242e-11
9.385401879e-10
-6.41998911e-11
8.813466347e-10
-5.57993704e-11
8.138099122e-10
-4.545823021e-11
7.322068626e-10
-3.313937403e-11
6.314157236e-10
-1.957657096e-11
5.045858353e-10
-6.996909998e-12
3.429040696e-10
1.357615456e-10
-5.177299389e-13
6.186320644e-11
-2.025373382e-12
1.809067796e-10
-4.441855159e-12