/*--------------------------------*- C++ -*----------------------------------*\
  =========                 |
  \\      /  F ield         | OpenFOAM: The Open Source CFD Toolbox
   \\    /   O peration     | Website:  https://openfoam.org
    \\  /    A nd           | Version:  7
     \\/     M anipulation  |
\*---------------------------------------------------------------------------*/
FoamFile
{
    version     2.0;
    format      ascii;
    class       volScalarField;
    location    "0.0012";
    object      rho;
}
// * * * * * * * * * * * * * * * * * * * * * * * * * * * * * * * * * * * * * //

dimensions      [1 -3 0 0 0 0 0];

internalField   nonuniform List<scalar> 
1167
(
950.7020686
950.6759226
950.5898869
950.563314
950.5063978
950.4223607
950.3130633
950.1801501
950.0252565
949.8499166
949.6554072
949.4430712
949.2144701
948.9706085
948.7126404
948.4419719
948.1593301
947.8659787
947.5627471
947.2505739
946.9303578
946.6028111
946.2688317
945.9289841
945.5841095
945.2347357
944.8815803
944.5251725
944.166099
943.8049729
943.4422325
943.0785981
942.7143466
942.350351
941.9868028
941.6245538
941.2638769
940.905528
940.5499293
940.1976948
939.8493126
939.5052791
939.1661292
938.8322213
938.5040269
938.1817559
937.8656968
937.55594
937.2525407
936.9554679
936.664422
936.3793172
950.4785052
950.4514337
950.3934513
950.3078357
950.1964756
950.061078
949.903344
949.724605
949.5262744
949.3098455
949.076638
948.8277107
948.5644543
948.2878684
947.9989491
947.6989177
947.388393
947.0686565
946.7401151
946.4039501
946.0605036
945.7108611
945.3552977
944.9948328
944.6296949
944.2607452
943.8883503
943.5131784
943.1357709
942.756586
942.3764043
941.9955414
941.6149056
941.2348613
940.8562351
940.4796919
940.1058763
939.7356864
939.3696344
939.0088263
938.6536639
938.3051574
937.9637089
937.6300999
937.3046285
936.9878205
936.6796232
936.3802758
936.089326
935.8067186
950.3678048
950.3401556
950.2809371
950.1934899
950.0797473
949.9415628
949.7803654
949.5976479
949.3948555
949.1735967
948.9348873
948.6800146
948.4103306
948.1266378
947.8302649
947.5219565
947.2027529
946.8734245
946.5348054
946.1875939
945.8325213
945.4701553
945.101251
944.7261537
944.3457183
943.9601549
943.5702637
943.1763976
942.779112
942.3790922
941.9767037
941.5728193
941.1679152
940.7627513
940.3582904
939.9551444
939.5544659
939.1571541
938.7642626
938.377118
937.9966238
937.6242139
937.2608483
936.9077415
936.5657547
936.2356816
935.918036
935.6130769
935.3206602
935.0404949
950.25767
950.2293567
950.1687163
950.0791754
949.9628178
949.8212401
949.6560321
949.4686951
949.2608641
949.0337721
948.7886069
948.5268442
948.2494033
947.9573986
947.6519401
947.3337478
947.003943
946.6630106
946.3119886
945.9512465
945.5816376
945.2035813
944.8176515
944.4243947
944.0240871
943.6175199
943.2048311
942.786589
942.3633555
941.9354582
941.5036226
941.0684095
940.6304257
940.1906703
939.7499118
939.3091233
938.8696779
938.4327988
937.9998949
937.5728007
937.1531749
936.7428634
936.3440489
935.9584146
935.5879943
935.2343677
934.898856
934.5823345
934.2850685
934.0066798
950.1479894
950.1189181
950.056701
949.9648631
949.8453449
949.6998756
949.5300577
949.337503
949.1237154
948.8898588
948.6373141
948.3673364
948.0807926
947.7790672
947.462744
947.1329643
946.7902636
946.435599
946.0693187
945.69233
945.3048098
944.9075002
944.5006155
944.0845325
943.6597826
943.2264573
942.7849983
942.3357974
941.8790574
941.415242
940.9449315
940.4685192
939.9866613
939.500286
939.0102643
938.5177007
938.0239773
937.5308674
937.0402044
936.5541857
936.0753734
935.6068482
935.151603
934.7130081
934.2947231
933.8999362
933.5316729
933.1924173
932.8833989
932.6049423
950.03873
950.0088415
949.9448255
949.8502535
949.7271419
949.5772402
949.4021758
949.2037017
948.9829889
948.7413463
948.480335
948.2007525
947.9038331
947.5905118
947.2616051
946.9179759
946.560219
946.1889854
945.8047989
945.4079845
944.9991759
944.5783784
944.1460059
943.7022728
943.247211
942.7810786
942.3040444
941.8161162
941.3174555
940.8084183
940.2892115
939.7601284
939.2216676
938.6744991
938.1195838
937.5579393
936.990999
936.4205491
935.8488277
935.2786292
934.7133579
934.1571272
933.6147002
933.0915545
932.5937918
932.1278777
931.7004642
931.3171886
930.9825403
930.6986164
949.9298009
949.8989455
949.8328562
949.7352
949.6080294
949.4531128
949.2722656
949.0668764
948.8382736
948.5879362
948.3169934
948.0264144
947.7174826
947.3907029
947.0472572
946.6873901
946.3120573
945.921389
945.515946
945.0959795
944.6615386
944.2129796
943.7501681
943.2730595
942.7817044
942.2759988
941.7557156
941.2207215
940.6709103
940.1063077
939.5267598
938.9323063
938.3231244
937.6995222
937.062043
936.4115043
935.7490413
935.076295
934.3954744
933.7095046
933.0222776
932.3388396
931.6655829
931.0105629
930.3835553
929.7961581
929.2614039
928.7927923
928.4027902
928.0999729
949.8210288
949.7890906
949.7206787
949.6195645
949.4878375
949.3274027
949.1398997
948.9267038
948.6892364
948.4289536
948.1467033
947.8437717
947.5208767
947.1789167
946.8184286
946.4400965
946.0440796
945.6310369
945.2008313
944.7536288
944.2895333
943.8082362
943.3095533
942.7933309
942.2591507
941.7065464
941.135066
940.5442465
939.9336042
939.3026086
938.6508084
937.9777872
937.2831447
936.566692
935.8282869
935.0680834
934.2865343
933.484478
932.663552
931.8259316
930.9749194
930.1154217
929.2544725
928.401654
927.5703782
926.7787321
926.0500101
925.4131491
924.9006018
924.5428507
949.712331
949.6791862
949.6081873
949.5032187
949.3664724
949.1998487
949.0048301
948.7828764
948.5355778
948.2639299
947.9690319
947.6519659
947.3133123
946.9539558
946.5742017
946.1745315
945.7551837
945.3161194
944.8575391
944.3791291
943.8805707
943.3614993
942.8215864
942.2600657
941.6762609
941.0694096
940.4387005
939.7832403
939.1020585
938.3941893
937.658602
936.8942559
936.1000972
935.2752216
934.4185863
933.5292032
932.606534
931.6499479
930.6592967
929.6348399
928.5778966
927.490753
926.3778877
925.2469293
924.1104269
922.9888937
921.9153762
920.9410278
920.141309
919.6168448
949.6036363
949.5691513
949.495286
949.3860826
949.2438278
949.0702088
948.8668249
948.6352428
948.3768018
948.0924289
947.7834533
947.4503659
947.0941319
946.7149348
946.3135249
945.8897193
945.443693
944.9754301
944.4844707
943.9704218
943.4328453
942.87102
942.2840714
941.6710795
941.0310015
940.3627209
939.6649848
938.9364426
938.1756872
937.3811682
936.5514921
935.684726
934.7790763
933.8328815
932.8438713
931.8102338
930.7294569
929.5992355
928.4171222
927.1803682
925.8860978
924.5314979
923.1139139
921.6317679
920.0853829
918.4808715
916.8370118
915.2016007
913.687749
912.5569492
949.4988942
949.4634741
949.3875958
949.2754303
949.1290762
948.9503242
948.740741
948.5020227
948.2350894
947.9411226
947.6210836
947.2755569
946.9052213
946.5103523
946.0910895
945.6476515
945.1796664
944.6868385
944.1688719
943.6249677
943.0543445
942.4560798
941.8291323
941.1722995
940.4842938
939.7636881
939.0089115
938.218331
937.3901262
936.5226714
935.6136519
934.6610007
933.6624544
932.6154344
931.5172249
930.3648873
929.1548734
927.8834461
926.5461087
925.137538
923.6512972
922.0792521
920.410734
918.6314065
916.7209318
914.6487954
912.3670957
909.7972825
906.8043529
903.1499091
949.3970493
949.3610763
949.283928
949.1697217
949.0206198
948.8383853
948.6246933
948.3808871
948.1079539
947.8071824
947.4790868
947.1245125
946.7436398
946.3370391
945.9044481
945.4459007
944.961189
944.4496841
943.9107872
943.3437478
942.7477115
942.121546
941.4640248
940.7738271
940.04955
939.2896791
938.4925516
937.6563543
936.7792038
935.8592768
934.8942901
933.8820907
932.8201596
931.7061747
930.5370713
929.3097582
928.0209144
926.6666407
925.2424228
923.7430104
922.162305
920.4925064
918.7243554
916.8457603
914.8410821
912.6899912
910.3651099
907.8299949
905.0350792
901.9110621
949.2937442
949.2571035
949.1784936
949.062071
948.9099887
948.7239978
948.5058361
948.2565236
947.9772302
947.6690078
947.3323267
946.9679772
946.5760348
946.1567533
945.7101014
945.2357155
944.7332561
944.2022391
943.6417844
943.0510203
942.4289164
941.7743288
941.0859575
940.3624392
939.6022573
938.8038113
937.9655286
937.0856482
936.1622126
935.1934391
934.1771715
933.1114173
931.9938614
930.8221504
929.5937982
928.306119
926.9562078
925.5408932
924.0565983
922.4992172
920.8645093
919.1471329
917.3412546
915.4399721
913.435259
911.31784
909.0770507
906.7007779
904.1753951
901.4843936
949.1887678
949.1513746
949.0711296
948.9522351
948.7968359
948.6068126
948.3835443
948.1281469
947.8419054
947.5254335
947.1794808
946.8043491
946.4004333
945.9675165
945.5056643
945.0144604
944.4933074
943.9415496
943.3583869
942.7429161
942.0939567
941.4102831
940.6905918
939.9336117
939.1377398
938.3014636
937.4231257
936.5013425
935.5341324
934.5199506
933.4568047
932.3432007
931.1770638
929.9564626
928.6795169
927.3442876
925.9486115
924.4903628
922.9673418
921.3772519
919.7176064
917.9859478
916.1798195
914.296588
912.3338338
910.2894601
908.1615058
905.9488673
903.6508944
901.2673037
949.0820378
949.0438093
948.9617546
948.8401298
948.6811488
948.4865993
948.2577235
947.9957516
947.7018236
947.3763861
947.020353
946.6336812
946.216769
945.7694145
945.2913181
944.7821922
944.2413998
943.6681243
943.0614991
942.4205141
941.7440656
941.0309236
940.2798326
939.4894111
938.6583185
937.785256
936.8685949
935.9070156
934.8990275
933.8432221
932.7380804
931.5824229
930.3747611
929.113738
927.7982126
926.4269456
924.9988433
923.5130192
921.9683887
920.3643519
918.7003085
916.976115
915.1916324
913.3473357
911.4442936
909.4840697
907.4689994
905.4022997
903.2876881
901.1289562
948.9734767
948.934333
948.8502977
948.725704
948.5628769
948.3633069
948.1283348
947.8593223
947.5569837
947.222065
946.8550046
946.4561039
946.0252304
945.5625383
945.0674794
944.5395551
943.978134
943.3824842
942.7516946
942.0847014
941.3803943
940.6376851
939.8553919
939.0321974
938.1668856
937.2583025
936.3052819
935.3065117
934.2610271
933.1676637
932.0254752
930.833577
929.5911991
928.297698
926.9525852
925.5555355
924.1063755
922.605053
921.0520084
919.4477962
917.7933975
916.0900044
914.3395533
912.544219
910.7068994
908.8310318
906.920693
904.9804541
903.0151575
901.029323
948.8630112
948.8228751
948.7366938
948.6090279
948.4418895
948.2369
947.9954502
947.7187727
947.4074173
947.0623555
946.6835883
946.2716602
945.8262724
945.3472383
944.834391
944.2870067
943.7044096
943.0858224
942.4303476
941.7370221
941.0047946
940.2326308
939.4194152
938.5642436
937.6660001
936.7236134
935.7364353
934.7033187
933.6237481
932.4970027
931.3225902
930.1001252
928.8294673
927.5107034
926.1439588
924.729691
923.2685358
921.7614995
920.2099615
918.615331
916.9798715
915.3057159
913.5957248
911.8533899
910.0823364
908.2867735
906.4713012
904.6407141
902.799684
900.9523225
948.7505721
948.7094067
948.6210394
948.4899089
948.3181479
948.1073565
947.8590755
947.5741295
947.2533592
946.8973589
946.5064141
946.0805662
945.6199602
945.1241277
944.5926772
944.0250665
943.4207227
942.7787598
942.0983336
941.3785302
940.6185203
939.8173777
938.9741218
938.0879222
937.1581834
936.1840403
935.1650127
934.1004802
932.990343
931.8342918
930.6323009
929.3845288
928.091485
926.753777
925.3722146
923.9479411
922.4822637
920.9771
919.4342534
917.8561951
916.2455521
914.6054232
912.9390747
911.2505637
909.5437813
907.8230919
906.0930404
904.3582064
902.6227312
900.8900529
948.6362309
948.5939481
948.5031248
948.3683035
948.1916235
947.974786
947.7191368
947.4254402
947.0947516
946.7272083
946.3234802
945.8832902
945.4066361
944.8933923
944.342935
943.7547428
943.1281891
942.4625516
941.7570729
941.0109446
940.2234159
939.3937024
938.5213296
937.6055299
936.6458451
935.6420049
934.5936596
933.5007191
932.3634508
931.181989
929.9567738
928.6885653
927.378356
926.0272353
924.6366603
923.2082669
921.7441016
920.2464399
918.7176781
917.1608405
915.5788505
913.975256
912.3535979
910.7180412
909.0724179
907.4210309
905.7681847
904.1177679
902.4733845
900.8380657
948.5198101
948.476324
948.3829008
948.2441752
948.0622975
947.8391417
947.575667
947.2729222
946.931679
946.5522855
946.135012
945.6799862
945.186925
944.6555732
944.0855962
943.4764429
942.8274738
942.1380605
941.4075369
940.635333
939.8209045
938.9636013
938.0630076
937.1190331
936.1312459
935.0998262
934.0246981
932.9063276
931.7452505
930.5420697
929.2977033
928.013428
926.6906265
925.3309078
923.9361906
922.5085387
921.0505124
919.5646458
918.0538107
916.5212743
914.9702146
913.404252
911.8270941
910.2426654
908.6547643
907.0674788
905.4843873
903.9092101
902.3448174
900.7936288
948.4012335
948.3564816
948.2603238
948.1174946
947.9303394
947.7003778
947.4287134
947.116566
946.7642743
946.372584
945.9413981
945.4709381
944.9610662
944.4113942
943.8215665
943.1911483
942.5196323
941.8065046
941.0512335
940.2533785
939.4125124
938.5285415
937.6011653
936.630395
935.6164509
934.5595779
933.460201
932.3192844
931.1375477
929.9160779
928.6562977
927.3598486
926.0284666
924.6642306
923.2693636
921.8463713
920.3980797
918.9272804
917.4370494
915.9307778
914.4117892
912.8836078
911.3500474
909.8145482
908.2809932
906.7527127
905.2333378
903.7255789
902.2322362
900.7549532
948.2804484
948.2343728
948.135356
947.9883399
947.795576
947.5585216
947.27848
946.9564249
946.5928548
946.1882989
945.7429212
945.2566577
944.7294667
944.1611705
943.5513341
942.8995929
942.2055553
941.4688299
940.6890787
939.8662401
938.9999545
938.090218
937.1373641
936.141488
935.1032405
934.0230947
932.902059
931.7412399
930.541808
929.3052508
928.0334045
926.7281967
925.391744
924.0264426
922.6347781
921.2195436
919.7837063
918.3303228
916.8625286
915.3836728
913.8971783
912.4064023
910.9150056
909.4262345
907.9434605
906.470023
905.008669
903.5620908
902.1323535
900.7208085
948.157406
948.109954
948.0080382
947.8566765
947.6580144
947.4136105
947.1249557
946.7926166
946.4175001
945.9997184
945.5397651
945.0375203
944.4928656
943.9056404
943.2756288
942.6025606
941.8861842
941.1262576
940.3226543
939.4753095
938.5844392
937.6503045
936.6732275
935.6540078
934.5932818
933.4920599
932.3517389
931.1735911
929.9592086
928.7104985
927.4295749
926.1186135
924.7800854
923.4165713
922.0308334
920.6257947
919.2045401
917.7702536
916.3260333
914.8751714
913.4210794
911.9669689
910.5160582
909.0716384
907.6366426
906.2138529
904.8059428
903.4150574
902.0428057
900.690318
920.0631196
918.6579832
917.2439231
915.8239645
914.401297
912.9790429
911.560553
910.1486159
908.7461362
907.3558427
905.9803256
904.6216716
903.2817332
901.9618344
900.6628371
)
;

boundaryField
{
    front_top
    {
        type            wedge;
    }
    front_middle
    {
        type            wedge;
    }
    front_bottom
    {
        type            wedge;
    }
    back_top
    {
        type            wedge;
    }
    back_middle
    {
        type            wedge;
    }
    back_bottom
    {
        type            wedge;
    }
    axis_top
    {
        type            symmetryPlane;
    }
    axis_middle
    {
        type            symmetryPlane;
    }
    axis_bottom
    {
        type            symmetryPlane;
    }
    wall_top
    {
        type            calculated;
        value           nonuniform List<scalar> 10(936.2383904 935.6681654 934.9050573 933.8755046 932.4794228 930.580732 927.9923853 924.4491212 919.5421444 912.5091722);
    }
    wall_middle
    {
        type            calculated;
        value           uniform 900.0184441;
    }
    wall_bottom
    {
        type            calculated;
        value           nonuniform 0();
    }
    inlet
    {
        type            calculated;
        value           nonuniform 0();
    }
    outlet
    {
        type            calculated;
        value           nonuniform 0();
    }
    procBoundary5to4
    {
        type            processor;
        value           nonuniform List<scalar> 
51
(
948.0321026
947.9832934
947.8783752
947.7224203
947.5176705
947.2658497
946.9681704
946.6253913
946.2383258
945.8072352
945.3323013
944.8137973
944.2515424
943.6454145
942.9952871
942.3010186
941.5625026
940.77969
939.9527759
939.0819488
938.1674911
937.2100692
936.2103839
935.169371
934.0880546
932.9679648
931.810541
930.6174847
929.3907133
928.1324794
926.845109
925.5310444
924.1929899
922.8336704
921.4560582
921.4560582
919.5295833
918.1417572
916.7485551
915.353161
913.9585129
912.5676137
911.183406
909.808633
908.4459735
907.0977556
905.7661609
904.4530658
903.1600396
901.8880987
900.6378794
)
;
    }
    procBoundary5to6
    {
        type            processor;
        value           nonuniform List<scalar> 
51
(
950.8152374
950.789417
950.6199186
950.6199186
950.5372301
950.4296927
950.2989303
950.1464692
949.9739291
949.7826458
949.5738738
949.3489802
949.1093408
948.8558906
948.5899374
948.3125104
948.0244986
947.7271633
947.421071
947.1074414
946.7867669
946.4601102
946.1279543
945.7912208
945.4503647
945.1062403
944.759202
944.4100799
944.0591376
943.7072375
943.3545352
943.0019132
942.6494754
942.2980347
941.9477719
941.5993625
941.253049
940.9094171
940.56875
940.2315264
939.89799
939.5685365
939.2433659
938.9227878
938.6068704
938.2958583
937.9896123
937.6883381
937.3916965
937.0998977
936.8124112
)
;
    }
}


// ************************************************************************* //
