/*--------------------------------*- C++ -*----------------------------------*\
  =========                 |
  \\      /  F ield         | OpenFOAM: The Open Source CFD Toolbox
   \\    /   O peration     | Website:  https://openfoam.org
    \\  /    A nd           | Version:  7
     \\/     M anipulation  |
\*---------------------------------------------------------------------------*/
FoamFile
{
    version     2.0;
    format      ascii;
    class       volScalarField;
    location    "0.0012";
    object      thermo:mu;
}
// * * * * * * * * * * * * * * * * * * * * * * * * * * * * * * * * * * * * * //

dimensions      [1 -1 -1 0 0 0 0];

internalField   nonuniform List<scalar> 
1167
(
417276.4138
415589.8062
410094.3583
408413.7806
404840.4547
399629.2284
392965.3565
385031.3214
376014.2041
366095.506
355439.1775
344207.3421
332564.5508
320636.3168
308545.6383
296415.07
284324.7535
272367.4718
260606.716
249100.7923
237897.1564
227028.6312
216527.0216
206407.1358
196686.8462
187370.1904
178462.6115
169961.3377
161862.4932
154160.4854
146844.2858
139907.1945
133332.9177
127115.2862
121235.5967
115685.8131
110448.4805
105513.3758
100865.4584
96492.50435
92380.90502
88517.60293
84890.41083
81485.82002
78292.18008
75296.02839
72485.5681
69848.14423
67371.83852
65045.04492
62855.16874
60792.32516
403102.2811
401423.3937
397854.2003
392649.8162
385995.9598
378077.9927
369085.9128
359189.2338
348559.6395
337366.6663
325761.7004
313873.47
301835.714
289751.9862
277714.903
265814.8321
254107.4024
242663.7615
231514.0105
220707.3152
210257.9254
200197.1549
190526.8911
181265.2407
172405.4222
163953.45
155900.7186
148243.3075
140972.5359
134076.8057
127549.0826
121373.2092
115542.0445
110039.1434
104854.5864
99975.54264
95388.7482
91083.83464
87045.84346
83266.47286
79730.01794
76427.36909
73343.93886
70469.33343
67789.66044
65293.88004
62967.41144
60799.12891
58774.10999
56881.59092
396287.0165
394605.3178
391030.7276
385819.3356
379158.6959
371242.129
362243.8622
352343.1212
341713.552
330530.4604
318930.3183
307053.8503
295032.8386
282962.9562
270951.3157
259069.3433
247389.9771
235966.046
224843.8886
214057.29
203634.0423
193590.984
183944.7718
174696.7416
165857.123
157417.4831
149380.1169
141735.2248
134475.4647
127593.9336
121076.7841
114917.3134
109101.3428
103618.1612
98458.61117
93608.18864
89058.36064
84796.77774
80812.35368
77096.16182
73634.83073
70419.79749
67438.27741
64679.96488
62132.23559
59782.81882
57618.48988
55625.58326
53789.30798
52095.58966
389636.3505
387947.1874
384357.3527
379125.5409
372447.4953
364501.8269
355472.8447
345541.078
334890.6766
323678.4359
312051.2628
300159.2879
288115.5936
276031.1772
264004.7709
252108.6607
240419.8923
228982.8587
217852.289
207053.2538
196619.091
186564.2328
176902.5154
167642.3471
158782.2119
150328.7595
142271.8255
134608.0922
127331.6032
120430.6578
113898.58
107724.3844
101896.5995
96407.54397
91245.06608
86398.41057
81859.78081
77618.29293
73663.81334
69988.81706
66583.00904
63436.86028
60542.63477
57888.51772
55465.2545
53260.91855
51262.90581
49457.28649
47828.40545
46359.19203
383139.0293
381437.6128
377825.1332
372563.7153
365840.9097
357843.9181
348759.0242
338773.9489
328067.268
316794.5404
305113.8161
293166.4236
281065.7887
268935.8154
256856.0491
244917.2915
233177.4261
221699.7605
210518.95
199679.5003
189197.6025
179099.639
169392.889
160085.0002
151183.0193
142681.5222
134579.8646
126873.7024
119553.5243
112612.4905
106043.4226
99834.81836
93977.29973
88462.92083
83281.1553
78422.31853
73877.58868
69639.5609
65699.12307
62048.10156
58678.97958
55585.71919
52759.77738
50193.6309
47880.32035
45809.79525
43971.59782
42353.66006
40939.88486
39712.75528
376788.9506
375072.773
371426.867
366114.2768
359327.5686
351256.5635
342090.8412
332027.2758
321230.0088
309865.0265
298100.8563
286060.9559
273877.7349
261659.1074
249497.3516
237475.6454
225657.5005
214099.3198
202844.9867
191925.4865
181373.7177
171200.4735
161422.5337
152047.4973
143075.9629
134510.3343
126348.4437
118583.3381
111208.9559
104220.0478
97607.30152
91361.06442
85472.47677
79932.62935
74733.37321
69864.80779
65318.38701
61085.75
57159.0538
53531.18691
50195.61907
47146.57407
44378.43251
41886.05634
39664.51441
37708.43289
36012.13235
34566.18451
33358.76889
32372.7885
370577.0296
368838.6774
365146.4316
359767.3777
352897.3286
344729.3116
335465.1642
325285.9513
314367.7718
302887.8028
290998.0869
278834.2964
266534.0434
254192.2881
241919.1264
229779.742
217854.4062
206187.2344
194828.2543
183810.9755
173158.0204
162894.3514
153028.7502
143568.9856
134521.4319
125886.5908
117660.8174
109840.2975
102419.7851
95393.90026
88753.29383
82489.48777
76593.72252
71056.63321
65868.92569
61021.24326
56504.07666
52308.53289
48426.00158
44848.33382
41568.36259
38579.88334
35877.66229
33457.96779
31318.20725
29457.18585
27874.37484
26568.52871
25536.02138
24766.60664
364490.1122
362724.5137
358975.2525
353514.2826
346541.2919
338259.247
328864.1663
318540.9436
307474.6762
295845.4815
283797.901
271485.9085
259028.7851
246542.241
234117.6395
221841.2061
209772.5822
197978.195
186493.2818
175355.7668
164595.5768
154228.1765
144268.3759
134727.8094
125610.0695
116915.9295
108644.5484
100793.1188
93356.88023
86329.03794
79702.29629
73468.19557
67616.96615
62139.05767
57023.51208
52259.60017
47836.2833
43742.27502
39967.44682
36500.69476
33331.8506
30452.16864
27854.52074
25533.08255
23485.2053
21711.59101
20216.28162
19007.59184
18096.12623
17490.3014
358520.7929
356722.7914
352905.7634
347347.364
340255.1574
331835.2743
322280.4516
311785.2418
300547.6287
288732.3457
276501.4118
264005.7594
251365.8136
238702.8631
226106.5856
213663.1896
201441.5199
189494.4469
177874.0774
166612.5616
155737.3955
145270.6571
135230.8772
125625.0687
116459.8189
107738.1247
99460.35766
91624.10223
84224.59641
77255.81053
70709.77474
64577.23753
58847.67198
53510.32277
48552.19453
43959.56282
39719.6472
35817.5783
32238.93935
28968.89722
25993.69117
23299.33049
20873.61942
18706.21778
16789.55551
15120.60181
13703.22087
12550.64868
11689.4429
11162.4991
352662.6882
350826.9451
346931.3738
341262.0192
334034.3525
325448.2729
315708.3097
305020.0675
293576.1659
281545.9433
269107.8125
256396.1005
243553.646
230683.9056
217899.6355
205273.1778
192880.0696
180781.5285
169020.355
157635.7355
146660.3125
136116.2034
126019.3306
116381.9897
107211.9148
98513.50201
90287.35838
82531.27326
75240.89238
68409.07233
62028.53188
56086.53377
50570.76215
45468.53961
40763.03241
36439.14799
32478.22684
28862.4043
25573.12439
22591.03272
19896.78343
17471.46994
15296.6476
13355.31122
11631.87282
10114.44282
8796.776098
7683.194353
6798.852212
6216.698702
347120.5185
345268.845
341339.8551
335624.8191
328330.9857
319666.2934
309837.1381
299058.7122
287509.3404
275374.8112
262823.5157
249999.9384
237042.3379
224064.1947
211165.1949
198437.7205
185948.2527
173758.6472
161923.317
150478.9006
139458.0532
128886.3019
118783.2262
109162.478
100033.5714
91401.52068
83267.34322
75629.31812
68481.99417
61819.58669
55629.26552
49899.05586
44614.40912
39758.21017
35312.22699
31256.98917
27571.04637
24233.05283
21220.58701
18510.94008
16081.37068
13909.12127
11971.55008
10246.4152
8711.677726
7345.243195
6124.884454
5028.261752
4033.21408
3120.344931
341826.5689
339978.6974
336053.9583
330338.3578
323042.2863
314373.008
304543.0854
293753.217
282188.0216
270040.5004
257464.7563
244619.7561
231630.48
218625.7968
205697.7064
192939.2651
180427.4369
168220.8539
156372.858
144927.2515
133920.1202
123377.575
113320.2853
103763.7699
94718.84966
86191.54895
78183.15683
70690.77859
63708.45748
57228.14668
51236.32127
45718.6863
40657.36923
36034.20237
31826.97207
28013.34127
24570.21674
21473.3532
18698.12553
16219.98143
14014.864
12058.75725
10328.92047
8803.229568
7460.751566
6282.017566
5248.896361
4345.084652
3556.040909
2868.897253
336550.4554
334701.4346
330773.412
325052.0429
317747.3172
309066.8829
299227.4972
288417.71
276833.3441
264660.7606
252056.9192
239183.0713
226165.5371
213128.1432
200175.9017
187395.6028
174866.8296
162657.2839
150818.5411
139396.6233
128428.6087
117944.2206
107965.7542
98510.01118
89587.42955
81203.49431
73359.98543
66053.03504
59273.97277
53012.40897
47252.64572
41977.66465
37166.7342
32797.54897
28846.18166
25287.39458
22095.16074
19243.08296
16704.65643
14453.65243
12465.07873
10714.26165
9178.076372
7834.605699
6663.42078
5645.681979
4764.161478
4003.237875
3348.823211
2788.010144
331283.8022
329430.5159
325493.1407
319757.5318
312433.7236
303736.5818
293868.4372
283025.6557
271411.9715
259199.9848
246562.2677
233647.0912
220597.3482
207526.9168
194549.6569
181756.0687
169224.1423
157022.8554
145210.3802
133835.5414
122935.4767
112540.826
102675.2463
93356.96761
84594.64559
76393.22076
68751.3985
61665.48106
55122.77419
49110.17955
43608.45544
38598.14396
34054.51546
29951.95115
26263.68986
22961.90458
20017.93158
17403.436
15090.49527
13051.92945
11261.52198
9694.514426
8327.649973
7139.137668
6108.965781
5218.842791
4452.022144
3793.465072
3229.533965
2747.91331
326025.2119
324164.8747
320212.4969
314454.7279
307105.5757
298377.1668
288468.6574
277584.9202
265927.259
253666.6832
240986.6409
228028.3624
214940.5236
201842.9264
188844.1822
176043.9203
163523.5595
151352.2886
139590.3737
128287.4115
117483.8334
107210.8515
97492.37357
88343.95936
79775.23001
71789.75154
64382.28481
57545.046
51263.90478
45520.97214
40294.06355
35559.42738
31289.35093
27454.95324
24026.72246
20974.11332
18266.78284
15875.00958
13769.43224
11922.41636
10307.50022
8900.055367
7676.938757
6617.016217
5700.999502
4911.311107
4232.120241
3649.241958
3149.923834
2722.723837
320773.7462
318903.9273
314931.5365
309145.2759
301765.1898
292992.1941
283033.4602
272102.8851
260388.8649
248079.2544
235345.1045
222345.4734
209217.1472
196096.4848
183089.5439
170295.2837
157799.9096
145677.819
133990.4189
122787.5756
112109.9955
101990.1869
92450.90021
83505.46495
75161.00855
67417.90925
60269.54277
53702.25854
47699.41366
42238.3417
37293.69748
32837.16559
28838.43063
25265.87099
22087.25242
19270.29373
16783.14794
14594.81845
12675.99276
10998.67022
9536.743593
8265.869839
7163.908254
6210.491219
5387.286644
4677.777404
4067.20679
3542.422964
3091.739478
2704.756064
315528.8719
313647.48
309650.749
303836.3678
296411.4608
287585.9472
277572.6699
266584.1034
254807.4903
242444.2339
229655.2655
216613.5957
203455.8761
190313.981
177309.5068
164539.1066
152091.1207
140041.2975
128452.6765
117376.9796
106854.5663
96916.33097
87582.66693
78867.16237
70772.339
63293.5346
56421.95376
50138.59664
44423.03107
39248.62252
34586.08716
30403.61161
26668.11099
23345.73996
20402.11888
17803.67697
15517.72539
13513.14775
11760.57438
10232.2251
8902.86433
7748.895648
6749.115561
5884.447695
5137.605414
4493.250255
3937.771605
3459.121542
3046.652681
2690.968017
310290.4297
308397.4121
304378.0808
298523.2675
291047.6054
282163.2814
272093.0817
261037.5673
249200.8513
236775.6834
223938.9121
210852.5372
197672.5134
184526.6965
171535.2462
158803.2244
146423.1189
134469.2227
123005.492
112083.1884
101743.3325
92014.2213
82913.0413
74448.70432
66622.51298
59424.62532
52840.60084
46848.29704
41422.8588
36533.52228
32147.4161
28229.82291
24745.43396
21658.2847
18932.84747
16534.81417
14431.18926
12591.22832
10985.66903
9587.861773
8373.212434
7319.483912
6406.522666
5616.513031
4933.353586
4342.890885
3832.644145
3391.643854
3010.218471
2679.879893
305064.7856
303157.8339
299107.4839
293208.2602
285677.2817
276734.3369
266598.2364
255472.7631
243575.3414
231088.0934
218206.7361
205088.1859
191889.5477
178752.5903
165794.3661
153122.8541
140830.7243
128995.6264
117681.4575
106938.3028
96804.33287
87304.91162
78456.89881
70262.82217
62718.31562
55811.15978
49520.60488
43821.03418
38683.06679
34072.34959
29952.92095
26287.8894
23039.87758
20171.53079
17646.82508
15431.10876
13491.85353
11798.57804
10322.96722
9039.439646
7924.45471
6957.078582
6118.418613
5391.870878
4762.517208
4217.376373
3745.042154
3335.460166
2979.876889
2670.665014
299846.9297
297924.093
293840.5289
287893.9934
280304.5366
271302.5207
261095.8266
249904.9394
237942.1859
225403.1484
212475.9091
199335.5336
186134.9681
173016.7464
160108.0375
147516.999
135335.9694
123643.0839
112501.1617
101959.8528
92054.63484
82806.24245
74225.57787
66314.43934
59061.00118
52449.04918
46452.68372
41042.88013
36185.64824
31843.69854
27978.621
24551.71449
21524.07364
18857.77281
16516.56881
14466.02085
12674.29336
11111.60584
9750.855174
8567.582054
7539.535883
6647.01165
5872.446125
5200.35559
4617.037457
4110.587424
3670.476124
3287.632142
2954.052237
2662.818837
294636.7993
292697.342
288579.1038
282583.4294
274940.9363
265871.3134
255593.7979
244340.3862
232313.666
219728.7476
206767.1387
193612.0596
180424.3886
167345.8435
154505.0395
142013.3111
129964.4812
118435.982
107488.7341
97169.04869
87508.00184
78525.67268
70226.21065
62604.75902
55647.1911
49330.33895
43624.8533
38498.12544
33911.82087
29826.39913
26201.71001
22997.48095
20173.94728
17693.13935
15518.91908
13617.59671
11958.12133
10511.79315
9252.712819
8157.676615
7205.785049
6378.54461
5659.710117
5034.804997
4491.337787
4018.23502
3605.998672
3246.203274
2931.660235
2656.012595
289435.4985
287479.0277
283325.3847
277283.8817
269583.8422
260446.9758
250105.3848
238787.3461
226707.2674
214078.5828
201096.3638
187939.6975
174776.0581
161754.452
149002.044
136630.962
124735.0644
113390.2802
102655.581
92575.95328
83175.95774
74469.30392
66458.48064
59131.34233
52469.47356
46444.35517
41023.6829
36170.07033
31842.82259
28000.3535
24601.12204
21603.80225
18968.46408
16657.31523
14634.75822
12868.02098
11327.04535
9984.466504
8815.614526
7798.527359
6913.679634
6143.759878
5473.685749
4890.073645
4381.335626
3937.410552
3549.449023
3209.847413
2911.96532
2650.02121
284244.4007
282270.86
278084.7765
271997.8015
264238.0219
255035.8767
244635.3483
233255.8073
221131.5905
208468.058
195475.4278
182334.6747
169213.9462
156264.4098
143618.0965
131386.9926
119663.9536
108522.4354
98018.37763
88189.97475
79061.09202
70639.6802
62920.15878
55888.36997
49518.49128
43779.02217
38633.92436
34041.9474
29960.51046
26346.65727
23157.68756
20351.78749
17889.32694
15732.91785
13847.90879
12202.51792
10767.88699
9517.985628
8429.401455
7481.454083
6655.910816
5936.623395
5309.484691
4762.24059
4284.136144
3865.850001
3499.336205
3177.569216
2894.443949
2644.684827
11609.04841
10269.92587
9102.972551
8086.040008
7199.684423
6426.773713
5752.429575
5163.435704
4648.404524
4197.438434
3801.972651
3454.522677
3148.638422
2878.710239
2639.886324
)
;

boundaryField
{
    front_top
    {
        type            wedge;
    }
    front_middle
    {
        type            wedge;
    }
    front_bottom
    {
        type            wedge;
    }
    back_top
    {
        type            wedge;
    }
    back_middle
    {
        type            wedge;
    }
    back_bottom
    {
        type            wedge;
    }
    axis_top
    {
        type            symmetryPlane;
    }
    axis_middle
    {
        type            symmetryPlane;
    }
    axis_bottom
    {
        type            symmetryPlane;
    }
    wall_top
    {
        type            calculated;
        value           nonuniform List<scalar> 10(59801.677 55979.60036 51299.03793 45685.1141 39173.62898 31973.42393 24499.79539 17335.53838 11089.75188 6193.43977);
    }
    wall_middle
    {
        type            calculated;
        value           uniform 2530.329233;
    }
    wall_bottom
    {
        type            calculated;
        value           nonuniform 0();
    }
    inlet
    {
        type            calculated;
        value           nonuniform 0();
    }
    outlet
    {
        type            calculated;
        value           nonuniform 0();
    }
    procBoundary5to4
    {
        type            processor;
        value           nonuniform List<scalar> 
51
(
279066.7739
277079.1255
272861.0027
266725.7083
258908.4064
249650.1354
239189.6962
227759.3997
215595.8008
202914.1892
189920.1
176808.9601
163748.7865
150891.9723
138371.3055
126298.5211
114764.7648
103840.9428
93580.5169
84016.86278
75166.50099
67033.35697
59607.03795
52866.90033
46783.16297
41321.25037
36440.35112
32097.31373
28247.81604
24847.8887
21854.12765
19224.8058
16920.76274
14905.33445
13144.98898
13144.98898
11077.57437
9824.447826
8731.839468
7779.056977
6947.74481
6221.904625
5587.574914
5032.56213
4546.308576
4119.604325
3744.503982
3414.123002
3122.508351
2864.472288
2635.537529
)
;
    }
    procBoundary5to6
    {
        type            processor;
        value           nonuniform List<scalar> 
51
(
424666.9373
422967.7116
412003.1609
412003.1609
406771.7419
400080.8442
392112.9368
383049.8421
373079.3834
362369.4151
351077.6943
339359.9018
327361.3212
315194.1543
302977.661
290805.8835
278756.0503
266909.9595
255311.3029
244020.0474
233060.9976
222471.8862
212264.6691
202459.7943
193059.0223
184071.5067
175489.7961
167315.9028
159536.1735
152148.8743
145135.8253
138492.7506
132199.6657
126249.3126
120623.14
115310.8676
110295.5218
105565.5554
101105.4677
96902.90029
92943.07644
89213.75265
85701.13464
82393.42316
79277.13541
76341.43435
73572.75421
70961.63666
68494.78596
66164.46272
63957.81612
)
;
    }
}


// ************************************************************************* //
