/*--------------------------------*- C++ -*----------------------------------*\
  =========                 |
  \\      /  F ield         | OpenFOAM: The Open Source CFD Toolbox
   \\    /   O peration     | Website:  https://openfoam.org
    \\  /    A nd           | Version:  7
     \\/     M anipulation  |
\*---------------------------------------------------------------------------*/
FoamFile
{
    version     2.0;
    format      ascii;
    class       volScalarField;
    location    "0.0012";
    object      generalizedNewtonian:nu;
}
// * * * * * * * * * * * * * * * * * * * * * * * * * * * * * * * * * * * * * //

dimensions      [0 2 -1 0 0 0 0];

internalField   nonuniform List<scalar> 
1167
(
2.528440423
2.513283846
2.521773729
2.501694326
2.482337466
2.459667671
2.433215143
2.403667918
2.371485408
2.337068923
2.30082391
2.263149549
2.224402483
2.184913146
2.145000786
2.104894822
2.064826687
2.024932633
2.392219983
2.37772126
2.385755249
2.366754058
2.348356577
2.32687349
2.301822118
2.273847462
2.243410424
2.21089767
2.176693844
2.141165269
2.104660062
2.067506661
2.029972045
1.992300127
1.954673323
1.917249736
1.880114917
1.843313914
1.806846946
1.770670453
1.734687368
1.69875631
1.66269856
1.626289349
1.589261517
1.551309615
1.512077118
1.471170073
1.428152617
1.382554895
1.333893559
1.281686562
1.225513859
1.165104742
1.100442092
1.031888698
0.9603109902
0.8870655505
0.8138710804
0.742536923
0.6746740601
0.6114699091
0.5536244545
0.5013796584
0.4546353956
0.4130669329
0.3762033574
0.3434550332
2.259447184
2.24561592
2.253243431
2.235305794
2.217901698
2.197611387
2.173984189
2.147615914
2.11894971
2.088357061
2.056201495
2.022833317
1.988596192
1.953769987
1.918621199
1.883368238
1.848188229
1.813204988
1.778515114
1.744147701
1.710091802
1.676301825
1.642686126
1.609110425
1.575398391
1.541334403
1.506665551
1.471099686
1.434303632
1.395912914
1.355515282
1.312670014
1.266922815
1.217834655
1.165018686
1.10822225
1.047434862
0.982997096
0.9157017506
0.8468053738
0.7778864961
0.7106255619
0.6465221786
0.5867017299
0.5318411864
0.4821919669
0.4376856192
0.3980380169
0.3628201331
0.3314869212
2.130421883
2.117266881
2.124495317
2.107609982
2.09121048
2.072116598
2.049902208
2.025137047
1.998237632
1.969558174
1.939445312
1.908238268
1.876235498
1.843717634
1.810930293
1.778068549
1.74529461
1.712729168
1.68043958
1.64845484
1.616769142
1.585325454
1.554029699
1.522750478
1.491321955
1.459540247
1.42716698
1.393921881
1.359490832
1.323526972
1.285649246
1.24545142
1.202506274
1.15640195
1.106787992
1.053434934
0.996328628
0.9357940964
0.8725567305
0.8077751415
0.7429045642
0.6795038449
0.6189708562
0.5623724933
0.5103607008
0.4631965466
0.4208392504
0.3830415761
0.3494133133
0.3194513926
2.005427541
1.992933853
1.99977959
1.983939729
1.968517294
1.950613231
1.929794102
1.906599776
1.881437647
1.854643129
1.826538968
1.797438283
1.767628736
1.737378997
1.706894439
1.676377799
1.645957497
1.615744731
1.585806046
1.556153094
1.526771452
1.497608351
1.468573627
1.439535542
1.410333011
1.380768865
1.350617729
1.319617704
1.287475974
1.253861942
1.218417282
1.180759938
1.140503199
1.097260455
1.050703517
1.000630231
0.9470278127
0.8901932106
0.8308029685
0.7699174729
0.7088847038
0.6491450707
0.5920068551
0.5384800921
0.4891919285
0.4444108498
0.4041206604
0.3681072547
0.3360167417
0.3073854612
1.884727447
1.87288551
1.879369052
1.864537979
1.850066542
1.833311569
1.813851168
1.79218797
1.768711578
1.743738705
1.717576089
1.690521222
1.662846555
1.634781182
1.606540584
1.578281163
1.550145101
1.522215981
1.494544522
1.46714873
1.440005767
1.413056784
1.386207674
1.359336203
1.332289222
1.304876262
1.276881244
1.24805517
1.218120351
1.186771772
1.153674017
1.118467282
1.080786922
1.040284395
0.9966537294
0.9497039706
0.8994345878
0.8461139627
0.7903719932
0.7331802688
0.6757878541
0.6195263994
0.5656211954
0.5150259932
0.4683457247
0.4258535963
0.3875550444
0.3532652218
0.3226646208
0.2953264993
1.768589846
1.757390048
1.763523762
1.749646451
1.736099423
1.72043499
1.702269697
1.682071478
1.660208411
1.636979426
1.612682095
1.587590225
1.561948393
1.535985461
1.509883141
1.483799095
1.457842492
1.432103749
1.406616914
1.381386291
1.356388943
1.331570027
1.306831073
1.282051993
1.2570814
1.231739768
1.205823589
1.179097163
1.151296912
1.122132697
1.091290688
1.058441535
1.023240449
0.9853595177
0.9445269108
0.9005607746
0.8534620288
0.8034838423
0.7512026542
0.6975181348
0.6435813535
0.5906284768
0.5398062289
0.4920136185
0.4478344501
0.4075443698
0.3711675524
0.3385456241
0.3093908461
0.2833112516
1.657282775
1.646700167
1.65247684
1.639506894
1.626827709
1.612204169
1.595257916
1.576438336
1.556098944
1.534522486
1.511983417
1.488737501
1.465025483
1.441046537
1.416973402
1.392943461
1.369064383
1.345399453
1.32198426
1.298820258
1.275874567
1.253084585
1.230358244
1.207581788
1.184605561
1.161257567
1.137340027
1.112629323
1.086882131
1.05982334
1.031155325
1.000567046
0.9677463095
0.9323833319
0.8942235974
0.853106829
0.8090286468
0.7622301314
0.713238285
0.6628869998
0.6122360718
0.562435237
0.5145566541
0.4694479793
0.4276715028
0.389503523
0.3549838846
0.3239785295
0.2962289347
0.2713758814
1.551034622
1.541042109
1.546464838
1.534351061
1.522470605
1.508812557
1.493005874
1.475472547
1.456548763
1.436505429
1.415601904
1.394084498
1.37217029
1.350042254
1.3278681
1.305763037
1.28382452
1.262113209
1.240647599
1.219424578
1.198414461
1.177549002
1.156736261
1.135860758
1.11478006
1.093333967
1.0713309
1.048556383
1.024776345
0.9997351597
0.9731559611
0.9447434293
0.9142020556
0.8812523114
0.8456523134
0.8072561283
0.7660610856
0.7222886101
0.6764274396
0.6292469379
0.5817256648
0.5349333279
0.4898692067
0.4473350556
0.4078706929
0.3717513213
0.3390293381
0.3095932226
0.2832111585
0.2595547022
1.450074262
1.440644716
1.445725486
1.434390001
1.423253165
1.41046524
1.395699857
1.379344205
1.361717498
1.343080201
1.323685841
1.303753818
1.28348705
1.263071432
1.242639654
1.22231554
1.202174993
1.182267002
1.162615201
1.143205488
1.124000085
1.104932306
1.085916215
1.066835547
1.047550783
1.027905036
1.007716816
0.9867875252
0.9648901826
0.9417804443
0.9171979341
0.8908711134
0.862517731
0.8318766338
0.7987276984
0.7629298668
0.7244870773
0.6835991353
0.6407218288
0.5965615498
0.5520255509
0.5081083093
0.4657408217
0.4256807324
0.3884452276
0.3543067783
0.3233282156
0.2954182052
0.2703696189
0.2478830712
1.354631365
1.345738247
1.350465052
1.339836385
1.329369183
1.317374339
1.303539806
1.288241115
1.271784858
1.254420216
1.236378655
1.217875084
1.199108486
1.180233479
1.161390887
1.142677491
1.124176112
1.105921107
1.087924367
1.070176993
1.052638188
1.035237525
1.017887116
1.000475177
0.9828706921
0.964919653
0.9464469553
0.9272597943
0.9071480639
0.8858796913
0.8632050946
0.8388682542
0.8126089463
0.7841770615
0.7533716378
0.720058977
0.6842428929
0.6461079003
0.6060765208
0.5647986266
0.523115971
0.4819497186
0.4421702947
0.4044920305
0.3694094126
0.3371892227
0.3079040542
0.2814800198
0.2577324266
0.236389081
1.264924351
1.256526236
1.260896448
1.25091117
1.241024005
1.229726441
1.216718091
1.202352818
1.186927562
1.170681888
1.153836669
1.136606568
1.119161893
1.101661327
1.084226949
1.066958055
1.049916152
1.033141327
1.016639723
1.000394073
0.9843618784
0.9684785001
0.9526555645
0.9367818419
0.9207285407
0.9043487834
0.8874782809
0.8699299738
0.851500588
0.8319717476
0.811109891
0.7886685806
0.764404225
0.7380843515
0.7095152452
0.678577549
0.6452690306
0.6097641902
0.5724485386
0.5339246508
0.4949723069
0.4564438962
0.4191529815
0.3837719823
0.3507724082
0.3204141038
0.2927775325
0.2678043991
0.245330996
0.2251109862
1.181161069
1.173220998
1.177239803
1.167815467
1.15843477
1.147727549
1.135428589
1.121866507
1.107329026
1.092049795
1.076244569
1.060106405
1.043807677
1.027498043
1.011289188
0.995273947
0.9795130593
0.9640337321
0.9488441975
0.9339288257
0.919239374
0.9047102055
0.8902561745
0.8757731157
0.8611349945
0.8461979942
0.8308017244
0.8147728077
0.7979163679
0.7800210026
0.7608660789
0.740221049
0.7178507125
0.693541119
0.6671058375
0.638433606
0.6075196056
0.5745266588
0.5398065673
0.5039182708
0.4675808363
0.4315854691
0.3966911228
0.3635297644
0.3325481637
0.3039993822
0.2779690814
0.2544119172
0.2331825361
0.2140582963
1.103565407
1.096048022
1.099714286
1.090767741
1.081812721
1.071601591
1.05988825
1.046994513
1.03319966
1.018727897
1.003785178
0.9885614451
0.9732264463
0.9579123442
0.9427378505
0.927782171
0.9131023445
0.8987289004
0.884663792
0.8708876299
0.857358383
0.8440117786
0.8307626323
0.8175074186
0.8041283456
0.7904897534
0.7764345087
0.7617937802
0.7463844702
0.7300067009
0.7124465679
0.6934870528
0.6729065885
0.6504985934
0.6260912816
0.5995739991
0.5709440872
0.5403464539
0.5081064285
0.4747408717
0.4409112871
0.4073520067
0.3747697822
0.3437569041
0.3147354111
0.2879505056
0.2634917161
0.2413258274
0.2213257212
0.2032919041
1.032384492
1.025241861
1.028551988
1.020010841
1.011388973
1.001571677
0.9903273471
0.9779660398
0.9647602788
0.9509289752
0.9366760095
0.9221877962
0.9076189068
0.8931095959
0.8787615247
0.864664268
0.8508636795
0.8373875764
0.8242460981
0.8114154641
0.798852808
0.7864977117
0.7742721048
0.7620742767
0.7497899216
0.737287199
0.7244215386
0.7110292291
0.6969322683
0.6819420067
0.665856817
0.6484651001
0.6295614979
0.6089463424
0.586457058
0.5619860326
0.5355297732
0.5072167207
0.4773473267
0.4463952798
0.414971558
0.3837559894
0.3534056178
0.3244724332
0.2973549203
0.2722880912
0.2493621852
0.2285520224
0.2097438852
0.1927579359
0.9678731621
0.9610603373
0.9640203271
0.9558043004
0.9474321096
0.9378992328
0.9270011037
0.9150337096
0.9022639277
0.8889097629
0.8751716825
0.8612248169
0.8472307496
0.8333182655
0.8195953694
0.8061383963
0.7930052332
0.7802184117
0.7677844932
0.7556878213
0.74388828
0.732326898
0.7209268396
0.7095950008
0.6982239323
0.6866857401
0.6748404634
0.6625352197
0.6496004966
0.6358529661
0.6211030372
0.6051494983
0.5877929225
0.568848137
0.5481550615
0.5256133516
0.5012120165
0.4750683761
0.4474579782
0.4188131665
0.3896977319
0.3607396574
0.3325470655
0.3056334298
0.2803732165
0.2569908914
0.2355779087
0.2161193157
0.198518671
0.182617218
0.9103433356
0.9038144466
0.9064346131
0.8984561893
0.8902498653
0.8808983174
0.8702195542
0.8585053427
0.8460180555
0.8329712532
0.8195610787
0.8059664425
0.7923445678
0.7788214982
0.7655068368
0.7524777246
0.7397857742
0.7274650903
0.7155210121
0.7039377955
0.692680443
0.6816990555
0.6709188851
0.660252174
0.6495958865
0.6388335762
0.627831124
0.6164408257
0.6045036208
0.5918460866
0.5782837891
0.5636293915
0.5476894297
0.5302879036
0.5112700072
0.4905388475
0.4680768533
0.4439899172
0.4185256156
0.3920806442
0.3651730816
0.3383817635
0.3122670698
0.287305725
0.2638466921
0.2421002712
0.2221527288
0.2039897271
0.1875199346
0.1725983916
0.8601860829
0.853890935
0.8561726492
0.8483523526
0.8402178058
0.8309419244
0.8203588517
0.808753994
0.7963870076
0.7834721682
0.7702058518
0.7567674528
0.7433073589
0.7299616017
0.7168314522
0.7040016677
0.6915248925
0.6794344789
0.667744175
0.6564420962
0.6454972598
0.634862415
0.6244732794
0.6142494589
0.6040927548
0.5938919862
0.5835249131
0.5728515568
0.5617186843
0.5499645489
0.5374138054
0.5238853076
0.5091990083
0.493182466
0.4756902941
0.4566240184
0.4359639753
0.4138030868
0.3903634322
0.3660076766
0.3412106939
0.3165020735
0.2923977645
0.2693378478
0.2476465894
0.2275228046
0.2090538681
0.1922375538
0.1770033032
0.1632261548
0.8178950545
0.8117755388
0.8137293862
0.8059838316
0.7978260907
0.7885117205
0.7778926647
0.7662480148
0.7538363699
0.7408758799
0.7275624422
0.7140717857
0.7005630625
0.6871669436
0.6739942923
0.6611251727
0.6486227622
0.6365229327
0.6248414209
0.6135741107
0.6026988349
0.5921728265
0.581937782
0.5719223983
0.5620392009
0.5521833706
0.5422393422
0.5320796569
0.5215596799
0.5105242277
0.4988114177
0.4862460826
0.472657874
0.4578800398
0.4417727015
0.4242361059
0.4052468011
0.3848807268
0.3633374043
0.3409459676
0.3181395383
0.2954024648
0.2732087361
0.2519622615
0.2319593853
0.2133784473
0.1962911126
0.1806811523
0.1664659618
0.1535244322
0.7841320273
0.778127511
0.7797719585
0.7720021228
0.7637252194
0.754252246
0.7434545397
0.7316110795
0.7189811404
0.7057830156
0.6922131069
0.6784537587
0.6646658025
0.6509817574
0.6375177683
0.6243585789
0.6115679628
0.5991938216
0.5872548943
0.5757525015
0.5646720138
0.5539813047
0.5436282677
0.533549386
0.5236659434
0.5138857881
0.5041006669
0.4941909893
0.4840265186
0.4734603575
0.4623392193
0.4505011099
0.4377821869
0.4240259426
0.4090952662
0.3928936121
0.3753929187
0.3566551971
0.3368587966
0.3163014938
0.2953754275
0.2745225587
0.2541757923
0.2347050616
0.2163843985
0.1993842834
0.1837844399
0.169592596
0.1567614437
0.1451902475
0.759827021
0.7538702973
0.7552128918
0.7473169885
0.73880831
0.7290482991
0.7179203099
0.7057035792
0.6926615955
0.6790158965
0.6649680892
0.6507084312
0.6363944459
0.6221711251
0.6081532108
0.5944376578
0.5810916487
0.5681674364
0.5556963733
0.5436853167
0.532127483
0.5209992964
0.5102607923
0.4998566804
0.4897178834
0.4797632697
0.4698968818
0.4600087745
0.4499786774
0.4396731218
0.4289466561
0.4176492038
0.4056232881
0.392720159
0.3788038963
0.3637778768
0.3476042911
0.3303302971
0.3121108782
0.2932115172
0.2739878283
0.2548435531
0.2361743978
0.2183159365
0.2015102051
0.1858950994
0.1715130229
0.1583264222
0.1462393378
0.1351378554
0.7462775166
0.7402859061
0.7413396525
0.733202
0.7243250215
0.7141217862
0.7024818132
0.6896870687
0.6760076687
0.6616710989
0.6468887628
0.6318505083
0.6167237645
0.6016613126
0.5867825224
0.5721908995
0.5579635905
0.5441582275
0.5308142447
0.5179487272
0.5055626275
0.4936408733
0.4821544794
0.4710586474
0.4602947653
0.4497923026
0.4394690883
0.4292267764
0.418957018
0.4085409045
0.3978449922
0.3867314135
0.3750547801
0.3626747329
0.3494619885
0.3353219446
0.3202108847
0.3041639822
0.2873158068
0.2699023558
0.2522455234
0.2347130948
0.2176676079
0.2014197306
0.1862006706
0.1721572385
0.159365272
0.1478468532
0.1375804435
0.1284748788
0.745452108
0.7393189333
0.7400967248
0.7315684819
0.7221680479
0.7113308331
0.6989640138
0.6853526573
0.6707771408
0.6554758755
0.6396670213
0.6235491143
0.6073020628
0.5910836248
0.5750254795
0.5592373091
0.5438079508
0.5288028365
0.5142700127
0.5002374538
0.4867153179
0.4736986198
0.4611688523
0.4490927442
0.4374231629
0.4261016599
0.4150589511
0.404209841
0.3934591881
0.3827015294
0.3718162587
0.3606768511
0.3491479115
0.3370951439
0.3243914537
0.3109380081
0.2966788929
0.281629398
0.2658970275
0.2496858564
0.2332854693
0.2170328242
0.2012609715
0.1862487378
0.1721864823
0.1591630655
0.1471723249
0.1361281758
0.1258904034
0.1163304683
0.7537080057
0.754217151
0.7450988086
0.7349506214
0.7232208944
0.7098215394
0.6950560088
0.6792195359
0.6625620891
0.6453147304
0.6276895187
0.6098794521
0.5920510272
0.5743482296
0.5568899636
0.5397752
0.5230783447
0.5068571529
0.4911477952
0.4759699139
0.4613283251
0.4472147315
0.4336055057
0.4204657237
0.4077503485
0.3954021842
0.3833520623
0.3715217641
0.3598215035
0.3481494112
0.3363969375
0.3244442119
0.3121714991
0.299460531
0.2862146667
0.2723730954
0.2579366328
0.2429907457
0.2277134564
0.2123672311
0.1972660842
0.1827294366
0.1690385574
0.1564111745
0.1449984578
0.1348991586
0.1261743026
0.1188439307
0.1128065621
)
;

boundaryField
{
    front_top
    {
        type            wedge;
    }
    front_middle
    {
        type            wedge;
    }
    front_bottom
    {
        type            wedge;
    }
    back_top
    {
        type            wedge;
    }
    back_middle
    {
        type            wedge;
    }
    back_bottom
    {
        type            wedge;
    }
    axis_top
    {
        type            symmetryPlane;
    }
    axis_middle
    {
        type            symmetryPlane;
    }
    axis_bottom
    {
        type            symmetryPlane;
    }
    wall_top
    {
        type            calculated;
        value           nonuniform 0();
    }
    wall_middle
    {
        type            calculated;
        value           nonuniform List<scalar> 
23
(
0.3287295754
0.3173817578
0.3059494793
0.2944708659
0.2829844432
0.2715279733
0.2601385497
0.2488511681
0.2377024437
0.2267202053
0.2159456952
0.2053845402
0.195107988
0.1850442151
0.1753917674
0.165811427
0.1569572266
0.1476250097
0.1399197821
0.1300607235
0.1243367738
0.1119407679
0.1101241743
)
;
    }
    wall_bottom
    {
        type            calculated;
        value           nonuniform 0();
    }
    inlet
    {
        type            calculated;
        value           nonuniform 0();
    }
    outlet
    {
        type            calculated;
        value           nonuniform 0();
    }
    procBoundary3to2
    {
        type            processor;
        value           nonuniform List<scalar> 
51
(
0.7600905765
0.7600905765
0.7880818148
0.7882926392
0.778319791
0.7671248228
0.7541648497
0.7393540553
0.7230203674
0.7054835914
0.6870167472
0.6678720688
0.6482812148
0.628455418
0.6085766322
0.58880328
0.5692683824
0.5500804021
0.5313250594
0.5130704078
0.4953580896
0.4782168683
0.4616612465
0.445686428
0.4302787283
0.4154131106
0.4010526407
0.3871502435
0.3736507663
0.3604891184
0.3475892645
0.3348681294
0.3222309222
0.3095759676
0.2967949321
0.2837784626
0.270426041
0.2566636043
0.2424624828
0.2278679941
0.213016784
0.1981345185
0.1835096333
0.1694414545
0.156179799
0.1438758414
0.1325590261
0.1221471604
0.1124797312
0.1033636376
0.09466192356
)
;
    }
    procBoundary3to4
    {
        type            processor;
        value           nonuniform List<scalar> 
51
(
2.667820737
2.652019627
2.661007347
2.639883338
2.61959046
2.595780683
2.567992417
2.53691141
2.503030022
2.466763925
2.42853328
2.388742388
2.347783732
2.306010242
2.263726443
2.221223844
2.17870592
2.136353904
1.985329938
1.985329938
1.946078494
1.907170075
1.868563157
1.83016605
1.791835013
1.753384276
1.714576071
1.675126894
1.634713648
1.592961047
1.549449213
1.503717823
1.455263152
1.40355815
1.348088114
1.288401454
1.224200483
1.155455972
1.082565246
1.006462195
0.9286194964
0.8509056068
0.7752704759
0.7034439025
0.6366812851
0.5757040942
0.520744164
0.4716657322
0.4280995417
0.3895294912
0.3553185417
)
;
    }
}


// ************************************************************************* //
