/*--------------------------------*- C++ -*----------------------------------*\
  =========                 |
  \\      /  F ield         | OpenFOAM: The Open Source CFD Toolbox
   \\    /   O peration     | Website:  https://openfoam.org
    \\  /    A nd           | Version:  7
     \\/     M anipulation  |
\*---------------------------------------------------------------------------*/
FoamFile
{
    version     2.0;
    format      ascii;
    class       volTensorField;
    location    "0.0012";
    object      grad(U);
}
// * * * * * * * * * * * * * * * * * * * * * * * * * * * * * * * * * * * * * //

dimensions      [0 0 -1 0 0 0 0];

internalField   nonuniform List<tensor> 
1167
(
(-10.88268866 -1.601432046e-13 0.6371314348 2.087007846e-13 -17.89264755 0 0.5268554967 8.81176145e-15 29.605075)
(-14.41347992 7.939975869e-15 1.478148883 2.13961455e-13 -15.59927699 0 1.274266545 -1.192140502e-13 29.53296115)
(-14.14039058 3.556161153e-14 2.400765092 4.397957754e-14 -14.8700592 0 2.011392002 1.086697172e-13 29.3880216)
(-14.32766512 -5.875755411e-14 3.31886451 3.229615427e-14 -14.72039556 0 2.763188042 6.801290931e-14 29.17375207)
(-14.16020727 -1.445703807e-13 4.212243975 1.033077947e-13 -14.62043967 4.132311789e-13 3.479976326 -8.707176072e-14 28.89533942)
(-13.90858493 -8.622917482e-14 5.085814909 4.345407235e-14 -14.51624941 -3.476325788e-13 4.15976251 4.674928623e-14 28.55682782)
(-13.62045208 8.823792845e-14 5.942944339 3.780570658e-14 -14.40546807 0 4.801628141 1.172659056e-13 28.16142899)
(-13.2894102 8.866265647e-14 6.78341109 3.368851956e-14 -14.28567514 0 5.40215693 1.547370509e-13 27.71229117)
(-12.91713841 3.608405543e-14 7.60793945 3.056250849e-14 -14.15557715 -2.445000679e-13 5.958740539 1.644001876e-13 27.21238453)
(-12.50729404 3.539099094e-14 8.417939121 2.811510839e-14 -14.01495874 0 6.469552461 1.311149741e-13 26.66435335)
(-12.06232676 8.785728169e-15 9.21495455 2.615286525e-14 -13.86401847 0 6.933121251 7.570145697e-14 26.07057278)
(-11.58409458 -5.542847792e-14 10.00056782 2.454963728e-14 -13.70310286 0 7.348270702 8.728411801e-14 25.43320182)
(-11.07426477 -8.571322159e-14 10.7763829 0 -13.53262283 0 7.714147099 1.024385405e-13 24.75423682)
(-10.53428525 -6.747342028e-14 11.54398511 0 -13.35301686 0 8.030145922 1.078689144e-13 24.03547824)
(-9.965427335 -4.858996033e-14 12.30487998 -2.115481266e-14 -13.16471942 -1.692385013e-13 8.295851801 1.123494115e-13 23.27858303)
(-9.368882079 -2.403912547e-14 13.06044803 4.068770988e-14 -12.96815654 -8.137541976e-14 8.511094221 9.215613226e-14 22.48514527)
(-8.745748428 3.645107668e-15 13.81196632 3.929042371e-14 -12.76374062 0 8.675869112 7.368347325e-14 21.65662786)
(-8.097054849 -5.017681436e-14 14.56069356 7.615986658e-14 -12.55186843 7.615986658e-14 8.790328065 7.852131451e-14 20.79443716)
(-11.62325569 1.575382856e-13 0.6865234069 2.175579292e-13 -19.1030271 0 0.5695527327 -6.767249231e-15 31.61438863)
(-15.39323293 -5.732146744e-14 1.591425425 -3.717364323e-14 -16.65839174 2.379113167e-12 1.378759404 -5.989030674e-14 31.53579468)
(-15.09631103 -1.09242532e-13 2.584262122 9.169209241e-14 -15.87979748 0 2.175858539 7.636305548e-15 31.37756611)
(-15.29192686 5.368931628e-14 3.572992732 6.733356996e-14 -15.71781304 5.386685597e-13 2.988418684 -1.227212572e-14 31.1436822)
(-15.10965446 -1.323540357e-13 4.535374183 2.692302992e-14 -15.60951641 4.307684787e-13 3.762908372 -3.328265678e-14 30.83993757)
(-14.8352367 -2.331709151e-13 5.476602316 9.059647773e-14 -15.49638658 0 4.496821136 -3.481406386e-14 30.47069676)
(-14.52099991 -9.613923705e-14 6.400462126 3.941015962e-14 -15.37586203 0 5.189083357 2.230676546e-14 30.03962181)
(-14.16047483 8.916740988e-16 7.306808494 3.511824143e-14 -15.2454621 -2.809459314e-13 5.836011526 1.007561923e-13 29.55026921)
(-13.75539363 3.546865553e-14 8.196355725 6.371912854e-14 -15.10384211 0 6.434783716 1.014235943e-13 29.00593051)
(-13.30976493 6.800441005e-14 9.070605089 0 -14.95079824 -2.344663835e-13 6.983401009 9.907098313e-14 28.40959202)
(-12.82637108 6.490884078e-14 9.931190957 0 -14.78657356 0 7.480290967 1.045913758e-13 27.76398247)
(-12.30737644 -4.593476163e-14 10.77974814 0 -14.61157241 0 7.924270413 1.125637299e-13 27.07160121)
(-11.75465518 -9.218737729e-14 11.61796106 4.841019197e-14 -14.42627069 0 8.3144588 8.845751563e-14 26.3347039)
(-11.16984252 -5.809661436e-14 12.44747595 4.608128048e-14 -14.23116291 -1.843251219e-13 8.65023722 8.54313102e-14 25.55537733)
(-10.55446182 -2.791033578e-14 13.26977017 4.410522197e-14 -14.02674237 0 8.931301662 7.535877105e-14 24.73558832)
(-9.909907618 -1.913621753e-14 14.08625353 4.241447349e-14 -13.8134946 0 9.157563618 6.758399267e-14 23.87716227)
(-9.237442997 -3.199834958e-15 14.89822659 4.095788746e-14 -13.59188723 -8.191577492e-14 9.329136381 7.618175963e-14 22.98181887)
(-8.53824695 -6.202503799e-15 15.70688792 3.969602431e-14 -13.36236909 0 9.446313196 8.153730869e-14 22.05116611)
(-7.813393355 -2.152290276e-14 16.51347967 7.719598048e-14 -13.12536919 0 9.509518171 6.381530335e-14 21.08671832)
(-7.063829208 3.49927365e-14 17.31927311 3.763924598e-14 -12.88129498 -1.505569839e-13 9.519303114 3.048438015e-14 20.08985368)
(-6.290339291 5.900946356e-14 18.12566635 1.104001657e-13 -12.63053074 7.360011046e-14 9.476296254 3.224415547e-14 19.06177548)
(-5.493495811 4.381257473e-14 18.93434675 3.606437019e-14 -12.37343452 0 9.381136804 1.897453428e-14 18.00345874)
(-4.673609061 1.919682693e-14 19.74741804 1.062570313e-13 -12.11033455 1.416760417e-13 9.234441001 6.321292086e-15 16.91558376)
(-3.830622628 -3.594221219e-14 20.56756242 1.045591627e-13 -11.84152511 1.39412217e-13 9.036729036 1.160390691e-14 15.79844371)
(-2.964001972 -5.48912794e-14 21.39821086 3.435737782e-14 -11.56725871 0 8.788344263 1.729118128e-14 14.6518346)
(-2.072633145 -5.118461521e-14 22.24380073 3.39243016e-14 -11.28773864 0 8.489374565 1.130604138e-14 13.47490574)
(-1.154632474 -7.43675947e-15 23.11007727 3.354732025e-14 -11.00310985 -6.70946405e-14 8.13952611 6.929798425e-15 12.26598252)
(-0.2071304047 3.487544347e-14 24.00443965 3.322088754e-14 -10.71344572 0 7.737979511 1.68517719e-15 11.02234613)
(0.7739725891 2.493036526e-14 24.93644067 3.294025035e-14 -10.41873354 0 7.283234626 2.0150885e-14 9.739934689)
(1.794394978 1.424295421e-14 25.91841581 3.270131191e-14 -10.11885646 0 6.772861571 1.764366344e-14 8.412971644)
(2.861948364 3.837220436e-14 26.96627866 1.625026355e-14 -9.813568715 -6.50010542e-14 6.203217407 1.13971294e-15 7.033481194)
(3.987124018 6.836413206e-14 28.10056912 3.23348135e-14 -9.502466241 0 5.569080928 -2.457540114e-14 5.590628571)
(5.183879811 4.358520821e-14 29.34782586 8.050370347e-14 -9.184949204 9.660444417e-14 4.863151219 -2.708407536e-14 4.069905469)
(6.470629969 2.41049769e-14 30.74230841 0 -8.86017505 0 4.075452149 -2.977017009e-14 2.452096717)
(7.871391407 2.192187428e-14 32.32784079 3.202282349e-14 -8.527000165 6.404564698e-14 3.192609845 -3.739871644e-14 0.7120856722)
(9.416899373 1.967126021e-14 34.15956134 0 -8.183911863 0 2.197079343 -3.896626214e-14 -1.182365952)
(11.14551148 -1.716005631e-15 36.30518262 4.792335726e-14 -7.828956486 9.584671452e-14 1.066448507 -2.316608213e-14 -3.271606785)
(13.10343079 -2.888984189e-14 38.84465121 0 -7.459670505 0 -0.2269223535 7.708739556e-16 -5.604346019)
(15.34365309 1.373604325e-15 41.86732193 -1.598375942e-14 -7.073034039 -6.393503767e-14 -1.715681031 -7.304935714e-15 -8.236640824)
(17.92353955 2.125560508e-14 45.46661523 0 -6.665467834 0 -3.43643692 -1.570713554e-14 -11.22938067)
(20.90114633 1.453129399e-14 49.73280813 1.60345313e-14 -6.232885758 0 -5.42800905 -4.192027812e-15 -14.64459635)
(24.331178 3.503683238e-14 54.74562831 -1.607424568e-14 -5.77081011 -3.214849136e-14 -7.72926906 3.509828702e-15 -18.54131996)
(28.26173388 9.248661705e-14 60.56883972 -1.612296491e-14 -5.274528717 0 -10.37722882 -2.658097198e-14 -22.9720973)
(32.73228375 1.363635615e-13 67.24799267 8.090167265e-15 -4.739266859 1.618033453e-14 -13.40561528 -4.366971054e-14 -27.98101677)
(37.77200953 1.022675304e-13 74.81165618 2.436905471e-14 -4.160350311 1.624603647e-14 -16.84352554 -2.741754833e-14 -33.60340277)
(43.39881397 6.233075357e-14 83.27517189 1.63197882e-14 -3.533368028 0 -20.71437686 -2.791996584e-14 -39.8671481)
(49.6328986 6.724708393e-14 92.63741045 0 -2.854307274 -8.200668566e-15 -25.0429455 -3.850466152e-14 -46.79030862)
(56.54480725 1.270119554e-13 102.859892 0 -2.11930766 -8.245229005e-15 -29.88270726 -6.523337485e-14 -54.36847758)
(64.25785787 1.904583658e-13 113.878456 0 -1.323575287 0 -35.31988884 -9.557904162e-14 -62.57976169)
(71.84828003 1.415077573e-13 126.27971 1.043164853e-15 -0.4612613807 2.086329707e-15 -40.8398694 -8.361701405e-14 -71.77489154)
(-12.4417547 -6.478335027e-14 0.7418958097 1.702433294e-13 -20.44067241 3.631857693e-12 0.6160917917 -6.506564572e-14 33.83480062)
(-16.4759233 -3.086929443e-14 1.718509284 3.878546932e-14 -17.82892469 -1.241135018e-12 1.492542603 1.507209175e-13 33.74882033)
(-16.1522778 -1.55553608e-14 2.790033008 9.566780457e-14 -16.99566455 0 2.354940444 1.287508839e-13 33.57547375)
(-16.35666831 2.847172009e-15 3.857740815 7.025311175e-14 -16.8198869 0 3.233746267 2.25401785e-14 33.31939815)
(-16.15753255 -9.090973791e-14 4.897251877 -2.809039578e-14 -16.70218277 0 4.071123068 1.252617416e-13 32.98687968)
(-15.85728523 -1.708182902e-13 5.914059459 9.452468475e-14 -16.57895589 0 4.864022033 4.602392765e-14 32.58284267)
(-15.51340888 -1.215498934e-13 6.912225229 8.223791932e-14 -16.44740854 0 5.611273006 1.590886331e-14 32.11131121)
(-15.1194249 -3.163144224e-14 7.89169563 7.328189333e-14 -16.30499098 0 6.308836397 1.928837503e-14 31.57633534)
(-14.67717603 2.515796454e-14 8.853260521 3.324097508e-14 -16.15031418 0 6.953628219 3.344635545e-14 30.98165061)
(-14.19106701 2.269541649e-14 9.798460427 6.115817497e-14 -15.98319312 0 7.543499198 5.445224726e-14 30.33065059)
(-13.66428552 1.783360347e-14 10.72899485 8.533462595e-14 -15.80392607 0 8.076787656 7.484151948e-14 29.62644929)
(-13.09926829 1.152529776e-14 11.64662652 8.010342696e-14 -15.6129891 0 8.552220206 1.000837712e-13 28.87190129)
(-12.49813534 -4.394894719e-14 12.55308811 1.010184555e-13 -15.41092258 2.02036911e-13 8.968868461 6.552580137e-14 28.06961547)
(-11.86286148 -6.859756854e-14 13.4500053 4.80793362e-14 -15.19829116 0 9.326197908 5.755942389e-14 27.22206628)
(-11.19521984 -3.478283197e-14 14.33892992 4.601759682e-14 -14.97566311 0 9.623953371 4.007806956e-14 26.33152311)
(-10.49681305 -3.647459653e-14 15.22128141 4.425353891e-14 -14.74359018 0 9.862135807 3.656800797e-14 25.40012092)
(-9.769145163 -2.370390235e-14 16.09837521 4.273379578e-14 -14.50260573 0 10.04099005 3.854719267e-14 24.42986666)
(-9.013584477 -2.260959538e-14 16.97145322 8.283443888e-14 -14.2532214 0 10.16095613 6.026194411e-14 23.42264131)
(-8.231362471 -2.131561889e-14 17.84171412 0 -13.9959239 -1.610863007e-13 10.22263055 6.105932491e-14 22.38019166)
(-7.42360211 1.127514694e-14 18.71046556 7.854252019e-14 -13.73117411 0 10.22674865 4.389580177e-14 21.30411117)
(-6.591226168 5.69935917e-14 19.57922116 0 -13.45940797 -1.535827313e-13 10.17411856 5.612874416e-14 20.19577566)
(-5.73487764 7.672604545e-14 20.44976063 7.525619784e-14 -13.1810292 0 10.06556329 3.845128372e-14 19.05630627)
(-4.854908866 4.666259827e-14 21.324294 3.695475687e-14 -12.89640623 0 9.901881129 4.493054261e-14 17.88648407)
(-3.95127973 2.446774986e-14 22.20567618 3.636426104e-14 -12.60586785 0 9.683754564 3.302190424e-14 16.68665154)
(-3.023435142 2.369968892e-14 23.09760341 3.584709226e-14 -12.30969609 0 9.411677399 3.932489682e-15 15.45659948)
(-2.070172204 -8.675981283e-15 24.00485822 7.079047676e-14 -12.00811792 7.079047676e-14 9.085852517 -1.862460146e-14 14.19540671)
(-1.089446171 -4.682872867e-14 24.93361468 7.000382213e-14 -11.70129495 7.000382213e-14 8.706059939 -7.993994716e-15 12.90126745)
(-0.07816190643 -3.723384481e-14 25.89181573 3.466132462e-14 -11.38930974 0 8.271521848 9.673588259e-15 11.57124921)
(0.968101581 -1.755345265e-14 26.88966026 3.436851914e-14 -11.07215108 0 7.780719738 2.278886828e-14 10.20098265)
(2.055471842 1.306126415e-14 27.94025839 0 -10.74969416 -6.823844128e-14 7.231134912 1.982167615e-14 8.784283057)
(3.192256753 4.960622552e-14 29.06053198 3.390972959e-14 -10.42167645 0 6.61897058 9.596788668e-15 7.312627986)
(4.389613995 6.671590129e-14 30.2723107 3.373683107e-14 -10.08766712 0 5.938742649 1.410600498e-14 5.774488317)
(5.662358308 7.073894442e-14 31.60365303 5.039657636e-14 -9.747026639 0 5.182782405 1.252976804e-14 4.154489531)
(7.029917111 5.491171409e-14 33.09056667 3.348993164e-14 -9.398858696 6.697986329e-14 4.34061213 3.827103271e-15 2.432342788)
(8.517509252 1.64446307e-14 34.77899109 1.670565658e-14 -9.041951509 6.682262632e-14 3.398204107 1.276055524e-14 0.5816365983)
(10.1573397 0 36.7265655 0 -8.674707894 0 2.337192622 1.539666177e-14 -1.431402691)
(11.9894383 5.175914188e-15 39.00372184 0 -8.295070595 0 1.134167919 3.272924611e-14 -3.648906195)
(14.06186157 1.178356419e-14 41.69331624 0 -7.900454985 0 -0.2396974486 3.128907996e-14 -6.121572401)
(16.42963434 3.468905787e-14 44.88769979 0 -7.487701263 0 -1.818399308 8.20211671e-15 -8.907608272)
(19.15221629 3.66739718e-14 48.6831485 1.669815346e-14 -7.053073307 0 -3.640070084 2.007898447e-15 -12.07017133)
(22.28979142 6.633095795e-15 53.17255176 0 -6.592313642 3.345955712e-14 -5.745168884 1.879602831e-14 -15.67360129)
(25.89914069 2.325695832e-15 58.43782027 0 -6.100761397 0 -8.174320346 1.782189395e-14 -19.77917573)
(30.03030017 2.973428165e-14 64.54433182 -1.682204663e-14 -5.573513672 -3.364409327e-14 -10.96633 6.577964782e-15 -24.44157155)
(34.72443076 5.943287397e-14 71.53850344 8.440951865e-15 -5.005601773 1.688190373e-14 -14.1567006 1.976128453e-14 -29.70673393)
(40.0120291 1.266152611e-13 79.44909317 8.475227306e-15 -4.392160249 -1.695045461e-14 -17.7762038 1.437601564e-15 -35.61160779)
(45.91189944 1.392871587e-13 88.29113551 1.702740411e-14 -3.728595922 1.702740411e-14 -21.8497863 -2.133411386e-14 -42.18552791)
(52.44561976 1.115319835e-13 98.06218559 0 -3.010727962 0 -26.40405162 -1.78397712e-14 -49.44745502)
(59.68843463 1.294275059e-13 108.7203648 -4.301368495e-15 -2.234522982 -8.602736991e-15 -31.49624656 -5.380475832e-14 -57.39273068)
(67.76989428 1.508246241e-13 120.1978686 0 -1.394942977 8.65307533e-15 -37.21744983 -7.037491892e-14 -65.99898244)
(75.71102196 1.650227037e-13 133.1141714 2.176791665e-15 -0.4858613775 2.176791665e-15 -43.02274392 -7.934096442e-14 -75.6373715)
(-13.34709408 -2.439962334e-13 0.8042015151 -1.185256845e-13 -21.92014832 0 0.6666468888 1.852110746e-14 36.29046072)
(-17.67338842 -2.57385175e-13 1.861544644 1.21513333e-13 -19.12361775 0 1.616021473 1.054265767e-13 36.19616576)
(-17.31990121 6.536936723e-14 3.021487499 1.498617135e-13 -18.22984143 -7.992624722e-13 2.549379234 1.307393385e-13 36.00581295)
(-17.53357874 4.520938461e-14 4.177929116 1.100501026e-13 -18.03867679 5.869338807e-13 3.500170734 9.744107438e-14 35.72467957)
(-17.31528721 -1.298319053e-13 5.303977535 5.86707286e-14 -17.91039682 -4.693658288e-13 4.405906818 1.675781619e-13 35.35963512)
(-16.98589824 -9.191779669e-14 6.40541675 9.871402602e-14 -17.77579691 0 5.262955665 1.055634473e-13 34.91628093)
(-16.60856657 -8.24021121e-14 7.486732738 8.588271021e-14 -17.63182883 0 6.070026722 7.42998391e-14 34.39910995)
(-16.17677183 -4.790583138e-14 8.547792145 3.826487624e-14 -17.47585773 0 6.822748723 1.286650851e-14 33.8126312)
(-15.69254616 -2.45101361e-14 9.589430041 6.942843532e-14 -17.30644543 0 7.517726538 4.443294947e-14 33.16109936)
(-15.16077315 1.141403702e-14 10.61330623 6.38687099e-14 -17.12343707 -2.554748396e-13 8.152610466 8.583020654e-14 32.44838495)
(-14.58501877 1.624522512e-15 11.62121023 1.18822218e-13 -16.927197 2.37644436e-13 8.725600791 9.523156875e-14 31.67805243)
(-13.96807211 -1.258071971e-14 12.61494973 5.576907784e-14 -16.71827395 -2.230763113e-13 9.235329132 9.239869044e-14 30.85339056)
(-13.31245918 -6.078359827e-15 13.59627321 5.274780053e-14 -16.49729095 -2.109912021e-13 9.680900974 9.758442791e-14 29.97747969)
(-12.62044153 -2.157470223e-14 14.56689057 1.004204322e-13 -16.2649017 0 10.06177522 4.314790008e-14 29.05315017)
(-11.89406715 -3.989114789e-15 15.52838256 4.805710052e-14 -16.02175193 0 10.37774406 9.437882613e-15 28.08306196)
(-11.13525281 -2.058005447e-14 16.48219597 4.621485915e-14 -15.76847458 0 10.62891548 1.152122086e-14 27.06971742)
(-10.34574877 -4.841937726e-14 17.42966919 8.925552172e-14 -15.5056796 0 10.81566068 1.014656192e-14 26.01547491)
(-9.527164188 -4.418209386e-14 18.37205473 0 -15.23395095 -1.73011335e-13 10.93858516 1.021344406e-14 24.92253068)
(-8.68096322 -9.856972155e-15 19.31063929 8.411282905e-14 -14.95384421 0 10.99846642 -3.247045054e-14 23.79291962)
(-7.808430803 2.883639751e-15 20.2467688 4.101176535e-14 -14.66588553 0 10.9962399 -2.19241374e-14 22.62848186)
(-6.910622834 3.532015531e-14 21.1820015 0 -14.37056813 -8.019476504e-14 10.9329088 -4.169475213e-16 21.43080794)
(-5.988327446 6.972698282e-14 22.11826574 7.859155796e-14 -14.06834917 0 10.80951025 1.875903582e-14 20.20119266)
(-5.041969189 6.033861698e-14 23.05799042 3.859259449e-14 -13.75964592 0 10.62703813 2.77488158e-14 18.94053221)
(-4.071511625 5.403410867e-14 24.00426612 3.797592812e-14 -13.44482865 0 10.3863633 2.543028165e-14 17.64923706)
(-3.076355821 6.565895026e-14 24.96107717 3.743583801e-14 -13.12421395 0 10.08814596 1.623870961e-14 16.32709533)
(-2.05519328 1.985368838e-14 25.93356916 1.10891874e-13 -12.7980558 7.392791599e-14 9.73271871 3.26471122e-14 14.97311959)
(-1.005824716 -4.347831618e-14 26.9283775 7.3106397e-14 -12.46653508 0 9.319958455 4.756835101e-14 13.58535868)
(0.07507006805 -4.79334313e-14 27.95405997 7.239503489e-14 -12.12974623 0 8.849141899 2.745920239e-14 12.16064394)
(1.192260225 -3.554122932e-14 29.02159243 3.589173454e-14 -11.78768132 0 8.318731081 7.132029581e-15 10.69427235)
(2.352340396 -1.572791685e-14 30.14500224 3.563138685e-14 -11.44020815 0 7.726130841 1.002372245e-14 9.179606085)
(3.564206062 1.521635659e-15 31.3422658 5.311891755e-14 -11.08704594 0 7.067376223 2.356094034e-14 7.607526591)
(4.83971676 4.273262307e-14 32.63649989 1.761602497e-14 -10.72773338 -7.046409988e-14 6.336711668 2.908869907e-14 5.965751266)
(6.194571292 7.825994614e-14 34.05743572 3.508677095e-14 -10.36158874 0 5.526075334 3.517629011e-14 4.237952805)
(7.649341911 7.790641455e-14 35.64307995 3.497420802e-14 -9.987658015 0 4.624448424 4.553638243e-14 2.402676058)
(9.23058702 5.305371834e-14 37.44160703 6.978421013e-14 -9.604654088 3.489210506e-14 3.617100123 5.295179443e-14 0.4320922703)
(10.97207599 -1.643260127e-14 39.51329464 6.967695114e-14 -9.210887164 6.967695114e-14 2.484769442 7.611982917e-14 -1.70925618)
(12.91569398 -5.459704166e-14 41.93157949 3.48115633e-14 -8.804187565 0 1.202959248 9.629114062e-14 -4.065444897)
(15.11154723 -5.676990906e-15 44.78248448 3.48098125e-14 -8.381836882 0 -0.2584609803 7.703495209e-14 -6.68936932)
(17.61691111 4.340374451e-14 48.16167703 3.483184512e-14 -7.940522177 0 -1.934983488 7.379018168e-14 -9.641642019)
(20.49363465 2.954619779e-14 52.16873853 3.487643405e-14 -7.476333432 3.487643405e-14 -3.866431741 9.629773157e-14 -12.98798391)
(23.80432702 1.847788748e-14 56.89958705 3.494248713e-14 -6.98482261 0 -6.095103941 1.067808924e-13 -16.79535799)
(27.60816696 3.716703566e-14 62.43877058 3.502903315e-14 -6.461123515 -3.502903315e-14 -8.663583863 8.765422929e-14 -21.12762572)
(31.95743663 8.149033674e-15 68.85373903 1.756760102e-14 -5.900118313 3.513520203e-14 -11.61268819 8.769834828e-14 -26.04194783)
(36.895309 1.110490396e-14 76.19223611 1.763011109e-14 -5.296618482 -3.526022217e-14 -14.97991283 6.569300042e-14 -31.58645585)
(42.45391458 9.862128764e-14 84.48370246 8.850850003e-15 -4.645539805 -1.770170001e-14 -18.79792357 4.749864226e-15 -37.80008127)
(48.65319892 1.383319237e-13 93.7432259 1.778205999e-14 -3.942078505 0 -23.09337729 -1.562611518e-14 -44.71388591)
(55.51639161 1.762309642e-13 103.9673413 8.93545788e-15 -3.18185826 0 -27.89490565 -5.270898449e-14 -52.34799402)
(63.12401453 2.188712116e-13 115.1109525 0 -2.360643687 0 -33.26390349 -9.110679389e-14 -60.69768797)
(71.61263201 2.101755032e-13 127.102635 4.518290162e-15 -1.473117251 -4.518290162e-15 -39.29680699 -1.106295272e-13 -69.74021174)
(79.94325599 2.437291018e-13 140.5978803 0 -0.5128336114 -2.273267239e-15 -45.41569831 -1.432677264e-13 -79.86903514)
(-14.34907523 -2.283156716e-13 0.8744188989 2.477957051e-13 -23.55733182 0 0.7213776668 2.227848617e-14 39.00790141)
(-18.99865616 -1.774240724e-13 2.022841673 2.963821373e-13 -20.55644063 0 1.749549813 3.841910009e-15 38.90432584)
(-18.6118397 -4.895443274e-15 3.282526886 2.088722463e-13 -19.5957028 0 2.759687722 -5.847924569e-14 38.69487401)
(-18.835422 -4.149161198e-14 4.538961775 1.53384154e-13 -19.38737289 0 3.788362714 8.829171418e-14 38.3855339)
(-18.59558188 -7.887849336e-14 5.762429475 9.199496264e-14 -19.24725317 0 4.768155896 1.0017735e-13 37.98400523)
(-18.23342182 -5.24002741e-14 6.958945937 1.031882321e-13 -19.0999081 0 5.694790061 7.397999042e-14 37.49641588)
(-17.8184679 3.945205274e-15 8.13350575 4.488766889e-14 -18.94199405 -3.591013511e-13 6.566791584 7.994619068e-14 36.92790871)
(-17.34419329 -3.554618975e-15 9.285952393 1.199976867e-13 -18.77080355 3.199938313e-13 7.379448081 7.270874811e-14 36.28354132)
(-16.81274995 -9.44045559e-14 10.41708004 3.62876371e-14 -18.58484049 0 8.129032523 9.813966814e-14 35.56808439)
(-16.22955743 -5.633174929e-14 11.52860248 6.676355471e-14 -18.38397676 -2.670542189e-13 8.81295579 8.070266921e-14 34.78595056)
(-15.59869321 1.619311017e-14 12.62238268 6.210391316e-14 -18.16865102 -2.484156526e-13 9.429267045 7.889177771e-14 33.9412511)
(-14.923404 1.036134656e-14 13.7002791 8.744521056e-14 -17.93950322 0 9.976531165 4.592925645e-14 33.0377872)
(-14.20654842 3.979240087e-14 14.76414077 5.513859066e-14 -17.69725616 -2.205543626e-13 10.45377344 5.094424496e-14 32.07909803)
(-13.45074831 6.996423571e-14 15.81570775 1.574579722e-13 -17.44265202 2.09943963e-13 10.86044065 -2.769748968e-14 31.06847787)
(-12.65843426 1.545323705e-14 16.85657979 1.507058547e-13 -17.17643419 2.009411396e-13 11.19640108 -1.514322539e-14 30.00906373)
(-11.83183566 -2.014470254e-14 17.88821836 4.830954426e-14 -16.89932601 0 11.46184703 2.069302657e-15 28.90377029)
(-10.97304635 -1.066037069e-14 18.91201516 4.665051107e-14 -16.6120263 0 11.65728976 -1.340559736e-15 27.75536972)
(-10.08394447 3.722146739e-14 19.92929052 9.042653051e-14 -16.31520568 0 11.78348916 -3.051007647e-14 26.56643626)
(-9.166237268 1.086185789e-14 20.94133578 1.318878555e-13 -16.00949813 2.63775711e-13 11.8414225 -3.810074449e-14 25.33934466)
(-8.221458123 -7.267909901e-14 21.94963322 8.574124122e-14 -15.69550513 1.714824824e-13 11.83222803 7.046846392e-15 24.07623443)
(-7.250841321 -5.574995e-14 22.95588869 4.191479354e-14 -15.37378993 0 11.75713509 1.388332025e-14 22.77895445)
(-6.255287187 1.06302414e-14 23.96215972 4.107685733e-14 -15.04487252 0 11.61740615 1.965773947e-14 21.44900219)
(-5.235311215 4.290255958e-14 24.97107072 8.06836015e-14 -14.70922515 0 11.41425031 4.657845334e-14 20.08742306)
(-4.190933857 4.101525489e-14 25.98601429 7.939436864e-14 -14.36726728 0 11.1487536 4.732043704e-14 18.69471115)
(-3.121525845 3.183346491e-14 27.01137349 3.913261473e-14 -14.01935736 0 10.82175588 3.665764445e-14 17.27066454)
(-2.025662764 6.678871435e-15 28.05275961 7.727869322e-14 -13.66578241 0 10.43374423 4.407067424e-14 15.81423422)
(-0.9009556331 1.529891371e-14 29.11734902 0 -13.30674697 -7.641993968e-14 9.984715835 3.182769538e-14 14.3233122)
(0.256191317 4.293745158e-14 30.21433534 3.783816731e-14 -12.94235966 0 9.474006099 4.754176689e-15 12.79447586)
(1.450899952 -6.998084168e-15 31.35548769 7.503704909e-14 -12.57261638 7.503704909e-14 8.900074273 7.382691191e-15 11.22265942)
(2.690232265 -5.485110996e-14 32.55586757 3.724637705e-14 -12.19737903 0 8.260252649 1.969959562e-14 9.600724841)
(3.983733406 -4.544065503e-14 33.83472694 3.701768557e-14 -11.81634882 0 7.550396559 1.465009958e-14 7.91890142)
(5.344090528 -3.283674061e-14 35.21662757 5.524341028e-14 -11.42903221 0 6.764467926 2.127891548e-14 6.164080904)
(6.787971571 -2.793761666e-15 36.73297891 1.833853811e-14 -11.03470001 -7.335415245e-14 5.893982626 3.094601712e-14 4.318900476)
(8.33713535 3.866586169e-14 38.42393144 0 -10.63233583 -7.311882247e-14 4.92734365 3.152455513e-14 2.360623641)
(10.01963996 4.480837197e-14 40.34020572 3.647358736e-14 -10.22057157 0 3.849059553 4.11885016e-14 0.2598755275)
(11.87098465 1.529251621e-14 42.54488866 1.820876349e-14 -9.797615134 -3.641752698e-14 2.638901181 6.858268377e-14 -2.02064393)
(13.93507056 -8.599837451e-15 45.11465898 3.638939483e-14 -9.361174254 0 1.271172223 7.439255141e-14 -4.527155704)
(16.2642988 -5.061922475e-14 48.1390962 5.458134729e-14 -8.908383672 7.277512973e-14 -0.2856782902 9.623547719e-14 -7.314995964)
(18.91844189 -5.943389755e-14 51.71751567 1.820529796e-14 -8.435761271 -3.641059592e-14 -2.068805957 1.134830316e-13 -10.44745013)
(21.96201955 -1.776576731e-14 55.95320323 0 -7.939205165 -7.291441172e-14 -4.119892299 1.026949503e-13 -13.9931042)
(25.46039328 1.847714749e-14 60.94559477 1.826312648e-14 -7.414055571 0 -6.483290176 8.794107231e-14 -18.02188325)
(29.47548832 6.930000569e-14 66.78240572 1.830836064e-14 -6.855217252 -3.661672127e-14 -9.203761413 7.263450738e-14 -22.60062226)
(34.06216691 1.311652432e-13 73.53360579 1.836385138e-14 -6.257330862 -7.345540554e-14 -12.324355 3.973704868e-14 -27.78929606)
(39.26592039 1.61453422e-13 81.24869075 3.685838905e-14 -5.614960329 0 -15.88477848 -2.890316009e-15 -33.63857291)
(45.12082244 1.682529361e-13 89.95825542 2.775604231e-14 -4.922773734 0 -19.91981316 -3.024664081e-14 -40.18973368)
(51.64821713 1.857441631e-13 99.677834 9.294015293e-15 -4.175727076 0 -24.45800688 -5.689547993e-14 -47.47586198)
(58.87328699 2.012211702e-13 110.4032786 9.340456858e-15 -3.369219597 -1.868091372e-14 -29.5302376 -8.286219676e-14 -55.51853091)
(66.88244159 2.460515504e-13 122.0864456 1.408681581e-14 -2.498783403 0 -35.20244347 -1.262635483e-13 -64.31315909)
(75.82009407 2.651751885e-13 134.6522821 9.446162701e-15 -1.558783992 4.72308135e-15 -41.57695614 -1.455356596e-13 -73.83669982)
(84.58207807 1.857635349e-13 148.7956577 1.188151454e-15 -0.5424138547 2.376302909e-15 -48.03994451 -1.125908955e-13 -84.50694644)
(-15.45831269 -2.188367917e-13 0.9536464216 0 -25.36948156 0 0.7803541677 1.365391816e-13 42.01580491)
(-20.46574754 -1.557123317e-13 2.205088495 2.215190715e-13 -22.14254358 1.417722057e-12 1.893177217 7.757269543e-15 41.90185729)
(-20.04176377 -8.409383053e-14 3.57752912 1.092792925e-13 -21.10768883 0 2.985898499 7.09853067e-14 41.67101858)
(-20.27607376 -1.452155403e-13 4.946746134 1.203729465e-13 -20.88024049 0 4.098488412 1.043844597e-13 41.33022932)
(-20.01222613 -1.107379588e-13 6.280121437 1.283482397e-13 -20.72693053 0 5.158141343 -1.59243824e-14 40.88798093)
(-19.61347062 -8.119103415e-14 7.583860085 5.398676556e-14 -20.56538652 0 6.159915494 6.072008828e-15 40.35103421)
(-19.15640553 -9.136998682e-14 8.863308922 1.87877242e-13 -20.39191135 0 7.102197899 9.548455482e-15 39.72512462)
(-18.63457141 -5.902092184e-14 10.11837404 8.370834345e-14 -20.20371889 -3.348333738e-13 7.979822812 4.478992019e-14 39.01597553)
(-18.0502694 -2.269328084e-14 11.34981807 7.594091366e-14 -19.99925515 -3.037636546e-13 8.788707729 6.003952923e-14 38.22898023)
(-17.40950945 1.719203038e-14 12.55934008 1.047895185e-13 -19.77842425 0 9.526036646 2.218260623e-14 37.36914673)
(-16.71692518 4.334378599e-14 13.74886512 1.299678971e-13 -19.54174921 0 10.18966679 3.601629468e-14 36.44114176)
(-15.97618248 2.007529086e-14 14.92034553 1.220005807e-13 -19.2899706 0 10.77799187 3.201324451e-14 35.44932983)
(-15.19059855 9.730500432e-14 16.07564878 5.769561345e-14 -19.02391089 -2.307824538e-13 11.28995635 -2.250410181e-14 34.39780963)
(-14.36325855 9.074671955e-14 17.21652303 1.647600014e-13 -18.74442376 4.393600039e-13 11.72502615 -1.749798049e-14 33.29045373)
(-13.49698735 -2.268915453e-14 18.34462051 1.051298382e-13 -18.45235976 0 12.08307655 2.812272421e-14 32.13088453)
(-12.594409 -3.490113335e-14 19.46145004 5.054987348e-14 -18.14854788 0 12.36439455 2.967553294e-14 30.92254624)
(-11.65796533 -1.963996909e-14 20.56839381 9.76278075e-14 -17.83378904 0 12.5696128 2.494926606e-14 29.66865555)
(-10.68989858 8.408614335e-15 21.6668644 4.731000593e-14 -17.50884997 0 12.69964306 1.243191745e-14 28.37224085)
(-9.692227949 -2.407883763e-14 22.75828361 4.600136145e-14 -17.17445993 0 12.75565973 3.85429554e-14 27.03608645)
(-8.666719763 -5.594198161e-14 23.8441805 0 -16.83130652 -1.794348917e-13 12.73901903 6.437677348e-14 25.6626878)
(-7.614853361 -3.27654352e-14 24.9264163 8.771713895e-14 -16.48003286 0 12.65118821 4.528042153e-14 24.25420575)
(-6.537716114 -4.97396513e-14 26.00731605 8.596354925e-14 -16.12123374 1.719270985e-13 12.49366226 5.853509962e-14 22.81238006)
(-5.435926872 -1.051193431e-14 27.08979338 0 -15.75544785 -1.688505214e-13 12.26789678 7.239567888e-14 21.33844677)
(-4.309536248 8.360357892e-14 28.17755573 4.153811976e-14 -15.38315251 -1.66152479e-13 11.97520533 4.341147131e-14 19.83300832)
(-3.157894997 1.000491376e-13 29.27538331 4.094736887e-14 -15.00475414 0 11.61663034 3.304375926e-14 18.29589883)
(-1.97950449 4.280024291e-14 30.38942026 8.086245154e-14 -14.6205795 1.617249031e-13 11.19284353 2.932263126e-14 16.72601039)
(-0.7717900254 7.301388801e-15 31.52751374 3.998193654e-14 -14.23086331 0 10.70397558 3.01472875e-14 15.12107374)
(0.4691483835 1.995110578e-14 32.69965127 3.95928921e-14 -13.83573318 0 10.149435 1.008544086e-14 13.47739541)
(1.748851204 1.399348193e-14 33.91851855 3.925842601e-14 -13.43519194 0 9.527696707 1.428292671e-14 11.78951264)
(3.074920089 3.729900867e-15 35.20023667 3.897365804e-14 -13.02909577 0 8.8360129 1.645125378e-15 10.0497463)