/*--------------------------------*- C++ -*----------------------------------*\
  =========                 |
  \\      /  F ield         | OpenFOAM: The Open Source CFD Toolbox
   \\    /   O peration     | Website:  https://openfoam.org
    \\  /    A nd           | Version:  7
     \\/     M anipulation  |
\*---------------------------------------------------------------------------*/
FoamFile
{
    version     2.0;
    format      ascii;
    class       volScalarField;
    location    "0.0012";
    object      p;
}
// * * * * * * * * * * * * * * * * * * * * * * * * * * * * * * * * * * * * * //

dimensions      [1 -1 -2 0 0 0 0];

internalField   nonuniform List<scalar> 
1167
(
1215020.635
1225585.97
1223951.532
1224468.418
1225894.33
1227533.853
1229400.817
1231503.344
1233813.815
1236305.678
1238955.787
1241742.398
1244645.096
1247644.883
1250724.582
1253868.92
1257064.327
1260299.007
1206249.847
1216867.462
1215273.328
1215809.409
1217275.365
1218965.446
1220887.34
1223049.133
1225422.153
1227978.49
1230693.975
1233546.025
1236513.177
1239576.009
1242717.037
1245920.452
1249172.676
1252461.764
1255777.682
1259112.337
1262458.978
1265812.277
1269168.239
1272523.982
1275877.579
1279227.841
1282574.17
1285916.488
1289255.017
1292590.037
1295921.827
1299250.237
1302574.247
1305891.421
1309197.173
1312483.746
1315739.16
1318946.771
1322085.69
1325132.734
1328065.986
1330868.312
1333530.157
1336050.101
1338432.728
1340684.157
1342814.026
1344866.353
1346940.119
1348912.828
1197130.935
1207807.325
1206254.09
1206811.569
1208320.239
1210064.279
1212045.278
1214270.512
1216710.519
1219336.084
1222121.825
1225043.962
1228080.55
1231211.536
1234418.745
1237686.23
1241000.003
1244348.181
1247720.708
1251109.379
1254507.569
1257910.16
1261313.269
1264714.137
1268110.983
1271502.789
1274889.134
1278270.15
1281646.204
1285017.765
1288385.213
1291748.514
1295106.883
1298458.072
1301797.596
1305117.913
1308407.444
1311649.869
1314824.813
1317909.588
1320882.594
1323726.782
1326432.399
1328997.608
1331426.508
1333724.688
1335901.486
1338001.652
1340125.694
1342145.709
1187641.419
1198383.347
1196871.535
1197452.271
1199006.749
1200808.013
1202852.015
1205145.212
1207656.928
1210356.553
1213217.466
1216214.995
1219326.412
1222530.693
1225809.418
1229146.09
1232526.658
1235938.925
1239372.913
1242820.467
1246274.949
1249731.295
1253185.805
1256635.936
1260080.03
1263517.225
1266947.26
1270370.379
1273787.104
1277198.16
1280604.087
1284004.997
1287400.15
1290787.541
1294162.952
1297518.997
1300844.432
1304123.422
1307336.011
1310460.057
1313474.249
1316361.653
1319112.308
1321723.951
1324200.192
1326546.084
1328770.651
1330919.385
1333094.355
1335162.312
1177756.999
1188571.163
1187100.985
1187707.247
1189310.592
1191172.86
1193283.847
1195649.417
1198237.658
1201016.473
1203957.972
1207036.446
1210227.98
1213511.197
1216866.919
1220278.438
1223731.198
1227213.054
1230713.845
1234225.356
1237741.151
1241256.21
1244766.932
1248270.842
1251766.448
1255253.097
1258730.729
1262199.714
1265660.728
1269114.573
1272561.978
1276003.292
1279437.953
1282864.013
1286277.504
1289671.377
1293034.627
1296351.942
1299603.815
1302768.61
1305825.326
1308757.144
1311553.892
1314212.925
1316737.355
1319131.686
1321404.628
1323602.42
1325828.722
1327945.029
1167451.477
1178344.229
1176916.252
1177550.53
1179205.554
1181132.726
1183315.087
1185757.628
1188427.399
1191290.777
1194318.353
1197483.238
1200760.803
1204128.825
1207567.498
1211059.724
1214590.657
1218147.814
1221721.145
1225302.35
1228884.894
1232463.872
1236035.897
1239598.578
1243150.545
1246691.241
1250220.742
1253739.608
1257248.721
1260749.029
1264241.378
1267726.195
1271203.205
1274670.669
1278124.696
1281558.599
1284961.739
1288319.169
1291611.958
1294818.914
1297919.405
1300896.693
1303740.408
1306447.56
1309020.777
1311464.02
1313785.689
1316032.764
1318310.508
1320475.277
1156697.402
1167675.181
1166290.175
1166954.567
1168664.375
1170659.949
1172918.033
1175442.418
1178198.883
1181152.162
1184271.502
1187528.912
1190898.67
1194357.664
1197885.618
1201464.793
1205080.129
1208718.959
1212370.928
1216027.803
1219683.082
1223331.902
1226970.845
1230597.655
1234211.164
1237810.921
1241397.136
1244970.497
1248531.956
1252082.681
1255623.723
1259155.654
1262678.239
1266190.028
1269687.369
1273163.745
1276608.977
1280008.481
1283343.887
1286594.432
1289739.882
1292763.584
1295655.01
1298410.836
1301033.222
1303525.61
1305896.11
1308192.432
1310521.444
1312734.522
1145466.972
1156536.01
1155194.563
1155891.1
1157658.894
1159726.547
1162064.465
1164675.377
1167523.689
1170572.437
1173789.495
1177145.496
1180613.633
1184170.132
1187793.838
1191466.674
1195173.034
1198900.125
1202637.46
1206376.564
1210110.904
1213835.804
1217547.85
1221244.858
1224925.699
1228590.005
1232238.171
1235871.045
1239489.721
1243095.428
1246689.338
1250272.276
1253844.165
1257403.601
1260947.281
1264468.919
1267958.653
1271402.381
1274782.193
1278077.82
1281269.382
1284340.327
1287280.041
1290084.892
1292756.593
1295298.091
1297717.231
1300062.451
1302442.226
1304703.132
1133732.653
1144898.384
1143600.811
1144331.748
1146160.197
1148303.786
1150725.669
1153427.64
1156372.864
1159522.614
1162843.016
1166303.557
1169876.552
1173537.014
1177263.319
1181036.596
1184841.032
1188663.406
1192493.005
1196321.347
1200141.818
1203949.615
1207741.356
1211515.017
1215269.531
1219004.615
1222720.701
1226418.685
1230099.892
1233765.703
1237417.36
1241055.733
1244681.04
1248292.024
1251885.495
1255455.537
1258992.539
1262482.893
1265909.111
1269251.446
1272490.351
1275609.399
1278597.929
1281452.039
1284173.041
1286763.427
1289230.795
1291624.301
1294054.017
1296361.961
1121467.913
1132735.031
1131482.03
1132249.248
1134140.739
1136363.177
1138872.895
1141670.245
1144717.02
1147972.724
1151402.061
1154973.211
1158657.154
1162428.148
1166263.732
1170144.507
1174054.036
1177978.953
1181908.225
1185833.083
1189746.959
1193644.999
1197523.78
1201381.221
1205216.282
1209028.849
1212819.418
1216588.944
1220338.745
1224070.352
1227785.192
1231484.212
1235167.662
1238834.579
1242481.885
1246103.923
1249691.409
1253231.114
1256706.003
1260096.81
1263384.315
1266552.293
1269590.046
1272493.44
1275263.435
1277902.142
1280416.944
1282857.705
1285336.082
1287689.796
1108649.339
1120021.811
1118813.866
1119618.556
1121575.296
1123878.977
1126479.451
1129375.699
1132527.996
1135894.18
1139437.515
1143124.472
1146925.084
1150812.735
1154764.04
1158759.012
1162780.775
1166815.396
1170851.742
1174880.807
1178895.77
1182891.662
1186865.124
1190814.04
1194737.327
1198634.829
1202507.063
1206355.142
1210180.426
1213984.431
1217768.639
1221534.207
1225281.428
1229009.409
1232715.341
1236393.684
1240035.522
1243627.916
1247154.319
1250595.872
1253933.682
1257151.767
1260239.422
1263192.334
1266011.175
1268697.73
1271259.196
1273746.118
1276271.704
1278669.762
1095258.704
1106739.028
1105575.898
1106418.882
1108441.913
1110828.754
1113521.945
1116519.447
1119780.221
1123260.321
1126921.197
1130728.294
1134650.519
1138660.051
1142732.874
1146848.187
1150988.725
1155140.155
1159290.79
1163431.48
1167555.316
1171657.116
1175733.329
1179781.748
1183801.326
1187791.868
1191753.857
1195688.292
1199596.626
1203480.454
1207341.217
1211180.074
1214997.486
1218792.534
1222562.592
1226302.269
1230002.881
1233651.768
1237232.814
1240727.518
1244117.35
1247386.551
1250524.451
1253526.621
1256393.548
1259126.752
1261733.299
1264264.456
1266834.961
1269274.983
1081285.169
1092873.593
1091754.98
1092636.377
1094725.362
1097195.357
1099981.935
1103081.552
1106451.92
1110047.431
1113828.116
1117758.244
1121805.266
1125940.674
1130139.419
1134380.24
1138645.166
1142919.483
1147191.169
1151450.696
1155690.849
1159906.359
1164093.514
1168249.938
1172374.373
1176466.525
1180526.915
1184556.47
1188556.492
1192528.548
1196474.154
1200394.383
1204289.683
1208159.244
1212000.403
1215807.978
1219573.371
1223284.234
1226924.733
1230476.685
1233921.923
1237244.891
1240434.974
1243487.691
1246403.416
1249183.45
1251834.748
1254409.199
1257022.981
1259503.355
1066728.434
1078423.098
1077348.214
1078266.608
1080419.986
1082971.216
1085849.399
1089049.591
1092528.307
1096238.521
1100138.857
1104192.092
1108364.928
1112627.814
1116955.027
1121324.471
1125717.839
1130119.811
1134517.896
1138902.414
1143265.794
1147602.396
1151908.267
1156180.951
1160418.986
1164621.851
1168789.784
1172923.685
1177024.763
1181094.359
1185133.852
1189144.321
1193126.004
1197078.103
1200997.885
1204880.187
1208716.433
1212494.474
1216198.644
1219811.059
1223313.835
1226691.616
1229933.887
1233036.221
1235998.95
1238823.267
1241516.174
1244130.358
1246783.444
1249299.712
1051603.269
1063399.2
1062366.184
1063318.59
1065532.377
1068160.71
1071125.814
1074421.877
1078004.5
1081825.183
1085841.191
1090014.476
1094310.738
1098699.572
1103154.576
1107653.121
1112176.186
1116708.188
1121236.194
1125750.003
1130241.851
1134705.82
1139137.634
1143534.444
1147894.581
1152217.37
1156502.763
1160751.315
1164964.074
1169142.253
1173286.937
1177399.033
1181478.693
1185524.858
1189534.775
1193503.097
1197421.277
1201277.136
1205055.063
1208737.375
1212306.33
1215746.676
1219047.989
1222205.9
1225220.709
1228093.51
1230831.231
1233486.965
1236179.586
1238732.198
1035943.958
1047831.635
1046837.536
1047819.237
1050086.37
1052784.011
1055827.838
1059211.039
1062888.563
1066810.844
1070934.299
1075219.956
1079632.622
1084141.412
1088719.182
1093343
1097993.362
1102654.038
1107311.992
1111956.636
1116579.711
1121174.916
1125737.783
1130265.059
1134754.659
1139205.445
1143617.115
1147989.857
1152324.227
1156621.067
1160881.176
1165104.947
1169292.268
1173441.687
1177550.131
1181611.925
1185618.33
1189556.94
1193412.103
1197166.159
1200801.436
1204302.787
1207659.956
1210868.699
1213929.41
1216843.309
1219617.714
1222306.843
1225030.891
1227609.879
1019808.754
1031773.767
1030814.722
1031818.318
1034128.547
1036883.356
1039992.69
1043448.991
1047206.91
1051216.276
1055432.803
1059816.755
1064332.774
1068949.294
1073639.047
1078378.525
1083148.171
1087931.394
1092714.659
1097487.278
1102240.719
1106968.316
1111665.113
1116327.562
1120953.288
1125540.723
1130089.02
1134598.021
1139067.919
1143499.011
1147891.692
1152245.983
1156561.203
1160835.582
1165065.501
1169244.903
1173364.54
1177411.553
1181369.958
1185221.725
1188948.88
1192536.111
1195973.054
1199255.378
1202383.412
1205358.247
1208186.86
1210923.114
1213688.195
1216304.627
1003286.371
1015308.345
1014378.884
1015393.833
1017732.598
1020527.595
1023683.372
1027192.339
1031009.328
1035083.763
1039371.067
1043831.623
1048429.777
1053133.931
1057916.653
1062754.513
1067627.551
1072519.276
1077415.99
1082306.619
1087182.346
1092036.356
1096863.242
1101658.878
1106420.302
1111145.499
1115832.969
1120481.704
1125091.197
1129661.029
1134190.635
1138679.315
1143125.486
1147526.561
1151878.074
1156173.218
1160401.923
1164550.708
1168602.999
1172540.304
1176344.36
1179999.769
1183496.168
1186829.33
1189999.809
1193009.17
1195865.587
1198625.221
1201410.307
1204036.609
986501.2818
998552.1692
997644.8144
998657.4943
1001004.992
1003817.197
1006993.815
1010527.472
1014373.738
1018482.439
1022809.435
1027315.386
1031964.872
1036726.841
1041574.026
1046483.402
1051435.323
1056413.243
1061403.844
1066396.191
1071381.387
1076352.458
1081304.052
1086231.894
1091132.663
1096003.897
1100843.83
1105651.003
1110424.21
1115162.504
1119864.681
1124529.188
1129153.742
1133734.77
1138266.894
1142742.132
1147149.177
1151473.257
1155696.347
1159798.499
1163760.161
1167564.774
1171201.027
1174663.971
1177953.572
1181070.601
1184021.456
1186859.498
1189707.917
1192394.455
969617.8966
981660.7601
980766.8371
981759.9447
984091.0809
986890.57
990054.4645
993576.02
997412.1858
1001513.99
1005838.125
1010345.901
1015003.11
1019779.23
1024647.981
1029586.714
1034576.545
1039601.347
1044647.907
1049705.653
1054765.836
1059821.301
1064866.352
1069896.427
1074907.713
1079896.912
1084861.301
1089798.499
1094706.093
1099581.725
1104422.946
1109226.637
1113989.053
1118705.069
1123367.853
1127967.875
1132492.427
1136925.325
1141247.218
1145437.029
1149474.31
1153341.843
1157027.954
1160527.66
1163841.284
1166970.834
1169926.216
1172766.909
1175616.093
1178278.633
952844.6306
964832.3614
963941.5806
964893.9326
967178.4153
969928.8398
973038.8228
976503.1558
980280.9323
984324.9155
988593.3002
993049.4037
997660.6095
1002397.889
1007236.546
1012155.358
1017136.659
1022165.879
1027230.903
1032322.206
1037432.215
1042554.846
1047685.152
1052819.299
1057954.138
1063086.905
1068215.048
1073336.271
1078448.173
1083547.971
1088632.593
1093698.126
1098739.622
1103750.542
1108722.176
1113642.734
1118496.844
1123265.117
1127924.589
1132450.368
1136818.111
1141006.919
1145001.861
1148795.154
1152384.483
1155768.263
1158949.415
1161977.17
1164977.142
1167792.586
936419.6746
948297.1134
947397.9622
948284.7614
950485.5848
953142.6032
956147.5764
959497.3438
963153.7878
967071.9537
971212.3949
975540.7333
980025.977
984641.1354
989363.0292
994172.1563
999052.0099
1003989.176
1008972.712
1013993.811
1019045.561
1024122.355
1029219.55
1034333.305
1039460.288
1044597.303
1049741.122
1054888.512
1060035.878
1065179.067
1070313.388
1075433.245
1080531.817
1085600.719
1090629.288
1095603.806
1100506.911
1105317.146
1110009.408
1114556.669
1118932.579
1123114.574
1127086.628
1130840.628
1134375.118
1137692.235
1140805.706
1143782.94
1146746.296
1149462.058
920665.2226
932355.672
931435.0381
932231.0955
934310.6434
936829.7231
939679.8898
942860.4262
946337.0716
950068.5518
954019.024
958157.2388
962455.5578
966890.4337
971441.8226
976093.3907
980831.8568
985646.9471
990530.8852
995478.1196
1000484.91
1005548.811
1010668.383
1015842.947
1021072.153
1026355.613
1031692.832
1037082.882
1042524.042
1048013.696
1053547.993
1059121.491
1064726.8
1070354.004
1075989.931
1081617.258
1087213.711
1092751.585
1098198.179
1103517.687
1108674.29
1113635.898
1118377.449
1122882.343
1127140.15
1131139.86
1134870.711
1138366.571
1141756.801
1144917.657
917195.7953
916244.1183
916915.9098
918821.3384
921135.6
923751.5901
926670.8303
929862.6994
933289.3315
936917.7155
940719.1447
944668.438
948744.1259
952928.1161
957205.6028
961564.8919
965996.8872
970494.9023
975054.5616
979672.9704
984348.4363
989080.4752
993869.1515
998714.7453
1003617.621
1008578.048
1013595.667
1018669.411
1023797.407
1028976.357
1034201.532
1039466.165
1044760.978
1050073.282
1055386.039
1060676.632
1065916.213
1071069.857
1076098.278
1080961.31
1085622.288
1090052.219
1094232.352
1098153.97
1101817.797
1105248.642
1108541.798
1111826.933
1114744.401
)
;

boundaryField
{
    front_top
    {
        type            wedge;
    }
    front_middle
    {
        type            wedge;
    }
    front_bottom
    {
        type            wedge;
    }
    back_top
    {
        type            wedge;
    }
    back_middle
    {
        type            wedge;
    }
    back_bottom
    {
        type            wedge;
    }
    axis_top
    {
        type            symmetryPlane;
    }
    axis_middle
    {
        type            symmetryPlane;
    }
    axis_bottom
    {
        type            symmetryPlane;
    }
    wall_top
    {
        type            fixedFluxPressure;
        gradient        nonuniform 0();
        value           nonuniform 0();
    }
    wall_middle
    {
        type            fixedFluxPressure;
        gradient        uniform 0;
        value           nonuniform List<scalar> 
23
(
1348912.828
1342145.709
1335162.312
1327945.029
1320475.277
1312734.522
1304703.132
1296361.961
1287689.796
1278669.762
1269274.983
1259503.355
1249299.712
1238732.198
1227609.879
1216304.627
1204036.609
1192394.455
1178278.633
1167792.586
1149462.058
1144917.657
1114744.401
)
;
    }
    wall_bottom
    {
        type            fixedFluxPressure;
        gradient        nonuniform 0();
        value           nonuniform 0();
    }
    inlet
    {
        type            zeroGradient;
    }
    outlet
    {
        type            fixedValue;
        value           nonuniform 0();
    }
    procBoundary3to2
    {
        type            processor;
        value           nonuniform List<scalar> 
51
(
905754.5973
905754.5973
903414.7932
902418.6019
902953.538
904667.2619
906760.1638
909128.3709
911777.8153
914683.7127
917813.8589
921140.8408
924641.5481
928296.3719
932089.1842
936007.3354
940041.2587
944184.768
948433.949
952787.8191
957247.5107
961815.7126
966496.824
971296.4214
976220.5835
981275.9996
986469.5343
991807.6712
997296.3782
1002940.777
1008744.619
1014709.945
1020836.602
1027121.478
1033557.804
1040133.95
1046832.024
1053626.144
1060480.903
1067350.974
1074182.559
1080917.634
1087500.155
1093882.363
1100028.194
1105909.153
1111488.755
1116710.194
1121546.381
1126108.399
1130308.218
)
;
    }
    procBoundary3to4
    {
        type            processor;
        value           nonuniform List<scalar> 
51
(
1223464.14
1233983.468
1232308.893
1232808.944
1234197.466
1235790.097
1237605.791
1239653.009
1241905.244
1244337.161
1246926.641
1249652.684
1252495.553
1255437.02
1258460.159
1261550.007
1264693.105
1267877.896
1263563.043
1263563.043
1266848.108
1270147.431
1273455.636
1276768.544
1280083.093
1283397.125
1286709.308
1290018.906
1293325.648
1296629.624
1299930.971
1303229.757
1306525.666
1309817.523
1313102.829
1316376.832
1319631.489
1322854.571
1326029.11
1329133.665
1332144.639
1335039.722
1337801.734
1340421.271
1342897.319
1345234.961
1347440.832
1349524.856
1351530.316
1353554.705
1355480.975
)
;
    }
}


// ************************************************************************* //
