/*--------------------------------*- C++ -*----------------------------------*\
  =========                 |
  \\      /  F ield         | OpenFOAM: The Open Source CFD Toolbox
   \\    /   O peration     | Website:  https://openfoam.org
    \\  /    A nd           | Version:  7
     \\/     M anipulation  |
\*---------------------------------------------------------------------------*/
FoamFile
{
    version     2.0;
    format      ascii;
    class       surfaceScalarField;
    location    "0.0012";
    object      phi;
}
// * * * * * * * * * * * * * * * * * * * * * * * * * * * * * * * * * * * * * //

dimensions      [1 0 -1 0 0 0 0];

internalField   nonuniform List<scalar> 
2260
(
-2.920332077e-13
7.499023549e-11
-1.143434399e-12
2.191766349e-10
-2.514159978e-12
3.54526635e-10
-4.360464002e-12
4.80938123e-10
-6.635719097e-12
5.984064399e-10
-9.291597457e-12
7.069951713e-10
-1.2278368e-11
8.068188973e-10
-1.55455066e-11
8.980398372e-10
-1.904214005e-11
9.808599462e-10
-2.271752212e-11
1.055513201e-09
-2.652132394e-11
1.122258981e-09
-3.040393691e-11
1.181376572e-09
-3.431694248e-11
1.233160266e-09
-3.821341989e-11
1.277915176e-09
-4.204812016e-11
1.315953526e-09
-4.57778419e-11
1.34759155e-09
-4.936163802e-11
1.373147053e-09
1.392937021e-09
-2.968313857e-13
7.528706688e-11
-1.161878647e-12
2.200416822e-10
-2.553333802e-12
3.559180901e-10
-4.425019252e-12
4.828098085e-10
-6.727564638e-12
6.007089854e-10
-9.409550669e-12
7.096771573e-10
-1.241827439e-11
8.09827621e-10
-1.570022672e-11
9.013217896e-10
-1.920182061e-11
9.843615402e-10
-2.286985574e-11
1.059181237e-09
-2.665200951e-11
1.126041135e-09
-3.049716918e-11
1.185221732e-09
-3.435603748e-11
1.237019134e-09
-3.818115412e-11
1.281740293e-09
-4.192733832e-11
1.31969971e-09
-4.555207348e-11
1.351216285e-09
-4.901551933e-11
1.376610499e-09
-5.22808444e-11
1.396202346e-09
-5.531441965e-11
1.410309178e-09
-5.808569934e-11
1.419243632e-09
-6.056739065e-11
1.423312279e-09
-6.273547468e-11
1.422814087e-09
-6.45690733e-11
1.418038577e-09
-6.605039039e-11
1.409264342e-09
-6.716447921e-11
1.396757548e-09
-6.789917066e-11
1.38077025e-09
-6.824489187e-11
1.361538532e-09
-6.819437707e-11
1.339280649e-09
-6.774250989e-11
1.314194471e-09
-6.688626331e-11
1.286455274e-09
-6.562450431e-11
1.256212052e-09
-6.395775302e-11
1.223583589e-09
-6.188858951e-11
1.188653868e-09
-5.942170456e-11
1.151465528e-09
-5.656449421e-11
1.112012464e-09
-5.33278922e-11
1.070231207e-09
-4.972792747e-11
1.025991583e-09
-4.578760213e-11
9.790880774e-10
-4.153936243e-11
9.292350539e-10
-3.702821872e-11
8.760679952e-10
-3.231420684e-11
8.191528286e-10
-2.747504179e-11
7.580043726e-10
-2.260753553e-11
6.921107331e-10
-1.782848883e-11
6.209595071e-10
-1.32748633e-11
5.440628254e-10
-9.103193631e-12
4.609751156e-10
-5.488837797e-12
3.713052838e-10
-2.625060652e-12
2.747371914e-10
-7.21389524e-13
1.710753277e-10
6.023362193e-11
-3.047647575e-13
7.559183163e-11
-1.19258733e-12
2.209295047e-10
-2.619372368e-12
3.573448752e-10
-4.535994691e-12
4.847264308e-10
-6.889782025e-12
6.030627726e-10
-9.625613798e-12
7.124129892e-10
-1.268702205e-11
8.128890294e-10
-1.601690528e-11
9.046516732e-10
-1.95582496e-11
9.879028846e-10
-2.325477435e-11
1.062877761e-09
-2.705146468e-11
1.129837825e-09
-3.089520264e-11
1.18906547e-09
-3.473491823e-11
1.24085885e-09
-3.852215078e-11
1.285527525e-09
-4.221138638e-11
1.323388946e-09
-4.576016939e-11
1.354765068e-09
-4.912947892e-11
1.379979809e-09
-5.228364231e-11
1.39935651e-09
-5.519061442e-11
1.41321615e-09
-5.782190898e-11
1.421874927e-09
-6.015271807e-11
1.425643088e-09
-6.216160789e-11
1.424822977e-09
-6.38304672e-11
1.419707437e-09
-6.514441507e-11
1.41057829e-09
-6.609153178e-11
1.397704665e-09
-6.666259811e-11
1.381341317e-09
-6.685103928e-11
1.361726973e-09
-6.665237405e-11
1.339081984e-09
-6.606425952e-11
1.313606356e-09
-6.508617246e-11
1.285477187e-09
-6.371926624e-11
1.254845146e-09
-6.196653251e-11
1.221830855e-09
-5.983250846e-11
1.186519844e-09
-5.732376618e-11
1.148956786e-09
-5.444952094e-11
1.109138218e-09
-5.122237189e-11
1.067004058e-09
-4.765964161e-11
1.022428852e-09
-4.378558132e-11
9.752140167e-10
-3.963332825e-11
9.250828004e-10
-3.524787242e-11
8.716825394e-10
-3.068832217e-11
8.145932784e-10
-2.603016534e-11
7.533462158e-10
-2.136626317e-11
6.874468311e-10
-1.68075624e-11
6.164008062e-10
-1.248276352e-11
5.397380265e-10
-8.537598817e-12
4.570299508e-10
-5.133827859e-12
3.679015127e-10
-2.448153924e-12
2.720515174e-10
-6.703692918e-13
1.69297543e-10
5.956325256e-11
-3.156520004e-13
7.590748363e-11
-1.234858051e-12
2.218487108e-10
-2.710812862e-12
3.5882083e-10
-4.691064775e-12
4.867066827e-10
-7.118961875e-12
6.054906698e-10
-9.935300878e-12
7.152293282e-10
-1.307928442e-11
8.160330129e-10
-1.648954818e-11
9.080619366e-10
-2.010504936e-11
9.915183856e-10
-2.38658332e-11
1.066638545e-09
-2.771363624e-11
1.133685628e-09
-3.159250328e-11
1.192944338e-09
-3.544915392e-11
1.2447155e-09
-3.923366854e-11
1.289312039e-09
-4.289942002e-11
1.327054698e-09
-4.640375552e-11
1.358269403e-09
-4.970772635e-11
1.38328378e-09
-5.277663262e-11
1.402425416e-09
-5.557972104e-11
1.416019239e-09
-5.809029342e-11
1.424385499e-09
-6.028563253e-11
1.427838427e-09
-6.214685633e-11
1.426684201e-09
-6.36586805e-11
1.421219261e-09
-6.480909028e-11
1.4117287e-09
-6.558924789e-11
1.398484823e-09
-6.599304619e-11
1.381745115e-09
-6.601686536e-11
1.361750792e-09
-6.565938657e-11
1.338724506e-09
-6.492130728e-11
1.312868278e-09
-6.380489308e-11
1.284360772e-09
-6.231399601e-11
1.253354249e-09
-6.045400671e-11
1.219970866e-09
-5.823202484e-11
1.184297862e-09
-5.565682383e-11
1.146381584e-09
-5.273949905e-11
1.106220893e-09
-4.949458809e-11
1.063759147e-09
-4.594103757e-11
1.018875302e-09
-4.210421454e-11
9.71377194e-10
-3.801814941e-11
9.209967356e-10
-3.372780187e-11
8.67392192e-10
-2.929148532e-11
8.101569619e-10
-2.478243127e-11
7.488371618e-10
-2.028983814e-11
6.829542379e-10
-1.591918971e-11
6.120301578e-10
-1.179163454e-11
5.356104715e-10
-8.043047209e-12
4.532813636e-10
-4.822929167e-12
3.646813948e-10
-2.293060017e-12
2.695216483e-10
-6.256285995e-13
1.676301116e-10
5.893762391e-11
-3.292055975e-13
7.623668922e-11
-1.287590404e-12
2.228070956e-10
-2.82533608e-12
3.603585757e-10
-4.886256327e-12
4.887676029e-10
-7.409388894e-12
6.080138023e-10
-1.033095717e-11
7.181508965e-10
-1.358547647e-11
8.192875322e-10
-1.710687655e-11
9.115833366e-10
-2.082958202e-11
9.95241091e-10
-2.468935413e-11
1.070498317e-09
-2.862412928e-11
1.137620404e-09
-3.257460246e-11
1.196894811e-09
-3.648487617e-11
1.248625774e-09
-4.030270259e-11
1.293129866e-09
-4.398010713e-11
1.330732102e-09
-4.747331397e-11
1.36176261e-09
-5.074336662e-11
1.386553832e-09
-5.375578846e-11
1.405437838e-09
-5.648076107e-11
1.418744211e-09
-5.889310711e-11
1.426797845e-09
-6.097199682e-11
1.429917317e-09
-6.270079368e-11
1.428412998e-09
-6.406676748e-11
1.422585235e-09
-6.506082152e-11
1.412722754e-09
-6.567715118e-11
1.399101152e-09
-6.591283446e-11
1.381980798e-09
-6.576748566e-11
1.361605444e-09
-6.524294728e-11
1.338199967e-09
-6.434297254e-11
1.311968303e-09
-6.30729777e-11
1.283090778e-09
-6.143996496e-11
1.251721236e-09
-5.945203336e-11
1.217982935e-09
-5.711883151e-11
1.18196466e-09
-5.44517791e-11
1.143714532e-09
-5.146430854e-11
1.103233423e-09
-4.817287949e-11
1.060467718e-09
-4.459839071e-11
1.015300813e-09
-4.076747985e-11
9.675462829e-10
-3.671519801e-11
9.169444535e-10
-3.248658575e-11
8.631635795e-10
-2.813923174e-11
8.05809608e-10
-2.374443975e-11
7.444423699e-10
-1.938804655e-11
6.785978447e-10
-1.517059023e-11
6.078127015e-10
-1.120636085e-11
5.31646242e-10
-7.622497794e-12
4.496975005e-10
-4.557609679e-12
3.616165066e-10
-2.160315383e-12
2.671243539e-10
-5.872322475e-13
1.660570284e-10
5.835039166e-11
-3.450146207e-13
7.65817039e-11
-1.349196969e-12
2.23811278e-10
-2.959478014e-12
3.619688568e-10
-5.115665781e-12
4.909237908e-10
-7.752431151e-12
6.106505677e-10
-1.080106919e-11
7.211995346e-10
-1.419112305e-11
8.226775861e-10
-1.785154838e-11
9.15243762e-10
-2.171188725e-11
9.991014298e-10
-2.570326153e-11
1.074489691e-09
-2.975938869e-11
1.141676531e-09
-3.381714439e-11
1.200952566e-09
-3.78172876e-11
1.252625917e-09
-4.170492155e-11
1.2970175e-09
-4.542996119e-11
1.334457142e-09
-4.894729767e-11
1.365279946e-09
-5.221701522e-11
1.38982355e-09
-5.520466925e-11
1.408425492e-09
-5.788078986e-11
1.421420331e-09
-6.022115952e-11
1.429138215e-09
-6.220650601e-11
1.431902664e-09
-6.382222153e-11
1.430028713e-09
-6.505786572e-11
1.423820879e-09
-6.590707686e-11
1.413571965e-09
-6.636688367e-11
1.399560959e-09
-6.643748788e-11
1.382051402e-09
-6.612180746e-11
1.361289763e-09
-6.542497668e-11
1.337503136e-09
-6.435407739e-11
1.310897404e-09
-6.291780765e-11
1.281654508e-09
-6.112618511e-11
1.249929613e-09
-5.899069267e-11
1.215847442e-09
-5.652382709e-11
1.179497795e-09
-5.373965213e-11
1.140930357e-09
-5.065440394e-11
1.100148174e-09
-4.728679304e-11
1.057100107e-09
-4.365969836e-11
1.011673719e-09
-3.980153154e-11
9.636881164e-10
-3.574825978e-11
9.128911818e-10
-3.154543244e-11
8.589607523e-10
-2.725003506e-11
8.015142106e-10
-2.293171456e-11
7.401240494e-10
-1.867351125e-11
6.743396415e-10
-1.457152675e-11
6.037107169e-10
-1.073415185e-11
5.27808867e-10
-7.280880241e-12
4.462442289e-10
-4.340894243e-12
3.586765205e-10
-2.051396319e-12
2.648348559e-10
-5.556268121e-13
1.645612589e-10
5.779476491e-11
-3.624728526e-13
7.694417674e-11
-1.41730733e-12
2.248661125e-10
-3.10807421e-12
3.636596237e-10
-5.370628635e-12
4.931863451e-10
-8.135156937e-12
6.134150959e-10
-1.132817713e-11
7.243925547e-10
-1.487415518e-11
8.26223564e-10
-1.869694958e-11
9.190665563e-10
-2.272109822e-11
1.003125578e-09
-2.687293301e-11
1.078641526e-09
-3.108153305e-11
1.14588513e-09
-3.527961115e-11
1.205150644e-09
-3.940421102e-11
1.256750517e-09
-4.33973234e-11
1.301010612e-09
-4.720614375e-11
1.338265962e-09
-5.07836591e-11
1.368857462e-09
-5.408863548e-11
1.393128526e-09
-5.708565796e-11
1.411422514e-09
-5.974530583e-11
1.424079979e-09
-6.204385494e-11
1.431436764e-09
-6.396302929e-11
1.433821838e-09
-6.54896271e-11
1.431555311e-09
-6.661527948e-11
1.424946531e-09
-6.733597754e-11
1.414292663e-09
-6.765150511e-11
1.399876487e-09
-6.756500378e-11
1.381964901e-09
-6.708251083e-11
1.36080727e-09
-6.621244956e-11
1.336633075e-09
-6.496532844e-11
1.309650283e-09
-6.335329409e-11
1.280042474e-09
-6.138971186e-11
1.247966031e-09
-5.908923207e-11
1.213546962e-09
-5.646779715e-11
1.176876359e-09
-5.354247024e-11
1.13800503e-09
-5.033220715e-11
1.096937912e-09
-4.685857028e-11
1.05362647e-09
-4.314657898e-11
1.007961727e-09
-3.922667716e-11
9.597682146e-10
-3.513606371e-11
9.088005687e-10
-3.092104108e-11
8.547457298e-10
-2.663833595e-11
7.972315055e-10
-2.235637224e-11
7.358420856e-10
-1.815586615e-11
6.701391352e-10
-1.412928728e-11
5.99684138e-10
-1.038010596e-11
5.240596856e-10
-7.021405761e-12
4.428855285e-10
-4.174461948e-12
3.558295767e-10
-1.966946616e-12
2.626273407e-10
-5.309023408e-13
1.631252147e-10
5.726386265e-11
-3.807325492e-13
7.732490929e-11
-1.488646725e-12
2.259740266e-10
-3.264085874e-12
3.654350629e-10
-5.639212692e-12
4.955614721e-10
-8.539894837e-12
6.163157782e-10
-1.188818128e-11
7.277408412e-10
-1.560378987e-11
8.299391728e-10
-1.960569924e-11
9.230684659e-10
-2.381350557e-11
1.007333385e-09
-2.814871409e-11
1.082976734e-09
-3.253578698e-11
1.150272204e-09
-3.690308674e-11
1.209517944e-09
-4.118366698e-11
1.261031097e-09
-4.53157999e-11
1.305142745e-09
-4.92437371e-11
1.342193899e-09
-5.291777788e-11
1.372531503e-09
-5.629474178e-11
1.39650549e-09
-5.933787414e-11
1.414465646e-09
-6.201689219e-11
1.426758997e-09
-6.430786353e-11
1.433727735e-09
-6.61929757e-11
1.43570695e-09
-6.765999982e-11
1.433022335e-09
-6.870200741e-11
1.425988539e-09
-6.931684188e-11
1.414907498e-09
-6.950652687e-11
1.400066172e-09
-6.927704395e-11
1.381735418e-09
-6.863734133e-11
1.360167568e-09
-6.759904907e-11
1.335594783e-09
-6.617592193e-11
1.308227155e-09
-6.438349326e-11
1.278250045e-09
-6.223881146e-11
1.245821349e-09
-5.975990885e-11
1.21106806e-09
-5.696601585e-11
1.174082467e-09
-5.387772028e-11
1.134916735e-09
-5.051702465e-11
1.093577217e-09
-4.690843264e-11
1.050017878e-09
-4.30796078e-11
1.004132902e-09
-3.906311138e-11
9.557517178e-10
-3.489791671e-11
9.046353737e-10
-3.063128554e-11
8.504790984e-10
-2.632011535e-11
7.929203349e-10
-2.203225022e-11
7.315542202e-10
-1.784665114e-11
6.65953536e-10
-1.385305453e-11
5.956905413e-10
-1.015104491e-11
5.203576759e-10
-6.848742542e-12
4.395832261e-10
-4.061137583e-12
3.530419717e-10
-1.90835836e-12
2.604745615e-10
-5.134726822e-13
1.61730329e-10
5.675039008e-11
-3.986551129e-13
7.772356439e-11
-1.558787867e-12
2.271341593e-10
-3.417914007e-12
3.672941889e-10
-5.904925477e-12
4.980484835e-10
-8.942198986e-12
6.193530518e-10
-1.244778211e-11
7.312464243e-10
-1.633733531e-11
8.33828726e-10
-2.052553973e-11
9.272566703e-10
-2.492756763e-11
1.011735413e-09
-2.946044071e-11
1.087509608e-09
-3.404425225e-11
1.154856015e-09
-3.860300113e-11
1.214076693e-09
-4.30655192e-11
1.265493615e-09
-4.736632268e-11
1.309443549e-09
-5.144603494e-11
1.346273611e-09
-5.525194202e-11
1.37633741e-09
-5.873816584e-11
1.399991714e-09
-6.186587793e-11
1.417593359e-09
-6.460329613e-11
1.429496416e-09
-6.692550984e-11
1.436049949e-09
-6.88142412e-11
1.437595682e-09
-7.025744286e-11
1.434465537e-09
-7.124903157e-11
1.426980127e-09
-7.178809966e-11
1.415446565e-09
-7.187850061e-11
1.400156573e-09
-7.152824161e-11
1.381385159e-09
-7.074881946e-11
1.359388145e-09
-6.955488845e-11
1.334400852e-09
-6.796336461e-11
1.306635631e-09
-6.599307915e-11
1.27627976e-09
-6.366446437e-11
1.243492735e-09
-6.0999309e-11
1.208402904e-09
-5.802027766e-11
1.171103435e-09
-5.475143496e-11
1.131647892e-09
-5.121829493e-11
1.090044076e-09
-4.744840338e-11
1.046247987e-09
-4.347254157e-11
1.000157041e-09
-3.932568418e-11
9.516048608e-10
-3.504894059e-11
9.0035863e-10
-3.069089547e-11
8.461210533e-10
-2.630926376e-11
7.885387036e-10
-2.197182147e-11
7.272167782e-10
-1.775659521e-11
6.617383099e-10
-1.37515677e-11
5.91685514e-10
-1.005369079e-11
5.166597992e-10
-6.767578618e-12
4.36297114e-10
-4.003759608e-12
3.502781529e-10
-1.876900825e-12
2.583477029e-10
-5.036251397e-13
1.603570535e-10
5.624676499e-11
-4.147153019e-13
7.813827977e-11
-1.621792292e-12
2.283412364e-10
-3.556556779e-12
3.692289535e-10
-6.145583305e-12
5.0063751e-10
-9.308828712e-12
6.225162971e-10
-1.296161194e-11
7.348992075e-10
-1.701653985e-11
8.378836538e-10
-2.138504972e-11
9.316251801e-10
-2.597887411e-11
1.016329237e-09
-3.071138537e-11
1.092242119e-09
-3.54986789e-11
1.159643309e-09
-4.026082402e-11
1.218838838e-09
-4.492275024e-11
1.270155541e-09
-4.941498059e-11
1.313935779e-09
-5.367431597e-11
1.350532947e-09
-5.76444245e-11
1.380307519e-09
-6.127631712e-11
1.403623607e-09
-6.45281805e-11
1.420845222e-09
-6.736579774e-11
1.432334033e-09
-6.976242837e-11
1.43844658e-09
-7.169845814e-11
1.439531711e-09
-7.316107281e-11
1.435928151e-09
-7.4143944e-11
1.427962999e-09
-7.46465462e-11
1.415949168e-09
-7.467381899e-11
1.400183846e-09
-7.423517731e-11
1.380946517e-09
-7.334413226e-11
1.3584971e-09
-7.201759812e-11
1.333074318e-09
-7.027531657e-11
1.30489335e-09
-6.813931654e-11
1.27414376e-09
-6.563322276e-11
1.240986641e-09
-6.278227159e-11
1.205551953e-09
-5.961294928e-11
1.167934113e-09
-5.615272638e-11
1.128187669e-09
-5.243085054e-11
1.0863222e-09
-4.8478256e-11
1.042295392e-09
-4.432894884e-11
9.960077333e-10
-4.00208179e-11
9.472967294e-10
-3.559745656e-11
8.959352686e-10
-3.110938771e-11
8.416329846e-10
-2.661562918e-11
7.840449448e-10
-2.218461412e-11
7.227857629e-10
-1.789436351e-11
6.574480593e-10
-1.383221601e-11
5.876233666e-10
-1.009394201e-11
5.129215255e-10
-6.78224055e-12
4.329854129e-10
-4.005146397e-12
3.475010589e-10
-1.874180803e-12
2.562167373e-10
-5.019699076e-13
1.589848426e-10
5.574479496e-11
-4.268721921e-13
7.856515195e-11
-1.6697012e-12
2.295840654e-10
-3.662714441e-12
3.712219667e-10
-6.331716602e-12
5.033065122e-10
-9.595670923e-12
6.257802515e-10
-1.336900726e-11
7.386725438e-10
-1.756309542e-11
8.42077742e-10
-2.208779677e-11
9.361498815e-10
-2.685287561e-11
1.021094316e-09
-3.176932901e-11
1.097158572e-09
-3.675047337e-11
1.164624453e-09
-4.171328969e-11
1.223801654e-09
-4.657917247e-11
1.275021424e-09
-5.12748815e-11
1.318631488e-09
-5.573341658e-11
1.354991482e-09
-5.98945672e-11
1.384468669e-09
-6.370530048e-11
1.40743434e-09
-6.712033504e-11
1.424260256e-09
-7.010207377e-11
1.435315771e-09
-7.262076101e-11
1.440965267e-09
-7.465417862e-11
1.441565128e-09
-7.61876867e-11
1.437461659e-09
-7.721355016e-11
1.428988862e-09
-7.773049374e-11
1.416466111e-09
-7.774318587e-11
1.400196538e-09
-7.726157987e-11
1.380464911e-09
-7.630035861e-11
1.357535879e-09
-7.487802028e-11
1.331651979e-09
-7.301637956e-11
1.303031709e-09
-7.073997837e-11
1.271867358e-09
-6.807560995e-11
1.238322272e-09
-6.505159151e-11
1.202527935e-09
-6.169789222e-11
1.164580414e-09
-5.804579706e-11
1.124535574e-09
-5.412799191e-11
1.082404395e-09
-4.997927433e-11
1.038146674e-09
-4.56369879e-11
9.916654466e-10
-4.114242127e-11
9.428021627e-10
-3.65419523e-11
8.913347997e-10
-3.188858284e-11
8.36979615e-10
-2.724340452e-11
7.793997668e-10
-2.26762554e-11
7.18218614e-10
-1.826614864e-11
6.530379526e-10
-1.410104944e-11
5.834582675e-10
-1.027698059e-11
5.090974568e-10
-6.896626746e-12
4.296050593e-10
-4.067661305e-12
3.446720935e-10
-1.901003196e-12
2.540500791e-10
-5.084052622e-13
1.575922445e-10
5.523638939e-11
-4.324557415e-13
7.899760769e-11
-1.692115436e-12
2.308437251e-10
-3.713756609e-12
3.732436079e-10
-6.424370566e-12
5.060171261e-10
-9.744425691e-12
6.291003065e-10
-1.358976209e-11
7.425178802e-10
-1.787309969e-11
8.463610795e-10
-2.250519193e-11
9.407819737e-10
-2.739615389e-11
1.025985278e-09
-3.245665341e-11
1.102219072e-09
-3.759909666e-11
1.169766896e-09
-4.273859511e-11
1.228941153e-09
-4.779400599e-11
1.280076835e-09
-5.268917521e-11
1.323526657e-09
-5.735337861e-11
1.359655686e-09
-6.172243665e-11
1.388837727e-09
-6.573900428e-11
1.411450907e-09
-6.935330836e-11
1.427874561e-09
-7.252338887e-11
1.438485852e-09
-7.521533685e-11
1.443657215e-09
-7.740304853e-11
1.44375284e-09
-7.906838204e-11
1.439126993e-09
-8.020057923e-11
1.430121059e-09
-8.079624314e-11
1.417061775e-09
-8.085841094e-11
1.400258705e-09
-8.039612642e-11
1.380002627e-09
-7.942375719e-11
1.35656351e-09
-7.796035422e-11
1.330188576e-09
-7.602894482e-11
1.3011003e-09
-7.365577724e-11
1.269494191e-09
-7.086984128e-11
1.235536336e-09
-6.770242994e-11
1.199360523e-09
-6.418643886e-11
1.161064422e-09
-6.035676466e-11
1.1207059e-09
-5.624965253e-11
1.078297283e-09
-5.190365147e-11
1.033800674e-09
-4.735976539e-11
9.871215612e-10
-4.266291981e-11
9.381053178e-10
-3.786279264e-11
8.865346728e-10
-3.30154706e-11
8.321322928e-10
-2.818467787e-11
7.745689741e-10
-2.34426461e-11
7.134765827e-10
-1.887056007e-11
6.484658669e-10
-1.455845288e-11
5.791461605e-10
-1.060430293e-11
5.051433069e-10
-7.112742579e-12
4.261134989e-10
-4.193538495e-12
3.417528895e-10
-1.959633012e-12
2.518161738e-10
-5.244239422e-13
1.561570354e-10
5.471196499e-11
-4.280264949e-13
7.942563417e-11
-1.67562288e-12
2.320913215e-10
-3.680323529e-12
3.752483086e-10
-6.373048029e-12
5.087098507e-10
-9.679042173e-12
6.324063008e-10
-1.351900867e-11
7.463578469e-10
-1.781035997e-11
8.50652431e-10
-2.246818792e-11
9.454398017e-10
-2.740623368e-11
1.030923324e-09
-3.253782762e-11
1.107350666e-09
-3.777693388e-11
1.175006002e-09
-4.303906294e-11
1.234203282e-09
-4.824256254e-11
1.285280335e-09
-5.330921492e-11
1.32859331e-09
-5.816559013e-11
1.36451206e-09
-6.274356396e-11
1.393415701e-09
-6.698138459e-11
1.415688728e-09
-7.082416964e-11
1.431717346e-09
-7.422454304e-11
1.441886226e-09
-7.714291905e-11
1.446575591e-09
-7.95478111e-11
1.446157732e-09
-8.141578352e-11
1.440994965e-09
-8.273136952e-11
1.431436645e-09
-8.348672933e-11
1.417817135e-09
-8.36813673e-11
1.400453343e-09
-8.332168011e-11
1.379642939e-09
-8.241996513e-11
1.355661795e-09
-8.099413277e-11
1.328762744e-09
-7.906694083e-11
1.299173108e-09
-7.666511217e-11
1.267092362e-09
-7.381890388e-11
1.232690128e-09
-7.056145718e-11
1.196103077e-09
-6.692833362e-11
1.157431299e-09
-6.295718415e-11
1.11673475e-09
-5.868787731e-11
1.074027976e-09
-5.416237229e-11
1.029275168e-09
-4.942560544e-11
9.82384794e-10
-4.45261746e-11
9.332058865e-10
-3.951744444e-11
8.815259428e-10
-3.445918663e-11
8.270740356e-10
-2.941843873e-11
7.695282263e-10
-2.447073816e-11
7.085288821e-10
-1.970063934e-11
6.436957682e-10
-1.52016006e-11
5.746471217e-10
-1.10753196e-11
5.010170259e-10
-7.430607543e-12
4.224687869e-10
-4.38194614e-12
3.38704228e-10
-2.047683713e-12
2.494819112e-10
-5.476675227e-13
1.546570191e-10
5.416429706e-11
-4.092029366e-13
7.983483719e-11
-1.603084523e-12
2.332852031e-10
-3.524889498e-12
3.771701136e-10
-6.113265558e-12
5.112982268e-10
-9.302201139e-12
6.355952363e-10
-1.302182616e-11
7.50077472e-10
-1.719889318e-11
8.548294981e-10
-2.175737886e-11
9.499982875e-10
-2.661901004e-11
1.035784955e-09
-3.170389826e-11
1.112435554e-09
-3.693133162e-11
1.180233436e-09
-4.222069263e-11
1.239492643e-09
-4.749212939e-11
1.290551772e-09
-5.266781339e-11
1.333768994e-09
-5.767270984e-11
1.369516957e-09
-6.243593579e-11
1.398178927e-09
-6.689129372e-11
1.420144086e-09
-7.097840946e-11
1.435804462e-09
-7.464364577e-11
1.445551461e-09
-7.784035258e-11
1.449772297e-09
-8.052973715e-11
1.448847117e-09
-8.268095457e-11
1.443146183e-09
-8.427151475e-11
1.433027205e-09
-8.528676091e-11
1.418832381e-09
-8.572018153e-11
1.400886764e-09
-8.557262227e-11
1.37949538e-09
-8.485224068e-11
1.354941413e-09
-8.357351676e-11
1.32748402e-09
-8.175665283e-11
1.297356244e-09
-7.942715676e-11
1.264762866e-09
-7.661490489e-11
1.229877876e-09
-7.335344407e-11
1.192841616e-09
-6.967987185e-11
1.153757727e-09
-6.563392561e-11
1.112688804e-09
-6.125820436e-11
1.069652255e-09
-5.659791566e-11
1.02461488e-09
-5.170168775e-11
9.774885664e-10
-4.662186574e-11
9.281260648e-10
-4.141590805e-11
8.763199851e-10
-3.614757961e-11
8.218057071e-10
-3.088812906e-11
7.642687758e-10
-2.571740842e-11
7.033581617e-10
-2.072466484e-11
6.387030247e-10
-1.600853818e-11
5.699309949e-10
-1.167657579e-11
4.966850633e-10
-7.84428396e-12
4.186364949e-10
-4.633649471e-12
3.354935933e-10
-2.171042808e-12
2.470193043e-10
-5.837748659e-13
1.530697511e-10
5.35805221e-11
-3.704910691e-13
8.020532824e-11
-1.453037137e-12
2.343677492e-10
-3.200473983e-12
3.789175504e-10
-5.563841532e-12
5.136615943e-10
-8.491209001e-12
6.385226038e-10
-1.192767512e-11
7.53513938e-10
-1.581528371e-11
8.587171066e-10
-2.009282589e-11
9.542758296e-10
-2.469582732e-11
1.040387956e-09
-2.955675215e-11
1.117296479e-09
-3.460541029e-11
1.185282094e-09
-3.976936006e-11
1.244656593e-09
-4.497478375e-11
1.295757195e-09
-5.014733579e-11
1.338941546e-09
-5.521320895e-11
1.374582831e-09
-6.010003399e-11
1.403065752e-09
-6.473835644e-11
1.424782408e-09
-6.9062422e-11
1.440128527e-09
-7.301146728e-11
1.449500507e-09
-7.653071035e-11
1.453291541e-09
-7.95721336e-11
1.45188854e-09
-8.209516325e-11
1.445669212e-09
-8.406715482e-11
1.434999197e-09
-8.546389193e-11
1.420229118e-09
-8.626949218e-11
1.401692364e-09
-8.647625588e-11
1.379702144e-09
-8.608459094e-11
1.354549748e-09
-8.510246707e-11
1.326501896e-09
-8.354491938e-11
1.295798696e-09
-8.14332632e-11
1.26265121e-09
-7.879464316e-11
1.227239256e-09
-7.566120914e-11
1.189708182e-09
-7.206945568e-11
1.150165973e-09
-6.805999606e-11
1.108679345e-09
-6.367694612e-11
1.065269205e-09
-5.896803652e-11
1.01990597e-09
-5.398482951e-11
9.725053594e-10
-4.87832613e-11
9.229244965e-10
-4.342480819e-11
8.709615319e-10
-3.797741943e-11
8.163583181e-10
-3.251691436e-11
7.588082702e-10
-2.712825446e-11
6.979695013e-10
-2.190635398e-11
6.334811239e-10
-1.695631843e-11
5.649809591e-10
-1.239337086e-11
4.921221156e-10
-8.342062904e-12
4.145851868e-10
-4.935335577e-12
3.320868658e-10
-2.313043362e-12
2.44397012e-10
-6.201495924e-13
1.513768575e-10
5.296037299e-11
-3.052127985e-13
8.051054106e-11
-1.199341128e-12
2.352618775e-10
-2.649647171e-12
3.803678565e-10
-4.625223074e-12
5.156371704e-10
-7.0948506e-12
6.409922315e-10
-1.002557498e-11
7.564446624e-10
-1.338193943e-11
8.620734711e-10
-1.712498318e-11
9.580188734e-10
-2.121144305e-11
1.044474416e-09
-2.559328265e-11
1.121678318e-09
-3.021749496e-11
1.189906306e-09
-3.502621218e-11
1.24946531e-09
-3.995737157e-11
1.300688355e-09
-4.494485404e-11
1.343929028e-09
-4.992000642e-11
1.379557983e-09
-5.481225466e-11
1.407958e-09
-5.955056237e-11
1.429520716e-09
-6.406505177e-11
1.444643016e-09
-6.828797186e-11
1.453723427e-09
-7.215527625e-11
1.457158845e-09
-7.560791061e-11
1.455341175e-09
-7.859320256e-11
1.448654504e-09
-8.106537315e-11
1.437471367e-09
-8.298672068e-11
1.422150466e-09
-8.432793758e-11
1.403033581e-09
-8.506868524e-11
1.380442892e-09
-8.519739035e-11
1.354678453e-09
-8.471119457e-11
1.3260157e-09
-8.361572405e-11
1.294703226e-09
-8.192445061e-11
1.260959936e-09
-7.9658094e-11
1.2249729e-09
-7.684426405e-11
1.186894352e-09
-7.351628979e-11
1.146837999e-09
-6.971315921e-11
1.104876214e-09
-6.547863516e-11
1.061034681e-09
-6.086155858e-11
1.015288894e-09
-5.591538996e-11
9.675591907e-10
-5.069908946e-11
9.17708196e-10
-4.527782457e-11
8.655402668e-10
-3.972385708e-11
8.108043505e-10
-3.411830483e-11
7.532027181e-10
-2.855217257e-11
6.924033687e-10
-2.312751173e-11
6.280564625e-10
-1.795801671e-11
5.598114636e-10
-1.316912738e-11
4.873332257e-10
-8.897467627e-12
4.103135264e-10
-5.289473079e-12
3.284788708e-10
-2.498749872e-12
2.416062886e-10
-6.809333591e-13
1.495590414e-10
5.227944074e-11
-2.054812227e-13
8.071602229e-11
-8.110545454e-13
2.358674508e-10
-1.804195884e-12
3.813609978e-10
-3.179007688e-12
5.17011982e-10
-4.932502026e-12
6.427457257e-10
-7.062045342e-12
7.585742058e-10
-9.563385515e-12
8.645748113e-10
-1.242872398e-11
9.608842118e-10
-1.564499896e-11
1.047690691e-09
-1.919262652e-11
1.125225946e-09
-2.304456979e-11
1.19375825e-09
-2.716598763e-11
1.253586728e-09
-3.15137826e-11
1.30503615e-09
-3.603741587e-11
1.348452661e-09
-4.067903318e-11
1.3841996e-09
-4.537493258e-11
1.4126539e-09
-5.005650851e-11
1.434202292e-09
-5.465194652e-11
1.449238455e-09
-5.90879445e-11
1.458159425e-09
-6.32913769e-11
1.461362277e-09
-6.719109825e-11
1.459240896e-09
-7.071967705e-11
1.452183083e-09
-7.381516819e-11
1.440566859e-09
-7.642244187e-11
1.424757739e-09
-7.849412916e-11
1.405105268e-09
-7.999179291e-11
1.381940555e-09
-8.088649798e-11
1.355573158e-09
-8.115914149e-11
1.326288344e-09
-8.080023629e-11
1.29434432e-09
-7.981017415e-11
1.259969874e-09
-7.819843378e-11
1.223361159e-09
-7.598307539e-11
1.184678994e-09
-7.319040496e-11
1.144045329e-09
-6.985395847e-11
1.101539768e-09
-6.601429277e-11
1.057195015e-09
-6.171831208e-11
1.010992913e-09
-5.701933467e-11
9.628602133e-10
-5.197754611e-11
9.126664073e-10
-4.666013342e-11
8.602228538e-10
-4.114280971e-11
8.052870264e-10
-3.551095071e-11
7.475708586e-10
-2.98610935e-11
6.867535111e-10
-2.430217505e-11
6.224975439e-10
-1.895663605e-11
5.544659242e-10
-1.396102427e-11
4.823376134e-10
-9.46623664e-12
4.058187384e-10
-5.637525772e-12
3.246501599e-10
-2.654570336e-12
2.386233332e-10
-7.121233363e-13
1.476165951e-10
5.156731905e-11
-6.233947775e-14
8.077836179e-11
-2.529974062e-13
2.360581089e-10
-5.864862138e-13
3.816944867e-10
-1.089793961e-12
5.175152899e-10
-1.796765921e-12
6.434526979e-10
-2.744366441e-12
7.595218063e-10
-3.969477465e-12
8.657999223e-10
-5.50579379e-12
9.624205281e-10
-7.381066077e-12
1.049565964e-09
-9.614944932e-12
1.127459825e-09
-1.221710453e-11
1.196360409e-09
-1.518589702e-11
1.25655552e-09
-1.850767675e-11
1.308357929e-09
-2.215651981e-11
1.352101504e-09
-2.609432949e-11
1.388137409e-09
-3.027152352e-11
1.416831094e-09
-3.462835626e-11
1.438559125e-09
-3.909616222e-11
1.45370626e-09
-4.35993401e-11
1.462662603e-09
-4.805746875e-11
1.465820406e-09
-5.238769523e-11
1.463571123e-09
-5.650671555e-11
1.456302103e-09
-6.033333945e-11
1.444393482e-09
-6.379070798e-11
1.428215108e-09
-6.6808443e-11
1.408123003e-09
-6.932378027e-11
1.384455892e-09
-7.128346344e-11
1.357532841e-09
-7.264467142e-11
1.327649552e-09
-7.337562425e-11
1.295075273e-09
-7.345584926e-11
1.260050099e-09
-7.287640861e-11
1.222781719e-09
-7.163928878e-11
1.183441874e-09
-6.975730882e-11
1.142163348e-09
-6.725319187e-11
1.09903565e-09
-6.415931947e-11
1.054101143e-09
-6.051687894e-11
1.007350472e-09
-5.63759579e-11
9.587192919e-10
-5.17953148e-11
9.080857638e-10
-4.684289587e-11
8.552704345e-10
-4.159689003e-11
8.000410202e-10
-3.614695709e-11
7.421209254e-10
-3.05958593e-11
6.812024131e-10
-2.506100552e-11
6.169626898e-10
-1.967603076e-11
5.490809494e-10
-1.459164824e-11
4.772532309e-10
-9.975484724e-12
4.012025748e-10
-6.01060008e-12
3.206852753e-10
-2.891018174e-12
2.355037516e-10
-8.119345736e-13
1.455375125e-10
5.075538611e-11
1.337316681e-13
8.064463012e-11
5.123052895e-13
2.356795352e-10
1.086515814e-12
3.811202763e-10
1.788181618e-12
5.168136241e-10
2.537212069e-12
6.427036673e-10
3.247168273e-12
7.588118501e-10
3.829494715e-12
8.652175958e-10
4.197790784e-12
9.620522322e-10
4.271712484e-12
1.049492042e-09
3.980289169e-12
1.127751248e-09
3.264772013e-12
1.197075926e-09
2.080810992e-12
1.257739481e-09
4.000184519e-13
1.310038722e-09
-1.788531779e-12
1.354290055e-09
-4.478353176e-12
1.390827231e-09
-7.645075964e-12
1.419997816e-09
-1.124738106e-11
1.44216143e-09
-1.522850239e-11
1.457687382e-09
-1.951755962e-11
1.46695166e-09
-2.403190592e-11
1.470334753e-09
-2.867987873e-11
1.468219095e-09
-3.336362663e-11
1.460985851e-09
-3.798198883e-11
1.449011845e-09
-4.243353207e-11
1.432666651e-09
-4.661963449e-11
1.412309105e-09
-5.044734194e-11
1.3882836e-09
-5.383141871e-11
1.360916918e-09
-5.669659716e-11
1.33051473e-09
-5.897940903e-11
1.297358085e-09
-6.062888299e-11
1.261699573e-09
-6.160762789e-11
1.223760463e-09
-6.189200088e-11
1.183726247e-09
-6.147193042e-11
1.141743278e-09
-6.035065161e-11
1.097914371e-09
-5.85440683e-11
1.052294559e-09
-5.608025184e-11