/*--------------------------------*- C++ -*----------------------------------*\
  =========                 |
  \\      /  F ield         | OpenFOAM: The Open Source CFD Toolbox
   \\    /   O peration     | Website:  https://openfoam.org
    \\  /    A nd           | Version:  7
     \\/     M anipulation  |
\*---------------------------------------------------------------------------*/
FoamFile
{
    version     2.0;
    format      ascii;
    class       volScalarField;
    location    "0.0012";
    object      rho;
}
// * * * * * * * * * * * * * * * * * * * * * * * * * * * * * * * * * * * * * //

dimensions      [1 -3 0 0 0 0 0];

internalField   nonuniform List<scalar> 
1167
(
944.4974153
944.4145834
944.2366396
943.9726536
943.6273445
943.204211
942.7066529
942.1380416
941.5013814
940.7999147
940.0370236
939.216334
938.341441
937.4161666
936.4448812
935.4314391
934.3805335
933.2962532
944.3170288
944.2328906
944.0521688
943.7843698
943.4338965
943.0048789
942.5006325
941.9246145
941.2801932
940.570802
939.7999856
938.9713746
938.0888494
937.1566438
936.1787975
935.1597743
934.1038663
933.0158116
931.8999799
930.7608458
929.6028647
928.4304464
927.2477128
926.0586025
924.8669569
923.676325
922.4900122
921.3111542
920.1424511
918.9864498
917.84539
916.7212272
915.6157873
914.5304611
913.4664297
912.4248162
911.4064852
910.411875
909.4416024
908.4958661
907.5748634
906.6785437
905.8069406
904.9596465
904.136577
903.3372351
902.561056
901.8075664
901.0761445
900.3660617
944.1347181
944.0492895
943.8660323
943.5942747
943.2388729
942.803928
942.2931573
941.7100304
941.0581047
940.3410122
939.5624488
938.7262568
937.836718
936.8978025
935.9139749
934.8896885
933.8295283
932.7379694
931.6198261
930.479489
929.3213463
928.1498268
926.969129
925.783231
924.5958538
923.4104784
922.2303725
921.05854
919.8976697
918.7503558
917.6186717
916.5044726
915.4093986
914.3349466
913.2822373
912.2521963
911.2456656
910.263128
909.3049201
908.3714658
907.4626675
906.5786555
905.7192202
904.8840569
904.0730403
903.2855857
902.5211535
901.7792913
901.0592964
900.3604706
943.9506483
943.8640522
943.6781129
943.4024208
943.0422549
942.6015073
942.0842309
941.4941586
940.8349308
940.1103761
939.3243984
938.4811555
937.5847259
936.6395361
935.6501576
934.6210655
933.5569576
932.4625839
931.3424886
930.2012382
929.0434434
927.8733711
926.6951514
925.5127156
924.329821
923.1499349
921.9763051
920.8117822
919.6589943
918.5203521
917.3979588
916.2937125
915.2090763
914.14535
913.1037383
912.085148
911.0901279
910.1193906
909.1730187
908.251461
907.354541
906.4824433
905.6347872
904.8113963
904.0119635
903.2359658
902.4828408
901.7521578
901.0431374
900.3551118
943.7649212
943.6770629
943.4884462
943.2090552
942.8439986
942.3976796
941.8740611
941.2771072
940.610765
939.8790346
939.085943
938.2357307
937.3327683
936.3817716
935.3870536
934.3536618
933.2860389
932.1890843
931.0675856
929.9259558
928.768757
927.6003805
926.4250108
925.2464693
924.0684456
922.8942973
921.7272323
920.5700983
919.4255295
918.295749
917.1827657
916.0883054
915.0140373
913.9610553
912.9303561
911.9230092
910.9394356
909.9801239
909.0454013
908.1353864
907.2501192
906.3895249
905.5533025
904.7413201
903.953097
903.1881709
902.4459716
901.7260527
901.0275998
900.3499627
943.5774768
943.4883671
943.2971784
943.0140989
942.6442199
942.1923511
941.6625629
941.0589528
940.3856715
939.6468754
938.846809
937.9899477
937.0809079
936.124175
935.1247177
934.0871105
933.0164446
931.9173877
930.794661
929.6529898
928.4968786
927.3306359
926.1583191
924.983854
923.8109315
922.6428103
921.482599
920.3330511
919.1966779
918.0757702
916.9722641
915.8877474
914.8236658
913.7813256
912.7615647
911.765191
910.7928905
909.8448164
908.9215064
908.0227881
907.1489029
906.2995253
905.4744821
904.6735394
903.8961958
903.1420007
902.4104038
901.7008652
901.0126172
900.345001
943.3883893
943.2981176
943.1044588
942.8175654
942.4431084
941.9856258
941.4497112
940.8395663
940.1594918
939.413805
938.607084
937.7438917
936.8288221
935.8668478
934.8627185
933.8214695
932.747861
931.6470278
930.5235758
929.3821155
928.2272531
927.0634307
925.8945623
924.7245284
923.5568762
922.3948792
921.2416356
920.0998348
918.9718847
917.8599168
916.7657939
915.6912297
914.6374516
913.6055435
912.5966343
911.6112294
910.6499493
909.7130648
908.8008558
907.9133048
907.0504871
906.2120792
905.3979779
904.6077722
903.8410209
903.0972594
902.3759581
901.6764869
900.9981248
900.3402052
943.1979404
943.1064704
942.9102023
942.6196231
942.2405495
941.7777198
941.2357179
940.6190962
939.9323814
939.1800692
938.3668193
937.4973328
936.5766268
935.6095482
934.6011149
933.5563281
932.4802953
931.3778323
930.2538162
929.1129677
927.9597691
926.7985035
925.6331939
924.4677782
923.3056596
922.15007
921.0039417
919.86989
918.7504158
917.6475174
916.5629127
915.4981343
914.4546414
913.4332771
912.4349938
911.4605028
910.5100864
909.5842509
908.6829847
907.8064507
906.9544782
906.1268455
905.3234477
904.5437445
903.7873402
903.0537717
902.3424861
901.6528124
900.9840594
900.3355542
943.0060371
942.9133449
942.7144898
942.4204196
942.0366289
941.5685198
941.0206266
940.3977067
939.7044468
938.9455665
938.1259037
937.2504692
936.3242757
935.3522667
934.3398044
933.291768
932.213381
931.1096952
929.985386
928.845221
927.6938655
926.5354766
925.3740474
924.2133548
923.0568098
921.9077306
920.7689007
919.6428285
918.5318288
917.4379409
916.3629028
915.3080668
914.2746738
913.2638236
912.2761678
911.312444
910.3728992
909.4578992
908.5674875
907.7017797
906.8604943
906.0435349
905.2505855
904.4811899
903.7349278
903.0113631
902.3098437
901.6297386
900.9703593
900.3310275
942.8127255
942.7188237
942.5176324
942.2198995
941.8316864
941.3581415
940.8044503
940.175344
939.4756698
938.7103681
937.8846371
937.0033835
936.071754
935.0952314
934.0787325
933.0277522
931.9472959
930.8423861
929.7180527
928.5789161
927.4295095
926.2740345
925.1166124
923.9608792
922.810157
921.6676185
920.5360246
919.4180045
918.3156401
917.2308281
916.1652357
915.1203583
914.0971621
913.0966689
912.1196689
911.1665656
910.2378478
909.3335621
908.4539614
907.5988974
906.7681723
905.9617466
905.1790976
904.4198518
903.6835652
902.9698285
902.2778929
901.607167
900.9569655
900.3266053
942.6181834
942.52321
942.319537
942.0181856
941.6256256
941.1469798
940.587492
939.9522841
939.2463938
938.4749602
937.6431355
936.7561545
935.8195428
934.8384112
933.8183082
932.7643416
931.6820355
930.5762507
929.4518782
928.3138231
927.1665965
926.0142902
924.8609087
923.7100932
922.5652532
921.4294059
920.3052217
919.1951342
918.1013581
917.0256987
915.9696311
914.9345608
913.9215847
912.9314097
911.9649768
911.0225098
910.1044751
909.2108537
908.3419568
907.4974455
906.6772585
905.8811727
905.1087088
904.3594891
903.633098
902.928999
902.2465018
901.5850032
900.9438214
900.3222685
942.4225539
942.3264191
942.1202905
941.8156339
941.418597
940.9349802
940.3699745
939.7288576
939.016888
938.2393845
937.4016526
936.5093764
935.5677336
934.5823643
933.5586447
932.502107
931.4179109
930.3113174
929.1872102
928.0503526
926.9052363
925.7561232
924.6069282
923.4611795
922.3221699
921.1929037
920.0761253
918.9741024
917.8888684
916.8222299
915.7757103
914.7504526
913.7475538
912.7677766
911.8117341
910.8799074
909.9724261
909.0895036
908.2311395
907.3971058
906.5873854
905.8015435
905.0391743
904.2998852
903.5832895
902.8887202
902.2155494
901.5631601
900.9308742
900.3179996
942.2257796
942.1285227
941.9201474
941.6121706
941.2109867
940.7223966
940.1520702
939.5052618
938.7874427
938.0041526
937.1609679
936.2633818
935.3170044
934.3275799
933.3004989
932.2413919
931.155647
930.0482852
928.9243919
927.7888738
926.6460394
925.5000815
924.3549234
923.2141963
922.0810866
920.9584655
919.8488985
918.7548148
917.6781405
916.6204708
915.5833051
914.5678565
913.5749044
912.6054288
911.6597659
910.7384452
909.8414594
908.9691523
908.1212524
907.2977029
906.4983046
905.7226368
904.9702911
904.2409115
903.5339772
902.8488578
902.1849292
901.5415607
900.9180772
900.3137826
942.0279544
941.9297485
941.7192356
941.4079913
941.002943
940.5097921
939.9343013
939.2820915
938.5588071
937.7700783
936.9215577
936.0189928
935.0682714
934.0748837
933.044755
931.9832992
930.8959806
929.7880849
928.6645695
927.5302418
926.3896182
925.2468751
924.1058204
922.9699272
921.842478
920.7263985
919.6240628
918.5377201
917.4693591
916.4205859
915.3926454
914.3867827
913.4037867
912.4443541
911.5090433
910.5980382
909.7115647
908.8496699
908.0121518
907.1990305
906.4098621
905.6443011
904.901922
904.1823842
903.4850436
902.8093107
902.1545592
901.520144
900.9053925
900.3096043
941.8294126
941.7302194
941.5176088
941.2035245
940.7947235
940.2973912
939.7172319
939.0600594
938.3316764
937.5378457
936.6844606
935.7774794
934.8225655
933.8257759
932.7926405
931.7291656
930.6405333
929.5320237
928.4089669
927.2759833
926.1375016
924.9977361
923.8606353
922.7295349
921.6076332
920.4977002
919.4023303
918.3236068
917.2633159
916.2230961
915.2042497
914.2076745
913.2344094
912.2848819
911.3596831
910.4588491
909.582723
908.7311084
907.9039453
907.1010557
906.3220241
905.5664871
904.8340605
904.1242362
903.4364271
902.7700217
902.1243907
901.4988725
900.8927962
900.3054563
941.6300137
941.5299422
941.3155185
940.998928
940.5868739
940.0857093
939.5014267
938.839874
938.1069924
937.3087549
936.4512078
935.540155
934.5817524
933.5818227
932.5463307
931.4808756
930.3912139
929.2824415
928.159741
927.0280077
925.8916741
924.7548749
923.6214051
922.4947397
921.3781132
920.2741532
919.1853015
918.1137554
917.0612669
916.0292319
915.0190462
914.0315761
913.0675659
912.1277262
911.2122669
910.3214662
909.4553398
908.6137985
907.7968233
907.0039847
906.2349474
905.4893439
904.7667262
904.06652
903.388158
902.7310049
902.094426
901.477742
900.8802822
900.3013351
941.4298566
941.329097
941.1133259
940.7944986
940.3798844
939.8756201
939.2878802
938.6227546
937.8862838
937.0844759
936.2234029
935.3091777
934.3479562
933.3455734
932.3081653
931.2414323
930.1508583
929.0420208
927.9199718
926.7894875
925.6550484
924.5210166
923.3910174
922.2685127
921.156603
920.0581322
918.9754284
917.9105124
916.8652089
915.8409379
914.8388001
913.8599121
912.9047427
911.974059
911.0679389
910.1867403
909.3302516
908.4985555
907.6913605
906.9083109
906.1490359
905.4132015
904.7001753
904.0094334
903.3403852
902.6923689
902.0647409
901.4568015
900.8678771
900.2972483
941.2292039
941.1280048
940.9111103
940.5907903
940.1742545
939.6678616
939.0777728
938.4101682
937.6711533
936.8668624
936.0034723
935.0872268
934.1240565
933.1202861
932.0816831
931.0142758
929.9235281
928.8148762
927.6936232
926.5645354
925.4320755
924.3004547
923.1735203
922.0547748
920.9472032
919.8535064
918.7762289
917.7173331
916.6784448
915.6611284
914.6664401
913.6952469
912.7483046
911.8260056
910.9286833
910.0563715
909.2089878
908.3865953
907.5887117
906.8150272
906.0652103
905.3387276
904.6349912
903.9534462
903.2934758
902.6543879
902.0355277
901.4361726
900.8556445
900.293214
941.0281021
940.926641
940.7091788
940.3882904
939.9708037
939.463416
938.8723288
938.2037027
937.4636736
936.6585364
935.7944639
934.877533
933.9140354
932.9099808
931.8715167
930.8043007
929.7141607
928.6064635
927.4863838
926.3587996
925.2283348
924.0990972
922.9748769
921.8592543
920.7553781
919.6658326
918.5930353
917.5391704
916.5058094
915.4943089
914.5060228
913.5415429
912.6017447
911.6868744
910.7973539
909.9330231
909.0939831
908.2800024
907.4906958
906.7257343
905.9847348
905.2670446
904.5721045
903.8993175
903.2480365
902.6175348
902.0071401
901.4161006
900.8437274
900.2892776
940.8265905
940.7251985
940.5081139
940.1874518
939.770495
939.2636381
938.6732284
938.005496
937.2665674
936.4626521
935.5998293
934.6843388
933.7224095
932.7199641
931.6832158
930.6178331
929.5293957
928.4236381
927.3055673
926.1800169
925.0516366
923.9247404
922.8030252
921.6900721
920.5890261
919.5027304
918.4334804
917.383338
916.3542123
915.3473137
914.3638866
913.4047778
912.4706161
911.5618624
910.6786808
909.8210487
908.9890526
908.1822948
907.4004479
906.6432153
905.9100076
905.20022
904.5132592
903.8484839
903.2052134
902.5826838
901.980203
901.3969897
900.8323434
900.2855037
940.6248722
940.5240917
940.3080713
939.9889687
939.5741508
939.0699041
938.4824894
937.81807
937.0827596
936.2826687
935.423837
934.5126246
933.5547877
932.5565802
931.5237741
930.4623377
929.37764
928.2752335
927.1604188
926.0378733
924.9122363
923.7878053
922.6684961
921.5578276
920.4589616
919.3748236
918.307877
917.2601461
916.2335122
915.2294537
914.2490242
913.2933389
912.362848
911.4582154
910.5794162
909.7266237
908.8997365
908.0984191
907.322388
906.5712269
905.844323
905.1410615
904.4608165
903.8029024
903.166601
902.5511045
901.9556895
901.3795321
900.8219057
900.2820263
940.4231299
940.3233407
940.1094304
939.7936478
939.3828256
938.8836108
938.3019491
937.6438841
936.9154526
936.1226067
935.2714377
934.3678517
933.4176446
932.4270112
931.4014785
930.3468735
929.2686208
928.1720651
927.062454
925.9445397
924.8228838
923.7017437
922.5851515
921.476682
920.3795392
919.2966629
918.2307586
917.1838617
916.1578798
915.1545381
914.1748746
913.2200847
912.2907546
911.3875264
910.5104482
909.6598076
908.8353988
908.0369506
907.2642454
906.5167346
905.7938455
905.0949377
904.4193576
903.7663813
903.1352561
902.5251359
901.9352715
901.3648063
900.8129935
900.2790187
940.2213065
940.1231054
939.9127193
939.6019861
939.1977659
938.7062673
938.1336581
937.4856114
936.7680197
935.9867055
935.1474487
934.2559266
933.3179061
932.339151
931.325187
930.2814882
929.2134798
928.1262805
927.0249865
925.9143553
924.7988501
923.6827085
922.5699628
921.4642568
920.3688462
919.2867546
918.2208159
917.173179
916.1458746
915.1407905
914.1590933
913.2020985
912.2705543
911.3651839
910.4861583
909.6338816
908.8081771
908.0088524
907.2357676
906.4883467
905.7660612
905.0682746
904.3943275
903.7434739
903.1149313
902.5078098
901.921313
901.354524
900.8066436
900.2768195
939.9236882
939.7182333
939.4145859
939.0197208
938.5394292
937.9795537
937.3457556
936.6436847
935.8788025
935.0566153
934.1825653
933.2622113
932.3009007
931.3039866
930.2766267
929.2240379
928.1510997
927.0627627
925.9635668
924.8578822
923.7498857
922.6435903
921.5425504
920.4501083
919.3694326
918.3032982
917.2540721
916.2240106
915.2150132
914.2285173
913.2660795
912.3285125
911.4168446
910.5313605
909.6725908
908.8405842
908.0352413
907.2565082
906.5039476
905.7770776
905.0753144
904.3980343
903.7445136
903.1139797
902.5055444
901.9184092
901.3516499
900.8044506
900.2759103
)
;

boundaryField
{
    front_top
    {
        type            wedge;
    }
    front_middle
    {
        type            wedge;
    }
    front_bottom
    {
        type            wedge;
    }
    back_top
    {
        type            wedge;
    }
    back_middle
    {
        type            wedge;
    }
    back_bottom
    {
        type            wedge;
    }
    axis_top
    {
        type            symmetryPlane;
    }
    axis_middle
    {
        type            symmetryPlane;
    }
    axis_bottom
    {
        type            symmetryPlane;
    }
    wall_top
    {
        type            calculated;
        value           nonuniform 0();
    }
    wall_middle
    {
        type            calculated;
        value           uniform 900.0184441;
    }
    wall_bottom
    {
        type            calculated;
        value           nonuniform 0();
    }
    inlet
    {
        type            calculated;
        value           nonuniform 0();
    }
    outlet
    {
        type            calculated;
        value           nonuniform 0();
    }
    procBoundary3to2
    {
        type            processor;
        value           nonuniform List<scalar> 
51
(
940.0195145
940.0195145
939.7252044
939.5261395
939.2320394
938.8493474
938.3838636
937.8409958
937.226165
936.5447045
935.8017887
935.0026043
934.1522569
933.2559774
932.3187293
931.3455142
930.341226
929.3106434
928.2584136
927.1893005
926.107414
925.0170101
923.9222752
922.8267616
921.7341113
920.64773
919.5706563
918.5056484
917.4553431
916.4220711
915.4077314
914.414269
913.4430773
912.4955138
911.5726111
910.6751552
909.8036602
908.9586843
908.1402584
907.3484576
906.5832649
905.8443003
905.1311596
904.4433685
903.7803297
903.1413526
902.5255901
901.9322301
901.3602992
900.8089033
900.2770918
)
;
    }
    procBoundary3to4
    {
        type            processor;
        value           nonuniform List<scalar> 
51
(
944.6758156
944.5943076
944.4191821
944.1592375
943.8190216
943.4019441
942.9114247
942.3503016
941.7216156
941.0284162
940.2738932
939.461342
938.5943907
937.6767727
936.7122558
935.7051928
934.6595233
933.5797068
932.1832155
932.1832155
931.0459389
929.8886166
928.7156234
927.5311849
926.3392878
925.1438065
923.9482907
922.7560542
921.5702845
920.3937994
919.2291926
918.0788669
916.94484
915.8288492
914.7324623
913.6569983
912.6036354
911.5731561
910.5662673
909.5835188
908.6251477
907.6915428
906.7825236
905.8982944
905.0384455
904.2028297
903.3911237
902.6027117
901.8370997
901.0937515
900.3719083
)
;
    }
}


// ************************************************************************* //
