/*--------------------------------*- C++ -*----------------------------------*\
  =========                 |
  \\      /  F ield         | OpenFOAM: The Open Source CFD Toolbox
   \\    /   O peration     | Website:  https://openfoam.org
    \\  /    A nd           | Version:  7
     \\/     M anipulation  |
\*---------------------------------------------------------------------------*/
FoamFile
{
    version     2.0;
    format      ascii;
    class       volScalarField;
    location    "0.0012";
    object      T;
}
// * * * * * * * * * * * * * * * * * * * * * * * * * * * * * * * * * * * * * //

dimensions      [0 0 0 1 0 0 0];

internalField   nonuniform List<scalar> 
1167
(
443.4519056
443.5756008
443.8414024
444.2359133
444.7522897
445.3855606
446.1309442
446.9837355
447.9398074
448.9946974
450.1437466
451.381935
452.7042861
454.1054713
455.5793121
457.1203847
458.7219561
460.3781707
443.7213094
443.8470035
444.1170595
444.5174267
445.0417377
445.6840823
446.4398105
447.3040947
448.2722681
449.3395859
450.5011479
451.7519288
453.0865228
454.4989754
455.9836045
457.5340546
459.1441939
460.8071658
462.516625
464.2660116
466.0487363
467.8582176
469.6882557
471.5328729
473.3861816
475.2426894
477.0972288
478.9448454
480.7812194
482.6022302
484.4042025
486.1838777
487.938174
489.6646764
491.3612864
493.0259837
494.6571496
496.2538418
497.8148292
499.3395513
500.8274515
502.2783783
503.6920487
505.068902
506.4088613
507.7125293
508.9806301
510.2137495
511.4127269
512.5785878
443.9936916
444.1213628
444.3953148
444.8017622
445.3336635
445.9851561
446.7509941
447.626337
448.6062394
449.6856625
450.859482
452.1223551
453.4682684
454.8916633
456.386209
457.9455585
459.563124
461.2324389
462.946465
464.6987554
466.4828083
468.2919969
470.1199866
471.960721
473.8084821
475.6578678
477.503755
479.3413813
481.1664336
482.9747048
484.762772
486.5275265
488.2661754
489.9761304
491.6553847
493.3022306
494.9150843
496.4929321
498.0349932
499.5403465
501.0089129
502.4402511
503.8344748
505.1918604
506.5124007
507.7968449
509.0458807
510.2600631
511.4403678
512.5877748
444.2688088
444.3982754
444.6763467
445.0888447
445.628098
446.2885618
447.064493
447.9506613
448.9420016
450.0331838
451.2187727
452.4929501
453.8500083
455.2836953
456.7875119
458.3550695
459.9795992
461.6542017
463.3722387
465.1269795
466.9115635
468.7195965
470.5448324
472.3812721
474.2231254
476.0649964
477.9017779
479.7289344
481.5422361
483.3377552
485.1120136
486.8618274
488.5846771
490.2782843
491.9405056
493.5696605
495.1646341
496.7240442
498.247519
499.734099
501.1838351
502.5962004
503.9715895
505.3100738
506.6119451
507.8778567
509.1085371
510.3045096
511.4668793
512.5965803
444.5465117
444.6779174
444.9601054
445.3783074
445.9251104
446.5942082
447.3799978
448.2769077
449.2794166
450.3819393
451.5788574
452.8642281
454.2319012
455.6751812
457.1879551
458.7629557
460.3937912
462.073323
463.7945252
465.5508874
467.3356086
469.1420864
470.9639744
472.7954263
474.6307421
476.4646825
478.2921892
480.1087199
481.9100232
483.6924565
485.452683
487.1877855
488.8949128
490.572109
492.21756
493.8293245
495.406491
496.9480377
498.453201
499.9215547
501.3528033
502.7468424
504.1039404
505.4241003
506.7078998
507.9558973
509.1688377
510.3472739
511.4923722
512.6050415
444.8268933
444.9602237
445.2463749
445.6702716
446.2245296
446.9022389
447.697639
448.6049638
449.6183898
450.7321003
451.9401504
453.2362428
454.6138518
456.0666273
457.5874536
459.169774
460.8061973
462.4899248
464.2140195
465.9714763
467.7555658
469.5597972
471.3780049
473.204166
475.0325626
476.8580951
478.6758474
480.481413
482.2707241
484.0400232
485.7860799
487.5061896
489.1978518
490.8587699
492.4873797
494.0821578
495.6417686
497.165729
498.6529387
500.1034422
501.516622
502.8927816
504.2319868
505.5344086
506.8006629
508.0312929
509.2270144
510.3885374
511.5169553
512.6131946
445.1098455
445.2449689
445.5349346
445.9647198
446.5260748
447.2125004
448.0174572
448.9350261
449.9591623
451.0838096
452.3025212
453.608866
454.9963501
456.4578794
457.9866633
459.575434
461.2172943
462.9047182
464.6309301
466.3890864
468.172286
469.9738152
471.7877138
473.6080133
475.4292057
477.2461551
479.0539492
480.8482704
482.6252034
484.3812337
486.1132407
487.8183148
489.4942973
491.1392434
492.751124
494.328897
495.8713331
497.3777616
498.8474983
500.2803411
501.675943
503.0346081
504.3562915
505.6414558
506.8906229
508.1043623
509.2833603
510.4284774
511.5407349
512.6210753
445.3949496
445.5319221
445.8259151
446.261403
446.8299202
447.5246716
448.3391364
449.2668736
450.301502
451.4366983
452.6658935
453.9824471
455.3792206
456.8493046
458.3854934
459.9805615
461.6270689
463.3179645
465.0460432
466.8042759
468.5859357
470.3845393
472.1939427
474.0080733
475.8216316
477.6295335
479.4271147
481.2101638
482.9746103
484.7171409
486.4348581
488.1251349
489.7854412
491.4142122
493.0096997
494.5705325
496.0960237
497.5851257
499.0376257
500.4530331
501.831401
503.1728726
504.4774091
505.7456867
506.9781572
508.1753915
509.3381175
510.4672666
511.5638146
512.6287181
445.6823474
445.8212068
446.1191978
446.5601023
447.1359403
447.8389248
448.6626136
449.6002617
450.6452504
451.7909215
453.0304372
454.3566866
455.7625339
457.2409175
458.7840996
460.38503
462.03608
463.7298234
465.4593496
467.2175428
468.997378
470.7925496
472.5969451
474.4047268
476.2105708
478.0092447
479.7963046
481.567697
483.3196357
485.0487362
486.7520631
488.4272703
490.0721718
491.6847923
493.2638623
494.807969
496.3164826
497.7885834
499.2239717
500.6222361
501.983612
503.3080428
504.5958355
505.8475339
507.0636335
508.2446648
509.3915214
510.5050733
511.5862954
512.6361568
445.9719726
446.1127019
446.414319
446.8609033
447.4436274
448.1550889
448.9878716
449.9352733
450.9904371
452.1463732
453.3956997
454.7314605
456.1463134
457.6323711
459.1825647
460.7888951
462.4440539
464.1406469
465.8712045
467.6288209
469.4066593
471.1983313
472.9975093
474.7985598
476.5962834
478.3856631
480.16228
481.921881
483.6610369
485.3765823
487.0656888
488.725779
490.3551
491.9518001
493.5143877
495.0419845
496.5335744
497.9888522
499.4071838
500.7885858
502.1331621
503.4407671
504.7120465
505.9474139
507.1474071
508.3125167
509.4437977
510.5420592
511.6082744
512.6434239
446.2635613
446.4059556
446.7114207
447.1636244
447.7531285
448.4725723
449.3144565
450.2714946
451.3365452
452.50232
453.7615061
455.1066495
456.5298276
458.023712
459.5802632
461.1920624
462.8509952
464.5499009
466.2815093
468.0384614
469.8139382
471.6017048
473.3956005
475.1899703
476.9794648
478.7592974
480.5251801
482.2731581
483.999586
485.7014349
487.3761752
489.0213691
490.6350534
492.2158764
493.7621052
495.2731496
496.748031
498.1865514
499.5879852
500.9526597
502.280461
503.5715442
504.826489
506.0457191
507.2297298
508.3792229
509.4951617
510.5783786
511.6298444
512.6505505
446.5569013
446.7010968
447.0103748
447.4677333
448.0642197
448.7914591
449.6420344
450.6084285
451.6831696
452.8586995
454.1274728
455.4813518
456.9129369
458.4140886
459.9770209
461.5936558
463.2564244
464.9575391
466.6897252
468.4458268
470.2190405
472.002853
473.791227
475.5786689
477.3599991
479.1304402
480.8855771
482.6217058
484.3354594
486.0238011
487.6841199
489.3143903
490.9126472
492.4774483
494.0075844
495.5020544
496.9604209
498.3821147
499.766914
501.1149708
502.4261026
503.7008109
504.9395598
506.1428012
507.3109869
508.4450351
509.5458115
510.6141742
511.6510918
512.6575658
446.8520808
446.9980205
447.3108015
447.7733425
448.3763224
449.1113684
449.9703468
450.9457782
452.0298721
453.2147374
454.4924175
455.855061
457.2946081
458.8027528
460.3716785
461.9931463
463.659225
465.3624817
467.0953181
468.8503414
470.6210155
472.40092
474.1839907
475.96456
477.7376008
479.498532
481.2432103
482.9676689
484.6687016
486.3436
487.9897867
489.6051213
491.1881417
492.7370583
494.2511036
495.7291998
497.171131
498.5761198
499.9443841
501.2758019
502.570489
503.8289271
505.0515887
506.2388696
507.3914435
508.5101728
509.595921
510.6495721
511.6720932
512.6644958
447.1489609
447.2963868
447.6125106
448.08016
448.6892147
449.4314539
450.2986073
451.2826461
452.3755197
453.5692005
454.8556156
456.2265255
457.6734427
459.188441
460.7628794
462.3888386
464.0582597
465.76329
467.4965135
469.2506764
471.0189073
472.7947956
474.5724424
476.3464138
478.1115208
479.8630855
481.5972541
483.3103349
484.9990167
486.6605671
488.2928073
489.8935433
491.4612951
492.994724
494.4927071
495.9547208
497.3801764
498.7687754
500.1206264
501.4354862
502.7138687
503.9561383
505.1627982
506.3342231
507.4712906
508.5748011
509.6456244
510.6846723
511.6929109
512.6713621
447.4470419
447.5960127
447.9154226
448.3875429
449.0025101
449.7513775
450.6259649
451.6179547
452.719059
453.9210495
455.2154877
456.5938099
458.0478648
459.5688565
461.1487385
462.7786753
464.4510282
466.1579417
467.8914119
469.6444594
471.4103343
473.1825546
474.9549891
476.7224044
478.4797318
480.2225269
481.9465808
483.6484538
485.325147
486.9738719
488.5923536
490.1789466
491.7317711
493.2499157
494.7322055
496.1783542
497.587586
498.9599959
500.2954662
501.5940757
502.8562961
504.0825242
505.2731989
506.4289709
507.5506292
508.6390131
509.6950015
510.7195362
511.7135842
512.6781789
447.7465362
447.8968899
448.2191614
448.6952545
449.3153872
450.0703619
450.9515658
451.9506311
453.0590612
454.2683094
455.5697026
456.9549084
458.4150221
459.941597
461.5259149
463.1597536
464.8345827
466.5428169
468.2766682
470.0287198
471.7922022
473.560744
475.3284404
477.08983
478.8397754
480.5740448
482.2886605
483.9799955
485.6450976
487.2815563
488.8869447
490.4596631
491.9982989
493.5014878
494.9686637
496.3991527
497.7927056
499.1492471
500.4685948
501.7512361
502.9975165
504.2078418
505.3827583
506.5230272
507.6294092
508.7027858
509.7440483
510.7541707
511.734123
512.6849516
448.0472969
448.198749
448.5231844
449.0028485
449.627107
450.3870883
451.2739061
452.278828
453.3932063
454.6084399
455.9158147
457.3065257
458.771662
460.3027526
461.8908094
463.5274463
465.2045418
466.9137601
468.6475014
470.3985221
472.1599678
473.9251016
475.6882711
477.4440244
479.1874243
480.9138908
482.619615
484.3012412
485.955696
487.5805251
489.1737648
490.7334149
492.2584985
493.7475595
495.2002425
496.6157458
497.9941857
499.3352114
500.6390815
501.9061675
503.1368738
504.3315548
505.4910589
506.6160693
507.7073873
508.7659415
509.7926405
510.7884952
511.7544835
512.6916678
448.3489306
448.5011084
448.8273728
449.3094905
449.9369152
450.7004403
451.5911985
452.6003199
453.7190577
454.9386176
456.250123
457.6445657
459.1133729
460.6473206
462.2379769
463.8764458
465.554628
467.264396
468.9977539
470.7474629
472.5066862
474.2689121
476.0281334
477.7788248
479.5162204
481.2359569
482.9338779
484.6067121
486.2516945
487.866137
489.448142
490.9961023
492.5085817
493.9847201
495.423752
496.8253951
498.1895586
499.5159235
500.8050575
502.0572597
503.2728728
504.4525769
505.5971508
506.7073309
507.7839644
508.8280318
509.8404634
510.8223108
511.7745617
512.6982979
448.6513687
448.8040056
449.1312641
449.6144451
450.2435737
451.0089308
451.9015856
452.9126947
454.0334624
455.2548472
456.5679744
457.964085
459.4340514
460.9691244
462.5602853
464.1991997
465.8772032
467.586267
469.3185866
471.0667442
472.823645
474.5829301
476.3386748
478.0852253
479.8175522
481.5314676
483.2230099
484.8885516
486.525408
488.1312158
489.7036006
491.2413891
492.7429514
494.2076588
495.6346025
497.02381
498.3748954
499.6880139
500.9635774
502.2019171
503.4034605
504.5690825
505.699518
506.7955738
507.858149
508.8882832
509.8869379
510.8552148
511.7941223
512.7047671
448.9545526
449.1071509
449.433981
449.9170277
450.5456259
451.310508
452.2025185
453.2127036
454.3322765
455.5523193
456.8640945
458.25859
459.7267683
461.260008
462.8491846
464.4859423
466.1619937
467.86874
469.5986306
471.3443121
473.098647
474.8549511
476.6074402
478.3504559
480.0789708
481.7883861
483.474927
485.135156
486.7658503
488.3648735
489.930022
491.4597135
492.9527081
494.4080315
495.8251854
497.2039757
498.544038
499.8457946
501.1095646
502.335626
503.5247411
504.6777085
505.7953196
506.8784546
507.9280693
508.9452659
509.9310404
510.8865446
511.8128085
512.7109693
449.2581777
449.4099207
449.7352872
450.2161885
450.8418249
451.6030839
452.490933
453.4965113
454.6110434
455.8257538
457.1319579
458.5204532
459.9829164
461.510216
463.0938982
464.7251447
466.3959893
468.0981132
469.8235117
471.5650727
473.3156749
475.0686607
476.8179053
478.5578462
480.2834301
481.9899285
483.6733006
485.3301662
486.9573449
488.5522733
490.1130479
491.6376569
493.1251419
494.5742013
495.9846375
497.3559389
498.6880417
499.9812664
501.2358596
502.4522917
503.6313623
504.7738862
505.880708
506.9527801
507.9911202
508.996903
509.971177
510.9151652
511.8299418
512.7166844
449.5619692
449.7122838
450.0346092
450.5107064
451.1305715
451.884537
452.7640342
453.7603721
454.8648798
456.0690117
457.3639938
458.7413058
460.1925575
461.7087017
463.281656
464.9028178
466.5641358
468.2576128
469.9753301
471.7100642
473.4548192
475.2030063
476.948325
478.6851309
480.4083093
482.1131137
483.7951256
485.4509489
487.0773638
488.6714156
490.2312252
491.7546514
493.2405172
494.6875537
496.0954435
497.4634888
498.7917904
500.0805632
501.329944
502.5406151
503.7133093
504.8488815
505.9482192
507.012337
508.0423077
509.0393685
510.0046097
510.9393082
511.8445713
512.7216272
449.8660132
450.0139989
450.3311478
450.7998258
451.4099741
452.1525723
453.0187007
454.0002121
455.0886387
456.2756158
457.5528292
458.9120955
460.3450593
461.8433252
463.3988095
465.0034503
466.6491977
468.3284074
470.0334025
471.7569609
473.4922501
475.2327242
476.9720951
478.7046228
480.4251237
482.128731
483.8108335
485.4678645
487.0964162
488.6932811
490.2563792
491.78338
493.2728482
494.7233842
496.1344722
497.5052246
498.8356916
500.1259576
501.3760302
502.5866315
503.7584193
504.8922379
505.988981
507.0496959
508.0755009
509.0677027
510.0274664
510.9561664
511.8549949
512.7252417
450.314609
450.6244542
451.0826308
451.6788901
452.4048223
453.2519794
454.2122112
455.2773964
456.4396982
457.6912002
459.0240615
460.4302315
461.9019418
463.431368
465.0109327
466.6329092
468.2900293
469.9748509
471.6805029
473.4003139
475.127851
476.8568753
478.5818076
480.2973488
481.9984237
483.6805326
485.3397819
486.9724211
488.5752369
490.1457289
491.6811904
493.1800885
494.6405386
496.061843
497.4429111
498.7834279
500.0833244
501.3424648
502.5613422
503.740533
504.8807903
505.9829443
507.0480003
508.0770551
509.0714074
510.0322213
510.9608787
511.8585948
512.7267359
)
;

boundaryField
{
    front_top
    {
        type            wedge;
    }
    front_middle
    {
        type            wedge;
    }
    front_bottom
    {
        type            wedge;
    }
    back_top
    {
        type            wedge;
    }
    back_middle
    {
        type            wedge;
    }
    back_bottom
    {
        type            wedge;
    }
    axis_top
    {
        type            symmetryPlane;
    }
    axis_middle
    {
        type            symmetryPlane;
    }
    axis_bottom
    {
        type            symmetryPlane;
    }
    wall_top
    {
        type            convectiveRadiativeHeatFlux;
        mode            convectiveRadiative;
        kappaMethod     fluidThermo;
        kappa           none;
        alphaAni        Anialpha;
        h               nonuniform 0();
        Ta              constant 513.15;
        emissivityNozzle 0.95;
        emissivityFilament 0.95;
        dNozzle         2;
        dFilament       1.65;
        refValue        nonuniform 0();
        refGradient     nonuniform 0();
        valueFraction   nonuniform 0();
        value           nonuniform 0();
    }
    wall_middle
    {
        type            fixedValue;
        value           uniform 513.15;
    }
    wall_bottom
    {
        type            fixedValue;
        value           nonuniform 0();
    }
    inlet
    {
        type            fixedValue;
        value           nonuniform 0();
    }
    outlet
    {
        type            zeroGradient;
    }
    procBoundary3to2
    {
        type            processor;
        value           nonuniform List<scalar> 
51
(
450.1701404
450.1701404
450.6139389
450.9142719
451.3582196
451.9363142
452.6401098
453.4617897
454.3935417
455.4276978
456.5568321
457.7734904
459.0703241
460.4397651
461.8746191
463.3675923
464.911508
466.4993161
468.1241132
469.7787577
471.4570604
473.1525483
474.8587964
476.5703107
478.2814039
479.9867068
481.6813771
483.3609708
485.0211965
486.6582113
488.2688259
489.8497545
491.398567
492.9128759
494.3908003
495.8308476
497.2319571
498.592997
499.9136862
501.1936782
502.4327812
503.631399
504.7899856
505.9091192
506.98959
508.0323516
509.0386257
510.0095898
510.9466976
511.8512856
512.7247941
)
;
    }
    procBoundary3to4
    {
        type            processor;
        value           nonuniform List<scalar> 
51
(
443.1855693
443.3072412
443.5687328
443.9570521
444.4656084
445.0895581
445.8240837
446.665272
447.6089357
448.6508961
449.7867795
451.0120607
452.3217136
453.7105437
455.1732895
456.7037768
458.2964268
459.9448301
462.0823192
462.0823192
463.8277879
465.6084055
467.417662
469.2492155
471.0970305
472.955185
474.8182017
476.6809158
478.5383069
480.3858842
482.2194655
484.0351291
485.8295261
487.5997223
489.343029
491.0571322
492.7399263
494.3899261
496.0057603
497.5863044
499.1309353
500.6387864
502.1099128
503.5437526
504.9407448
506.3009115
507.6245683
508.9125187
510.1653783
511.3838418
512.568981
)
;
    }
}


// ************************************************************************* //
