/*--------------------------------*- C++ -*----------------------------------*\
  =========                 |
  \\      /  F ield         | OpenFOAM: The Open Source CFD Toolbox
   \\    /   O peration     | Website:  https://openfoam.org
    \\  /    A nd           | Version:  7
     \\/     M anipulation  |
\*---------------------------------------------------------------------------*/
FoamFile
{
    version     2.0;
    format      ascii;
    class       volScalarField;
    location    "0.0012";
    object      thermo:alpha;
}
// * * * * * * * * * * * * * * * * * * * * * * * * * * * * * * * * * * * * * //

dimensions      [1 -1 -1 0 0 0 0];

internalField   nonuniform List<scalar> 
1167
(
0.000120392234
0.0001203805075
0.000120355316
0.0001203179434
0.000120269058
0.0001202069331
0.0001201294681
0.0001200487957
0.0001199512339
0.0001198499622
0.0001197326333
0.0001196164139
0.0001194873803
0.0001193522438
0.0001192013928
0.000119043559
0.0001188652025
0.000118680896
0.0001203666967
0.0001203547852
0.0001203292004
0.0001202912881
0.0001202416715
0.000120175899
0.0001201001241
0.0001200171315
0.0001199179457
0.0001198157481
0.0001196990241
0.0001195817423
0.0001194480441
0.000119312243
0.0001191599529
0.0001189976583
0.0001188181745
0.0001186332264
0.0001184308211
0.0001182105361
0.0001179806063
0.0001177412346
0.0001174894293
0.0001172234603
0.0001169504491
0.0001166627074
0.0001163672714
0.0001160672541
0.0001157602491
0.0001154474678
0.0001151272176
0.0001148064397
0.0001144752476
0.0001141453746
0.0001138110961
0.0001134838604
0.0001131502029
0.0001128131629
0.000112479988
0.0001121535165
0.0001118237581
0.0001115016733
0.000111176798
0.0001108609835
0.0001105518578
0.0001102421422
0.0001099339045
0.0001096308409
0.0001093366532
0.0001090471895
0.0001203408869
0.0001203287928
0.000120302849
0.0001202643763
0.0001202123296
0.0001201446129
0.0001200707539
0.0001199837207
0.0001198865091
0.0001197799674
0.0001196654031
0.0001195470483
0.0001194117645
0.000119271931
0.0001191187093
0.000118951749
0.0001187715424
0.0001185852297
0.0001183791998
0.0001181546696
0.0001179247078
0.0001176814904
0.0001174301186
0.0001171608763
0.0001168849312
0.0001165984599
0.0001163040397
0.0001160006691
0.0001156940182
0.0001153835874
0.0001150625865
0.0001147414996
0.0001144134131
0.0001140839513
0.0001137532298
0.000113428241
0.0001130973314
0.0001127620857
0.0001124330537
0.0001121089759
0.0001117835871
0.0001114644416
0.0001111441017
0.0001108328087
0.0001105272397
0.00011022213
0.0001099178551
0.0001096194682
0.0001093298766
0.000109044858
0.0001203148281
0.0001203025687
0.0001202762453
0.0001202372155
0.0001201817181
0.000120114404
0.0001200411782
0.0001199501093
0.0001198549188
0.000119744055
0.0001196317094
0.0001195091381
0.0001193761
0.0001192317085
0.0001190776223
0.0001189060883
0.0001187252107
0.000118534487
0.0001183260276
0.0001180994199
0.0001178695271
0.0001176226326
0.0001173681295
0.0001170993959
0.0001168206387
0.000116535494
0.0001162426414
0.000115937474
0.0001156294394
0.0001153196303
0.0001149996675
0.0001146783554
0.0001143533961
0.0001140243873
0.0001136971521
0.0001133733218
0.0001130460631
0.0001127127288
0.0001123877611
0.000112066009
0.0001117448732
0.0001114285801
0.0001111126307
0.0001108057257
0.0001105035747
0.0001102029041
0.0001099024452
0.0001096085548
0.0001093233773
0.0001090426234
0.0001202885347
0.0001202760966
0.0001202493941
0.0001202076873
0.0001201508515
0.0001200855501
0.0001200092603
0.0001199175089
0.0001198219707
0.0001197102127
0.0001195979584
0.000119470918
0.0001193396727
0.0001191915641
0.0001190362914
0.0001188606349
0.0001186791598
0.0001184840917
0.0001182714426
0.0001180447596
0.0001178132613
0.0001175645127
0.0001173067343
0.0001170388857
0.0001167574717
0.0001164708095
0.0001161798289
0.0001158755784
0.0001155662704
0.0001152556023
0.000114938322
0.000114616815
0.000114294962
0.0001139664888
0.000113642682
0.0001133200166
0.000112994318
0.000112664907
0.0001123439394
0.0001120244493
0.0001117074858
0.0001113939464
0.0001110822587
0.000110779606
0.0001104807661
0.0001101843854
0.000109887616
0.000109598055
0.0001093171279
0.0001090404762
0.0001202619982
0.0001202493829
0.0001202214072
0.0001201773344
0.0001201204504
0.0001200564838
0.0001199763299
0.0001198866291
0.0001197869213
0.0001196773528
0.0001195641113
0.0001194334511
0.0001193004479
0.0001191514459
0.0001189916994
0.0001188153263
0.000118633334
0.0001184340287
0.0001182172504
0.0001179905592
0.0001177553781
0.0001175070837
0.000117246123
0.0001169786998
0.000116695238
0.0001164064032
0.0001161136405
0.0001158118201
0.0001155043496
0.0001151928925
0.0001148783139
0.0001145567274
0.0001142374885
0.0001139100245
0.0001135896541
0.0001132681319
0.0001129439969
0.0001126184447
0.0001123013961
0.0001119841343
0.000111671246
0.0001113604006
0.0001110528797
0.0001107543419
0.000110458719
0.0001101664961
0.0001098733101
0.0001095879242
0.0001093111017
0.0001090384071
0.000120235229
0.0001202215534
0.0001201914026
0.0001201467361
0.000120091981
0.000120026631
0.0001199431889
0.0001198555749
0.0001197517028
0.000119644364
0.000119528749
0.0001193986267
0.0001192611879
0.0001191113697
0.0001189471646
0.0001187701725
0.0001185870523
0.000118384212
0.0001181634235
0.0001179367741
0.0001176979745
0.0001174501955
0.0001171861786
0.0001169160282
0.00011663384
0.0001163437946
0.000116048445
0.0001157487184
0.0001154435269
0.0001151313587
0.000114819455
0.0001144978503
0.000114178987
0.0001138548004
0.0001135378391
0.0001132175151
0.0001128949134
0.0001125732035
0.0001122599667
0.0001119449346
0.0001116360089
0.0001113278065
0.0001110243641
0.0001107298283
0.0001104373407
0.0001101491605
0.0001098594556
0.0001095781189
0.0001093052726
0.0001090364073
0.0001202059568
0.0001201917158
0.0001201611587
0.0001201169685
0.0001200633067
0.0001199942599
0.0001199116502
0.000119823268
0.0001197177634
0.000119611281
0.0001194913325
0.0001193637312
0.0001192219109
0.0001190712978
0.0001189026971
0.0001187251036
0.0001185377504
0.0001183330454
0.0001181098598
0.0001178833319
0.0001176410269
0.0001173916185
0.0001171267771
0.000116853979
0.0001165731282
0.0001162846337
0.0001159866863
0.0001156865018
0.0001153836036
0.0001150708096
0.0001147590083
0.0001144399985
0.0001141215549
0.0001138006808
0.0001134870578
0.0001131679618
0.0001128468869
0.000112528971
0.0001122194918
0.0001119066762
0.0001116016336
0.0001112960371
0.0001109965842
0.0001107059631
0.0001104165414
0.0001101320813
0.0001098459927
0.0001095685967
0.0001092996153
0.0001090344678
0.0001201760793
0.000120161648
0.0001201306882
0.0001200887692
0.0001200344397
0.0001199616874
0.000119881204
0.0001197887953
0.0001196855015
0.0001195780894
0.0001194538146
0.0001193268554
0.0001191826097
0.0001190303783
0.0001188582794
0.0001186801336
0.0001184885686
0.0001182798039
0.0001180565601
0.0001178295405
0.0001175844157
0.00011733184
0.0001170678805
0.0001167924921
0.0001165124292
0.0001162260696
0.000115926492
0.0001156250653
0.000115322902
0.0001150110652
0.0001146990849
0.0001143830538
0.0001140650159
0.0001137474448
0.0001134361219
0.0001131192856
0.0001127997792
0.0001124855841
0.00011217916
0.0001118691996
0.0001115679833
0.0001112649845
0.000110969426
0.0001106826469
0.0001103962335
0.000110115024
0.0001098328635
0.0001095593161
0.000109294105
0.0001090325801
0.0001201459825
0.0001201313629
0.0001201025306
0.0001200603835
0.0001200026625
0.0001199289793
0.0001198506042
0.0001197541712
0.0001196531203
0.0001195447994
0.0001194185464
0.0001192883742
0.0001191432818
0.0001189866872
0.0001188139022
0.000118635256
0.0001184395396
0.0001182267267
0.0001180034781
0.0001177728439
0.000117528134
0.0001172724217
0.000117009373
0.000116731476
0.000116449261
0.0001161636997
0.000115866739
0.0001155642343
0.0001152612727
0.0001149520232
0.0001146398634
0.0001143268159
0.0001140092484
0.0001136949311
0.0001133846709
0.0001130713263
0.0001127534049
0.0001124428888
0.0001121385128
0.0001118323633
0.0001115349281
0.0001112344993
0.0001109427801
0.0001106597842
0.0001103763324
0.0001100983182
0.0001098200124
0.0001095502375
0.0001092887178
0.000109030736
0.0001201167647
0.0001201033202
0.0001200744882
0.0001200317005
0.0001199705788
0.0001198990893
0.0001198183469
0.0001197205804
0.0001196206686
0.0001195081733
0.0001193843667
0.0001192498706
0.0001191040024
0.0001189430328
0.0001187696352
0.000118590089
0.0001183906625
0.0001181738827
0.0001179506263
0.0001177164053
0.0001174721595
0.0001172133893
0.0001169489874
0.0001166708682
0.0001163865407
0.0001160992484
0.0001158042902
0.0001155039319
0.0001152001868
0.0001148935465
0.0001145812599
0.0001142711506
0.0001139540886
0.0001136430129
0.0001133338139
0.0001130228442
0.000112707607
0.0001124007529
0.0001120984104
0.0001117960391
0.0001115011942
0.0001112044667
0.0001109165439
0.000110637285
0.0001103567782
0.000110081896
0.0001098073865
0.0001095413229
0.000109283431
0.0001090289276
0.0001200890713
0.0001200754625
0.0001200462829
0.0001200001631
0.0001199383444
0.0001198690808
0.0001197844772
0.0001196889566
0.0001195881843
0.000119471487
0.0001193501896
0.0001192114373
0.0001190647855
0.0001188995098
0.0001187254974
0.0001185417695
0.0001183410034
0.0001181212772
0.0001178980735
0.0001176603121
0.0001174158757
0.0001171547154
0.0001168876075
0.0001166107128
0.0001163262235
0.0001160352599
0.0001157423032
0.0001154441269
0.000115139612
0.0001148355433
0.0001145231608
0.0001142144876
0.0001138994146
0.0001135916055
0.0001132834335
0.000112973877
0.0001126622636
0.0001123590834
0.000112058733
0.0001117601132
0.0001114676955
0.0001111747863
0.0001108906261
0.0001106150686
0.0001103374793
0.0001100656954
0.0001097949371
0.0001095325374
0.0001092782235
0.0001090271474
0.0001200612159
0.0001200474482
0.0001200164359
0.0001199684838
0.0001199081495
0.0001198389895
0.0001197505472
0.0001196573088
0.0001195557085
0.0001194354615
0.0001193129164
0.000119173126
0.0001190243843
0.0001188562014
0.0001186816176
0.0001184937299
0.0001182889281
0.0001180690493
0.0001178458881
0.000117604643
0.0001173569677
0.0001170965244
0.0001168267052
0.000116551024
0.000116267963
0.0001159750398
0.000115680822
0.0001153847938
0.0001150795393
0.0001147762528
0.0001144655157
0.0001141571228
0.0001138451747
0.000113540602
0.000113233472
0.0001129253013
0.0001126172919
0.0001123177568
0.0001120193887
0.0001117245227
0.0001114344921
0.0001111453751
0.000110864951
0.0001105922836
0.0001103183725
0.0001100496622
0.0001097826212
0.0001095238498
0.0001092730764
0.0001090253889
0.0001200332117
0.0001200179308
0.0001199851539
0.000119936693
0.0001198787009
0.0001198062482
0.0001197180351
0.0001196257212
0.0001195212308
0.0001194023329
0.0001192756306
0.0001191350648
0.0001189821045
0.000118813248
0.0001186381461
0.0001184461735
0.0001182373685
0.0001180173837
0.0001177910795
0.00011754958
0.0001172986905
0.0001170389779
0.0001167665041
0.0001164901783
0.0001162103005
0.000115915607
0.0001156199878
0.0001153245814
0.0001150200216
0.0001147163668
0.0001144083937
0.0001141002362
0.0001137914159
0.0001134899983
0.00011318392
0.000112877088
0.0001125726883
0.0001122767286
0.000111980326
0.0001116891937
0.0001114015267
0.0001111161768
0.0001108394676
0.0001105696064
0.0001102994126
0.0001100337558
0.000109770406
0.0001095152357
0.0001092679744
0.0001090236466
0.0001200023085
0.0001199868641
0.0001199537605
0.0001199070933
0.0001198492274
0.0001197731752
0.0001196873111
0.0001195942948
0.0001194858596
0.000119369465
0.000119238705
0.0001190974514
0.0001189403393
0.0001187709045
0.0001185952916
0.0001183993467
0.0001181866466
0.00011796654
0.0001177366615
0.000117495448
0.0001172413916
0.0001169820546
0.0001167072498
0.0001164286134
0.0001161474698
0.0001158563694
0.0001155599932
0.0001152635436
0.0001149612844
0.0001146571985
0.0001143519499
0.0001140439671
0.0001137382039
0.0001134389867
0.000113134816
0.0001128292928
0.0001125284463
0.0001122360166
0.0001119415834
0.0001116541146
0.0001113687866
0.0001110871729
0.0001108141734
0.0001105470762
0.0001102805755
0.0001100179532
0.0001097582718
0.00010950668
0.000109262908
0.0001090219168
0.000119971262
0.0001199556809
0.000119922946
0.0001198781326
0.0001198182506
0.0001197402141
0.000119656766
0.0001195631297
0.0001194508695
0.0001193359328
0.0001192023781
0.0001190604904
0.0001188994058
0.0001187294372
0.0001185499181
0.0001183535057
0.0001181371415
0.0001179169827
0.000117683601
0.0001174426537
0.0001171855221
0.0001169233619
0.0001166494347
0.000116368482
0.0001160853705
0.0001157958839
0.0001155012713
0.0001152037209
0.0001149036859
0.0001145991163
0.0001142964625
0.0001139886436
0.000113685788
0.0001133873197
0.0001130863511
0.0001127821179
0.0001124847051
0.0001121957344
0.0001119032291
0.000111619359
0.0001113363302
0.0001110584191
0.0001107890756
0.0001105247133
0.0001102618729
0.0001100022601
0.0001097462196
0.0001094981811
0.0001092578747
0.0001090201983
0.0001199400975
0.0001199248681
0.0001198943256
0.0001198491956
0.0001197860202
0.0001197097294
0.0001196265406
0.0001195311894
0.0001194187795
0.0001193010035
0.0001191668997
0.0001190230539
0.0001188596649
0.0001186892794
0.0001185060336
0.0001183059616
0.0001180894163
0.0001178692445
0.0001176325538
0.0001173895692
0.0001171317439
0.0001168668451
0.0001165937565
0.0001163132565
0.000116025783
0.0001157374346
0.0001154444855
0.0001151457819
0.0001148477953
0.000114542703
0.000114242243
0.0001139347132
0.000113634635
0.0001133367997
0.0001130384437
0.0001127358553
0.000112441752
0.0001121544793
0.0001118654689
0.0001115851036
0.0001113043081
0.0001110300383
0.0001107642699
0.0001105025943
0.0001102433628
0.0001099867202
0.0001097342799
0.0001094897585
0.0001092528852
0.0001090184941
0.0001199107282
0.0001198964034
0.000119865702
0.0001198188605
0.0001197540015
0.0001196803232
0.0001195968019
0.0001194980832
0.000119388332
0.0001192671123
0.0001191326476
0.0001189853266
0.0001188216063
0.0001186509849
0.0001184643018
0.0001182608572
0.0001180442774
0.0001178230799
0.000117584364
0.0001173384441
0.0001170810685
0.0001168135415
0.0001165411937
0.0001162616043
0.0001159721553
0.0001156820686
0.0001153905878
0.0001150907119
0.0001147936218
0.0001144888316
0.0001141880939
0.0001138829816
0.000113585488
0.0001132881253
0.0001129906257
0.0001126910889
0.0001124001121
0.0001121143927
0.0001118287162
0.000111551704
0.0001112730635
0.0001110022794
0.0001107399737
0.0001104809013
0.0001102251871
0.0001099714437
0.0001097225299
0.0001094814613
0.0001092479651
0.0001090168118
0.0001198822622
0.0001198679003
0.0001198371185
0.0001197873291
0.0001197232017
0.0001196513859
0.0001195677233
0.0001194659302
0.0001193589674
0.0001192346675
0.0001191000966
0.0001189496827
0.0001187859068
0.0001186152371
0.0001184255764
0.0001182191644
0.0001180027052
0.0001177787086
0.0001175402425
0.0001172916862
0.0001170347641
0.0001167648792
0.0001164914458
0.0001162143545
0.0001159230286
0.0001156312894
0.00011534035
0.0001150399227
0.0001147418998
0.0001144388521
0.0001141376968
0.0001138346936
0.0001135394444
0.0001132423841
0.0001129455294
0.0001126487332
0.0001123606214
0.0001120762279
0.0001117936223
0.0001115192626
0.0001112430676
0.0001109755608
0.0001107165337
0.0001104599284
0.000110207581
0.0001099566209
0.000109711112
0.000109473388
0.0001092431719
0.0001090151703
0.0001198537382
0.0001198393861
0.0001198059869
0.0001197560565
0.00011969485
0.0001196231093
0.0001195390497
0.0001194356516
0.0001193293625
0.0001192041604
0.0001190697841
0.0001189168434
0.0001187533342
0.0001185819119
0.0001183908799
0.0001181821392
0.0001179660181
0.0001177397849
0.0001175017464
0.0001172510541
0.0001169946057
0.0001167227421
0.0001164474343
0.0001161697746
0.0001158804256
0.0001155871585
0.0001152948654
0.0001149954992
0.000114696481
0.0001143948121
0.0001140930429
0.0001137917271
0.0001134982487
0.0001132012848
0.0001129047791
0.0001126102831
0.0001123245901
0.0001120412444
0.0001117613097
0.000111488505
0.0001112152143
0.000110950653
0.0001106946001
0.0001104402323
0.0001101909886
0.0001099426034
0.0001097002775
0.0001094657014
0.0001092385931
0.0001090135965
0.0001198241674
0.0001198084748
0.0001197748382
0.0001197257728
0.0001196670594
0.0001195956882
0.0001195093458
0.0001194091252
0.0001193007362
0.0001191761298
0.000119042375
0.0001188876554
0.0001187248417
0.0001185518067
0.0001183615011
0.0001181512639
0.0001179358854
0.0001177081894
0.0001174708442
0.0001172187489
0.0001169613916
0.0001166896488
0.0001164129812
0.0001161339942
0.0001158458877
0.0001155525505
0.0001152590594
0.0001149603807
0.000114660319
0.0001143595009
0.0001140569575
0.0001137567172
0.000113464392
0.0001131672096
0.0001128706933
0.0001125778592
0.0001122939204
0.0001120112132
0.0001117333609
0.0001114616725
0.0001111907315
0.0001109286027
0.0001106750529
0.0001104225711
0.0001101760277
0.0001099299018
0.0001096904179
0.0001094586797
0.0001092343949
0.0001090121464
0.000119792754
0.0001197772158
0.0001197439077
0.000119698127
0.0001196399792
0.0001195693202
0.0001194812302
0.0001193844726
0.0001192746798
0.0001191512016
0.0001190166388
0.0001188630468
0.0001187015301
0.0001185279322
0.0001183377406
0.0001181283372
0.0001179142384
0.0001176862248
0.0001174499874
0.0001171975369
0.0001169397977
0.0001166688502
0.0001163916365
0.0001161120394
0.0001158243982
0.0001155314025
0.0001152370751
0.0001149386341
0.0001146376594
0.0001143370561
0.0001140336625
0.0001137337035
0.0001134409172
0.0001131439697
0.0001128470109
0.0001125549157
0.000112271828
0.0001119892049
0.0001117125433
0.0001114413614
0.0001111719168
0.0001109114108
0.0001106595998
0.0001104084205
0.0001101638827
0.0001099194568
0.0001096822055
0.0001094527568
0.0001092308103
0.0001090108923
0.000119761328
0.0001197460371
0.0001197149804
0.0001196709992
0.0001196137858
0.0001195441948
0.0001194550222
0.0001193620723
0.0001192517185
0.0001191300364
0.0001189955631
0.0001188440217
0.0001186845765
0.000118511743
0.0001183225921
0.0001181153543
0.0001179032896
0.0001176764772
0.0001174420105
0.0001171906769
0.0001169339895
0.00011666425
0.0001163877467
0.0001161086776
0.000115821505
0.0001155287216
0.0001152342407
0.0001149355888
0.0001146340626
0.0001143329373
0.0001140287046
0.0001137280529
0.0001134342761
0.0001131366243
0.0001128386702
0.0001125460131
0.0001122624805
0.0001119791445
0.000111702347
0.0001114307803
0.0001111615607
0.0001109014726
0.0001106502703
0.0001103995447
0.0001101560076
0.000109912488
0.0001096765912
0.0001094486211
0.0001092282563
0.0001090099752
0.000119716533
0.0001196874528
0.0001196444745
0.0001195885853
0.0001195182131
0.00011943198
0.0001193416953
0.0001192323546
0.0001191132315
0.0001189801233
0.0001188315518
0.0001186751095
0.0001185046951
0.0001183183826
0.0001181143891
0.0001179053861
0.0001176817613
0.0001174500532
0.0001172018613
0.0001169482559
0.0001166804848
0.0001164066029
0.0001161298609
0.0001158434924
0.000115551092
0.0001152577542
0.0001149586493
0.0001146574724
0.0001143551746
0.0001140505151
0.0001137481534
0.0001134533307
0.0001131536084
0.0001128541919
0.0001125593052
0.0001122736086
0.0001119885929
0.0001117097731
0.0001114365953
0.0001111656669
0.0001109040966
0.0001106516519
0.0001103999476
0.0001101556389
0.0001099115769
0.0001096754233
0.0001094474651
0.0001092273742
0.000109009596
)
;

boundaryField
{
    front_top
    {
        type            wedge;
    }
    front_middle
    {
        type            wedge;
    }
    front_bottom
    {
        type            wedge;
    }
    back_top
    {
        type            wedge;
    }
    back_middle
    {
        type            wedge;
    }
    back_bottom
    {
        type            wedge;
    }
    axis_top
    {
        type            symmetryPlane;
    }
    axis_middle
    {
        type            symmetryPlane;
    }
    axis_bottom
    {
        type            symmetryPlane;
    }
    wall_top
    {
        type            calculated;
        value           nonuniform 0();
    }
    wall_middle
    {
        type            calculated;
        value           uniform 0.0001089022317;
    }
    wall_bottom
    {
        type            calculated;
        value           nonuniform 0();
    }
    inlet
    {
        type            calculated;
        value           nonuniform 0();
    }
    outlet
    {
        type            calculated;
        value           nonuniform 0();
    }
    procBoundary3to2
    {
        type            processor;
        value           nonuniform List<scalar> 
51
(
0.0001197300962
0.0001197300962
0.0001196884395
0.0001196602639
0.0001196186369
0.0001195644706
0.0001194939868
0.0001194123699
0.0001193230703
0.0001192169394
0.0001191012374
0.0001189709425
0.0001188264
0.0001186740499
0.0001185079802
0.0001183266284
0.000118127216
0.0001179225826
0.0001177046086
0.0001174769933
0.0001172345537
0.0001169867127
0.0001167221465
0.0001164535135
0.0001161816901
0.00011589546
0.0001156055375
0.0001153154387
0.0001150160261
0.0001147168118
0.0001144129135
0.0001141088714
0.0001138037595
0.0001135060708
0.0001132048187
0.0001129035686
0.0001126043123
0.0001123141622
0.0001120261936
0.000111742695
0.0001114661595
0.000111190723
0.000110924912
0.0001106685495
0.000110413825
0.0001101662449
0.0001099196395
0.0001096809822
0.000109450944
0.0001092291651
0.0001090100887
)
;
    }
    procBoundary3to4
    {
        type            processor;
        value           nonuniform List<scalar> 
51
(
0.0001204174902
0.0001204059511
0.0001203811585
0.0001203443581
0.0001202961937
0.000120237148
0.000120161349
0.0001200788433
0.0001199855245
0.0001198823067
0.0001197695163
0.0001196510924
0.0001195267723
0.0001193891274
0.0001192430339
0.0001190861935
0.0001189126254
0.0001187290776
0.0001184830103
0.0001184830103
0.0001182671444
0.0001180373455
0.0001178019491
0.0001175497808
0.000117287252
0.0001170155534
0.0001167284338
0.0001164354052
0.0001161373649
0.0001158282569
0.0001155131472
0.0001151937753
0.000114870496
0.0001145390814
0.0001142088358
0.0001138709655
0.0001135400386
0.000113204998
0.0001128661785
0.0001125287197
0.0001121996316
0.0001118655343
0.0001115400665
0.0001112108485
0.0001108903545
0.0001105775283
0.0001102630221
0.0001099506589
0.0001096427195
0.0001093437349
0.0001090496275
)
;
    }
}


// ************************************************************************* //
