/*--------------------------------*- C++ -*----------------------------------*\
  =========                 |
  \\      /  F ield         | OpenFOAM: The Open Source CFD Toolbox
   \\    /   O peration     | Website:  https://openfoam.org
    \\  /    A nd           | Version:  7
     \\/     M anipulation  |
\*---------------------------------------------------------------------------*/
FoamFile
{
    version     2.0;
    format      ascii;
    class       volScalarField;
    location    "0.0021";
    object      generalizedNewtonian:nu;
}
// * * * * * * * * * * * * * * * * * * * * * * * * * * * * * * * * * * * * * //

dimensions      [0 2 -1 0 0 0 0];

internalField   nonuniform List<scalar> 
1167
(
0.760105008
0.7949578246
0.7881064223
0.7883169875
0.7783434515
0.767147656
0.7541867154
0.7393748264
0.7230399426
0.7055018946
0.6870337265
0.6678876948
0.6482954794
0.6284683323
0.6085882247
0.5888135936
0.5692774728
0.5500883347
0.5313319071
0.513076249
0.4953630058
0.4782209425
0.4616645618
0.4456890659
0.4302807681
0.4154146281
0.4010537083
0.387150929
0.3736511331
0.3604892252
0.3475891648
0.3348678717
0.3222305501
0.309575519
0.2967944399
0.2837779545
0.2704255395
0.2566631278
0.2424620465
0.227867611
0.2130164664
0.1981342786
0.1835094826
0.1694414032
0.1561798544
0.143876007
0.1325593015
0.1221475409
0.1124802085
0.1033642005
0.09466255769
0.8564559952
0.8489738229
0.8488665355
0.8376169101
0.8248730897
0.8101000123
0.7932181266
0.7745939101
0.7545865322
0.733504806
0.7116329941
0.6892313953
0.6665356486
0.6437502325
0.6210493067
0.5985838349
0.5764689993
0.5548046399
0.5336601179
0.5130860621
0.4931172119
0.4737683091
0.4550425149
0.4369329985
0.4194186349
0.4024713264
0.3860571993
0.3701311322
0.3546427574
0.3395357592
0.3247444386
0.3101983006
0.2958187308
0.2815228415
0.2672240188
0.252839567
0.2383004907
0.2235717049
0.2086713799
0.1936993612
0.1788484776
0.1643907685
0.1506421436
0.1379170813
0.126501164
0.1166532333
0.1086218082
0.102640682
0.09887061547
0.09720199713
0.9567117619
0.948060319
0.947451378
0.9342798301
0.9192787597
0.9018731104
0.8820082261
0.8601127347
0.8366131166
0.8118797414
0.786253145
0.760044821
0.7335341878
0.7069689915
0.6805545375
0.6544667558
0.6288454074
0.6038002106
0.5794124018
0.5557349302
0.5327970362
0.5106122516
0.4891703612
0.4684514041
0.448423817
0.4290447681
0.410267968
0.3920401689
0.3743037159
0.3570005684
0.3400669876
0.3234382795
0.3070473048
0.2908240208
0.2746990545
0.2586031271
0.2424773004
0.2262808466
0.2100102076
0.1937243908
0.1775668746
0.1617765785
0.1466593718
0.1325127271
0.1195163609
0.1076286743
0.09656994864
0.08598164365
0.07571800235
0.06596537188
1.116000245
1.105858174
1.10455791
1.088319397
1.069689578
1.048079575
1.023489906
0.9964727926
0.9675720763
0.9372646981
0.9059851473
0.8741256762
0.8420306697
0.809997632
0.7782716538
0.7470423573
0.7164570012
0.6866187736
0.6575876838
0.6293944916
0.6020350276
0.5754905951
0.5497232677
0.5246878498
0.5003381342
0.4766247411
0.4535062127
0.4309417353
0.4088962889
0.3873360579
0.3662251455
0.3455279008
0.3251987287
0.3051895328
0.2854437527
0.2659031286
0.2465094051
0.2272174597
0.2080054356
0.1888993809
0.1699992722
0.1515126713
0.1337736232
0.1172206673
0.1023399082
0.08964117476
0.07976699178
0.07367146061
0.07258678784
0.07745851968
1.359823374
1.347006439
1.344301321
1.323097949
1.298658763
1.270347139
1.238230721
1.203061094
1.165561784
1.126372444
1.086070044
1.045168188
1.004110158
0.9632697577
0.9229522999
0.8834014198
0.8448046906
0.8073016882
0.7710055091
0.7360011813
0.7023529633
0.6701188557
0.6393356376
0.6100330067
0.5822094908
0.5558466596
0.5308833707
0.5072295046
0.4847514536
0.4632842391
0.4426251447
0.4225497429
0.4028127169
0.3831663189
0.3633677736
0.3432004653
0.3224814575
0.3010780905
0.2789066678
0.2559397685
0.2322040289
0.2078057451
0.1829795927
0.1581170632
0.1337437237
0.1104967554
0.08889897867
0.06854101176
0.04828543899
0.0296784276
1.677972195
1.66174535
1.656089877
1.626698039
1.592837379
1.553752349
1.509821963
1.462244825
1.412116565
1.36038366
1.307881727
1.255329004
1.203326016
1.152368094
1.102859971
1.055135627
1.009469163
0.966091538
0.9252070537
0.8869809468
0.8515281578
0.8189155516
0.7891293491
0.762080902
0.7375882994
0.7153932364
0.6951631954
0.6765195198
0.659052364
0.6423416538
0.6259546623
0.6094438369
0.5923152195
0.5740171911
0.5539308808
0.5314174144
0.5058921212
0.4769434224
0.444458588
0.4087147777
0.3703295094
0.3299645297
0.2879240696
0.2441117354
0.1988342589
0.1539405294
0.1125228053
0.07656330965
0.04649509165
0.0246243761
2.017743752
1.997123802
1.988498925
1.951370248
1.908773768
1.859795636
1.805166127
1.746553764
1.685471201
1.623194056
1.560842663
1.499382437
1.439637691
1.382320451
1.328052126
1.277361485
1.230681054
1.188322137
1.150436139
1.116928656
1.087431526
1.061241339
1.037295461
1.014189707
0.990234358
0.9636160806
0.9325949657
0.8958023017
0.852514604
0.8028749101
0.7479305958
0.6894587223
0.6295767692
0.5702909742
0.5131419756
0.459060702
0.4084219742
0.3612144108
0.3172228686
0.2761610783
0.2377400361
0.2017398715
0.1681373424
0.1372625973
0.1097886957
0.08649589275
0.06803834055
0.05486242857
0.04701595936
0.04386089735
2.486732557
2.459564825
2.443562329
2.390983683
2.330529587
2.261780717
2.186358338
2.10688002
2.02567194
1.944697861
1.865634923
1.789910908
1.718711561
1.652968562
1.593292757
1.539908361
1.49256002
1.450440343
1.412120576
1.37559673
1.338440655
1.298054379
1.252107166
1.19894293
1.137987203
1.069877144
0.9963390351
0.9197536664
0.8426606658
0.7672806116
0.6952917607
0.6277646409
0.5652509931
0.5078762757
0.4554486981
0.4075396932
0.3635746773
0.3229204408
0.2849779617
0.2492674738
0.2155258173
0.1837968372
0.1544671255
0.1281480659
0.1054062586
0.08645989845
0.07103894123
0.05851778116
0.04823565332
0.03967956613
3.16894641
3.131158848
3.103173566
3.027462004
2.940940579
2.844415007
2.741216012
2.635671966
2.531521942
2.431801671
2.338866247
2.254305532
2.178808636
2.111993925
2.052247959
1.99667588
1.94125011
1.881249025
1.812057031
1.730266536
1.634658293
1.526726086
1.410316186
1.290506437
1.172268142
1.059458057
0.9544525715
0.8582923125
0.7710705311
0.6923276454
0.6213413924
0.5573206072
0.4994860322
0.4471090796
0.3994988787
0.3560076744
0.3160280368
0.2790359972
0.2446350287
0.2126185928
0.182997121
0.1559795761
0.1318693539
0.1109220426
0.09323267397
0.07871341404
0.0671507211
0.05826408638
0.05171000863
0.04702469875
4.184981525
4.12976657
4.078861921
3.963640794
3.834385028
3.695431597
3.553609058
3.416020383
3.287667625
3.171191391
3.066712172
2.971692799
2.8810317
2.787595211
2.683408962
2.561573131
2.418415739
2.254965819
2.076878789
1.892599718
1.710728532
1.538041226
1.378658212
1.234348117
1.105193332
0.9903084927
0.888310735
0.7976713697
0.7168769492
0.6445570349
0.5795120792
0.52073216
0.4673731157
0.4187260753
0.3741863187
0.3332294882
0.295413661
0.2603996351
0.2279888668
0.1981420809
0.1709635417
0.1466303826
0.1252916967
0.1069815745
0.09157838204
0.07882087638
0.06835895343
0.05981325336
0.05280833863
0.04695975438
5.785861711
5.69931762
5.604862797
5.425466063
5.23400164
5.041198007
4.856559389
4.685207612
4.52520807
4.368437805
4.20247131
4.013685063
3.791655099
3.533510478
3.245939972
2.943175602
2.641759368
2.355524464
2.093107539
1.858070869
1.650445006
1.468300082
1.308862789
1.169195267
1.046516368
0.938348207
0.8425353197
0.7572380458
0.680899878
0.6122164152
0.5501126246
0.4937023471
0.4422676058
0.3952128554
0.3520513633
0.3123822062
0.2758974978
0.242390669
0.2117671441
0.1840258271
0.15921753
0.1373769577
0.118468684
0.1023587637
0.08882403284
0.07758526056
0.06834392013
0.0608077122
0.05469573404
0.04971396292
8.530068192
8.394903365
8.229941342
7.959408161
7.681138853
7.399396193
7.106127515
6.783259781
6.408985489
5.96929487
5.467923836
4.927844978
4.382565342
3.863225412
3.390179481
2.971882455
2.608292324
2.294889218
2.025435931
1.793482236
1.593135552
1.41926951
1.26758658
1.1345182
1.017145005
0.913061049
0.8202957335
0.737212438
0.6624615844
0.5949135701
0.5336402922
0.4778739463
0.4269859696
0.3804625776
0.3378874143
0.2989344741
0.2633628157
0.2310182032
0.2018157176
0.1757111407
0.152657003
0.1325619473
0.1152685552
0.1005514654
0.08813696737
0.07772801085
0.0690278143
0.06175553516
0.05564865943
0.05044976126
14.02411734
13.79864962
13.41858862
12.83985344
12.13454987
11.27683484
10.268289
9.155076516
8.017943524
6.938530284
5.970320909
5.133174485
4.423686869
3.827505717
3.32726142
2.906391814
2.550544787
2.247871633
1.98871501
1.765323657
1.571503573
1.402282468
1.253680919
1.122471735
1.006054611
0.9022883434
0.809417761
0.7259820621
0.6507627587
0.5827392087
0.5210577049
0.4650124131
0.4140156959
0.3675923643
0.3253564467
0.2870084745
0.2523199731
0.2211237566
0.1932860088
0.1686795913
0.1471520142
0.1285099567
0.1125152818
0.09889557
0.08736331194
0.07763405001
0.06944039097
0.06253990447
0.05671353115
0.05174994078
25.54216906
24.6880132
22.61073147
19.91939479
16.9998562
14.23205789
11.83327106
9.852302985
8.248956409
6.957017264
5.912562861
5.062348116
4.364381471
3.786205255
3.302903012
2.895357122
2.548879106
2.252075379
1.996012385
1.773676429
1.579481956
1.408965048
1.258513556
1.125185897
1.006569764
0.900666913
0.8058076587
0.7205980689
0.64385602
0.574591499
0.5119643283
0.4552776201
0.4039488523
0.3575011157
0.3155463564
0.2777696499
0.2439146597
0.2137621015
0.1871070013
0.1637361287
0.1434128672
0.1258742606
0.1108350318
0.09800078792
0.08708176151
0.07780414771
0.06991728842
0.06319733251
0.05744364524
0.05246706847
34.81856414
31.59385263
26.58061145
21.62761436
17.48584889
14.22176012
11.68841039
9.714176456
8.157989129
6.915082709
5.909602078
5.08647566
4.405245053
3.835784576
3.355403989
2.946841394
2.596837761
2.295006072
2.033164362
1.804814428
1.604706975
1.428606253
1.273017303
1.135074243
1.012382916
0.9029521301
0.8050919102
0.7173877277
0.6386332528
0.5678103355
0.5040579511
0.4466518866
0.3949872365
0.34855732
0.3069425917
0.2697832196
0.2367678773
0.2076072205
0.1820205502
0.1597188057
0.1404018417
0.1237609112
0.1094846628
0.09727131881
0.08683720716
0.07792326658
0.07029817688
0.06375936568
0.05812834877
0.05323869198
34.79965431
31.00557841
25.96759701
21.15554051
17.22599863
14.13572909
11.71741951
9.811475886
8.291799214
7.064542766
6.061292464
5.232044327
4.53980384
3.956789708
3.461880906
3.038847662
2.67500567
2.360320811
2.086815468
1.848039116
1.638743318
1.45463118
1.292133468
1.14829139
1.020620544
0.9070350522
0.8057677636
0.7153241908
0.6344370372
0.5620266477
0.4971835832
0.4391332612
0.387224874
0.3409022802
0.2996909394
0.2631703902
0.2309604974
0.2027008727
0.1780424251
0.1566362639
0.1381379461
0.1222102592
0.1085296218
0.09679424211
0.08672873317
0.07808667174
0.07065121147
0.06423390585
0.05866951266
0.0538054448
34.36187833
30.72629571
25.90255873
21.29474495
17.49110614
14.46208258
12.0611468
10.14592735
8.602892179
7.345805637
6.310531481
5.449502549
4.727093222
4.116268493
3.596286989
3.15096336
2.767508855
2.435737631
2.147471975
1.89602056
1.675922556
1.482653392
1.312456328
1.16218613
1.029207108
0.9112881791
0.8065485384
0.7133847826
0.630444124
0.5565667879
0.4907728746
0.4322243193
0.3802047803
0.3340953872
0.2933524571
0.2574870467
0.2260480899
0.1986102215
0.1747664452
0.1541238852
0.1363081849
0.1209656039
0.1077682753
0.09641849513
0.08665031014
0.07822934128
0.07095192045
0.0646425262
0.05914838432
0.0543292893
31.88845754
29.32560969
25.4603346
21.42190537
17.86085371
14.91122068
12.5147451
10.57024202
8.984098656
7.680194018
6.599209468
5.695753959
4.93508571
4.290423934
3.740880746
3.269934642
2.864433802
2.513842208
2.20957694
1.94459788
1.713128328
1.510350628
1.332266528
1.17550322
1.037242571
0.9150862549
0.8070162722
0.7113095161
0.6265056203
0.5513571878
0.4847982846
0.4259156792
0.373916029
0.3281082576
0.2878741814
0.2526556667
0.2219357357
0.1952335225
0.1720965374
0.1521005137
0.1348520827
0.1199889858
0.107183769
0.09614468406
0.08661494342
0.07837052662
0.07121834905
0.06499267886
0.05954966009
0.05475794402
28.44141034
26.94743347
24.31823478
21.15564317
18.04502191
15.28210568
12.9394014
10.98735745
9.366905592
8.018844588
6.892186918
5.945384728
5.145336812
4.465753561
3.885693237
3.388370578
2.960295167
2.590524996
2.27004619
1.991455695
1.748619863
1.536424088
1.350592443
1.1875277
1.044201733
0.9180490897
0.806896814
0.7088970043
0.6224711622
0.5462741776
0.4791451992
0.4200868005
0.3682229236
0.3227851135
0.2830823222
0.2484903633
0.218435144
0.1923903862
0.1698691219
0.1504255753
0.1336547233
0.1191912418
0.1067106866
0.09592803643
0.08659498939
0.07849684809
0.07144960942
0.06529592568
0.05989964934
0.05513695349
25.23639073
24.38720649
22.7371526
20.46573099
17.94150902
15.48381901
13.26850535
11.34999403
9.717820854
8.338073367
7.172607814
6.186281414
5.348983601
4.635687486
4.025840023
3.502642554
3.052396652
2.663771185
2.327380994
2.035483331
1.781590085
1.560293689
1.367037235
1.197996956
1.049929872
0.9200972211
0.8061655253
0.7061554536
0.6183646134
0.5413406269
0.4738249917
0.4147276058
0.3630906396
0.3180673094
0.2788989621
0.2449014256
0.2154534611
0.1899923781
0.1680063814
0.1490355126
0.1326682554
0.1185396159
0.106329543
0.09575982458
0.08658986047
0.07861299786
0.07165278002
0.06555862336
0.06020043241
0.05546027454
22.67416208
22.15271609
21.11096655
19.52865038
17.58115432
15.49706995
13.47693804
11.63821111
10.02244298
8.627580982
7.433078811
6.413035697
5.542012882
4.79722182
4.159066602
3.611075949
3.139455838
2.732611523
2.380874749
2.0761617
1.811673331
1.581710812
1.381445777
1.206825802
1.054393954
0.9212312794
0.804844537
0.7031107423
0.6142053261
0.5365604186
0.4688187789
0.4097959986
0.3584535232
0.3138703639
0.2752266425
0.2417864985
0.2128904134
0.1879473234
0.1664282208
0.1478643051
0.1318412
0.1179961967
0.1060143034
0.09562388375
0.08659127604
0.07871683559
0.07183055937
0.06578760244
0.06046300253
0.05574379125
20.71017031
20.35313955
19.65807199
18.53452757
17.05642873
15.34454703
13.56087045
11.84335934
10.27347821
8.882153679
7.669942973
6.623049092
5.722543354
4.948967334
4.284350982
3.712896137
3.220887355
2.796615535
2.430211524
2.11328255
1.838750518
1.600623174
1.393823013
1.214054098
1.057658919
0.9215271601
0.8030078465
0.699829105
0.6100417017
0.5319604501
0.4641287853
0.4052699386
0.3542685304
0.3101355153
0.2719972953
0.2390746212
0.2106776421
0.1861939883
0.1650829724
0.1468708788
0.131142922
0.1175398304
0.1057518913
0.09551363036
0.08659758436
0.07881018331
0.07198690569
0.0659877041
0.06069185194
0.05599046589
19.21101883
18.94052864
18.44176494
17.60425704
16.46632844
15.07462903
13.53330138
11.96443945
10.46692436
9.098273555
7.880737359
6.814676415
5.889443313
5.090147739
4.401176031
3.807709272
3.296397972
2.855601723
2.47527897
2.146793078
1.862814278
1.617065792
1.404227495
1.2197619
1.059810644
0.9210706676
0.8007307501
0.696369096
0.6059104606
0.5275540297
0.4597438148
0.401117645
0.3504864429
0.30680269
0.2691452494
0.2367001963
0.208753929
0.1846784548
0.1639256659
0.1460193969
0.130546393
0.117151383
0.1055299073
0.09542201479
0.08660593853
0.07889337204
0.07212450569
0.06616339307
0.06089291926
0.05620766781
0.2666174263
0.2346117933
0.2070722071
0.1833600779
0.1629229348
0.1452839395
0.1300325633
0.1168177912
0.1053402198
0.09534495525
0.08661530961
0.07896757993
0.07224602494
0.06631820585
0.06107007525
0.05639914971
)
;

boundaryField
{
    front_top
    {
        type            wedge;
    }
    front_middle
    {
        type            wedge;
    }
    front_bottom
    {
        type            wedge;
    }
    back_top
    {
        type            wedge;
    }
    back_middle
    {
        type            wedge;
    }
    back_bottom
    {
        type            wedge;
    }
    axis_top
    {
        type            symmetryPlane;
    }
    axis_middle
    {
        type            symmetryPlane;
    }
    axis_bottom
    {
        type            symmetryPlane;
    }
    wall_top
    {
        type            calculated;
        value           nonuniform 0();
    }
    wall_middle
    {
        type            calculated;
        value           nonuniform List<scalar> 5(0.09067981599 0.09671655392 0.06176266414 0.08032044852 0.02374163788);
    }
    wall_bottom
    {
        type            calculated;
        value           nonuniform List<scalar> 
19
(
0.01895623912
0.04327613513
0.03624566445
0.04515098919
0.04444521623
0.04757024447
0.04816635493
0.04956293938
0.0502572222
0.05106098944
0.05163096955
0.05217002948
0.05260617516
0.05299466719
0.05332496047
0.05361533535
0.05386780725
0.05409039367
0.0542866972
)
;
    }
    inlet
    {
        type            calculated;
        value           nonuniform 0();
    }
    outlet
    {
        type            calculated;
        value           nonuniform 0();
    }
    procBoundary2to1
    {
        type            processor;
        value           nonuniform List<scalar> 
51
(
18.05628828
17.83493955
17.45088965
16.78941478
15.88372041
14.7417611
13.41969201
12.00833617
10.60233935
9.273815862
8.063521887
6.986522802
6.041833769
5.220265733
4.509185537
3.895266891
3.365836331
2.909481296
2.516050264
2.176725535
1.883928038
1.63112825
1.412762818
1.224059917
1.060956295
0.9199600336
0.7980936602
0.6927912724
0.6018469967
0.5233520281
0.4556528826
0.3973092052
0.3470647497
0.3038213383
0.3038213383
0.26436667
0.2327647237
0.2055925419
0.1822048612
0.1620470902
0.1446430967
0.1295856944
0.11652821
0.1051760377
0.09527889601
0.08662463561
0.0790336027
0.07235359975
0.06645522457
0.06122707619
0.05656918968
)
;
    }
    procBoundary2to3
    {
        type            processor;
        value           nonuniform List<scalar> 
51
(
0.7454597285
0.7537222427
0.7537222427
0.7542312381
0.7451124963
0.7349638283
0.7232335384
0.7098335458
0.6950673176
0.679230102
0.6625718808
0.6453237295
0.6276977192
0.6098868597
0.5920576575
0.5743541074
0.5568951207
0.5397796749
0.5230821805
0.506860396
0.4911504946
0.4759721194
0.4613300868
0.447216099
0.4336065272
0.4204664454
0.4077508141
0.3954024349
0.3833521362
0.3715216958
0.3598213244
0.348149149
0.3363966163
0.3244438521
0.3121711177
0.2994601423
0.2862142829
0.2723727277
0.257936293
0.242990447
0.2277132139
0.2123670607
0.1972660014
0.182729454
0.1690386836
0.1564114138
0.1449988109
0.134899624
0.1261748784
0.1188446165
0.1128073587
)
;
    }
}


// ************************************************************************* //
