/*--------------------------------*- C++ -*----------------------------------*\
  =========                 |
  \\      /  F ield         | OpenFOAM: The Open Source CFD Toolbox
   \\    /   O peration     | Website:  https://openfoam.org
    \\  /    A nd           | Version:  7
     \\/     M anipulation  |
\*---------------------------------------------------------------------------*/
FoamFile
{
    version     2.0;
    format      ascii;
    class       volVectorField;
    location    "0.0021";
    object      grad(generalizedNewtonian:nu);
}
// * * * * * * * * * * * * * * * * * * * * * * * * * * * * * * * * * * * * * //

dimensions      [0 1 -1 0 0 0 0];

internalField   nonuniform List<vector> 
1167
(
(-640.2974846 0 -1447.324491)
(-715.2198444 8.333933657e-10 -2835.644425)
(-381.2871014 0 -2809.21858)
(-797.8893847 0 -2755.706892)
(-1551.229589 0 -2638.83364)
(-1802.434017 -5.15666669e-11 -2516.912218)
(-2107.745166 0 -2369.253923)
(-2404.020755 3.774186221e-11 -2200.645875)
(-2660.732823 0 -2017.190067)
(-2879.593255 0 -1822.573734)
(-3063.413473 0 -1620.028037)
(-3213.317591 -2.610869962e-11 -1412.654953)
(-3330.601664 0 -1203.252122)
(-3417.533701 0 -994.1233128)
(-3476.866942 0 -787.1583964)
(-3511.317793 -1.055954369e-11 -583.8236666)
(-3523.960973 -1.015474971e-11 -385.3665066)
(-3517.914017 0 -192.3575537)
(-3495.922219 0 -5.545053627)
(-3461.368188 0 175.0766534)
(-3417.400811 -9.011478556e-12 349.5475269)
(-3366.258254 0 517.7871266)
(-3311.028555 0 680.252814)
(-3254.454406 8.479916219e-12 837.3994333)
(-3198.684101 8.344416676e-12 989.4546112)
(-3146.348531 0 1136.998371)
(-3100.135875 0 1280.656804)
(-3062.501031 4.015900765e-12 1420.893096)
(-3036.055058 0 1558.301975)
(-3023.91684 0 1693.666951)
(-3029.062365 7.829252816e-12 1827.662142)
(-3054.772314 0 1961.109928)
(-3104.497627 0 2094.963208)
(-3181.283704 3.854792337e-12 2230.014183)
(-3287.596218 0 2367.024891)
(-3424.010616 0 2506.120046)
(-3587.435101 -3.827513537e-12 2646.254486)
(-3769.555051 0 2784.442483)
(-3954.828472 0 2914.739689)
(-4120.104737 -1.913392543e-12 3027.866687)
(-4238.384002 3.831683847e-12 3112.169315)
(-4284.873954 -5.758411109e-12 3155.979979)
(-4244.628539 1.924224513e-12 3151.103363)
(-4118.670194 0 3096.126395)
(-3925.079084 1.936924276e-12 2997.715064)
(-3694.722854 0 2869.073678)
(-3462.93654 -9.768090521e-13 2725.75553)
(-3260.691932 -9.816900741e-13 2580.858946)
(-3108.184897 0 2441.760349)
(-3004.29273 0 2305.208015)
(-2852.440807 0 2116.933905)
(-814.1257588 0 -4770.775289)
(-464.1120947 0 -4723.609799)
(-960.353153 0 -4658.037938)
(-1833.415673 0 -4500.257972)
(-2140.16622 0 -4333.583956)
(-2504.048291 -4.713125668e-11 -4133.501451)
(-2856.51283 0 -3905.97608)
(-3163.013479 -3.653932013e-11 -3658.855075)
(-3425.233932 0 -3397.426748)
(-3646.390005 3.04942741e-11 -3126.32452)
(-3827.963332 2.836598132e-11 -2849.923221)
(-3971.699675 2.662708457e-11 -2572.139862)
(-4080.255346 0 -2296.196415)
(-4157.081171 0 -2024.867809)
(-4205.221043 0 -1760.220687)
(-4228.601658 0 -1503.773664)
(-4230.663882 0 -1256.58329)
(-4214.743099 -1.03255863e-11 -1019.298242)
(-4184.742483 0 -791.8919377)
(-4143.43467 0 -574.3997253)
(-4093.981395 0 -366.2619624)
(-4039.319197 9.380933565e-12 -166.7800245)
(-3981.559314 9.21306501e-12 24.74349292)
(-3923.294967 0 209.3025148)
(-3866.953933 0 387.9583922)
(-3814.187981 0 561.577777)
(-3767.280891 0 731.1339993)
(-3728.589839 -4.320648631e-12 897.6865127)
(-3700.010637 0 1062.041177)
(-3684.078797 -4.253073528e-12 1225.016962)
(-3683.335342 0 1387.485611)
(-3700.341361 4.205407431e-12 1550.095401)
(-3737.733601 -4.188066429e-12 1713.479256)
(-3797.733921 0 1878.057513)
(-3881.564383 0 2043.812051)
(-3988.085327 0 2209.917885)
(-4111.786536 -2.077608381e-12 2373.912203)
(-4241.038245 2.07750394e-12 2530.990598)
(-4356.315015 -4.157637706e-12 2673.171874)
(-4430.747016 0 2789.017631)
(-4435.898894 0 2865.55147)
(-4348.900051 -2.090587332e-12 2890.791787)
(-4157.993767 0 2856.197658)
(-3862.33714 -1.05219253e-12 2757.426675)
(-3465.300402 -1.056465059e-12 2592.879005)
(-2967.606527 0 2362.419359)
(-2368.257107 0 2068.570904)
(-1677.330047 0 1720.042341)
(-951.1378515 1.078634424e-12 1345.154179)
(-469.8344891 0 1095.351564)
(-982.9570601 -4.936315227e-10 -7661.157681)
(-605.5462283 -1.686914579e-10 -7587.879037)
(-1206.734876 0 -7502.310306)
(-2248.498434 0 -7278.272841)
(-2631.96992 6.108743687e-11 -7037.496267)
(-3078.438241 0 -6751.259759)
(-3508.073686 0 -6427.980215)
(-3880.96249 -3.984104618e-11 -6078.963722)
(-4198.351543 -3.614413238e-11 -5712.412779)
(-4463.957677 0 -5335.533063)
(-4679.69081 0 -4954.975217)
(-4847.997256 -2.903313204e-11 -4576.550504)
(-4971.887163 0 -4205.053111)
(-5055.748662 2.613921357e-11 -3844.276083)
(-5104.115818 -2.501831116e-11 -3497.023836)
(-5121.405584 1.202962429e-11 -3164.866051)
(-5112.481624 0 -2848.79056)
(-5081.871577 0 -2548.717758)
(-5034.324593 0 -2263.874708)
(-4974.476011 1.067527067e-11 -1992.937139)
(-4905.973067 0 -1734.068862)
(-4832.809988 0 -1485.289123)
(-4758.570918 0 -1244.324878)
(-4685.763733 9.885048965e-12 -1009.165169)
(-4617.258524 0 -777.949039)
(-4555.146727 -9.621635355e-12 -549.0789122)
(-4501.169893 0 -321.3951057)
(-4457.287927 0 -93.94424217)
(-4424.756252 0 133.7005902)
(-4405.08992 -9.274770173e-12 361.899485)
(-4399.942923 0 590.8932092)
(-4410.6458 4.58541183e-12 820.6879045)
(-4438.860092 4.566503885e-12 1051.510445)
(-4485.896878 -4.551854034e-12 1283.422586)
(-4552.715009 0 1516.489489)
(-4638.888486 -4.534188591e-12 1750.31587)
(-4741.267281 0 1983.594282)
(-4852.389105 -2.265229096e-12 2213.442272)
(-4957.428843 6.799988401e-12 2434.002737)
(-5033.098337 0 2635.716364)
(-5049.197854 -2.273862789e-12 2805.333411)
(-4976.228552 0 2928.172573)
(-4799.739732 0 2994.09295)
(-4535.333503 2.294539183e-12 3005.440006)
(-4236.252565 1.151928209e-12 2983.277643)
(-3980.611016 0 2962.737223)
(-3826.856864 -1.162939821e-12 2966.622164)
(-3756.198851 1.169258966e-12 2966.822826)
(-3673.224705 -5.880503968e-13 2880.66091)
(-3381.296464 0 2563.865288)
(-1205.60128 0 -11907.4398)
(-799.880363 -1.846553567e-10 -11789.41239)
(-1595.310699 1.138672091e-10 -11662.78323)
(-2912.624698 0 -11327.197)
(-3419.228855 0 -10961.05175)
(-3992.013578 0 -10530.13671)
(-4535.26568 4.8941242e-11 -10045.83602)
(-5001.215009 0 -9525.14141)
(-5391.515466 -3.95645858e-11 -8980.563112)
(-5711.092646 0 -8423.100477)
(-5963.34594 3.385609801e-11 -7862.599314)
(-6152.705761 0 -7307.37728)
(-6284.561278 -3.005893583e-11 -6764.068259)
(-6365.353141 0 -6237.555754)
(-6403.01712 0 -5731.173043)
(-6405.123738 -2.63360646e-11 -5246.866248)
(-6378.764084 0 -4785.64275)
(-6331.726953 -2.464812055e-11 -4347.363852)
(-6270.794863 -1.198316389e-11 -3931.774774)
(-6202.444618 0 -3538.334639)
(-6131.927058 0 -3166.621218)
(-6063.155517 0 -2816.630242)
(-5999.440668 -1.099621504e-11 -2488.461233)
(-5942.162694 0 -2182.794367)
(-5892.312998 0 -1899.83983)
(-5849.792448 0 -1640.025916)
(-5814.037877 0 -1402.843099)
(-5784.670023 0 -1187.132627)
(-5761.215235 1.022665714e-11 -990.6818133)
(-5744.204783 0 -810.0104471)
(-5734.313222 0 -640.6509241)
(-5733.380482 0 -477.0181117)
(-5743.716136 -4.998649078e-12 -312.7264891)
(-5767.602751 -4.982612888e-12 -141.3292573)
(-5807.320283 4.970916034e-12 43.57660778)
(-5864.029266 0 247.2022147)
(-5936.64047 2.479720755e-12 473.0647108)
(-6020.318465 0 721.9174336)
(-6104.256019 0 991.0930818)
(-6168.583868 0 1273.255347)
(-6182.04801 2.489046886e-12 1555.548384)
(-6102.262848 0 1818.838906)
(-5884.38639 1.251387238e-12 2039.533974)
(-5494.278744 0 2193.406226)
(-4909.819063 0 2254.138033)
(-4091.778754 -1.266663703e-12 2175.417566)
(-2944.947986 6.364965666e-13 1874.722589)
(-1340.568168 0 1272.213989)
(742.8809139 -6.436997928e-13 372.731123)
(2067.413963 1.943170914e-12 -159.9157996)
(-1597.428788 -1.188036878e-09 -18841.58952)
(-1168.404901 0 -18640.22504)
(-2258.625673 0 -18403.2468)
(-3998.372553 0 -17825.4198)
(-4699.364814 1.470208536e-10 -17190.18723)
(-5474.038948 -1.23681951e-10 -16451.27185)
(-6199.261869 0 -15632.44793)
(-6813.944957 -4.79432835e-11 -14765.90284)
(-7321.283606 0 -13875.64086)
(-7728.246105 0 -12981.89015)
(-8040.840696 3.721903636e-11 -12102.08151)
(-8266.650376 0 -11250.25017)
(-8414.699153 -6.608940136e-11 -10437.17778)
(-8494.734482 0 -9670.876446)
(-8516.588784 3.010613677e-11 -8957.401937)
(-8489.661131 2.895203535e-11 -8301.764486)
(-8422.679466 2.79577724e-11 -7708.005319)
(-8321.77161 0 -7180.395598)
(-8191.402204 0 -6723.791778)
(-8035.751926 0 -6342.513955)
(-7856.76006 2.511964423e-11 -6040.702841)
(-7656.702292 0 -5821.00683)
(-7438.091693 -1.208847299e-11 -5683.697165)
(-7205.030843 1.189531293e-11 -5625.9228)
(-6963.129737 1.172613879e-11 -5640.981026)
(-6720.065324 0 -5718.582658)
(-6485.603253 0 -5844.666807)
(-6270.423087 0 -6002.862742)
(-6086.246483 0 -6174.8992)
(-5944.869742 -1.116092527e-11 -6341.758298)
(-5857.460618 0 -6484.058767)
(-5833.505529 1.65537596e-11 -6582.297826)
(-5880.164427 0 -6616.434401)
(-6001.096141 5.477537625e-12 -6565.792049)
(-6195.618446 -5.464678881e-12 -6409.434386)
(-6458.3438 -5.456279677e-12 -6127.892373)
(-6779.420496 0 -5705.840427)
(-7145.653762 -5.451790542e-12 -5135.489881)
(-7541.709398 -5.455241304e-12 -4420.339618)
(-7950.164828 0 -3577.666737)
(-8348.100472 -2.736284784e-12 -2637.775616)
(-8697.661927 -5.486124074e-12 -1637.284109)
(-8944.339409 0 -605.3722963)
(-9028.713513 1.380583009e-12 442.8535965)
(-8895.54898 0 1480.494829)
(-8533.631508 -1.392481866e-12 2449.370943)
(-8135.412904 0 3363.022335)
(-8026.788497 0 4359.336363)
(-7821.45821 0 5240.231946)
(-6217.336759 7.120622586e-13 5210.615397)
(-2073.087876 0 -28746.21436)
(-1750.065724 0 -28400.54111)
(-3353.920364 0 -28143.0364)
(-5679.717743 1.621145429e-10 -27453.57818)
(-6660.309922 -1.296415651e-10 -26668.60338)
(-7706.234482 0 -25775.80191)
(-8639.346289 -9.488521138e-11 -24804.24398)
(-9388.240269 0 -23793.94578)
(-9965.228165 0 -22779.51)
(-10384.82771 0 -21788.73295)
(-10660.3237 -6.563877168e-11 -20845.4091)
(-10807.18352 -6.161497134e-11 -19969.45974)
(-10841.12483 0 -19177.88558)
(-10776.48663 0 -18486.01243)
(-10625.20096 0 -17908.34841)
(-10396.95422 2.552962441e-11 -17457.97173)
(-10099.21649 4.930578596e-11 -17146.00142)
(-9736.359407 0 -16979.83186)
(-9312.842614 0 -16960.18893)
(-8836.424709 0 -17077.05472)
(-8316.63243 0 -17308.1472)
(-7767.693119 0 -17615.28027)
(-7208.276346 0 -17944.14256)
(-6660.21007 0 -18224.58376)
(-6147.081407 0 -18374.54504)
(-5691.705973 0 -18307.41003)
(-5314.326882 -1.009620547e-11 -17942.78016)
(-5030.62285 0 -17220.48937)
(-4852.165024 -9.913505491e-12 -16114.64693)
(-4788.569919 0 -14643.98107)
(-4850.623442 0 -12873.99646)
(-5054.820233 0 -10907.67801)
(-5425.126844 0 -8866.408608)
(-5990.261145 0 -6866.851164)
(-6774.628168 0 -5003.082019)
(-7784.346183 0 -3337.986075)
(-8993.589265 0 -1904.691323)
(-10333.00865 0 -712.899763)
(-11690.60773 0 243.5822605)
(-12938.8259 0 981.6699468)
(-14002.54813 0 1524.852528)
(-14927.87736 4.837611092e-12 1896.683457)
(-15845.89306 -4.852273348e-12 2110.965824)
(-16752.61369 0 2164.403024)
(-17270.85969 0 2046.766012)
(-16835.10347 0 1766.70615)
(-15370.95828 0 1351.171544)
(-13360.63724 0 788.5687696)
(-10698.28941 0 40.12141519)
(-6936.594963 0 -775.0464918)
(-2634.33637 0 -40438.01807)
(-2374.580315 0 -39890.97375)
(-4349.133858 0 -39373.62256)
(-7157.401682 0 -38214.2822)
(-8359.946051 0 -36884.6104)
(-9615.355625 0 -35401.41843)
(-10688.45261 0 -33826.81878)
(-11497.97328 0 -32231.75979)
(-12065.13829 0 -30677.76878)
(-12413.15552 0 -29215.71009)
(-12560.00071 0 -27887.65983)
(-12524.1674 0 -26729.09519)
(-12321.57284 0 -25769.27722)
(-11964.4322 0 -25030.02337)
(-11464.22486 0 -24521.63926)
(-10834.27846 2.552962441e-11 -24238.63673)
(-10092.54749 0 -24154.54286)
(-9266.006605 0 -24217.44027)
(-8398.695845 0 -24345.67611)
(-7551.617819 0 -24430.78915)
(-6801.478112 0 -24345.62488)
(-6241.242755 0 -23956.94137)
(-5971.356428 0 -23148.89083)
(-6089.802446 0 -21843.10138)
(-6672.348063 0 -20019.94519)
(-7751.400622 0 -17724.19536)
(-9292.918361 0 -15058.79199)
(-11179.66962 0 -12161.70733)
(-13214.45554 0 -9180.415088)
(-15147.50681 -9.841595743e-12 -6246.947886)
(-16730.64477 0 -3466.854921)
(-17782.43735 0 -916.0401988)
(-18237.3328 0 1353.211319)
(-18151.35835 0 3307.04577)
(-17664.66807 0 4924.109134)
(-16943.28584 0 6193.886062)
(-16129.47149 0 7115.872196)
(-15317.50083 0 7701.149077)
(-14555.15752 0 7974.031318)
(-13858.92529 0 7972.365195)
(-13221.47427 0 7740.184603)
(-12598.51522 0 7308.384625)
(-11889.7571 0 6672.847204)
(-10960.25575 0 5798.183474)
(-9712.808219 0 4671.400017)
(-8134.819599 -1.227877028e-12 3374.031549)
(-6275.579027 0 2074.193204)
(-4244.267049 0 902.2764244)
(-2257.79889 0 -87.02808337)
(-902.1028525 0 -752.7595015)
(-3470.859213 0 -57560.13289)
(-3614.718611 0 -56701.75227)
(-6446.380552 0 -55733.73205)
(-10148.71995 0 -53804.58776)
(-11789.95466 0 -51608.34052)
(-13372.5621 0 -49230.96854)
(-14612.94755 0 -46802.49424)
(-15427.94097 0 -44455.91006)
(-15854.13847 0 -42302.53703)
(-15931.62488 0 -40430.38073)
(-15693.69407 0 -38901.17918)
(-15172.7429 0 -37746.15478)
(-14405.0271 0 -36958.54724)
(-13438.87056 -5.547341208e-11 -36483.6737)
(-12341.27046 0 -36209.79166)
(-11202.46533 0 -35965.71974)
(-10138.46351 0 -35528.4528)
(-9290.480362 0 -34646.34442)
(-8812.605511 0 -33081.04459)
(-8846.155729 0 -30666.89401)
(-9492.518348 0 -27361.33835)
(-10773.08183 0 -23274.23732)
(-12602.55811 0 -18651.03629)
(-14782.65497 0 -13815.83651)
(-17029.02981 0 -9101.689206)
(-19034.82995 0 -4792.098799)
(-20546.92287 0 -1092.880287)
(-21423.34064 0 1875.499456)
(-21650.59755 0 4072.203644)
(-21316.28242 -1.968319149e-11 5527.363237)
(-20558.12088 0 6329.460166)
(-19521.50481 0 6606.905756)
(-18335.94422 0 6504.53685)
(-17109.85314 0 6159.094727)
(-15930.10825 0 5682.154842)
(-14862.46963 0 5152.651384)
(-13948.17015 0 4619.696872)
(-13201.0007 0 4108.92068)
(-12605.0126 0 3629.391995)
(-12110.82596 0 3177.124276)
(-11631.64867 0 2737.145756)
(-11051.21254 0 2288.014773)
(-10260.00692 0 1813.399428)
(-9213.700681 0 1317.027736)
(-7974.899385 0 827.8010853)
(-6697.518712 -1.227877028e-12 389.1239354)
(-5548.135027 0 44.38097224)
(-4613.653335 0 -170.0828906)
(-3883.755461 0 -234.7024637)
(-3228.462077 0 -158.1900698)
(-4827.613575 0 -84912.44844)
(-5627.881737 0 -83510.08724)
(-9657.601888 0 -81764.97962)
(-14561.80095 0 -78632.85552)
(-16690.67121 0 -75192.77202)
(-18509.58551 0 -71682.544)
(-19675.44994 0 -68362.536)
(-20115.5788 0 -65457.01812)
(-19911.00726 0 -63099.78425)
(-19160.34501 0 -61324.67647)
(-17978.61988 0 -60053.86242)
(-16514.03391 0 -59089.09457)
(-14959.35952 0 -58116.00699)
(-13558.07414 -5.547341208e-11 -56731.33244)
(-12594.92366 0 -54505.81029)
(-12364.23795 5.105924881e-11 -51083.23847)
(-13114.2503 0 -46292.78598)
(-14966.33801 0 -40226.2738)
(-17824.38629 0 -33237.91065)
(-21333.5296 0 -25850.14942)
(-24927.51999 0 -18614.39386)
(-27978.09355 0 -11999.34233)
(-29999.3633 0 -6327.552307)
(-30788.23437 0 -1770.25938)
(-30436.45292 0 1639.693539)
(-29227.8955 0 3978.432545)
(-27499.19832 0 5401.415006)
(-25539.37813 0 6104.114832)
(-23549.25866 0 6289.185831)
(-21646.56761 -1.968319149e-11 6136.178835)
(-19886.90192 0 5788.984075)
(-18288.89851 0 5351.624045)
(-16854.06516 0 4893.893872)
(-15579.74287 0 4457.510018)
(-14463.82755 0 4063.118973)
(-13503.27176 0 3715.510248)
(-12687.6482 0 3408.050813)
(-11990.74287 0 3126.040286)
(-11365.74268 0 2849.454743)
(-10746.50587 0 2556.269647)
(-10060.32743 0 2228.113781)
(-9251.396744 0 1858.322729)
(-8305.354121 0 1458.771439)
(-7254.837576 0 1058.324568)
(-6160.830032 0 691.3938287)
(-5082.095388 0 381.9511035)
(-4058.855731 0 133.99939)
(-3121.760457 0 -64.77360959)
(-2314.80343 0 -228.6342655)
(-1765.071913 0 -364.0094121)
(-7054.079516 0 -130845.765)
(-9272.65469 1.432008002e-09 -128407.9386)
(-15328.34241 0 -125084.4615)
(-21923.8104 0 -119900.203)
(-24420.11679 0 -114653.0531)
(-25981.03482 0 -109839.15)
(-26296.5946 -1.897704228e-10 -105767.1689)
(-25475.04006 0 -102476.7823)
(-23882.13184 0 -99684.30639)
(-21957.51305 1.411272662e-10 -96831.80669)
(-20207.07144 -1.312775434e-10 -93180.25314)
(-19180.14091 0 -87968.97655)
(-19400.42989 0 -80642.32317)
(-21243.27635 0 -71075.82764)
(-24768.75551 0 -59684.60063)
(-29585.31173 1.021184976e-10 -47324.98609)
(-34859.81396 9.861157192e-11 -35025.46286)
(-39536.84678 4.778673421e-11 -23713.77193)
(-42710.31917 0 -14052.52542)
(-43945.06034 0 -6390.216645)
(-43337.61686 0 -789.3356434)
(-41342.40177 0 2921.300173)
(-38515.86638 0 5072.669882)
(-35333.27623 0 6065.558503)
(-32125.2364 0 6287.588683)
(-29089.27621 0 6055.49248)
(-26325.81031 0 5595.86259)
(-23871.49696 0 5052.713338)
(-21724.19823 0 4508.532656)
(-19858.63715 0 4005.56151)
(-18240.05681 0 3561.438391)
(-16831.29371 0 3180.913006)
(-15600.12262 0 2860.92132)
(-14520.99153 0 2594.811213)
(-13574.70028 4.818700871e-12 2372.375773)
(-12743.6824 0 2181.27341)
(-12004.99436 0 2006.526951)
(-11323.85901 -9.614672181e-12 1832.266412)
(-10653.02522 0 1643.39423)
(-9941.1188 0 1429.638283)
(-9148.344008 0 1188.979552)
(-8263.110852 0 930.1309217)
(-7307.720296 0 670.0334948)
(-6330.201127 0 428.1639478)
(-5386.887994 0 220.4320562)
(-4525.248599 0 56.40767425)
(-3774.273585 0 -59.65995139)
(-3146.224656 0 -127.1812907)
(-2649.984304 0 -149.2862707)
(-2277.625953 0 -134.4632084)
(-11056.58594 0 -217254.3333)
(-16070.9052 0 -213256.8397)
(-25019.08858 0 -207553.971)
(-33175.3622 0 -199788.3684)
(-34896.40209 0 -192337.6912)
(-34851.9503 0 -185198.2298)
(-33461.17412 0 -177625.9228)
(-31741.53243 0 -168361.9699)
(-30953.56693 -1.534122932e-10 -156065.8932)
(-32182.03833 1.411272662e-10 -139905.174)
(-36085.57014 0 -120060.5832)
(-42592.28695 0 -97807.60893)
(-50701.694 0 -75076.68208)
(-58660.2904 -1.109468242e-10 -53781.51008)
(-64593.05723 0 -35338.52594)
(-67298.98584 1.021184976e-10 -20515.46621)
(-66650.08001 0 -9493.829245)
(-63373.58374 0 -1996.169952)
(-58529.20766 0 2572.142898)
(-53058.88169 0 4955.874111)
(-47598.93275 0 5879.649029)
(-42501.96201 0 5938.585775)
(-37920.66598 0 5553.581596)
(-33890.16681 0 4991.495838)
(-30385.8976 0 4402.416367)
(-27358.24583 0 3862.372184)
(-24750.95986 0 3400.750071)
(-22507.95364 0 3022.946585)
(-20576.94882 0 2720.768239)
(-18908.61506 -9.841595743e-12 2482.173238)
(-17458.52617 -9.781168704e-12 2293.589351)
(-16187.41321 0 2142.910685)
(-15062.75462 0 2019.357307)
(-14058.31365 -9.660079362e-12 1913.174887)
(-13151.36215 0 1814.945221)
(-12319.63737 0 1714.750705)
(-11536.39782 0 1602.542265)
(-10769.50488 0 1469.071592)
(-9985.684475 0 1308.657459)
(-9159.631453 0 1121.547012)
(-8283.686227 0 915.3269337)
(-7371.732581 0 703.421764)
(-6453.916132 0 501.1570736)
(-5566.19469 0 321.5054568)
(-4739.033458 0 172.0707332)
(-3991.456293 0 54.64327677)
(-3331.41808 0 -33.44304374)
(-2761.122566 0 -97.11408997)
(-2286.809408 0 -142.01604)
(-1940.847281 0 -174.5003441)
(-17268.20991 8.380795319e-09 -411912.7813)
(-26927.34687 0 -404966.5998)
(-39438.23728 1.766087453e-09 -390686.2912)
(-49002.94731 0 -370719.3689)
(-50867.17003 5.185662604e-10 -345027.4113)
(-53242.24201 0 -311781.8416)
(-58197.49337 0 -270586.4806)
(-67147.60612 0 -223493.4452)
(-79864.88419 3.068245864e-10 -174636.7727)
(-93982.46709 0 -128504.624)
(-105827.5335 0 -88392.47996)
(-112225.6044 0 -55974.47108)
(-112045.0559 1.165539884e-10 -31601.58847)
(-106341.7923 -1.109468242e-10 -14699.76199)
(-97279.47976 0 -4066.072411)
(-86929.11443 0 1839.189372)
(-76684.43877 0 4560.729018)
(-67269.63792 0 5382.64154)
(-58965.87073 0 5219.626474)
(-51803.19321 0 4637.360613)
(-45693.38302 0 3947.071627)
(-40505.51797 -2.170744419e-11 3300.880717)
(-36101.47834 0 2759.09349)
(-32353.68212 0 2336.176606)
(-29151.59389 0 2023.087874)
(-26403.30807 0 1802.99318)
(-24033.28073 0 1655.877931)
(-21979.69788 0 1562.799185)
(-20191.41574 0 1506.855968)
(-18624.91658 -9.841595743e-12 1473.860323)
(-17241.62089 0 1452.745988)
(-16008.79966 0 1434.496698)
(-14897.78532 0 1412.595493)
(-13883.87989 0 1381.024552)
(-12944.07522 0 1334.745829)
(-12055.38136 0 1268.686582)
(-11193.46613 0 1178.876235)
(-10334.71947 0 1063.345621)
(-9461.568638 -2.405189498e-12 924.0567655)
(-8567.77741 0 767.3117913)
(-7661.665349 2.412829394e-12 603.2757879)
(-6763.519362 0 443.3500501)
(-5899.540485 -1.213068337e-12 297.6701084)
(-5094.478265 0 173.1596827)
(-4366.297297 -1.222328066e-12 73.0360454)
(-3724.687353 -1.227877028e-12 -2.439472587)
(-3172.097545 0 -54.82354221)
(-2707.336372 0 -86.60961335)
(-2331.198053 0 -100.8898555)
(-2045.012193 0 -101.7988932)
(-28805.00804 0 -850605.0435)
(-55908.59663 0 -814655.4919)
(-86429.34934 -1.766087453e-09 -719039.5064)
(-115618.7319 0 -597999.3316)
(-143003.9456 0 -465935.8672)
(-173500.6406 0 -341633.085)
(-200426.5977 0 -236357.177)
(-216060.3538 0 -153452.1602)
(-216436.7164 0 -91998.54603)
(-203482.9913 2.822545324e-10 -49386.11969)
(-182687.8678 0 -22231.95125)
(-159428.6739 0 -6725.156921)
(-137131.0037 0 909.1935637)
(-117341.3287 -1.109468242e-10 3851.007854)
(-100455.5069 0 4363.823444)
(-86321.11881 0 3826.266633)
(-74578.8177 0 2970.660914)
(-64839.48878 0 2140.691982)
(-56748.96789 0 1471.177281)
(-49997.69394 0 990.2903479)
(-44332.30503 0 682.6797747)
(-39547.0272 0 515.2231186)
(-35477.52648 0 453.6512123)
(-31991.9274 0 466.6151649)
(-28985.40837 0 528.7620444)
(-26375.89405 0 619.7067996)
(-24096.54091 0 724.4037431)
(-22094.42198 0 830.7184579)
(-20325.50382 0 930.2782195)
(-18752.62784 -9.841595743e-12 1016.103553)
(-17342.60172 0 1083.798197)
(-16066.59931 0 1129.816312)
(-14898.57695 0 1151.855862)
(-13814.75889 0 1148.073094)
(-12793.37094 0 1117.052891)
(-11813.76333 0 1058.24121)
(-10857.70267 0 972.407799)
(-9911.828453 0 862.8050881)
(-8971.035421 0 735.4358157)
(-8040.037451 0 598.7505966)
(-7132.26319 -2.412829394e-12 462.2067894)
(-6265.59994 0 334.3843389)
(-5457.962177 0 221.6761702)
(-4722.893665 0 127.533874)
(-4067.664517 1.222328066e-12 52.76029313)
(-3493.654471 0 -3.806843247)
(-2997.817959 0 -44.47370571)
(-2575.437039 0 -72.08986759)
(-2224.850941 0 -89.74929056)
(-1955.391509 0 -100.8653606)
(-109124.1188 0 -1039722.34)
(-278602.6477 0 -889760.1509)
(-425441.2467 0 -658101.1415)
(-502326.8607 0 -439388.0462)
(-515242.3251 0 -267564.9514)
(-475486.488 0 -147246.2639)
(-410299.8896 7.590816911e-10 -71006.06922)
(-342119.6761 0 -27954.997)
(-281665.0605 0 -7002.280239)
(-231683.2891 0 1172.378749)
(-191506.9885 0 3035.941583)
(-159498.9605 0 2334.941215)
(-133998.5501 0 922.0907901)
(-113594.6006 -2.218936483e-10 -413.9429123)
(-97158.0008 0 -1407.128459)
(-83805.52064 1.021184976e-10 -2022.478979)
(-72859.8762 0 -2314.648712)
(-63811.20486 0 -2356.721963)
(-56266.00949 4.646490293e-11 -2222.467626)
(-49919.9811 4.531075074e-11 -1974.538544)
(-44539.12822 0 -1660.170118)
(-39940.52844 0 -1316.189243)
(-35982.07718 2.131899682e-11 -966.8192159)
(-32550.62547 0 -630.1253894)
(-29556.64869 -2.067999104e-11 -316.4152469)
(-26929.44715 0 -33.18933758)
(-24610.7516 0 216.2925394)
(-22553.3055 0 429.7167169)
(-20717.29305 0 606.4752916)
(-19068.28419 0 746.4436608)
(-17575.81122 9.781168704e-12 849.9876891)
(-16212.03566 0 918.0263278)
(-14952.34217 0 951.4229683)
(-13773.93437 9.660079362e-12 951.7522137)
(-12657.18759 0 920.6927482)
(-11585.67897 0 861.2627454)
(-10547.54538 0 777.6047902)
(-9537.339637 0 675.8268052)
(-8556.854846 0 563.272927)
(-7614.483375 0 448.0392809)
(-6722.339606 0 337.5086272)
(-5893.131604 1.209402773e-12 237.452271)
(-5137.191056 0 151.5309504)
(-4460.404921 0 81.21255935)
(-3864.129387 0 26.3052388)
(-3346.030911 -1.227877028e-12 -14.46082862)
(-2901.262953 0 -42.88929531)
(-2524.435623 0 -60.97306077)
(-2212.767689 -6.239889687e-13 -70.74088095)
(-1967.753576 0 -74.43755998)
(-411978.4436 0 -462874.2622)
(-755347.7512 0 -315878.2605)
(-873283.1115 0 -167843.2768)
(-803710.7346 2.593832687e-09 -61807.28588)
(-666015.9825 -2.074265041e-09 -11307.12159)
(-531597.932 0 4816.440085)
(-421577.9044 0 5792.577484)
(-336751.8244 0 2041.35493)
(-272252.8677 3.068245864e-10 -2142.140253)
(-222959.3524 0 -5376.275108)
(-184849.3692 -2.625550867e-10 -7436.480158)
(-155006.0624 0 -8484.810542)
(-131345.604 0 -8771.118486)
(-112365.0457 0 -8529.222661)
(-96962.35431 0 -7948.89469)
(-84319.30406 1.021184976e-10 -7174.526971)
(-73835.20177 9.861157192e-11 -6306.328172)
(-65063.04857 0 -5412.271634)
(-57656.05384 0 -4540.154131)
(-51351.3814 0 -3718.134374)
(-45944.2921 0 -2963.068098)
(-41275.26938 0 -2283.306622)
(-37218.88059 0 -1680.995627)
(-33673.34537 0 -1155.274621)
(-30557.24863 0 -702.5390088)
(-27804.76793 0 -318.4069602)
(-25361.29965 -2.019241095e-11 1.994753478)
(-23180.31104 0 263.6939052)
(-21223.26644 -1.982701098e-11 470.9491406)
(-19455.4995 0 628.2425687)
(-17846.72192 0 739.0372524)
(-16369.56501 0 807.2179439)
(-15000.11278 0 836.1989142)
(-13717.30181 0 829.9417764)
(-12504.36388 0 792.7708497)
(-11349.24674 0 729.962988)
(-10245.06254 0 647.7081154)
(-9190.905079 0 553.0614368)
(-8190.860835 0 453.2288123)
(-7252.588309 0 354.9932394)
(-6384.20792 0 263.7460585)
(-5592.748331 1.209402773e-12 183.2000666)
(-4882.223603 -1.213068337e-12 115.2705007)
(-4252.880284 0 60.32729037)
(-3701.914669 0 17.65141684)
(-3224.247414 0 -14.12620119)
(-2813.414135 0 -36.69615279)
(-2463.046058 6.203589913e-13 -51.82866717)
(-2169.604124 0 -61.29337073)
(-1936.115959 0 -66.91881674)
(-484718.549 0 22834.29043)
(-798552.0069 0 43377.84605)
(-861135.465 0 33902.636)
(-771585.9424 0 16643.47088)
(-631245.6712 0 -262.8622948)
(-505248.3953 0 -12016.12319)
(-404561.3186 0 -18636.82051)
(-326849.3251 0 -21587.54479)
(-267246.1777 0 -22245.15252)
(-221233.7317 0 -21536.14639)
(-185276.4549 0 -20046.47016)
(-156794.991 0 -18151.34442)
(-133941.6894 0 -16092.40842)
(-115381.84 -1.109468242e-10 -14024.19589)
(-100132.7636 0 -12044.14998)
(-87470.84551 1.021184976e-10 -10206.0983)
(-76861.60367 0 -8533.55469)
(-67894.56305 0 -7036.577947)
(-60255.05518 0 -5715.380603)
(-53702.40044 0 -4560.306605)
(-48044.58678 0 -3560.779051)
(-43131.43567 0 -2702.356985)
(-38842.21737 0 -1971.951216)
(-35078.07128 0 -1355.594358)
(-31758.90384 0 -841.2095937)
(-28818.2045 0 -416.8024516)
(-26200.4793 0 -72.83140666)
(-23857.87965 0 200.1472574)
(-21750.21259 0 409.4564419)
(-19841.76108 -9.841595743e-12 562.1773795)
(-18101.36454 0 664.2538223)
(-16501.92756 0 721.3783627)
(-15020.08864 0 739.1228115)
(-13636.89966 0 723.0966423)
(-12338.16766 0 679.5067344)
(-11115.01588 0 614.8086434)
(-9963.354729 0 535.9893658)
(-8883.430945 0 449.8499477)
(-7878.674469 0 362.7052521)
(-6953.741267 0 279.7460268)
(-6112.203141 0 204.6828403)
(-5356.030232 0 139.7653673)
(-4684.44687 0 85.81937418)
(-4094.021968 0 42.64118398)
(-3579.495318 0 9.344851077)
(-3134.403746 -1.227877028e-12 -15.30373499)
(-2751.734403 0 -32.68717851)
(-2425.084072 0 -44.15802614)
(-2150.684498 0 -51.00177713)
(-1929.440794 0 -54.5298657)
(-464469.9738 0 145559.8384)
(-764796.4069 0 83998.43629)
(-824554.1634 0 25363.12041)
(-742846.1575 0 -13318.24313)
(-614722.145 0 -31742.75391)
(-498248.1095 0 -38774.57952)
(-403942.4201 0 -39866.27959)
(-330049.2856 0 -37938.30681)
(-272474.7079 0 -34614.97207)
(-227403.3389 0 -30782.56262)
(-191749.9159 0 -26895.8502)
(-163193.5952 0 -23185.48159)
(-140040.4054 0 -19764.09349)
(-121047.7909 -1.109468242e-10 -16681.71129)
(-105302.288 0 -13949.99198)
(-92130.33906 0 -11554.34904)
(-81019.1487 0 -9471.406644)
(-71570.329 0 -7676.069827)
(-63481.38183 0 -6138.07362)
(-56515.27511 0 -4827.938191)
(-50481.07032 0 -3719.250458)
(-45227.89854 0 -2785.972393)
(-40632.39495 0 -2006.652976)
(-36593.2166 0 -1360.591514)
(-33027.03339 0 -831.1013241)
(-29864.10957 0 -402.560133)
(-27045.74243 0 -62.42543193)
(-24521.57882 0 200.7337351)
(-22248.6895 0 396.5708469)
(-20190.29795 -9.841595743e-12 533.4729921)
(-18313.846 0 619.2649298)
(-16592.47265 0 660.8790966)
(-15003.63587 0 665.4422535)
(-13529.9523 0 639.7011271)
(-12159.17363 0 590.8379006)
(-10883.86218 0 525.7361721)
(-9700.530907 0 451.2380825)
(-8608.450278 0 373.3675104)
(-7608.576455 0 297.2943827)
(-6701.659614 0 226.7875108)
(-5887.131297 0 164.2931699)
(-5162.813185 0 111.0636686)
(-4524.381055 0 67.29263885)
(-3965.871501 0 32.47790255)
(-3480.401508 0 5.689487718)
(-3060.584312 -1.227877028e-12 -14.19274436)
(-2698.989728 0 -28.35687916)
(-2389.09347 0 -37.93865067)
(-2126.9707 0 -44.00737198)
(-1913.670512 0 -47.62496096)
(-327420.9389 0 296023.3994)
(-587843.4507 0 188943.112)
(-695165.4602 0 79216.19753)
(-673357.1153 0 6955.088673)
(-586669.9929 0 -27695.78862)
(-490955.0419 0 -41001.15483)
(-406462.8974 0 -43912.73026)
(-337063.1421 0 -42071.50467)
(-281282.5107 0 -38200.67065)
(-236614.5039 0 -33651.94754)
(-200680.7017 0 -29082.77188)
(-171519.8309 0 -24794.10893)
(-147618.8311 0 -20912.17951)
(-127837.0664 -1.109468242e-10 -17474.25339)
(-111323.2195 0 -14470.3124)
(-97429.34261 1.021184976e-10 -11870.36091)
(-85647.61346 0 -9639.315606)
(-75588.45933 0 -7739.368217)
(-66953.05283 0 -6128.710771)
(-59498.0355 0 -4771.756742)
(-53029.57156 0 -3634.865343)
(-47391.10152 0 -2688.534767)
(-42454.32067 0 -1906.805792)
(-38113.09006 0 -1267.078489)
(-34278.82121 0 -749.7312452)
(-30877.92729 0 -338.0455293)
(-27847.24382 0 -17.41378117)
(-25134.02322 0 224.3889155)
(-22692.31347 0 398.648092)
(-20483.62534 -9.841595743e-12 514.6305185)
(-18474.7746 0 581.3837726)
(-16638.75518 0 606.8759428)
(-14953.70363 0 599.0928344)
(-13403.03329 0 565.5136865)
(-11975.18906 0 513.5067446)
(-10662.55904 0 449.8341694)
(-9460.558702 0 380.6472992)
(-8366.124497 0 310.9917665)
(-7377.017451 0 244.8661664)
(-6490.118145 0 184.9154947)
(-5701.309708 0 132.6730795)
(-5005.201243 0 88.71810558)
(-4394.919952 0 52.8794354)
(-3862.828981 0 24.52293495)
(-3401.078505 0 2.766037304)
(-3001.82588 0 -13.37534071)
(-2657.552169 0 -24.88444875)
(-2361.864399 0 -32.66997374)
(-2110.832787 0 -37.56325108)