/*--------------------------------*- C++ -*----------------------------------*\
  =========                 |
  \\      /  F ield         | OpenFOAM: The Open Source CFD Toolbox
   \\    /   O peration     | Website:  https://openfoam.org
    \\  /    A nd           | Version:  7
     \\/     M anipulation  |
\*---------------------------------------------------------------------------*/
FoamFile
{
    version     2.0;
    format      ascii;
    class       surfaceScalarField;
    location    "0.0021";
    object      phi;
}
// * * * * * * * * * * * * * * * * * * * * * * * * * * * * * * * * * * * * * //

dimensions      [1 0 -1 0 0 0 0];

internalField   nonuniform List<scalar> 
2259
(
7.470014441e-11
2.688054815e-12
7.20120896e-11
1.052001668e-11
2.105816994e-10
2.310693353e-11
3.409676963e-10
4.001615982e-11
4.632483916e-10
6.078230085e-11
5.775345458e-10
8.491571935e-11
6.839627354e-10
1.119092341e-10
7.826876395e-10
1.412439439e-10
8.738781802e-10
1.723945037e-10
9.577134482e-10
2.048336514e-10
1.034378956e-09
2.380363352e-10
1.104063739e-09
2.714835189e-10
1.166957814e-09
3.046658373e-10
1.223250433e-09
3.370870833e-10
1.273128197e-09
3.682679465e-10
1.316774093e-09
3.977494405e-10
1.35436698e-09
4.250973364e-10
1.386080621e-09
4.499055854e-10
1.412084466e-09
4.718014744e-10
1.432543136e-09
4.904497528e-10
1.447617003e-09
5.055575112e-10
1.457463209e-09
5.168793271e-10
1.462236159e-09
5.242221247e-10
1.462088131e-09
5.274494909e-10
1.457171016e-09
5.264865678e-10
1.447636229e-09
5.213234524e-10
1.433636205e-09
5.120178372e-10
1.415324758e-09
4.986968669e-10
1.392857114e-09
4.815573474e-10
1.366390305e-09
4.608639864e-10
1.336082019e-09
4.369461561e-10
1.30208951e-09
4.101927309e-10
1.264566932e-09
3.810441636e-10
1.223662265e-09
3.499835857e-10
1.179511995e-09
3.175257072e-10
1.132235026e-09
2.842057191e-10
1.081924415e-09
2.505680763e-10
1.028638602e-09
2.171573674e-10
9.723922454e-10
1.845132565e-10
9.131492625e-10
1.53168944e-10
8.50822287e-10
1.236530275e-10
7.852810985e-10
9.649043046e-11
7.163738089e-10
7.21968787e-11
6.439602314e-10
5.12585722e-11
5.679536469e-10
3.408740964e-11
4.883656967e-10
2.093796328e-11
4.053502628e-10
1.176601711e-11
3.192504596e-10
6.004868731e-12
2.306608724e-10
2.252637132e-12
1.404946979e-10
4.862285054e-11
3.258159392e-12
6.875393024e-11
1.27640435e-11
2.010758154e-10
2.80714487e-11
3.256602912e-10
4.869523628e-11
4.426246041e-10
7.412159198e-11
5.521081901e-10
1.038158119e-10
6.542685154e-10
1.372279063e-10
7.49275545e-10
1.73797748e-10
8.373083386e-10
2.12959389e-10
9.185518073e-10
2.541446581e-10
9.931936866e-10
2.967862715e-10
1.061422126e-09
3.403205048e-10
1.123423581e-09
3.841896908e-10
1.179381247e-09
4.278441874e-10
1.229473701e-09
4.707447907e-10
1.27387349e-09
5.123647127e-10
1.312747058e-09
5.521919161e-10
1.346253418e-09
5.897316013e-10
1.37454478e-09
6.245090537e-10
1.397765684e-09
6.560726677e-10
1.416053389e-09
6.839978222e-10
1.429538054e-09
7.078908919e-10
1.43834309e-09
7.273938821e-10
1.442585141e-09
7.42189747e-10
1.442375151e-09
7.520078052e-10
1.437818172e-09
7.566300692e-10
1.429013941e-09
7.558971028e-10
1.416057724e-09
7.49714236e-10
1.399039982e-09
7.380579067e-10
1.378046635e-09
7.209803465e-10
1.35315958e-09
6.986147569e-10
1.3244551e-09
6.711778141e-10
1.292003875e-09
6.389716027e-10
1.255868477e-09
6.023828579e-10
1.216100741e-09
5.618803742e-10
1.172737511e-09
5.180102522e-10
1.125794537e-09
4.713897362e-10
1.075259118e-09
4.227005782e-10
1.021081404e-09
3.726841019e-10
9.631657387e-10
3.221400167e-10
9.013663717e-10
2.719289605e-10
8.354921537e-10
2.229762582e-10
7.6532651e-10
1.762682128e-10
6.906682752e-10
1.328315756e-10
6.113902826e-10
9.369403485e-11
5.275032356e-10
5.984960282e-11
4.391946931e-10
3.229532659e-11
3.468047343e-10
1.223739854e-11
2.507187992e-10
1.550161031e-12
1.511819345e-10
5.01730108e-11
3.792388703e-12
6.496154154e-11
1.485916037e-11
1.900090437e-10
3.270492028e-11
3.078145312e-10
5.68035163e-11
4.18526008e-10
8.660554065e-11
5.223061657e-10
1.215453153e-10
6.193287409e-10
1.61045565e-10
7.097752953e-10
2.045218011e-10
7.938321024e-10
2.513858684e-10
8.716877399e-10
3.010487255e-10
9.435308298e-10
3.529227227e-10
1.009548129e-09
4.064234296e-10
1.069922874e-09
4.609712037e-10
1.124833473e-09
5.159922576e-10
1.174452647e-09
5.709195604e-10
1.218946187e-09
6.251940348e-10
1.258472584e-09
6.782648019e-10
1.293182651e-09
7.295902767e-10
1.323219305e-09
7.786386927e-10
1.348717268e-09
8.248887905e-10
1.369803292e-09
8.678312673e-10
1.386595577e-09
9.069696354e-10
1.399204722e-09
9.418220938e-10
1.407732683e-09
9.71924082e-10
1.412273163e-09
9.968308854e-10
1.412911368e-09
1.016121721e-09
1.409723105e-09
1.029404538e-09
1.402774909e-09
1.036321721e-09
1.392122798e-09
1.036556975e-09
1.377811382e-09
1.029843278e-09
1.359873277e-09
1.015971436e-09
1.338326943e-09
9.947995228e-10
1.313175789e-09
9.662631624e-10
1.284404838e-09
9.303857896e-10
1.251978114e-09
8.872891847e-10
1.215834115e-09
8.372046154e-10
1.175879106e-09
7.8048456e-10
1.131979172e-09
7.176170825e-10
1.08394888e-09
6.492456775e-10
1.031537142e-09
5.76200242e-10
9.744118059e-10
4.995474063e-10
9.121449877e-10
4.206655253e-10
8.442083894e-10
3.413438851e-10
7.699899138e-10
2.638863394e-10
6.888478266e-10
1.911732786e-10
6.00216295e-10
1.26600896e-10
5.037670748e-10
7.372867202e-11
3.996769577e-10
3.524090437e-11
2.89206567e-10
1.073898968e-11
1.756838502e-10
6.091200279e-11
4.251971204e-12
6.070957036e-11
1.667401928e-11
1.775869956e-10
3.673511824e-11
2.877534322e-10
6.388277904e-11
3.913783472e-10
9.755010723e-11
4.886388376e-10
1.371609787e-10
5.797178695e-10
1.821342714e-10
6.648020025e-10
2.318871745e-10
7.440791992e-10
2.858381521e-10
8.177367623e-10
3.434090956e-10
8.859598861e-10
4.040270527e-10
9.489301719e-10
4.671254783e-10
1.006824448e-09
5.321451197e-10
1.059813832e-09
5.985345993e-10
1.108063167e-09
6.657503247e-10
1.151730462e-09
7.332564272e-10
1.190966481e-09
8.005242266e-10
1.225914851e-09
8.670315877e-10
1.256711944e-09
9.322616542e-10
1.283487202e-09
9.957016193e-10
1.306363327e-09
1.05684131e-09
1.325455886e-09
1.115171636e-09
1.340874396e-09
1.170182913e-09
1.352721405e-09
1.221363156e-09
1.36109292e-09
1.268197055e-09
1.36607747e-09
1.310164225e-09
1.367755935e-09
1.346739034e-09
1.366200099e-09
1.377389936e-09
1.361471896e-09
1.401579717e-09
1.353621601e-09
1.418766491e-09
1.342686504e-09
1.428405302e-09
1.328688131e-09
1.429950605e-09
1.311630486e-09
1.422859405e-09
1.291496036e-09
1.406595497e-09
1.268242022e-09
1.380635574e-09
1.241794037e-09
1.34447607e-09
1.21203861e-09
1.29764396e-09
1.178811282e-09
1.239710803e-09
1.141882036e-09
1.170314777e-09
1.100933167e-09
1.089195276e-09
1.055531305e-09
9.9625213e-10
1.005088133e-09
8.916468182e-10
9.488137003e-10
7.759723813e-10
8.8566435e-10
6.505222441e-10
8.14297963e-10
5.176878211e-10
7.33050718e-10
3.815043846e-10
6.399505114e-10
2.483566795e-10
5.328246635e-10
1.281289024e-10
4.094343454e-10
3.766192248e-11
2.661508318e-10
9.85739275e-11
4.58594712e-12
5.612362324e-11
1.798553392e-11
1.641874089e-10
3.9644788e-11
2.660941782e-10
6.899802195e-11
3.620251132e-10
1.054721829e-10
4.521646766e-10
1.484908751e-10
5.366991772e-10
1.974777884e-10
6.158150891e-10
2.518589738e-10
6.896980139e-10
3.110648645e-10
7.585308717e-10
3.745317729e-10
8.224929778e-10
4.417028611e-10
8.817590838e-10
5.120287515e-10
9.364985574e-10
5.849677871e-10
9.86874796e-10
6.599860858e-10
1.033044868e-09
7.365573672e-10
1.075159181e-09
8.141625192e-10
1.113361329e-09
8.922895574e-10
1.147787813e-09
9.704335809e-10
1.178567921e-09
1.048096738e-09
1.205824045e-09
1.124788964e-09
1.229671101e-09
1.200028532e-09
1.250216318e-09
1.273343048e-09
1.267559881e-09
1.344270369e-09
1.281794084e-09
1.412358697e-09
1.293004593e-09
1.477166262e-09
1.301269905e-09
1.538259504e-09
1.306662693e-09
1.595209857e-09
1.309249746e-09
1.647588695e-09
1.309093058e-09
1.694960717e-09
1.306249579e-09
1.736875019e-09
1.300772202e-09
1.77285483e-09
1.292708319e-09
1.802384735e-09
1.28210058e-09
1.824896052e-09
1.268984719e-09
1.839749387e-09
1.253388687e-09
1.846214639e-09
1.235328785e-09
1.843447806e-09
1.214805444e-09
1.830463132e-09
1.191795955e-09
1.806100426e-09
1.166244742e-09
1.768983398e-09
1.138050196e-09
1.71746659e-09
1.107048113e-09
1.649566406e-09
1.072988318e-09
1.562879376e-09
1.03550073e-09
1.454507406e-09
9.940363206e-10
1.321055941e-09
9.477494285e-10
1.158838123e-09
8.95268537e-10
9.645056523e-10
8.342829823e-10
7.364554791e-10
7.608748371e-10
4.779329861e-10
6.679568387e-10
2.05310157e-10
5.387736612e-10
3.03884085e-10
-4.600996651e-13
5.658372291e-11
-1.8095052e-12
1.655368144e-10
-4.012676027e-12
2.68297349e-10
-7.04496911e-12
3.650574063e-10
-1.088924151e-11
4.56008949e-10
-1.55347301e-11
5.413446658e-10
-2.097600018e-11
6.212563591e-10
-2.721157122e-11
6.959335849e-10
-3.424285304e-11
7.655621536e-10
-4.20729284e-11
8.303230532e-10
-5.070556501e-11
8.903917204e-10
-6.01442543e-11
9.459372467e-10
-7.039131832e-11
9.9712186e-10
-8.144701371e-11
1.044100564e-09
-9.330860283e-11
1.08702077e-09
-1.059691817e-10
1.126021908e-09
-1.194164934e-10
1.161235125e-09
-1.33631662e-10
1.192783089e-09
-1.485877543e-10
1.220780137e-09
-1.642481957e-10
1.245331542e-09
-1.805660552e-10
1.266534178e-09
-1.974832341e-10
1.28447706e-09
-2.149309875e-10
1.299241837e-09
-2.32830749e-10
1.310904355e-09
-2.510959728e-10
1.319535129e-09
-2.696340221e-10
1.325200742e-09
-2.883480241e-10
1.327963748e-09
-3.07137776e-10
1.32788281e-09
-3.258997333e-10
1.325011536e-09
-3.445254637e-10
1.319397932e-09
-3.628993011e-10
1.311082157e-09
-3.808951437e-10
1.300096423e-09
-3.983735657e-10
1.286463141e-09
-4.151787388e-10
1.27019386e-09
-4.311354685e-10
1.251285514e-09
-4.460442184e-10
1.229714194e-09
-4.596729765e-10
1.205424713e-09
-4.717428988e-10
1.178314664e-09
-4.819058748e-10
1.148213171e-09
-4.897091951e-10
1.114851433e-09
-4.945387287e-10
1.077817851e-09
-4.955211531e-10
1.036483154e-09
-4.913485544e-10
9.898637221e-10
-4.799804198e-10
9.36381294e-10
-4.581931449e-10
8.734812622e-10
-4.210000489e-10
7.970898865e-10
-3.610447032e-10
7.009194916e-10
-2.686306805e-10
5.755428161e-10
-1.355498369e-10
4.056928177e-10
1.68334248e-10
-3.568691639e-13
5.694059207e-11
-1.406148917e-12
1.665860941e-10
-3.123086317e-12
2.700142864e-10
-5.491705021e-12
3.67426025e-10
-8.50322635e-12
4.590204703e-10
-1.215446349e-11
5.44995903e-10
-1.644658647e-11
6.255484821e-10
-2.138349276e-11
7.008704912e-10
-2.697060304e-11
7.711492639e-10
-3.321358627e-11
8.365660364e-10
-4.011700178e-11
8.972951359e-10
-4.768296596e-11
9.535032109e-10
-5.590974197e-11
1.005348636e-09
-6.479020383e-11
1.052981025e-09
-7.431003651e-11
1.096540603e-09
-8.444600694e-11
1.136157879e-09
-9.516452514e-11
1.171953643e-09
-1.064208808e-10
1.204039445e-09
-1.181589788e-10
1.232518235e-09
-1.303127267e-10
1.25748529e-09
-1.428089554e-10
1.279030407e-09
-1.555706883e-10
1.297238793e-09
-1.685221495e-10
1.312193298e-09
-1.815924334e-10
1.323974638e-09
-1.947194073e-10
1.332662103e-09
-2.078511491e-10
1.338332484e-09
-2.209463756e-10
1.341058975e-09
-2.33972036e-10
1.34090847e-09
-2.469000738e-10
1.337939574e-09
-2.5970165e-10
1.332199509e-09
-2.723411673e-10
1.323721674e-09
-2.847685106e-10
1.312523766e-09
-2.969120211e-10
1.298606652e-09
-3.086705111e-10
1.281952349e-09
-3.199060165e-10
1.26252102e-09
-3.304343548e-10
1.240242532e-09
-3.400125318e-10
1.21500289e-09
-3.483185332e-10
1.186620666e-09
-3.549192404e-10
1.154813878e-09
-3.592184949e-10
1.119150688e-09
-3.603762823e-10
1.078975639e-09
-3.571915195e-10
1.033298392e-09
-3.479566512e-10
9.806288538e-10
-3.303325535e-10
9.187571963e-10
-3.013655565e-10
8.445142651e-10
-2.578784608e-10
7.536027907e-10
-1.976382052e-10
6.40679236e-10
-1.22221615e-10
5.001262259e-10
-4.494206069e-11
3.284132632e-10
1.233921873e-10
-2.663084556e-13
5.720690053e-11
-1.048921432e-12
1.673687071e-10
-2.332067541e-12
2.712974325e-10
-4.107230578e-12
3.69201188e-10
-6.371908848e-12
4.612851486e-10
-9.127895735e-12
5.477518898e-10
-1.23798374e-11
6.288004238e-10
-1.613345478e-11
7.046241086e-10
-2.039392196e-11
7.75409731e-10
-2.516427654e-11
8.41336391e-10
-3.044362691e-11
9.025744863e-10
-3.622535974e-11
9.592849438e-10
-4.249544166e-11
1.011618718e-09
-4.923101474e-11
1.059716599e-09
-5.639959725e-11
1.103709185e-09
-6.395948974e-11
1.143717771e-09
-7.186148459e-11
1.179855638e-09
-8.005186783e-11
1.212229828e-09
-8.847618087e-11
1.240942548e-09
-9.708395427e-11
1.266093063e-09
-1.058319669e-10
1.287778419e-09
-1.146867355e-10
1.306093561e-09
-1.236250671e-10
1.32113163e-09
-1.326325844e-10
1.332982156e-09
-1.417014021e-10
1.341730921e-09
-1.508262038e-10
1.347457285e-09
-1.600005909e-10
1.350233362e-09
-1.692127766e-10
1.350120656e-09
-1.784418744e-10
1.347168672e-09
-1.876541757e-10
1.34141181e-09
-1.967994007e-10
1.332866899e-09
-2.058064056e-10
1.321530771e-09
-2.145773347e-10
1.307377581e-09
-2.229802182e-10
1.290355233e-09
-2.308386923e-10
1.270379494e-09
-2.37919555e-10
1.247323395e-09
-2.439159441e-10
1.220999279e-09
-2.484260025e-10
1.191130724e-09
-2.509235046e-10
1.15731138e-09
-2.50720571e-10
1.118947754e-09
-2.469269541e-10
1.075182022e-09
-2.384286023e-10
1.02480004e-09
-2.239359589e-10
9.661362105e-10
-2.021861624e-10
8.970073998e-10
-1.723990366e-10
8.147271393e-10
-1.350451027e-10
7.162488567e-10
-9.282722262e-11
5.984613559e-10
-5.128483985e-11
4.58583843e-10
-1.731869608e-11
2.944471194e-10
1.060734911e-10
-1.893055808e-13
5.739620611e-11
-7.467029552e-13
1.679261045e-10
-1.663430685e-12
2.722141603e-10
-2.936862148e-12
3.704746195e-10
-4.56908958e-12
4.62917376e-10
-6.565139847e-12
5.497479401e-10
-8.930969797e-12
6.311662537e-10
-1.167160134e-11
7.073647401e-10
-1.478904211e-11
7.785271718e-10
-1.828042913e-11
8.44827778e-10
-2.213648506e-11
9.064305422e-10
-2.634055866e-11
9.634890174e-10
-3.086867661e-11
1.016146836e-09
-3.569083227e-11
1.064538754e-09
-4.077372175e-11
1.108792074e-09
-4.608443471e-11
1.149028484e-09
-5.159441412e-11
1.185365617e-09
-5.728269654e-11
1.217918111e-09
-6.313827003e-11
1.246798122e-09
-6.916047462e-11
1.272115268e-09
-7.535734327e-11
1.293975288e-09
-8.174343441e-11
1.312479652e-09
-8.833547231e-11
1.327723668e-09
-9.514904984e-11
1.339795733e-09
-1.02194411e-10
1.348776282e-09
-1.094739803e-10
1.354736854e-09
-1.169794473e-10
1.357738829e-09
-1.246905695e-10
1.357831779e-09
-1.325725471e-10
1.355050649e-09
-1.405747011e-10
1.349413964e-09
-1.486272998e-10
1.340919498e-09
-1.566385406e-10
1.329542012e-09
-1.644891884e-10
1.315228229e-09
-1.720256687e-10
1.297891713e-09
-1.790500804e-10
1.277403906e-09
-1.853073715e-10
1.253580686e-09
-1.904693736e-10
1.226161281e-09
-1.941162129e-10
1.194777564e-09
-1.957174267e-10
1.158912594e-09
-1.946191076e-10
1.117849435e-09
-1.900512155e-10
1.07061413e-09
-1.811787109e-10
1.015927535e-09
-1.672246567e-10
9.521821562e-10
-1.476875854e-10
8.774703285e-10
-1.226459118e-10
7.896854657e-10
-9.310793764e-11
6.867108826e-10
-6.135023565e-11
5.667036539e-10
-3.123582756e-11
4.284694349e-10
-8.678079585e-12
2.718893714e-10
9.73954115e-11
-1.268820732e-13
5.752308818e-11
-5.011389484e-13
1.683003614e-10
-1.119356568e-12
2.728323779e-10
-1.982906797e-12
3.713381697e-10
-3.096190517e-12
4.640306597e-10
-4.464636542e-12
5.511163861e-10
-6.092232872e-12
6.327938501e-10
-7.979823696e-12
7.092523309e-10
-1.012352131e-11
7.806708694e-10
-1.251412986e-11
8.472183865e-10
-1.513770824e-11
9.090541206e-10
-1.797738552e-11
9.663286947e-10
-2.101617143e-11
1.019185622e-09
-2.424015962e-11
1.067762742e-09
-2.764144539e-11
1.11219336e-09
-3.12201066e-11
1.152607145e-09
-3.498445072e-11
1.189129961e-09
-3.895017278e-11
1.221883833e-09
-4.313838308e-11
1.250986332e-09
-4.757240918e-11
1.276549294e-09
-5.227527444e-11
1.298678153e-09
-5.726705093e-11
1.317471429e-09
-6.256261533e-11
1.333019232e-09
-6.817001955e-11
1.345403137e-09
-7.408845639e-11
1.354694719e-09
-8.030667759e-11
1.360955076e-09
-8.680111653e-11
1.364233268e-09
-9.353448536e-11
1.364565147e-09
-1.004542303e-10
1.361970394e-09
-1.07490703e-10
1.356450437e-09
-1.145552734e-10
1.347984068e-09
-1.215367118e-10
1.336523451e-09
-1.282971821e-10
1.321988699e-09
-1.346651576e-10
1.304259688e-09
-1.404275793e-10
1.283166328e-09
-1.453188182e-10
1.258471925e-09
-1.490101712e-10
1.229852634e-09
-1.511002241e-10
1.196867617e-09
-1.511136513e-10
1.158926021e-09
-1.485153793e-10
1.115251163e-09
-1.427549966e-10
1.064853747e-09
-1.333517043e-10
1.006524243e-09
-1.200283117e-10
9.388587637e-10
-1.028845186e-10
8.603265354e-10
-8.25799141e-11
7.693808611e-10
-6.047231632e-11
6.646032848e-10
-3.862982683e-11
5.448611645e-10
-1.96106765e-11
4.094502846e-10
-5.884145403e-12
2.581628403e-10
9.151126608e-11
-7.834912311e-14
5.76014373e-11
-3.100149992e-13
1.685320272e-10
-6.949819506e-13
2.732173448e-10
-1.236269739e-12
3.718794575e-10
-1.937988653e-12
4.647323786e-10
-2.803330339e-12
5.519817278e-10
-3.832907737e-12
6.338234275e-10
-5.024303763e-12
7.10443727e-10
-6.372801309e-12
7.82019367e-10
-7.87291001e-12
8.487184952e-10
-9.520699078e-12
9.107019097e-10
-1.131615243e-11
9.68124148e-10
-1.326495578e-11
1.021134425e-09
-1.537925405e-11
1.069877041e-09
-1.767736456e-11
1.114491471e-09
-2.018226913e-11
1.15511205e-09
-2.29196928e-11
1.191867385e-09
-2.591620513e-11
1.224880345e-09
-2.919720256e-11
1.25426733e-09
-3.278509964e-11
1.280137191e-09
-3.669833326e-11
1.302591387e-09
-4.094946425e-11
1.32172256e-09
-4.554458775e-11
1.337614356e-09
-5.048176618e-11
1.350340316e-09
-5.575055704e-11
1.35996351e-09
-6.133031551e-11
1.366534834e-09
-6.718953622e-11
1.370092489e-09
-7.328379967e-11
1.370659411e-09
-7.955486222e-11
1.368241457e-09
-8.592800992e-11
1.362823585e-09
-9.231016399e-11
1.354366222e-09
-9.858621841e-11
1.342799505e-09
-1.046147732e-10
1.328017254e-09
-1.1022245e-10
1.309867365e-09
-1.151969838e-10
1.288140862e-09
-1.192804064e-10
1.262555347e-09
-1.221636371e-10
1.232735865e-09
-1.234872707e-10
1.19819125e-09
-1.228527325e-10
1.158291483e-09
-1.198516408e-10
1.112250072e-09
-1.14118104e-10
1.059120211e-09
-1.054055554e-10
9.978116943e-10
-9.368192841e-11
9.271351368e-10
-7.922673212e-11
8.458713391e-10
-6.270931497e-11
7.52863444e-10
-4.522649553e-11
6.471204654e-10
-2.82862523e-11
5.279209212e-10
-1.373767386e-11
3.949017062e-10
-3.688240773e-12
2.481134072e-10
8.78230253e-11
-4.229517985e-14
5.764373248e-11
-1.677683055e-13
1.686575004e-10
-3.777949768e-13
2.734273715e-10
-6.750812321e-13
3.721767438e-10
-1.062459042e-12
4.651197565e-10
-1.541937362e-12
5.524612061e-10
-2.114982631e-12
6.343964727e-10
-2.783481889e-12
7.111122262e-10
-3.55143604e-12
7.827873211e-10
-4.426448507e-12
8.495935077e-10
-5.42061058e-12
9.116960717e-10
-6.550749872e-12
9.692542873e-10
-7.837853353e-12
1.022421529e-09
-9.305982147e-12
1.071345169e-09
-1.098092689e-11
1.116166415e-09
-1.288886653e-11
1.157019989e-09
-1.505529273e-11
1.194033811e-09
-1.750380328e-11
1.227328856e-09
-2.025458471e-11
1.257018111e-09
-2.332379782e-11
1.283206404e-09
-2.672265688e-11
1.305990246e-09
-3.045655735e-11
1.32545646e-09
-3.452471118e-11
1.34168251e-09
-3.891895507e-11
1.35473456e-09
-4.362342149e-11
1.364667976e-09
-4.861298681e-11
1.371524399e-09
-5.385240261e-11
1.375331905e-09
-5.929454609e-11
1.376101554e-09
-6.487871873e-11
1.373825629e-09
-7.052855737e-11
1.368473423e-09
-7.614919268e-11
1.359986858e-09
-8.162453406e-11
1.348274847e-09
-8.681277744e-11
1.333205497e-09
-9.154280893e-11
1.314597397e-09
-9.560931309e-11
1.292207366e-09
-9.877054729e-11
1.265716582e-09
-1.007490783e-10
1.234714396e-09
-1.012407785e-10
1.198682951e-09
-9.993428651e-11
1.156984991e-09
-9.654581925e-11
1.108861604e-09
-9.086788254e-11
1.053442274e-09
-8.282987811e-11
9.897736899e-10
-7.256034888e-11
9.168656075e-10
-6.04389073e-11
8.337498975e-10
-4.712388916e-11
7.395484259e-10
-3.354234875e-11
6.33538925e-10
-2.08323146e-11
5.152108871e-10
-1.023200194e-11
3.843013935e-10
-2.911937482e-12
2.407933427e-10
8.491108781e-11
-1.691270709e-14
5.766064519e-11
-6.78229841e-14
1.687084106e-10
-1.548528498e-13
2.735144014e-10
-2.810489619e-13
3.723029399e-10
-4.504568611e-13
4.652891644e-10
-6.682022688e-13
5.526789515e-10
-9.415171458e-13
6.346697876e-10
-1.280414195e-12
7.114511233e-10
-1.698220608e-12
7.832051275e-10
-2.211667184e-12
8.501069543e-10
-2.840477831e-12
9.123248824e-10
-3.606821396e-12
9.700206309e-10
-4.534605589e-12
1.023349313e-09
-5.64858456e-12
1.072459148e-09
-6.973321497e-12
1.117491152e-09
-8.532344606e-12
1.158579013e-09
-1.034739394e-11
1.195848861e-09
-1.243756015e-11
1.229419022e-09
-1.481857919e-11
1.25939913e-09
-1.750255472e-11
1.285890379e-09
-2.0496908e-11
1.308984599e-09
-2.38042262e-11
1.328763778e-09
-2.742126412e-11
1.345299548e-09
-3.1338447e-11
1.358651743e-09
-3.553876834e-11
1.368868297e-09
-3.999692176e-11
1.375982553e-09
-4.467761655e-11
1.380012599e-09
-4.953444247e-11
1.38095838e-09
-5.4507413e-11
1.3787986e-09
-5.952145805e-11
1.373487468e-09
-6.448327661e-11
1.364948676e-09
-6.927905089e-11
1.353070621e-09
-7.377113828e-11
1.337697585e-09
-7.779548553e-11
1.318621744e-09
-8.116007392e-11
1.295571954e-09
-8.364573554e-11
1.268202243e-09
-8.501219802e-11
1.236080858e-09
-8.501081748e-11
1.19868157e-09
-8.340687705e-11
1.155381051e-09
-8.001106201e-11
1.105465789e-09
-7.471816143e-11
1.048149373e-09
-6.754833153e-11
9.8260386e-10
-5.86828729e-11
9.080001489e-10
-4.848786994e-11
8.235548945e-10
-3.751882569e-11
7.285793816e-10
-2.650340464e-11
6.22523504e-10
-1.630272702e-11
5.050102095e-10
-7.857274685e-12
3.758559412e-10
-2.134288951e-12
2.35070357e-10
8.277679886e-11
-1.87189907e-15
5.766251709e-11
-8.35459284e-15
1.687148933e-10
-2.280399102e-14
2.735288508e-10
-5.015220834e-14
3.723302881e-10
-9.722481604e-14
4.65336237e-10
-1.729611756e-13
5.527546879e-10
-2.887138361e-13
6.347855403e-10
-4.584184772e-13
7.116208279e-10
-6.98560946e-13
7.8344527e-10
-1.027951167e-12
8.504363445e-10
-1.467306032e-12
9.127642372e-10
-2.038556173e-12
9.70591881e-10
-2.764168426e-12
1.024074925e-09
-3.666475532e-12
1.073361456e-09
-4.767162586e-12
1.118591839e-09
-6.086643869e-12
1.159898494e-09
-7.643635655e-12
1.197405852e-09
-9.454280082e-12
1.231229666e-09
-1.153200222e-11
1.261476852e-09
-1.388689637e-11
1.288245274e-09
-1.652492596e-11
1.311622629e-09
-1.944779752e-11
1.33168665e-09
-2.265162048e-11
1.348503371e-09
-2.612677156e-11
1.362126894e-09
-2.98562398e-11
1.372597766e-09
-3.381515871e-11
1.379941472e-09
-3.79687678e-11
1.384166209e-09
-4.227135986e-11
1.385260972e-09
-4.666407777e-11
1.383191318e-09
-5.107307185e-11
1.377896462e-09
-5.540732462e-11
1.369282929e-09
-5.955625364e-11
1.35721955e-09
-6.338820965e-11
1.341529541e-09
-6.674891876e-11
1.321982453e-09
-6.946294739e-11
1.298285983e-09
-7.133701685e-11
1.270076313e-09
-7.216932757e-11
1.236913169e-09
-7.176366997e-11
1.198275913e-09
-6.995103099e-11
1.153568412e-09
-6.661545306e-11
1.102130212e-09
-6.172298787e-11
1.043256908e-09
-5.534848768e-11
9.762293598e-10
-4.769532028e-11
9.003469815e-10
-3.910439358e-11
8.149639678e-10
-3.004889447e-11
7.195238825e-10
-2.111387356e-11
6.13588483e-10
-1.296137828e-11
4.968577142e-10
-6.284032344e-12
3.691785952e-10
-1.750152187e-12
2.305364768e-10
8.102664666e-11
4.166141861e-15
5.765835095e-11
1.578937406e-14
1.687032701e-10
3.105427631e-14
2.735135859e-10
4.420912073e-14
3.723171333e-10
4.757047417e-14
4.653328756e-10
3.112305478e-14
5.527711353e-10
-1.735277039e-14
6.348340161e-10
-1.123640697e-13
7.117158392e-10
-2.70253239e-13
7.836031592e-10
-5.089339512e-13
8.506750252e-10
-8.475280935e-13
9.131028314e-10
-1.305922406e-12
9.710502753e-10
-1.904267555e-12
1.02467327e-09
-2.66250784e-12
1.074119696e-09
-3.599951665e-12
1.119529283e-09
-4.734883459e-12
1.161033426e-09
-6.083979535e-12
1.198754949e-09
-7.661879588e-12
1.232807566e-09
-9.480929579e-12
1.263295902e-09
-1.155029419e-11
1.290314638e-09
-1.387566898e-11
1.313948004e-09
-1.645853383e-11
1.334269515e-09
-1.929530124e-11
1.351340138e-09
-2.237665994e-11
1.365208252e-09
-2.568634132e-11
1.375907447e-09
-2.920011399e-11
1.383455244e-09
-3.288438942e-11
1.387850484e-09
-3.669455062e-11
1.389071134e-09
-4.057356621e-11
1.387070333e-09
-4.444971851e-11
1.381772615e-09
-4.823546167e-11
1.373068672e-09
-5.182531584e-11
1.360809404e-09
-5.509559947e-11
1.344799824e-09
-5.790450761e-11
1.324791361e-09
-6.00950615e-11
1.300476537e-09
-6.150070238e-11
1.271481953e-09
-6.195528842e-11
1.237367755e-09
-6.130712976e-11
1.197627754e-09
-5.943740468e-11
1.151698686e-09
-5.628016807e-11
1.098972975e-09
-5.184268381e-11
1.038819424e-09
-4.622184522e-11
9.706085212e-10
-3.961430487e-11
8.937394412e-10
-3.231816201e-11
8.07667825e-10
-2.472518659e-11
7.119309071e-10
-1.730404179e-11
6.061673382e-10
-1.057655708e-11
4.901302295e-10
-5.090321798e-12
3.6369236e-10
-1.393749521e-12
2.268399045e-10
7.963289714e-11
5.186981758e-15
5.765316396e-11
1.974977257e-14
1.686887073e-10
4.037781474e-14
2.734929578e-10
6.187949978e-14
3.722956316e-10
7.713598823e-14
4.653176191e-10
7.683605036e-14
5.527714353e-10
4.970512971e-14
6.34861147e-10
-1.744844776e-14
7.117829928e-10
-1.394523548e-13
7.837251631e-10
-3.323859481e-13
8.508679588e-10
-6.133099173e-13
9.133837554e-10
-9.999342792e-13
9.714368997e-10
-1.51023975e-12
1.025183576e-09
-2.162113498e-12
1.07477157e-09
-2.973041247e-12
1.120340211e-09
-3.959644928e-12
1.162020029e-09
-5.13719137e-12
1.199932495e-09
-6.519349668e-12
1.234189725e-09
-8.117669716e-12
1.264894222e-09
-9.940764058e-12
1.292137732e-09
-1.199420438e-11
1.316001444e-09
-1.427928254e-11
1.336554593e-09
-1.679275676e-11
1.353853612e-09
-1.95255176e-11
1.367941013e-09
-2.246199229e-11
1.378843922e-09
-2.557849493e-11
1.386571747e-09
-2.884254033e-11
1.391114529e-09
-3.221072755e-11
1.392439321e-09
-3.562789333e-11
1.390487499e-09
-3.902508426e-11
1.385169806e-09
-4.231868238e-11
1.37636227e-09
-4.540948104e-11
1.363900203e-09
-4.81828643e-11
1.347573207e-09
-5.051071047e-11
1.327119207e-09
-5.225495161e-11
1.302220778e-09
-5.327465574e-11
1.272501658e-09
-5.34354536e-11
1.237528553e-09
-5.262260855e-11
1.196814909e-09
-5.075562182e-11
1.1498317e-09
-4.780347613e-11
1.096020829e-09
-4.379845699e-11
1.034814405e-09
-3.884589787e-11
9.656559621e-10
-3.312898268e-11
8.88022526e-10
-2.690703777e-11
8.014458801e-10
-2.050742403e-11
7.055312933e-10
-1.431141476e-11
5.99971329e-10
-8.735768733e-12
4.845545835e-10
-4.211642739e-12
3.59168234e-10
-1.162987524e-12
2.237912493e-10
7.846990961e-11
4.153573797e-15
5.764901039e-11
1.569833794e-14
1.686771626e-10
3.204648421e-14
2.734766097e-10
4.898119382e-14
3.722786969e-10
6.041023599e-14
4.653061901e-10
5.836405356e-14
5.527734814e-10
3.30493551e-14
6.348864617e-10
-2.690321751e-14
7.118429454e-10
-1.343869175e-13
7.838326468e-10
-3.03471166e-13
8.51037043e-10
-5.491501659e-13
9.136294344e-10
-8.87100859e-13
9.717748504e-10
-1.33336792e-12
1.025629843e-09
-1.904086372e-12
1.075342288e-09
-2.615133973e-12
1.121051259e-09
-3.481659949e-12
1.162886555e-09
-4.517826643e-12
1.200968662e-09
-5.736444725e-12
1.235408343e-09
-7.148210463e-12
1.266305988e-09
-8.761359389e-12
1.293750881e-09
-1.058115817e-11
1.317821243e-09
-1.260882397e-11
1.338582259e-09
-1.484128552e-11
1.356086074e-09
-1.726970423e-11
1.370369432e-09
-1.987905581e-11
1.381453273e-09
-2.264644469e-11
1.389339136e-09
-2.554040295e-11
1.394008488e-09
-2.851920362e-11
1.395418122e-09
-3.15297586e-11
1.393498054e-09
-3.450655839e-11
1.388146605e-09
-3.737065788e-11
1.37922637e-09
-4.003001982e-11
1.366559565e-09
-4.238001128e-11
1.349923199e-09
-4.430652141e-11
1.329045717e-09
-4.568992072e-11
1.303604177e-09
-4.641242475e-11
1.273224162e-09
-4.636665829e-11
1.237482786e-09
-4.546694188e-11
1.195915192e-09
-4.366048164e-11
1.148025239e-09
-4.093875566e-11
1.093299103e-09
-3.734663812e-11
1.031222287e-09
-3.298802857e-11
9.612973525e-10
-2.802761885e-11
8.830621163e-10
-2.268793856e-11
7.961061998e-10
-1.724212307e-11
7.000854778e-10
-1.200291523e-11
5.947321211e-10
-7.309402449e-12
4.798610707e-10
-3.512839253e-12
3.553716708e-10
-9.63900016e-13
2.212423101e-10
7.750600958e-11
2.464660817e-15
5.764654573e-11
9.251085701e-15
1.686703761e-10
1.847594053e-14
2.734673848e-10
2.682881689e-14
3.72270344e-10
2.928542993e-14
4.653037335e-10
1.926261016e-14
5.527835043e-10
-1.151309325e-14
6.349172374e-10
-7.271231848e-14
7.119041446e-10
-1.753267047e-13
7.839352612e-10
-3.315298435e-13
8.511932462e-10
-5.544427937e-13
9.138523473e-10
-8.578937036e-13
9.720783013e-10
-1.256192655e-12
1.026028142e-09
-1.763831909e-12
1.075849927e-09
-2.395131837e-12
1.121682559e-09
-3.163958716e-12
1.163655382e-09
-4.083386607e-12
1.20188809e-09
-5.165259313e-12
1.236490216e-09
-6.41945449e-12
1.267560183e-09
-7.853774931e-12
1.295185202e-09
-9.472961128e-12
1.319440429e-09
-1.127820224e-11
1.3403875e-09
-1.326628673e-11
1.358074158e-09
-1.542874637e-11
1.372531891e-09
-1.775084783e-11
1.383775375e-09
-2.021059052e-11
1.391798879e-09
-2.277746297e-11
1.39657536e-09
-2.541158585e-11
1.398052244e-09
-2.806221487e-11
1.396148683e-09
-3.066758565e-11
1.390751976e-09
-3.315401725e-11
1.381712802e-09
-3.543696029e-11
1.368842508e-09
-3.742213705e-11
1.351908376e-09
-3.900898279e-11
1.330632563e-09
-4.009506927e-11
1.304690264e-09
-4.058286848e-11
1.273711961e-09
-4.038745197e-11
1.23728737e-09
-3.94457332e-11
1.194973474e-09
-3.772504538e-11
1.146304552e-09
-3.523143549e-11
1.090805493e-09
-3.201560632e-11
1.028006458e-09
-2.81761048e-11
9.57457851e-10
-2.385944169e-11
8.787454532e-10
-1.92568498e-11
7.915036079e-10
-1.459799055e-11
6.954266186e-10
-1.014224291e-11
5.902763735e-10
-6.168478173e-12
4.75887306e-10
-2.964187888e-12
3.521673805e-10
-8.15083688e-13
2.190932059e-10
7.669092589e-11
6.268676071e-16
5.764591886e-11
2.190176383e-15
1.686688128e-10
3.517547899e-15
2.734660574e-10
2.206305698e-15
3.722716552e-10
-5.689343902e-15
4.653116291e-10
-2.55524426e-14
5.528033674e-10
-6.428596079e-14
6.349559709e-10
-1.3010086e-13
7.119699595e-10
-2.323846444e-13
7.840375449e-10
-3.816304065e-13
8.51342492e-10
-5.892807892e-13
9.140599977e-10
-8.675196576e-13