/*--------------------------------*- C++ -*----------------------------------*\
  =========                 |
  \\      /  F ield         | OpenFOAM: The Open Source CFD Toolbox
   \\    /   O peration     | Website:  https://openfoam.org
    \\  /    A nd           | Version:  7
     \\/     M anipulation  |
\*---------------------------------------------------------------------------*/
FoamFile
{
    version     2.0;
    format      ascii;
    class       volScalarField;
    location    "0.0021";
    object      rho;
}
// * * * * * * * * * * * * * * * * * * * * * * * * * * * * * * * * * * * * * //

dimensions      [1 -3 0 0 0 0 0];

internalField   nonuniform List<scalar> 
1167
(
940.0195145
939.8180384
939.7252047
939.52614
939.2320402
938.8493486
938.3838651
937.8409978
937.2261675
936.5447075
935.8017921
935.0026081
934.152261
933.2559818
932.3187338
931.3455187
930.3412304
929.3106475
928.2584173
927.1893036
926.1074164
925.0170116
923.9222756
922.8267609
921.7341095
920.647727
919.570652
918.5056429
917.4553364
916.4220632
915.4077225
914.4142591
913.4430665
912.4955024
911.5725993
910.675143
909.8036479
908.958672
908.1402463
907.3484459
906.5832537
905.8442897
905.1311498
904.4433597
903.7803219
903.1413458
902.5255845
901.9322257
901.3602961
900.8089013
900.2770912
939.6167251
939.5276328
939.3366036
939.0544337
938.6869785
938.2400264
937.7185399
937.1276281
936.4722713
935.7573153
934.9875854
934.1678104
933.302789
932.397158
931.4553992
930.482225
929.4817475
928.4585822
927.4167673
926.3603297
925.2933188
924.2193248
923.1419187
922.0646485
920.9905134
919.9224743
918.8635115
917.815991
916.7822458
915.7645169
914.7645261
913.7840702
912.824526
911.8872499
910.9732277
910.0833569
909.2182074
908.3785558
907.5645253
906.776381
906.0143618
905.2782953
904.5680291
903.8833201
903.2237941
902.5889038
901.978075
901.3905477
900.8255382
900.2820753
939.4156178
939.3310282
939.1497045
938.8815605
938.5324712
938.1075047
937.6116329
937.0494558
936.4255763
935.7444819
935.0106101
934.2282908
933.4018052
932.5355395
931.6334633
930.699738
929.7383001
928.7530695
927.7479056
926.7264294
925.6920883
924.6485254
923.5987451
922.5459252
921.4930692
920.4427869
919.3977929
918.3604521
917.3328657
916.3172358
915.3152472
914.3285982
913.3588203
912.4071536
911.4749064
910.5628981
909.6721481
908.8033817
907.9572354
907.1345067
906.3356018
905.5611058
904.8116459
904.0877033
903.389714
902.7180074
902.0727623
901.4538494
900.8608128
900.2927892
939.2147521
939.1352802
938.9648004
938.7126469
938.3844932
937.9847476
937.518148
936.9889815
936.4014014
935.7595299
935.0674162
934.3289964
933.5480992
932.7286222
931.8743592
930.988788
930.0755227
929.1381231
928.1798731
927.2042283
926.2141201
925.2127662
924.2029793
923.1874919
922.1690516
921.1499361
920.1326257
919.119125
918.1114623
917.1114435
916.1205353
915.1404371
914.1721266
913.216923
912.2756254
911.3491509
910.4379518
909.5427591
908.6638493
907.8017977
906.9569401
906.1297884
905.3212469
904.5321317
903.7638653
903.018373
902.2979689
901.6054462
900.9439237
900.3164445
939.0155887
938.9422383
938.7848579
938.5522177
938.2491553
937.8800051
937.4488591
936.9598037
936.4164668
935.8225712
935.1817492
934.4975249
933.7732997
933.0124458
932.2182616
931.3940004
930.5427769
929.6674832
928.771232
927.856899
926.9270849
925.984652
925.0318918
924.0715015
923.1054403
922.1362219
921.1655461
920.1955322
919.2276979
918.2638222
917.3050528
916.352768
915.4077932
914.4710833
913.5430205
912.6241393
911.7143308
910.813656
909.9214123
909.03711
908.1596823
907.2879665
906.4206974
905.5563455
904.6938681
903.8323786
902.9721641
902.1150063
901.2648295
900.4287407
938.8521965
938.7802622
938.6261924
938.3984597
938.1016842
937.7403319
937.3181454
936.8391533
936.3069363
935.7250299
935.0969458
934.4260742
933.7156954
932.9690598
932.1893327
931.3796566
930.5429764
929.6820963
928.7999891
927.8994649
926.9829909
926.0533351
925.1127583
924.1637624
923.2084072
922.2489317
921.2871675
920.3249883
919.3639716
918.4056895
917.4512665
916.5019222
915.5583555
914.6213874
913.6912609
912.7683184
911.8524825
910.9435688
910.0411806
909.1448449
908.254243
907.3688336
906.4887475
905.613937
904.7450522
903.8827154
903.0271712
902.1772532
901.3279218
900.4677522
938.7313187
938.6592314
938.5047828
938.276402
937.9788809
937.6165959
937.1933826
936.713039
936.1793801
935.5958451
934.9659241
934.2929875
933.5803138
932.8311622
932.0487806
931.2361742
930.3962721
929.5319735
928.6463985
927.7420743
926.8217582
925.8880224
924.9432798
923.9899981
923.0301775
922.0661264
921.0995459
920.1322986
919.1658612
918.2017105
917.2409006
916.2844597
915.3331112
914.3874388
913.4477971
912.5144609
911.587539
910.6671159
909.753242
908.846295
907.9466266
907.0552686
906.1732091
905.3022576
904.4440352
903.6004561
902.7731246
901.9629419
901.1706127
900.3973056
938.6105961
938.5381732
938.3829246
938.1533768
937.8544908
937.4903866
937.065194
936.5825575
936.046195
935.45977
934.8267192
934.1503896
933.434096
932.681214
931.8948438
931.0780494
930.2338172
929.3652838
928.4752421
927.5664439
926.6417481
925.7034728
924.7543657
923.7964855
922.832184
921.8633368
920.8919883
919.9195283
918.9477503
917.9776875
917.0106641
916.0473721
915.0887832
914.1353239
913.1876623
912.2462298
911.3116311
910.3843925
909.4654865
908.5559765
907.6574685
906.7716015
905.900727
905.0468141
904.2121169
903.3985167
902.60715
901.8387695
901.09363
900.3713601
938.4898986
938.4171649
938.2612343
938.0307007
937.7306381
937.3649938
936.9380975
936.4535255
935.9149992
935.3261493
934.6905039
934.0114536
933.2923367
932.5364675
931.747022
930.9271057
930.079821
929.2081815
928.3149821
927.4031844
926.4753032
925.5339302
924.5815597
923.620358
922.6525211
921.6799776
920.7045575
919.7278366
918.7512528
917.776155
916.8035095
915.8344387
914.8696348
913.9101219
912.9564591
912.0098955
911.0711731
910.1418103
909.2230994
908.3172039
907.4259119
906.5517049
905.6966995
904.8629399
904.0522446
903.26554
902.5031623
901.7649419
901.0499235
900.3570413
938.3691766
938.2962106
938.1397696
937.9086184
937.6075879
937.2409237
936.8126744
936.326722
935.786672
935.19618
934.5587853
933.8779082
933.1569255
932.3991623
931.6078047
930.7860297
929.9369197
929.0633607
928.1682907
927.2545649
926.3245951
925.3811715
924.4264328
923.4628082
922.4921632
921.5166705
920.5378238
919.5575131
918.576901
917.5975145
916.620364
915.6466457
914.677418
913.7137426
912.7568853
911.8081516
910.869174
909.9415819
909.0275246
908.1290784
907.2485313
906.38805
905.549439
904.7343436
903.9435709
903.1774185
902.4355664
901.7174002
901.0217928
900.3477926
938.2484233
938.175294
938.0185249
937.786949
937.4852444
937.1179221
936.688798
936.2019321
935.6609439
935.0694691
934.431054
933.7491398
933.0271265
932.2683325
931.4759472
930.6532458
929.8030552
928.9283719
928.0322422
927.117203
926.1858985
925.2408749
924.2843938
923.3187386
922.3458668
921.3677824
920.386149
919.4026341
918.4187432
917.4357677
916.4551744
915.4780466
914.505997
913.5401544
912.5823153
911.6340576
910.6974056
909.774291
908.8670714
907.9777524
907.1086683
906.2614076
905.4375145
904.637931
903.8629734
903.1125288
902.386042
901.682659
901.0013131
900.3410795
938.1276373
938.0543987
937.8975239
937.665601
937.3634873
936.995772
936.5662172
936.0787509
935.53728
934.9453197
934.3064134
933.6240106
932.9015216
932.1422471
931.3494919
930.5262419
929.6754576
928.800197
927.9033334
926.9873843
926.0551386
925.1088627
924.1510418
923.183676
922.2089962
921.2287239
920.2447981
919.2587004
918.2722532
917.2867031
916.3037136
915.3247073
914.3513076
913.3852401
912.4283172
911.4826476
910.5501772
909.6332386
908.7339087
907.8542832
906.9961726
906.1609205
905.3497254
904.5629428
903.8006442
903.0625011
902.3478753
901.6558474
900.9854689
900.3358753
938.0068633
937.9336369
937.7766212
937.5444853
937.2422541
936.8742414
936.4445046
935.9568412
935.4150649
934.8229353
934.183862
933.5012963
932.7786672
932.0193364
931.2263845
930.402878
929.5517838
928.6762562
927.7788871
926.8623826
925.9293752
924.9821658
924.0232646
923.0545617
922.0784012
921.0964619
920.1106954
919.1227784
918.1344337
917.1473105
916.1629905
915.1833918
914.2100985
913.2453043
912.2908707
911.3491254
910.422049
909.5119919
908.6208323
907.7505972
906.902598
906.0780276
905.2776417
904.5015735
903.7497192
903.0216877
902.3167293
901.633993
900.9725766
900.3316462
937.8861471
937.8128789
937.6557733
937.4235117
937.1212743
936.7530969
936.3233282
935.8356418
935.2938566
934.7016575
934.0625787
933.3800648
932.6575213
931.898196
931.1052262
930.2816468
929.4305414
928.5548262
927.6571537
926.7403414
925.8067657
924.858962
923.8991769
922.9295531
921.9522079
920.9691105
919.9820246
918.992958
918.0035223
917.0157564
916.0312539
915.0521465
914.0803016
913.1178794
912.167119
911.2301554
910.3091855
909.4062359
908.523215
907.6617447
906.8229528
906.0078551
905.2168236
904.4499091
903.7068946
902.987377
902.290539
901.6156034
900.9617184
900.3280818
937.7654011
937.6921053
937.5349422
937.3027026
937.0004176
936.6322516
936.2024254
935.7148019
935.1731011
934.5809971
933.9420264
933.2596412
932.5372295
931.7780229
930.9851566
930.1616604
929.3106723
928.4349067
927.5371558
926.6201611
925.6862255
924.7380633
923.7776715
922.8074523
921.8293154
920.8455298
919.8577373
918.8681363
917.8784962
916.8908375
915.9071435
914.9294678
913.9600436
913.0009016
912.054568
911.1229404
910.2083544
909.3125002
908.4372916
907.5839699
906.7535412
905.946878
905.1640716
904.4051375
903.6698083
902.9576563
902.2678563
901.5996833
900.9523241
900.3249993
937.6446278
937.5713108
937.4141054
937.1819536
936.8796054
936.5115132
936.0816405
935.5941231
935.0525541
934.4605973
933.8217927
933.1396001
932.417391
931.6583823
930.8657085
930.0424945
929.1916367
928.3159475
927.418323
926.5012501
925.5672454
924.6188528
923.6581999
922.6876389
921.7092081
920.7250809
919.7372021
918.7476353
917.7585032
916.7717318
915.7896566
914.8142607
913.8479735
912.8928518
911.9513585
911.0254395
910.1172303
909.2283173
908.3605219
907.5147692
906.6920281
905.8928995
905.1174334
904.3655801
903.6370714
902.9314023
902.2478163
901.5856149
900.9440202
900.322274
937.5238313
937.4504967
937.2933675
937.0612015
936.7588037
936.3908022
935.9610223
935.473515
934.9321045
934.3403265
933.701725
933.0197685
932.2978127
931.5390609
930.7467382
929.9237963
929.0731616
928.1977032
927.3002857
926.3832854
925.4494168
924.5009863
923.5403747
922.5697507
921.5914135
920.6073806
919.6199347
918.6309991
917.6430062
916.657874
915.6780095
914.7056002
913.7429464
912.792322
911.855945
910.9358783
910.0339658
909.1518296
908.2909699
907.4522565
906.6365724
905.8442977
905.0754684
904.3299949
903.607622
902.9077834
902.2297877
901.5729599
900.936552
900.3198232
937.4030176
937.3297353
937.17265
936.9404425
936.6381018
936.2701025
935.8404414
935.3530124
934.8117099
934.2201327
933.5817609
932.9000728
932.1784096
931.4200335
930.6280714
929.8054389
928.9551067
928.0800507
927.182878
926.2661293
925.3325286
924.3842703
923.4239544
922.4535783
921.4756964
920.4922352
919.5056488
918.5179754
917.531575
916.5486756
915.571544
914.602615
913.6440091
912.6981777
911.7670844
910.8528839
909.9571415
909.0815132
908.227212
907.3950719
906.5859149
905.7999383
905.0371814
904.2975316
903.5807545
902.8862326
902.2133356
901.5614101
900.9297354
900.3175861
937.2823176
937.2090395
937.0519241
936.8196793
936.5174361
936.1494122
935.7198797
935.2326096
934.6914278
934.0999984
933.4618775
932.7804958
932.0592281
931.3012368
930.5096236
929.6873585
928.8374513
927.9628287
927.0660082
926.1497209
925.2164752
924.2686985
923.3088158
922.3390918
921.3619082
920.3794728
919.3941148
918.4081681
917.4238406
916.4436421
915.4696934
914.5046049
913.5503845
912.6094835
911.6837832
910.7753568
909.8856206
909.0162296
908.1681403
907.3421991
906.5390911
905.7589547
905.0018131
904.2675683
903.5559282
902.866316
902.1981296
901.550735
900.9234352
900.3155184
937.1616312
937.0883386
936.9311952
936.6989482
936.3967758
936.0287786
935.599338
935.1122359
934.5712478
933.9800456
933.3421815
932.6611315
931.9402063
931.1825914
930.3913677
929.5695215
928.72017
927.8459905
926.9496249
926.0339267
925.1011956
924.1541033
923.1948838
922.2260925
921.2499314
920.2688797
919.285139
918.301322
917.3195262
916.3423565
915.3720159
914.4109603
913.4613619
912.5254546
911.6051928
910.7024079
909.8185344
908.9550875
908.1128984
907.2928207
906.4953701
905.720695
904.9687946
904.2395929
903.5327422
902.8477116
902.1839233
901.5407607
900.9175482
900.3135863
937.0409443
936.967638
936.8104687
936.5783243
936.276126
935.9082495
935.4788199
934.9918943
934.4511103
933.8601483
933.2225748
932.5418562
931.8212959
931.0640865
930.273289
929.4519981
928.6031731
927.7295149
926.833816
925.9187142
924.9866856
924.0404348
923.0821193
922.1145087
921.1397056
920.1603261
919.1786384
918.1972035
917.2183224
916.2444411
915.2779677
914.3211461
913.3762933
912.4454262
911.5305638
910.6333076
909.7551421
908.8973723
908.060806
907.2462856
906.4541775
905.684648
904.9376805
904.2132245
903.5108825
902.8301676
902.1705248
901.5313528
900.9119954
900.3117639
936.9202622
936.8469433
936.689792
936.457712
936.1554924
935.7877425
935.3583916
934.8715886
934.3310185
933.7403086
933.1030395
932.4226691
931.7024944
930.9457174
930.1554137
929.3347246
928.4864514
927.6133906
926.7184543
925.8040713
924.8729759
923.9276665
922.9705692
922.0042785
921.0311696
920.0536933
919.0743666
918.0955967
917.1199044
916.1495556
915.1871437
914.2346958
913.2946596
912.3688373
911.4593088
910.5674575
909.6948207
908.8425108
908.011322
907.2020948
906.4150623
905.6504141
904.9081257
904.1881687
903.4901051
902.8134883
902.1577845
901.5224061
900.9067147
900.3100307
936.7995903
936.7262614
936.5692204
936.3371173
936.0349191
935.6672639
935.238074
934.7513282
934.210977
933.6205299
932.9835782
932.3035719
931.5838031
930.8274935
930.0377995
929.2176663
928.3700034
927.4977125
926.6035371
925.6899927
924.759975
923.8157798
922.8600996
921.8953538
920.924184
919.9488687
918.9721589
917.9963106
917.0240201
916.0574475
915.0991858
914.1512768
913.2160169
912.2952622
911.390936
910.5043629
909.6370853
908.7900381
907.9640407
907.1598487
906.3776643
905.6176751
904.8798793
904.1641916
903.4702161
902.7975185
902.1455841
901.5138379
900.901657
900.3083707
911.3250371
910.443648
909.5815392
908.7395768
907.918596
907.119226
906.3416958
905.5861776
904.8526944
904.1411074
903.451062
902.7821351
902.1338298
901.5055821
900.8967836
900.3067712
)
;

boundaryField
{
    front_top
    {
        type            wedge;
    }
    front_middle
    {
        type            wedge;
    }
    front_bottom
    {
        type            wedge;
    }
    back_top
    {
        type            wedge;
    }
    back_middle
    {
        type            wedge;
    }
    back_bottom
    {
        type            wedge;
    }
    axis_top
    {
        type            symmetryPlane;
    }
    axis_middle
    {
        type            symmetryPlane;
    }
    axis_bottom
    {
        type            symmetryPlane;
    }
    wall_top
    {
        type            calculated;
        value           nonuniform 0();
    }
    wall_middle
    {
        type            calculated;
        value           uniform 900.0184441;
    }
    wall_bottom
    {
        type            calculated;
        value           uniform 900.0184441;
    }
    inlet
    {
        type            calculated;
        value           nonuniform 0();
    }
    outlet
    {
        type            calculated;
        value           nonuniform 0();
    }
    procBoundary2to1
    {
        type            processor;
        value           nonuniform List<scalar> 
51
(
936.6789872
936.6057275
936.4486683
936.216546
935.9144691
935.5468196
935.1177966
934.6312423
934.0910009
933.5008176
932.864196
932.1845697
931.4652504
930.7095192
929.9203601
929.100828
928.2538339
927.382406
926.4890683
925.5765675
924.6476793
923.7047921
922.7506865
921.7877211
920.8186755
919.8458052
918.8718728
917.8992332
916.9304409
915.9678242
915.0137793
914.0704709
913.1399845
912.2242702
912.2242702
911.2612712
910.3849687
909.527857
908.690819
907.8746851
907.0799675
906.3069248
905.5557178
904.8263951
904.1187673
903.4325199
902.7672397
902.1224466
901.4975863
900.8920635
900.3052219
)
;
    }
    procBoundary2to3
    {
        type            processor;
        value           nonuniform List<scalar> 
51
(
940.2213064
939.9236882
939.9236882
939.7182331
939.4145855
939.0197201
938.5394281
937.9795522
937.3457536
936.6436821
935.8787992
935.0566113
934.1825606
933.2622057
932.3008942
931.3039791
930.2766182
929.2240282
928.1510888
927.0627507
925.9635536
924.8578678
923.74987
922.6435735
921.5425325
920.4500894
919.3694127
918.3032775
917.2540508
916.2239887
915.214991
914.2284949
913.2660572
912.3284903
911.4168228
910.5313394
909.6725703
908.8405647
908.0352227
907.2564909
906.5039316
905.7770629
905.0753011
904.3980226
903.7445034
903.1139711
902.5055374
901.9184038
901.351646
900.8044484
900.2759095
)
;
    }
}


// ************************************************************************* //
