/*--------------------------------*- C++ -*----------------------------------*\
  =========                 |
  \\      /  F ield         | OpenFOAM: The Open Source CFD Toolbox
   \\    /   O peration     | Website:  https://openfoam.org
    \\  /    A nd           | Version:  7
     \\/     M anipulation  |
\*---------------------------------------------------------------------------*/
FoamFile
{
    version     2.0;
    format      ascii;
    class       volScalarField;
    location    "0.0021";
    object      T;
}
// * * * * * * * * * * * * * * * * * * * * * * * * * * * * * * * * * * * * * //

dimensions      [0 0 0 1 0 0 0];

internalField   nonuniform List<scalar> 
1167
(
450.1701404
450.4739218
450.6139384
450.9142712
451.3582185
451.9363126
452.6401075
453.4617868
454.393538
455.4276935
456.556827
457.7734848
459.0703179
460.4397586
461.8746124
463.3675855
464.9115014
466.49931
468.1241077
469.7787531
471.4570569
473.152546
474.8587957
476.5703116
478.2814067
479.9867114
481.6813836
483.3609793
485.0212069
486.6582235
488.2688398
489.8497699
491.3985837
492.9128936
494.3908188
495.8308667
497.2319764
498.5930163
499.9137052
501.1936966
502.4327988
503.6314156
504.790001
505.9091332
506.9896025
508.0323623
509.0386347
510.0095969
510.9467026
511.8512886
512.7247951
450.777588
450.9120186
451.2003469
451.6264523
452.1817312
452.8577279
453.6472694
454.5429843
455.537708
456.6244828
457.7963749
459.0465829
460.3681759
461.7544405
463.1988657
464.694546
466.2354542
467.81474
469.4263927
471.0643678
472.7225332
474.3954169
476.0775263
477.7633539
479.4482019
481.1273892
482.7961604
484.450689
486.0871666
487.7018985
489.2919869
490.8543915
492.3867221
493.8866053
495.3522488
496.7819936
498.174702
499.528901
500.8441701
502.1198638
503.3553816
504.5507952
505.7061521
506.8216552
507.8977301
508.9350955
509.9345242
510.8971055
511.8239789
512.7166039
451.0810732
451.2087639
451.4825549
451.887635
452.4153444
453.0582854
453.8092373
454.6615639
455.6086365
456.6440055
457.7612924
458.9542716
460.2167734
461.5424434
462.9255354
464.3599769
465.8400026
467.3598335
468.9137404
470.4963182
472.1023867
473.7264155
475.3638229
477.0097141
478.6594228
480.308859
481.9537302
483.5902572
485.2150448
486.8245079
488.4158538
489.9862456
491.5330909
493.0542447
494.5474381
496.0111732
497.4436228
498.8434245
500.2093547
501.5399252
502.8342782
504.091265
505.3096677
506.4885046
507.6268693
508.7240311
509.7795096
510.7933342
511.7660785
512.6989961
451.3843237
451.5043397
451.7618613
452.1429284
452.6391574
453.2441156
453.9509006
454.7533109
455.6453604
456.6211138
457.6747451
458.8005909
459.9931384
461.2467504
462.5559241
463.9156145
465.3205378
466.7654606
468.2455391
469.7556281
471.2913557
472.8478695
474.420907
476.0062953
477.5998003
479.1978891
480.7966779
482.3929988
483.9836182
485.5656274
487.1366305
488.6938419
490.2356037
491.7596999
493.2647304
494.7490963
496.2119352
497.6519315
499.0684959
500.4605539
501.8274143
503.1680984
504.4809859
505.7645928
507.0164397
508.2332138
509.4109499
510.5448788
511.6296765
512.6601212
451.6851323
451.79595
452.0337785
452.3854835
452.8439144
453.4027139
454.0559164
454.7975815
455.6224745
456.5252212
457.5005839
458.5434841
459.6490188
460.8123161
462.0285988
463.2931376
464.6013919
465.9491383
467.3317866
468.7450822
470.1851664
471.6477457
473.1293815
474.6259749
476.1345472
477.651226
479.1733842
480.6977124
482.2218218
483.7428905
485.2590723
486.7681399
488.2687273
489.759251
491.2390295
492.7071333
494.1636572
495.608425
497.0424888
498.4665662
499.8823138
501.291557
502.6963011
504.0989975
505.5013234
506.9047147
508.3087009
509.7103616
511.1032403
512.4756032
451.9320087
452.0407246
452.2736299
452.6180304
453.0670954
453.6142582
454.2540713
454.98067
455.7888793
456.6735976
457.6297592
458.6524778
459.7370257
460.8787076
462.0729422
463.3151629
464.6010851
465.9266167
467.2873815
468.6792257
470.0984982
471.5410546
473.0035077
474.4820681
475.9736069
477.4746886
478.9824887
480.4940928
482.007029
483.5188128
485.0276475
486.531571
488.0294321
489.5198765
491.0024613
492.4765818
493.9423013
495.3998562
496.849827
498.292922
499.7296067
501.1607107
502.5859811
504.0054529
505.4180271
506.822641
508.218842
509.6084833
510.9997834
512.4115127
452.1147036
452.2236788
452.457217
452.8026873
453.2529979
453.8017174
454.4432565
455.1721006
455.982719
456.8701568
457.8293815
458.8555381
459.9439024
461.089767
462.288425
463.5355217
464.8267982
466.1580183
467.5245792
468.922765
470.3484772
471.7978754
473.267337
474.7531264
476.2522078
477.7610383
479.2769984
480.7971925
482.3193091
483.841017
485.3606345
486.8765074
488.3874518
489.8924974
491.3910316
492.882565
494.3668707
495.8437595
497.3130964
498.7742174
500.2264966
501.6682016
503.0976592
504.5118484
505.9080331
507.2829804
508.6339416
509.9593019
511.2577611
512.5272507
452.2972109
452.4067217
452.6415303
452.9888565
453.4413524
453.9929745
454.637689
455.3702144
456.185169
457.0772584
458.0415329
459.0731745
460.1674054
461.3193414
462.524503
463.7784468
465.0768275
466.4150438
467.788997
469.1946252
470.6276719
472.0846899
473.5615361
475.0551105
476.5618291
478.0788248
479.6029414
481.1320262
482.6632715
484.1950474
485.7252497
487.2527595
488.7760039
490.2942661
491.8064378
493.3117806
494.8092727
496.2980103
497.7763642
499.2425464
500.6938779
502.1276065
503.539804
504.9271356
506.2857804
507.6125018
508.9052621
510.1626434
511.3840411
512.5698817
452.4797271
452.5897361
452.8256373
453.174546
453.6289425
454.1830453
454.8305175
455.5661816
456.3846514
457.2806832
458.2491893
459.2852859
460.3841601
461.5410219
462.7512763
464.0104167
465.313919
466.6573707
468.0366695
469.4474287
470.8859236
472.3482822
473.8307549
475.3300744
476.8428999
478.3662829
479.8974041
481.4338216
482.9732892
484.5136833
486.0534676
487.5908455
489.1246895
490.653334
492.1758422
493.6901653
495.1950516
496.6879913
498.1668193
499.627948
501.0683698
502.4839316
503.8710447
505.2262142
506.5462924
507.8295714
509.0753026
510.2835681
511.4557455
512.5934099
452.6623274
452.7727162
453.0094506
453.3593849
453.8153664
454.3711613
455.0208585
455.7588169
456.5798261
457.4786049
458.4500482
459.4892272
460.5912698
461.7513694
462.9649152
464.2272899
465.5339992
466.880826
468.2634475
469.67764
471.1198385
472.585863
474.0725169
475.5761243
477.0938619
478.6224009
480.1594515
481.7020808
483.2484783
484.7962423
486.3437688
487.8891453
489.4306622
490.9665907
492.4948612
494.013324
495.5192862
497.0100399
498.4820176
499.9317433
501.355373
502.7492338
504.1102163
505.4354533
506.7234289
507.9734551
509.1858566
510.3614486
511.5019001
512.6086074
452.8450221
452.9556865
453.1929786
453.5436466
454.000768
454.5577063
455.2089021
455.9484442
456.7710998
457.6716175
458.6448808
459.6859285
460.7898522
461.9518547
463.1673189
464.431476
465.7402232
467.0891736
468.4738362
469.890479
471.3351775
472.8041309
474.2939528
475.8011953
477.3228936
478.8559842
480.3979139
481.9461012
483.4981981
485.0521752
486.6057079
488.1570607
489.7036402
491.2436041
492.7740262
494.2923071
495.7951099
497.2792203
498.7407134
500.176204
501.5817518
502.9546003
504.2920494
505.5923654
506.8548291
508.0794243
509.2668647
510.4183652
511.5355034
512.6196387
453.0278132
453.1386716
453.3761849
453.7274692
454.1853292
454.7430083
455.3950282
456.1356766
456.9592834
457.860779
458.8350505
459.8771227
460.9820706
462.1451227
463.361484
464.6268284
465.9368481
467.2870605
468.6732408
470.0916878
471.5382531
473.0095708
474.5019077
476.0122591
477.5372345
479.0742147
480.620216
482.1729505
483.7295718
485.2881209
486.8459604
488.400813
489.9500621
491.4909065
493.020382
494.5350263
496.0316103
497.5062585
498.9554786
500.3757236
501.7638852
503.1175936
504.4347034
505.7144323
506.956462
508.161133
509.3293009
510.4622937
511.5615017
512.6281906
453.2106332
453.3215017
453.5592897
453.9109873
454.3691438
454.9274185
455.5798841
456.3210247
457.1453112
458.0473005
459.0220821
460.0646768
461.1701298
462.3335748
463.5505591
464.816633
466.1274781
467.4784622
468.8657949
470.2854839
471.7336233
473.2067941
474.7012254
476.2140852
477.7418073
479.2818403
480.831182
482.3872379
483.9473185
485.5088268
487.0692516
488.6255243
490.1750826
491.7143695
493.24033
494.7491371
496.2374915
497.7014736
499.1378979
500.5433165
501.9154192
503.2520758
504.5518575
505.8143452
507.03951
508.2277992
509.380256
510.4981023
511.5826571
512.63514
453.3934129
453.5043731
453.7423586
454.0943373
454.5526216
455.1112906
455.7639734
456.5053409
457.3298545
458.2321837
459.2072268
460.2500131
461.3556222
462.5193611
463.7366896
465.0032054
466.3144095
467.6660362
469.0542016
470.4747408
471.9241449
473.3986316
474.8948407
476.4095472
477.93954
479.4818136
481.0336606
482.5919652
484.1542111
485.7171832
487.2783456
488.8342845
490.3819786
491.9179135
493.4384197
494.9399655
496.4188926
497.8717902
499.2954144
500.6869639
502.0444208
503.3659402
504.6507165
505.8984683
507.109355
508.2838482
509.4231062
510.528235
511.600475
512.6409974
453.5762846
453.6873154
453.9254493
454.2774854
454.73596
455.2947559
455.9476946
456.6891579
457.5137559
458.4161732
459.391303
460.4341619
461.5398547
462.7037119
463.9211954
465.1879099
466.4992715
467.851325
469.2399706
470.6611606
472.1115002
473.5869297
475.0844772
476.6005136
478.1321525
479.6759188
481.2292949
482.788864
484.3518577
485.9150861
487.4753903
489.029473
490.5737223
492.1048197
493.618627
495.1119815
496.5809926
498.0227817
499.4340897
500.8127249
502.1568653
503.4648981
504.7364751
505.971376
507.1698466
508.3324026
509.4602198
510.5543223
511.615891
512.6460629
453.759245
453.8703363
454.1085957
454.4605895
454.9192782
455.4781061
456.1312839
456.8727772
457.6973873
458.5998127
459.5749403
460.6177731
461.72344
462.8872929
464.1047933
465.3713986
466.6828954
468.0351772
469.4239832
470.8456589
472.2964786
473.7726465
475.270988
476.7879518
478.3204496
479.865155
481.4190737
482.9789978
484.5415985
486.1038297
487.6619684
489.2128214
490.7524562
492.2775033
493.7839167
495.2684473
496.7275182
498.1584117
499.5580136
500.92464
502.2565291
503.5525093
504.8123028
506.0357987
507.2232479
508.3752962
509.4930108
510.5773761
511.629518
512.6505415
453.9422875
454.0534343
454.2916395
454.6437456
455.1026278
455.661462
456.3146671
457.0563363
457.8809175
458.7833028
459.7583711
460.8011111
461.9066739
463.070431
464.2877037
465.5542138
466.8657012
468.2179715
469.6068107
471.0287359
472.4797136
473.9563166
475.4549761
476.9724257
478.5051685
480.0501208
481.6037553
483.1630812
484.7242768
486.2843028
487.8393169
489.3857934
490.9199974
492.4382055
493.9367542
495.4122012
496.8614313
498.2816656
499.6703045
501.0257534
502.3463902
503.6314025
504.8805392
506.0937572
507.2712898
508.4138865
509.5225117
510.5981144
511.6417739
512.654569
454.1254034
454.2364994
454.4746996
454.8269593
455.285873
455.8448481
456.4980409
457.2397821
458.0644112
458.9667225
459.9416908
460.9842881
462.0896862
463.2531648
464.4701941
465.7365505
467.0479053
468.3998969
469.7887092
471.2106041
472.6615322
474.1382402
475.6368163
477.1542607
478.6866755
480.2311175
481.7837867
483.3415076
484.9005678
486.4574326
488.0084748
489.5497691
491.0778593
492.5887321
494.0791239
495.5454401
496.9850086
498.3949933
499.773256
501.1182611
502.4284857
503.7034169
504.9428006
506.1466349
507.3151226
508.4490999
509.5494342
510.617042
511.6529605
512.6582453
454.308394
454.4195123
454.6578194
455.0102266
455.4691107
456.0282671
456.6814328
457.4231232
458.2477807
459.1500986
460.1249343
461.1673303
462.2724057
463.4355909
464.652394
465.9185069
467.2295386
468.5812026
469.9698201
471.3913571
472.8420979
474.3184256
475.8166998
477.3335017
478.8652015
480.408412
481.9595261
483.5148984
485.0710511
486.623998
488.1703369
489.7058574
491.2272759
492.7305729
494.2126117
495.6699239
497.1000737
498.5002253
499.8686536
501.2038037
502.5043766
503.7699569
505.0003203
506.1954439
507.3556277
508.4816443
509.5743183
510.6345367
511.6633
512.6616432
454.4914112
454.6025801
454.8409911
455.1934924
455.6523872
456.2116472
456.8648415
457.606467
458.4310416
459.3332448
460.3079381
461.3500939
462.4549268
463.617831
464.8343451
466.1001343
467.4106404
468.7619603
470.1502225
471.5712016
473.0215044
474.4971328
475.9947422
477.510458
479.0409287
480.5823381
482.1312761
483.6836531
485.2361605
486.7846562
488.3256011
489.8550248
491.3693765
492.8649784
494.3385728
495.7870757
497.2080205
498.5987953
499.9578774
501.283702
502.5752455
503.83208
505.0540226
506.2410176
507.3934584
508.5120458
509.5975671
510.6508832
511.6729612
512.6648182
454.6744762
454.7856945
455.0242063
455.3766426
455.8356951
456.3949157
457.0482616
457.7898093
458.6142848
459.5163532
460.4908526
461.5327678
462.6373238
463.7999019
465.0160696
466.2813241
467.5913484
468.9422023
470.3297795
471.7501873
473.1997575
474.6744386
476.1710035
477.6852402
479.2139495
480.7530975
482.2991643
483.8481377
485.3963824
486.9400021
488.4751276
489.9981194
491.5051914
492.9930081
494.4582049
495.8980643
497.3100382
498.6918528
500.0420243
501.3590074
502.6420223
503.8906151
505.1046309
506.2839759
507.4291269
508.5407157
509.6194948
510.6663019
511.6820743
512.6678131
454.8575811
454.9688472
455.2073931
455.5598225
456.0190256
456.5781978
457.231592
457.9731441
458.7975054
459.6994207
460.6737046
461.7153534
462.8196001
463.9818102
465.1975273
466.4621743
467.7716769
469.1219458
470.5086878
471.9283322
473.3768084
474.8503835
476.3454091
477.8579438
479.3843585
480.9208745
482.4635768
484.0086902
485.5522279
487.0905728
488.6195572
490.1358811
491.6355464
493.1155563
494.5724468
496.0038481
497.4071271
498.7803201
500.1219666
501.4305262
502.7054373
503.9462103
505.1527064
506.3247981
507.4630311
508.5679736
509.6403458
510.6809647
511.690741
512.6706614
455.0407178
455.1520277
455.3904675
455.7430228
456.2023117
456.7614839
457.4148013
458.1564569
458.9806964
459.8824419
460.8564901
461.8978478
463.0017538
464.1635416
465.3786287
466.6427381
467.9516277
469.3010433
470.686951
472.1056441
473.5527988
475.0249952
476.5181667
478.0286425
479.5523725
481.0858444
482.6247707
484.1656101
485.7040934
487.236766
488.7594563
490.268837
491.7611471
493.2333014
494.6820845
496.1052197
497.5000658
498.8649452
500.1983585
501.4989045
502.7660732
503.9993816
505.1986564
506.3638651
507.495487
508.594073
509.6603137
510.6950078
511.6990416
512.6733894
494.7877708
496.2027813
497.5894914
498.9463357
500.2717908
501.5646609
502.8243962
504.0505403
505.2428825
506.4014791
507.526745
508.6192148
509.679552
510.7085389
511.7070399
512.676018
)
;

boundaryField
{
    front_top
    {
        type            wedge;
    }
    front_middle
    {
        type            wedge;
    }
    front_bottom
    {
        type            wedge;
    }
    back_top
    {
        type            wedge;
    }
    back_middle
    {
        type            wedge;
    }
    back_bottom
    {
        type            wedge;
    }
    axis_top
    {
        type            symmetryPlane;
    }
    axis_middle
    {
        type            symmetryPlane;
    }
    axis_bottom
    {
        type            symmetryPlane;
    }
    wall_top
    {
        type            convectiveRadiativeHeatFlux;
        mode            convectiveRadiative;
        kappaMethod     fluidThermo;
        kappa           none;
        alphaAni        Anialpha;
        h               nonuniform 0();
        Ta              constant 513.15;
        emissivityNozzle 0.95;
        emissivityFilament 0.95;
        dNozzle         2;
        dFilament       1.65;
        refValue        nonuniform 0();
        refGradient     nonuniform 0();
        valueFraction   nonuniform 0();
        value           nonuniform 0();
    }
    wall_middle
    {
        type            fixedValue;
        value           uniform 513.15;
    }
    wall_bottom
    {
        type            fixedValue;
        value           uniform 513.15;
    }
    inlet
    {
        type            fixedValue;
        value           nonuniform 0();
    }
    outlet
    {
        type            zeroGradient;
    }
    procBoundary2to1
    {
        type            processor;
        value           nonuniform List<scalar> 
51
(
455.2237971
455.3350306
455.5735595
455.9262347
456.3854575
456.944765
457.5979964
458.3395509
459.1638346
460.0654086
461.0392014
462.0802434
463.1837411
464.3449355
465.5595067
466.8230082
468.131193
469.4796099
470.8645624
472.2819838
473.7277337
475.1982458
476.689313
478.1973561
479.718105
481.2480793
482.782969
484.3190721
485.8523385
487.3790436
488.8953233
490.3976513
491.8825996
493.3469309
493.3469309
494.8900507
496.2970841
497.6759268
499.0249871
500.3427514
501.6282148
502.8807818
504.100017
505.2856703
506.4378824
507.5570056
508.64356
509.6981834
510.7216442
511.7147867
512.6785641
)
;
    }
    procBoundary2to3
    {
        type            processor;
        value           nonuniform List<scalar> 
51
(
449.8660134
450.3146091
450.3146091
450.6244545
451.0826314
451.6788911
452.4048239
453.2519816
454.2122142
455.2774003
456.439703
457.6912061
459.0240686
460.4302399
461.9019515
463.4313792
465.0109455
466.6329237
468.2900456
469.974869
471.6805229
473.4003358
475.1278748
476.8569009
478.5818349
480.2973778
481.9984542
483.6805644
485.3398148
486.9724549
488.5752713
490.1457636
491.6812251
493.180123
494.6405725
496.0618762
497.4429431
498.7834586
500.0833536
501.3424921
502.5613675
503.7405562
504.8808113
505.9829629
507.0480164
508.0770687
509.0714186
510.0322299
510.9608848
511.8585984
512.7267371
)
;
    }
}


// ************************************************************************* //
