/*--------------------------------*- C++ -*----------------------------------*\
  =========                 |
  \\      /  F ield         | OpenFOAM: The Open Source CFD Toolbox
   \\    /   O peration     | Website:  https://openfoam.org
    \\  /    A nd           | Version:  7
     \\/     M anipulation  |
\*---------------------------------------------------------------------------*/
FoamFile
{
    version     2.0;
    format      ascii;
    class       volScalarField;
    location    "0.0021";
    object      thermo:alpha;
}
// * * * * * * * * * * * * * * * * * * * * * * * * * * * * * * * * * * * * * //

dimensions      [1 -1 -1 0 0 0 0];

internalField   nonuniform List<scalar> 
1167
(
0.0001197300962
0.0001197015793
0.0001196884396
0.0001196602639
0.000119618637
0.0001195644707
0.000119493987
0.0001194123702
0.0001193230706
0.0001192169398
0.0001191012379
0.0001189709431
0.0001188264007
0.0001186740506
0.000118507981
0.0001183266292
0.0001181272169
0.0001179225834
0.0001177046094
0.000117476994
0.0001172345543
0.000116986713
0.0001167221466
0.0001164535133
0.0001161816896
0.0001158954592
0.0001156055364
0.0001153154372
0.0001150160242
0.0001147168095
0.0001144129109
0.0001141088683
0.0001138037562
0.0001135060673
0.0001132048149
0.0001129035645
0.0001126043082
0.0001123141581
0.0001120261894
0.0001117426909
0.0001114661555
0.0001111907192
0.0001109249084
0.0001106685463
0.0001104138221
0.0001101662424
0.0001099196373
0.0001096809805
0.0001094509427
0.0001092291644
0.0001090100885
0.0001196730854
0.0001196604752
0.0001196334369
0.0001195934985
0.000119541191
0.000119471587
0.0001193950387
0.0001193077241
0.0001192056586
0.0001190943111
0.0001189683895
0.0001188290437
0.000118682007
0.0001185224315
0.0001183484472
0.0001181552129
0.0001179565572
0.0001177472247
0.0001175254212
0.0001172920342
0.0001170495333
0.0001167939349
0.0001165335567
0.0001162639906
0.0001159832474
0.0001157007296
0.0001154142042
0.0001151188367
0.000114824145
0.0001145198073
0.000114218909
0.0001139108867
0.0001136094341
0.0001133082603
0.0001130059216
0.0001127003554
0.000112403278
0.0001121115144
0.0001118200566
0.0001115378672
0.0001112541107
0.0001109797544
0.0001107150147
0.0001104537301
0.000110198188
0.0001099451052
0.0001096994217
0.0001094631104
0.000109235856
0.0001090121669
0.0001196446206
0.0001196326478
0.0001196069832
0.00011956903
0.0001195171295
0.0001194509493
0.0001193799081
0.0001192955495
0.0001191983863
0.0001190923124
0.0001189723033
0.0001188393242
0.0001186988378
0.0001185479298
0.0001183817126
0.0001181984024
0.0001180074985
0.0001178099214
0.0001175959209
0.0001173752381
0.0001171401621
0.0001168976605
0.0001166439586
0.0001163815908
0.0001161164734
0.0001158415115
0.0001155587656
0.0001152740473
0.0001149811113
0.000114685403
0.0001143852051
0.0001140819569
0.0001137772893
0.0001134783114
0.0001131726972
0.0001128650215
0.0001125591534
0.0001122608341
0.0001119606636
0.0001116660915
0.0001113738475
0.0001110851672
0.0001108058187
0.0001105329211
0.0001102624759
0.0001099970324
0.0001097375062
0.0001094885711
0.0001092500439
0.0001090166346
0.00011961619
0.0001196049416
0.0001195808118
0.000119545122
0.0001194940849
0.0001194327151
0.0001193666772
0.0001192861312
0.0001191946213
0.000119094656
0.0001189819592
0.0001188564422
0.0001187237049
0.0001185835074
0.0001184261002
0.0001182557965
0.0001180744577
0.0001178883268
0.0001176878873
0.0001174801714
0.000117258805
0.000117031226
0.0001167899847
0.0001165445704
0.0001162892208
0.0001160240758
0.0001157575907
0.000115483366
0.0001152030673
0.00011491799
0.0001146264712
0.0001143328316
0.0001140327995
0.0001137327105
0.0001134359436
0.0001131313535
0.0001128221171
0.0001125147235
0.0001122129211
0.0001119050103
0.000111602515
0.000111297134
0.0001109957639
0.0001107016346
0.0001104074458
0.0001101178435
0.0001098280873
0.0001095495454
0.0001092834722
0.000109026499
0.0001195880004
0.0001195776184
0.0001195553427
0.0001195202047
0.0001194730086
0.0001194178909
0.0001193568707
0.0001192815871
0.0001191969676
0.0001191044741
0.0001190013936
0.0001188850888
0.0001187619846
0.0001186326543
0.000118489468
0.0001183362558
0.0001181672361
0.000117993437
0.0001178137882
0.0001176191257
0.0001174208413
0.0001172066535
0.0001169901185
0.0001167582103
0.0001165247409
0.0001162812871
0.0001160280735
0.0001157746114
0.0001155127427
0.0001152465009
0.0001149731826
0.0001146960486
0.0001144129321
0.0001141267204
0.000113835158
0.0001135464802
0.000113251411
0.0001129511275
0.0001126447464
0.0001123410924
0.0001120331483
0.0001117210367
0.0001114055654
0.0001110833929
0.0001107619191
0.0001104339922
0.0001100992577
0.0001097544973
0.0001094125448
0.0001090733269
0.0001195648738
0.0001195546922
0.0001195317248
0.0001194962599
0.0001194500429
0.0001193981229
0.0001193373953
0.0001192627969
0.0001191799093
0.0001190892829
0.0001189869787
0.0001188729436
0.000118752193
0.0001186252795
0.0001184841375
0.0001183334077
0.0001181672757
0.0001179963386
0.0001178199106
0.0001176281881
0.0001174330698
0.0001172222631
0.0001170084971
0.0001167805071
0.0001165496251
0.0001163085248
0.0001160607642
0.0001158096386
0.0001155496146
0.0001152869433
0.000115014864
0.0001147407355
0.0001144580409
0.0001141739403
0.0001138817296
0.0001135917758
0.0001132968301
0.0001129957373
0.0001126858728
0.0001123780867
0.0001120670051
0.0001117499906
0.0001114309299
0.0001111048592
0.0001107809971
0.0001104534958
0.0001101213822
0.0001097795338
0.0001094379214
0.0001090895948
0.0001195477648
0.0001195368699
0.0001195128176
0.0001194772518
0.0001194318848
0.0001193806105
0.0001193179647
0.0001192431558
0.0001191600436
0.0001190691637
0.0001189647075
0.0001188503214
0.0001187291808
0.0001186018396
0.0001184582393
0.0001183049177
0.000118138146
0.0001179665301
0.000117787211
0.0001175946794
0.0001173969036
0.0001171846923
0.0001169688942
0.0001167385132
0.0001165056086
0.0001162643478
0.0001160111708
0.0001157575022
0.0001154960115
0.0001152287946
0.0001149548946
0.0001146755832
0.0001143905572
0.0001141004424
0.0001138052424
0.0001135120233
0.0001132097266
0.0001129008081
0.0001125869997
0.0001122755698
0.0001119568652
0.0001116377209
0.0001113133183
0.000110988686
0.0001106687981
0.0001103441307
0.0001100192013
0.000109693335
0.0001093746496
0.0001090602183
0.0001195292959
0.0001195180175
0.0001194938406
0.000119458093
0.0001194142798
0.0001193627481
0.0001192980006
0.0001192228346
0.0001191393013
0.0001190479713
0.0001189410454
0.0001188260826
0.0001187043266
0.0001185747719
0.0001184298748
0.0001182735203
0.0001181058888
0.0001179334321
0.0001177507717
0.0001175572875
0.0001173559925
0.0001171427495
0.0001169232391
0.0001166917468
0.0001164549022
0.0001162153414
0.0001159580149
0.0001156999325
0.0001154369968
0.0001151649319
0.0001148892606
0.0001146045513
0.000114317356
0.0001140212374
0.0001137235179
0.0001134262794
0.0001131190184
0.0001128037258
0.0001124881894
0.0001121750386
0.0001118533342
0.0001115361559
0.0001112117553
0.0001108934737
0.0001105811268
0.0001102658866
0.0001099524441
0.0001096433912
0.0001093436861
0.0001090493989
0.0001195104997
0.0001194991728
0.0001194748897
0.0001194392189
0.000119396751
0.0001193446915
0.0001192782065
0.0001192027391
0.0001191188688
0.0001190259388
0.0001189178915
0.0001188024662
0.0001186802303
0.0001185481008
0.000118402637
0.0001182435488
0.0001180753112
0.0001179022377
0.0001177166521
0.0001175225294
0.0001173181644
0.0001171042174
0.0001168814768
0.0001166491818
0.0001164088902
0.0001161670436
0.0001159100136
0.0001156480662
0.0001153838302
0.0001151074806
0.0001148302067
0.000114540756
0.0001142516987
0.0001139504874
0.0001136508825
0.0001133485816
0.0001130395544
0.0001127204273
0.0001124049579
0.0001120895478
0.0001117704271
0.0001114543962
0.0001111357075
0.0001108249377
0.0001105191821
0.000110214363
0.0001099106189
0.0001096136967
0.0001093261068
0.000109043428
0.0001194916996
0.0001194803366
0.000119455974
0.0001194219405
0.0001193793356
0.0001193253688
0.0001192586731
0.0001191829907
0.0001190988831
0.0001190038466
0.0001188955019
0.000118779766
0.000118657213
0.0001185228009
0.0001183769847
0.0001182155366
0.0001180469366
0.0001178734819
0.0001176854214
0.0001174908882
0.0001172839128
0.0001170694997
0.000116843987
0.0001166111065
0.0001163678223
0.000116122859
0.0001158672258
0.0001156019814
0.0001153357509
0.0001150565553
0.0001147762209
0.0001144844928
0.000114191543
0.0001138887925
0.000113588184
0.0001132822557
0.0001129701914
0.0001126516724
0.0001123378009
0.0001120221908
0.0001117069172
0.0001113933966
0.0001110808186
0.0001107770057
0.0001104770751
0.0001101802192
0.0001098834309
0.0001095945748
0.0001093147922
0.0001090395712
0.0001194728946
0.0001194615062
0.0001194374956
0.0001194047206
0.0001193620204
0.0001193062125
0.0001192393805
0.0001191635559
0.0001190793022
0.0001189823082
0.00011887379
0.0001187578779
0.0001186351497
0.000118498694
0.0001183525272
0.0001181891709
0.0001180203563
0.0001178466784
0.0001176564565
0.0001174616437
0.000117252391
0.0001170376143
0.0001168096603
0.000116576289
0.0001163319502
0.0001160825756
0.0001158261869
0.0001155600755
0.0001152906645
0.0001150104458
0.0001147267297
0.0001144339802
0.000114137689
0.0001138342576
0.0001135333407
0.0001132250202
0.0001129112091
0.0001125942276
0.000112282704
0.0001119680096
0.0001116568403
0.0001113461928
0.0001110391007
0.0001107410695
0.0001104458465
0.0001101550768
0.0001098635115
0.0001095806014
0.000109306555
0.0001090367718
0.0001194540846
0.0001194426791
0.0001194203703
0.0001193875462
0.0001193444569
0.0001192871888
0.0001192202897
0.0001191443716
0.0001190600427
0.0001189612052
0.0001188526036
0.0001187366084
0.0001186137993
0.0001184754615
0.0001183274182
0.0001181639529
0.0001179950204
0.0001178199549
0.0001176290117
0.0001174340051
0.000117222673
0.0001170076117
0.0001167774329
0.0001165436482
0.0001162988739
0.0001160449516
0.0001157879414
0.0001155211311
0.0001152489043
0.0001149679516
0.0001146813518
0.0001143880394
0.0001140890914
0.0001137855894
0.0001134849603
0.0001131752422
0.0001128606534
0.0001125457926
0.0001122369783
0.0001119238023
0.000111616562
0.000111308738
0.0001110063788
0.0001107131189
0.0001104216962
0.0001101355924
0.0001098481603
0.0001095698175
0.0001093001822
0.0001090346017
0.0001194358452
0.0001194254814
0.000119403259
0.0001193704047
0.000119325576
0.0001192682616
0.0001192013342
0.0001191253853
0.0001190410089
0.0001189404022
0.0001188317722
0.0001187157493
0.0001185927287
0.0001184528138
0.0001183029739
0.0001181394577
0.0001179704637
0.0001177935678
0.0001176025169
0.0001174061364
0.0001171940906
0.0001169782918
0.0001167465528
0.0001165118535
0.0001162673141
0.000116010381
0.000115751657
0.0001154843545
0.0001152096158
0.0001149282147
0.0001146391908
0.0001143457009
0.0001140447288
0.0001137416268
0.0001134409557
0.0001131313451
0.0001128166564
0.0001125041586
0.0001121981498
0.0001118866783
0.0001115830583
0.0001112778411
0.0001109795108
0.0001106902445
0.0001104019647
0.0001101191767
0.000109835633
0.0001095610273
0.0001092949968
0.0001090328381
0.0001194187602
0.0001194083905
0.0001193861553
0.0001193532833
0.0001193067345
0.0001192493945
0.0001191824621
0.0001191065097
0.0001190204497
0.0001189197874
0.0001188111564
0.0001186951423
0.0001185704063
0.0001184304924
0.0001182789166
0.0001181153859
0.0001179463897
0.0001177677152
0.0001175765998
0.0001173783999
0.000117166225
0.000116948517
0.0001167165644
0.0001164798386
0.0001162368181
0.0001159777661
0.0001157168423
0.0001154492288
0.0001151722967
0.0001148907123
0.0001145997223
0.0001143063796
0.0001140039515
0.0001137015947
0.0001134002708
0.0001130922323
0.0001127779011
0.0001124678438
0.0001121633086
0.0001118548653
0.0001115545419
0.0001112516854
0.0001109568419
0.0001106709875
0.0001103853717
0.0001101053765
0.0001098250989
0.0001095536308
0.0001092906295
0.0001090313518
0.000119401671
0.0001193912974
0.0001193690541
0.0001193349902
0.0001192879123
0.000119230574
0.0001191636327
0.00011908769
0.0001189999236
0.0001188992775
0.0001187906649
0.0001186746727
0.0001185482412
0.0001184083493
0.0001182550754
0.0001180915613
0.0001179225883
0.0001177421842
0.0001175510521
0.0001173510864
0.0001171388297
0.0001169192992
0.0001166872
0.0001164485684
0.0001162071197
0.0001159461168
0.0001156832136
0.0001154154555
0.0001151366552
0.0001148551014
0.0001145625385
0.0001142696248
0.000113966171
0.0001136648447
0.0001133632682
0.000113056984
0.0001127432774
0.0001124356566
0.0001121325443
0.0001118270186
0.0001115296273
0.0001112289573
0.0001109371795
0.0001106542997
0.0001103710021
0.0001100934224
0.0001098159756
0.0001095472275
0.000109286851
0.0001090300664
0.0001193845779
0.0001193742013
0.000119351952
0.0001193161848
0.0001192690969
0.0001192117701
0.0001191448216
0.0001190688955
0.000118979433
0.0001188788118
0.0001187702275
0.000118654268
0.0001185261597
0.0001183863042
0.0001182313577
0.0001180678996
0.0001178989525
0.0001177168577
0.0001175257524
0.0001173240613
0.0001171117889
0.0001168904895
0.0001166583271
0.0001164178839
0.0001161749523
0.0001159152697
0.0001156506002
0.0001153828514
0.0001151024486
0.0001148211477
0.0001145273392
0.0001142345338
0.0001139309628
0.0001136308995
0.0001133293368
0.0001130238503
0.000112711987
0.0001124067497
0.0001121050575
0.0001118022418
0.0001115066993
0.0001112088377
0.0001109197959
0.0001106395553
0.0001103583178
0.0001100828627
0.0001098079153
0.000109541569
0.000109283511
0.0001090289299
0.0001193674816
0.0001193571025
0.0001193335364
0.0001192973788
0.0001192502832
0.0001191929706
0.0001191260365
0.0001190501119
0.0001189589589
0.0001188583681
0.0001187498183
0.000118633899
0.0001185041261
0.000118364318
0.0001182077349
0.0001180443308
0.000117875428
0.0001176916833
0.0001175006222
0.0001172972514
0.0001170850099
0.0001168620045
0.0001166298521
0.0001163876926
0.0001161430816
0.0001158851265
0.000115618871
0.0001153511727
0.0001150695237
0.000114787459
0.0001144938895
0.0001142003968
0.0001138979672
0.0001135993168
0.0001132979684
0.0001129930965
0.0001126833954
0.0001123804851
0.0001120801549
0.0001117798596
0.0001114860291
0.0001111907222
0.0001109041541
0.0001106262915
0.0001103469072
0.0001100733629
0.0001098006639
0.000109536479
0.0001092805072
0.0001090279079
0.0001193503828
0.0001193392003
0.0001193147358
0.0001192785717
0.0001192314851
0.0001191741727
0.0001191072572
0.000119030505
0.0001189384941
0.0001188379375
0.0001187294268
0.000118613553
0.0001184821248
0.000118341425
0.0001181841723
0.0001180208296
0.0001178519869
0.000117666635
0.000117475626
0.0001172706251
0.0001170584446
0.0001168337976
0.0001166017167
0.00011635798
0.000116111773
0.0001158548908
0.0001155879484
0.0001153189528
0.0001150377578
0.0001147547429
0.0001144619922
0.0001141680427
0.0001138668848
0.0001135697402
0.0001132687544
0.0001129645977
0.0001126570152
0.0001123563396
0.0001120573269
0.000111759385
0.0001114671474
0.000111174188
0.0001108898833
0.0001106141914
0.0001103364971
0.0001100646948
0.0001097940467
0.0001095318335
0.0001092777655
0.000109026975
0.0001193318155
0.0001193204031
0.0001192959339
0.000119259764
0.0001192126926
0.0001191553764
0.0001190884808
0.0001190100389
0.0001189180485
0.000118817517
0.0001187090489
0.0001185930656
0.0001184601643
0.0001183178366
0.0001181606532
0.0001179973835
0.0001178278864
0.0001176416783
0.0001174507443
0.0001172441689
0.000117032069
0.0001168058672
0.000116573891
0.000116330313
0.0001160809862
0.0001158243805
0.0001155577705
0.0001152876499
0.0001150070457
0.0001147232746
0.0001144314775
0.0001141372516
0.0001138374715
0.0001135418759
0.0001132413681
0.0001129379762
0.0001126324562
0.0001123339224
0.0001120361766
0.0001117404543
0.0001114496947
0.000111158912
0.0001108767004
0.0001106026121
0.0001103268778
0.0001100566841
0.0001097879306
0.0001095275398
0.0001092752314
0.0001090261128
0.0001193130197
0.0001193016051
0.0001192771315
0.0001192409613
0.0001191939009
0.0001191365889
0.0001190697076
0.0001189895777
0.0001188976203
0.0001187971274
0.0001186887029
0.0001185710715
0.0001184382333
0.0001182942783
0.0001181371722
0.0001179739857
0.0001178029171
0.0001176168033
0.0001174259641
0.0001172178522
0.0001170058692
0.0001167781728
0.0001165463569
0.0001163030054
0.0001160506896
0.0001157944572
0.0001155282847
0.000115257191
0.0001149773086
0.0001146929293
0.0001144022132
0.000114107832
0.000113809504
0.0001135154772
0.0001132155305
0.0001129129268
0.00011260942
0.0001123129273
0.0001120163977
0.0001117227747
0.0001114333984
0.0001111446514
0.0001108643933
0.0001105917727
0.0001103178941
0.0001100492012
0.0001097822167
0.000109523528
0.0001092728636
0.0001090253071
0.0001192942239
0.0001192828072
0.0001192583296
0.0001192221753
0.0001191751108
0.0001191178176
0.0001190509381
0.000118969122
0.0001188771992
0.0001187767472
0.0001186683721
0.0001185490937
0.0001184163228
0.0001182707478
0.0001181137264
0.0001179506501
0.0001177780083
0.0001175920055
0.000117399644
0.0001171916677
0.0001169793841
0.0001167507024
0.000116518911
0.0001162760399
0.0001160214558
0.0001157650856
0.0001154994686
0.0001152275098
0.0001149484582
0.0001146635936
0.0001143740361
0.0001140796158
0.0001137827786
0.0001134903353
0.0001131909953
0.000112889199
0.0001125876522
0.0001122931089
0.0001119977464
0.0001117061131
0.0001114180446
0.0001111312155
0.000110852796
0.0001105815559
0.0001103094242
0.0001100421448
0.0001097768276
0.000109519744
0.0001092706302
0.0001090245471
0.0001192754288
0.0001192640101
0.0001192395353
0.0001192033911
0.0001191563233
0.0001190990498
0.0001190314194
0.0001189486723
0.000118856786
0.0001187563768
0.0001186480534
0.0001185271322
0.0001183944323
0.0001182472444
0.0001180903209
0.0001179273642
0.0001177531581
0.0001175672825
0.0001173734256
0.0001171656127
0.0001169519038
0.0001167234495
0.0001164903428
0.0001162494015
0.0001159936595
0.0001157362338
0.0001154712556
0.0001151985445
0.000114920402
0.0001146351657
0.000114346825
0.0001140524563
0.0001137571324
0.0001134662739
0.0001131675693
0.0001128665872
0.0001125669388
0.0001122742704
0.000111980029
0.000111690291
0.000111403465
0.0001111184554
0.00011084178
0.0001105718477
0.0001103013737
0.0001100354361
0.0001097717033
0.0001095161456
0.0001092685062
0.0001090238244
0.0001192566354
0.0001192452151
0.0001192207575
0.0001191846096
0.0001191375452
0.0001190802864
0.0001190109677
0.0001189282304
0.0001188363812
0.0001187360167
0.0001186277473
0.0001185051873
0.0001183725622
0.0001182237697
0.0001180669674
0.000117904121
0.0001177283662
0.0001175426546
0.0001173473082
0.0001171396859
0.0001169245947
0.0001166964097
0.0001164620514
0.0001162230786
0.0001159662603
0.0001157078712
0.0001154436011
0.0001151702408
0.0001148930681
0.0001146075699
0.0001143204727
0.0001140262492
0.0001137324258
0.0001134423995
0.0001131450909
0.0001128449216
0.0001125471135
0.0001122562522
0.0001119631003
0.000111675165
0.0001113895256
0.0001111062525
0.0001108312516
0.0001105625575
0.0001102936675
0.0001100290128
0.0001097667961
0.0001095126993
0.000109266472
0.0001090231322
0.0001131234258
0.0001128240731
0.0001125280399
0.0001122389246
0.0001119468291
0.0001116606204
0.0001113761189
0.0001110945123
0.0001108211189
0.0001105536132
0.000110286246
0.0001100228254
0.0001097620684
0.0001095093787
0.0001092645118
0.0001090224651
)
;

boundaryField
{
    front_top
    {
        type            wedge;
    }
    front_middle
    {
        type            wedge;
    }
    front_bottom
    {
        type            wedge;
    }
    back_top
    {
        type            wedge;
    }
    back_middle
    {
        type            wedge;
    }
    back_bottom
    {
        type            wedge;
    }
    axis_top
    {
        type            symmetryPlane;
    }
    axis_middle
    {
        type            symmetryPlane;
    }
    axis_bottom
    {
        type            symmetryPlane;
    }
    wall_top
    {
        type            calculated;
        value           nonuniform 0();
    }
    wall_middle
    {
        type            calculated;
        value           uniform 0.0001089022317;
    }
    wall_bottom
    {
        type            calculated;
        value           uniform 0.0001089022317;
    }
    inlet
    {
        type            calculated;
        value           nonuniform 0();
    }
    outlet
    {
        type            calculated;
        value           nonuniform 0();
    }
    procBoundary2to1
    {
        type            processor;
        value           nonuniform List<scalar> 
51
(
0.0001192378526
0.0001192264431
0.0001192019826
0.0001191658318
0.0001191187863
0.0001190615284
0.0001189905229
0.0001189078181
0.0001188159876
0.000118715668
0.0001186074547
0.0001184832599
0.0001183504033
0.0001182003446
0.0001180436485
0.0001178809215
0.0001177036336
0.0001175181057
0.0001173212928
0.0001171139076
0.000116897456
0.0001166695871
0.0001164340305
0.0001161961949
0.0001159392394
0.0001156799851
0.0001154164665
0.0001151425668
0.0001148663913
0.0001145807186
0.0001142948847
0.0001140008631
0.0001137085393
0.0001134190599
0.0001134190599
0.000113102462
0.0001128039237
0.0001125096064
0.0001122221821
0.0001119311071
0.0001116465642
0.0001113631586
0.000111083159
0.0001108113163
0.0001105449572
0.0001102790616
0.0001100168343
0.0001097574899
0.0001095061627
0.0001092626133
0.0001090218191
)
;
    }
    procBoundary2to3
    {
        type            processor;
        value           nonuniform List<scalar> 
51
(
0.000119761328
0.000119716533
0.000119716533
0.0001196874528
0.0001196444745
0.0001195885852
0.0001195182129
0.0001194319798
0.000119341695
0.0001192323542
0.000119113231
0.0001189801226
0.000118831551
0.0001186751086
0.0001185046939
0.0001183183811
0.0001181143874
0.0001179053842
0.0001176817591
0.0001174500507
0.0001172018584
0.0001169482525
0.0001166804811
0.0001164065987
0.0001161298562
0.0001158434874
0.0001155510868
0.0001152577485
0.0001149586433
0.000114657466
0.0001143551681
0.0001140505082
0.0001137481466
0.0001134533236
0.0001131536015
0.0001128541848
0.0001125592984
0.0001122736021
0.0001119885864
0.0001117097671
0.0001114365895
0.0001111656616
0.0001109040918
0.0001106516477
0.0001103999437
0.0001101556357
0.0001099115741
0.0001096754212
0.0001094474636
0.0001092273733
0.0001090095957
)
;
    }
}


// ************************************************************************* //
