/*--------------------------------*- C++ -*----------------------------------*\
  =========                 |
  \\      /  F ield         | OpenFOAM: The Open Source CFD Toolbox
   \\    /   O peration     | Website:  https://openfoam.org
    \\  /    A nd           | Version:  7
     \\/     M anipulation  |
\*---------------------------------------------------------------------------*/
FoamFile
{
    version     2.0;
    format      ascii;
    class       volVectorField;
    location    "0.0027";
    object      U;
}
// * * * * * * * * * * * * * * * * * * * * * * * * * * * * * * * * * * * * * //

dimensions      [0 1 -1 0 0 0 0];

internalField   nonuniform List<vector> 
1166
(
(-3.140393705e-08 3.984674277e-20 -0.002071077891)
(-8.244328359e-08 4.996667798e-20 -0.002071074195)
(-1.31446211e-07 4.539923556e-20 -0.002071066387)
(-1.827437113e-07 -6.303023822e-20 -0.002071054882)
(-2.351673463e-07 -7.736635762e-20 -0.002071039839)
(-2.886037101e-07 -1.005605084e-19 -0.002071021436)
(-3.436776995e-07 -1.308196193e-19 -0.002071001187)
(-4.025710858e-07 -1.674653366e-19 -0.002070981883)
(-4.661969005e-07 -1.32748982e-19 -0.002070966474)
(-5.192828058e-07 -1.12481475e-19 -0.002070957951)
(-5.383222716e-07 -7.380090606e-20 -0.002070959353)
(-5.146926326e-07 -4.557805035e-20 -0.002070974335)
(-4.495183527e-07 6.766736462e-23 -0.002071006676)
(-3.426690742e-07 4.04482978e-20 -0.002071054431)
(-2.006328478e-07 1.01545563e-19 -0.00207111062)
(-5.529818431e-08 1.576126349e-19 -0.002071165804)
(6.845309249e-08 1.877051829e-19 -0.002071211182)
(1.712780809e-07 2.154933109e-19 -0.002071241648)
(2.559582462e-07 2.250911263e-19 -0.002071257964)
(3.240130738e-07 2.193141745e-19 -0.00207126229)
(3.767153737e-07 2.151034971e-19 -0.002071256477)
(4.155547229e-07 2.121972747e-19 -0.002071241959)
(4.423706268e-07 2.10511203e-19 -0.002071220108)
(4.600828584e-07 2.104300025e-19 -0.002071193366)
(4.712277276e-07 2.111287643e-19 -0.002071165475)
(4.763815677e-07 2.122351333e-19 -0.002071140055)
(4.769698338e-07 2.13485611e-19 -0.002071120288)
(4.755291703e-07 2.148365348e-19 -0.002071107722)
(4.732487336e-07 2.162628893e-19 -0.002071102106)
(4.704844006e-07 2.178193209e-19 -0.002071102793)
(4.671938736e-07 2.19423227e-19 -0.002071109164)
(4.62923782e-07 2.209514057e-19 -0.002071120597)
(4.56954932e-07 2.222887545e-19 -0.002071136431)
(4.486165423e-07 2.233971657e-19 -0.002071155991)
(-3.56495658e-08 4.68623566e-20 -0.002073242278)
(-9.341761784e-08 7.036961223e-20 -0.002073241908)
(-1.492990225e-07 7.682870439e-20 -0.002073241583)
(-2.100969146e-07 7.905018457e-20 -0.002073242429)
(-2.752186994e-07 7.714462507e-20 -0.00207324591)
(-3.353362357e-07 7.566081472e-20 -0.002073253846)
(-3.742149122e-07 7.47343908e-20 -0.002073268281)
(-3.83819692e-07 7.446914602e-20 -0.002073291665)
(-3.635370914e-07 7.404385859e-20 -0.002073327265)
(-3.123367818e-07 7.336971297e-20 -0.002073378562)
(-2.271484747e-07 7.098772485e-20 -0.002073444284)
(-1.064820836e-07 6.707643971e-20 -0.002073518528)
(3.052383446e-08 6.093422748e-20 -0.002073593322)
(1.566253378e-07 8.201912951e-20 -0.002073660203)
(2.63722905e-07 9.88663807e-20 -0.002073712557)
(3.538079482e-07 1.118145621e-19 -0.002073747506)
(4.283998941e-07 1.212347747e-19 -0.002073767167)
(4.883467643e-07 1.279876372e-19 -0.00207377405)
(5.345528608e-07 1.332364272e-19 -0.002073770151)
(5.681853551e-07 1.373877909e-19 -0.002073757009)
(5.906757885e-07 1.401042858e-19 -0.002073736035)
(6.043915109e-07 1.415176646e-19 -0.002073709561)
(6.118807168e-07 1.416158964e-19 -0.002073681361)
(6.137412212e-07 1.530475135e-19 -0.002073655265)
(6.108610873e-07 1.632477942e-19 -0.002073634735)
(6.056771228e-07 1.725557566e-19 -0.002073621912)
(5.996476257e-07 1.811274664e-19 -0.002073616824)
(5.932527168e-07 1.892762758e-19 -0.002073618806)
(5.865711634e-07 1.975107839e-19 -0.002073627201)
(5.792758632e-07 2.062457587e-19 -0.002073641372)
(5.707130457e-07 2.153852001e-19 -0.002073660647)
(5.601649374e-07 2.24759623e-19 -0.002073684323)
(5.471325016e-07 2.303151755e-19 -0.002073711708)
(5.314571639e-07 2.357402772e-19 -0.002073742154)
(5.132457135e-07 2.410463282e-19 -0.002073775056)
(4.926999086e-07 2.464005145e-19 -0.002073809838)
(4.700010262e-07 2.524048365e-19 -0.002073845929)
(4.452842863e-07 2.517977238e-19 -0.00207388276)
(4.186471398e-07 2.51162012e-19 -0.002073919763)
(3.901546049e-07 2.539216004e-19 -0.002073956378)
(3.598500778e-07 2.565170803e-19 -0.00207399205)
(3.277840467e-07 2.62164815e-19 -0.002074026244)
(2.940398713e-07 2.677075178e-19 -0.002074058442)
(2.587381982e-07 2.731324879e-19 -0.002074088147)
(2.220180333e-07 2.785356884e-19 -0.002074114888)
(1.84010961e-07 2.81094091e-19 -0.002074138213)
(1.4482304e-07 2.860837865e-19 -0.002074157692)
(1.045673687e-07 2.931664939e-19 -0.002074172912)
(6.355614885e-08 2.976510276e-19 -0.002074183475)
(2.245770261e-08 3.000321739e-19 -0.002074188999)
(-2.851976802e-08 7.080521217e-20 -0.002075562445)
(-7.258322696e-08 1.387865954e-19 -0.002075571566)
(-1.064595937e-07 1.967176825e-19 -0.002075590089)
(-1.297710214e-07 2.621358882e-19 -0.00207561912)
(-1.371114105e-07 2.434430413e-19 -0.002075660474)
(-1.246206498e-07 2.474001639e-19 -0.00207571624)
(-8.856714683e-08 2.655990721e-19 -0.0020757855)
(-2.428538072e-08 2.947649001e-19 -0.002075864205)
(7.117371808e-08 2.868896647e-19 -0.002075947666)
(1.843305018e-07 2.929848928e-19 -0.002076030224)
(2.924089489e-07 2.760842606e-19 -0.002076105479)
(3.870112818e-07 2.713045438e-19 -0.002076167614)
(4.697129061e-07 2.488568093e-19 -0.002076212776)
(5.412443497e-07 2.335831913e-19 -0.002076241427)
(6.013574298e-07 1.989992924e-19 -0.002076255978)
(6.499612491e-07 1.696600488e-19 -0.002076258634)
(6.873751546e-07 1.444730739e-19 -0.002076251176)
(7.142530995e-07 1.223953157e-19 -0.002076234992)
(7.314758287e-07 1.192018531e-19 -0.002076211364)
(7.408097533e-07 1.321675419e-19 -0.00207618244)
(7.445618414e-07 1.445897311e-19 -0.002076151831)
(7.432692609e-07 1.564944888e-19 -0.002076123337)
(7.373554432e-07 1.680162178e-19 -0.002076100491)
(7.289685462e-07 1.792673431e-19 -0.002076085857)
(7.197493809e-07 1.901063114e-19 -0.002076079794)
(7.103014482e-07 2.004252303e-19 -0.002076081635)
(7.008087644e-07 2.101560717e-19 -0.00207609067)
(6.910645755e-07 2.192985367e-19 -0.002076106234)
(6.80492071e-07 2.278643133e-19 -0.002076127645)
(6.683398904e-07 2.358012232e-19 -0.002076154184)
(6.539744222e-07 2.433268329e-19 -0.002076185128)
(6.370896435e-07 2.505894905e-19 -0.002076219787)
(6.177127741e-07 2.578924539e-19 -0.002076257519)
(5.960339451e-07 2.649384065e-19 -0.002076297719)
(5.722437741e-07 2.717561856e-19 -0.002076339796)
(5.46484304e-07 2.78484718e-19 -0.002076383162)
(5.188561467e-07 2.897219068e-19 -0.002076427228)
(4.894283149e-07 2.971951238e-19 -0.002076471412)
(4.582420913e-07 3.008653461e-19 -0.002076515135)
(4.253302342e-07 3.044543659e-19 -0.002076557835)
(3.907477133e-07 3.080035379e-19 -0.002076598964)
(3.54587333e-07 3.115287125e-19 -0.002076637998)
(3.169716344e-07 3.150613155e-19 -0.002076674434)
(2.780308818e-07 3.155061418e-19 -0.002076707797)
(2.37888447e-07 3.158640998e-19 -0.002076737628)
(1.966549398e-07 3.161229289e-19 -0.002076763492)
(1.544163952e-07 3.187773638e-19 -0.002076784974)
(1.11265995e-07 3.18756507e-19 -0.002076801673)
(6.749504795e-08 3.186262011e-19 -0.002076813205)
(2.37504175e-08 3.186650537e-19 -0.002076819198)
(1.323383768e-08 1.732485701e-20 -0.002078351042)
(3.653424648e-08 -1.564138736e-20 -0.002078365254)
(6.750909433e-08 -7.214238635e-20 -0.002078392335)
(1.143972103e-07 -1.887869911e-20 -0.002078430526)
(1.814136256e-07 9.657433561e-22 -0.00207847736)
(2.628121988e-07 7.891266911e-20 -0.002078529432)
(3.451596485e-07 1.359109417e-19 -0.002078582625)
(4.225003803e-07 1.833691771e-19 -0.002078632467)
(4.957387997e-07 1.359223646e-19 -0.00207867447)
(5.649780437e-07 1.358810233e-19 -0.002078704829)
(6.289177985e-07 1.692299794e-19 -0.002078722877)
(6.861165886e-07 1.951212268e-19 -0.002078730007)
(7.354117254e-07 2.145611108e-19 -0.002078727567)
(7.759383531e-07 2.021689972e-19 -0.002078716648)
(8.074824473e-07 1.884924087e-19 -0.002078698244)
(8.303227031e-07 1.744593356e-19 -0.002078673205)
(8.449319466e-07 1.596939821e-19 -0.002078642431)
(8.525279429e-07 1.436502195e-19 -0.002078607768)
(8.54978056e-07 1.43349397e-19 -0.002078572437)
(8.52719412e-07 1.554957036e-19 -0.002078539856)
(8.459078432e-07 1.789338382e-19 -0.002078513322)
(8.363916069e-07 1.998554069e-19 -0.002078495566)
(8.25852164e-07 2.185792822e-19 -0.002078487248)
(8.149722647e-07 2.35342796e-19 -0.002078487731)
(8.040571083e-07 2.50560489e-19 -0.002078496241)
(7.930551198e-07 2.645643016e-19 -0.002078512075)
(7.815193196e-07 2.776304461e-19 -0.002078534531)
(7.687455215e-07 2.896365e-19 -0.002078562875)
(7.540414917e-07 2.90410305e-19 -0.002078596355)
(7.369710323e-07 2.889589027e-19 -0.002078634244)
(7.174310531e-07 2.853369688e-19 -0.002078675864)
(6.955491087e-07 2.841041163e-19 -0.002078720585)
(6.715176046e-07 2.94572751e-19 -0.002078767798)
(6.454994968e-07 3.040452879e-19 -0.0020788169)
(6.176128133e-07 3.127683774e-19 -0.00207886729)
(5.879394193e-07 3.209192613e-19 -0.002078918365)
(5.565278092e-07 3.286065019e-19 -0.002078969531)
(5.234037276e-07 3.358887352e-19 -0.002079020202)
(4.886003676e-07 3.361618457e-19 -0.002079069806)
(4.521853897e-07 3.360226453e-19 -0.002079117793)
(4.142653146e-07 3.386695485e-19 -0.002079163635)
(3.749653825e-07 3.409628431e-19 -0.002079206828)
(3.344078213e-07 3.428363575e-19 -0.002079246894)
(2.927059532e-07 3.442104276e-19 -0.002079283374)
(2.499656808e-07 3.450685037e-19 -0.00207931583)
(2.062811205e-07 3.453749475e-19 -0.002079343844)
(1.617201524e-07 3.422528811e-19 -0.002079367019)
(1.163581429e-07 3.412294277e-19 -0.002079384967)
(7.048075447e-08 3.371998995e-19 -0.002079397315)
(2.472537911e-08 3.351172084e-19 -0.002079403702)
(5.068389275e-08 7.907693449e-20 -0.002081107476)
(1.325264291e-07 1.601806255e-19 -0.002081113201)
(2.103174143e-07 2.285285661e-19 -0.002081122841)
(2.90765797e-07 2.93738906e-19 -0.002081134562)
(3.708689112e-07 3.628078405e-19 -0.00208114568)
(4.493500022e-07 3.533362255e-19 -0.002081153146)
(5.250682501e-07 3.592208827e-19 -0.002081155424)
(5.967427017e-07 3.74870967e-19 -0.002081152429)
(6.63128359e-07 3.502623965e-19 -0.002081144111)
(7.229222853e-07 3.343352571e-19 -0.002081130422)
(7.750883946e-07 3.238398657e-19 -0.002081111436)
(8.190356542e-07 3.17562002e-19 -0.002081087402)
(8.543185324e-07 3.136964656e-19 -0.002081058559)
(8.81083541e-07 2.821651306e-19 -0.002081025211)
(9.000028873e-07 2.787049729e-19 -0.002080988006)
(9.12102604e-07 2.976650661e-19 -0.002080948629)
(9.187783583e-07 3.14417491e-19 -0.002080909897)
(9.203632493e-07 3.299417248e-19 -0.002080874706)
(9.170435228e-07 3.441496802e-19 -0.002080846002)
(9.104425138e-07 3.575043463e-19 -0.002080826473)
(9.021658193e-07 3.700629181e-19 -0.002080816969)
(8.930171209e-07 3.825894085e-19 -0.002080816926)
(8.834457604e-07 3.953073804e-19 -0.002080825545)
(8.735759302e-07 3.953630724e-19 -0.002080842113)
(8.631389566e-07 3.953302652e-19 -0.002080865929)
(8.515533638e-07 3.951484e-19 -0.002080896264)
(8.381408836e-07 4.063167845e-19 -0.00208093236)
(8.223837853e-07 4.076507921e-19 -0.002080973466)
(8.040744843e-07 4.096742687e-19 -0.002081018881)
(7.832875251e-07 4.115215749e-19 -0.002081067952)
(7.602238175e-07 4.081531658e-19 -0.002081120063)
(7.35074935e-07 4.037034017e-19 -0.002081174607)
(7.079842154e-07 4.020531397e-19 -0.00208123098)
(6.7905374e-07 3.993355713e-19 -0.002081288578)
(6.483520182e-07 3.995849586e-19 -0.002081346799)
(6.1591685e-07 3.988547884e-19 -0.002081405047)
(5.817745524e-07 4.009013908e-19 -0.002081462737)
(5.459722291e-07 3.984978945e-19 -0.0020815193)
(5.085954123e-07 3.992776377e-19 -0.002081574192)
(4.69760904e-07 3.99236464e-19 -0.002081626889)
(4.2959356e-07 4.012374346e-19 -0.002081676894)
(3.882099907e-07 4.024152998e-19 -0.002081723733)
(3.45718031e-07 4.058587249e-19 -0.00208176695)
(3.022162123e-07 4.086238257e-19 -0.002081806115)
(2.577928383e-07 4.107905673e-19 -0.002081840814)
(2.125227302e-07 4.124220623e-19 -0.002081870653)
(1.664589963e-07 4.13551411e-19 -0.002081895253)
(1.196673397e-07 4.142317133e-19 -0.002081914245)
(7.242533713e-08 4.148739071e-19 -0.00208192727)
(2.535726904e-08 4.151836652e-19 -0.002081933976)
(6.181627611e-08 9.989753867e-20 -0.002083454611)
(1.612583682e-07 2.211169025e-19 -0.002083452782)
(2.539562458e-07 3.357518006e-19 -0.002083448049)
(3.470606206e-07 3.49373917e-19 -0.002083440414)
(4.363073356e-07 3.891691259e-19 -0.002083429635)
(5.199512377e-07 3.767833884e-19 -0.002083415452)
(5.969599942e-07 3.81372118e-19 -0.002083397609)
(6.665000578e-07 3.930195395e-19 -0.002083375963)
(7.279570867e-07 4.382255586e-19 -0.002083350516)
(7.809489474e-07 4.476840352e-19 -0.002083321291)
(8.255141301e-07 4.327848046e-19 -0.002083288423)
(8.616635823e-07 4.291197979e-19 -0.002083252137)
(8.896497943e-07 4.342315968e-19 -0.002083213204)
(9.106664976e-07 4.473041256e-19 -0.002083173505)
(9.25803254e-07 4.65749004e-19 -0.00208313556)
(9.351176843e-07 4.885816668e-19 -0.002083101792)
(9.389069392e-07 5.166932008e-19 -0.002083074848)
(9.386745908e-07 5.509255278e-19 -0.002083057223)
(9.358949325e-07 5.69640249e-19 -0.00208304977)
(9.314387908e-07 5.738867108e-19 -0.002083051992)
(9.259084901e-07 5.6418051e-19 -0.002083063126)
(9.196193715e-07 5.584308993e-19 -0.002083082482)
(9.125002494e-07 5.560763118e-19 -0.002083109391)
(9.041187606e-07 5.573809477e-19 -0.002083143159)
(8.938585281e-07 5.613444022e-19 -0.002083183052)
(8.811751712e-07 5.553990605e-19 -0.002083228333)
(8.657867005e-07 5.502940087e-19 -0.002083278297)
(8.477136947e-07 5.459830738e-19 -0.002083332293)
(8.271560858e-07 5.545227982e-19 -0.002083389712)
(8.043367822e-07 5.588916493e-19 -0.002083449965)
(7.794351211e-07 5.648182992e-19 -0.002083512466)
(7.525840291e-07 5.670909931e-19 -0.002083576623)
(7.238793469e-07 5.605695771e-19 -0.002083641846)
(6.933801484e-07 5.513084898e-19 -0.002083707547)
(6.6111838e-07 5.433164607e-19 -0.002083773143)
(6.271292242e-07 5.365200424e-19 -0.002083838064)
(5.91479659e-07 5.304701483e-19 -0.002083901757)
(5.54274971e-07 5.256399199e-19 -0.002083963693)
(5.156399219e-07 5.292805154e-19 -0.002084023365)
(4.756963948e-07 5.33830165e-19 -0.002084080288)
(4.345554766e-07 5.351311568e-19 -0.002084134001)
(3.923192985e-07 5.336492023e-19 -0.002084184062)
(3.490818567e-07 5.332787196e-19 -0.00208423005)
(3.049278548e-07 5.285775582e-19 -0.002084271561)
(2.599342373e-07 5.250538153e-19 -0.00208430821)
(2.141693394e-07 5.223864136e-19 -0.002084339626)
(1.676774835e-07 5.203946548e-19 -0.002084365452)
(1.205054087e-07 5.162958745e-19 -0.002084385337)
(7.29107447e-08 5.154405247e-19 -0.002084398934)
(2.550351227e-08 5.150275675e-19 -0.002084405901)
(6.302613163e-08 1.143846784e-20 -0.00208552234)
(1.641540508e-07 -3.086256406e-20 -0.002085518369)
(2.573874349e-07 -9.600675906e-20 -0.002085509742)
(3.496897736e-07 -4.130057591e-20 -0.002085496825)
(4.368360458e-07 -2.502356199e-20 -0.002085479776)
(5.17250892e-07 3.634987871e-20 -0.002085458765)
(5.9002281e-07 7.13996756e-20 -0.002085433987)
(6.549438005e-07 8.840635301e-20 -0.002085405598)
(7.117073901e-07 1.382145246e-19 -0.002085373881)
(7.602377209e-07 1.722079869e-19 -0.002085339417)
(8.008425416e-07 2.334543205e-19 -0.002085303492)
(8.340651786e-07 2.839138832e-19 -0.002085268052)
(8.606002327e-07 3.271849938e-19 -0.002085235281)
(8.80578949e-07 3.944500545e-19 -0.002085207278)
(8.944089009e-07 4.309412887e-19 -0.002085186448)
(9.034233416e-07 4.385583336e-19 -0.002085174904)
(9.089421844e-07 4.439020734e-19 -0.002085173274)
(9.118826917e-07 4.659600522e-19 -0.002085181088)
(9.129752232e-07 4.853670537e-19 -0.002085197651)
(9.127000746e-07 5.029067509e-19 -0.002085222328)
(9.111499349e-07 5.206309911e-19 -0.002085254512)
(9.080475648e-07 5.113602288e-19 -0.002085293561)
(9.029046202e-07 5.031477048e-19 -0.002085338793)
(8.95227508e-07 5.114248005e-19 -0.002085389504)
(8.847037791e-07 5.196039146e-19 -0.002085445014)
(8.712871586e-07 5.279260945e-19 -0.002085504693)
(8.551447923e-07 5.215681937e-19 -0.00208556796)
(8.365211733e-07 5.270590539e-19 -0.002085634261)
(8.156357064e-07 5.318893141e-19 -0.002085703047)
(7.926572741e-07 5.314755713e-19 -0.002085773763)
(7.67711363e-07 5.315916713e-19 -0.00208584585)
(7.408858963e-07 5.365170015e-19 -0.002085918745)
(7.122325835e-07 5.363181467e-19 -0.002085991889)
(6.817849926e-07 5.408795687e-19 -0.002086064726)
(6.495921428e-07 5.410608786e-19 -0.002086136715)
(6.157394755e-07 5.416757518e-19 -0.002086207333)
(5.803444344e-07 5.423836546e-19 -0.002086276078)
(5.43531202e-07 5.478512682e-19 -0.00208634247)
(5.054127829e-07 5.499281617e-19 -0.002086406051)
(4.660932201e-07 5.52717881e-19 -0.00208646638)
(4.256686987e-07 5.525298437e-19 -0.002086523038)
(3.842258286e-07 5.501126261e-19 -0.002086575622)
(3.418399591e-07 5.480443944e-19 -0.00208662375)
(2.985807941e-07 5.433109568e-19 -0.002086667051)
(2.545175564e-07 5.389396073e-19 -0.00208670517)
(2.097078065e-07 5.349561396e-19 -0.002086737763)
(1.641834584e-07 5.312791385e-19 -0.002086764491)
(1.179915056e-07 5.282511696e-19 -0.002086785021)
(7.138920707e-08 5.254257086e-19 -0.002086799021)
(2.49736228e-08 5.227421054e-19 -0.00208680616)
(5.88259692e-08 6.596552361e-20 -0.002087404826)
(1.531982307e-07 1.241000167e-19 -0.002087400158)
(2.40073098e-07 1.699619678e-19 -0.00208739042)
(3.257637206e-07 2.136010825e-19 -0.0020873761)
(4.061927234e-07 2.592760166e-19 -0.002087357564)
(4.801656492e-07 2.137116406e-19 -0.002087335249)
(5.469457102e-07 1.821523235e-19 -0.00208730991)
(6.062228865e-07 1.595661838e-19 -0.002087282728)
(6.580491532e-07 1.88649069e-19 -0.002087255247)
(7.025576277e-07 2.146082875e-19 -0.002087229264)
(7.397459314e-07 2.351111179e-19 -0.002087206525)
(7.698573475e-07 2.832275424e-19 -0.00208718904)
(7.936689644e-07 3.271288954e-19 -0.002087178984)
(8.121540382e-07 3.684013848e-19 -0.002087177824)
(8.264167169e-07 4.072415669e-19 -0.002087185807)
(8.374463517e-07 4.44453429e-19 -0.002087202488)
(8.460286735e-07 4.599178901e-19 -0.002087227294)
(8.527239555e-07 4.75368147e-19 -0.002087259693)
(8.577397684e-07 4.92017978e-19 -0.002087299167)
(8.609499277e-07 4.926543679e-19 -0.002087345163)
(8.620110053e-07 4.780700039e-19 -0.002087397074)
(8.60497996e-07 4.652543977e-19 -0.002087454259)
(8.560747351e-07 4.530577513e-19 -0.002087516092)
(8.486273968e-07 4.411490281e-19 -0.002087581988)
(8.382811124e-07 4.28989723e-19 -0.002087651411)
(8.252836482e-07 4.313381215e-19 -0.002087723859)
(8.098812739e-07 4.334922552e-19 -0.00208779884)
(7.922711495e-07 4.359242431e-19 -0.002087875854)
(7.725997991e-07 4.385073201e-19 -0.002087954394)
(7.509757544e-07 4.473171618e-19 -0.002088033942)
(7.274684312e-07 4.565700536e-19 -0.002088113981)
(7.021158702e-07 4.606853621e-19 -0.002088193989)
(6.749536587e-07 4.646704683e-19 -0.002088273452)
(6.460444655e-07 4.685831321e-19 -0.002088351867)
(6.154876003e-07 4.724015306e-19 -0.002088428752)
(5.834033235e-07 4.762690798e-19 -0.002088503643)
(5.499102852e-07 4.799593087e-19 -0.002088576096)
(5.151152877e-07 4.801616142e-19 -0.002088645684)
(4.791156845e-07 4.736169368e-19 -0.002088711997)
(4.420002277e-07 4.672470724e-19 -0.002088774646)
(4.038472088e-07 4.606077775e-19 -0.002088833257)
(3.647211928e-07 4.614526388e-19 -0.002088887469)
(3.246778718e-07 4.61040526e-19 -0.00208893694)
(2.837712438e-07 4.660731901e-19 -0.002088981335)
(2.420499249e-07 4.702381722e-19 -0.002089020329)
(1.995528537e-07 4.738543577e-19 -0.002089053603)
(1.563078133e-07 4.741468984e-19 -0.00208908084)
(1.123728082e-07 4.772015993e-19 -0.002089101725)
(6.801402614e-08 4.773343076e-19 -0.002089115937)
(2.382020296e-08 4.80076555e-19 -0.002089123156)
(5.198796617e-08 8.826040832e-20 -0.002089159776)
(1.353545325e-07 1.880456156e-19 -0.002089155544)
(2.119920349e-07 2.794492083e-19 -0.002089147277)
(2.875136029e-07 2.517804305e-19 -0.002089135816)
(3.581543809e-07 2.505275435e-19 -0.00208912219)
(4.227221847e-07 2.645118352e-19 -0.002089107636)
(4.80740732e-07 2.865022318e-19 -0.002089093503)
(5.318238829e-07 3.139033637e-19 -0.002089081331)
(5.759559171e-07 3.454985923e-19 -0.002089072839)
(6.134291239e-07 3.808745698e-19 -0.002089069886)
(6.448657451e-07 3.751669011e-19 -0.00208907402)
(6.711097169e-07 3.743655177e-19 -0.002089085983)
(6.930113889e-07 3.781822309e-19 -0.002089105737)
(7.114823352e-07 3.862285773e-19 -0.002089132951)
(7.272858005e-07 3.986895812e-19 -0.002089167262)
(7.409666153e-07 4.152008842e-19 -0.0020892083)
(7.527759286e-07 4.144647124e-19 -0.002089255681)
(7.626801499e-07 3.919555371e-19 -0.002089308969)
(7.704481588e-07 3.711426311e-19 -0.002089367659)
(7.757143502e-07 3.509271562e-19 -0.002089431207)
(7.781188004e-07 3.288197094e-19 -0.002089499065)
(7.774976532e-07 3.388087743e-19 -0.002089570709)
(7.739378757e-07 3.457862028e-19 -0.002089645665)
(7.676626236e-07 3.517516993e-19 -0.002089723494)
(7.589128924e-07 3.577923336e-19 -0.002089803774)
(7.478927721e-07 3.508784898e-19 -0.002089886073)
(7.347612976e-07 3.436643064e-19 -0.002089969943)
(7.196385088e-07 3.471709733e-19 -0.00209005493)
(7.026087061e-07 3.500692935e-19 -0.002090140564)
(6.837185613e-07 3.532267027e-19 -0.002090226374)
(6.629909665e-07 3.618815034e-19 -0.002090311885)
(6.404562299e-07 3.644451726e-19 -0.002090396628)
(6.161806282e-07 3.754751546e-19 -0.00209048015)
(5.902688161e-07 3.810313172e-19 -0.002090562014)
(5.628372859e-07 3.862973838e-19 -0.0020906418)
(5.339931298e-07 3.914473707e-19 -0.002090719104)
(5.038314199e-07 3.9195229e-19 -0.002090793538)
(4.724401219e-07 3.927726564e-19 -0.002090864728)
(4.399001538e-07 3.935706366e-19 -0.002090932317)
(4.062793863e-07 3.941009715e-19 -0.002090995962)
(3.716352747e-07 3.943199278e-19 -0.002091055332)
(3.360220866e-07 3.939697565e-19 -0.002091110109)
(2.994888148e-07 3.89765556e-19 -0.002091159985)
(2.620710999e-07 3.931808202e-19 -0.002091204657)
(2.237984909e-07 3.965015267e-19 -0.00209124383)
(1.847061801e-07 3.995370078e-19 -0.002091277209)
(1.448262349e-07 4.027361119e-19 -0.0020913045)
(1.04214926e-07 4.057430106e-19 -0.002091325402)
(6.313174901e-08 4.088850345e-19 -0.002091339609)
(2.216126964e-08 4.115080498e-19 -0.002091346807)
(4.233840036e-08 -9.128883303e-20 -0.00209086014)
(1.102278532e-07 -7.541093892e-20 -0.002090858973)
(1.724074147e-07 -9.577715958e-20 -0.002090857744)
(2.33429282e-07 -2.481488473e-20 -0.002090857018)
(2.90267534e-07 1.161525814e-20 -0.002090857757)
(3.418679599e-07 1.333828529e-19 -0.002090861239)
(3.880015054e-07 2.346295132e-19 -0.002090868791)
(4.288462894e-07 3.24183465e-19 -0.002090881529)
(4.647031242e-07 3.616511128e-19 -0.002090900167)
(4.961289535e-07 3.58270024e-19 -0.002090924967)
(5.238091004e-07 3.567924489e-19 -0.002090955956)
(5.48416543e-07 3.137705877e-19 -0.002090993027)
(5.705590526e-07 2.722334608e-19 -0.002091036045)
(5.906600361e-07 2.295888475e-19 -0.002091084825)
(6.089257157e-07 2.102757758e-19 -0.002091139126)
(6.253407307e-07 1.857950639e-19 -0.002091198636)
(6.397397688e-07 1.83916944e-19 -0.002091262959)
(6.517914429e-07 1.755796713e-19 -0.002091331653)
(6.611500118e-07 1.610565232e-19 -0.002091404252)
(6.676406671e-07 1.629359991e-19 -0.002091480303)
(6.712817029e-07 1.803616588e-19 -0.002091559392)
(6.722336981e-07 1.934489926e-19 -0.002091641147)
(6.707121165e-07 2.023742827e-19 -0.002091725215)
(6.669048087e-07 2.071018535e-19 -0.002091811233)
(6.60960233e-07 2.07536964e-19 -0.002091898822)
(6.530089588e-07 2.181871769e-19 -0.002091987585)
(6.431482903e-07 2.251354535e-19 -0.002092077113)
(6.3142906e-07 2.283276403e-19 -0.002092166983)
(6.178702161e-07 2.347157958e-19 -0.002092256767)
(6.02486572e-07 2.38947343e-19 -0.002092346034)
(5.85317184e-07 2.40690083e-19 -0.002092434363)
(5.66437874e-07 2.453378451e-19 -0.002092521347)
(5.45949568e-07 2.563524893e-19 -0.002092606594)
(5.239562216e-07 2.642539698e-19 -0.002092689731)
(5.005505786e-07 2.698825082e-19 -0.002092770396)
(4.758120309e-07 2.736627602e-19 -0.002092848239)
(4.498110915e-07 2.75605854e-19 -0.002092922925)
(4.226127429e-07 2.844333913e-19 -0.002092994135)
(3.942724967e-07 2.996928822e-19 -0.002093061558)
(3.648383219e-07 3.098053838e-19 -0.002093124895)
(3.343545311e-07 3.234045268e-19 -0.002093183857)
(3.028621232e-07 3.258497782e-19 -0.002093238163)
(2.703981747e-07 3.283850971e-19 -0.002093287536)
(2.369984218e-07 3.270067404e-19 -0.002093331703)
(2.027003243e-07 3.255087319e-19 -0.002093370393)
(1.675397629e-07 3.237981469e-19 -0.002093403333)
(1.315492939e-07 3.251352762e-19 -0.002093430248)
(9.478882582e-08 3.231193947e-19 -0.002093450853)
(5.750446016e-08 3.267885781e-19 -0.002093464853)
(2.025669824e-08 3.270874523e-19 -0.002093471938)
(3.085287678e-08 6.255160451e-20 -0.002092609996)
(8.038901351e-08 1.079628835e-19 -0.002092613042)
(1.25881413e-07 1.365212137e-19 -0.002092620827)
(1.706738343e-07 1.591384542e-19 -0.002092633103)
(2.12720218e-07 1.807939987e-19 -0.002092650012)
(2.515795357e-07 2.014222835e-19 -0.002092671832)
(2.873079638e-07 2.21137387e-19 -0.002092698805)
(3.200915958e-07 2.39450201e-19 -0.002092731061)
(3.502908433e-07 2.579801512e-19 -0.002092768646)
(3.782966172e-07 2.782338511e-19 -0.002092811571)
(4.044179214e-07 2.598636619e-19 -0.002092859766)
(4.289016204e-07 2.430974013e-19 -0.00209291312)
(4.5185863e-07 2.268491187e-19 -0.002092971445)
(4.732416047e-07 2.105748472e-19 -0.002093034484)
(4.928894715e-07 1.923541328e-19 -0.002093101906)
(5.104986655e-07 1.729876568e-19 -0.00209317333)
(5.257396596e-07 1.809153276e-19 -0.002093248351)
(5.384260746e-07 1.875543624e-19 -0.002093326565)
(5.485066267e-07 1.936535266e-19 -0.002093407609)
(5.560448327e-07 1.999086382e-19 -0.002093491162)
(5.612089828e-07 2.066456642e-19 -0.00209357692)
(5.641956528e-07 2.136693217e-19 -0.002093664578)
(5.651490918e-07 2.209008156e-19 -0.002093753811)
(5.641742698e-07 2.11993685e-19 -0.002093844275)
(5.613505866e-07 2.020111418e-19 -0.002093935613)
(5.567281745e-07 2.208609894e-19 -0.002094027455)
(5.503173979e-07 2.391120354e-19 -0.002094119417)
(5.421044741e-07 2.440048182e-19 -0.00209421111)
(5.320917433e-07 2.486787971e-19 -0.002094302148)
(5.203195616e-07 2.538147721e-19 -0.002094392154)
(5.068669325e-07 2.592345074e-19 -0.002094480766)
(4.9183254e-07 2.656349217e-19 -0.002094567637)
(4.753090043e-07 2.62026675e-19 -0.002094652432)
(4.573736397e-07 2.598054594e-19 -0.002094734826)
(4.380961389e-07 2.579015913e-19 -0.002094814508)
(4.17540795e-07 2.559839981e-19 -0.00209489118)
(3.957623889e-07 2.540437518e-19 -0.002094964554)
(3.728021474e-07 2.566190927e-19 -0.002095034354)
(3.486933745e-07 2.591253839e-19 -0.002095100315)
(3.234687843e-07 2.614089852e-19 -0.002095162178)
(2.971563056e-07 2.628859621e-19 -0.00209521969)
(2.697786918e-07 2.685313493e-19 -0.002095272602)
(2.413632501e-07 2.738035601e-19 -0.002095320666)
(2.119531681e-07 2.745832678e-19 -0.002095363635)
(1.816033558e-07 2.750459468e-19 -0.002095401259)
(1.503596527e-07 2.753530291e-19 -0.002095433284)
(1.182545938e-07 2.755322907e-19 -0.00209545945)
(8.534699703e-08 2.760615651e-19 -0.002095479485)
(5.186981116e-08 2.759505437e-19 -0.002095493102)
(1.835325687e-08 2.756528232e-19 -0.002095499999)
(2.133907418e-08 2.670075023e-19 -0.002094449608)
(5.569963002e-08 3.451879653e-19 -0.002094455133)
(8.764814523e-08 4.357512367e-19 -0.002094467787)
(1.197438433e-07 3.897544587e-19 -0.002094486789)
(1.507914681e-07 4.012491525e-19 -0.002094511827)
(1.805504033e-07 2.949843693e-19 -0.002094542732)
(2.090430812e-07 2.240067369e-19 -0.002094579339)
(2.36385667e-07 1.666929044e-19 -0.002094621486)
(2.6271282e-07 1.241048257e-19 -0.002094669008)
(2.880760836e-07 1.331336859e-19 -0.002094721698)
(3.124807825e-07 1.356978046e-19 -0.002094779313)
(3.358310085e-07 1.695722754e-19 -0.002094841564)
(3.57930728e-07 1.99242993e-19 -0.002094908108)
(3.785041099e-07 2.278486534e-19 -0.002094978572)
(3.972386971e-07 2.234619806e-19 -0.002095052568)
(4.139254273e-07 2.21938834e-19 -0.002095129708)
(4.284318982e-07 2.224988955e-19 -0.002095209655)
(4.407581994e-07 2.2381199e-19 -0.002095292106)
(4.510339587e-07 2.255515439e-19 -0.002095376782)
(4.593957338e-07 2.28038472e-19 -0.002095463407)
(4.659429973e-07 2.315454181e-19 -0.002095551699)
(4.707311438e-07 2.363545903e-19 -0.002095641356)
(4.737984994e-07 2.428471688e-19 -0.002095732058)
(4.751924826e-07 2.523174028e-19 -0.00209582347)
(4.749342566e-07 2.648181984e-19 -0.002095915245)
(4.730041019e-07 2.638008126e-19 -0.002096007026)
(4.693760637e-07 2.657574027e-19 -0.002096098452)
(4.640485914e-07 2.70120363e-19 -0.002096189173)
(4.570569485e-07 2.695813676e-19 -0.002096278854)
(4.48460965e-07 2.652077732e-19 -0.002096367171)
(4.383293646e-07 2.625647734e-19 -0.002096453819)
(4.26730504e-07 2.617056299e-19 -0.002096538498)
(4.137268672e-07 2.515584968e-19 -0.002096620921)
(3.993747736e-07 2.489676017e-19 -0.002096700809)
(3.837243846e-07 2.468754649e-19 -0.002096777897)
(3.668208439e-07 2.446318562e-19 -0.002096851929)
(3.487033559e-07 2.418948363e-19 -0.002096922658)
(3.294057989e-07 2.381353606e-19 -0.002096989845)
(3.089552915e-07 2.335440438e-19 -0.002097053261)
(2.873627077e-07 2.32475659e-19 -0.002097112678)
(2.646368003e-07 2.25988375e-19 -0.002097167876)
(2.408018278e-07 2.264472663e-19 -0.00209721863)
(2.15893281e-07 2.256548357e-19 -0.002097264719)
(1.899557926e-07 2.27628835e-19 -0.002097305917)
(1.63045987e-07 2.286951624e-19 -0.002097341994)
(1.352225964e-07 2.289600401e-19 -0.002097372711)
(1.065237702e-07 2.284886338e-19 -0.002097397819)
(7.700179543e-08 2.30755775e-19 -0.002097417058)
(4.687718924e-08 2.291076835e-19 -0.002097430146)
(1.666362853e-08 2.267835974e-19 -0.002097436786)
(1.565158481e-08 1.283450561e-19 -0.002096342072)
(4.094462701e-08 1.635106706e-20 -0.002096348649)
(6.481763839e-08 9.125295812e-20 -0.00209636321)
(8.930285198e-08 1.376010607e-19 -0.002096384865)
(1.136193991e-07 1.764727459e-19 -0.002096413162)