/*--------------------------------*- C++ -*----------------------------------*\
  =========                 |
  \\      /  F ield         | OpenFOAM: The Open Source CFD Toolbox
   \\    /   O peration     | Website:  https://openfoam.org
    \\  /    A nd           | Version:  7
     \\/     M anipulation  |
\*---------------------------------------------------------------------------*/
FoamFile
{
    version     2.0;
    format      ascii;
    class       volTensorField;
    location    "0.0009";
    object      grad(U);
}
// * * * * * * * * * * * * * * * * * * * * * * * * * * * * * * * * * * * * * //

dimensions      [0 0 -1 0 0 0 0];

internalField   nonuniform List<tensor> 
1166
(
(0.0009414081451 2.271172563e-15 -0.0001051688077 -5.960633095e-15 0.001535672116 0 -8.614315269e-06 -8.936018744e-16 0.01602047216)
(0.001249777886 3.287367048e-15 -0.0002432691375 -4.006022209e-15 0.001345354096 0 -2.243185731e-05 -2.831399212e-15 0.01601780239)
(0.001223864622 -1.243781162e-15 -0.0003924737973 -3.736855728e-15 0.001285789993 0 -3.519190031e-05 -2.03562425e-15 0.01601220661)
(0.001238515092 -3.966010631e-15 -0.0005399473697 -1.356696119e-15 0.001272265302 0 -4.774712553e-05 -2.108690468e-15 0.01600392449)
(0.001226719762 1.461192861e-16 -0.0006836504412 -3.657439297e-16 0.001263975113 5.035587012e-14 -5.935426668e-05 -2.483307813e-15 0.01599311166)
(0.001205232453 2.959824652e-15 -0.0008230982999 -8.403126757e-16 0.001255597478 0 -6.978686066e-05 -1.383867298e-15 0.01597995965)
(0.001178258199 2.780956303e-15 -0.0009581128212 -1.131494415e-15 0.001246229932 0 -7.909106088e-05 -5.374410861e-16 0.01596467278)
(0.001146418939 8.384073705e-16 -0.001088527689 -1.330997002e-15 0.001235708378 0 -8.72645248e-05 1.894205944e-16 0.01594748037)
(0.001109549726 -7.423540655e-16 -0.001214204816 -1.083832887e-15 0.001223912566 0 -9.430652174e-05 4.31875069e-16 0.01592861456)
(0.00106782351 -4.847617379e-16 -0.001335184253 -9.267798836e-16 0.001210791708 0 -0.0001003513074 6.795063037e-16 0.01590833757)
(0.001021499954 -3.062114611e-16 -0.001451473313 -8.060762169e-16 0.0011963467 0 -0.00010548387 9.563377642e-16 0.01588684645)
(0.0009707930357 -8.903080384e-17 -0.001563088823 -7.274472294e-16 0.001180606206 0 -0.0001097936098 9.590133441e-16 0.01586435858)
(0.0009157730934 1.974072208e-16 -0.001670040982 -6.79748326e-16 0.001163608796 0 -0.0001133548706 1.057895124e-15 0.01584101665)
(0.0008564640178 4.519471185e-16 -0.001772198003 -6.549378996e-16 0.001145385586 0 -0.000116114763 7.285249366e-16 0.01581697657)
(0.0007927506148 5.66939731e-16 -0.001869518963 -6.495101663e-16 0.001125968871 0 -0.0001180883868 4.878670475e-16 0.01579237988)
(0.0007249648558 6.183652663e-16 -0.001962043732 -6.48821322e-16 0.001105370907 0 -0.0001193549873 2.918583891e-16 0.0157673843)
(0.0006535296895 6.865539884e-16 -0.002049759461 -6.475801852e-16 0.001083654653 0 -0.000119917139 3.255271693e-16 0.01574215952)
(0.0005782255232 7.649871747e-16 -0.002132708433 -6.525529189e-16 0.001060868945 0 -0.0001198093628 3.64538775e-16 0.0157168351)
(0.0009761687865 2.20701589e-15 -9.822575982e-05 -5.952570709e-15 0.001592651357 0 -7.390873629e-06 1.977119039e-16 0.01578966281)
(0.001295305329 2.700092138e-15 -0.0002274337825 -3.947737289e-15 0.001395122478 0 -1.922487497e-05 5.783733817e-16 0.01578720679)
(0.001266997518 2.634945034e-15 -0.000367002123 -3.343260187e-15 0.001332919034 -8.708422084e-14 -3.005152695e-05 1.145292754e-15 0.01578205829)
(0.00128003627 2.90825502e-15 -0.0005048660432 -3.188903268e-15 0.00131819679 0 -4.063546907e-05 -6.159868685e-16 0.01577447645)
(0.001265164133 -6.151150121e-16 -0.0006393032658 -3.152557026e-15 0.001308678886 5.114009338e-14 -5.041386823e-05 -1.880281593e-15 0.01576467066)
(0.001240329143 -3.3970655e-15 -0.0007699650775 -1.943124758e-15 0.00129891373 0 -5.923399222e-05 -1.276060019e-15 0.01575286013)
(0.001210117199 -3.114123847e-15 -0.0008967738922 -1.210798045e-15 0.001288111461 0 -6.718725533e-05 -7.71300625e-16 0.01573927419)
(0.001175035706 -1.466346648e-15 -0.001019625374 -6.677197982e-16 0.001276131973 0 -7.42913255e-05 -3.508535285e-16 0.01572411662)
(0.001135023799 -3.227772409e-16 -0.001138418649 -5.983736863e-16 0.00126286538 0 -8.055199638e-05 -4.41209447e-16 0.01570759288)
(0.001090290835 -1.041649804e-15 -0.001253111527 -4.723055421e-16 0.001248288193 0 -8.600783118e-05 -1.968620608e-16 0.01568989783)
(0.001040963517 -2.33940512e-16 -0.001363654203 -3.129125271e-16 0.001232406257 0 -9.068179259e-05 1.515226493e-17 0.01567118562)
(0.0009871599006 4.27701872e-16 -0.001469965902 -3.590037039e-16 0.001215240736 0 -9.456257596e-05 -7.304827818e-17 0.01565161761)
(0.0009288595901 9.748716231e-16 -0.001572003107 -3.311360461e-16 0.001196820861 0 -9.766015455e-05 -1.029246218e-16 0.01563132424)
(0.0008662256356 1.5460741e-15 -0.001669751824 -4.354113963e-16 0.001177163433 0 -0.000100005075 -7.682988002e-17 0.01561045138)
(0.0007995267367 1.034377364e-15 -0.001763251495 -4.832139497e-16 0.001156314107 0 -0.0001016483725 -1.690691899e-17 0.01558915096)
(0.0007288163494 6.851765337e-16 -0.00185259043 -5.015704e-16 0.001134316373 0 -0.000102674755 5.424371194e-17 0.01556756529)
(0.0006541369687 4.311222132e-16 -0.001937685646 -5.057137919e-16 0.001111208547 0 -0.0001030099862 1.386337697e-16 0.01554582351)
(0.0005754798552 2.23033241e-16 -0.002018521065 -4.970366482e-16 0.001087027264 0 -0.0001026317109 2.343722898e-16 0.01552404702)
(0.0004925921486 3.334754238e-17 -0.002095153268 -4.765757544e-16 0.001061801341 -9.164574131e-15 -0.0001015867324 3.440756963e-16 0.01550235357)
(0.0004055000826 -1.261264851e-16 -0.002167528963 -4.56010505e-16 0.001035539114 0 -9.983692851e-05 2.8910474e-16 0.01548085491)
(0.0003147461043 -2.453559822e-16 -0.002235686201 -4.266444649e-16 0.001008269614 0 -9.742768229e-05 2.502369813e-16 0.01545967685)
(0.0002203430752 -3.34322739e-16 -0.002299678598 -4.013906279e-16 0.0009800433446 0 -9.442319088e-05 2.22375982e-16 0.01543892438)
(0.0001214040807 -4.099835732e-16 -0.002359322999 -3.736762191e-16 0.0009508833844 0 -9.071117786e-05 2.781954992e-16 0.01541867253)
(1.77814611e-05 -5.005557151e-16 -0.002414455483 -3.45481344e-16 0.0009207710873 0 -8.627384652e-05 2.669133814e-16 0.0153989727)
(-8.925028381e-05 1.320404857e-16 -0.0024651023 -3.166684399e-16 0.000889722471 0 -8.129454398e-05 2.689974733e-16 0.0153799356)
(-0.0001989094324 7.545774918e-16 -0.002511268464 -3.323420291e-16 0.0008578055134 0 -7.59500217e-05 2.60815685e-16 0.01536166379)
(-0.0003115909267 1.032311092e-15 -0.002552775007 -3.442062481e-16 0.0008250767973 0 -7.031863927e-05 2.498493039e-16 0.01534423464)
(-0.0004265232147 1.335756473e-15 -0.002589368265 -3.697431269e-16 0.0007915667636 0 -6.451784441e-05 1.908122682e-16 0.01532769349)
(-0.000541440887 9.970773044e-16 -0.002620886871 -3.971713173e-16 0.0007573626347 0 -5.880690775e-05 1.139245702e-16 0.01531212851)
(-0.0006555022557 6.723551078e-16 -0.002647023222 -4.037684947e-16 0.0007225999148 0 -5.335150292e-05 1.869672097e-17 0.01529758099)
(-0.0007693214981 6.604866997e-16 -0.002667173856 -4.10709309e-16 0.0006873805352 0 -4.814779941e-05 -8.993970267e-17 0.01528406714)
(-0.0008831289253 6.486348732e-16 -0.002680527017 -4.161127122e-16 0.000651778601 0 -4.312105975e-05 -1.130097716e-16 0.01527157315)
(-0.0009956021037 6.4408082e-16 -0.002686370142 -4.218634853e-16 0.0006158623655 0 -3.84296631e-05 -1.002005943e-16 0.01526010046)
(-0.001104959088 6.483669476e-16 -0.00268399503 -4.251617521e-16 0.0005797454769 0 -3.430461992e-05 -4.967109425e-17 0.015249668)
(-0.001211657103 6.620106871e-16 -0.002672285042 -4.297325644e-16 0.0005435499151 0 -3.065778972e-05 -4.409041043e-17 0.01524024066)
(-0.001317846603 7.01283835e-16 -0.002649744501 -4.355591112e-16 0.0005073423091 0 -2.719397857e-05 -1.143945603e-16 0.01523174735)
(-0.001424004732 4.817092092e-16 -0.002614859426 -4.398526699e-16 0.0004711366025 0 -2.381087953e-05 -1.412246174e-16 0.01522411867)
(-0.001528315368 2.702145686e-16 -0.002566335139 -4.361267206e-16 0.000434970148 0 -2.074380411e-05 -1.721368324e-16 0.0152173368)
(-0.001630408238 3.341027668e-16 -0.002502605492 -4.354762151e-16 0.0003989170983 0 -1.801605639e-05 -1.687428525e-16 0.01521135941)
(-0.001732107359 3.935682286e-16 -0.002421674321 -4.341782134e-16 0.0003630163794 0 -1.537541727e-05 -1.697051184e-16 0.01520610707)
(-0.001833787262 4.508508312e-16 -0.002321568074 -4.331415379e-16 0.0003272671778 0 -1.278931215e-05 -1.760863405e-16 0.01520151297)
(-0.001933664584 5.085919604e-16 -0.002200475259 -4.342143376e-16 0.0002916905553 0 -1.04920677e-05 -1.898467037e-16 0.01519755181)
(-0.002031319069 5.673758667e-16 -0.0020563409 -4.359977125e-16 0.0002563397002 0 -8.51886055e-06 -2.137623129e-16 0.01519418168)
(-0.002128308986 6.344757712e-16 -0.00188673466 -4.384870338e-16 0.0002212413892 0 -6.658383865e-06 -1.882784126e-16 0.01519132954)
(-0.002224770541 4.633854736e-16 -0.001689287991 -4.41680187e-16 0.0001863938156 0 -4.926672548e-06 -1.646705103e-16 0.01518894959)
(-0.002319686586 2.916160616e-16 -0.001461772336 -4.384821334e-16 0.0001518159727 0 -3.540277453e-06 -1.306472879e-16 0.01518702929)
(-0.002413559828 1.163219551e-16 -0.001201620067 -4.373455756e-16 0.0001175324739 0 -2.407462034e-06 -1.273525519e-16 0.01518552995)
(-0.002500163928 -6.400702444e-17 -0.0009059566119 -4.301628271e-16 8.354454949e-05 0 -1.339199505e-06 -1.200868906e-16 0.01518440206)
(-0.002555313382 1.288743836e-18 -0.0005720950023 -4.242666774e-16 5.003136383e-05 0 -5.293094687e-07 -1.197167039e-16 0.01518364909)
(-0.002721842035 1.954500151e-17 -0.0001972280794 -4.195414641e-16 1.757845525e-05 -7.925935252e-15 -5.248797892e-08 -9.836247549e-17 0.01518327515)
(0.001004782065 2.491263926e-16 -9.203342824e-05 -3.205147749e-15 0.001639746543 0 -6.142990619e-06 -2.34442173e-17 0.01556937033)
(0.001332689664 -3.175029799e-16 -0.0002133499157 -1.291178215e-15 0.001436153909 0 -1.596000074e-05 -5.511861754e-17 0.0155671982)
(0.00130242367 4.305012232e-15 -0.0003445330988 -4.912157997e-16 0.001371692733 0 -2.494115979e-05 -7.887611019e-18 0.01556266606)
(0.001314294692 7.158350792e-15 -0.0004742104522 -2.640006049e-15 0.001355984358 0 -3.377228128e-05 1.408349509e-16 0.01555603708)
(0.001297183661 2.06392805e-15 -0.000600879681 -3.420380532e-15 0.001345495897 0 -4.200231762e-05 3.255053258e-16 0.01554750873)
(0.001270001407 -1.3693544e-15 -0.000724316311 -2.549401645e-15 0.001334681932 0 -4.95529806e-05 -3.814561238e-16 0.01553728189)
(0.001237496932 -9.087960842e-16 -0.0008443943054 -2.004568898e-15 0.001322825982 0 -5.643919776e-05 -1.021229064e-15 0.01552555981)
(0.001199985673 -4.090492353e-16 -0.0009609584577 -1.674622154e-15 0.001309780344 3.387285108e-14 -6.261807703e-05 -1.728573191e-15 0.01551249181)
(0.001157397006 -1.422502658e-15 -0.001073919515 -1.466714663e-15 0.001295423271 0 -6.809502069e-05 -1.559650235e-15 0.01549823601)
(0.001109969589 -2.375035901e-15 -0.001183183376 -1.069747645e-15 0.001279729434 0 -7.284200208e-05 -1.651307712e-15 0.01548294392)
(0.001057756583 -7.787060022e-16 -0.001288697298 -7.89649321e-16 0.001262704796 0 -7.685882478e-05 -1.914636906e-15 0.01546675746)
(0.001000920427 4.169633864e-16 -0.001390435322 -7.743870578e-16 0.001244358635 0 -8.016349122e-05 -1.587141652e-15 0.01544982182)
(0.0009397054849 2.178340088e-16 -0.001488409236 -7.381346953e-16 0.001224729077 0 -8.278482946e-05 -1.465142165e-15 0.01543228628)
(0.0008743235328 8.078370889e-17 -0.001582644135 -6.971989343e-16 0.0012038588 0 -8.475084931e-05 -1.054178742e-15 0.01541429405)
(0.0008049263432 -2.245317037e-17 -0.001673150454 -6.595121176e-16 0.001181800457 0 -8.606328686e-05 -7.745380789e-16 0.01539597709)
(0.0007312651822 -1.017880598e-16 -0.001759933105 -6.167513211e-16 0.00115859986 0 -8.671739691e-05 -5.834925644e-16 0.01537745137)
(0.0006532773801 -1.677209801e-16 -0.001842947179 -5.762812628e-16 0.00113426856 0 -8.667601928e-05 -4.540791832e-16 0.01535880963)
(0.0005712971436 -2.315342706e-16 -0.001922243602 -5.421682103e-16 0.001108838589 0 -8.596894526e-05 -3.686434745e-16 0.01534018731)
(0.0004850799862 -2.810982417e-16 -0.001997851573 -5.04448365e-16 0.001082352131 0 -8.460307296e-05 -3.047425579e-16 0.01532170154)
(0.0003946529265 -3.420888457e-16 -0.002069773106 -4.675439272e-16 0.001054813449 0 -8.260140633e-05 -2.976884322e-16 0.0153034395)
(0.0003006010008 -4.379665986e-16 -0.002138034279 -4.354553004e-16 0.00102626178 0 -8.00029751e-05 -2.999046211e-16 0.01528551269)
(0.0002022434153 -5.500866003e-16 -0.00220254164 -3.97026056e-16 0.0009967467757 0 -7.675034118e-05 -3.170748364e-16 0.01526799648)
(9.89679253e-05 -2.780955302e-16 -0.0022630486 -3.607294328e-16 0.0009662497711 0 -7.272285669e-05 -3.440644555e-16 0.01525095375)
(-7.930046979e-06 -6.604305282e-17 -0.002319607232 -3.508617331e-16 0.0009347748953 0 -6.812332303e-05 -3.71611348e-16 0.01523447743)
(-0.0001171644767 2.405265255e-16 -0.002372388124 -3.357586035e-16 0.0009023971837 8.28474241e-15 -6.326510027e-05 -4.010702944e-16 0.01521867664)
(-0.0002288169137 5.608822669e-16 -0.002421250106 -3.455063785e-16 0.0008691965269 0 -5.821404525e-05 -3.312517769e-16 0.01520363078)
(-0.0003429066931 8.124233749e-16 -0.002465862331 -3.495667793e-16 0.0008352232566 0 -5.295747028e-05 -2.614799648e-16 0.01518938675)
(-0.0004578467901 1.140755742e-15 -0.002506082981 -3.696341505e-16 0.0008005383752 0 -4.774974537e-05 -1.260234423e-16 0.01517600151)
(-0.0005718377457 1.188693302e-15 -0.002541748024 -3.897822009e-16 0.0007652643776 -7.943024353e-15 -4.286722838e-05 9.254221505e-18 0.01516354198)
(-0.0006848775814 1.264534902e-15 -0.002572307072 -4.119817731e-16 0.0007295335648 0 -3.828515506e-05 3.434831644e-17 0.0151520242)
(-0.0007979629105 1.016728368e-15 -0.002596989124 -4.343254856e-16 0.0006934348948 0 -3.389262638e-05 6.469800808e-17 0.0151414321)
(-0.0009104421015 4.756347198e-16 -0.002615049681 -4.416288106e-16 0.0006570228081 0 -2.975471752e-05 8.915021569e-17 0.01513175036)
(-0.001020033217 2.357102108e-16 -0.002625898723 -4.360163118e-16 0.0006203959558 0 -2.616729536e-05 1.218360868e-16 0.01512301082)
(-0.001126525176 2.850830329e-16 -0.002628581235 -4.317830521e-16 0.0005836904099 0 -2.311946961e-05 1.530868717e-16 0.0151151868)
(-0.001232332881 3.225799985e-16 -0.00262163952 -4.298268295e-16 0.0005469857004 0 -2.025658347e-05 1.39639177e-16 0.01510819973)
(-0.001338549631 3.432270649e-16 -0.002603579813 -4.282250269e-16 0.0005102919862 0 -1.74082459e-05 1.24235708e-16 0.01510197048)
(-0.001443297501 3.574797617e-16 -0.002573197473 -4.260133695e-16 0.0004736329904 0 -1.482526326e-05 1.88161539e-16 0.01509648208)
(-0.001545528189 3.809620961e-16 -0.002529119663 -4.259919522e-16 0.000437085382 0 -1.262780789e-05 2.129795057e-16 0.01509170543)
(-0.001647021679 4.142512838e-16 -0.002469459881 -4.243796276e-16 0.0004007009564 0 -1.055418845e-05 2.031391907e-16 0.01508755528)
(-0.001748740546 4.551618718e-16 -0.002392263858 -4.249228834e-16 0.0003644790914 0 -8.483858226e-06 1.988665937e-16 0.01508395662)
(-0.001848949098 5.110134907e-16 -0.002295813193 -4.257276556e-16 0.0003284315658 0 -6.652922903e-06 1.99440609e-16 0.01508088186)
(-0.001946655454 5.986181086e-16 -0.00217824413 -4.272552435e-16 0.000292612754 0 -5.180858092e-06 2.032845011e-16 0.01507829775)
(-0.002043412275 2.469658561e-16 -0.002037245381 -4.309231435e-16 0.0002570595066 0 -3.843498324e-06 2.093725583e-16 0.01507612764)
(-0.002139751637 -1.23838589e-16 -0.001870486761 -4.21978448e-16 0.0002217687793 0 -2.578506633e-06 2.075727512e-16 0.01507431259)
(-0.002234050544 -8.895081854e-17 -0.00167585155 -4.150842059e-16 0.000186756525 0 -1.614669693e-06 2.394625356e-16 0.01507283674)
(-0.002327090714 -9.417482943e-17 -0.001450963445 -4.078413559e-16 0.000152064325 0 -9.232071711e-07 2.422968271e-16 0.01507166425)
(-0.002420409378 -1.221397707e-16 -0.001193122371 -4.009479068e-16 0.0001176815801 0 -2.959866162e-07 2.473739608e-16 0.01507073681)
(-0.002505105159 -1.610630033e-16 -0.0008998335398 -3.936612129e-16 8.360389528e-05 0 9.51112764e-08 2.268473069e-16 0.01507004679)
(-0.002557717052 -1.637070309e-16 -0.0005684730666 -3.861998458e-16 5.004857936e-05 -7.999365707e-15 1.480771272e-07 2.135051445e-16 0.01506959833)
(-0.002722420799 -7.275998683e-17 -0.0001960336868 -3.796786028e-16 1.757594446e-05 0 1.345475078e-07 2.046154924e-16 0.01506935855)
(0.001027938511 2.342631835e-15 -8.678459544e-05 -6.240226682e-15 0.001677834344 0 -5.063038042e-06 -9.116965023e-16 0.01536087102)
(0.001363033065 2.543981844e-15 -0.0002014652335 -4.160556627e-15 0.00146935158 0 -1.31560041e-05 -2.628335488e-15 0.01535901955)
(0.001331377907 1.908933713e-15 -0.00032562574 -3.322117383e-15 0.001403124395 0 -2.058699839e-05 -2.679379285e-15 0.01535516413)
(0.001342583254 1.744711313e-15 -0.0004484458985 -2.898508671e-15 0.001386712064 0 -2.794019679e-05 -6.250519999e-16 0.01534952267)
(0.001324072587 1.627845058e-15 -0.0005685931567 -2.636624586e-15 0.001375558604 0 -3.484815442e-05 6.492327078e-16 0.01534225393)
(0.001295239298 1.709158358e-15 -0.0006859050591 -2.450983362e-15 0.001364059677 0 -4.125162448e-05 5.886265431e-16 0.01533351286)
(0.001260737534 2.123547869e-15 -0.0008001980924 -2.363304015e-15 0.001351468739 0 -4.709730689e-05 4.568277467e-16 0.01532344269)
(0.001221047721 4.894808615e-16 -0.0009112852028 -2.364185877e-15 0.001337609275 0 -5.229917082e-05 3.514600455e-16 0.01531219087)
(0.001176136756 -6.003592508e-16 -0.001019134608 -1.965757731e-15 0.001322392337 -3.120830879e-14 -5.688681884e-05 3.518491531e-16 0.01529989754)
(0.001126192892 4.131798268e-16 -0.00112370011 -1.776801938e-15 0.001305780442 0 -6.085382377e-05 -2.309390142e-16 0.01528670562)
(0.00107151795 -6.008522126e-16 -0.00122496797 -1.691912627e-15 0.001287789799 2.670548794e-14 -6.420611699e-05 -6.996385915e-16 0.01527275719)
(0.001012350042 -1.441172151e-15 -0.001322949296 -1.407648458e-15 0.00126845997 0 -6.696025184e-05 -4.745854636e-16 0.01525817961)
(0.0009487192909 -1.37245548e-15 -0.001417654772 -1.232982376e-15 0.001247839827 2.371030898e-14 -6.911792666e-05 -3.478170793e-16 0.01524311356)
(0.0008806751038 -1.488292086e-15 -0.001509059487 -1.041422139e-15 0.001225960288 0 -7.064978206e-05 -2.610836891e-16 0.01522767759)
(0.0008083424738 -1.074082367e-15 -0.001597143253 -9.018339563e-16 0.001202863382 0 -7.152358633e-05 -2.338661622e-16 0.01521198367)
(0.0007315831358 -7.78443336e-16 -0.001681872259 -7.987945692e-16 0.001178586513 0 -7.168847322e-05 -2.379702563e-16 0.01519614054)
(0.0006505938886 -5.694992693e-16 -0.001763313262 -7.223871779e-16 0.001153147225 0 -7.119930127e-05 -2.663095215e-16 0.0151802455)
(0.0005655596474 -4.872990812e-16 -0.001841616296 -6.645314057e-16 0.001126596242 0 -7.016710146e-05 -3.1582107e-16 0.01516442845)
(0.0004762028977 -3.0650197e-16 -0.001916670005 -6.092269206e-16 0.001098964081 -9.452247981e-15 -6.847128047e-05 -2.765025311e-16 0.01514879146)
(0.0003827089301 -1.520419281e-16 -0.001988456199 -5.805920513e-16 0.001070266937 0 -6.61241729e-05 -3.579127768e-16 0.01513339685)
(0.0002852162833 -1.496038956e-16 -0.002057002667 -5.500459193e-16 0.001040547033 0 -6.318580556e-05 -4.53507221e-16 0.01511832797)
(0.0001829060976 -1.114716923e-16 -0.002122170686 -5.218001307e-16 0.001009828801 0 -5.958787662e-05 -5.639043667e-16 0.01510366104)
(7.623124187e-05 -1.247365898e-16 -0.002183914701 -5.018746231e-16 0.0009780890157 8.67374876e-15 -5.542346684e-05 -6.9095815e-16 0.01508946468)
(-3.264668545e-05 -1.92110432e-16 -0.002242366458 -4.77185008e-16 0.0009453857803 0 -5.095978257e-05 -6.752595657e-16 0.01507587344)
(-0.0001430830371 -9.443035511e-17 -0.002297541659 -4.580736808e-16 0.0009118406036 8.413765904e-15 -4.637492767e-05 -6.965393305e-16 0.01506296379)
(-0.000255969838 -1.470282827e-17 -0.002349164733 -4.421583944e-16 0.000877530269 0 -4.165519283e-05 -6.118114059e-16 0.01505078313)
(-0.0003705911348 -1.260307151e-16 -0.002396979827 -4.312278105e-16 0.0008424936957 8.215391218e-15 -3.691409178e-05 -5.541711832e-16 0.01503935895)
(-0.0004844680528 -2.102145997e-16 -0.002440889907 -4.111421899e-16 0.0008068312304 0 -3.246721894e-05 -3.64520787e-16 0.01502877945)
(-0.0005968273719 8.039023458e-17 -0.002480538432 -3.938831082e-16 0.0007706997567 0 -2.841716956e-05 -2.336234092e-16 0.01501906379)
(-0.0007090238933 3.528436891e-16 -0.002515162128 -3.910260036e-16 0.0007342068399 0 -2.458819221e-05 -8.75971144e-17 0.01501019516)
(-0.0008211504478 3.362062691e-16 -0.002543979989 -3.88625118e-16 0.0006974045216 -7.959042417e-15 -2.094497014e-05 7.089933867e-17 0.0150021459)
(-0.0009309327349 2.941587512e-16 -0.002566480758 -3.885768157e-16 0.0006603725292 -7.91846088e-15 -1.781236258e-05 1.355520285e-16 0.01499494647)
(-0.001037437427 2.378431329e-16 -0.00258188811 -3.869745225e-16 0.0006232499459 0 -1.528363047e-05 1.10583348e-16 0.01498859079)
(-0.001142952332 5.339680913e-16 -0.002588799926 -3.838139874e-16 0.0005861315199 0 -1.296675431e-05 9.261724652e-17 0.01498299261)
(-0.001249070407 8.444109874e-16 -0.002585732787 -3.924858003e-16 0.0005490294116 0 -1.061525197e-05 1.040787276e-16 0.0149780679)
(-0.001354081858 3.662361923e-16 -0.002571558573 -4.023964671e-16 0.0005119578357 0 -8.478099477e-06 1.190136376e-16 0.01497379619)
(-0.001456495056 -1.145397077e-16 -0.002545072006 -3.925348887e-16 0.0004749919942 0 -6.755520794e-06 1.368515405e-16 0.01497016174)
(-0.001557910433 1.726580214e-16 -0.002504495738 -3.839199322e-16 0.0004381935139 0 -5.188999831e-06 1.566958397e-16 0.01496707815)
(-0.001659671138 4.335038171e-16 -0.002447909834 -3.860741867e-16 0.0004015636471 0 -3.590320204e-06 2.060580948e-16 0.0149644613)
(-0.001760162028 4.203441787e-16 -0.002373680034 -3.84654702e-16 0.0003651078577 0 -2.188616014e-06 2.609616772e-16 0.01496228003)
(-0.001857983985 4.19286611e-16 -0.002280101352 -3.853832093e-16 0.000328880509 0 -1.164094779e-06 3.708257066e-16 0.01496050912)
(-0.001954650695 4.361625315e-16 -0.002164976847 -3.858572022e-16 0.0002929271509 0 -2.894260075e-07 4.646804588e-16 0.01495906923)
(-0.00205112872 5.30943598e-16 -0.002026022048 -3.860627513e-16 0.0002572435308 -7.89669428e-15 5.589558854e-07 5.524855092e-16 0.01495789007)
(-0.002145583028 3.878228382e-16 -0.001861227125 -3.898549071e-16 0.0002218394243 0 1.140311315e-06 5.450054691e-16 0.01495695378)
(-0.002237846157 1.861562238e-16 -0.001668374691 -3.8658141e-16 0.0001867634332 0 1.433522057e-06 5.01005134e-16 0.01495622762)
(-0.00233031519 2.222882437e-16 -0.001444877643 -3.844334807e-16 0.0001520250056 0 1.662835473e-06 4.469586267e-16 0.01495564762)
(-0.002421917217 2.411201025e-16 -0.001188366484 -3.826772424e-16 0.0001175996606 0 1.697275675e-06 4.078828483e-16 0.01495519661)
(-0.002503879722 2.142103968e-16 -0.0008964595347 -3.805664394e-16 8.352487992e-05 0 1.400792814e-06 3.875639716e-16 0.01495487487)
(-0.002555675481 1.858533649e-16 -0.0005662546825 -3.78206722e-16 4.999999732e-05 0 9.913540424e-07 3.580629109e-16 0.01495464515)
(-0.002719408149 9.351905669e-17 -0.000195175551 -3.75799764e-16 1.75500324e-05 0 4.767977464e-07 3.486542866e-16 0.01495449898)
(0.001046804549 9.118166297e-15 -8.243002464e-05 -1.559088619e-14 0.0017088755 0 -4.186652891e-06 3.136725606e-16 0.01516412511)
(0.001387781225 4.878562079e-15 -0.0001915857203 -1.327193752e-14 0.00149640184 0 -1.08734065e-05 8.950775088e-16 0.01516253787)
(0.001355062026 -3.801398687e-15 -0.0003098641132 -7.894597449e-15 0.00142875193 0 -1.701348383e-05 1.371112509e-15 0.01515923888)
(0.001365796571 -4.593107246e-15 -0.0004268874834 -3.88806963e-15 0.001411797759 0 -2.30927814e-05 1.922913741e-15 0.01515440834)
(0.001346136373 -1.991068189e-15 -0.000541439316 -2.403051866e-15 0.001400133009 0 -2.8787836e-05 2.533213131e-15 0.0151481743)
(0.001315883912 -5.886976073e-16 -0.0006533677026 -1.787790191e-15 0.001388083563 0 -3.401142336e-05 2.340955628e-15 0.01514066053)
(0.001279640399 3.106135845e-17 -0.0007626003958 -1.509939091e-15 0.00137488734 0 -3.878872038e-05 2.412814421e-15 0.01513197978)
(0.00123803929 -1.058252594e-17 -0.0008690305706 -1.33910392e-15 0.001360341742 0 -4.308215853e-05 2.747036409e-15 0.01512229197)
(0.00119127277 9.863825619e-16 -0.0009726129363 -1.172288026e-15 0.001344392585 0 -4.687565944e-05 2.221528778e-15 0.01511173045)
(0.001139494048 1.865183252e-15 -0.001073318357 -1.26348713e-15 0.001327026068 0 -5.01519061e-05 1.949948106e-15 0.01510040859)
(0.001082848404 1.119338997e-16 -0.001171087094 -1.294490122e-15 0.001308263958 -2.712138895e-14 -5.284745691e-05 1.85891835e-15 0.01508845982)
(0.001021478113 -1.061237075e-15 -0.001265948347 -1.090824549e-15 0.001288133098 0 -5.498557407e-05 1.514387062e-15 0.0150759717)
(0.0009554269748 -7.061793511e-16 -0.001357928791 -9.523655772e-16 0.001266674708 -1.203978211e-14 -5.657306679e-05 1.347946718e-15 0.0150630774)
(0.0008847503007 -4.275243817e-16 -0.001446988355 -8.505894641e-16 0.001243915818 0 -5.755172397e-05 9.751184748e-16 0.01504986315)
(0.000809482309 -1.362044337e-16 -0.001533146322 -7.846563747e-16 0.001219895552 0 -5.790932079e-05 7.063049397e-16 0.01503645675)
(0.0007297557647 3.643715331e-17 -0.001616391924 -7.365495906e-16 0.001194639725 0 -5.760667975e-05 5.108962329e-16 0.01502297366)
(0.0006462392055 1.844900752e-16 -0.001696833833 -7.087682953e-16 0.00116819393 0 -5.672772253e-05 3.684985049e-16 0.01500952521)
(0.0005584496773 -1.984391765e-16 -0.00177459622 -6.845217134e-16 0.001140642695 0 -5.535393474e-05 2.638198239e-16 0.01499619693)
(0.0004657098309 -6.778178682e-17 -0.001849445004 -6.210584033e-16 0.0011119712 0 -5.327769901e-05 1.621089235e-16 0.01498304041)
(0.0003688762034 5.179316822e-16 -0.001921343139 -6.193442076e-16 0.00108219149 0 -5.050904205e-05 6.657815476e-18 0.01497014267)
(0.0002681230923 5.824731527e-16 -0.001990422993 -6.144733354e-16 0.001051367838 0 -4.72171061e-05 -1.396364394e-16 0.01495758713)
(0.0001629571105 6.498146909e-16 -0.00205656301 -6.153278148e-16 0.001019521958 0 -4.336671469e-05 -2.702377296e-16 0.01494545244)
(5.449820561e-05 2.780671007e-16 -0.002119869795 -6.193708869e-16 0.0009866704678 0 -3.919864349e-05 -3.888940761e-16 0.01493381831)
(-5.543349511e-05 -3.479791849e-17 -0.00218048647 -5.925441971e-16 0.0009529101413 0 -3.500580187e-05 -5.048670033e-16 0.01492279932)
(-0.0001669365602 -1.124046483e-16 -0.00223818947 -5.75772566e-16 0.0009183662359 8.544798661e-15 -3.076473703e-05 -6.214833987e-16 0.01491245381)
(-0.0002803731487 -2.146132587e-16 -0.002292615129 -5.479165606e-16 0.0008830989051 0 -2.643261214e-05 -6.10145111e-16 0.01490280014)
(-0.0003939011069 -5.778165939e-16 -0.002343696889 -5.255323041e-16 0.0008471822593 0 -2.233198783e-05 -6.066497377e-16 0.01489389848)
(-0.0005058920419 -6.726604313e-16 -0.002391277232 -4.820932045e-16 0.0008107626077 0 -1.872202491e-05 -6.216457333e-16 0.01488580311)
(-0.0006172439957 -4.132483331e-16 -0.002434634892 -4.620199728e-16 0.0007739743825 0 -1.539356736e-05 -6.254915023e-16 0.01487849243)
(-0.0007287554179 -5.247996339e-16 -0.002472956143 -4.368272616e-16 0.0007368780887 0 -1.22127633e-05 -5.848530157e-16 0.01487193187)
(-0.0008384811254 -3.085421536e-16 -0.002505752774 -4.144112871e-16 0.0006995389045 0 -9.473673145e-06 -5.564105688e-16 0.01486614246)
(-0.0009449287915 2.421102058e-16 -0.002532415153 -4.024816624e-16 0.000662092548 0 -7.371207089e-06 -5.297976025e-16 0.01486113885)
(-0.001050133327 4.995515718e-16 -0.00255164483 -4.047324916e-16 0.0006246484618 0 -5.532527117e-06 -5.186672907e-16 0.01485683075)
(-0.001156087012 3.266710434e-16 -0.002561977374 -4.073319701e-16 0.0005872211784 7.982927031e-15 -3.64608357e-06 -5.09876645e-16 0.01485312592)
(-0.001261277517 1.613608852e-16 -0.002562331274 -4.015147957e-16 0.0005498172933 0 -1.925366219e-06 -4.017139332e-16 0.01485000174)
(-0.001363898228 1.296714047e-16 -0.002551628529 -3.950734838e-16 0.000512509207 -7.951945896e-15 -6.17394016e-07 -2.836176612e-16 0.01484745353)
(-0.001465322995 9.978989289e-17 -0.00252821419 -3.899185563e-16 0.0004753665241 0 5.07658798e-07 -3.262147214e-16 0.0148453961)
(-0.001567135 -9.35686262e-17 -0.002490224304 -3.8698926e-16 0.0004383934797 7.945403554e-15 1.680886675e-06 -3.580881297e-16 0.01484373734)
(-0.001667876753 -3.04796616e-16 -0.002436100705 -3.746175458e-16 0.0004015915188 0 2.689273617e-06 -2.995380283e-16 0.01484244478)
(-0.001765915667 -7.084362926e-16 -0.002364264832 -3.614925422e-16 0.0003650143091 0 3.318661209e-06 -2.386738666e-16 0.01484149863)
(-0.001862661903 -9.465297871e-16 -0.002272631367 -3.378373176e-16 0.0003287133375 0 3.788427706e-06 -1.845866857e-16 0.0148408191)
(-0.001959337821 -7.277601804e-16 -0.002158973281 -3.186659468e-16 0.0002926848197 0 4.265057357e-06 -1.204154919e-16 0.01484032761)
(-0.002054122772 -3.352015333e-16 -0.002021384756 -3.034788882e-16 0.0002569344817 0 4.496564834e-06 -4.404458473e-17 0.01484000595)
(-0.002146429337 2.775279974e-16 -0.00185778495 -2.981728276e-16 0.0002215129666 -1.609642045e-14 4.429022434e-06 1.282910543e-17 0.01483982397)
(-0.00223813144 6.723891935e-16 -0.001665680341 -3.033293422e-16 0.0001864383747 0 4.300735503e-06 1.029111447e-17 0.01483971284)
(-0.00232919129 6.406410465e-16 -0.001442783537 -3.096609296e-16 0.0001516997503 0 4.00635373e-06 3.464180052e-17 0.01483964883)
(-0.002418298295 3.567742877e-16 -0.001186877605 -3.124531217e-16 0.0001173138742 0 3.400127433e-06 5.74385186e-17 0.01483962876)
(-0.002499316104 2.520218205e-16 -0.0008952941594 -3.106464408e-16 8.330423603e-05 0 2.672734182e-06 8.438140751e-17 0.0148396134)
(-0.002549995256 1.626964711e-16 -0.0005653246903 -3.107016794e-16 4.983932022e-05 -8.250464045e-15 1.836537139e-06 1.072187116e-16 0.01483958905)
(-0.002709953091 8.34002321e-18 -0.0001947995016 -3.071650404e-16 1.747650358e-05 -4.151019299e-15 7.72454535e-07 1.340450345e-16 0.01483957243)
(0.001062127277 -5.005739348e-16 -7.867918747e-05 -2.200148771e-15 0.001734121306 0 -3.394372094e-06 1.247710346e-15 0.01497784189)