/*--------------------------------*- C++ -*----------------------------------*\
  =========                 |
  \\      /  F ield         | OpenFOAM: The Open Source CFD Toolbox
   \\    /   O peration     | Website:  https://openfoam.org
    \\  /    A nd           | Version:  7
     \\/     M anipulation  |
\*---------------------------------------------------------------------------*/
FoamFile
{
    version     2.0;
    format      ascii;
    class       volScalarField;
    location    "0.0009";
    object      T;
}
// * * * * * * * * * * * * * * * * * * * * * * * * * * * * * * * * * * * * * //

dimensions      [0 0 0 1 0 0 0];

internalField   nonuniform List<scalar> 
1166
(
392.191033
392.2494439
392.3746458
392.5596238
392.8003767
393.0933893
393.4348797
393.8219875
394.2516261
394.7204659
395.2261314
395.7653398
396.3359451
396.9351383
397.560524
398.2100275
398.8809682
399.5715873
393.2514523
393.3094304
393.4336954
393.6172651
393.8561426
394.1468094
394.4854239
394.869302
395.2952127
395.7599964
396.2611748
396.7956136
397.3610283
397.9547301
398.5742614
399.2176057
399.8821596
400.5660663
401.2674014
401.983979
402.7139796
403.4558487
404.2079165
404.9682466
405.735452
406.5082081
407.2852089
408.0650522
408.8465801
409.6290081
410.4114466
411.1930738
411.9729011
412.7504793
413.5253466
414.296989
415.0647115
415.8279114
416.5864199
417.339805
418.0875515
418.8291962
419.5646644
420.2936807
421.015814
421.730804
422.4386707
423.139236
423.8318804
424.5169743
394.287812
394.3453173
394.4685639
394.6506163
394.8874975
395.1756636
395.5113759
395.8919352
396.3141053
396.7748091
397.2714951
397.8010973
398.3613252
398.9494971
399.5632307
400.2004995
400.8586073
401.5358407
402.2302348
402.9394939
403.662028
404.3961831
405.1402439
405.8921794
406.6509086
407.4150469
408.1832848
408.9541608
409.7268774
410.5005492
411.2742962
412.0471916
412.8184745
413.5877877
414.3545541
415.1181197
415.8776621
416.633073
417.3838761
418.1295963
418.8695988
419.6038425
420.332033
421.053767
421.7686371
422.4767024
423.1777783
423.8712354
424.5573531
425.2360143
395.3003271
395.3573409
395.4795317
395.6600183
395.894852
396.1805078
396.5133095
396.8905282
397.3089513
397.7655185
398.2577197
398.7824498
399.3375154
399.9202045
400.5281539
401.1593355
401.8110297
402.4815991
403.1690538
403.8710553
404.5861431
405.3125698
406.0484632
406.7922049
407.5425787
408.2982309
409.0577974
409.8200609
410.5842729
411.3494921
412.1148406
412.8792647
413.6424967
414.4038968
415.1628155
415.9182991
416.6702196
417.4180778
418.1614022
418.8994699
419.6322046
420.3593065
421.0803827
421.7949131
422.5029762
423.2043629
423.8984655
424.5854568
425.2652392
425.9373267
396.2894196
396.3459418
396.4670759
396.6459946
396.8787749
397.1619393
397.4917844
397.8656311
398.280323
398.7327253
399.2204564
399.7403571
400.2903113
400.8674645
401.4696675
402.0947329
402.7400336
403.4039829
404.0844767
404.779274
405.4868957
406.205588
406.9334048
407.6690517
408.4112152
409.1586074
409.9096389
410.6636473
411.4196428
412.1767415
412.9337471
413.6903295
414.4458336
415.1995619
415.9505693
416.6985732
417.4430923
418.1836236
418.9194348
419.6503491
420.3760749
421.0962118
421.8101601
422.5179991
423.2194944
423.9140395
424.6017369
425.2824901
425.9558248
426.6217738
397.2556458
397.311669
397.4317322
397.6090649
397.8397748
398.1204292
398.4473456
398.8177989
399.2287849
399.6770623
400.1603919
400.6754152
401.2202684
401.7919133
402.3883826
403.0072672
403.6462713
404.3036477
404.9770943
405.6646916
406.3648723
407.0758415
407.7957386
408.5234516
409.2576177
409.9967242
410.7397334
411.4857598
412.2338544
412.9828438
413.7321664
414.4812051
415.2292125
415.9752375
416.7188649
417.4596183
418.1969596
418.9301326
419.6588876
420.3829233
421.1018156
421.8149159
422.5222866
423.2236668
423.9184324
424.606649
425.2882044
425.9626147
426.629874
427.2900224
398.1994903
398.2550125
398.3740003
398.5497407
398.7783717
399.0564855
399.3805494
399.7476476
400.1549907
400.5991055
401.0779253
401.5882097
402.127975
402.6940894
403.2848591
403.8976087
404.5303265
405.181119
405.8474534
406.5279076
407.2207664
407.923948
408.6361915
409.3561735
410.0824529
410.8136171
411.5488809
412.2872276
413.0274974
413.7689076
414.510871
415.252588
415.9930885
416.7318438
417.4683715
418.202094
418.9322176
419.6584456
420.38045
421.0977672
421.8097288
422.5163636
423.2173829
423.9121262
424.6006552
425.2828249
425.9581214
426.6265346
427.2880769
427.942269
399.1214146
399.1764833
399.2944095
399.4685779
399.6951563
399.970762
400.2919996
400.6557158
401.0592881
401.4994061
401.9737214
402.4792782
403.0138115
403.5745824
404.1597114
404.7662842
405.3927042
406.0367057
406.696155
407.3695683
408.0550193
408.7507152
409.455497
410.167965
410.8864141
411.6100704
412.3378767
413.0686781
413.8014785
414.5357142
415.2705311
416.0049279
416.7382793
417.470086
418.1997281
418.9263609
419.6496641
420.3692678
421.0846538
421.7951606
422.5007677
423.2011577
423.8956157
424.5842301
425.2668072
425.9427838
426.6121779
427.2749587
427.9306078
428.5791457
400.0219808
400.0765936
400.1935627
400.3661471
400.5906578
400.8637373
401.1821852
401.5425464
401.9423598
402.3784943
402.8482696
403.3491566
403.8784981
404.4339432
405.0132016
405.6137556
406.2338856
406.8711152
407.5238071
408.1902645
408.8683386
409.5568446
410.2543808
410.9592727
411.6704237
412.3868462
413.107384
413.8308314
414.5566431
415.2839084
416.0115839
416.7389614
417.465516
418.1905817
418.913251
419.6332007
420.3500047
421.0630762
421.7717857
422.4760484
423.1755165
423.8694041
424.5578553
425.2406126
425.9170442
426.5872277
427.2510736
427.9080052
428.5580969
429.2013522
400.9017212
400.9558366
401.0718055
401.2429375
401.4653988
401.7359703
402.0515198
402.4086451
402.8046701
403.2368681
403.7021417
404.1984009
404.7225139
405.2726279
405.8459428
406.4405366
407.0543267
407.6849564
408.3309995
408.9904153
409.66151
410.3430434
411.0333714
411.7310661
412.4352103
413.1446417
413.8579458
414.5745922
415.2936113
416.0139082
416.7347027
417.4554367
418.1753945
418.8935947
419.6097299
420.3233047
421.0336503
421.7401922
422.4427672
423.1409818
423.8340058
424.5220228
425.2047114
425.8813532
426.5521151
427.2168343
427.874857
428.526343
429.1712237
429.8088465
401.7611912
401.8148126
401.9297204
402.0994186
402.3198886
402.5879295
402.9005114
403.2545053
403.6467761
404.0749693
404.5358329
405.0272664
405.5462968
406.0909782
406.6584827
407.2472069
407.8545292
408.4788258
409.1183312
409.7708189
410.4352203
411.1099225
411.7931545
412.4840722
413.1814575
413.8838325
414.5905251
415.3005586
416.0127783
416.7263399
417.4406459
418.1549275
418.8681191
419.5799451
420.2898295
420.9970087
421.7009838
422.4015006
423.098064
423.7899491
424.4772375
425.1595869
425.8361743
426.5072846
427.1726671
427.8315733
428.4842787
429.1305972
429.7698861
430.402526
402.6008443
402.6539673
402.7678057
402.9359205
403.154588
403.4201232
403.7297627
404.0805578
404.4691625
404.8931797
405.3497667
405.8362477
406.3503029
406.8894109
407.45136
408.0340782
408.6352286
409.2533405
409.8861387
410.5322164
411.1901127
411.8578871
412.5345757
413.218963
413.90953
414.605433
415.3056958
416.0090975
416.7147344
417.4219647
418.1299332
418.8375728
419.5445603
420.2502598
420.9538015
421.6547807
422.3528404
423.0473697
423.737772
424.4240129
425.105659
425.7819799
426.4531866
427.1189537
427.7785661
428.4322968
429.0798288
429.7206551
430.3550569
430.982648
403.4211758
403.4738058
403.5865854
403.7531308
403.9697534
404.2330552
404.5397346
404.8871375
405.272243
405.6920413
406.1443472
406.6259137
407.1350506
407.6686084
408.2250824
408.8017446
409.3970194
410.0088752
410.6353771
411.2752227
411.9264955
412.5878969
413.2582893
413.9361105
414.6203387
415.3099984
416.0037975
416.7007748
417.4002404
418.1012368
418.8027271
419.5043107
420.2052968
420.9046985
421.6022219
422.2973959
422.9894814
423.6780308
424.3628802
425.0434772
425.7192536
426.390284
427.0561361
427.7162606
428.3708048
429.0193424
429.6615295
430.2975327
430.9268639
431.5495285
404.2226839
404.274818
404.3865321
404.551497
404.7660495
405.0269452
405.3308304
405.6748041
406.0562606
406.4719995
406.919748
407.3967648
407.9006569
408.429097
408.9799518
409.5509332
410.1404785
410.7460916
411.3666427
412.0002461
412.6452465
413.3005926
413.9646799
414.6362973
415.3144729
415.99784
416.6853779
417.3763472
418.0696807
418.7643773
419.4599545
420.1556634
420.8503903
421.5439655
422.2357951
422.9249989
423.6112976
424.2943855
424.9735784
425.6484928
426.3190518
426.9847039
427.64509
428.3002169
428.9495341
429.5928879
430.2303148
430.8612095
431.4857562
432.1038524
405.0055507
405.057266
405.1680516
405.3314157
405.5438719
405.8021965
406.1033535
406.4439782
406.8216208
407.2335468
407.6767285
408.1492586
408.6479921
409.1714318
409.716634
410.2822269
410.8657905
411.4657409
412.0804483
412.7078748
413.3470672
413.99638
414.6543985
415.320159
415.992218
416.6694906
417.3511875
418.0361261
418.7233443
419.4122736
420.1020295
420.7915897
421.480691
422.1686854
422.8545403
423.5381618
424.2190905
424.8964993
425.570209
426.2399781
426.9051235
427.5654992
428.2209579
428.8708105
429.5151189
430.1537751
430.786041
431.4123068
432.032241
432.6454448
405.7702095
405.8214167
405.9311395
406.0931506
406.3035976
406.5593609
406.8575215
407.1951293
407.5689475
407.9768167
408.4157717
408.8834933
409.3775766
409.8957246
410.4358363
410.995944
411.573925
412.1684208
412.7770739
413.3989473
414.0323912
414.6757688
415.3281313
415.9879582
416.654092
417.3256946
418.001464
418.6804771
419.362077
420.0452269
420.7290303
421.4130967
422.0966498
422.7787449
423.4592318
424.1375562
424.8127931
425.4849296
426.1535654
426.8178748
427.4779461
428.1334392
428.7835887
429.4286205
430.0681711
430.7017255
431.3295315
431.9511275
432.5663348
433.1752948
406.5171564
406.5678573
406.6764943
406.8369003
407.0454988
407.2988679
407.5940225
407.9282861
408.2986849
408.702428
409.137369
409.6003694
410.089839
410.6028934
411.1380631
411.692643
412.2654521
412.8541777
413.4575079
414.0739334
414.7015731
415.3395015
415.9861229
416.640195
417.3008343
417.9666166
418.6366546
419.3102021
419.9860637
420.6634732
421.3419081
422.0204265
422.6982699
423.3751345
424.0502842
424.7230299
425.3931979
426.0601992
426.7234524
427.3829023
428.038016
428.6882986
429.333803
429.9739986
430.6086349
431.2377852
431.860851
432.4778989
433.0888179
433.6931189
407.2467928
407.2969861
407.4045345
407.5633303
407.7698294
408.0208879
408.3132819
408.6441805
409.0110897
409.4109874
409.8415536
410.3004133
410.7850116
411.2934747
411.8233989
412.373097
412.9405595
413.5240635
414.1222659
414.7330145
415.3554186
415.9878105
416.6288477
417.2776058
417.932538
418.5927864
419.2575156
419.9253672
420.5957065
421.2678758
421.9407603
422.6137956
423.2865175
423.9579985
424.6277986
425.2955748
425.960532
426.6223666
427.2808541
427.9352607
428.5853832
429.2310891
429.8716671
430.5071546
431.1374185
431.7617642
432.380475
432.9931417
433.599541
434.1998646
407.9591686
408.0089403
408.1155845
408.2728448
408.4772741
408.7258165
409.0155438
409.3433405
409.7065745
410.1029114
410.5292888
410.9838558
411.463966
411.9677243
412.492828
413.0376341
413.5999692
414.1786402
414.7713352
415.3770696
415.9941565
416.6211338
417.2570432
417.9002159
418.5498138
419.2049145
419.8639931
420.5265452
421.1917761
421.8583914
422.5260264
423.1940516
423.8613386
424.527708
425.1926401
425.8551222
426.5151441
427.1723033
427.8256523
428.4752986
429.1208698
429.7615927
430.3976811
431.0286908
431.6542282
432.274407
432.8886298
433.4969634
434.0993594
434.6952476
408.654836
408.7041108
408.809691
408.9655805
409.1682695
409.4143267
409.7011668
410.0260268
410.38588
410.7783202
411.2010436
411.6511957
412.1271968
412.6261603
413.1468583
413.6866224
414.2443829
414.8178182
415.4056812
416.0063349
416.6181744
417.2402161
417.8706722
418.5087114
419.1533274
419.8028276
420.4568333
421.1143556
421.7740852
422.4356903
423.0983459
423.7609657
424.4233861
425.0848879
425.7445435
426.4023299
427.0576247
427.7096875
428.3585172
429.0035061
429.6442067
430.2806253
430.9121189
431.5386171
432.1600524
432.7756245
433.3857138
433.9899363
434.5880191
435.1801473
409.3343666
409.383151
409.4876815
409.6420236
409.8427364
410.08677
410.3708987
410.6925803
411.0492985
411.4380932
411.8568414
412.3031745
412.774654
413.2695441
413.7854711
414.3209256
414.873791
415.4425227
416.0255606
416.62113
417.2282322
417.8449654
418.4704882
419.103639
419.7427903
420.3874468
421.0364381
421.6886372
422.3435447
423.0001297
423.6575672
424.3154879
424.9729705
425.6293893
426.2844897
426.9374574
427.5878785
428.2355273
428.8795856
429.5199495
430.1564069
430.7881035
431.4153122
432.0376065
432.6544763
433.2661258
433.8719836
434.4720974
435.0663468
435.6542388
409.9979386
410.0463246
410.1500017
410.3028381
410.5015959
410.7432563
411.0249814
411.3437565
411.6970603
412.0826284
412.497516
412.9399148
413.4073988
413.8979959
414.4096914
414.9406215
415.4889045
416.0530898
416.6312015
417.2222389
417.8241927
418.4361918
419.056925
419.684834
420.3192939
420.9589569
421.6028736
422.2503767
422.9002247
423.5518567
424.204693
424.8576037
425.510273
426.1622077
426.812393
427.460754
428.1067661
428.7495873
429.3892765
430.0252727
430.6570627
431.2847118
431.9075904
432.5255442
433.1385263
433.7458298
434.3477962
434.9439495
435.5341282
436.1184194
410.6459327
410.6938509
410.7965266
410.9481336
411.1452942
411.3846438
411.6636883
411.9797648
412.3300157
412.7119702
413.1235925
413.5620156
414.025725
414.5121484
415.0197206
415.5461793
416.0902201
416.6496306
417.2234234
417.8094903
418.4069069
419.0142276
419.6299468
420.2533164
420.882811
421.5176506
422.1570019
422.7994089
423.4445742
424.0916163
424.7394585
425.3878329
426.0359223
426.6830095
427.328864
427.9726846
428.6140104
429.2526632
429.8878428
430.5194238
431.1472191
431.7704068
432.3891963
433.0031084
433.6118128
434.2154371
434.8133044
435.4056066
435.992048
436.5723454
411.428225
411.5783948
411.7736981
412.0111823
412.2878384
412.6009654
412.948281
413.3270948
413.7350333
414.1702032
414.6298124
415.112546
415.6157451
416.1382933
416.6777021
417.2330143
417.8020345
418.3837571
418.9766208
419.5791528
420.1904906
420.8089315
421.4338542
422.0641307
422.698492
423.3364897
423.9769931
424.619232
425.2627317
425.9064094
426.5499073
427.1927795
427.8339567
428.4733715
429.1105418
429.7445965
430.3756329
431.0030615
431.6264603
432.2458182
432.8604023
433.4702789
434.0752445
434.6747266
435.2689746
435.8573921
436.4400585
437.0168208
)
;

boundaryField
{
    front_top
    {
        type            wedge;
    }
    front_middle
    {
        type            wedge;
    }
    front_bottom
    {
        type            wedge;
    }
    back_top
    {
        type            wedge;
    }
    back_middle
    {
        type            wedge;
    }
    back_bottom
    {
        type            wedge;
    }
    axis_top
    {
        type            symmetryPlane;
    }
    axis_middle
    {
        type            symmetryPlane;
    }
    axis_bottom
    {
        type            symmetryPlane;
    }
    wall_top
    {
        type            convectiveRadiativeHeatFlux;
        mode            convectiveRadiative;
        kappaMethod     fluidThermo;
        kappa           none;
        alphaAni        Anialpha;
        h               uniform 165;
        Ta              constant 513.15;
        emissivityNozzle 0.95;
        emissivityFilament 0.95;
        dNozzle         2;
        dFilament       1.65;
        refValue        uniform 513.15;
        refGradient     nonuniform List<scalar> 
23
(
7481.608979
7429.048359
7378.004051
7328.12877
7279.645119
7232.325771
7186.073192
7141.038877
7097.09344
7054.45181
7012.697162
6971.848413
6931.99454
6893.128938
6855.256221
6818.253479
6782.025663
6746.517468
6711.746097
6677.662971
6644.406983
6611.91624
6580.1386
)
;
        valueFraction   nonuniform List<scalar> 
23
(
0.003247676052
0.003244295821
0.003241161659
0.003238128363
0.003235309134
0.003232621233
0.003230022098
0.003227597208
0.003225302991
0.003223234504
0.003221229076
0.003219292327
0.003217480578
0.003215797358
0.003214253505
0.003212804453
0.003211407215
0.003210049735
0.00320873996
0.003207467571
0.003206301891
0.003205221894
0.003204211973
)
;
        value           nonuniform List<scalar> 
23
(
424.8581914
425.5738194
426.2721784
426.9535907
427.6187054
428.2682275
428.9022892
429.5216008
430.1267336
430.717665
431.2953661
431.8598321
432.4116588
432.9511201
433.4785515
433.9944221
434.4988521
434.9923708
435.4750474
435.9473589
436.409454
436.8616454
437.3042747
)
;
    }
    wall_middle
    {
        type            fixedValue;
        value           nonuniform 0();
    }
    wall_bottom
    {
        type            fixedValue;
        value           nonuniform 0();
    }
    inlet
    {
        type            fixedValue;
        value           nonuniform 0();
    }
    outlet
    {
        type            zeroGradient;
    }
    procBoundary9to8
    {
        type            processor;
        value           nonuniform List<scalar> 
51
(
411.2790652
411.3265264
411.3265264
412.0453832
412.1943275
412.3878133
412.6231016
412.8974508
413.2081577
413.5523715
413.9281285
414.3328485
414.7642431
415.2204846
415.699047
416.1986198
416.7167464
417.2522848
417.8030446
418.3679076
418.9452192
419.5335157
420.1318027
420.7382886
421.3524096
421.9727688
422.5983093
423.228399
423.8616663
424.4976461
425.1356334
425.774342
426.4137081
427.0529403
427.6911478
428.3282073
428.9633194
429.5960211
430.2261529
430.8528712
431.4761694
432.0957266
432.7107887
433.3215898
433.9275653
434.5285442
435.1245088
435.7147502
436.2996239
436.8785968
437.4517172
)
;
    }
    procBoundary9to10
    {
        type            processor;
        value           nonuniform List<scalar> 
51
(
391.1064398
391.1653033
391.291321
391.4775363
391.7199592
392.015098
392.3592984
392.7494479
393.1827127
393.6554948
394.1656211
394.7095796
395.2853707
395.8899996
396.5212467
397.1769203
397.8543096
398.5516733
400.2799163
400.2799163
401.0037538
401.7413033
402.4909447
403.2509943
404.0196704
404.7954406
405.5769551
406.3628367
407.1518561
407.9424545
408.7339493
409.5253975
410.3159571
411.1047946
411.8910587
412.6744094
413.454343
414.230408
415.001852
415.7683199
416.5295649
417.2851997
418.0346482
418.7776517
419.5140858
420.24369
420.9659863
421.6808984
422.3883867
423.0882141
423.7799454
)
;
    }
}


// ************************************************************************* //
