/*--------------------------------*- C++ -*----------------------------------*\
  =========                 |
  \\      /  F ield         | OpenFOAM: The Open Source CFD Toolbox
   \\    /   O peration     | Website:  https://openfoam.org
    \\  /    A nd           | Version:  7
     \\/     M anipulation  |
\*---------------------------------------------------------------------------*/
FoamFile
{
    version     2.0;
    format      ascii;
    class       volTensorField;
    location    "0.0027";
    object      grad(U);
}
// * * * * * * * * * * * * * * * * * * * * * * * * * * * * * * * * * * * * * //

dimensions      [0 0 -1 0 0 0 0];

internalField   nonuniform List<tensor> 
14000
(
(-0.002980502598 3.994752833e-17 -0.0001757250277 -2.647378579e-15 -0.004826901449 0 0.0005944225602 -2.930580486e-16 0.008367964102)
(-0.004006389747 -3.181738138e-16 -0.0004605657061 -9.338874535e-16 -0.004247662422 0 0.001558191336 -5.012738943e-16 0.008434539373)
(-0.004042522416 -6.477334179e-16 -0.0007589084434 -3.496408732e-16 -0.004096013839 0 0.002471930378 -6.369393262e-16 0.008586926674)
(-0.004278114987 -7.738839918e-16 -0.001037103057 -5.286169408e-17 -0.004111342787 0 0.003415791364 -5.080094427e-16 0.00880872603)
(-0.004486149607 -9.07501907e-17 -0.001321024723 1.328580905e-16 -0.004165832907 0 0.004364273492 -4.211572524e-16 0.009095533566)
(-0.004711530858 4.220055235e-16 -0.001605486369 2.032135697e-17 -0.004237160132 0 0.005309918223 -4.401294665e-16 0.009442397916)
(-0.004968818541 2.410007394e-16 -0.001889217742 -1.76798909e-17 -0.00432196212 0 0.00625382738 -3.246743452e-16 0.009844331403)
(-0.005253587532 1.412364762e-16 -0.0021734055 -5.514068962e-17 -0.004418381793 0 0.007197126135 -2.24757811e-16 0.0102966623)
(-0.005560168252 8.903563524e-17 -0.002459452126 -4.287779769e-17 -0.004524657866 0 0.008139997155 -1.346254172e-16 0.01079506317)
(-0.00588395607 6.464895411e-17 -0.002748627603 -5.259227727e-17 -0.00463926119 0 0.009082014501 -1.39646112e-16 0.01133553459)
(-0.006220433885 4.777509218e-17 -0.003042165756 -4.89216944e-17 -0.004760831745 0 0.01002221131 -1.392360884e-16 0.01191439614)
(-0.006564870781 3.566407915e-17 -0.003341272138 -4.592268727e-17 -0.004888096793 0 0.01095910971 -1.349949673e-16 0.01252827025)
(-0.006912345328 3.603309885e-17 -0.003647112947 -3.257612703e-17 -0.005019830882 0 0.01189073329 -1.267229626e-16 0.01317405995)
(-0.007257727547 4.098189233e-17 -0.00396079841 -6.201791786e-17 -0.005154835983 0 0.01281466148 -1.492150123e-16 0.01384893832)
(-0.00759564966 3.800719348e-17 -0.004283335991 -5.935846383e-17 -0.005291926705 0 0.01372810357 -1.718984804e-16 0.01455032473)
(-0.007920716211 3.253656194e-17 -0.004615676777 -4.756915965e-17 -0.005429921703 0 0.01462780796 -1.431488552e-16 0.01527586128)
(-0.00822767171 2.985810899e-17 -0.004958837842 -3.674844184e-17 -0.005567660249 0 0.01551007289 -1.435956813e-16 0.01602340479)
(-0.008510534448 3.63466785e-17 -0.005313938758 -3.561626678e-17 -0.005704009449 0 0.01637097082 -1.66968113e-16 0.01679102611)
(-0.008762039421 4.758391996e-17 -0.005682211399 -5.194662477e-17 -0.005837793981 0 0.01720622521 -1.874412825e-16 0.01757701555)
(-0.008974604049 4.638548226e-17 -0.006064897596 -6.754174736e-17 -0.00596777091 0 0.01801114929 -2.042632212e-16 0.01837987662)
(-0.009141156329 4.209463755e-17 -0.006463176935 -4.952689643e-17 -0.006092671505 0 0.01878080624 -2.175077519e-16 0.01919830888)
(-0.00925476601 4.499764311e-17 -0.006878350831 -4.853678358e-17 -0.006211239957 0 0.01951004882 -2.286264223e-16 0.02003120981)
(-0.009307040071 2.161518571e-16 -0.007311918095 -4.766823438e-17 -0.006322225944 0 0.02019354072 -2.595088658e-16 0.02087768963)
(-0.009288341087 3.80810331e-16 -0.007765230553 -4.690654919e-17 -0.006424303168 0 0.02082575589 -3.021536228e-16 0.02173707391)
(-0.009189579504 3.943749376e-16 -0.008239336129 -7.706574866e-17 -0.006516095903 0 0.02140097637 -3.432427158e-16 0.02260886687)
(-0.009000947664 4.2916014e-16 -0.008734945162 -7.609433151e-17 -0.006596230101 0 0.02191336368 -3.677851692e-16 0.02349274282)
(-0.008711663207 1.498802033e-16 -0.009252022986 -9.029848684e-17 -0.006663268996 0 0.02235698949 -3.930130971e-16 0.02438852181)
(-0.008310621495 -1.071611743e-16 -0.009789483818 -8.941983633e-17 -0.006715746987 0 0.0227259162 -3.934908456e-16 0.02529610939)
(-0.007785678653 1.48481208e-16 -0.01034484967 -7.388704296e-17 -0.006752154272 0 0.02301416321 -3.958643666e-16 0.02621544919)
(-0.00712483203 3.860960668e-16 -0.01091393673 -7.335108951e-17 -0.006770928166 0 0.02321569148 -4.148441923e-16 0.02714642531)
(-0.006314756629 2.594667492e-16 -0.01149062549 -7.290071646e-17 -0.006770502181 0 0.02332456301 -4.359017746e-16 0.02808876826)
(-0.005339276624 1.184829383e-16 -0.01206634945 -8.703481266e-17 -0.006749224227 0 0.02333490628 -4.458508711e-16 0.02904193154)
(-0.004181931836 1.416666085e-16 -0.01262986639 -7.222993779e-17 -0.006705338431 0 0.02324089231 -4.561055177e-16 0.03000491994)
(-0.002826737899 1.744972355e-16 -0.01316757051 -1.151971434e-16 -0.006637039829 0 0.02303681895 -4.675729306e-16 0.03097611412)
(-0.001255529131 1.951733971e-16 -0.01366385537 -1.149267157e-16 -0.006542485361 0 0.02271720303 -4.807814744e-16 0.03195310936)
(0.0005527054623 2.079564904e-16 -0.01410131983 -1.00406313e-16 -0.006419728643 0 0.02227676319 -4.950222519e-16 0.03293254978)
(0.002620181968 2.249558673e-16 -0.01446127522 -1.146614276e-16 -0.006266713983 0 0.0217104318 -5.094268509e-16 0.03390998032)
(0.004969789597 2.420477343e-16 -0.01472438516 -1.146556632e-16 -0.006081290108 0 0.02101341087 -5.243177245e-16 0.03487976071)
(0.007626312991 2.59020833e-16 -0.01487108744 -1.003872036e-16 -0.005861224427 0 0.0201812635 -5.398440211e-16 0.0358350343)
(0.01061720742 1.461320068e-16 -0.01488154302 -1.148750983e-16 -0.005604171332 0 0.01920993045 -5.564115857e-16 0.03676778825)
(0.01397046968 4.034986922e-17 -0.01473529036 -1.007060803e-16 -0.005307663721 0 0.01809573432 -5.661899799e-16 0.03766896146)
(0.01771445576 7.085758372e-17 -0.01441053774 -1.153777233e-16 -0.004969159663 0 0.01683546383 -5.672782201e-16 0.03852864287)
(0.02187863129 9.84078653e-17 -0.01388261953 -1.157274236e-16 -0.004586036982 0 0.01542643516 -5.601094508e-16 0.03933629236)
(0.0264942381 1.235963893e-16 -0.01312191783 -1.088805081e-16 -0.004155609755 0 0.01386656752 -5.549263666e-16 0.04008096868)
(0.03159274076 1.515285681e-16 -0.01209120899 -1.16610806e-16 -0.003675104119 0 0.01215437691 -5.514351044e-16 0.0407515334)
(0.03718846817 1.852765267e-16 -0.01074336373 -1.098189184e-16 -0.003141719458 0 0.01028910039 -5.496052144e-16 0.04133679473)
(0.04328151574 5.841008145e-17 -0.009021167713 -1.030098324e-16 -0.002553073209 0 0.008271531321 -5.498803911e-16 0.04182560808)
(0.05006817569 -7.386989186e-17 -0.00684917474 -1.035695618e-16 -0.001907116826 0 0.0061042664 -5.431473295e-16 0.04220697008)
(0.05806484524 -4.681942961e-17 -0.004088138228 -1.041755926e-16 -0.001197145994 0 0.003782066707 -5.379783186e-16 0.04246973247)
(0.06465515906 -1.58708225e-17 -0.00126678237 -1.048268056e-16 -0.0004093046442 0 0.001283704629 -5.345990642e-16 0.04260044643)
(-0.007645899736 2.239933818e-15 -0.0005571410912 -5.848031787e-15 -0.01240715553 0 0.0003451434513 7.320057284e-17 0.02173841789)
(-0.01018567264 2.808477819e-15 -0.001325025995 -3.96308859e-15 -0.01090481587 0 0.0009009501705 2.104222418e-16 0.02177222989)
(-0.01004370723 4.205223987e-16 -0.00214017599 -3.362873726e-15 -0.01045263835 0 0.001413396175 -1.15825458e-16 0.02183778033)
(-0.01028497315 -8.57580995e-16 -0.002921694088 -2.116720561e-15 -0.01037874721 0 0.001921602247 -3.811331076e-16 0.02193462447)
(-0.01035231547 -3.743079055e-16 -0.00367525995 -1.520997203e-15 -0.01036573362 5.024197213e-14 0.00240426669 -6.17043506e-16 0.02205900266)
(-0.01036858875 -1.25255932e-15 -0.004392409116 -1.217632204e-15 -0.01036167885 0 0.002851525994 -5.385484945e-16 0.02220704349)
(-0.01037693654 -1.971989324e-15 -0.005071135419 -7.361644596e-16 -0.01036086071 0 0.003259244937 -5.065852252e-16 0.02237522014)
(-0.01037399191 -1.701013921e-15 -0.005711228664 -4.159957621e-16 -0.01036102159 0 0.003624244602 -4.935158663e-16 0.02256006812)
(-0.01035290617 -7.661580465e-16 -0.006313132033 -1.741822401e-16 -0.01036009067 0 0.00394359055 -4.91192663e-16 0.02275813509)
(-0.01030825626 -2.657526583e-17 -0.006877739802 -1.869396521e-16 -0.01035638133 0 0.004214739675 -4.932076006e-16 0.02296605642)
(-0.01023468124 -8.92024078e-17 -0.007406175898 -1.490507461e-16 -0.01034842174 0 0.004435630324 -5.029992288e-16 0.02318060046)
(-0.01012671412 -1.477700857e-16 -0.007899609321 -1.399136086e-16 -0.01033487713 0 0.004604681862 -5.156842024e-16 0.02339869006)
(-0.009978988209 1.019427038e-16 -0.008359276077 -1.323338204e-16 -0.01031448583 0 0.004720632596 -4.900343466e-16 0.02361743521)
(-0.009786829796 3.755652783e-16 -0.008786445289 -1.259675221e-16 -0.01028607214 0 0.004782547697 -4.687203245e-16 0.02383414294)
(-0.009544948794 -1.087917775e-16 -0.009182322561 -1.607543726e-16 -0.01024858184 0 0.004789908882 -4.526401683e-16 0.02404634649)
(-0.009246660099 -2.951815473e-16 -0.009548124917 -1.159439603e-16 -0.01020093223 0 0.004742541599 -4.413924557e-16 0.02425181839)
(-0.008886707971 2.083620273e-16 -0.009885161586 -9.330186984e-17 -0.0101419921 0 0.004640613139 -4.298829861e-16 0.02444856451)
(-0.008460820589 3.984808431e-16 -0.01019493221 -1.265982929e-16 -0.01007077715 0 0.004484596095 -4.213264153e-16 0.02463481597)
(-0.007963549632 3.29241789e-16 -0.01047907241 -1.230964502e-16 -0.009986348608 0 0.004275365094 -4.161353724e-16 0.02480903526)
(-0.00739007371 2.63087333e-16 -0.01073923277 -1.20038829e-16 -0.009887768488 0 0.004014386144 -4.142006366e-16 0.02496988785)
(-0.006736417293 2.136691507e-16 -0.01097723283 -1.005964185e-16 -0.009774192226 0 0.003703580062 -4.163294293e-16 0.02511623802)
(-0.00599852436 4.094244598e-16 -0.01119521784 -1.643089226e-16 -0.009644836111 0 0.003345170057 -4.216420353e-16 0.02524712783)
(-0.005173435094 5.911073074e-16 -0.0113956153 -1.290949363e-16 -0.009498976082 8.262075925e-15 0.002941770763 -4.087730694e-16 0.02536173346)
(-0.004258812876 5.544010239e-16 -0.01158092871 -1.587901791e-16 -0.009336005575 0 0.002496601285 -3.691935806e-16 0.02545932203)
(-0.003251986634 3.503929491e-16 -0.01175375993 -1.878382584e-16 -0.009155391431 0 0.002013428088 -3.524953908e-16 0.02553923297)
(-0.002151599304 1.512080044e-16 -0.01191694117 -1.854705489e-16 -0.008956661479 0 0.001496421797 -3.171875246e-16 0.02560081616)
(-0.0009580785775 1.487217181e-16 -0.01207330241 -1.986936483e-16 -0.008739471866 -7.825472916e-15 0.0009503240823 -2.647710796e-16 0.0256433928)
(0.000327708202 1.400024908e-16 -0.01222562608 -1.816248529e-16 -0.008503610904 0 0.0003803483207 -2.675137612e-16 0.02566624106)
(0.001704849062 1.177740643e-16 -0.01237640136 -1.500754627e-16 -0.008248972261 7.68386369e-15 -0.0002077739835 -2.670679899e-16 0.02566857616)
(0.003171184891 1.17559946e-16 -0.01252740383 -1.638855485e-16 -0.007975540571 0 -0.0008077169624 -2.348868889e-16 0.02564954954)
(0.004722038803 1.34450613e-16 -0.01267936187 -1.77686506e-16 -0.007683431742 -7.581290923e-15 -0.001412723648 -2.022220125e-16 0.02560827535)
(0.006350890049 1.438931273e-16 -0.01283118562 -1.620488088e-16 -0.007372933549 0 -0.002015465914 -1.950303323e-16 0.02554388665)
(0.008050392834 1.461365536e-16 -0.01297914062 -1.613806019e-16 -0.00704449623 0 -0.002607947214 -1.885525649e-16 0.02545563794)
(0.009811525749 1.588635108e-16 -0.01311621866 -1.462389743e-16 -0.006698717719 0 -0.00318165934 -1.950809617e-16 0.0253430136)
(0.01162216458 1.824123369e-16 -0.01323143167 -1.896643778e-16 -0.006336371889 0 -0.003727599698 -1.895123364e-16 0.02520584351)
(0.01346741242 1.933133875e-16 -0.01330930773 -1.748057183e-16 -0.005958447663 0 -0.004236147396 -1.852252983e-16 0.02504442021)
(0.01533017508 1.933630593e-16 -0.01333003041 -1.746706809e-16 -0.005566149133 0 -0.004697070392 -1.703385308e-16 0.02485960404)
(0.01719043916 2.006024893e-16 -0.01327007406 -1.746618996e-16 -0.005160901037 0 -0.005099500875 -1.45290125e-16 0.02465290173)
(0.0190244591 2.169010293e-16 -0.01310366381 -1.747724491e-16 -0.004744370701 0 -0.005432057342 -1.108073162e-16 0.02442652)
(0.02080511507 2.491359981e-16 -0.01280480748 -1.822876858e-16 -0.004318493849 -7.466503611e-15 -0.00568277832 -7.781898286e-17 0.02418338863)
(0.02250289957 1.241333162e-16 -0.0123498544 -1.89938242e-16 -0.003885472631 0 -0.005839096976 -6.176227052e-17 0.02392718185)
(0.02408507439 -1.661927914e-16 -0.01172024218 -1.611150359e-16 -0.003447760731 0 -0.005887976437 -5.654555618e-17 0.02366233219)
(0.02551481146 -2.920811478e-16 -0.01090497689 -1.616033622e-16 -0.003008086309 0 -0.005815962811 -5.113292409e-17 0.02339407468)
(0.026751399 -2.612793984e-16 -0.00990296886 -1.621783845e-16 -0.002569459322 0 -0.005609335547 -4.517310875e-17 0.02312853227)
(0.02775076152 -2.363188288e-16 -0.008724831281 -1.517344116e-16 -0.002135178887 0 -0.005254106211 -3.869918205e-17 0.02287284397)
(0.02846807312 -2.080026766e-16 -0.007393897735 -1.487055946e-16 -0.001708819672 0 -0.004736260898 -3.151283595e-17 0.02263536156)
(0.02885151638 -1.694104278e-16 -0.005945904061 -1.531848851e-16 -0.001294164747 -7.651771824e-15 -0.004042902298 -2.327055382e-17 0.02242585276)
(0.02881759754 -1.338975022e-16 -0.004430482537 -1.408694389e-16 -0.0008953634166 0 -0.003162092783 -2.818970757e-17 0.02225560527)
(0.02829058082 -1.049511417e-16 -0.002915473595 -1.369706032e-16 -0.0005174820357 0 -0.002071277203 -3.193353342e-17 0.02213801195)
(0.02747385899 -4.456820377e-17 -0.001080983429 -1.340247022e-16 -0.0001655840148 0 -0.0007315559917 -3.452413602e-17 0.02209126571)
(-0.009060416442 -1.409476184e-15 -0.0005467239315 -6.039769613e-16 -0.01475409565 0 2.417607712e-05 1.408762181e-16 0.02718495006)
(-0.01199683001 1.791054434e-15 -0.00125833417 1.032002105e-15 -0.01293951368 0 6.15592704e-05 4.043288098e-16 0.02716917034)
(-0.01170138801 3.693414022e-15 -0.002015174247 -1.060635351e-15 -0.01234916751 -8.688724793e-14 8.919509086e-05 7.133920642e-16 0.0271280337)
(-0.01182429262 2.981496059e-15 -0.002754136082 -1.682362607e-15 -0.01219913225 0 0.0001052693325 4.632015166e-16 0.02706870119)
(-0.01169584034 9.221685486e-16 -0.003462226065 -1.868570116e-15 -0.01210889451 0 0.0001044590476 3.240295932e-16 0.02699253021)
(-0.01146544965 -4.420680256e-16 -0.004130435301 -1.509065256e-15 -0.01201634882 -4.292452283e-14 8.335376045e-05 2.357421876e-16 0.02690082894)
(-0.01118960277 -1.421392981e-16 -0.004756583047 -1.203500667e-15 -0.01191531361 0 3.932677589e-05 -1.085484527e-16 0.02679498172)
(-0.01086899586 -6.855052071e-18 -0.005339153721 -1.039936788e-15 -0.01180422572 0 -2.955630947e-05 -3.95911958e-16 0.02667626864)
(-0.01049967452 7.554885812e-17 -0.005877290943 -8.844744366e-16 -0.01168168631 3.019006077e-14 -0.0001247282836 -6.476034229e-16 0.02654583286)
(-0.01008105381 1.659077188e-16 -0.006371071553 -8.950117551e-16 -0.01154681558 0 -0.0002471316547 -6.816276396e-16 0.02640469447)
(-0.00961383618 2.398448031e-16 -0.006821185773 -7.820886934e-16 -0.01139920949 0 -0.0003970079486 -7.1399933e-16 0.02625376638)
(-0.009097577366 -9.183749886e-17 -0.007228878175 -7.578270367e-16 -0.01123875201 0 -0.0005740618571 -7.48186411e-16 0.02609390129)
(-0.008530781262 -3.794070156e-16 -0.007595860255 -6.719736823e-16 -0.01106531591 1.146835085e-14 -0.0007775185993 -7.896305018e-16 0.02592591783)
(-0.007913025344 -2.912973297e-16 -0.007924311113 -5.970033621e-16 -0.01087879038 0 -0.00100619902 -7.307862404e-16 0.02575059272)
(-0.00724419608 -2.151528664e-16 -0.00821688578 -5.918098853e-16 -0.01067918605 -1.044850556e-14 -0.001258586355 -6.790058808e-16 0.0255686937)
(-0.006523927521 -1.865518992e-16 -0.008476477059 -4.906234456e-16 -0.01046653234 1.004796817e-14 -0.001532659195 -7.035833697e-16 0.02538098726)
(-0.005752083939 -1.58973582e-16 -0.008706155445 -4.54823603e-16 -0.0102409018 9.702903532e-15 -0.001825915617 -6.456893928e-16 0.02518822183)
(-0.004928893895 -9.144102663e-17 -0.008909327409 -4.408110378e-16 -0.01000239317 0 -0.002135614696 -5.193138366e-16 0.02499112778)
(-0.004056681245 -1.806835844e-17 -0.009089540814 -4.286177383e-16 -0.009751160862 0 -0.00245865717 -4.082643543e-16 0.02479038304)
(-0.003138668203 5.285866288e-17 -0.009250284064 -4.17971203e-16 -0.009487543277 0 -0.00279157092 -3.364268348e-16 0.02458659667)
(-0.002176427263 1.226488921e-16 -0.00939496446 -3.916250958e-16 -0.009211953016 0 -0.003130698228 -2.734797915e-16 0.02438030618)
(-0.001171695782 -3.301505626e-17 -0.009526662939 -3.671091745e-16 -0.008924786781 8.543631697e-15 -0.003472127532 -2.171996308e-16 0.02417192542)
(-0.0001286715723 -3.469044061e-16 -0.009647923431 -3.769280574e-16 -0.008626503639 0 -0.003811713261 -1.258136693e-16 0.02396170245)
(0.0009471331858 -2.265872772e-16 -0.009760610559 -3.54778856e-16 -0.008317704851 0 -0.004145250921 -6.176849851e-17 0.02374969524)
(0.002050864238 -1.897234457e-16 -0.009865476062 -3.656301935e-16 -0.007999094036 -8.139246046e-15 -0.004468373383 -4.385392473e-19 0.02353577287)
(0.003177077789 -5.745041347e-16 -0.009961830001 -2.825384939e-16 -0.007671415849 0 -0.004776532923 2.447259757e-17 0.02331959503)
(0.004319540682 -4.12337583e-16 -0.01004757895 -2.638766504e-16 -0.00733551162 0 -0.005065254494 4.592826458e-17 0.02310060552)
(0.005471817284 -7.688560862e-17 -0.01011908361 -2.766801129e-16 -0.006992276465 0 -0.005330168679 5.009556975e-17 0.02287806307)
(0.006625909523 -2.505134591e-16 -0.01017094462 -2.591015564e-16 -0.006642673397 0 -0.005566900765 5.300083127e-17 0.02265104718)
(0.007773511797 -4.112184892e-16 -0.01019622674 -2.269606897e-16 -0.006287768352 0 -0.005771125802 5.473477162e-17 0.02241851963)
(0.008906563143 -2.335706814e-16 -0.01018696179 -2.255671592e-16 -0.005928671764 0 -0.00593869907 5.686658896e-17 0.02217939179)
(0.01001550359 -5.445327483e-17 -0.0101346939 -2.244170382e-16 -0.0055665465 0 -0.006065752669 7.351862856e-17 0.02193260484)
(0.01109030902 1.452986772e-16 -0.01003109601 -2.234916564e-16 -0.00520264092 0 -0.006148675978 8.977441135e-17 0.02167723902)
(0.01212115884 1.843547381e-16 -0.009868702877 -2.079230214e-16 -0.004838243739 0 -0.006184147746 1.19666116e-16 0.02141265789)
(0.01309740958 6.298578382e-17 -0.009641666743 -2.074349177e-16 -0.00447468682 0 -0.00616932538 1.493349849e-16 0.02113864113)
(0.01400797757 -5.687890891e-17 -0.00934612687 -2.071160879e-16 -0.004113350855 0 -0.006101870518 1.811434892e-16 0.02085554642)
(0.01484086183 -3.344558253e-16 -0.008980494885 -1.995648018e-16 -0.003755651036 0 -0.005980036298 1.917485188e-16 0.02056444926)
(0.01558418091 -6.062934081e-16 -0.008545654235 -1.773820168e-16 -0.003403060174 0 -0.005802769089 2.041808877e-16 0.02026725822)
(0.01622673759 -7.177771941e-16 -0.008044831275 -1.700986927e-16 -0.003057056638 0 -0.005569781089 2.06558466e-16 0.01996678554)
(0.01675666059 -5.717445915e-16 -0.007483282578 -1.555063139e-16 -0.002719129317 0 -0.005281686167 2.108580535e-16 0.01966672919)
(0.01716217302 -2.755567808e-16 -0.006867991645 -1.48381744e-16 -0.002390781195 -7.597145294e-15 -0.00494005533 2.277115443e-16 0.01937159143)
(0.01743261662 -9.552491163e-17 -0.006207504164 -1.487492541e-16 -0.002073507643 -7.615961811e-15 -0.004547465207 2.284443973e-16 0.01908649045)
(0.01755964093 -8.508703988e-17 -0.005511735504 -1.305500882e-16 -0.001768770056 0 -0.004107601351 2.038864129e-16 0.01881690926)
(0.01753716844 -8.000153082e-17 -0.004791577758 -1.310146157e-16 -0.001477946616 0 -0.003625308619 1.81495122e-16 0.01856837578)
(0.01736160946 -7.57640976e-17 -0.004058547255 -1.277881417e-16 -0.001202319215 0 -0.003106661067 1.607406824e-16 0.01834610245)
(0.01703413201 -7.550889567e-17 -0.00332437548 -1.245927197e-16 -0.0009430308182 0 -0.002559010156 1.41363635e-16 0.01815460858)
(0.01655831525 2.126940808e-18 -0.002600011487 -1.233181012e-16 -0.0007010199483 0 -0.001990877585 1.233598105e-16 0.01799735373)
(0.01592835401 7.330223712e-17 -0.001894958205 -1.211269149e-16 -0.0004770580155 0 -0.001412161684 1.149501209e-16 0.01787644222)
(0.01513957644 6.255545736e-17 -0.001219377537 -1.203966773e-16 -0.0002719941175 0 -0.0008350102399 1.110955811e-16 0.01779225121)
(0.01441813491 2.913627355e-17 -0.0004440353863 -1.204252903e-16 -8.649639606e-05 0 -0.0002717973811 1.081847744e-16 0.01774300908)
(-0.008065529456 -6.199721425e-16 -0.0003891826703 -1.814591572e-15 -0.01311982946 0 -0.0001602103639 -2.550628614e-16 0.02647032112)
(-0.010676786 -1.469316656e-15 -0.0008715196069 -6.987160728e-17 -0.01151393069 1.430970517e-13 -0.0004200274035 -7.216128302e-16 0.02644214987)
(-0.01037712139 5.883529019e-16 -0.001387008558 6.893780981e-16 -0.0109885084 0 -0.0006662309554 -2.999604514e-16 0.02637866731)
(-0.01040960821 2.007536896e-15 -0.001900982562 -2.214803988e-16 -0.01083774957 0 -0.0009210564613 -2.580016762e-17 0.02628631854)
(-0.01019530587 1.333138242e-15 -0.002394093555 -5.060454691e-16 -0.01072821022 0 -0.001178232162 1.746311485e-16 0.02616759111)
(-0.009872508901 2.219881355e-15 -0.00286067367 -5.959982227e-16 -0.01060825822 0 -0.001435710899 1.258767154e-16 0.02602523561)
(-0.009493020841 2.983016398e-15 -0.003299885652 -9.814985872e-16 -0.01047381572 0 -0.001693886811 9.72581119e-17 0.02586198888)
(-0.009060575523 2.616609188e-15 -0.003710769904 -1.204650978e-15 -0.01032457549 0 -0.001953083703 7.289229136e-17 0.02568050261)
(-0.008574512001 1.491935285e-15 -0.00409264799 -1.317431723e-15 -0.01016025193 0 -0.002213183144 5.165750232e-17 0.02548333855)
(-0.0080378961 5.269394193e-16 -0.004445357772 -1.267021664e-15 -0.009980884034 0 -0.00247362527 3.017680102e-17 0.02527293319)
(-0.007454820823 4.792284308e-16 -0.004769367687 -1.204213748e-15 -0.009787034967 0 -0.002733687035 1.151937258e-17 0.02505155045)
(-0.006828155044 5.067602053e-16 -0.005065723231 -1.178494627e-15 -0.009579401346 -1.23140663e-14 -0.002992577835 4.352636816e-17 0.02482131034)
(-0.006160335309 -8.639336813e-17 -0.00533564777 -1.114649946e-15 -0.009358706505 0 -0.003249115411 -8.731634576e-18 0.02458414213)
(-0.005453826525 -6.202784326e-16 -0.005580610419 -9.960657038e-16 -0.009125668079 0 -0.003501881105 -2.024775583e-17 0.02434178556)
(-0.004711991738 -3.371261616e-16 -0.005802374394 -9.119022836e-16 -0.008881013038 0 -0.003749375574 5.294648983e-18 0.02409575346)
(-0.003938702251 -6.232779427e-16 -0.006002642983 -8.570144699e-16 -0.008625552808 0 -0.003989812319 2.376870048e-17 0.02384734202)
(-0.003137423126 -1.554800714e-15 -0.006183069891 -7.313525143e-16 -0.008360128931 0 -0.004221284457 3.376562446e-17 0.02359761378)
(-0.00231210332 -1.890199951e-15 -0.006345161826 -5.969014127e-16 -0.008085579357 0 -0.004441801722 3.93950377e-17 0.0233473936)
(-0.001467378316 -1.459920838e-15 -0.006490042826 -4.715672719e-16 -0.007802795498 0 -0.004649239988 7.304562569e-17 0.02309725303)
(-0.0006073924729 -1.084535999e-15 -0.006618598914 -4.067938374e-16 -0.007512704915 0 -0.004841642468 1.053985482e-16 0.02284753082)
(0.0002635015332 -9.997816951e-16 -0.006731230269 -3.804317618e-16 -0.007216214877 0 -0.005017079247 1.621837543e-16 0.02259833058)
(0.001140064256 -1.136749787e-15 -0.006827549722 -3.389330834e-16 -0.006914266379 -8.676686935e-15 -0.005173468579 2.417613104e-16 0.02234953687)
(0.002017492434 -1.059570177e-15 -0.006906534181 -2.662943932e-16 -0.006607834559 0 -0.00530878228 2.797465975e-16 0.0221008541)
(0.002890645034 -8.068296427e-16 -0.006966710241 -2.129069361e-16 -0.006297873353 8.385257789e-15 -0.00542123377 3.036655604e-16 0.0218518534)
(0.00375303838 -5.959447245e-16 -0.007006164918 -2.098789961e-16 -0.005985376163 -8.266003537e-15 -0.005509243252 3.637888631e-16 0.02160201377)
(0.004599092702 -3.774164705e-16 -0.00702255791 -1.912924266e-16 -0.005671387785 -8.1618102e-15 -0.005571304604 3.658926817e-16 0.02135081199)
(0.005424365228 -1.479404318e-16 -0.007013438366 -1.5763892e-16 -0.005356911691 0 -0.005606131885 3.367811015e-16 0.02109779722)
(0.00622297298 5.486542386e-17 -0.006976336626 -1.561050126e-16 -0.005042921965 0 -0.005612642063 3.391866042e-16 0.0208426478)
(0.006988204323 5.754603828e-17 -0.006908922162 -1.547862968e-16 -0.004730433291 0 -0.00558995705 3.421040747e-16 0.02058525298)
(0.007714176236 6.278595613e-17 -0.006809382056 -1.459803492e-16 -0.004420465818 0 -0.005537533272 3.317811677e-16 0.02032579491)
(0.008395283385 -1.048160566e-16 -0.006676463924 -1.450840351e-16 -0.004114020043 0 -0.005455099588 3.232776775e-16 0.02006478787)
(0.009025207526 -2.705268231e-16 -0.006509415201 -1.443442812e-16 -0.003812081029 0 -0.00534262377 3.288030771e-16 0.01980310238)
(0.009597254536 -4.446867704e-16 -0.006308216478 -1.134861148e-16 -0.003515643687 7.747318773e-15 -0.005200466264 3.226280743e-16 0.01954195324)
(0.01010629195 -6.138048832e-16 -0.006073579705 -1.282049746e-16 -0.003225697166 -7.722464355e-15 -0.005029284242 3.426082915e-16 0.01928287916)
(0.01054746224 -6.32936759e-16 -0.005806863453 -9.028518405e-17 -0.002943165689 0 -0.004830057222 3.421147047e-16 0.01902766772)
(0.01091548447 -3.775174561e-16 -0.005510064486 -8.263421348e-17 -0.002668957212 -7.692494055e-15 -0.004604156126 3.447926672e-16 0.01877827241)
(0.01120643283 -1.31457262e-16 -0.005185748319 -8.257037857e-17 -0.00240393856 -7.686551605e-15 -0.004353268467 3.297258453e-16 0.01853673367)
(0.01141711914 -1.677859505e-17 -0.004837097689 -7.881321711e-17 -0.00214891056 -7.686165173e-15 -0.004079495298 2.972688415e-16 0.01830507665)
(0.01154509557 1.069331422e-16 -0.004467763093 -7.135232921e-17 -0.001904615007 0 -0.003785262298 2.490889556e-16 0.01808522714)
(0.01158905614 -7.340087846e-17 -0.004081815712 -6.76834755e-17 -0.00167171504 0 -0.003473323384 2.045410476e-16 0.01787893995)
(0.01154888784 -1.387173802e-16 -0.003683690356 -6.404434833e-17 -0.001450790598 7.715460316e-15 -0.003146762394 1.697196756e-16 0.01768774198)
(0.01142583142 1.995352265e-16 -0.003278055914 -6.42029726e-17 -0.001242322953 0 -0.002808951651 1.560597316e-16 0.01751288625)
(0.01122197984 4.316020495e-16 -0.002869689352 -6.818565861e-17 -0.0010466892 0 -0.002463515592 1.440946885e-16 0.01735531787)
(0.01094031332 4.162163437e-16 -0.00246330103 -7.603142114e-17 -0.0008641668901 0 -0.002114205754 1.416490381e-16 0.01721565176)
(0.01058547784 4.056241745e-16 -0.002063411959 -8.015716379e-17 -0.0006949291451 0 -0.001764820717 1.305898056e-16 0.01709416709)
(0.01016380515 4.009090066e-16 -0.001674140961 -8.339680196e-17 -0.000539028258 0 -0.001419075335 1.280978464e-16 0.01699077869)
(0.009679918056 2.681575774e-16 -0.001299062475 -8.863040089e-17 -0.0003963945451 0 -0.001080520698 1.252281376e-16 0.0169049581)
(0.009129163942 7.501136213e-17 -0.000941420156 -8.959630044e-17 -0.0002669138226 0 -0.0007526254466 1.264120601e-16 0.01683590569)
(0.008499360274 1.360514205e-17 -0.0006050478581 -8.81720147e-17 -0.0001506103878 0 -0.0004390119755 1.266674224e-16 0.01678393678)
(0.007973183784 6.804494868e-18 -0.000220786281 -8.713009168e-17 -4.764366296e-05 0 -0.0001421879906 1.263973709e-16 0.01675207546)
(-0.006321990226 3.492023797e-15 -0.0002493339839 -7.656917466e-15 -0.01031354024 0 -0.0001989353139 -6.205069574e-17 0.02413567915)
(-0.008340850889 8.511706462e-16 -0.0005425017753 -5.659040923e-15 -0.009034939335 0 -0.0005213187063 -1.773633648e-16 0.02411309439)
(-0.008069365516 -1.211483025e-15 -0.0008575693889 -2.691063984e-15 -0.008600970338 0 -0.0008243461354 -3.21220306e-16 0.02406450601)
(-0.008056995956 -4.477254792e-16 -0.001179287003 -1.73517158e-15 -0.008464288838 0 -0.001132629883 -1.526256413e-16 0.02399340609)
(-0.007840934143 -5.292338053e-17 -0.001489184484 -1.336208709e-15 -0.008358796458 0 -0.001436247844 -4.06379379e-17 0.02390171593)
(-0.007530384219 1.747737757e-16 -0.001784365843 -1.102474412e-15 -0.008243074224 0 -0.00173117399 3.911453628e-17 0.02379156703)
(-0.007166622157 3.127072071e-16 -0.002064774107 -9.779768217e-16 -0.008113580694 0 -0.002016626582 2.579618969e-16 0.02366498706)
(-0.006754431446 3.906629714e-16 -0.002329945171 -9.217485776e-16 -0.007970097661 0 -0.002292040116 4.411346276e-16 0.02352393753)
(-0.006296902004 4.395786914e-16 -0.002579500873 -8.514220253e-16 -0.007812692692 0 -0.002556648363 5.898840264e-16 0.02337029181)
(-0.005798629243 4.980762042e-16 -0.002813166044 -8.391872425e-16 -0.007642037816 -2.864425788e-14 -0.002809431269 7.125651236e-16 0.02320582273)
(-0.005262837247 1.165082062e-16 -0.003030995201 -7.806176867e-16 -0.007458957949 0 -0.003049518601 8.021081825e-16 0.02303219987)
(-0.004693826264 1.141127444e-16 -0.003233265393 -6.961259055e-16 -0.007264264635 0 -0.00327610138 8.758085553e-16 0.02285091951)
(-0.004096469503 1.639942197e-16 -0.003420179675 -6.930667806e-16 -0.007058980576 -1.182833972e-14 -0.00348820708 9.49161752e-16 0.02266330873)
(-0.0034744145 -4.29808998e-16 -0.003591885531 -6.377339865e-16 -0.006844127036 0 -0.003684789714 9.572472192e-16 0.02247053651)
(-0.002832440279 -6.096055892e-16 -0.003748554528 -5.682910287e-16 -0.006620678033 -1.077648173e-14 -0.003864886181 9.724353282e-16 0.02227357749)
(-0.002175647845 -4.510531914e-16 -0.003890274925 -5.060240019e-16 -0.006389728157 -1.036337156e-14 -0.004027594936 9.844561165e-16 0.02207322037)
(-0.001507845277 -3.246252719e-16 -0.004016854168 -4.495545601e-16 -0.006152337719 -1.000747543e-14 -0.004171963976 9.181661727e-16 0.02187010263)
(-0.0008335730088 -4.981037289e-16 -0.004127950081 -4.167606613e-16 -0.005909509436 0 -0.004297133105 7.524903508e-16 0.02166469773)
(-0.0001571755944 -6.772284684e-16 -0.004223092061 -3.49973627e-16 -0.005662288926 9.430868264e-15 -0.004402381887 6.041523913e-16 0.0214573506)
(0.0005175361946 -8.472198464e-16 -0.004301592113 -3.233184167e-16 -0.00541164806 0 -0.004487059742 5.20254568e-16 0.02124830935)
(0.00118522279 -1.26666883e-15 -0.004362486586 -2.546440302e-16 -0.005158545925 0 -0.004550528048 4.431917861e-16 0.02103773098)