/*--------------------------------*- C++ -*----------------------------------*\
  =========                 |
  \\      /  F ield         | OpenFOAM: The Open Source CFD Toolbox
   \\    /   O peration     | Website:  https://openfoam.org
    \\  /    A nd           | Version:  7
     \\/     M anipulation  |
\*---------------------------------------------------------------------------*/
FoamFile
{
    version     2.0;
    format      ascii;
    class       volScalarField;
    location    "0.0027";
    object      p;
}
// * * * * * * * * * * * * * * * * * * * * * * * * * * * * * * * * * * * * * //

dimensions      [1 -1 -2 0 0 0 0];

internalField   nonuniform List<scalar> 
14000
(
1117295.664
1146861.854
1145246.465
1147305.776
1152852.999
1159835.879
1167922.566
1177166.724
1187571.92
1199124.332
1211825.083
1225688.471
1240736.421
1256996.397
1274500.946
1293283.511
1313364.59
1334768.994
1357565.647
1381809.893
1407551.303
1434821.263
1463678.628
1494234.086
1526549.77
1560709.8
1596852.219
1635060.007
1675506.631
1718308.563
1763605.195
1811606.939
1862479.54
1916344.769
1973289.846
2033415.556
2096681.551
2162972.031
2231979.751
2303338.916
2376442.907
2450553.868
2524809.992
2598286.361
2670097.149
2739301.207
2804730.891
2865962.18
2926938.115
2990574.432
1263459.487
1299282.617
1297377.025
1300012.41
1306904.176
1315491.21
1325304.359
1336360.69
1348605.487
1362002.582
1376523.283
1392157.586
1408911.9
1426790.233
1445798.539
1466023.44
1487520.154
1510299.428
1534471.345
1560095.663
1587236.906
1615974.046
1646369.129
1678440.303
1712248.532
1747783.02
1784978.546
1823725.72
1863881.973
1905240.714
1947491.362
1990252.557
2033119.082
2075665.685
2117436.711
2157991.073
2196959.784
2234025.746
2268938.907
2301492.49
2331560.117
2359035.996
2383789.063
2405670.907
2424451.992
2439855.862
2451549.116
2458762.173
2459860.271
2454805.751
1291158.702
1328408.214
1325938.401
1327292.692
1332573.228
1339332.39
1347158.873
1356158.389
1366386.621
1377846.069
1390522.676
1404407.785
1419557.148
1435967.138
1453647.621
1472625.896
1492899.706
1514493.148
1537369.301
1561433.358
1586659.689
1612983.203
1640278.864
1668348.528
1697024.525
1726108.445
1755342.191
1784533.064
1813400.881
1841717.835
1869293.632
1895936.209
1921460.636
1945773.939
1968733.441
1990263.101
2010250.076
2028579.885
2045192.242
2059935.858
2072693.393
2083290.626
2091589.596
2097437.301
2100657.338
2101119.975
2098745.075
2093297.685
2084085.706
2071945.752
1487419.288
1520774.011
1518407.472
1519923.63
1525178.008
1531906.138
1539731.098
1548710.109
1558901.722
1570290.284
1582806.771
1596469.708
1611231.727
1627108.072
1644036.68
1661969.965
1680837.689
1700581.05
1721066.699
1742204.676
1763871.231
1785909.466
1808163.348
1830501.868
1852705.232
1874615.512
1896113.069
1917049.711
1937238.198
1956574.9
1974924.288
1992190.322
2008210.675
2022912.328
2036225.837
2048011.41
2058227.915
2066777.816
2073605.051
2078643.841
2081848.145
2083187.431
2082638.984
2080180.077
2075826.436
2069639.547
2061688.888
2051839.717
2039593.159
2025888.573
1544867.747
1574937.813
1573421.399
1575041.254
1579888.034
1586061.356
1593209.309
1601392.996
1610604.018
1620752.42
1631856.16
1643859.186
1656666.796
1670257.44
1684545.226
1699399.657
1714777.062
1730554.519
1746608.316
1762874.539
1779181.989
1795385.936
1811374.44
1827051.978
1842297.821
1856964.549
1870971.102
1884200.009
1896550.473
1907959.103
1918346.196
1927608.507
1935740.646
1942625.539
1948273.286
1952622.79
1955639.732
1957315.286
1957634.612
1956595.539
1954191.794
1950444.378
1945397.672
1939086.336
1931534.426
1922785.141
1913033.311
1902418.575
1890744.319
1878491.5
1681547.211
1705613.646
1704556.578
1706406.606
1711005.491
1716783.226
1723448.45
1730985.268
1739387.802
1748499.308
1758354.996
1768823.006
1779806.999
1791216.01
1803026.226
1815079.217
1827276.717
1839555.894
1851806.218
1863909.307
1875744.71
1887235.591
1898301.94
1908839.934
1918779.145
1928061.394
1936554.572
1944239.47
1951052.596
1956937.352
1961861.755
1965764.524
1968673.218
1970496.87
1971254.37
1970963.553
1969572.73
1967098.496
1963595.14
1959059.969
1953486.365
1946959.554
1939604.568
1931512.83
1922109.167
1909334.69
1896473.176
1915648.319
2007576.104
2107854.775
1710417.821
1730192.923
1729767.598
1731482.667
1735342.316
1740131.917
1745653.834
1751799.288
1758553.158
1765861.339
1773579.211
1781684.938
1790082.224
1798654.86
1807332.939
1816060.657
1824725.464
1833244.811
1841545.454
1849542.276
1857139.141
1864318.619
1871010.627
1877100.058
1882569.517
1887376.737
1891470.815
1894793.99
1897351.626
1899079.145
1899987.78
1900063.451
1899263.126
1897640.196
1895162.558
1891829.771
1887697.703
1882771.62
1877068.87
1870672.39
1863716.301
1856264.386
1847220.76
1834721.433
1827808.323
1868995.277
1957647.382
2043875.776
2116641.231
2180431.03
1782378.503
1797146.653
1796787.309
1798238.467
1801394.547
1805322.405
1809757.473
1814707.327
1820037.154
1825768.321
1831749.405
1837893.792
1844174.325
1850494.63
1856772.957
1862931.476
1868899.841
1874623.336
1880043.569
1885098.998
1889723.702
1893881.744
1897509.148
1900560.145
1903030.406
1904827.769
1906003.594
1906461.3
1906255.03
1905316.275
1903673.062
1901325.741
1898234.658
1894482.486
1890037.439
1884923.93
1879213.926
1872923.516
1866258.326
1859213.363
1850512.694
1838178.666
1833654.984
1885464.268
1975615.646
2063665.885
2137585.671
2175423.472
2145810.15
2101854.858
1787677.698
1799693.352
1799523.247
1800586.254
1802915.423
1805833.224
1809052.066
1812648.772
1816489.778
1820511.899
1824685.699
1828920.295
1833149.969
1837318.071
1841368.279
1845245.786
1848890.904
1852225.741
1855209.84
1857822.504
1860033.977
1861757.97
1862987.444
1863695.122
1863852.347
1863447.787
1862455.277
1860874.726
1858693.664
1855912.435
1852545.49
1848572.774
1844058.938
1838977.125
1833376.573
1827336.308
1820997.905
1814415.577
1806084.52
1793950.923
1790803.452
1848811.879
1941712.138
2031888.791
2103457.132
2123369.251
2094698.673
2058153.7
2022647.959
1988644.242
1817056.529
1826468.482
1826089.772
1826781.995
1828514.288
1830627.27
1832994.969
1835540.237
1838271.454
1841102.227
1843972.244
1846837.318
1849642.817
1852325.177
1854835.989
1857143.889
1859216.353
1861003.118
1862444.542
1863497.249
1864199.09
1864475.439
1864301.124
1863705.116
1862604.446
1861073.978
1859028.695
1856544.497
1853552.697
1850133.738
1846236.28
1841921.71
1837192.906
1832126.091
1826902.803
1821520.505
1814372.606
1803362.388
1802076.311
1865181.839
1960947.182
2053452.954
2125148.159
2137390.119
2110364.928
2078610.289
2049470.283
2022787.359
1998932.184
1979777.815
1805885.061
1814237.825
1813773.071
1814088.366
1815146.744
1816443.728
1817896.376
1819439.243
1821018.597
1822643.699
1824249.075
1825787.286
1827221.083
1828515.009
1829636.028
1830549.908
1831219.805
1831622.848
1831752.177
1831576.192
1831064.939
1830234.853
1829060.353
1827534.852
1825666.563
1823444.946
1820886.061
1818000.735
1814790.346
1811290.825
1807486.969
1803479.045
1799435.54
1795337.207
1789546.999
1779840.496
1780373.943
1846955.781
1944141.636
2037851.843
2110147.346
2120103.758
2095594.196
2067738.029
2042453.798
2019451.431
1999527.195
1986185.372
1983309.312
1988863.887
1808399.024
1815829.818
1815141.866
1815108.809
1815679.336
1816444.051
1817219.704
1818057.386
1818900.835
1819702.535
1820429.136
1821075.584
1821617.165
1822024.627
1822267.871
1822308.564
1822138.444
1821749.878
1821140.075
1820283.269
1819165.747
1817809.404
1816178.58
1814287.616
1812173.622
1809788.616
1807207.269
1804356.926
1801337.778
1798119.716
1794991.295
1791826.933
1787032.807
1778319.465
1779980.215
1848089.296
1945703.881
2039973.922
2112610.037
2121031.315
2097793.009
2071917.599
2048447.79
2027083.456
2008652.96
1996425.783
1993912.414
2000193.18
2010828.585
2022271.802
1788466.525
1795909.176
1795041.408
1794689.569
1794893.236
1795168.079
1795439.612
1795644.979
1795843.332
1795990.086
1796050.399
1796005.569
1795838.084
1795531.346
1795070.827
1794445.57
1793656.858
1792712.544
1791557.034
1790186.952
1788649.273
1786908.927
1784947.977
1782834.943
1780498.737
1777999.858
1775318.694
1772507.569
1769775.545
1767042.871
1762694.569
1754482.945
1756347.71
1823699.289
1921084.914
2015737.84
2088592.365
2095341.503
2072249.508
2046989.229
2023842.762
2002514.744
1983882.731
1971335.551
1968654.939
1974899.254
1984962.322
1995306.663
2005090.568
2013993.345
1776723.41
1784129.16
1783036.51
1782501.579
1782475.575
1782463.02
1782426.949
1782331.368
1782147.85
1781898.408
1781579.884
1781156.849
1780611.965
1779935.481
1779123.842
1778185.459
1777100.837
1775846.2
1774390.62
1772797.372
1771048.294
1769101.13
1767003.584
1764742.717
1762289.882
1759734.957
1757240.268
1754757.53
1750696.649
1742856.068
1744412.983
1809206.907
1906046.307
2001243.014
2074709.483
2080781.139
2057683.766
2032598.795
2009467.3
1987824.657
1968577.485
1955091.844
1951537.61
1957426.006
1967563.247
1978008.005
1987496.975
1995606.47
2002298.572
2007827.745
1752393.816
1760245.254
1759046.134
1758351.037
1758112.897
1757897.293
1757584.321
1757233.483
1756767.361
1756208.39
1755558.394
1754805.503
1753940.04
1752954.668
1751840.096
1750588.753
1749195.558
1747649.714
1745940.799
1744093.207
1742095.504
1739935.899
1737610.144
1735177.243
1732821.625
1730460.422
1726630.376
1719126.569
1720079.555
1780939.271
1876711.308
1972321.073
2046793.031
2053985.668
2031285.44
2006337.728
1983319.249
1961634.583
1941913.89
1927373.636
1922724.509
1928194.465
1938607.998
1949541.312
1959556.724
1968217.172
1975231.435
1980635.659
1984975.376
1988769.636
1732102.012
1740298.476
1738948.85
1738115.952
1737757.025
1737418.578
1736961.355
1736425.932
1735789.294
1735050.016
1734208.999
1733257.786
1732188.755
1730996.317
1729675.369
1728219.222
1726622.599
1724888.288
1723019.687
1720983.918
1718795.835
1716534.404
1714314.565
1712097.093
1708549.881
1701444.934
1701777.951
1758223.052
1852563.907
1948285.299
2023891.549
2034029.07
2012265.562
1987537.703
1964581.675
1943052.424
1923223.631
1907684.308
1901506.137
1906224.826
1916903.629
1928481.575
1939169.046
1948525.531
1956279.269
1962374.512
1967094.158
1970953.813
1974537.448
1978050.776
1704138.74
1712811.994
1711346.603
1710393.365
1709936.642
1709462.141
1708863.811
1708153.725
1707338.18
1706417.135
1705384.558
1704235.727
1702965.304
1701566.82
1700036.422
1698371.044
1696567.064
1694631.522
1692589.396
1690435.384
1688313.535
1686234.256
1682921.972
1676184.008
1676021.254
1728460.13
1821029.549
1916327.647
1992896.145
2007027.73
1986553.561
1962111.913
1939204.283
1917768.705
1897862.82
1881509.157
1873559.585
1876974.313
1887702.158
1899983.192
1911444.491
1921581.17
1930133.382
1937003.449
1942410.451
1946788.601
1950579.508
1954103.022
1957578.185
1960984.068
1677772.766
1686766.261
1685170.595
1684119.55
1683601.197
1683029.251
1682335.395
1681499.86
1680566.679
1679529.009
1678371.806
1677090.74
1675683.757
1674148.382
1672480.076
1670672.684
1668731.057
1666716.372
1664789.785
1662896.843
1659785.594
1653374.006
1653074.261
1703028.077
1793759.134
1888065.804
1965167.841
1983352.939
1964473.322
1940493.387
1917792.613
1896361.861
1876384.184
1859291.589
1849535.253
1851147.364
1861425.948
1874301.991
1886580.616
1897567.607
1906994.856
1914708.129
1920850.683
1925834.478
1930115.267
1934005.869
1937622.205
1941019.625
1944330.401
1947550.584
1646517.845
1655880.48
1654195.001
1653045.61
1652447.863
1651785.388
1650983.087
1650007.91
1648960.043
1647796.42
1646482.819
1645033.909
1643465.537
1641779.018
1639985.823
1638143.134
1636367.181
1634573.406
1631540.533
1625338.228
1625392.395
1675425.475
1764362.459
1856945.869
1933817.882
1955165.411
1937542.027
1914304.525
1892011.638
1870563.348
1850461.754
1832703.513
1821089.134
1820510.419
1829934.087
1843192.134
1856209.734
1868016.102
1878341.012
1886971.866
1893943.403
1899598.234
1904406.595
1908736.673
1912757.201
1916498.053
1919950.098
1923150.762
1926248.698
1929250.836
1616252.876
1625794.788
1624062.215
1622844.924
1622150.407
1621437.139
1620515.137
1619478.168
1618330.729
1617012.67
1615567.374
1614012.137
1612364.269
1610679.502
1609055.818
1607372.828
1604343.871
1598129.515
1599247.247
1653174.562
1740591.43
1830581.057
1906104.047
1928736.178
1911974.325
1889301.658
1867552.271
1846443.858
1826154.44
1807782.5
1794352.525
1791197.347
1799192.332
1812585.016
1826301.881
1838880.368
1850051.752
1859591.349
1867428.342
1873812.155
1879194.638
1883988.599
1888420.771
1892550.497
1896379.834
1899906.594
1903139.482
1906125.487
1909023.975
1911859.412
1583070.356
1592693.987
1590903.481
1589649.845
1588875.066
1588040.509
1587021.88
1585874.18
1584563.245
1583138.706
1581642.124
1580079.969
1578517.517
1576823.189
1573551.267
1566971.503
1570179.858
1633219.694
1719486.341
1805731.351
1878330.352
1899205.44
1882770.779
1860724.351
1839396.862
1818524.883
1798273.362
1779373.761
1764393.503
1758624.257
1764680.045
1777824.989
1792143.665
1805464.17
1817454.41
1827890.264
1836621.983
1843786.514
1849777.027
1855030.626
1859849.671
1864347.569
1868530.136
1872395.4
1875956.021
1879224.145
1882215.889
1884996.978
1887737.37
1890452.627
1551130.62
1560688.124
1558816.582
1557466.902
1556635.704
1555713.028
1554631.347
1553402.389
1552050.507
1550574.707
1548988.378
1546942.685
1542994.118
1537915.023
1552424.483
1623455.491
1706643.085
1787844.005
1855707.962
1870592.591
1853712.692
1832475.02
1811694.507
1791096.366
1770968.514
1751892.006
1735609.605
1727126.975
1730702.226
1743184.278
1757998.808
1771997.179
1784694.309
1795933.405
1805526.344
1813491.461
1820139.51
1825896.69
1831107.891
1835944.56
1840445.633
1844614.706
1848461.196
1852002.409
1855257.324
1858253.765
1861023.828
1863636.053
1866247.148
1868857.105
1516486.642
1526123.469
1524341.756
1523053.325
1522244.548
1521279.321
1520023.363
1518508.297
1516719.064
1513840.763
1508463.742
1509298.941
1552606.828
1624086.498
1699919.357
1774775.39
1835932.09
1839403.867
1821155.296
1801071.22
1781129.335
1760989.223
1741137.495
1722120.798
1705121.387
1694451.745
1695343.329
1706526.32
1721479.115
1736050.332
1749404.357
1761399.091
1771822.079
1780584.789
1787894.23
1794158.366
1799767.852
1804951.008
1809773.838
1814245.068
1818372.435
1822172.931
1825664.236
1828873.198
1831838.518
1834599.2
1837184.085
1839641.518
1842107.937
1844579.002
1490618.613
1498802.699
1496078.249
1493593.891
1491255.533
1488759.52
1485463.904
1480352.987
1479891.055
1512283.204
1572324.457
1638014.414
1704515.342
1769845.05
1814796.466
1807292.505
1788555.625
1769832.758
1750853.489
1731366.003
1711997.737
1693259.926
1675935.133
1663581.818
1661881.185
1671419.593
1686202.919
1701194.892
1715076.965
1727713.565
1738904.994
1748468.044
1756476.942
1763271.858
1769260.711
1774742.61
1779837.533
1784569.381
1788946.746
1792979.863
1796686.744
1800088.591
1803219.864
1806123.439
1808840.053
1811395.06
1813799.08
1816089.874
1818397.245
1820718.461
1426780.383
1437616.153
1435896.833
1433750.18
1434974.209
1456124.145
1498474.027
1547675.405
1600046.096
1655154.586
1713259.277
1765339.616
1778819.731
1766894.747
1750850.108
1734215.368
1716659.859
1698424.659
1680153.695
1662271.957
1645279.629
1632061.008
1628444.013
1636433.728
1650892.106
1666222.658
1680557.666
1693719.685
1705547.133
1715829.821
1724539.857
1731915.292
1738333.196
1744133.456
1749500.602
1754485.91
1759098.965
1763351.194
1767261.336
1770847.347
1774137.446
1777171.908
1779994.978
1782642.989
1785137.959
1787491.414
1789710.596
1791830.582
1793972.939
1796132.371
1499932.068
1516343.607
1531216.092
1553338.793
1582138.144
1616030.585
1654891.642
1698581.403
1740504.926
1754970.038
1746000.842
1732776.08
1718932.6
1703620.893
1686959.567
1669605.18
1652148.246
1634878.871
1618084.582
1604328.58
1599147.222
1605433.685
1619081.391
1634330.302
1648809.799
1662231.618
1674458.166
1685264.802
1694529.203
1702376.06
1709134.29
1715176.38
1720751.339
1725938.651
1730748.686
1735188.806
1739276.126
1743029.52
1746470.1
1749632.105
1752558.293
1755289.476
1757854.862
1760272.545
1762556.425
1764717.069
1766760.441
1768718.206
1770700.703
1772706.969
1673130.794
1676450.643
1690434.994
1711057.996
1734046.753
1743503.649
1737370.915
1727706.727
1717345.439
1705825.489
1692600.783
1677965.347
1662004.23
1645187.332
1628273.865
1611467.045
1594921.173
1580857.913
1574502.007
1579078.143
1591398.467
1605973.975
1620048.037
1633253.658
1645487.199
1656504.371
1666106.511
1674304.983
1681343.17
1687561.894
1693245.953
1698532.785
1703454.622
1708016.557
1712228.559
1716106.698
1719665.854
1722931.984
1725943.425
1728743.154
1731366.292
1733834.283
1736161.666
1738362.058
1740448.121
1742428.646
1744307.141
1746113.188
1747952.619
1749819.823
1727652.3
1713549.356
1712709.399
1709771.614
1704572.011
1698010.454
1689919.1
1680108.725
1668541.48
1655134.076
1640497.322
1624899.296
1608419.619
1592173.326
1576332.384
1562635.741
1555872.536
1559074.281
1569719.866
1582872.717
1595913.613
1608366.573
1620115.088
1630907.7
1640492.065
1648774.73
1655890.39
1662128.305
1667788.748
1673059.669
1677994.675
1682594.884
1686861.804
1690806.077
1694440.342
1697780.132
1700854.77
1703703.419
1706364.49
1708865.618
1711223.097
1713449.347
1715557.187
1717556.925
1719458.8
1721269.279
1722993.669
1724658.025
1726361.346
1728095.777
1708914.068
1690049.431
1688506.461
1683900.504
1676179.037
1666244.236
1654639.007
1641378.489
1626969.686
1611588.374
1596036.418
1579684.474
1563925.372
1551061.983
1544545.72
1546605.618
1555070.19
1566051.312
1577302.02
1588350.181
1599048.217
1609115.205
1618243.742
1626242.877
1633150.233
1639185.685
1644634.035
1649714.354
1654505.272
1659009.744
1663219.797
1667136.386
1670766.313
1674115.805
1677202.972
1680059.298
1682722.649
1685224.645
1687584.336
1689813.73
1691923.679
1693925.256
1695828.429
1697641.664
1699373.814
1701031.303
1702614.869
1704145.884
1705717.557
1707324.374
1664562.662
1643487.583
1641022.153
1635326.066
1626924.249
1616339.407
1604354.446
1591715.895
1577789.489
1563765.712
1550025.288
1539258.561
1534760.393
1536853.524
1543498.211
1552283.726
1561634.344
1571133.283
1580607.207
1589749.196
1598201.361
1605742.137
1612334.714
1618113.758
1623307.851
1628133.638
1632708.983
1637053.374
1641151.752
1644993.654
1648577.802
1651905.924
1654983.186
1657829.74
1660477.693
1662960.781
1665303.322
1667517.249
1669612.003
1671598.667
1673486.145
1675283.137
1676996.195
1678635.518
1680208.482
1681718.18
1683165.026
1684572.159
1686022.732
1687510.099
1617245.122
1596619.285
1594326.102
1588687.769
1580458.737
1570789.3
1559713.987
1548513.023
1538275.278
1531291.343
1528816.724
1531076.785
1536043.619
1542463.201
1549782.235
1557560.657
1565585.745
1573541.372
1581070.986
1587947.248
1594062.155
1599451.149
1604278.473
1608752.903
1613022.089
1617118.365
1621027.007
1624723.962
1628199.03
1631448.598
1634469.125
1637269.135
1639871.486
1642307.517
1644604.704
1646779.463
1648840.688
1650795.86
1652653.967
1654422.623
1656108.44
1657716.175
1659254.092
1660729.301
1662146.975
1663510.728
1664824.934
1666112.915
1667449.267
1668822.217
1567601.835
1548578.921
1546819.883
1542415.424
1535990.062
1529677.785
1524689.564
1521857.409
1521844.503
1523840.35
1527629.484
1532460.836
1538210.097
1544624.774
1551439.103
1558367.227
1565070.272
1571336.203
1577014.36
1582057.344
1586566.147
1590751.382
1594758.826
1598631.838
1602357.498
1605910.894
1609275.541
1612442.223
1615404.394
1618158.203
1620714.314
1623096.814
1625337.814
1627460.051
1629473.761
1631384.98
1633200.83
1634929.576
1636577.67
1638149.148
1639651.027
1641089.858
1642470.47
1643795.069
1645070.726
1646303.863
1647497.581
1648671.044
1649895.827
1651159.142
1522294.522
1508435.244
1509214.319
1509328.611
1509034.811
1509307.096
1510698.739
1513155.909
1516478.698
1520802.443
1525838.527
1531534.822
1537607.076
1543853.271
1549962.37
1555771.9
1561123.367
1565908.868
1570228.855
1574233.952
1578046.508
1581735.323
1585303.31
1588718.891
1591972.127
1595057.036
1597957.959
1600664.518
1603179.684
1605520.49
1607713.641
1609784.435
1611748.872
1613614.5
1615385.839
1617068.378
1618669.325
1620195.419
1621650.898
1623042.642
1624375.957
1625656.851
1626889.179
1628078.593
1629229.575
1630345.91
1631430.988
1632502.259
1633621.767
1634778.519
1498635.878
1490942.99
1492978.169
1495014.16
1497198.907
1500113.918
1503711.796
1507943.337
1512830.959
1518172.21
1523818.95
1529611.544
1535328.605
1540806.183
1545928.352
1550559.788
1554786.376
1558705.893
1562409.586
1565967.298
1569432.836
1572779.049
1575974.922
1579006.765
1581866.565
1584545.759
1587033.523
1589340.595
1591491.353
1593514.017
1595431.044
1597253.856
1598985.336
1600629.876
1602194.549
1603684.824
1605104.922
1606457.923
1607750.384
1608988.221
1610175.105
1611315.692
1612417.31
1613488.517
1614532.841
1615549.011
1616539.409
1617519.784
1618545.211
1619602.483
1490317.937
1486317.063
1488550.216
1491223.639
1494330.294
1498016.876
1502239.481
1506921.53
1511934.426
1517075.9
1522266.025
1527285.241
1532074.546
1536497.079
1540596.118
1544422.757
1548023.651
1551511.824
1554911.239
1558195.416
1561338.365
1564315.777
1567133.471
1569794.962
1572281.988
1574591.397
1576736.637
1578741.963
1580631.123
1582417.986
1584113.023
1585722.178
1587251.456
1588706.226
1590092.189
1591414.522
1592677.758
1593886.354
1595043.207
1596148.45
1597210.882
1598237.78
1599235.031
1600207.497
1601160.645
1602093.696
1603003.864
1603905.565
1604849.382
1605822.349
1489943.749
1487721.516
1489772.8
1492336.644
1495351.34
1498848.085
1502759.777
1506983.619
1511324.147
1515682.615
1519934.483
1523993.424
1527836.549
1531491.409
1534954.809
1538346.763
1541658.851
1544855.727
1547920.222
1550869.304
1553679.083
1556332.753
1558818.543
1561122.574
1563258.897
1565248.688
1567120.872
1568893.549
1570575.181
1572170.786
1573683.925
1575119.176
1576482.904
1577781.386
1579018.16
1580199.042
1581328.781
1582412.832
1583453.433
1584453.952
1585418.941
1586356.525
1587271.595
1588167.877
1589047.763
1589912.186
1590756.02
1591593.048
1592468.383
1593368.382
1491794.417
1490323.189
1492096.724
1494329.35
1496929.494
1499904.837
1503194.998
1506659.292
1510158.184
1513661.578
1517050.563
1520382.683
1523609.947
1526807.43
1529955.527
1533002.131
1535976.418
1538855.776
1541605.896
1544200.067
1546649.415
1548957.319
1551109.355
1553109.514
1554973.863
1556724.404
1558383.065
1559958.227
1561454.543
1562879.132
1564235.621
1565526.728
1566754.18
1567920.878
1569035.541
1570102.512
1571124.226
1572104.257
1573050.295
1573969.666
1574861.231
1575731.028
1576583.716
1577421.234
1578244.619
1579053.05
1579844.456
1580628.848
1581445.771
1582282.722
1493853.654
1492600.179
1494058.322
1495870.506
1497940.72
1500312.607
1502926.135
1505640.582
1508440.524
1511278.897
1514136.836
1517004.965
1519887.454
1522707.583
1525511.213
1528245.287
1530858.776
1533372.666
1535786.102
1538065.313
1540184.834
1542157.324
1544002.455
1545747.013
1547400.41
1548969.163
1550453.218
1551862.153
1553203.117
1554480.352
1555698.476
1556862.567
1557975.423
1559038.202
1560053.417
1561025.57
1561959.97
1562862.758
1563739.682
1564595.469
1565432.577
1566252.4
1567057.86
1567850.073
1568629.323
1569394.447
1570143.13
1570882.163
1571649.382
1572434.438
1495144.716
1493894.064
1495048.469
1496447.612
1498063.511
1499954.091
1502024.472
1504233.919
1506596.339
1509008.689
1511523.892
1514035.89
1516569.878
1519072.805
1521505.826
1523896.87
1526200.894
1528379.829
1530441.94
1532397.386
1534230.914
1535942.468
1537558.342
1539097.113
1540568.326
1541975.009
1543313.121
1544583.309
1545793.967
1546950.162
1548054.14
1549110.873
1550126.077
1551102.816
1552035.722
1552932.904
1553801.908
1554647.694
1555473.85
1556283.902
1557079.778
1557861.596
1558630.514
1559387.592
1560132.387
1560861.034
1561571.63
1562271.922
1562997.243
1563736.148
1495449.58
1494131.603
1495078.656
1496225.994
1497576.739
1499133.221
1500858.262
1502781.442
1504808.176
1506931.041
1509105.596
1511313.096
1513498.683
1515690.745
1517815.647
1519866.257
1521854.619
1523736.386
1525499.26
1527163.704
1528755.579
1530273.892
1531715.085
1533091.006
1534406.005
1535664.433
1536874.723
1538031.543
1539132.929
1540186.254
1541197.245
1542168.854
1543103.324
1544003.22
1544872.045
1545713.645
1546534.199
1547337.724
1548127.001
1548903.042
1549666.186
1550417.438
1551157.594
1551886.169
1552600.2
1553294.755
1553972.118
1554638.821
1555326.933
1556025.4
1495120.458
1493768.663
1494626.557
1495649.195
1496803.439
1498115.431
1499630.846
1501303.32
1503054.267
1504913.376
1506791.152
1508716.704
1510619.025
1512499.798
1514344.968
1516102.337
1517783.864
1519399.282
1520926.424
1522380.928
1523780.443
1525135.587
1526433.869
1527671.206
1528857.674
1529997.185
1531093.041
1532149.103
1533159.49
1534129.233
1535063.369
1535963.123
1536830.6
1537671.462
1538490.921
1539290.44
1540074.764
1540846.687
1541607.118
1542355.85
1543091.55
1543817.944
1544533.224
1545234.023
1545916.922
1546582.284
1547229.804
1547865.207
1548519.16
1549182.958
1494545.42
1493170.393
1493951.949
1494849.51
1495831.246
1496982.726
1498316.443
1499755.12
1501293.664
1502900.071
1504540.226
1506195.236
1507846.606
1509452.99
1511026.123
1512532.638
1513972.812
1515367.853
1516718.772
1518015.299
1519265.748
1520475.025
1521646.854
1522769.264
1523848.155
1524887.597
1525888.851
1526855.85
1527790.466
1528690.256
1529557.709
1530396.959
1531213.104
1532009.916
1532789.804
1533556.814
1534313.088
1535059.3
1535794.992
1536518.345
1537232.087
1537935.707
1538625.199
1539297.821
1539951.341
1540589.459
1541208.761
1541814.8
1542435.203
1543066.715
1493814.515
1492400.88
1493110.218
1493892.579
1494744.399
1495773.066
1496936.7
1498178.181
1499522.968
1500904.377
1502330.079
1503745.197
1505161.523
1506531.093
1507866.426
1509174.273
1510435.773
1511665.812
1512873.851
1514037.916
1515162.211
1516252.355
1517312.558
1518337.587
1519324.708
1520277.95
1521200.663
1522095.249
1522963.231
1523800.264
1524612.211
1525404.543
1526180.633
1526942.371
1527691.238
1528432.104
1529164.652
1529888.108
1530601.005
1531301.403
1531993.817
1532672.635
1533335.267
1533979.823
1534606.561
1535217.705
1535809.299
1536384.906
1536975.105
1537576.25
1492968.5
1491518.447
1492160.215
1492849.417
1493611.368
1494506.209
1495506.383
1496592.111
1497751.881
1498935.384
1500151.729
1501356.764
1502559.605
1503739.877
1504900.371
1506053.438
1507176.773
1508276.11
1509355.317
1510405.478
1511424.561
1512415.855
1513380.841
1514319.895
1515227.329
1516108.11
1516964.777
1517797.018
1518603.378
1519388.351
1520156.783
1520911.687
1521655.054
1522387.682
1523111.633
1523829.803
1524540.336
1525241.955
1525932.693
1526611.841
1527279.457
1527932.389
1528568.354
1529183.875
1529785.385
1530370.106
1530932.885
1531478.983
1532041.786
1532612.476
1492038.582
1490553.578
1491132.22
1491753.5
1492421.441
1493188.677
1494037.233
1494974.437
1495961.482
1496970.904
1498004.881
1499037.591
1500074.025
1501113.899
1502143.723
1503169.264
1504176.877
1505164.285
1506134.154
1507088.903
1508018.296
1508924.72
1509808.781
1510671.204
1511510.692
1512329.531
1513127.142
1513902.795
1514658.95
1515402.621
1516135.694
1516860.066
1517576.313
1518282.643
1518985.215
1519682.08
1520371.775
1521052.395
1521718.55
1522374.153
1523016.707
1523643.233
1524249.777
1524840.253
1525416.389
1525973.144
1526506.467
1527027.324
1527561.768
1528100.642
1491028.245
1489517.662
1490049.321
1490605.139
1491176.006
1491825.775
1492545.533
1493338.449
1494170.505
1495037.12
1495926.257
1496831.191
1497744.839
1498670.144
1499589.899
1500505.507
1501412.244
1502305.945
1503187.447
1504055.994
1504905.712
1505737.544
1506552.104
1507348.984
1508129.371
1508891.444
1509636.222
1510366.224
1511081.626
1511790.979
1512494.892
1513193.327
1513884.505
1514568.165
1515249.711
1515926.166
1516594.761
1517249.883
1517891.992
1518523.297
1519139.886
1519737.348
1520316.876
1520883.467
1521432.31
1521959.655
1522466.976
1522963.015
1523468.517
1523975.727
1489932.789
1488416.92
1488907.329
1489392.258
1489872.789
1490418.848
1491029.63
1491704.527
1492418.624
1493173.483
1493952.3
1494756.354
1495570.833
1496396.002
1497219.723
1498042.455
1498863.812
1499677.251
1500481.529
1501273.837
1502053.684
1502821.499
1503576.631
1504315.654
1505040.884
1505753.289
1506454.83
1507144.818
1507828.283
1508510.098
1509189.222
1509863.614
1510529.898
1511194.029
1511855.889
1512511.556
1513154.839
1513783.094
1514402.61
1515008.782
1515597.048
1516166.612
1516722.574
1517262.359
1517782.456
1518282.764
1518766.46
1519236.239
1519711.895
1520192.235
1488765.24
1487256.774
1487702.322
1488126.067
1488533.106
1488996.543
1489525.083
1490110.835
1490737.789
1491403.56
1492095.159
1492810.211
1493537.944
1494275.693
1495019.576
1495766.329
1496511.753
1497254.008
1497989.936
1498715.708
1499435.596
1500148.285
1500849.481
1501534.134
1502212.257
1502884.65
1503549.676
1504204.727
1504862.822
1505521.141
1506176.954
1506826.781
1507471.782
1508117.727
1508759.474
1509390.391
1510005.491
1510611.366
1511206.217
1511784.766
1512344.21
1512889.465
1513420.017
1513932.044
1514424.595
1514901.304
1515359.826
1515801.347
1516251.372
1516707.224
1487546.915
1486054.556
1486463.848
1486840.397
1487192.181
1487594.605
1488060.809
1488577.284
1489133.707
1489724.835
1490342.054
1490979.454
1491633.903
1492300.044
1492975.888
1493656.012
1494334.247
1495013.842
1495690.339
1496359.004
1497026.979
1497687.898
1498335.496
1498977.389
1499618.359
1500256.229
1500888.238
1501518.565
1502153.911
1502790.054
1503422.671
1504048.505
1504676.609
1505303.19
1505920.6
1506522.142
1507114.012
1507696.962
1508265.028
1508814.174
1509348.711
1509869.935
1510373.608
1510857.636
1511326.303
1511778.892
1512209.977
1512627.296
1513054.302
1513481.974
1486314.663
1484849.607
1485230.438
1485571.048
1485881.717
1486238.824
1486651.416
1487109.61
1487606.059
1488132.224
1488686.466
1489261.071
1489854.515
1490458.102
1491073.178