/*--------------------------------*- C++ -*----------------------------------*\
  =========                 |
  \\      /  F ield         | OpenFOAM: The Open Source CFD Toolbox
   \\    /   O peration     | Website:  https://openfoam.org
    \\  /    A nd           | Version:  7
     \\/     M anipulation  |
\*---------------------------------------------------------------------------*/
FoamFile
{
    version     2.0;
    format      ascii;
    class       surfaceScalarField;
    location    "0.0027";
    object      phi;
}
// * * * * * * * * * * * * * * * * * * * * * * * * * * * * * * * * * * * * * //

dimensions      [1 0 -1 0 0 0 0];

internalField   nonuniform List<scalar> 
27670
(
-3.322231532e-14
4.528078111e-11
-1.310141965e-13
1.325029631e-10
-2.921862504e-13
2.148790379e-10
-5.168575523e-13
2.926186493e-10
-8.061689946e-13
3.659229427e-10
-1.161997612e-12
4.349848754e-10
-1.586689858e-12
4.999895402e-10
-2.082833581e-12
5.611144865e-10
-2.653059646e-12
6.185300435e-10
-3.299866671e-12
6.72399579e-10
-4.025467576e-12
7.228798205e-10
-4.831653798e-12
7.701210965e-10
-5.719674157e-12
8.142675852e-10
-6.690125493e-12
8.55457572e-10
-7.742852614e-12
8.938236757e-10
-8.876853247e-12
9.294930545e-10
-1.009025431e-11
9.625877144e-10
-1.138027381e-11
9.932246391e-10
-1.274291174e-11
1.021515772e-09
-1.417300308e-11
1.0475685e-09
-1.566414396e-11
1.071485748e-09
-1.720879269e-11
1.093366318e-09
-1.879815531e-11
1.113304801e-09
-2.042176191e-11
1.131391474e-09
-2.206786926e-11
1.147713221e-09
-2.372335035e-11
1.162353241e-09
-2.537320284e-11
1.175390718e-09
-2.700129005e-11
1.186902278e-09
-2.85894004e-11
1.196960351e-09
-3.011792551e-11
1.205634977e-09
-3.156567437e-11
1.212993045e-09
-3.290923723e-11
1.219097941e-09
-3.412334469e-11
1.224010676e-09
-3.518086856e-11
1.227789611e-09
-3.605289389e-11
1.230490668e-09
-3.670785562e-11
1.232166451e-09
-3.711228347e-11
1.232867995e-09
-3.722999802e-11
1.232643246e-09
-3.70230213e-11
1.23153894e-09
-3.645018975e-11
1.229598321e-09
-3.546828528e-11
1.226863801e-09
-3.403155719e-11
1.223375377e-09
-3.209194698e-11
1.219171409e-09
-2.959938332e-11
1.214288865e-09
-2.650155774e-11
1.208762696e-09
-2.274436963e-11
1.202626758e-09
-1.827255251e-11
1.195913867e-09
-1.302968437e-11
1.188655474e-09
-6.958564514e-12
1.180881842e-09
1.172620718e-09
-8.395618261e-14
4.536473729e-11
-3.301075955e-13
1.327491145e-10
-7.297572217e-13
2.152786875e-10
-1.274608264e-12
2.931635004e-10
-1.956714227e-12
3.666050486e-10
-2.768299608e-12
4.357964608e-10
-3.701615528e-12
5.009228561e-10
-4.748796067e-12
5.62161667e-10
-5.901824148e-12
6.196830716e-10
-7.152239046e-12
6.736499939e-10
-8.491101167e-12
7.242186827e-10
-9.908900674e-12
7.71538896e-10
-1.139547959e-11
8.157541641e-10
-1.29400283e-11
8.570021207e-10
-1.453120926e-11
8.954148566e-10
-1.615669766e-11
9.311185429e-10
-1.780338359e-11
9.642344004e-10
-1.945781178e-11
9.948790673e-10
-2.110547709e-11
1.023163437e-09
-2.273138343e-11
1.049194406e-09
-2.431999854e-11
1.073074363e-09
-2.585525391e-11
1.094901573e-09
-2.732063127e-11
1.114770178e-09
-2.869961846e-11
1.132770462e-09
-2.997525314e-11
1.148988855e-09
-3.113064561e-11
1.163508633e-09
-3.214914726e-11
1.17640922e-09
-3.301450012e-11
1.187767631e-09
-3.371084303e-11
1.197656694e-09
-3.422288633e-11
1.20614702e-09
-3.45363364e-11
1.213306495e-09
-3.463817507e-11
1.219199779e-09
-3.451674906e-11
1.22388925e-09
-3.41619543e-11
1.227434816e-09
-3.356571628e-11
1.22989443e-09
-3.272238269e-11
1.231323118e-09
-3.162880726e-11
1.23177442e-09
-3.02848593e-11
1.231299298e-09
-2.869364761e-11
1.229947728e-09
-2.686212455e-11
1.227766798e-09
-2.4801047e-11
1.224802723e-09
-2.25253138e-11
1.221099644e-09
-2.005449476e-11
1.21670059e-09
-1.741282432e-11
1.211647194e-09
-1.462973956e-11
1.205979611e-09
-1.173997666e-11
1.199736996e-09
-8.78344392e-12
1.192957334e-09
-5.805786556e-12
1.185677816e-09
-2.858409022e-12
1.177934464e-09
1.169762309e-09
-9.824785483e-14
4.546298515e-11
-3.846276781e-13
1.330354943e-10
-8.46333141e-13
2.157403929e-10
-1.469964353e-12
2.937871316e-10
-2.241506749e-12
3.67376591e-10
-3.146468397e-12
4.367014224e-10
-4.170051837e-12
5.019464396e-10
-5.297185143e-12
5.632888003e-10
-6.512521134e-12
6.208984076e-10
-7.800522585e-12
6.749379954e-10
-9.145576585e-12
7.255637367e-10
-1.053215136e-11
7.729254708e-10
-1.194445485e-11
8.171664676e-10
-1.336689003e-11
8.584245559e-10
-1.478398821e-11
8.968319548e-10
-1.618034535e-11
9.325149001e-10
-1.754095121e-11
9.655950062e-10
-1.885094802e-11
9.961890641e-10
-2.009598241e-11
1.024408472e-09
-2.126265013e-11
1.050361074e-09
-2.233793083e-11
1.074149643e-09
-2.330950889e-11
1.095873151e-09
-2.416592737e-11
1.115626596e-09
-2.489704663e-11
1.133501581e-09
-2.549368559e-11
1.149585494e-09
-2.594777037e-11
1.163962718e-09
-2.625285594e-11
1.176714306e-09
-2.64034099e-11
1.187918185e-09
-2.639575727e-11
1.197649041e-09
-2.622770156e-11
1.205978964e-09
-2.589852731e-11
1.212977321e-09
-2.540917754e-11
1.218710429e-09
-2.476256084e-11
1.223242634e-09
-2.396287997e-11
1.226635135e-09
-2.301643873e-11
1.228947989e-09
-2.193098244e-11
1.230237662e-09
-2.071612804e-11
1.230559566e-09
-1.938338227e-11
1.229966552e-09
-1.794543413e-11
1.22850978e-09
-1.641692701e-11
1.226238291e-09
-1.481366159e-11
1.223199458e-09
-1.315297717e-11
1.21943896e-09
-1.145300335e-11
1.215000616e-09
-9.732453686e-12
1.209926645e-09
-8.010417901e-12
1.204257575e-09
-6.30576642e-12
1.198032344e-09
-4.636635081e-12
1.191288203e-09
-3.019770211e-12
1.184060951e-09
-1.469972546e-12
1.176384667e-09
1.168292337e-09
-8.596523895e-14
4.554895038e-11
-3.369365844e-13
1.332864656e-10
-7.406632262e-13
2.161441196e-10
-1.28353594e-12
2.943300043e-10
-1.951012561e-12
3.680440677e-10
-2.727863934e-12
4.374782738e-10
-3.598387354e-12
5.02816963e-10
-4.546724654e-12
5.642371376e-10
-5.556795605e-12
6.219084785e-10
-6.612531968e-12
6.759937317e-10
-7.698327289e-12
7.26649532e-10
-8.798652793e-12
7.740257963e-10
-9.898665991e-12
8.182664808e-10
-1.098378759e-11
8.595096775e-10
-1.204028223e-11
8.978884494e-10
-1.305509463e-11
9.335297125e-10
-1.40161074e-11
9.66556019e-10
-1.491192851e-11
9.970848852e-10
-1.57324508e-11
1.025228994e-09
-1.646844173e-11
1.051097065e-09
-1.711177719e-11
1.074792979e-09
-1.765556405e-11
1.096416938e-09
-1.80941745e-11
1.116065207e-09
-1.842293049e-11
1.133830337e-09
-1.863879795e-11
1.149801362e-09
-1.873992884e-11
1.164063849e-09
-1.872554281e-11
1.176699919e-09
-1.859605976e-11
1.187788701e-09
-1.835348119e-11
1.197406463e-09
-1.80007248e-11
1.205626208e-09
-1.754209711e-11
1.212518693e-09
-1.698277669e-11
1.218151109e-09
-1.632946215e-11
1.222589319e-09
-1.558963552e-11
1.225895308e-09
-1.477148695e-11
1.22812984e-09
-1.388446078e-11
1.229350635e-09
-1.293826496e-11
1.22961337e-09
-1.194340247e-11
1.228971689e-09
-1.091060067e-11
1.227476978e-09
-9.850870699e-12
1.225178561e-09
-8.775225338e-12
1.222123812e-09
-7.694501847e-12
1.218358236e-09
-6.619198534e-12
1.213925313e-09
-5.559423557e-12
1.20886687e-09
-4.524644406e-12
1.203222796e-09
-3.523555021e-12
1.197031255e-09
-2.564016056e-12
1.190328664e-09
-1.653029792e-12
1.183149965e-09
-7.968550721e-13
1.175528492e-09
1.167495482e-09
-6.648582724e-14
4.561543621e-11
-2.597983867e-13
1.334797782e-10
-5.698194016e-13
2.164541406e-10
-9.852475196e-13
2.947454324e-10
-1.493803699e-12
3.685526238e-10
-2.082517305e-12
4.380669874e-10
-2.738025373e-12
5.03472471e-10
-3.446735572e-12
5.649458478e-10
-4.195028811e-12
6.226567718e-10
-4.969707053e-12
6.7676841e-10
-5.75764737e-12
7.274374723e-10
-6.546241974e-12
7.748143909e-10
-7.323684803e-12
8.190439237e-10
-8.078661174e-12
8.602646539e-10
-8.800698618e-12
8.986104869e-10
-9.480480449e-12
9.342094943e-10
-1.010932398e-11
9.671848625e-10
-1.067968091e-11
9.976552422e-10
-1.118515127e-11
1.025734464e-09
-1.162003774e-11
1.051531951e-09
-1.198002986e-11
1.075152971e-09
-1.226192772e-11
1.096698836e-09
-1.246356012e-11
1.116266839e-09
-1.258368555e-11
1.133950462e-09
-1.262206277e-11
1.149839739e-09
-1.257966412e-11
1.16402145e-09
-1.245817681e-11
1.176578432e-09
-1.226031057e-11
1.187590835e-09
-1.198963888e-11
1.197135791e-09
-1.165036801e-11
1.205286937e-09
-1.1247354e-11
1.212115679e-09
-1.078635367e-11
1.217690109e-09
-1.027312052e-11
1.222076086e-09
-9.714394078e-12
1.225336582e-09
-9.116743445e-12
1.227532189e-09
-8.487194664e-12
1.228721087e-09
-7.832881251e-12
1.228959056e-09
-7.160891695e-12
1.2282997e-09
-6.478290744e-12
1.226794377e-09
-5.791957749e-12
1.224492228e-09
-5.10861816e-12
1.221440473e-09
-4.434678189e-12
1.217684296e-09
-3.776106039e-12
1.213266741e-09
-3.138476958e-12
1.208229241e-09
-2.526961556e-12
1.20261128e-09
-1.94644234e-12
1.196450735e-09
-1.40087239e-12
1.189783094e-09
-8.931121782e-13
1.182642205e-09
-4.251558191e-13
1.175060536e-09
1.167070326e-09
-4.868287643e-14
4.566411909e-11
-1.905228151e-13
1.336216181e-10
-4.177601723e-13
2.16681378e-10
-7.214353294e-13
2.950491076e-10
-1.091833069e-12
3.689230216e-10
-1.518711492e-12
4.384938658e-10
-1.991456479e-12
5.03945216e-10
-2.499448762e-12
5.654538401e-10
-3.031962107e-12
6.231892851e-10
-3.578932768e-12
6.773153807e-10
-4.13021505e-12
7.279887546e-10
-4.676469391e-12
7.753606453e-10
-5.208942482e-12
8.195763967e-10
-5.719708769e-12
8.607754202e-10
-6.2012613e-12
8.990920394e-10
-6.647250322e-12
9.346554833e-10
-7.052150612e-12
9.675897628e-10
-7.411161038e-12
9.980142526e-10
-7.720444372e-12
1.026043748e-09
-7.977083328e-12
1.05178859e-09
-8.179152165e-12
1.07535504e-09
-8.325484133e-12
1.096845168e-09
-8.415672952e-12
1.116357028e-09
-8.450193674e-12
1.133984983e-09
-8.430221147e-12
1.149819766e-09
-8.357433142e-12
1.163948662e-09
-8.234554759e-12
1.176455554e-09
-8.064539093e-12
1.18742082e-09
-7.850946088e-12
1.196922198e-09
-7.597801983e-12
1.205033793e-09
-7.309368917e-12
1.211827246e-09
-6.990466774e-12
1.217371207e-09
-6.645676642e-12
1.221731296e-09
-6.280240025e-12
1.224971145e-09
-5.899236786e-12
1.227151186e-09
-5.50763613e-12
1.228329486e-09
-5.110670909e-12
1.228562091e-09
-4.713413826e-12
1.227902443e-09
-4.320600534e-12
1.226401564e-09
-3.936899169e-12
1.224108527e-09
-3.566923977e-12
1.221070498e-09
-3.214819061e-12
1.217332191e-09
-2.88443925e-12
1.212936361e-09
-2.579428727e-12
1.20792423e-09
-2.302408482e-12
1.20233426e-09
-2.055180993e-12
1.196203508e-09
-1.839623487e-12
1.189567537e-09
-1.576866129e-12
1.182379448e-09
-9.570207971e-13
1.17444069e-09
1.166113305e-09
-3.49070858e-14
4.569902617e-11
-1.362300769e-13
1.337229411e-10
-2.981766184e-13
2.168433245e-10
-5.140946824e-13
2.952650256e-10
-7.767030463e-13
3.691856299e-10
-1.078384967e-12
4.387955477e-10
-1.411104919e-12
5.04277936e-10
-1.767031486e-12
5.658097667e-10
-2.138357761e-12
6.235606114e-10
-2.517447915e-12
6.776944708e-10
-2.897309158e-12
7.283686158e-10
-3.271184918e-12
7.75734521e-10
-3.632949381e-12
8.199381612e-10
-3.977199016e-12
8.611196698e-10
-4.29915615e-12
8.994139965e-10
-4.594610752e-12
9.349509379e-10
-4.86020565e-12
9.678553577e-10
-5.093275592e-12
9.982473225e-10
-5.291845943e-12
1.026242318e-09
-5.454638308e-12
1.051951382e-09
-5.581207877e-12
1.075481609e-09
-5.671491886e-12
1.096935452e-09
-5.726043464e-12
1.11641158e-09
-5.746274792e-12
1.134005214e-09
-5.733875623e-12
1.149807367e-09
-5.691036027e-12
1.163905823e-09
-5.620353062e-12
1.176384871e-09
-5.524945652e-12
1.187325412e-09
-5.407963562e-12
1.196805216e-09
-5.273111584e-12
1.204898941e-09
-5.12408433e-12
1.211678219e-09
-4.964714269e-12
1.217211836e-09
-4.799197271e-12
1.221565779e-09
-4.631402517e-12
1.224803351e-09
-4.465457028e-12
1.226985241e-09
-4.305502981e-12
1.228169532e-09
-4.155388514e-12
1.228411977e-09
-4.018968832e-12
1.227766023e-09
-3.900002976e-12
1.226282598e-09
-3.801932531e-12
1.224010456e-09
-3.728134529e-12
1.2209967e-09
-3.681327485e-12
1.217285384e-09
-3.663638024e-12
1.212918672e-09
-3.676685695e-12
1.207937278e-09
-3.722290596e-12
1.202379865e-09
-3.615603061e-12
1.19609682e-09
-3.164769376e-12
1.189116703e-09
-2.391684911e-12
1.181606363e-09
-1.327442739e-12
1.173376448e-09
1.164785862e-09
-2.510322449e-14
4.57241294e-11
-9.816264094e-14
1.337960005e-10
-2.149491518e-13
2.16960111e-10
-3.705071211e-13
2.954205836e-10
-5.594157855e-13
3.693745386e-10
-7.759284119e-13
4.390120603e-10
-1.014272679e-12
5.045162802e-10
-1.268512115e-12
5.660640061e-10
-1.533147873e-12
6.238252471e-10
-1.802578226e-12
6.779639012e-10
-2.071806102e-12
7.286378437e-10
-2.336269387e-12
7.759989843e-10
-2.591712861e-12
8.201936047e-10
-2.834505144e-12
8.613624621e-10
-3.061557564e-12
8.99641049e-10
-3.270365857e-12
9.351597462e-10
-3.459009095e-12
9.680440009e-10
-3.626089951e-12
9.984144034e-10
-3.770755957e-12
1.026386984e-09
-3.892681195e-12
1.052073308e-09
-3.992115454e-12
1.075581044e-09
-4.069687853e-12
1.097013024e-09
-4.126557864e-12
1.11646845e-09
-4.164347714e-12
1.134043004e-09
-4.184786911e-12
1.149827806e-09
-4.19038812e-12
1.163911424e-09
-4.183355812e-12
1.176377839e-09
-4.16673262e-12
1.187308789e-09
-4.143196597e-12
1.19678168e-09
-4.116026603e-12
1.204871771e-09
-4.088363209e-12
1.211650555e-09
-4.063396556e-12
1.21718687e-09
-4.044678415e-12
1.221547061e-09
-4.035273376e-12
1.224793946e-09
-4.038552614e-12
1.22698852e-09
-4.057780883e-12
1.22818876e-09
-4.095824037e-12
1.22845002e-09
-4.155783831e-12
1.227825983e-09
-4.240246416e-12
1.226367061e-09
-4.351543555e-12
1.224121754e-09
-4.491153326e-12
1.221136309e-09
-4.660135197e-12
1.217454366e-09
-4.860436176e-12
1.213118973e-09
-4.855549794e-12
1.207932391e-09
-4.51357838e-12
1.202037894e-09
-3.856773709e-12
1.195440016e-09
-2.91331633e-12
1.188173245e-09
-1.78892221e-12
1.180481969e-09
-8.159616923e-13
1.172403488e-09
1.163969901e-09
-1.879125774e-14
4.574292066e-11
-7.330640545e-14
1.338505157e-10
-1.603616061e-13
2.170471662e-10
-2.763267653e-13
2.955365488e-10
-4.172232406e-13
3.695154351e-10
-5.787584573e-13
4.391735956e-10
-7.568200487e-13
5.046943418e-10
-9.470164488e-13
5.662542025e-10
-1.145334049e-12
6.240235647e-10
-1.347958043e-12
6.781665252e-10
-1.551261368e-12
7.28841147e-10
-1.752059522e-12
7.761997825e-10
-1.947542663e-12
8.203890878e-10
-2.135307845e-12
8.615502273e-10
-2.313381881e-12
8.99819123e-10
-2.480228706e-12
9.353265931e-10
-2.634747929e-12
9.681985202e-10
-2.776377735e-12
9.985560332e-10
-2.904945366e-12
1.026515552e-09
-3.020621711e-12
1.052188984e-09
-3.123861884e-12
1.075684284e-09
-3.215723195e-12
1.097104886e-09
-3.297416221e-12
1.116550143e-09
-3.37046846e-12
1.134116056e-09
-3.436687253e-12
1.149894025e-09
-3.498035448e-12
1.163972772e-09
-3.556737493e-12
1.176436541e-09
-3.615090975e-12
1.187367142e-09
-3.675552156e-12
1.196842141e-09
-3.740662807e-12
1.204936882e-09
-3.812906371e-12
1.211722799e-09
-3.895016609e-12
1.21726898e-09
-3.989351942e-12
1.221641396e-09
-4.098534864e-12
1.224903128e-09
-4.224920188e-12
1.227114905e-09
-4.370663022e-12
1.228334503e-09
-4.537995043e-12
1.228617352e-09
-4.728308578e-12
1.228016296e-09
-4.942801334e-12
1.226581554e-09
-5.181963568e-12
1.224360916e-09
-5.44732605e-12
1.221401672e-09
-5.480045093e-12
1.217487085e-09
-5.175664666e-12
1.212814592e-09
-4.555292244e-12
1.207312019e-09
-3.644378441e-12
1.20112698e-09
-2.651146849e-12
1.194446784e-09
-1.790370865e-12
1.187312469e-09
-1.066582962e-12
1.179758181e-09
-4.739480904e-13
1.171810853e-09
1.163495953e-09
-1.492127914e-14
4.575784194e-11
-5.83716575e-14
1.338939661e-10
-1.279491869e-13
2.171167437e-10
-2.208925465e-13
2.956294921e-10
-3.341334075e-13
3.696286759e-10
-4.645966145e-13
4.393040588e-10
-6.0908169e-13
5.048388269e-10
-7.645862305e-13
5.66409707e-10
-9.280854257e-13
6.241870639e-10
-1.096850227e-12
6.7833529e-10
-1.26839312e-12
7.290126899e-10
-1.44048933e-12
7.763718787e-10
-1.611232015e-12
8.205598305e-10
-1.779084366e-12
8.617180796e-10
-1.942855939e-12
8.999828946e-10
-2.101665295e-12
9.354854024e-10
-2.254940886e-12
9.683517958e-10
-2.402469647e-12
9.98703562e-10
-2.544405607e-12
1.026657488e-09
-2.681315239e-12
1.052325894e-09
-2.813699632e-12
1.075816668e-09
-2.942571999e-12
1.097233758e-09
-3.069191097e-12
1.116676762e-09
-3.194704353e-12
1.13424157e-09
-3.320919381e-12
1.15002024e-09
-3.449175472e-12
1.164101028e-09
-3.581527201e-12
1.176568892e-09
-3.719507765e-12
1.187505123e-09
-3.865269102e-12
1.196987902e-09
-4.020426206e-12
1.205092039e-09
-4.187064137e-12
1.211889437e-09
-4.366866857e-12
1.217448783e-09
-4.561607348e-12
1.221836136e-09
-4.772850925e-12
1.225114372e-09
-5.002025627e-12
1.22734408e-09
-5.250004196e-12
1.228582482e-09
-5.517515421e-12
1.228884863e-09
-5.804263448e-12
1.228303045e-09
-6.11176413e-12
1.226889054e-09
-6.166767573e-12
1.224415919e-09
-5.88114272e-12
1.221116047e-09
-5.274561513e-12
1.216880504e-09
-4.369863282e-12
1.211909894e-09
-3.424246347e-12
1.206366402e-09
-2.59201184e-12
1.200294745e-09
-1.877511287e-12
1.193732284e-09
-1.274790601e-12
1.186709749e-09
-7.720940629e-13
1.179255485e-09
-3.536680668e-13
1.171392427e-09
1.163142285e-09
-1.273947002e-14
4.577058141e-11
-4.978733861e-14
1.339310139e-10
-1.092345751e-13
2.17176191e-10
-1.889413512e-13
2.957091989e-10
-2.866548688e-13
3.697263895e-10
-4.001027333e-13
4.394175066e-10
-5.269278563e-13
5.04965652e-10
-6.649154593e-13
5.665476947e-10
-8.120433316e-13
6.243341918e-10
-9.663197735e-13
6.784895664e-10
-1.126041912e-12
7.29172412e-10
-1.289736598e-12
7.765355734e-10
-1.456178839e-12
8.207262728e-10
-1.62440536e-12
8.618863061e-10
-1.793713856e-12
9.001522031e-10
-1.963666436e-12
9.35655355e-10
-2.134106405e-12
9.685222357e-10
-2.305122858e-12
9.988745784e-10
-2.476966696e-12
1.026829331e-09
-2.650136566e-12
1.052499064e-09
-2.825397984e-12
1.07599193e-09
-3.00353019e-12
1.09741189e-09
-3.185553681e-12
1.116858785e-09
-3.372599156e-12
1.134428615e-09
-3.565827782e-12
1.150213469e-09
-3.766543606e-12
1.164301744e-09
-3.976027841e-12
1.176778377e-09
-4.195560439e-12
1.187724656e-09
-4.426496387e-12
1.197218838e-09
-4.669972626e-12
1.205335515e-09
-4.927281717e-12
1.212146746e-09
-5.199364679e-12
1.217720866e-09
-5.487115067e-12
1.222123887e-09
-5.790979509e-12
1.225418236e-09
-6.111024995e-12
1.227664125e-09
-6.446852221e-12
1.228918309e-09
-6.799487179e-12
1.229237498e-09
-6.885264292e-12
1.228388822e-09
-6.627709788e-12
1.2266315e-09
-6.04492502e-12
1.223833135e-09
-5.157604968e-12
1.220228727e-09
-4.243364527e-12
1.215966263e-09
-3.427959659e-12
1.211094489e-09
-2.716100075e-12
1.205654542e-09
-2.102289565e-12
1.199680935e-09
-1.575353648e-12
1.193205348e-09
-1.120030795e-12
1.186254426e-09
-7.173175825e-13
1.178852771e-09
-3.492556471e-13
1.171024365e-09
1.162793029e-09
-1.168129815e-14
4.57822627e-11
-4.57917764e-14
1.339651244e-10
-1.007302406e-13
2.172311294e-10
-1.747941091e-13
2.957832628e-10
-2.662639992e-13
3.698178594e-10
-3.733129511e-13
4.395245556e-10
-4.943173308e-13
5.050866564e-10
-6.275686773e-13
5.66680946e-10
-7.71570934e-13
6.244781941e-10
-9.249880397e-13
6.786429835e-10
-1.086680856e-12
7.293341049e-10
-1.25563457e-12
7.767045271e-10
-1.431033834e-12
8.20901672e-10
-1.612269569e-12
8.620675419e-10
-1.798934715e-12
9.003388682e-10
-1.990883887e-12
9.358473042e-10
-2.188113983e-12
9.687194658e-10
-2.390791229e-12
9.990772557e-10
-2.599189001e-12
1.027037729e-09
-2.813776913e-12
1.052713651e-09
-3.035195502e-12
1.076213348e-09
-3.264032916e-12
1.097640728e-09
-3.501139219e-12
1.117095892e-09
-3.747378723e-12
1.134674855e-09
-4.003443668e-12
1.150469534e-09
-4.270431359e-12
1.164568732e-09
-4.548933724e-12
1.177056879e-09
-4.840126725e-12
1.188015849e-09
-5.14444604e-12
1.197523158e-09
-5.462958295e-12
1.205654027e-09
-5.795769874e-12
1.212479557e-09
-6.143350831e-12
1.218068447e-09
-6.50530779e-12
1.222485844e-09
-6.881156371e-12
1.225794085e-09
-7.271879416e-12
1.228054849e-09
-7.390562121e-12
1.229036992e-09
-7.166282277e-12
1.229013218e-09
-6.615505487e-12
1.227838045e-09
-5.756970248e-12
1.225772965e-09
-4.880740295e-12
1.222956905e-09
-4.095050355e-12
1.219443037e-09
-3.405205643e-12
1.215276419e-09
-2.806756429e-12
1.21049604e-09
-2.289503259e-12
1.205137289e-09
-1.839047593e-12
1.199230479e-09
-1.437247075e-12
1.192803547e-09
-1.066400307e-12
1.185883579e-09
-7.108597554e-13
1.178497231e-09
-3.58141233e-13
1.170671646e-09
1.162434888e-09
-1.142448311e-14
4.579368719e-11
-4.476049357e-14
1.339984604e-10
-9.86067438e-14
2.172849757e-10
-1.715633671e-13
2.958562194e-10
-2.621684508e-13
3.699084644e-10
-3.690738859e-13
4.39631461e-10
-4.908957559e-13
5.052084783e-10
-6.265049042e-13
5.668165551e-10
-7.746944555e-13
6.246263836e-10
-9.344663142e-13
6.788027554e-10
-1.104973843e-12
7.295046124e-10
-1.285515803e-12
7.76885069e-10
-1.47554686e-12
8.210917031e-10
-1.674675613e-12
8.622666706e-10
-1.882657263e-12
9.005468499e-10
-2.099386785e-12
9.360640337e-10
-2.324875898e-12
9.689449549e-10
-2.559153835e-12
9.993115336e-10
-2.80254663e-12
1.027281122e-09
-3.055482541e-12
1.052966587e-09
-3.318246839e-12
1.076476112e-09
-3.591336255e-12
1.097913817e-09
-3.875424775e-12
1.11737998e-09
-4.170815586e-12
1.134970245e-09
-4.478313618e-12
1.150777032e-09
-4.798326326e-12
1.164888744e-09
-5.131420271e-12
1.177389973e-09
-5.478110922e-12
1.188362539e-09
-5.838554158e-12
1.197883601e-09
-6.21289462e-12
1.206028368e-09
-6.600837398e-12
1.2128675e-09
-7.001681091e-12
1.21846929e-09
-7.416645656e-12
1.222900808e-09
-7.565867594e-12
1.225943307e-09
-7.375468489e-12
1.227864449e-09
-6.860113952e-12
1.228521637e-09
-6.036317927e-12
1.228189422e-09
-5.203147774e-12
1.227004875e-09
-4.455849556e-12
1.225025666e-09
-3.800085236e-12
1.22230114e-09
-3.23295556e-12
1.218875907e-09
-2.745421434e-12
1.214788885e-09
-2.324178229e-12
1.210074797e-09
-1.952044684e-12
1.204765156e-09
-1.612109826e-12
1.198890544e-09
-1.289388877e-12
1.192480826e-09
-9.719724843e-13
1.185566163e-09
-6.523569038e-13
1.178177615e-09
-3.278078629e-13
1.170347097e-09
1.16210708e-09
-1.164636181e-14
4.580533355e-11
-4.572808192e-14
1.340325421e-10
-1.009446344e-13
2.173401922e-10
-1.759910298e-13
2.959312658e-10
-2.695944562e-13
3.700020679e-10
-3.80627017e-13
4.397424936e-10
-5.079160259e-13
5.053357673e-10
-6.504482007e-13
5.669590873e-10
-8.073618282e-13
6.247832973e-10
-9.778301593e-13
6.789732237e-10
-1.161115318e-12
7.296878975e-10
-1.356652198e-12
7.770806059e-10
-1.563995023e-12
8.212990459e-10
-1.782813048e-12
8.624854886e-10
-2.01288429e-12
9.007769211e-10
-2.25402732e-12
9.363051767e-10
-2.506204167e-12
9.691971318e-10
-2.769474454e-12
9.995748039e-10
-3.04413969e-12
1.027555787e-09
-3.330278133e-12
1.053252726e-09
-3.628097579e-12
1.076773932e-09
-3.938045065e-12
1.098223765e-09
-4.260358498e-12
1.117702294e-09
-4.595357063e-12
1.135305244e-09
-4.943505781e-12
1.151125181e-09
-5.305012522e-12
1.165250251e-09
-5.68002663e-12
1.177764987e-09
-6.068486851e-12
1.188750999e-09
-6.470229891e-12
1.198285344e-09
-6.88442847e-12
1.206442566e-09
-7.312516053e-12
1.213295588e-09
-7.491167884e-12
1.218647942e-09
-7.336133201e-12
1.222745774e-09
-6.859900642e-12
1.225467074e-09
-6.076311161e-12
1.22708086e-09
-5.286208429e-12
1.227731534e-09
-4.578026764e-12
1.22748124e-09
-3.957835457e-12
1.226384683e-09
-3.423651439e-12
1.224491482e-09
-2.968129345e-12
1.221845618e-09
-2.579067762e-12
1.218486846e-09
-2.240387081e-12
1.214450204e-09
-1.93572856e-12
1.209770138e-09
-1.650647108e-12
1.204480074e-09
-1.373547072e-12
1.198613444e-09
-1.097099927e-12
1.192204379e-09
-8.185003851e-13
1.185287563e-09
-5.393040257e-13
1.177898419e-09
-2.644108501e-13
1.170072204e-09
1.161842669e-09
-1.213244222e-14
4.581746599e-11
-4.762339874e-14
1.340680331e-10
-1.051759335e-13
2.173977448e-10
-1.835431918e-13
2.96009633e-10
-2.816008779e-13
3.701001256e-10
-3.982400792e-13
4.398591328e-10
-5.325149732e-13
5.054700422e-10
-6.834124727e-13
5.671099848e-10
-8.502131273e-13
6.249500979e-10
-1.032194669e-12
6.791552052e-10
-1.228729902e-12
7.298844328e-10
-1.439295549e-12
7.772911716e-10
-1.663465017e-12
8.215232154e-10
-1.90090181e-12
8.627229254e-10
-2.151364923e-12
9.010273842e-10
-2.414702148e-12
9.36568514e-10
-2.690834736e-12
9.694732644e-10
-2.979765525e-12
9.998637347e-10
-3.281610386e-12
1.027857632e-09
-3.596419664e-12
1.053567535e-09
-3.924346447e-12
1.077101859e-09
-4.265585596e-12
1.098565004e-09
-4.620356352e-12
1.118057064e-09
-4.988837161e-12
1.135673725e-09
-5.370932207e-12
1.151507276e-09
-5.766665483e-12
1.165645984e-09
-6.17577826e-12
1.1781741e-09
-6.597539829e-12
1.189172761e-09
-7.033429136e-12
1.198721233e-09
-7.242930137e-12
1.206652067e-09
-7.127297411e-12
1.213179955e-09
-6.696462283e-12
1.218217107e-09
-5.96116946e-12
1.222010481e-09
-5.213662414e-12
1.224719567e-09
-4.54376492e-12
1.226410962e-09
-3.958186001e-12
1.227145955e-09
-3.455543325e-12
1.226978598e-09
-3.02967963e-12
1.22595882e-09
-2.670127975e-12
1.224131931e-09
-2.362205049e-12
1.221537695e-09
-2.089565851e-12
1.218214207e-09
-1.83808568e-12
1.214198724e-09
-1.596142256e-12
1.209528195e-09
-1.356125518e-12
1.204240057e-09
-1.114779824e-12
1.198372099e-09
-8.729643506e-13
1.191962564e-09
-6.349997777e-13
1.185049599e-09
-4.070377111e-13
1.177670457e-09
-1.943086135e-13
1.169859475e-09
1.16164836e-09
-1.26825458e-14
4.583014854e-11
-4.982269301e-14
1.341051732e-10
-1.101123186e-13
2.174580344e-10
-1.923285218e-13
2.960918493e-10
-2.953790624e-13
3.702031761e-10
-4.181854363e-13
4.399819392e-10
-5.598450419e-13
5.056117018e-10
-7.194622151e-13
5.67269602e-10
-8.963033196e-13
6.25126939e-10
-1.08970635e-12
6.793486083e-10
-1.299084091e-12
7.300938105e-10
-1.523943842e-12
7.775160313e-10
-1.763879599e-12
8.217631511e-10
-2.018566779e-12
8.629776126e-10
-2.287756829e-12
9.012965743e-10
-2.571277575e-12
9.368520347e-10
-2.869029529e-12
9.697710163e-10
-3.180965209e-12
1.00017567e-09
-3.507038703e-12
1.028183706e-09
-3.847366287e-12
1.053907863e-09
-4.20204022e-12
1.077456533e-09
-4.570977657e-12
1.098933941e-09
-4.954142059e-12
1.118440229e-09
-5.351488553e-12
1.136071071e-09
-5.762624608e-12
1.151918412e-09
-6.18701915e-12
1.166070379e-09
-6.626103472e-12
1.178613184e-09
-6.864605751e-12
1.189411263e-09
-6.789254213e-12
1.198645882e-09
-6.407181486e-12
1.206269994e-09
-5.726354799e-12
1.212499128e-09
-5.019500891e-12
1.217510253e-09
-4.385411423e-12
1.221376391e-09
-3.831375295e-12
1.224165531e-09
-3.357531194e-12
1.225937118e-09
-2.958049287e-12
1.226746473e-09
-2.623670943e-12
1.226644219e-09
-2.341801004e-12
1.22567695e-09
-2.097084379e-12
1.223887214e-09
-1.875088669e-12
1.2213157e-09
-1.664081757e-12
1.2180032e-09
-1.456011025e-12
1.213990653e-09
-1.246976514e-12
1.20931916e-09
-1.03711965e-12
1.204030201e-09
-8.300662865e-13
1.198165045e-09
-6.314640898e-13
1.191763961e-09
-4.467113737e-13
1.184864846e-09
-2.793159261e-13
1.177503061e-09
-1.304784166e-13
1.169710638e-09
1.161517882e-09
-1.319871593e-14
4.584334725e-11
-5.18408204e-14
1.341438154e-10
-1.146029561e-13
2.175207965e-10
-2.00278149e-13
2.961775244e-10
-3.077705725e-13
3.703106685e-10
-4.360761785e-13
4.401102448e-10
-5.842921141e-13
5.057599177e-10
-7.516119301e-13
5.674369218e-10
-9.373220104e-13
6.253126491e-10
-1.140786778e-12
6.79552073e-10
-1.36145887e-12
7.303144826e-10
-1.598871162e-12
7.777534436e-10
-1.852635949e-12
8.220169159e-10
-2.12244671e-12
8.632474234e-10
-2.4080668e-12
9.015821944e-10
-2.709321023e-12
9.371532889e-10
-3.026095524e-12
9.700877908e-10
-3.358316531e-12
1.000507891e-09
-3.705801406e-12
1.02853119e-09
-4.068550864e-12
1.054270612e-09
-4.446450367e-12
1.077834432e-09
-4.839265307e-12
1.099326756e-09
-5.246654381e-12
1.118847618e-09
-5.668220105e-12
1.136492637e-09
-6.105332983e-12
1.152355525e-09
-6.366162052e-12
1.166331208e-09
-6.327483008e-12
1.178574505e-09
-5.993393027e-12
1.189077173e-09
-5.369028304e-12
1.198021517e-09
-4.70079127e-12
1.205601757e-09
-4.099985772e-12
1.211898323e-09
-3.574539143e-12
1.216984807e-09
-3.126349696e-12
1.220928202e-09
-2.750248183e-12
1.22378943e-09
-2.438165513e-12
1.225625036e-09
-2.178633867e-12
1.226486942e-09
-1.958110988e-12
1.226423697e-09
-1.762609201e-12
1.225481448e-09
-1.579847621e-12
1.223704452e-09
-1.401280361e-12
1.221137132e-09
-1.222289951e-12
1.217824209e-09
-1.042210195e-12
1.213810573e-09
-8.639324465e-13
1.209140882e-09
-6.926669374e-13
1.203858935e-09
-5.338632851e-13
1.198006242e-09
-3.914482036e-13
1.191621546e-09
-2.670787182e-13
1.184740476e-09
-1.606454945e-13
1.177396628e-09
-7.170944181e-14
1.169621702e-09
1.161446173e-09
-1.360084045e-14
4.585694809e-11
-5.344956453e-14
1.341836641e-10
-1.182193062e-13
2.175855663e-10
-2.067153806e-13
2.962660205e-10
-3.178305181e-13
3.704217837e-10
-4.506386728e-13
4.402430529e-10
-6.042317371e-13
5.059135108e-10
-7.778981196e-13
5.676105882e-10
-9.709272856e-13
6.255056783e-10
-1.182713337e-12
6.797638591e-10
-1.412749495e-12
7.305445188e-10
-1.660604699e-12
7.780012988e-10
-1.925920107e-12
8.222822313e-10
-2.208404174e-12
8.635299074e-10
-2.507830867e-12
9.018816211e-10
-2.824031861e-12
9.374694899e-10
-3.156861782e-12
9.704206207e-10
-3.506128844e-12
1.000857158e-09
-3.871457113e-12
1.028896519e-09
-4.252599016e-12
1.054651754e-09
-4.649403872e-12
1.078231237e-09
-5.061539336e-12
1.099738892e-09
-5.490399374e-12
1.119276478e-09
-5.761812654e-12
1.13676405e-09
-5.751354152e-12
1.152345066e-09
-5.459931846e-12
1.166039786e-09
-4.889583567e-12
1.178004157e-09
-4.258679597e-12
1.188446269e-09
-3.688748533e-12
1.197451586e-09
-3.189061199e-12
1.20510207e-09
-2.762729087e-12
1.211471991e-09
-2.406554835e-12
1.216628632e-09
-2.113156495e-12
1.220634804e-09
-1.872424187e-12
1.223548697e-09
-1.672003643e-12
1.225424615e-09
-1.499092868e-12
1.226314031e-09
-1.341782265e-12
1.226266386e-09
-1.190631881e-12
1.225330298e-09
-1.040126436e-12
1.223553947e-09
-8.885987613e-13
1.220985605e-09
-7.3807717e-13
1.217673688e-09
-5.932734435e-13
1.21366577e-09
-4.596884482e-13
1.209007297e-09
-3.415952651e-13
1.203740842e-09
-2.411429456e-13
1.197905789e-09
-1.586302851e-13
1.191539034e-09
-9.364833931e-14
1.184675495e-09
-4.569479187e-14
1.177348675e-09
-1.452701083e-14
1.169590534e-09
1.161431646e-09
-1.384477899e-14
4.587079287e-11
-5.439652389e-14
1.342242158e-10
-1.203377192e-13
2.176515075e-10