/*--------------------------------*- C++ -*----------------------------------*\
  =========                 |
  \\      /  F ield         | OpenFOAM: The Open Source CFD Toolbox
   \\    /   O peration     | Website:  https://openfoam.org
    \\  /    A nd           | Version:  7
     \\/     M anipulation  |
\*---------------------------------------------------------------------------*/
FoamFile
{
    version     2.0;
    format      ascii;
    class       volVectorField;
    location    "0.0027";
    object      U;
}
// * * * * * * * * * * * * * * * * * * * * * * * * * * * * * * * * * * * * * //

dimensions      [0 1 -1 0 0 0 0];

internalField   nonuniform List<vector> 
14000
(
(-6.07285728e-08 3.321562681e-20 -0.002000023234)
(-1.593329716e-07 3.464443917e-20 -0.002000029053)
(-2.538642441e-07 2.086791899e-20 -0.002000043687)
(-3.535454691e-07 3.866602225e-21 -0.002000064794)
(-4.564175864e-07 -1.557525885e-20 -0.002000092261)
(-5.622497072e-07 -2.889744691e-21 -0.002000125866)
(-6.716293483e-07 4.130115902e-21 -0.002000165327)
(-7.850704082e-07 8.123890759e-21 -0.002000210398)
(-9.029116717e-07 1.045515061e-20 -0.002000260876)
(-1.025365741e-06 1.202316929e-20 -0.002000316596)
(-1.152536065e-06 1.322683545e-20 -0.002000377422)
(-1.284419551e-06 1.403947902e-20 -0.002000443246)
(-1.420909862e-06 1.469920146e-20 -0.002000513985)
(-1.561801311e-06 1.548967919e-20 -0.00200058958)
(-1.706791631e-06 1.632017484e-20 -0.002000669989)
(-1.855484822e-06 1.697203372e-20 -0.002000755185)
(-2.007401868e-06 1.756329678e-20 -0.002000845157)
(-2.161989568e-06 1.809120603e-20 -0.002000939908)
(-2.318599111e-06 1.889030339e-20 -0.002001039457)
(-2.47647557e-06 1.980144939e-20 -0.002001143839)
(-2.634773801e-06 2.053335007e-20 -0.002001253102)
(-2.792577437e-06 2.126218512e-20 -0.002001367306)
(-2.94890025e-06 2.206358039e-20 -0.002001486529)
(-3.102650816e-06 2.835203597e-20 -0.00200161086)
(-3.252643012e-06 3.452432e-20 -0.002001740398)
(-3.397621912e-06 4.100844029e-20 -0.002001875247)
(-3.536233256e-06 4.803763317e-20 -0.002002015504)
(-3.667040521e-06 4.582194474e-20 -0.002002161248)
(-3.788517546e-06 4.476611626e-20 -0.002002312521)
(-3.89904364e-06 5.012990558e-20 -0.002002469309)
(-3.996932082e-06 5.604715604e-20 -0.002002631517)
(-4.080383767e-06 5.765193513e-20 -0.002002798949)
(-4.147473229e-06 5.938355539e-20 -0.002002971274)
(-4.196179449e-06 6.156144457e-20 -0.002003147999)
(-4.224393119e-06 6.411269608e-20 -0.002003328458)
(-4.22987461e-06 6.675840348e-20 -0.002003511797)
(-4.210246664e-06 6.954690314e-20 -0.002003696967)
(-4.16300037e-06 7.252719811e-20 -0.002003882733)
(-4.085502771e-06 7.56386826e-20 -0.002004067679)
(-3.974973123e-06 7.892562132e-20 -0.002004250228)
(-3.828473731e-06 7.922812518e-20 -0.002004428647)
(-3.642940846e-06 7.988133135e-20 -0.002004601057)
(-3.415180257e-06 8.087891577e-20 -0.002004765422)
(-3.141879169e-06 8.213408139e-20 -0.002004919522)
(-2.819588058e-06 8.365674572e-20 -0.002005060904)
(-2.444767409e-06 8.547686261e-20 -0.002005186806)
(-2.014141157e-06 8.766847743e-20 -0.002005294064)
(-1.524655394e-06 8.676268701e-20 -0.002005379056)
(-9.694577786e-07 8.612242475e-20 -0.002005437458)
(-3.356165018e-07 8.579902509e-20 -0.002005463288)
(-1.560978313e-07 7.373284019e-20 -0.002003016379)
(-4.090477407e-07 1.479502383e-19 -0.002003034829)
(-6.478374432e-07 2.107891106e-19 -0.002003075767)
(-8.92496501e-07 1.807024643e-19 -0.002003135542)
(-1.135692004e-06 1.68301632e-19 -0.002003212665)
(-1.374942347e-06 1.627010974e-19 -0.002003305557)
(-1.610069208e-06 1.138552618e-19 -0.002003412684)
(-1.840975232e-06 7.363273226e-20 -0.002003532591)
(-2.067393174e-06 3.860115802e-20 -0.002003663907)
(-2.288958992e-06 3.888087583e-20 -0.002003805342)
(-2.505219656e-06 3.754674646e-20 -0.002003955692)
(-2.715641448e-06 3.52061832e-20 -0.002004113837)
(-2.919611235e-06 3.155237354e-20 -0.002004278734)
(-3.116452397e-06 3.894296272e-20 -0.002004449416)
(-3.305448979e-06 4.636387136e-20 -0.002004624985)
(-3.485809917e-06 3.52803318e-20 -0.002004804611)
(-3.656662402e-06 3.486043376e-20 -0.002004987527)
(-3.817124664e-06 4.282940688e-20 -0.00200517303)
(-3.966282311e-06 4.947806314e-20 -0.002005360481)
(-4.103176458e-06 5.469090269e-20 -0.0020055493)
(-4.226846233e-06 5.878037619e-20 -0.002005738968)
(-4.336324453e-06 6.210161056e-20 -0.002005929026)
(-4.430644079e-06 7.252875997e-20 -0.002006119074)
(-4.508872722e-06 8.182537473e-20 -0.00200630878)
(-4.570101546e-06 9.067168547e-20 -0.002006497864)
(-4.613445685e-06 9.320019192e-20 -0.002006686108)
(-4.638085462e-06 9.544194618e-20 -0.00200687335)
(-4.643278822e-06 9.779682176e-20 -0.002007059479)
(-4.628356357e-06 9.969888032e-20 -0.002007244431)
(-4.592720521e-06 1.013108441e-19 -0.002007428179)
(-4.53587548e-06 1.031322891e-19 -0.002007610718)
(-4.4574602e-06 1.051658344e-19 -0.002007792044)
(-4.357253527e-06 1.071852709e-19 -0.002007972121)
(-4.235174468e-06 1.092057603e-19 -0.002008150845)
(-4.091308475e-06 1.114909942e-19 -0.002008328)
(-3.92594265e-06 1.140581294e-19 -0.002008503206)
(-3.739577214e-06 1.165441623e-19 -0.002008675879)
(-3.532939976e-06 1.190179566e-19 -0.002008845188)
(-3.307012023e-06 1.215933597e-19 -0.002009010034)
(-3.063057134e-06 1.243741893e-19 -0.002009169063)
(-2.802632322e-06 1.276279407e-19 -0.002009320687)
(-2.527588012e-06 1.273799124e-19 -0.002009463159)
(-2.240094664e-06 1.237937579e-19 -0.002009594654)
(-1.942658525e-06 1.206754965e-19 -0.002009713385)
(-1.638137232e-06 1.179081504e-19 -0.00200981772)
(-1.329738921e-06 1.154513259e-19 -0.002009906317)
(-1.02097757e-06 1.133932636e-19 -0.002009978241)
(-7.158033763e-07 1.118397061e-19 -0.002010033064)
(-4.190608223e-07 1.105927577e-19 -0.002010070993)
(-1.357735091e-07 1.09683848e-19 -0.002010093035)
(-1.856253295e-07 7.658094314e-21 -0.002007843484)
(-4.853707666e-07 -3.887173344e-20 -0.002007861589)
(-7.653812216e-07 6.520250214e-20 -0.002007900069)
(-1.049036326e-06 1.428836799e-19 -0.002007956403)
(-1.326676449e-06 2.079195742e-19 -0.002008029114)
(-1.594508679e-06 1.922516477e-19 -0.002008116572)
(-1.851629906e-06 1.869833668e-19 -0.002008217216)
(-2.09740777e-06 1.856246913e-19 -0.002008329542)
(-2.331122314e-06 1.865525175e-19 -0.002008452095)
(-2.552067804e-06 1.888217698e-19 -0.002008583488)
(-2.759601839e-06 1.934883174e-19 -0.002008722415)
(-2.953147908e-06 1.987891577e-19 -0.00200886765)
(-3.132140677e-06 1.902099393e-19 -0.002009018064)
(-3.296032916e-06 1.834786439e-19 -0.002009172618)
(-3.444330657e-06 1.786594263e-19 -0.002009330377)
(-3.576569418e-06 1.751092154e-19 -0.002009490505)
(-3.692323972e-06 1.715688253e-19 -0.002009652265)
(-3.791205094e-06 1.691505241e-19 -0.002009815017)
(-3.872872695e-06 1.681821748e-19 -0.00200997822)
(-3.937093012e-06 1.684678089e-19 -0.002010141422)
(-3.98370607e-06 1.700120685e-19 -0.002010304258)
(-4.012589816e-06 1.726815228e-19 -0.002010466436)
(-4.02369339e-06 1.690277197e-19 -0.002010627731)
(-4.017079061e-06 1.612074193e-19 -0.002010787966)
(-3.992911968e-06 1.614493617e-19 -0.002010946996)
(-3.951434408e-06 1.552446934e-19 -0.002011104688)
(-3.892996089e-06 1.434551378e-19 -0.002011260892)
(-3.818035608e-06 1.422899592e-19 -0.002011415426)
(-3.727089711e-06 1.411205164e-19 -0.002011568051)
(-3.620815729e-06 1.349177858e-19 -0.002011718447)
(-3.499961708e-06 1.290900134e-19 -0.002011866207)
(-3.365371369e-06 1.281296082e-19 -0.002012010825)
(-3.2180052e-06 1.275489862e-19 -0.002012151707)
(-3.058914737e-06 1.320592243e-19 -0.002012288185)
(-2.889243945e-06 1.326148787e-19 -0.002012419537)
(-2.710232676e-06 1.337261999e-19 -0.002012545021)
(-2.523207105e-06 1.311860792e-19 -0.002012663904)
(-2.329594627e-06 1.252004996e-19 -0.002012775494)
(-2.130888097e-06 1.159716129e-19 -0.002012879171)
(-1.928646594e-06 1.074531121e-19 -0.002012974407)
(-1.724495651e-06 1.020585466e-19 -0.002013060788)
(-1.520109274e-06 1.008322039e-19 -0.00201313802)
(-1.317187061e-06 9.982366288e-20 -0.002013205943)
(-1.117412356e-06 9.888044829e-20 -0.002013264534)
(-9.224350634e-07 9.802204385e-20 -0.002013313906)
(-7.338309614e-07 9.720650851e-20 -0.002013354305)
(-5.530405962e-07 9.638525286e-20 -0.002013386094)
(-3.81386744e-07 9.722877508e-20 -0.002013409737)
(-2.202628703e-07 9.791812074e-20 -0.00201342577)
(-7.092423279e-08 9.851222439e-20 -0.002013434824)
(-1.650641778e-07 2.311037092e-20 -0.002012663517)
(-4.318960901e-07 2.701928744e-21 -0.002012676406)
(-6.810497931e-07 -4.2663573e-20 -0.00201270282)
(-9.319673536e-07 1.700720433e-20 -0.002012741648)
(-1.175405718e-06 5.480374354e-20 -0.00201279188)
(-1.407662182e-06 8.013819625e-20 -0.002012852396)
(-1.627622323e-06 1.53201322e-19 -0.002012922149)
(-1.834499389e-06 2.147687065e-19 -0.002013000136)
(-2.027514638e-06 2.689215407e-19 -0.002013085385)
(-2.205966885e-06 2.812137474e-19 -0.002013176964)
(-2.369315146e-06 2.913712513e-19 -0.00201327399)
(-2.517129038e-06 3.01186767e-19 -0.002013375642)
(-2.649068999e-06 3.12052307e-19 -0.002013481162)
(-2.764875627e-06 2.985040312e-19 -0.002013589855)
(-2.864370498e-06 2.875029091e-19 -0.002013701096)
(-2.947479391e-06 2.851902377e-19 -0.002013814322)
(-3.014217406e-06 2.643352594e-19 -0.002013929032)
(-3.064675537e-06 2.276418719e-19 -0.002014044781)
(-3.099039597e-06 1.950672565e-19 -0.002014161167)
(-3.117584517e-06 1.749075613e-19 -0.002014277831)
(-3.120649764e-06 1.567909255e-19 -0.002014394443)
(-3.108658564e-06 1.402840878e-19 -0.002014510692)
(-3.082117779e-06 1.183135375e-19 -0.00201462627)
(-3.041590875e-06 1.047943127e-19 -0.002014740866)
(-2.987723361e-06 9.191187677e-20 -0.002014854157)
(-2.921249125e-06 8.553327426e-20 -0.002014965806)
(-2.842942298e-06 8.00046892e-20 -0.002015075456)
(-2.753617613e-06 8.083770953e-20 -0.002015182732)
(-2.654164701e-06 8.166995557e-20 -0.002015287245)
(-2.545528281e-06 8.255147959e-20 -0.002015388598)
(-2.428691145e-06 8.350474535e-20 -0.002015486396)
(-2.304672808e-06 7.96285684e-20 -0.002015580253)
(-2.174541707e-06 7.588369808e-20 -0.002015669803)
(-2.039403786e-06 6.741607434e-20 -0.002015754707)
(-1.900361743e-06 5.922696357e-20 -0.002015834665)
(-1.758540738e-06 5.057048474e-20 -0.002015909418)
(-1.615068811e-06 4.924490651e-20 -0.002015978757)
(-1.471055532e-06 4.72109488e-20 -0.002016042525)
(-1.327591186e-06 4.876807696e-20 -0.002016100623)
(-1.185727909e-06 4.986154402e-20 -0.002016153009)
(-1.046470535e-06 4.704779862e-20 -0.002016199701)
(-9.107594313e-07 4.652665537e-20 -0.002016240774)
(-7.794599794e-07 5.162800222e-20 -0.002016276362)
(-6.533597018e-07 5.642819665e-20 -0.00201630665)
(-5.3315875e-07 6.099875051e-20 -0.00201633187)
(-4.194514295e-07 6.539067617e-20 -0.002016352294)
(-3.127190261e-07 6.969158423e-20 -0.002016368226)
(-2.133857737e-07 7.113623769e-20 -0.002016379991)
(-1.219654183e-07 7.127634908e-20 -0.002016387937)
(-3.906625474e-08 7.141552139e-20 -0.002016392439)
(-1.297574823e-07 9.633746603e-20 -0.002017095916)
(-3.389072835e-07 2.119832482e-19 -0.002017104173)
(-5.330740859e-07 1.675582126e-19 -0.002017120456)
(-7.278670552e-07 1.498995337e-19 -0.0020171445)
(-9.158076645e-07 1.450193937e-19 -0.002017175697)
(-1.093814235e-06 1.46884972e-19 -0.002017213381)
(-1.260843747e-06 1.527409436e-19 -0.002017256946)
(-1.416149196e-06 1.607956374e-19 -0.002017305815)
(-1.55905079e-06 1.699031429e-19 -0.00201735943)
(-1.689036993e-06 1.797748511e-19 -0.002017417255)
(-1.805717677e-06 1.909950184e-19 -0.002017478775)
(-1.90879271e-06 1.852667441e-19 -0.002017543507)
(-1.998110166e-06 1.951064132e-19 -0.002017610995)
(-2.073619144e-06 1.922633939e-19 -0.00201768081)
(-2.13535041e-06 1.784926126e-19 -0.002017752544)
(-2.18346493e-06 1.685559117e-19 -0.002017825816)
(-2.218205436e-06 1.612835927e-19 -0.002017900262)
(-2.239880187e-06 1.563875226e-19 -0.00201797553)
(-2.248893694e-06 1.432657144e-19 -0.00201805128)
(-2.245698506e-06 1.320198762e-19 -0.002018127178)
(-2.230811499e-06 1.135721763e-19 -0.002018202895)
(-2.204840823e-06 8.835490669e-20 -0.002018278101)
(-2.168447439e-06 7.12485896e-20 -0.002018352464)
(-2.122320792e-06 5.504705628e-20 -0.002018425658)
(-2.06718118e-06 3.424043193e-20 -0.002018497356)
(-2.003800681e-06 2.73030151e-20 -0.002018567238)
(-1.932981409e-06 2.570412688e-20 -0.002018634996)
(-1.855543269e-06 2.373522187e-20 -0.002018700333)
(-1.77233289e-06 2.158511522e-20 -0.002018762969)
(-1.684200495e-06 1.907046261e-20 -0.002018822647)
(-1.591991747e-06 1.629512526e-20 -0.002018879137)
(-1.496564239e-06 1.337420366e-20 -0.002018932238)
(-1.398755129e-06 1.488622546e-20 -0.00201898178)
(-1.299388914e-06 1.226935989e-20 -0.002019027634)
(-1.199269282e-06 1.286206513e-20 -0.002019069704)
(-1.099158963e-06 1.289502224e-20 -0.002019107933)
(-9.997959512e-07 1.559790942e-20 -0.002019142303)
(-9.018742344e-07 2.092731262e-20 -0.002019172833)
(-8.060393944e-07 2.857008315e-20 -0.002019199579)
(-7.128878237e-07 3.564585647e-20 -0.002019222629)
(-6.229662224e-07 4.236511603e-20 -0.002019242103)
(-5.36768004e-07 4.588611472e-20 -0.00201925815)
(-4.547232079e-07 4.912007998e-20 -0.002019270941)
(-3.772006045e-07 4.911299922e-20 -0.002019280669)
(-3.045183863e-07 5.217260815e-20 -0.002019287546)
(-2.369491645e-07 5.230100886e-20 -0.002019291788)
(-1.746874433e-07 5.255336493e-20 -0.002019293577)
(-1.178394775e-07 5.299558318e-20 -0.002019293094)
(-6.652918584e-08 5.358796021e-20 -0.002019290983)
(-2.11323643e-08 5.426872728e-20 -0.002019288919)
(-9.660022964e-08 4.54192759e-20 -0.002020972138)
(-2.524761673e-07 6.646842693e-20 -0.002020977243)
(-3.973239369e-07 7.023388429e-20 -0.002020986913)
(-5.421234517e-07 7.115608669e-20 -0.002021001238)
(-6.810464231e-07 7.006277629e-20 -0.002021019873)
(-8.117742784e-07 6.780685985e-20 -0.00202104243)
(-9.334605994e-07 6.511798671e-20 -0.002021068564)
(-1.045512322e-06 6.332377015e-20 -0.002021097946)
(-1.147413838e-06 6.599859412e-20 -0.00202113025)
(-1.238815146e-06 3.636693865e-20 -0.002021165157)
(-1.3194747e-06 1.596803233e-20 -0.002021202359)
(-1.389240323e-06 3.816529898e-22 -0.002021241549)
(-1.448107382e-06 -1.381325468e-20 -0.00202128243)
(-1.496176803e-06 -2.995827193e-20 -0.002021324709)
(-1.533602201e-06 -4.618754559e-20 -0.002021368096)
(-1.560620777e-06 -5.272112059e-20 -0.002021412302)
(-1.577576164e-06 -5.07344269e-20 -0.002021457044)
(-1.584856385e-06 -3.03736125e-20 -0.00202150204)
(-1.582896585e-06 -1.200324365e-20 -0.002021547009)
(-1.572196547e-06 -3.380742038e-21 -0.002021591675)
(-1.553316503e-06 4.808868569e-21 -0.002021635762)
(-1.526852964e-06 4.29113304e-21 -0.002021679001)
(-1.49341885e-06 3.778928501e-21 -0.002021721132)
(-1.453654527e-06 4.520935995e-21 -0.002021761908)
(-1.408220947e-06 5.275773563e-21 -0.002021801092)
(-1.357777867e-06 5.948061964e-21 -0.002021838464)
(-1.303010165e-06 6.879599653e-21 -0.002021873823)
(-1.24460847e-06 8.819649324e-21 -0.002021906987)
(-1.18324384e-06 1.092020521e-20 -0.002021937798)
(-1.119584063e-06 1.316618066e-20 -0.002021966123)
(-1.054279724e-06 1.564805362e-20 -0.002021991853)
(-9.879686669e-07 2.27665564e-20 -0.002022014907)
(-9.21253656e-07 2.986018853e-20 -0.002022035231)
(-8.547157083e-07 4.137190569e-20 -0.002022052796)
(-7.889174279e-07 5.345427882e-20 -0.002022067599)
(-7.243678909e-07 6.227108048e-20 -0.002022079664)
(-6.615500102e-07 6.567918066e-20 -0.002022089033)
(-6.009215987e-07 6.657931599e-20 -0.002022095776)
(-5.428859203e-07 6.525087828e-20 -0.002022099977)
(-4.87802626e-07 6.125349936e-20 -0.00202210174)
(-4.360086924e-07 6.123800505e-20 -0.002022101185)
(-3.877977916e-07 5.843121089e-20 -0.002022098443)
(-3.433931293e-07 5.319473981e-20 -0.002022093662)
(-3.029439449e-07 4.845021494e-20 -0.002022086981)
(-2.666661601e-07 4.38524916e-20 -0.002022078498)
(-2.353820826e-07 4.238315798e-20 -0.002022068365)
(-2.101123564e-07 4.092847118e-20 -0.002022057426)
(-1.850610573e-07 4.076333398e-20 -0.002022047114)
(-1.387579743e-07 4.06994076e-20 -0.002022038563)
(-5.224054068e-08 4.077290879e-20 -0.002022032839)
(-7.042479497e-08 4.500389796e-20 -0.002024520416)
(-1.837449663e-07 6.657703206e-20 -0.002024523569)
(-2.885340867e-07 7.118655207e-20 -0.002024529305)
(-3.930359678e-07 7.241314945e-20 -0.002024537805)
(-4.929354577e-07 7.265210963e-20 -0.00202454886)
(-5.865261949e-07 7.296495992e-20 -0.002024562239)
(-6.731332061e-07 7.452630472e-20 -0.002024577731)
(-7.523104146e-07 8.086301637e-20 -0.002024595128)
(-8.237247645e-07 4.794116087e-20 -0.002024614225)
(-8.871178021e-07 3.883017818e-22 -0.00202463481)
(-9.423705657e-07 -4.35632398e-20 -0.002024656678)
(-9.894624538e-07 -7.090422092e-20 -0.002024679617)
(-1.028438429e-06 -9.912802599e-20 -0.002024703414)
(-1.059449938e-06 -1.152214733e-19 -0.002024727857)
(-1.082727055e-06 -1.216875491e-19 -0.002024752737)
(-1.0985413e-06 -1.305201055e-19 -0.00202477784)
(-1.107223154e-06 -1.295495002e-19 -0.002024802954)
(-1.109165521e-06 -1.314633877e-19 -0.002024827873)
(-1.104798569e-06 -1.265558171e-19 -0.002024852392)
(-1.094587392e-06 -1.238880445e-19 -0.002024876312)
(-1.079039683e-06 -1.15089948e-19 -0.002024899442)
(-1.058672367e-06 -1.006690278e-19 -0.002024921603)
(-1.034000139e-06 -8.865069453e-20 -0.002024942625)
(-1.00557552e-06 -7.119053673e-20 -0.002024962354)
(-9.739618118e-07 -5.564273113e-20 -0.002024980647)
(-9.397058891e-07 -4.779762277e-20 -0.002024997379)
(-9.033526195e-07 -4.091602583e-20 -0.002025012439)
(-8.654501594e-07 -3.477842905e-20 -0.002025025738)
(-8.265275331e-07 -3.493881459e-20 -0.002025037202)
(-7.87100365e-07 -3.51668059e-20 -0.002025046776)
(-7.47669241e-07 -3.537603345e-20 -0.002025054426)
(-7.087026281e-07 -3.543350248e-20 -0.002025060133)
(-6.706594313e-07 -4.477184202e-20 -0.002025063898)
(-6.339657621e-07 -5.361604453e-20 -0.002025065735)
(-5.990152016e-07 -5.749189847e-20 -0.002025065675)
(-5.661890078e-07 -6.099361899e-20 -0.002025063765)
(-5.358295914e-07 -6.014446888e-20 -0.002025060063)
(-5.08243916e-07 -5.916700739e-20 -0.002025054638)
(-4.83718872e-07 -5.82133625e-20 -0.002025047571)
(-4.625030655e-07 -5.716218143e-20 -0.002025038952)
(-4.44781123e-07 -5.617094894e-20 -0.002025028882)
(-4.306639331e-07 -5.509851748e-20 -0.002025017452)
(-4.204828827e-07 -5.406148244e-20 -0.002025004696)
(-4.153994824e-07 -5.311142933e-20 -0.002024990706)
(-4.155457147e-07 -5.50879223e-20 -0.002024976493)
(-4.091693036e-07 -5.694128207e-20 -0.002024963657)
(-3.756344552e-07 -5.999980929e-20 -0.0020249536)
(-3.063821173e-07 -6.293780383e-20 -0.002024947508)
(-2.046718605e-07 -6.583909668e-20 -0.002024945824)
(-7.229043215e-08 -6.880771667e-20 -0.002024946534)
(-5.149985716e-08 -9.149666501e-21 -0.002027764183)
(-1.344898393e-07 1.863105272e-19 -0.002027766095)
(-2.11419175e-07 1.551769257e-19 -0.002027769439)
(-2.880350703e-07 1.387388923e-19 -0.002027774371)
(-3.610755955e-07 1.296140217e-19 -0.002027780765)
(-4.292780219e-07 1.255439647e-19 -0.00202778847)
(-4.921697995e-07 1.256834016e-19 -0.002027797347)
(-5.494317604e-07 1.291259614e-19 -0.002027807249)
(-6.008434245e-07 1.098009655e-19 -0.002027818035)
(-6.462582632e-07 1.31512369e-19 -0.002027829558)
(-6.856107913e-07 9.821789972e-20 -0.002027841669)
(-7.189590318e-07 5.642063081e-20 -0.00202785422)
(-7.464074296e-07 2.277114708e-20 -0.00202786706)
(-7.681127829e-07 -6.685290852e-21 -0.002027880041)
(-7.843029167e-07 -3.216263913e-20 -0.002027893015)
(-7.952592139e-07 -5.505797559e-20 -0.00202790584)
(-8.013074464e-07 -6.445718548e-20 -0.002027918376)
(-8.028039155e-07 -8.339402902e-20 -0.002027930488)
(-8.001279041e-07 -9.10796776e-20 -0.002027942048)
(-7.936819169e-07 -9.874767745e-20 -0.002027952936)
(-7.838925863e-07 -8.810421759e-20 -0.002027963039)
(-7.711970511e-07 -7.047263603e-20 -0.002027972259)
(-7.560415281e-07 -5.401202363e-20 -0.002027980505)
(-7.388851161e-07 -5.346775973e-20 -0.002027987698)
(-7.201736269e-07 -5.309674241e-20 -0.002027993771)
(-7.003616736e-07 -6.002857197e-20 -0.002027998669)
(-6.798877154e-07 -6.708536974e-20 -0.002028002352)
(-6.591805489e-07 -8.016585898e-20 -0.00202800479)
(-6.38656824e-07 -9.323284534e-20 -0.002028005968)
(-6.187133544e-07 -1.009635665e-19 -0.002028005879)
(-5.997381386e-07 -1.094292351e-19 -0.00202800453)
(-5.820865912e-07 -1.187182963e-19 -0.00202800194)
(-5.6610955e-07 -1.287256187e-19 -0.002027998134)
(-5.521253201e-07 -1.397173019e-19 -0.002027993149)
(-5.404219839e-07 -1.518952012e-19 -0.002027987027)
(-5.312791157e-07 -1.608585609e-19 -0.00202797982)
(-5.249365211e-07 -1.707890825e-19 -0.002027971584)
(-5.216059709e-07 -1.729394424e-19 -0.002027962383)
(-5.214344265e-07 -1.762252167e-19 -0.002027952289)
(-5.244914719e-07 -1.732966528e-19 -0.002027941358)
(-5.311537229e-07 -1.717850967e-19 -0.002027929574)
(-5.427932427e-07 -1.681067933e-19 -0.002027916981)
(-5.59136372e-07 -1.62070444e-19 -0.002027904756)
(-5.649777439e-07 -1.569502894e-19 -0.002027894722)
(-5.39402353e-07 -1.52672274e-19 -0.002027888532)
(-4.76369059e-07 -1.520379789e-19 -0.002027887517)
(-3.790770435e-07 -1.519501755e-19 -0.002027891604)
(-2.574522264e-07 -1.52485661e-19 -0.002027898684)
(-1.38347272e-07 -1.523304895e-19 -0.002027905881)
(-4.224012333e-08 -1.529776484e-19 -0.002027910893)
(-3.919446288e-08 1.452565096e-19 -0.00203086639)
(-1.022054394e-07 3.394744774e-19 -0.002030867346)
(-1.604188431e-07 3.304431069e-19 -0.002030868898)
(-2.184225318e-07 2.143674092e-19 -0.002030871162)
(-2.737708277e-07 1.369140109e-19 -0.002030874068)
(-3.255052251e-07 7.823145688e-20 -0.002030877522)
(-3.732908966e-07 2.798929003e-20 -0.002030881427)
(-4.169082975e-07 -2.115287182e-20 -0.00203088569)
(-4.5619044e-07 -2.961589582e-20 -0.002030890208)
(-4.910841964e-07 -2.251534813e-20 -0.002030894882)
(-5.215827521e-07 -1.74229858e-20 -0.002030899611)
(-5.477399042e-07 -1.381913974e-20 -0.002030904292)
(-5.696789737e-07 -1.146086835e-20 -0.002030908827)
(-5.875694149e-07 -9.151295615e-21 -0.002030913119)
(-6.016195919e-07 -7.453451239e-21 -0.002030917072)
(-6.120721698e-07 -6.339618541e-21 -0.002030920598)
(-6.192013499e-07 -1.726555237e-20 -0.002030923613)
(-6.233198674e-07 -2.814750274e-20 -0.00203092604)
(-6.247670768e-07 -3.947503993e-20 -0.002030927812)
(-6.238840025e-07 -4.111202876e-20 -0.002030928866)
(-6.210085779e-07 -4.413173938e-20 -0.002030929147)
(-6.165026808e-07 -3.880163037e-20 -0.002030928613)
(-6.107390122e-07 -3.429992934e-20 -0.002030927228)
(-6.040782505e-07 -3.757558211e-20 -0.002030924966)
(-5.968796942e-07 -4.111123279e-20 -0.002030921812)
(-5.894942904e-07 -4.460844231e-20 -0.00203091776)
(-5.822650523e-07 -4.832186992e-20 -0.002030912814)
(-5.755235253e-07 -5.216596692e-20 -0.002030906984)
(-5.695863003e-07 -5.042071822e-20 -0.002030900291)
(-5.647567816e-07 -4.924328796e-20 -0.002030892763)
(-5.61316646e-07 -4.825446583e-20 -0.002030884435)
(-5.59536401e-07 -4.743674617e-20 -0.002030875346)
(-5.59658929e-07 -4.186643967e-20 -0.002030865543)
(-5.619057653e-07 -3.649306866e-20 -0.002030855075)
(-5.664848535e-07 -3.573693513e-20 -0.002030843997)
(-5.735617442e-07 -3.490094109e-20 -0.002030832368)
(-5.83237997e-07 -3.814487487e-20 -0.002030820255)
(-5.955344224e-07 -4.126429039e-20 -0.002030807706)
(-6.108415957e-07 -4.412465195e-20 -0.002030794678)
(-6.306801082e-07 -4.676787426e-20 -0.002030781193)
(-6.545232106e-07 -4.910353597e-20 -0.002030768568)
(-6.650697817e-07 -5.121086524e-20 -0.002030758778)
(-6.408700147e-07 -5.326660938e-20 -0.002030753587)
(-5.77026321e-07 -5.184327802e-20 -0.002030754429)
(-4.777048344e-07 -5.034848669e-20 -0.002030760957)
(-3.58992685e-07 -4.716276849e-20 -0.002030770858)
(-2.471416372e-07 -4.419052029e-20 -0.00203078103)
(-1.549168022e-07 -4.129446926e-20 -0.002030789084)
(-8.128171859e-08 -4.000135092e-20 -0.002030794113)
(-2.46446052e-08 -3.864716954e-20 -0.002030796636)
(-3.163982192e-08 1.924542611e-19 -0.002033843396)
(-8.262217796e-08 2.169561765e-19 -0.002033843545)
(-1.29986782e-07 2.400325789e-19 -0.002033843541)
(-1.77337307e-07 1.390190361e-19 -0.002033843493)
(-2.226812004e-07 6.860270877e-20 -0.002033843377)
(-2.653161816e-07 1.319670762e-20 -0.002033843145)
(-3.050072331e-07 -3.48181226e-20 -0.002033842739)
(-3.416296277e-07 -7.973607769e-20 -0.002033842107)
(-3.750983503e-07 -9.924401229e-20 -0.002033841186)
(-4.05375463e-07 -1.239630976e-19 -0.002033839915)
(-4.324959782e-07 -9.786387696e-20 -0.002033838232)
(-4.565387886e-07 -6.342876416e-20 -0.002033836078)
(-4.776214291e-07 -3.629425362e-20 -0.002033833392)
(-4.959055525e-07 9.920530117e-22 -0.002033830121)
(-5.115897864e-07 3.435559636e-20 -0.002033826212)
(-5.248927832e-07 6.540466624e-20 -0.002033821619)
(-5.360453228e-07 7.091122798e-20 -0.002033816302)
(-5.45296889e-07 7.7126202e-20 -0.002033810223)
(-5.529239461e-07 7.388121091e-20 -0.002033803357)
(-5.592259687e-07 7.173045433e-20 -0.002033795684)
(-5.644827849e-07 5.259786824e-20 -0.002033787192)
(-5.689715714e-07 3.488243711e-20 -0.002033777875)
(-5.729913998e-07 1.852204268e-20 -0.002033767738)
(-5.768180907e-07 1.070202572e-20 -0.002033756791)
(-5.8073319e-07 3.184025408e-21 -0.002033745054)
(-5.850022869e-07 2.885615892e-21 -0.002033732554)
(-5.89880845e-07 2.606758382e-21 -0.002033719324)
(-5.956121368e-07 8.989956418e-21 -0.002033705404)
(-6.024249271e-07 1.53747737e-20 -0.002033690839)
(-6.105316403e-07 1.614281819e-20 -0.00203367568)
(-6.201253723e-07 1.740226611e-20 -0.002033659983)
(-6.313876216e-07 1.917364692e-20 -0.002033643806)
(-6.444726124e-07 2.149707386e-20 -0.002033627212)
(-6.595089361e-07 2.438819913e-20 -0.002033610268)
(-6.765451283e-07 2.779671545e-20 -0.002033593053)
(-6.955509548e-07 3.164714359e-20 -0.00203357562)
(-7.169332869e-07 3.567808024e-20 -0.002033557921)
(-7.42318236e-07 3.511570024e-20 -0.002033539964)
(-7.709802224e-07 3.498014621e-20 -0.002033523223)
(-7.838585355e-07 3.165169683e-20 -0.002033509825)
(-7.587737488e-07 2.914832596e-20 -0.002033501595)
(-6.915380447e-07 2.741541321e-20 -0.002033499966)
(-5.868660835e-07 2.271979971e-20 -0.00203350435)
(-4.644094213e-07 1.897687017e-20 -0.002033512252)
(-3.508055395e-07 1.616187282e-20 -0.002033520452)
(-2.557131111e-07 1.419960945e-20 -0.002033526587)
(-1.773528361e-07 1.127093568e-20 -0.002033530067)
(-1.131638185e-07 1.026319801e-20 -0.002033531386)
(-6.095138263e-08 9.669401615e-21 -0.002033531196)
(-1.861852473e-08 9.381479986e-21 -0.00203353055)
(-2.745598932e-08 -3.054035806e-20 -0.002036768464)
(-7.16512589e-08 -1.492087451e-19 -0.002036767922)
(-1.127396725e-07 -8.134954895e-20 -0.002036766589)
(-1.540261221e-07 -5.195014559e-20 -0.002036764584)
(-1.93888348e-07 -3.660685671e-20 -0.002036761923)
(-2.318013217e-07 -2.71706517e-20 -0.002036758593)
(-2.675985112e-07 -2.017579342e-20 -0.002036754582)
(-3.011984455e-07 -1.402582732e-20 -0.002036749867)
(-3.325871197e-07 -7.485743198e-21 -0.002036744429)
(-3.617724229e-07 -2.7160825e-22 -0.002036738242)
(-3.887924411e-07 8.169922752e-21 -0.002036731282)
(-4.137371685e-07 1.744748146e-20 -0.002036723524)
(-4.367285718e-07 2.729266745e-20 -0.002036714945)
(-4.579135349e-07 3.741292745e-20 -0.002036705526)
(-4.774600931e-07 4.758841962e-20 -0.002036695252)
(-4.955548554e-07 5.760202117e-20 -0.002036684113)
(-5.124030606e-07 6.772264082e-20 -0.002036672103)
(-5.282224146e-07 7.751262485e-20 -0.00203665922)
(-5.432294102e-07 8.708572824e-20 -0.002036645468)
(-5.576434195e-07 8.642694406e-20 -0.002036630859)
(-5.716960389e-07 8.609253062e-20 -0.002036615411)
(-5.856096504e-07 7.71535755e-20 -0.002036599147)
(-5.995979859e-07 6.906132713e-20 -0.002036582096)
(-6.138756023e-07 6.168337298e-20 -0.002036564293)
(-6.28643997e-07 5.484683734e-20 -0.002036545778)
(-6.440952979e-07 4.844000925e-20 -0.002036526597)
(-6.604098865e-07 4.224672438e-20 -0.002036506799)
(-6.777495349e-07 3.5891589e-20 -0.00203648644)
(-6.962648764e-07 2.947621744e-20 -0.002036465575)
(-7.160862122e-07 2.286257347e-20 -0.002036444265)
(-7.373329689e-07 1.592736235e-20 -0.002036422573)
(-7.600951572e-07 8.585000473e-21 -0.002036400567)
(-7.843746751e-07 6.167694057e-21 -0.002036378328)
(-8.101010177e-07 8.239765355e-21 -0.002036355909)
(-8.376833622e-07 9.474798713e-21 -0.002036333247)
(-8.688711924e-07 9.925286313e-21 -0.002036310336)
(-9.027737131e-07 9.669339751e-21 -0.002036288822)
(-9.186325876e-07 8.730978497e-21 -0.002036271051)
(-8.93397745e-07 7.117122185e-21 -0.002036258982)
(-8.234625234e-07 4.827961745e-21 -0.002036254085)
(-7.139757761e-07 1.841324255e-21 -0.002036255475)
(-5.867236516e-07 -1.883266534e-21 -0.002036260356)
(-4.689849344e-07 -6.259814221e-21 -0.002036265267)
(-3.691114444e-07 -1.126563623e-20 -0.002036267736)
(-2.851570625e-07 -1.691442036e-20 -0.002036267321)
(-2.146520418e-07 -1.825944526e-20 -0.002036264541)
(-1.554262918e-07 -1.719459658e-20 -0.002036260048)
(-1.046329486e-07 -1.693671322e-20 -0.002036254917)
(-5.952936994e-08 -1.584996848e-20 -0.002036250344)
(-1.828992142e-08 -1.530491191e-20 -0.002036247391)
(-2.558987178e-08 -8.339495707e-20 -0.002039631884)
(-6.688423297e-08 -2.971862328e-19 -0.002039630799)
(-1.055258924e-07 -3.25363478e-19 -0.002039628401)
(-1.446014633e-07 -2.429333018e-19 -0.002039624826)
(-1.826861124e-07 -2.04232404e-19 -0.002039620121)
(-2.193381475e-07 -1.427402617e-19 -0.002039614319)
(-2.544757866e-07 -1.007246938e-19 -0.002039607443)
(-2.880798047e-07 -7.05818828e-20 -0.002039599513)
(-3.201393409e-07 -4.808072972e-20 -0.002039590539)
(-3.506983779e-07 -3.061375103e-20 -0.002039580537)
(-3.798367295e-07 -1.67399214e-20 -0.002039569517)
(-4.076476731e-07 -5.527907153e-21 -0.002039557491)
(-4.342346165e-07 3.60333675e-21 -0.002039544472)
(-4.597210641e-07 1.072323e-20 -0.002039530475)
(-4.84249608e-07 1.609588501e-20 -0.002039515516)
(-5.079844454e-07 2.00623648e-20 -0.002039499614)
(-5.310996475e-07 3.566458954e-20 -0.002039482792)
(-5.537662606e-07 4.968639135e-20 -0.002039465076)
(-5.761506713e-07 6.257398783e-20 -0.002039446497)
(-5.984224175e-07 7.460986464e-20 -0.002039427091)
(-6.207581491e-07 8.608658007e-20 -0.002039406892)
(-6.43320305e-07 8.775222292e-20 -0.002039385942)
(-6.662688753e-07 8.987222411e-20 -0.002039364285)
(-6.897642903e-07 9.252776723e-20 -0.002039341967)
(-7.139376796e-07 9.565773133e-20 -0.002039319038)