/*--------------------------------*- C++ -*----------------------------------*\
  =========                 |
  \\      /  F ield         | OpenFOAM: The Open Source CFD Toolbox
   \\    /   O peration     | Website:  https://openfoam.org
    \\  /    A nd           | Version:  7
     \\/     M anipulation  |
\*---------------------------------------------------------------------------*/
FoamFile
{
    version     2.0;
    format      ascii;
    class       volScalarField;
    location    "0.0003";
    object      generalizedNewtonian:nu;
}
// * * * * * * * * * * * * * * * * * * * * * * * * * * * * * * * * * * * * * //

dimensions      [0 2 -1 0 0 0 0];

internalField   nonuniform List<scalar> 
1167
(
16.36406754
16.16105262
15.84234673
15.27394665
14.49462276
13.50265231
12.33955765
11.08224518
9.816577725
8.611446391
7.507826952
6.522265765
5.655489182
4.899919181
4.244437387
3.67712555
3.186600216
2.762589915
2.395953117
2.078763645
1.804200532
1.566388941
1.360313608
1.181670125
1.026781607
0.8924835104
0.7760662204
0.675189488
0.5878314726
0.5122377242
0.4468800524
0.3904227696
0.3416943147
0.2996670313
15.5777459
15.39980918
15.13687241
14.6579623
14.0074663
13.17301914
12.17121322
11.05077741
9.880260863
8.727742494
7.644044092
6.657730327
5.77911568
5.00687857
4.333557349
3.749194426
3.24337641
2.806124234
2.428322581
2.101944153
1.819953308
1.576268849
1.365648638
1.183590221
1.026221178
0.8902146689
0.772705052
0.6712240634
0.5836318502
0.5080780213
0.4429492036
0.3868431164
0.3385322603
0.2969484399
0.2611555141
0.2303395208
0.2037926652
0.1809015501
0.1611372273
0.1440439683
0.1292312592
0.1163657452
0.1051634959
0.09538266326
0.08681794952
0.07929515014
0.0726664248
0.06680586666
0.06160493067
0.05696609265
14.95788698
14.79628514
14.56910584
14.14817858
13.58334889
12.86026515
11.98263286
10.97935065
9.900895958
8.807335119
7.752307001
6.77277768
5.887767187
5.102534271
4.413847092
3.814195498
3.294387589
2.8449126
2.456800472
2.121953353
1.833165583
1.584164682
1.369486594
1.184434145
1.024941976
0.8875228213
0.7691580903
0.6672550677
0.5795612017
0.504134736
0.439285685
0.3835507641
0.3356552272
0.2944963884
0.2591130368
0.228676111
0.2024683007
0.1798728445
0.160360821
0.1434784647
0.128839157
0.1161139885
0.1050234965
0.09533021412
0.08683292474
0.07936102741
0.07276981178
0.06693603777
0.06175347659
0.05712680307
14.4655859
14.31499208
14.11153837
13.72934016
13.22245145
12.57748298
11.79276169
10.88474575
9.889011136
8.855001532
7.834028648
6.867415885
5.981081568
5.186552381
4.485114898
3.872070037
3.339642133
2.879009362
2.481474962
2.138907195
1.84397547
1.590211978
1.371957892
1.184316393
1.023041807
0.884482348
0.7654787402
0.6633116677
0.5756285691
0.5003996791
0.4358683864
0.3805161872
0.3330295007
0.2922755803
0.2572746794
0.2271863672
0.2012868087
0.1789579606
0.1596716657
0.1429772297
0.128491974
0.1158912936
0.1048998119
0.09528414684
0.0868467351
0.07942017673
0.07286252553
0.06705288532
0.06188705666
0.05727163112
14.07318544
13.93014621
13.74292157
13.38711798
12.91995364
12.32981175
11.61362674
10.78047849
9.855149649
8.876939562
7.892015591
6.942591185
6.059224663
5.25888703
4.547362204
3.922831787
3.379199134
2.908531225
2.502481244
2.152951319
1.852524454
1.594550163
1.373189649
1.183347471
1.020608644
0.8811590106
0.7617076556
0.6594152743
0.5718366856
0.4968621013
0.432675972
0.3777119788
0.3306241833
0.2902554322
0.2556120378
0.2258446334
0.2002261915
0.1781386901
0.1590555558
0.1425295777
0.1281820582
0.115692527
0.104789411
0.09524306901
0.08685923639
0.07947337461
0.07294599296
0.06715826751
0.06200778676
0.05740282216
13.76021781
13.62259786
13.44650862
13.1088823
12.66936812
12.11790968
11.45165675
10.67606746
9.808462938
8.879722442
7.92997526
6.999991295
6.122863058
5.319851522
4.600724307
3.966575225
3.413168318
2.933616908
2.51997407
2.164251311
1.858970376
1.597324248
1.373306652
1.181631537
1.017722072
0.8776097236
0.7578797785
0.6555814933
0.5681853901
0.4935099127
0.429688244
0.375113232
0.3284125163
0.2884094977
0.2541003005
0.2246292744
0.1992681757
0.1774001457
0.1585008412
0.1421267691
0.1279031835
0.1155135597
0.1046898625
0.0952058851
0.08687035361
0.07952130108
0.07302143179
0.06725376654
0.06211748073
0.05752232879
13.51189474
13.37813159
13.20952072
12.884389
12.46410917
11.93992602
11.30967496
10.57749103
9.755972244
8.869333251
7.951949164
7.041944589
6.173254578
5.37005727
4.645497151
4.003487689
3.441739143
2.954439892
2.534121873
2.172974986
1.863470047
1.598680221
1.372430231
1.179267166
1.014454946
0.8738853808
0.7540241791
0.6518228757
0.5646724582
0.4903314081
0.4268863586
0.3726976752
0.3263711486
0.2867151608
0.2527187305
0.2235222084
0.1983975986
0.1767300779
0.1579979925
0.1417617057
0.1276503745
0.1153510903
0.1045992457
0.09517176453
0.08688008771
0.07956457059
0.07308989127
0.06734072289
0.0622176582
0.05763176876
13.31713523
13.1860189
13.02218315
12.70552141
12.29835668
11.7932237
11.1886143
10.4884122
9.702600608
8.850646281
7.961836075
7.071071691
6.211876485
5.410256817
4.682091372
4.033857521
3.465151984
2.97121347
2.545124722
2.179299752
1.866183034
1.598752307
1.370672553
1.176342312
1.010871482
0.8700277993
0.7501637805
0.6481460668
0.5612932155
0.4873133504
0.4242524417
0.3704455446
0.3244795148
0.2851528121
0.2514496477
0.2225081975
0.1976019443
0.1761183343
0.1575391387
0.1414285436
0.1274195056
0.1152024266
0.1045160149
0.09514005816
0.08688847261
0.07960372166
0.07315226854
0.06742027566
0.06230960989
0.05773252027
13.16737056
13.03792055
12.87681352
12.56563763
12.16707831
11.67488508
11.08816073
10.41098709
9.652058633
8.827658142
7.963001208
7.089731582
6.240191513
5.441311858
4.711039814
4.058080232
3.483689194
2.98416701
2.553201658
2.183415688
1.867273014
1.597674917
1.368141506
1.172936767
1.007028474
0.8660716351
0.7463165606
0.6445549064
0.5580418537
0.4844428969
0.4217699939
0.36833815
0.3227195234
0.2837059116
0.2502780918
0.2215743854
0.1968705162
0.1755564443
0.1571177746
0.1411224699
0.1272071568
0.1150653701
0.1044389254
0.09511026131
0.08689556638
0.07963922764
0.07320933157
0.06749339036
0.06239442308
0.05782573758
13.05619071
12.92756302
12.76760877
12.4594714
12.06601921
11.58198333
11.00733486
10.3462331
9.606870965
8.803554366
7.958428231
7.100246587
6.259814223
5.464274388
4.733047824
4.076624672
3.497691836
2.993572509
2.558565427
2.185504743
1.866901857
1.595577476
1.364940031
1.169124983
1.002977076
0.8620476011
0.7424973615
0.6410519991
0.5549123971
0.4817085703
0.4194244543
0.3663597412
0.3210756171
0.28235989
0.2491913408
0.2207099655
0.1961943524
0.1750373418
0.1567284912
0.1408395026
0.127010545
0.1149381215
0.1043669649
0.09508197597
0.08690143759
0.07967150095
0.07326173647
0.06756088676
0.06247301891
0.05791239866
12.97841954
12.85000788
12.68998601
12.38284676
11.99168803
11.51205268
10.94484321
10.29434902
9.568555097
8.780644496
7.950602877
7.104774923
6.272352258
5.48028611
4.74892759
4.090030053
3.507538353
2.999742134
2.561463168
2.185763185
1.865218427
1.592579224
1.361159255
1.164972171
0.9987621019
0.857981212
0.7387188174
0.6376383135
0.5518994817
0.4790996316
0.4172028045
0.3644965529
0.3195344099
0.2811023177
0.248178588
0.2199058191
0.1955659984
0.1745551276
0.1563667921
0.1405764022
0.1268273777
0.114819201
0.10429931
0.09505488976
0.08690616099
0.07970090087
0.07331004383
0.06762346022
0.06254617593
0.05799332833
12.92983443
12.8012872
12.64008328
12.33226509
11.941156
11.46287391
10.89918369
10.25494556
9.537895127
8.760540686
7.94144813
7.105126645
6.279331372
5.490546766
4.759486459
4.098851913
3.513640295
3.002981405
2.562136799
2.184391959
1.862379296
1.588798832
1.356883583
1.160538166
0.9944197679
0.853893571
0.734987807
0.6343129722
0.5489954582
0.476605714
0.4150936835
0.3627363947
0.3180841759
0.2799225628
0.2472306142
0.2191543312
0.1949791889
0.1741048583
0.1560289141
0.1403304067
0.1266557477
0.1147073898
0.104235288
0.09502875439
0.08690980997
0.07972773732
0.07335473072
0.06768169966
0.06261455191
0.0580692224
12.90737646
12.77826892
12.61489865
12.30503845
11.91203021
11.43255645
10.86910274
10.22729643
9.514974261
8.744131887
7.93237022
7.102884022
6.282196685
5.496121292
4.765477786
4.103632412
3.516428277
3.003607542
2.560821442
2.181572999
1.858525142
1.584346937
1.352192056
1.155877166
0.9899843896
0.8498034442
0.7313116182
0.6310751317
0.5461940357
0.4742175747
0.4130858114
0.3610684754
0.3167150795
0.278811579
0.2463395786
0.2184489824
0.1944286367
0.1736823896
0.1557117048
0.1400991674
0.1264940635
0.1146016788
0.1041743461
0.095003371
0.08691245369
0.07975227638
0.07339620226
0.0677361028
0.0626787011
0.05814066574
12.9086811
12.77856224
12.61208953
12.29906485
11.90243292
11.41971153
10.85372386
10.21095925
9.499734386
8.731881095
7.924307997
7.099180529
6.281983156
5.497862386
4.767571949
4.104906229
3.516300053
3.00192478
2.557756467
2.177483257
1.853787631
1.579318321
1.347152444
1.151039095
0.985485394
0.8457276479
0.7276959503
0.6279237602
0.5434897507
0.4719272543
0.4111700973
0.3594835867
0.3154184154
0.277761663
0.2454988446
0.2177840988
0.1939098643
0.173284234
0.1554125248
0.1398807641
0.1263410013
0.1145012283
0.1041160278
0.09497857947
0.08691415601
0.079774746
0.07343480193
0.06778708997
0.06273909057
0.0582081506
12.93200506
12.80042698
12.62999726
12.31269225
11.91093194
11.42295886
10.85215765
10.20563239
9.492340578
8.724265999
7.9179656
7.09483812
6.279516259
5.496517732
4.766408968
4.103217802
3.51365597
2.998225633
2.553179399
2.172300539
1.848299476
1.573806608
1.341829737
1.146061988
0.9809468475
0.8416778169
0.724144451
0.6248578823
0.5408772127
0.4697276207
0.4093385678
0.357973761
0.3141865361
0.2767661851
0.2447027616
0.2171549898
0.1934190902
0.1729074527
0.1551292391
0.1396735947
0.1261954518
0.114405337
0.1040599547
0.09495425036
0.0869149746
0.07979534057
0.07347082015
0.06783501524
0.06279611302
0.05827209046
12.97608214
12.84261298
12.66756007
12.34481942
11.93640606
11.44129043
10.86370527
10.21100253
9.492836845
8.721640072
7.913923687
7.090582667
6.275558718
5.492798574
4.762636783
4.099053461
3.508870881
2.992803487
2.547297169
2.166181564
1.842185113
1.567899589
1.336284507
1.140985206
0.9763917956
0.8376645394
0.7206602747
0.6218742342
0.5383512561
0.4676125561
0.4075841858
0.3565320246
0.3130129956
0.2758194761
0.2439466207
0.2165577042
0.1929531429
0.1725495723
0.1548599434
0.1394763083
0.1260564932
0.1143134237
0.1040058138
0.0949302779
0.08691495983
0.07981422448
0.07350450122
0.06788017574
0.0628500974
0.05833283112
13.03965571
12.90407804
12.72365424
12.39436841
11.97797233
11.47400557
10.88759077
10.22660894
9.501151886
8.724241947
7.912619428
7.086955985
6.270712712
5.487358753
4.756828653
4.092861041
3.502284442
2.985942457
2.540323157
2.159279187
1.835547236
1.561670533
1.330571206
1.135842931
0.9718413466
0.8336982926
0.7172468001
0.6189715527
0.5359076425
0.4655756531
0.4059007189
0.3551527355
0.3118923527
0.2749167279
0.2432264312
0.2159889028
0.1925093523
0.1722085137
0.1546030286
0.1392877685
0.1259233517
0.1142250013
0.1039533434
0.09490657417
0.0869141544
0.07983153561
0.07353604956
0.06792281963
0.06290131797
0.05839066037
13.12220225
12.98420983
12.79758311
12.46068132
12.03495197
11.52047805
10.92318638
10.25184945
9.517006535
8.73211193
7.91434188
7.084432924
6.265597335
5.480800345
4.74946559
4.085031595
3.494223969
2.977885215
2.532444907
2.151740946
1.828490955
1.555190855
1.324732186
1.130662791
0.9673127643
0.8297869973
0.7139070923
0.6161484992
0.533542728
0.4636120825
0.4042829393
0.3538307371
0.3108199811
0.2740538662
0.2425385347
0.2154457213
0.1920854539
0.1718825224
0.1543571775
0.1391070244
0.1257953778
0.1141396616
0.1039023248
0.09488306596
0.08691259414
0.07984738897
0.07356563534
0.06796315316
0.06295000237
0.05844581677
13.22349796
13.08272782
12.88902839
12.543508
12.10700888
11.58040934
10.97025524
10.28632714
9.539911366
8.745026398
7.919217849
7.083420565
6.260679265
5.47352945
4.740910055
4.075889651
3.484990688
2.968860418
2.523827007
2.143692025
1.821107084
1.548526659
1.318811919
1.125471847
0.9628187119
0.8259369137
0.7106423082
0.6134032944
0.5312535969
0.4617177284
0.402726376
0.3525613833
0.3097918497
0.273227405
0.2418799787
0.2149257281
0.1916795327
0.1715702568
0.154121292
0.1389332704
0.1256720222
0.1140570611
0.1038525745
0.09485969169
0.08691030834
0.07986187958
0.07359339915
0.06800134657
0.06299633826
0.05849849675
13.34347771
13.1995029
12.99783074
12.64266495
12.1939697
11.65360086
11.0286725
10.32998305
9.569806108
8.762870868
7.927207476
7.083971635
6.256109055
5.465780787
4.731438019
4.06572217
3.474813443
2.959056671
2.514621741
2.135237688
1.81347159
1.541736754
1.312848253
1.120294687
0.9583734674
0.8221546286
0.707453156
0.6107343597
0.5290372276
0.4598888491
0.4012271081
0.3513409009
0.3088045545
0.2724345316
0.2412483114
0.2144269212
0.1912899809
0.171270352
0.1538944328
0.1387658442
0.1255528328
0.1139769146
0.1038039387
0.09483639861
0.0869073197
0.0798750846
0.07361945572
0.06803753888
0.06304047863
0.05854885997
13.48256307
13.33486567
13.12429602
12.75825774
12.295832
11.73985712
11.09838301
10.38287662
9.606772427
8.785726385
7.938367984
7.086173009
6.25204763
5.457779156
4.721313512
4.054809641
3.463916864
2.948643238
2.504974949
2.126486432
1.805659871
1.534864727
1.306871147
1.115153029
0.9539887018
0.8184461726
0.7043415916
0.6081408087
0.5268904648
0.4581221225
0.3997822301
0.3501661642
0.3078552335
0.2716728332
0.240641456
0.2139476077
0.1909154546
0.1709817485
0.1536758176
0.1386041849
0.125437427
0.1138989816
0.1037562876
0.09481314114
0.08690364511
0.07988706577
0.07364389758
0.06807184222
0.06308254674
0.05859703486
13.6411917
13.48931031
13.26888714
12.89059033
12.41277543
11.83927722
11.17932762
10.44499675
9.650816902
8.813604267
7.952769546
7.090164641
6.2486646
5.449732682
4.710815121
4.043378489
3.452493933
2.937784533
2.495002725
2.117526909
1.797741837
1.527959113
1.300910883
1.110061164
0.9496731275
0.814817266
0.7013089561
0.6056218462
0.5248113554
0.4564149673
0.3983887442
0.3490345375
0.3069414902
0.2709399952
0.2400576274
0.2134863597
0.1905548555
0.1707035754
0.1534647932
0.1384478246
0.1253254868
0.1138230621
0.1037095126
0.09478988016
0.08689929665
0.07989787163
0.07366679803
0.06810434561
0.06312264031
0.05864312293
13.81979965
13.66339718
13.43197125
13.03993412
12.54502857
11.95197721
11.27128951
10.51616574
9.701917304
8.846555394
7.970457682
7.095989733
6.246081922
5.441889933
4.700166605
4.031616152
3.440700743
2.926629135
2.484816512
2.108436013
1.789772889
1.521059008
1.294995574
1.105037034
0.94543618
0.8112699138
0.6983557325
0.6031777548
0.522798429
0.4547652484
0.3970440918
0.3479437173
0.306061282
0.2702342516
0.2394953431
0.2130419907
0.1902073437
0.1704351131
0.1532608123
0.138296371
0.1252167457
0.1137489886
0.1036635227
0.09476658174
0.08689428183
0.07990753879
0.07368821339
0.06813511779
0.06316083495
0.05868720265
2.915289722
2.474508179
2.099286339
1.781799337
1.514195964
1.289149979
1.100095263
0.9412866712
0.8078086175
0.6954831944
0.6008069506
0.5208499938
0.4531710488
0.3957462877
0.3468918296
0.3052131663
0.2695541998
0.2389534245
0.21261352
0.1898720046
0.1701757549
0.1530634366
0.1381495083
0.1251109864
0.1136766232
0.1036182415
0.09474321562
0.08688860354
0.07991609325
0.0737081851
0.06816420983
0.06319718675
0.05872933185
)
;

boundaryField
{
    front_top
    {
        type            wedge;
    }
    front_middle
    {
        type            wedge;
    }
    front_bottom
    {
        type            wedge;
    }
    back_top
    {
        type            wedge;
    }
    back_middle
    {
        type            wedge;
    }
    back_bottom
    {
        type            wedge;
    }
    axis_top
    {
        type            symmetryPlane;
    }
    axis_middle
    {
        type            symmetryPlane;
    }
    axis_bottom
    {
        type            symmetryPlane;
    }
    wall_top
    {
        type            calculated;
        value           nonuniform 0();
    }
    wall_middle
    {
        type            calculated;
        value           nonuniform 0();
    }
    wall_bottom
    {
        type            calculated;
        value           nonuniform List<scalar> 
23
(
0.05486468874
0.05502962157
0.05517841094
0.05531333377
0.05543638614
0.05554921318
0.05565321924
0.05574957734
0.05583928174
0.05592317042
0.05600194994
0.05607621348
0.05614646015
0.05621310902
0.05627651037
0.05633695542
0.05639468543
0.056449899
0.05650275726
0.05655338966
0.05660189841
0.0566483624
0.05669283957
)
;
    }
    inlet
    {
        type            calculated;
        value           nonuniform 0();
    }
    outlet
    {
        type            calculated;
        value           nonuniform 0();
    }
    procBoundary1to0
    {
        type            processor;
        value           nonuniform List<scalar> 
51
(
14.01928145
13.85784554
13.61415445
13.20686667
12.69293427
12.07814701
11.37428204
10.5960189
9.759741186
8.884393835
7.991370196
7.103724645
6.244520146
5.434451172
4.689522636
4.019663685
3.428679609
3.428679609
2.903862364
2.464149121
2.090143102
1.773868157
1.507400837
1.283388307
1.095245632
0.9372326677
0.8044369575
0.6926924643
0.5985086772
0.5189646776
0.4516315456
0.394493812
0.3458773291
0.3043956883
0.2688986343
0.2384308778
0.2122001464
0.1895482044
0.1699250129
0.1528723025
0.1380069747
0.1250080282
0.1136058484
0.1035736036
0.09471977146
0.08688227364
0.07992355158
0.07372674041
0.06819165684
0.06323173507
0.05876955156
)
;
    }
    procBoundary1to2
    {
        type            processor;
        value           nonuniform List<scalar> 
51
(
17.37267051
17.12917983
16.71962326
16.00804727
15.03347984
13.82332307
12.46125518
11.056063
9.701722527
8.456137048
7.343710484
6.367064724
5.517575472
4.782155564
4.146792225
3.598124497
3.124118633
2.714297561
2.359617106
2.052309762
1.785788458
1.554400677
1.353356905
1.178559708
1.02652254
0.894248124
0.7791824343
0.6791149263
0.5921449624
0.5166182035
0.4510975384
0.3943204895
0.3451786956
0.3026922013
0.26343612
0.26343612
0.232207481
0.2052865945
0.182066027
0.1620184581
0.1446871189
0.12967794
0.1166530881
0.1053237464
0.0954433935
0.08680214971
0.07922172941
0.0725507227
0.06666016315
0.06143883607
0.05678667082
)
;
    }
}


// ************************************************************************* //
