/*--------------------------------*- C++ -*----------------------------------*\
  =========                 |
  \\      /  F ield         | OpenFOAM: The Open Source CFD Toolbox
   \\    /   O peration     | Website:  https://openfoam.org
    \\  /    A nd           | Version:  7
     \\/     M anipulation  |
\*---------------------------------------------------------------------------*/
FoamFile
{
    version     2.0;
    format      ascii;
    class       surfaceScalarField;
    location    "0.0003";
    object      phi;
}
// * * * * * * * * * * * * * * * * * * * * * * * * * * * * * * * * * * * * * //

dimensions      [1 0 -1 0 0 0 0];

internalField   nonuniform List<scalar> 
2260
(
-9.920317693e-15
5.786942539e-11
-3.88695269e-14
1.69321861e-10
-8.556220949e-14
2.74523152e-10
-1.488762008e-13
3.73709902e-10
-2.282429324e-13
4.671126225e-10
-3.23877235e-13
5.5495456e-10
-4.373489239e-13
6.374510376e-10
-5.715375805e-13
7.148083858e-10
-7.306070116e-13
7.872238502e-10
-9.19885818e-13
8.548853187e-10
-1.145562629e-12
9.17971231e-10
-1.414438221e-12
9.766504798e-10
-1.733723896e-12
1.031082216e-09
-2.110825535e-12
1.08141555e-09
-2.553109959e-12
1.127788994e-09
-3.067732257e-12
1.170330149e-09
-3.661386467e-12
1.209154965e-09
-4.339796953e-12
1.244366982e-09
-5.107367774e-12
1.276056137e-09
-5.967015096e-12
1.304298496e-09
-6.919125772e-12
1.329154443e-09
-7.961590545e-12
1.350667476e-09
-9.088760577e-12
1.368862936e-09
-1.029121479e-11
1.383745981e-09
-1.155487197e-11
1.395300196e-09
-1.286093661e-11
1.403484831e-09
-1.418507684e-11
1.408233849e-09
-1.549790585e-11
1.409453276e-09
-1.67646714e-11
1.407019678e-09
-1.794643515e-11
1.400779507e-09
-1.900065563e-11
1.39054765e-09
-1.988326879e-11
1.376108673e-09
-2.055025712e-11
1.357217365e-09
1.333602185e-09
-1.114518158e-14
5.788057057e-11
-4.367001388e-14
1.693543858e-10
-9.613179751e-14
2.745756137e-10
-1.671930566e-13
3.737809633e-10
-2.558495248e-13
4.672012789e-10
-3.617423305e-13
5.550604528e-10
-4.855237753e-13
6.37574819e-10
-6.291177026e-13
7.149519798e-10
-7.957041946e-13
7.873904367e-10
-9.89628717e-13
8.550792432e-10
-1.216200251e-12
9.181978025e-10
-1.481409511e-12
9.76915689e-10
-1.79167857e-12
1.031392485e-09
-2.153616206e-12
1.081777488e-09
-2.573864327e-12
1.128209242e-09
-3.058845931e-12
1.170815131e-09
-3.61452847e-12
1.209710648e-09
-4.245834482e-12
1.244998288e-09
-4.956642785e-12
1.276766946e-09
-5.749212397e-12
1.305091065e-09
-6.623521414e-12
1.330028752e-09
-7.577188343e-12
1.351621143e-09
-8.604404184e-12
1.369890152e-09
-9.695969137e-12
1.384837546e-09
-1.08382472e-11
1.396442474e-09
-1.201341993e-11
1.404660004e-09
-1.319863441e-11
1.409419063e-09
-1.436662943e-11
1.410621271e-09
-1.548555035e-11
1.408138599e-09
-1.652007925e-11
1.401814036e-09
-1.743219798e-11
1.391459769e-09
-1.818296501e-11
1.37685944e-09
-1.873412693e-11
1.357768527e-09
-1.905053627e-11
1.333918594e-09
-1.910209827e-11
1.305019742e-09
-1.88663732e-11
1.270766386e-09
-1.833031695e-11
1.230842884e-09
-1.74922542e-11
1.184929569e-09
-1.636315775e-11
1.132710137e-09
-1.496721729e-11
1.073877901e-09
-1.334212868e-11
1.008142425e-09
-1.153865628e-11
9.352360323e-10
-9.619687826e-12
8.549194251e-10
-7.658772858e-12
7.669859454e-10
-5.73839394e-12
6.712657201e-10
-3.947964754e-12
5.676281546e-10
-2.381720899e-12
4.559836867e-10
-1.136598111e-12
3.362838972e-10
-3.102951648e-13
2.085190668e-10
7.270823277e-11
-1.218076546e-14
5.789275133e-11
-4.773742912e-14
1.693899425e-10
-1.051130084e-13
2.746329893e-10
-1.828338084e-13
3.738586841e-10
-2.795807163e-13
4.672980258e-10
-3.946140082e-13
5.551754861e-10
-5.278574601e-13
6.377080625e-10
-6.804286687e-13
7.15104551e-10
-8.545785772e-13
7.875645866e-10
-1.053741874e-12
8.552784065e-10
-1.282352427e-12
9.184264131e-10
-1.545593001e-12
9.771789296e-10
-1.84914853e-12
1.031696041e-09
-2.198931804e-12
1.082127271e-09
-2.60089051e-12
1.128611201e-09
-3.060825691e-12
1.171275066e-09
-3.583897402e-12
1.21023372e-09
-4.174453911e-12
1.245588844e-09
-4.835851143e-12
1.277428343e-09
-5.569682862e-12
1.305824897e-09
-6.375655348e-12
1.330834725e-09
-7.250989388e-12
1.352496477e-09
-8.189913422e-12
1.370829076e-09
-9.183328202e-12
1.385830961e-09
-1.021821569e-11
1.397477361e-09
-1.127759391e-11
1.405719382e-09
-1.23401929e-11
1.410481662e-09
-1.338066266e-11
1.411661741e-09
-1.436999224e-11
1.409127929e-09
-1.527613619e-11
1.40272018e-09
-1.606524743e-11
1.39224888e-09
-1.670288096e-11
1.377497074e-09
-1.715587663e-11
1.358221522e-09
-1.739407709e-11
1.334156795e-09
-1.739230918e-11
1.305017974e-09
-1.713242198e-11
1.270506499e-09
-1.660471475e-11
1.230315177e-09
-1.580958889e-11
1.184134444e-09
-1.47584219e-11
1.13165897e-09
-1.347408521e-11
1.072593565e-09
-1.199105672e-11
1.006659397e-09
-1.035503718e-11
9.336000131e-10
-8.622039214e-12
8.531864276e-10
-6.857212127e-12
7.652211189e-10
-5.133364634e-12
6.695418733e-10
-3.529301026e-12
5.660240919e-10
-2.128068338e-12
4.545824551e-10
-1.015196329e-12
3.351710262e-10
-2.770910357e-13
2.077809621e-10
7.243114173e-11
-1.304245295e-14
5.790579379e-11
-5.112536426e-14
1.694280254e-10
-1.126239258e-13
2.746944879e-10
-1.959364303e-13
3.739419966e-10
-2.995737703e-13
4.674016632e-10
-4.224953553e-13
5.552984077e-10
-5.641719202e-13
6.37849739e-10
-7.249765504e-13
7.152653556e-10
-9.063910624e-13
7.877460011e-10
-1.110987925e-12
8.554830034e-10
-1.342359732e-12
9.186577849e-10
-1.604910373e-12
9.774414803e-10
-1.903610392e-12
1.031994741e-09
-2.243702133e-12
1.082467363e-09
-2.630545878e-12
1.128998045e-09
-3.069237422e-12
1.171713758e-09
-3.564296963e-12
1.210728779e-09
-4.119565475e-12
1.246144113e-09
-4.737812389e-12
1.27804659e-09
-5.420132574e-12
1.306507217e-09
-6.165961167e-12
1.331580553e-09
-6.972137798e-12
1.353302653e-09
-7.833004231e-12
1.371689942e-09
-8.739532366e-12
1.386737489e-09
-9.679385533e-12
1.398417214e-09
-1.063636791e-11
1.406676365e-09
-1.159076886e-11
1.411436063e-09
-1.251905483e-11
1.412590027e-09
-1.339485456e-11
1.410003728e-09
-1.418915676e-11
1.403514482e-09
-1.487182548e-11
1.392931549e-09
-1.541242904e-11
1.378037678e-09
-1.578219252e-11
1.358591286e-09
-1.595520131e-11
1.334329803e-09
-1.591041151e-11
1.304973184e-09
-1.563307912e-11
1.270229167e-09
-1.511613775e-11
1.229798235e-09
-1.436148917e-11
1.183379795e-09
-1.338057009e-11
1.130678051e-09
-1.219487993e-11
1.071407874e-09
-1.083595182e-11
1.005300469e-09
-9.345022938e-12
9.32109084e-10
-7.772195029e-12
8.516135994e-10
-6.175467682e-12
7.636243913e-10
-4.619483249e-12
6.679858887e-10
-3.17413574e-12
5.645787441e-10
-1.913106958e-12
4.53321426e-10
-9.123982139e-13
3.341703171e-10
-2.489935949e-13
2.071175573e-10
7.218214814e-11
-1.374439897e-14
5.791953819e-11
-5.389323076e-14
1.694681742e-10
-1.187694126e-13
2.747593641e-10
-2.066755774e-13
3.740299028e-10
-3.160566635e-13
4.675110443e-10
-4.45612766e-13
5.554279638e-10
-5.945366339e-13
6.379986629e-10
-7.626363173e-13
7.154334553e-10
-9.507116971e-13
7.879340765e-10
-1.160592084e-12
8.556928837e-10
-1.395078445e-12
9.188922712e-10
-1.657818709e-12
9.777042205e-10
-1.953081488e-12
1.032290004e-09
-2.285502759e-12
1.082799784e-09
-2.659812498e-12
1.129372354e-09
-3.080436793e-12
1.172134382e-09
-3.551394468e-12
1.211199737e-09
-4.076054766e-12
1.246668773e-09
-4.656552741e-12
1.278627088e-09
-5.293651019e-12
1.307144315e-09
-5.986417638e-12
1.33227332e-09
-6.731495478e-12
1.354047731e-09
-7.523260622e-12
1.372481707e-09
-8.352866861e-12
1.387567095e-09
-9.208572754e-12
1.39927292e-09
-1.007505792e-11
1.40754285e-09
-1.093398976e-11
1.412294995e-09
-1.176367223e-11
1.413419709e-09
-1.254007454e-11
1.410780131e-09
-1.323701901e-11
1.404211427e-09
-1.382762567e-11
1.393522155e-09
-1.428503709e-11
1.378495089e-09
-1.458419905e-11
1.358890448e-09
-1.470285892e-11
1.334448463e-09
-1.462338656e-11
1.304893711e-09
-1.433378246e-11
1.269939563e-09
-1.382904522e-11
1.229293498e-09
-1.31121155e-11
1.182662865e-09
-1.219430891e-11
1.129760244e-09
-1.109575062e-11
1.070309316e-09
-9.845309597e-12
1.004050028e-09
-8.480299019e-12
9.307440733e-10
-7.045733585e-12
8.501790338e-10
-5.593513344e-12
7.621721709e-10
-4.181362899e-12
6.66573738e-10
-2.871661232e-12
5.632690423e-10
-1.730212744e-12
4.521799773e-10
-8.250143475e-13
3.332651185e-10
-2.251345168e-13
2.065176773e-10
7.195701361e-11
-1.430414115e-14
5.793384233e-11
-5.609973427e-14
1.695099698e-10
-1.236583059e-13
2.748269226e-10
-2.152466117e-13
3.741214911e-10
-3.292776308e-13
4.676250753e-10
-4.64261197e-13
5.555629473e-10
-6.191830236e-13
6.381535847e-10
-7.935066015e-13
7.156077789e-10
-9.874504953e-13
7.881280204e-10
-1.202178882e-12
8.559076121e-10
-1.439792093e-12
9.191298844e-10
-1.703235579e-12
9.77967664e-10
-1.996113383e-12
1.032582881e-09
-2.322421196e-12
1.083126092e-09
-2.68623397e-12
1.129736167e-09
-3.09146887e-12
1.172539617e-09
-3.541659769e-12
1.211649928e-09
-4.039646754e-12
1.24716676e-09
-4.587067554e-12
1.279174509e-09
-5.184413395e-12
1.307741661e-09
-5.83031434e-12
1.332919221e-09
-6.521386638e-12
1.354738803e-09
-7.251920951e-12
1.373212242e-09
-8.013418361e-12
1.388328593e-09
-8.794614109e-12
1.400054116e-09
-9.581154026e-12
1.40832939e-09
-1.035591261e-11
1.413069754e-09
-1.109899703e-11
1.414162794e-09
-1.178843551e-11
1.411469569e-09
-1.240069293e-11
1.404823684e-09
-1.291171009e-11
1.394033173e-09
-1.329780128e-11
1.37888118e-09
-1.353709848e-11
1.359129745e-09
-1.36104595e-11
1.334521824e-09
-1.350305665e-11
1.304786309e-09
-1.320517005e-11
1.269641676e-09
-1.271338928e-11
1.228801717e-09
-1.203137364e-11
1.181980849e-09
-1.117017272e-11
1.128899043e-09
-1.014858892e-11
1.069287732e-09
-8.993110784e-12
1.002894549e-09
-7.737598502e-12
9.294885608e-10
-6.422678668e-12
8.488641138e-10
-5.095034459e-12
7.608445264e-10
-3.806510047e-12
6.652852134e-10
-2.613120814e-12
5.620756528e-10
-1.574016579e-12
4.511408728e-10
-7.504411086e-13
3.324415426e-10
-2.047874459e-13
2.059720233e-10
7.175222617e-11
-1.473287225e-14
5.79485752e-11
-5.778601201e-14
1.695530229e-10
-1.274031007e-13
2.748965397e-10
-2.2184731e-13
3.742159353e-10
-3.394857404e-13
4.677427137e-10
-4.787649501e-13
5.557022266e-10
-6.384852523e-13
6.38313305e-10
-8.178690803e-13
7.157871627e-10
-1.016736058e-12
7.883268874e-10
-1.235683859e-12
8.561265599e-10
-1.476186851e-12
9.193703874e-10
-1.740536053e-12
9.782320132e-10
-2.031682058e-12
1.032874027e-09
-2.352978198e-12
1.083447388e-09
-2.707948088e-12
1.130091137e-09
-3.099995891e-12
1.172931665e-09
-3.532224056e-12
1.212082156e-09
-4.006879297e-12
1.247641415e-09
-4.525255462e-12
1.279692885e-09
-5.087539261e-12
1.308303945e-09
-5.692002292e-12
1.333523684e-09
-6.335270607e-12
1.355382072e-09
-7.011530273e-12
1.373888501e-09
-7.712703888e-12
1.389029766e-09
-8.427936747e-12
1.400769349e-09
-9.143866446e-12
1.409045319e-09
-9.844444981e-12
1.413770332e-09
-1.051150219e-11
1.414829851e-09
-1.112489931e-11
1.412082966e-09
-1.166351893e-11
1.405362304e-09
-1.210575186e-11
1.394475405e-09
-1.243074568e-11
1.379206174e-09
-1.26192959e-11
1.359318295e-09
-1.265492811e-11
1.334557456e-09
-1.252513584e-11
1.304656516e-09
-1.22220582e-11
1.269338598e-09
-1.174355055e-11
1.228323209e-09
-1.109371925e-11
1.181331018e-09
-1.028327065e-11
1.128088594e-09
-9.329759869e-12
1.068334221e-09
-8.257560225e-12
1.00182235e-09
-7.097494842e-12
9.283284954e-10
-5.886399965e-12
8.476530189e-10
-4.666484441e-12
7.596246108e-10
-3.484576113e-12
6.64103305e-10
-2.39127983e-12
5.609823564e-10
-1.440098517e-12
4.501896914e-10
-6.865504448e-13
3.316879944e-10
-1.873689494e-13
2.054728418e-10
7.156485721e-11
-1.503962737e-14
5.796361483e-11
-5.899751962e-14
1.695969808e-10
-1.301084965e-13
2.749676507e-10
-2.266590596e-13
3.743124858e-10
-3.469576097e-13
4.678630123e-10
-4.894765586e-13
5.558447455e-10
-6.528507122e-13
6.384766792e-10
-8.361485493e-13
7.159704605e-10
-1.038895822e-12
7.885296346e-10
-1.261267425e-12
8.563489315e-10
-1.504187389e-12
9.196133074e-10
-1.76934598e-12
9.784971718e-10
-2.059065853e-12
1.033163747e-09
-2.376138861e-12
1.083764461e-09
-2.72354757e-12
1.130438546e-09
-3.104240234e-12
1.173312357e-09
-3.520777281e-12
1.212498693e-09
-3.974957609e-12
1.248095595e-09
-4.467801416e-12
1.280185728e-09
-4.999049398e-12
1.308835193e-09
-5.566820683e-12
1.334091455e-09
-6.167666815e-12
1.355982918e-09
-6.795798532e-12
1.374516633e-09
-7.443480964e-12
1.389677449e-09
-8.100328436e-12
1.401426196e-09
-8.753860199e-12
1.409698851e-09
-9.389105779e-12
1.414405578e-09
-9.989408027e-12
1.415430153e-09
-1.053636546e-11
1.412629924e-09
-1.101095334e-11
1.405836892e-09
-1.139378255e-11
1.394858235e-09
-1.1666437e-11
1.379478828e-09
-1.181200055e-11
1.359463859e-09
-1.181629025e-11
1.334561746e-09
-1.16686786e-11
1.304508905e-09
-1.136283825e-11
1.269032758e-09
-1.089763013e-11
1.227858001e-09
-1.027741816e-11
1.180710806e-09
-9.512523477e-12
1.127323699e-09
-8.619342466e-12
1.06744104e-09
-7.620350704e-12
1.000823358e-09
-6.543725163e-12
9.272518696e-10
-5.423016694e-12
8.465323102e-10
-4.296585501e-12
7.584981795e-10
-3.206963376e-12
6.630136826e-10
-2.200135226e-12
5.59975528e-10
-1.324790671e-12
4.493143465e-10
-6.315712835e-13
3.309947747e-10
-1.723887296e-13
2.05013659e-10
7.139246848e-11
-1.523831335e-14
5.797885314e-11
-5.978532879e-14
1.696415278e-10
-1.318874974e-13
2.750397529e-10
-2.298459207e-13
3.744104443e-10
-3.51952736e-13
4.679851191e-10
-4.967091821e-13
5.55989502e-10
-6.626817686e-13
6.386426518e-10
-8.487945436e-13
7.161565733e-10
-1.054375813e-12
7.887352159e-10
-1.279265026e-12
8.565738207e-10
-1.523943819e-12
9.198579862e-10
-1.789585618e-12
9.787628136e-10
-2.077961723e-12
1.033452123e-09
-2.391317139e-12
1.084077817e-09
-2.73213092e-12
1.130779359e-09
-3.102889184e-12
1.173683116e-09
-3.505592721e-12
1.212901397e-09
-3.941704085e-12
1.248531707e-09
-4.411961212e-12
1.280655986e-09
-4.915675443e-12
1.309338907e-09
-5.450922359e-12
1.334626702e-09
-6.014058568e-12
1.356546054e-09
-6.599483509e-12
1.375102058e-09
-7.199682273e-12
1.390277648e-09
-7.804837994e-12
1.402031352e-09
-8.403215794e-12
1.410297229e-09
-8.980924772e-12
1.414983287e-09
-9.522633272e-12
1.415971862e-09
-1.001155454e-11
1.413118845e-09
-1.043049063e-11
1.406255828e-09
-1.076204416e-11
1.395189788e-09
-1.098986071e-11
1.379706645e-09
-1.109905188e-11
1.35957305e-09
-1.107736739e-11
1.334540061e-09
-1.091571751e-11
1.304347255e-09
-1.060903895e-11
1.268726079e-09
-1.015695652e-11
1.227405919e-09
-9.564003095e-12
1.180117852e-09
-8.840079448e-12
1.126599776e-09
-8.000516349e-12
1.066601477e-09
-7.066086484e-12
9.998889278e-10
-6.06265885e-12
9.26248442e-10
-5.020929561e-12
8.454905809e-10
-3.975937844e-12
7.574531877e-10
-2.966522291e-12
6.62004267e-10
-2.034706169e-12
5.590437118e-10
-1.225057328e-12
4.485046977e-10
-5.840428567e-13
3.303537601e-10
-1.594451529e-13
2.045890612e-10
7.123302333e-11
-1.533960165e-14
5.799419274e-11
-6.019214564e-14
1.696863804e-10
-1.328345434e-13
2.751123953e-10
-2.3155845e-13
3.745091682e-10
-3.547106281e-13
4.681082713e-10
-5.007792278e-13
5.561355706e-10
-6.683632986e-13
6.388102358e-10
-8.562484632e-13
7.163444585e-10
-1.063635149e-12
7.889426026e-10
-1.290117125e-12
8.568003027e-10
-1.535822162e-12
9.201036912e-10
-1.801485274e-12
9.790284767e-10
-2.088388459e-12
1.033739027e-09
-2.398278521e-12
1.084387707e-09
-2.733186206e-12
1.131114267e-09
-3.095029744e-12
1.174044959e-09
-3.485418181e-12
1.213291785e-09
-3.905502116e-12
1.248951791e-09
-4.355600509e-12
1.281106084e-09
-4.834800037e-12
1.309818107e-09
-5.341089981e-12
1.335132992e-09
-5.870649075e-12
1.357075613e-09
-6.41812361e-12
1.375649532e-09
-6.976137061e-12
1.390835661e-09
-7.535517851e-12
1.402590733e-09
-8.085131421e-12
1.410846843e-09
-8.612191926e-12
1.415510347e-09
-9.10246857e-12
1.416462138e-09
-9.540731342e-12
1.413557108e-09
-9.911315055e-12
1.406626411e-09
-1.019862736e-11
1.3954771e-09
-1.038808699e-11
1.379896104e-09
-1.046655733e-11
1.35965152e-09
-1.042340071e-11
1.334496905e-09
-1.025085212e-11
1.304174706e-09
-9.944865085e-12
1.268420092e-09
-9.505644728e-12
1.226966698e-09
-8.937817818e-12
1.179550025e-09
-8.250851864e-12
1.12591281e-09
-7.459116977e-12
1.065809742e-09
-6.581849113e-12
9.990116598e-10
-5.642894763e-12
9.253094875e-10
-4.670464407e-12
8.445181504e-10
-3.696722176e-12
7.564794453e-10
-2.75731981e-12
6.610648645e-10
-1.890868764e-12
5.581772606e-10
-1.138390648e-12
4.477522193e-10
-5.427613502e-13
3.297581305e-10
-1.482080853e-13
2.041945078e-10
7.108481524e-11
-1.535423751e-14
5.800954698e-11
-6.026364218e-14
1.697312898e-10
-1.330214727e-13
2.751851531e-10
-2.319412919e-13
3.74608088e-10
-3.554492871e-13
4.682317792e-10
-5.02001306e-13
5.562821226e-10
-6.702507557e-13
6.389784853e-10
-8.589573778e-13
7.165331651e-10
-1.067165145e-12
7.891508104e-10
-1.294312293e-12
8.570274499e-10
-1.540256892e-12
9.203496358e-10
-1.805369049e-12
9.792935889e-10
-2.090516786e-12
1.034024174e-09
-2.397021345e-12
1.084694211e-09
-2.726393662e-12
1.131443639e-09
-3.080089426e-12
1.174398655e-09
-3.459360357e-12
1.213671056e-09
-3.865062475e-12
1.249357493e-09
-4.297077651e-12
1.281538099e-09
-4.754364072e-12
1.310275393e-09
-5.234719776e-12
1.335613348e-09
-5.734313294e-12
1.357575207e-09
-6.247948721e-12
1.376163168e-09
-6.768449928e-12
1.391356162e-09
-7.287221294e-12
1.403109504e-09
-7.793711102e-12
1.411353332e-09
-8.27614118e-12
1.415992777e-09
-8.721281549e-12
1.416907279e-09
-9.115313311e-12
1.41395114e-09
-9.443902865e-12
1.406955001e-09
-9.693104656e-12
1.395726302e-09
-9.849798354e-12
1.380052798e-09
-9.902391597e-12
1.359704113e-09
-9.841598624e-12
1.334436112e-09
-9.660782198e-12
1.30399389e-09
-9.356737494e-12
1.268116048e-09
-8.930090741e-12
1.226540051e-09
-8.385503453e-12
1.179005438e-09
-7.732015018e-12
1.125259321e-09
-6.983132237e-12
1.065060859e-09
-6.156704437e-12
9.98185232e-10
-5.274802304e-12
9.244275853e-10
-4.363464948e-12
8.43606813e-10
-3.452357723e-12
7.555683381e-10
-2.574370441e-12
6.601868772e-10
-1.76516231e-12
5.573680525e-10
-1.06268825e-12
4.470497453e-10
-5.067179033e-13
3.292021602e-10
-1.384007866e-13
2.038261907e-10
7.094641445e-11
-1.529212066e-14
5.80248391e-11
-6.002773704e-14
1.697760254e-10
-1.325173644e-13
2.752576427e-10
-2.311271413e-13
3.747066978e-10
-3.543469785e-13
4.683549991e-10
-5.006382946e-13
5.564284139e-10
-6.686934066e-13
6.391465404e-10
-8.573013749e-13
7.167217731e-10
-1.065421967e-12
7.89358931e-10
-1.292344373e-12
8.572543723e-10
-1.537730093e-12
9.205950215e-10
-1.801667586e-12
9.795575264e-10
-2.084674561e-12
1.034307181e-09
-2.387644801e-12
1.084997181e-09
-2.711623677e-12
1.131767618e-09
-3.057708689e-12
1.17474474e-09
-3.426825316e-12
1.214040173e-09
-3.819408781e-12
1.249750076e-09
-4.235073245e-12
1.281953764e-09
-4.672660322e-12
1.31071298e-09
-5.129708022e-12
1.336070396e-09
-5.602486502e-12
1.358047985e-09
-6.085850947e-12
1.376646532e-09
-6.572937948e-12
1.391843249e-09
-7.055601313e-12
1.403592168e-09
-7.523929674e-12
1.411821661e-09
-7.966971873e-12
1.41643582e-09
-8.372502965e-12
1.41731281e-09
-8.72787715e-12
1.414306514e-09
-9.02002011e-12
1.407247144e-09
-9.236392344e-12
1.395942674e-09
-9.365145786e-12
1.380181552e-09
-9.396041338e-12
1.359735009e-09
-9.320897669e-12
1.334360968e-09
-9.134040239e-12
1.303807032e-09
-8.832977235e-12
1.267814985e-09
-8.418620788e-12
1.226125695e-09
-7.895630857e-12
1.178482448e-09
-7.272632284e-12
1.124636323e-09
-6.562332473e-12
1.064350559e-09
-5.781358665e-12
9.974042581e-10
-4.950210285e-12
9.235964369e-10
-4.093022745e-12
8.427496254e-10
-3.237279026e-12
7.547125942e-10
-2.413463077e-12
6.593630611e-10
-1.654666092e-12
5.566092554e-10
-9.961765171e-13
4.463912555e-10
-4.750617737e-13
3.286810453e-10
-1.297899478e-13
2.034809187e-10
7.081662451e-11
-1.515794544e-14
5.803999704e-11
-5.950319369e-14
1.698203707e-10
-1.313850905e-13
2.753295246e-10
-2.292405177e-13
3.748045532e-10
-3.515736716e-13
4.684773322e-10
-4.969509987e-13
5.565737912e-10
-6.640406247e-13
6.3931363e-10
-8.516797077e-13
7.169094121e-10
-1.058833736e-12
7.89566085e-10
-1.284679007e-12
8.574802175e-10
-1.5287221e-12
9.208390646e-10
-1.790814698e-12
9.79819619e-10
-2.071171231e-12
1.034587538e-09
-2.370299556e-12
1.08529631e-09
-2.688908788e-12
1.132086228e-09
-3.027727091e-12
1.175083558e-09
-3.387379183e-12
1.214399825e-09
-3.767863926e-12
1.250130561e-09
-4.168610602e-12
1.28235451e-09
-4.588307608e-12
1.311132677e-09
-5.0242994e-12
1.336506387e-09
-5.472977114e-12
1.358496663e-09
-5.929190064e-12
1.377102745e-09
-6.386480506e-12
1.39230054e-09
-6.836990611e-12
1.404042678e-09
-7.271515131e-12
1.412256185e-09
-7.679781257e-12
1.416844086e-09
-8.050523885e-12
1.417683552e-09
-8.372119613e-12
1.414628109e-09
-8.632638101e-12
1.407507662e-09
-8.820722512e-12
1.396130759e-09
-8.925699217e-12
1.380286528e-09
-8.938485717e-12
1.359747795e-09
-8.851804861e-12
1.334274287e-09
-8.660807808e-12
1.303616035e-09
-8.363574453e-12
1.267517751e-09
-7.961245971e-12
1.225723367e-09
-7.458436303e-12
1.177979639e-09
-6.863374289e-12
1.124041261e-09
-6.188025246e-12
1.06367521e-09
-5.447936273e-12
9.966641692e-10
-4.662211367e-12
9.22810712e-10
-3.853309786e-12
8.419407238e-10
-3.046799272e-12
7.539060838e-10
-2.271057081e-12
6.58587319e-10
-1.556928144e-12
5.558951265e-10
-9.37368609e-13
4.457716961e-10
-4.470802688e-13
3.281907571e-10
-1.221801164e-13
2.031560187e-10
7.069444439e-11
-1.495758594e-14
5.805495463e-11
-5.872356286e-14
1.698641366e-10
-1.296927967e-13
2.754004939e-10
-2.263792929e-13
3.749012397e-10
-3.47300947e-13
4.685982539e-10
-4.911465692e-13
5.567176368e-10
-6.565739609e-13
6.394790574e-10
-8.424788247e-13
7.17095317e-10
-1.047828826e-12
7.89771435e-10
-1.271765132e-12
8.577041539e-10
-1.513675571e-12
9.210809751e-10
-1.773211969e-12
9.800791554e-10
-2.050340141e-12
1.034864666e-09
-2.345280656e-12
1.08559125e-09
-2.658410969e-12
1.132399358e-09
-2.990184618e-12
1.175415332e-09
-3.340792418e-12
1.214750432e-09
-3.709978455e-12
1.250499747e-09
-4.097022575e-12
1.282741554e-09
-4.500308903e-12
1.311535963e-09
-4.917165542e-12
1.336923244e-09
-5.344024711e-12
1.358923522e-09
-5.775799076e-12
1.37753452e-09
-6.206392161e-12
1.392731133e-09
-6.62820914e-12
1.404464495e-09
-7.032729871e-12
1.412660706e-09
-7.41024742e-12
1.417221603e-09
-7.750441472e-12
1.418023747e-09
-8.042511629e-12
1.41492018e-09
-8.27560328e-12
1.407740754e-09
-8.439370773e-12
1.396294526e-09
-8.524177857e-12
1.380371335e-09
-8.521919644e-12
1.359745537e-09
-8.42612267e-12
1.33417849e-09
-8.232619976e-12
1.303422532e-09
-7.939939399e-12
1.267225071e-09
-7.549415685e-12
1.225332843e-09
-7.065577541e-12
1.1774958e-09
-6.496295712e-12
1.123471979e-09
-5.852831762e-12
1.063031746e-09
-5.149769192e-12
9.959611066e-10
-4.404970328e-12
9.220659131e-10
-3.639412183e-12
8.411751657e-10
-2.876973767e-12
7.531436453e-10
-2.144177594e-12
6.578545228e-10
-1.46989201e-12
5.552208409e-10
-8.850202029e-13
4.451868242e-10
-4.221792092e-13
3.27727916e-10
-1.154094619e-13
2.028492489e-10
7.057903493e-11
-1.469857276e-14
5.80696532e-11
-5.771393923e-14
1.69907152e-10
-1.275075486e-13
2.754702875e-10
-2.226289756e-13
3.749963611e-10
-3.416710418e-13
4.68717296e-10
-4.833922522e-13
5.56859358e-10
-6.465489503e-13
6.396422141e-10
-8.300093943e-13
7.172787774e-10
-1.032800163e-12
7.899742258e-10
-1.254041735e-12
8.579253954e-10
-1.493045675e-12
9.21319979e-10
-1.749325578e-12
9.803354353e-10
-2.022648411e-12
1.035137989e-09
-2.312982431e-12
1.085881584e-09
-2.620456046e-12
1.132706831e-09
-2.945200663e-12
1.175740077e-09
-3.287043472e-12
1.215092275e-09
-3.645528657e-12
1.250858232e-09
-4.019781797e-12
1.283115808e-09
-4.407901562e-12
1.311924083e-09
-4.807278027e-12
1.337322621e-09
-5.214253148e-12
1.359330497e-09
-5.623928432e-12
1.377944195e-09
-6.0304505e-12
1.393137655e-09
-6.426596621e-12
1.404860641e-09
-6.804379613e-12
1.413038489e-09
-7.154673482e-12
1.417571897e-09
-7.467976887e-12
1.41833705e-09
-7.734227803e-12
1.415186431e-09
-7.943565524e-12
1.407950092e-09
-8.086464873e-12
1.396437426e-09
-8.154231047e-12
1.380439102e-09
-8.139582793e-12
1.359730889e-09
-8.036761453e-12
1.334075669e-09
-7.842176837e-12
1.303227948e-09
-7.554698929e-12
1.266937593e-09
-7.17581127e-12
1.224953955e-09
-6.709937887e-12
1.177029927e-09
-6.164619663e-12
1.122926661e-09
-5.550459337e-12
1.062417586e-09
-4.881175502e-12
9.952918229e-10
-4.173520231e-12
9.21358258e-10
-3.447152329e-12
8.404487979e-10
-2.724452857e-12
7.524209461e-10
-2.030301114e-12
6.571603713e-10
-1.391814654e-12
5.545823546e-10
-8.380769587e-13
4.446330868e-10
-3.998543506e-13
3.272896938e-10
-1.093400137e-13
2.025587348e-10
7.046969492e-11
-1.438601496e-14
5.808403922e-11
-5.649969388e-14
1.699492657e-10
-1.248638253e-13
2.755386516e-10
-2.180660104e-13
3.750895633e-10
-3.348145521e-13
4.688340445e-10
-4.738883279e-13
5.569984318e-10
-6.341773981e-13
6.398025032e-10
-8.145617504e-13
7.174591618e-10
-1.014088233e-12
7.901737522e-10
-1.231905342e-12
8.581432125e-10
-1.467279179e-12
9.215553529e-10
-1.719623733e-12
9.805877798e-10
-1.988548112e-12
1.035406913e-09
-2.273836943e-12
1.086166873e-09
-2.575379216e-12
1.133008374e-09
-2.892950016e-12
1.176057647e-09
-3.226177704e-12
1.215425503e-09
-3.574435073e-12
1.25120649e-09
-3.936539181e-12
1.283477912e-09
-4.310510509e-12
1.312298055e-09
-4.69375222e-12
1.337705862e-09
-5.082493262e-12
1.359719238e-09
-5.472103009e-12
1.378333805e-09
-5.856852254e-12
1.393522404e-09
-6.22994475e-12
1.405233733e-09
-6.583823186e-12
1.413392367e-09
-6.909955962e-12
1.41789803e-09
-7.199511125e-12
1.418626605e-09
-7.443169553e-12
1.415430089e-09
-7.631903427e-12
1.408138826e-09
-7.756922711e-12
1.396562445e-09
-7.810379478e-12
1.380492558e-09
-7.785655516e-12
1.359706165e-09
-7.677624455e-12
1.333967638e-09
-7.48320991e-12
1.303033533e-09
-7.201517125e-12
1.2666559e-09
-6.834153034e-12
1.224586591e-09
-6.385424635e-12
1.176581199e-09
-5.862541885e-12
1.122403778e-09
-5.275523396e-12
1.061830568e-09
-4.637298013e-12
9.946535976e-10
-3.963619807e-12
9.206845799e-10
-3.272966936e-12
8.397581452e-10
-2.586382334e-12
7.517343616e-10
-1.92727918e-12
6.565012682e-10
-1.321213005e-12
5.539762886e-10
-7.956423141e-13
4.441075162e-10
-3.796777836e-13
3.268737295e-10
-1.038552195e-13
2.022829124e-10
7.036583971e-11
-1.402815609e-14
5.809806737e-11
-5.510287171e-14
1.699903404e-10
-1.217942336e-13
2.75605343e-10
-2.127649421e-13
3.75180534e-10
-3.268299955e-13
4.689481096e-10
-4.627912438e-13
5.571343931e-10
-6.196406543e-13
6.399593526e-10
-7.96362481e-13
7.176358836e-10
-9.919981563e-13
7.903693879e-10
-1.205711557e-12
8.583569259e-10
-1.436768713e-12
9.2178641e-10
-1.684520984e-12
9.808355321e-10
-1.948479652e-12
1.035670872e-09
-2.228253317e-12
1.086446647e-09
-2.523466318e-12
1.133303587e-09
-2.833683013e-12
1.176367864e-09
-3.15832775e-12
1.215750148e-09
-3.496631636e-12
1.251544793e-09
-3.847107257e-12
1.283828387e-09
-4.207753914e-12
1.312658701e-09
-4.575908892e-12
1.338074017e-09
-4.947814355e-12
1.360091144e-09
-5.319051821e-12
1.378705042e-09
-5.683998923e-12
1.393887351e-09
-6.036313967e-12
1.405586048e-09
-6.36874626e-12
1.4137248e-09
-6.67338837e-12
1.418202672e-09
-6.941950385e-12
1.418895167e-09
-7.165814248e-12
1.415653953e-09
-7.336653141e-12
1.408309665e-09
-7.446384525e-12
1.396672177e-09
-7.487899018e-12
1.380534073e-09
-7.455113015e-12
1.359673379e-09
-7.343462506e-12
1.333855988e-09
-7.15029519e-12
1.302840366e-09
-6.874917097e-12
1.266380522e-09
-6.519016407e-12
1.224230691e-09
-6.086775548e-12
1.176148958e-09
-5.5850778e-12
1.12190208e-09
-5.023413225e-12
1.061268903e-09
-4.413987722e-12
9.940441723e-10
-3.771652631e-12
9.200422451e-10
-3.113821823e-12
8.391003147e-10
-2.460334543e-12
7.510808746e-10
-1.833286213e-12
6.558742202e-10
-1.256827987e-12
5.533998307e-10
-7.569555277e-13
4.436076442e-10
-3.612858596e-13
3.264780604e-10
-9.885554733e-14
2.020204825e-10
7.026698417e-11
-1.362663162e-14
5.811169401e-11
-5.352808674e-14
1.700302418e-10
-1.183341485e-13
2.75670149e-10
-2.067953105e-13
3.752689952e-10
-3.177935004e-13
4.690591077e-10
-4.50228273e-13
5.572668278e-10
-6.031407597e-13
6.401122651e-10
-7.756193945e-13
7.178083623e-10
-9.667714896e-13
7.9056054e-10
-1.175774592e-12
8.58565929e-10
-1.401887349e-12
9.220125228e-10
-1.644439543e-12
9.810780843e-10
-1.90284841e-12
1.035929281e-09
-2.17656017e-12
1.086720359e-09
-2.465020911e-12
1.133592047e-09
-2.767631616e-12
1.176670475e-09
-3.083681498e-12
1.216066198e-09
-3.412115646e-12
1.251873228e-09
-3.751335175e-12
1.284167607e-09
-4.099323371e-12
1.313006689e-09
-4.453259675e-12
1.338427954e-09
-4.809500306e-12
1.360447384e-09
-5.16374602e-12
1.379059288e-09
-5.510582145e-12
1.394234187e-09
-5.844028462e-12
1.405919495e-09
-6.157139331e-12
1.414037911e-09
-6.442596857e-12
1.41848813e-09
-6.692547396e-12
1.419145118e-09
-6.899059271e-12
1.415860465e-09
-7.0543809e-12
1.408464986e-09
-7.151082317e-12
1.396768878e-09
-7.182678262e-12
1.380565669e-09
-7.143587843e-12
1.359634289e-09
-7.029716631e-12
1.333742116e-09
-6.838745929e-12
1.302649396e-09
-6.570174003e-12
1.26611195e-09
-6.225724288e-12
1.223886241e-09
-5.809476054e-12
1.17573271e-09
-5.327961309e-12
1.121420566e-09
-4.790190579e-12
1.060731133e-09
-4.207706287e-12
9.934616882e-10
-3.594538487e-12
9.194290775e-10
-2.967135646e-12
8.38472912e-10
-2.34424646e-12
7.504579856e-10
-1.746772654e-12
6.552767467e-10
-1.197592309e-12
5.528506506e-10
-7.21372977e-13
4.431314252e-10
-3.443724163e-13
3.261010603e-10
-9.425805851e-14
2.017703684e-10
7.017272612e-11
-1.318152692e-14
5.812487553e-11
-5.178660556e-14
1.700688469e-10
-1.145128321e-13
2.757328752e-10
-2.002106141e-13
3.75354693e-10
-3.077997334e-13
4.691666969e-10
-4.363265346e-13
5.573953546e-10
-5.848476876e-13
6.402607862e-10
-7.525624797e-13
7.179760771e-10
-9.386561177e-13
7.907466337e-10
-1.142361844e-12
8.587696348e-10
-1.362929121e-12
9.222330901e-10
-1.599673938e-12
9.813148291e-10
-1.851926859e-12
1.036181534e-09
-2.119035163e-12
1.086987467e-09
-2.400324111e-12
1.133873336e-09
-2.695049447e-12
1.1769652e-09
-3.002366322e-12
1.216373514e-09
-3.320958389e-12
1.25219182e-09
-3.649172793e-12