/*--------------------------------*- C++ -*----------------------------------*\
  =========                 |
  \\      /  F ield         | OpenFOAM: The Open Source CFD Toolbox
   \\    /   O peration     | Website:  https://openfoam.org
    \\  /    A nd           | Version:  7
     \\/     M anipulation  |
\*---------------------------------------------------------------------------*/
FoamFile
{
    version     2.0;
    format      ascii;
    class       volScalarField;
    location    "0.0003";
    object      rho;
}
// * * * * * * * * * * * * * * * * * * * * * * * * * * * * * * * * * * * * * //

dimensions      [1 -3 0 0 0 0 0];

internalField   nonuniform List<scalar> 
1167
(
936.6790255
936.6055196
936.4479347
936.2150394
935.9119651
935.5431085
935.1126951
934.6245832
934.0826367
933.4906106
932.8520492
932.1703978
931.4490066
930.6911454
929.8998388
929.0781644
928.2290692
927.3555925
926.4602688
925.5459133
924.6152638
923.6707949
922.7152489
921.7510692
920.7809858
919.8073515
918.8328654
917.8599696
916.8911543
915.9288254
914.9753055
914.0328255
913.1033878
912.1890006
936.5585472
936.4850303
936.3274249
936.094507
935.7915492
935.4226925
934.9924387
934.5045107
933.9627833
933.3709797
932.7327253
932.0514772
931.3305476
930.5731624
929.7824045
928.9613549
928.1130862
927.2404047
926.3459914
925.4328034
924.5033721
923.5604286
922.6065466
921.644401
920.6765491
919.7055963
918.7340436
917.7645346
916.7993739
915.841124
914.891908
913.9540722
913.0294107
912.1200228
911.2273205
910.352778
909.4975657
908.6625753
907.8486301
907.0561637
906.2854368
905.5365843
904.8096494
904.1043875
903.4204855
902.7575147
902.1149858
901.4923339
900.8889597
900.3042028
936.4380954
936.3645689
936.2069462
935.9741153
935.6711749
935.3024489
934.8722347
934.3844985
933.8429991
933.2514788
932.6135596
931.9326971
931.2122176
930.4553367
929.665166
928.8448353
927.9974083
927.1256005
926.2322656
925.320286
924.3922048
923.4509345
922.498878
921.5389346
920.5734863
919.6053831
918.6369239
917.6709364
916.7095717
915.7554464
914.8106163
913.8773864
912.9574852
912.0530138
911.1652335
910.2956733
909.4453374
908.6151392
907.8059022
907.0179509
906.2515782
905.5069278
904.7840173
904.0826054
903.4024003
902.7429827
902.1038784
901.4845311
900.8843533
900.3026908
936.3176749
936.2441406
936.0865041
935.8537926
935.5508482
935.182271
934.7520947
934.2645548
933.7232932
933.1320672
932.4944964
931.814036
931.0940293
930.3376827
929.5481388
928.7286502
927.8820504
927.0111948
926.1190719
925.2083695
924.2818569
923.342302
922.3922808
921.4346331
920.4718121
919.5066266
918.5414818
917.579032
916.6215988
915.6715988
914.7312098
913.8025385
912.8874124
911.9877304
911.1047791
910.2400885
909.3945055
908.569008
907.764303
906.9807364
906.2185922
905.4780355
904.759027
904.0613617
903.3847574
902.7288032
902.0930391
901.476916
900.8798575
900.3012152
936.1972903
936.1237499
935.9662171
935.7335168
935.4305746
935.0621532
934.6321506
934.1446882
933.6036746
933.0127551
932.3755468
931.6955069
930.9759969
930.2202158
929.4314494
928.6127423
927.7670324
926.8972568
926.0063831
925.0970631
924.1722508
923.234523
922.286712
921.331458
920.3714234
919.4092454
918.4475202
917.4886943
916.5352531
915.5894126
914.6534688
913.7293336
912.8189328
911.9239693
911.0458069
910.1858267
909.3448839
908.5239698
907.7236768
906.9443798
906.1863544
905.4497876
904.7345853
904.0405778
903.367492
902.7149245
902.0824283
901.4694609
900.8754562
900.2997705
936.0769462
936.0034743
935.8459954
935.6132935
935.3104764
934.9421013
934.5122815
934.0249858
933.4841528
932.8935528
932.2567232
931.5771237
930.8581358
930.1030399
929.3150165
928.4971311
927.6523748
926.7838134
925.8942141
924.9864082
924.0633728
923.1275899
922.1821101
921.2293702
920.2722341
919.3131658
918.3549451
917.3998097
916.4504026
915.5087405
914.5772339
913.657604
912.7518739
911.8615571
910.9880999
910.1327266
909.2963199
908.4798821
907.6838957
906.9087666
906.1547636
905.4220962
904.7106169
904.0201903
903.3505518
902.7013049
902.0720144
901.4621437
900.8711361
900.2983525
935.9567709
935.8833054
935.725825
935.4931276
935.1904636
934.8221215
934.3924947
933.9054238
933.3648259
932.7744907
932.1380394
931.4589316
930.7405575
929.9861208
929.1988477
928.3818365
927.5381536
926.6708224
925.7825826
924.8764605
923.9552255
923.0215704
922.0784508
921.1283796
920.1741939
919.2183739
918.2636718
917.3123375
916.3669316
915.4295058
914.5023674
913.5872164
912.6860891
911.8003475
910.9315112
910.0806536
909.2486876
908.4366288
907.6448548
906.8738033
906.1237549
905.39489
904.6870606
904.0001478
903.3338946
902.6879106
902.0617718
901.4549464
900.8668866
900.2969576
935.8366531
935.7631878
935.6057105
935.3730684
935.0705201
934.702279
934.2727974
933.7859641
933.2456586
932.6556728
932.0196303
931.3410122
930.6232033
929.8694408
929.0829623
928.2668782
927.4243875
926.5583019
925.6715027
924.7671519
923.8478113
922.9164119
921.9757139
921.0284489
920.0772553
919.1247921
918.1736238
917.2261511
916.2847379
915.3515693
914.4287502
913.5180903
912.621454
911.7402178
910.8759224
910.0294955
909.2019147
908.3941148
907.6064681
906.8394132
906.0932572
905.3681108
904.6638669
903.9804087
903.3174863
902.6747145
902.0516796
901.4478545
900.8626994
900.2955832
935.7165888
935.643126
935.4856567
935.2531689
934.950651
934.582594
934.1531966
933.6666147
933.1266177
932.5369985
931.9013857
931.223282
930.5060686
929.753018
928.9673793
928.1523687
927.3110387
926.4462687
925.5610915
924.6584903
923.7411308
922.8120735
921.8738827
920.9295038
919.9813739
919.0323244
918.0847324
917.1411453
916.2037317
915.2748079
914.3562796
913.4500657
912.557863
911.6811052
910.8212343
909.979159
909.1558972
908.3522613
907.5686651
906.8055341
906.063202
905.3417118
904.6409959
903.9609395
903.3012993
902.6616946
902.0417214
901.4408563
900.8585674
900.2942269
935.5965821
935.5231243
935.3657208
935.1333405
934.8308615
934.4629995
934.0337691
933.5473836
933.007712
932.4184788
931.7833182
931.1057559
930.3891704
929.6368712
928.852156
928.0382591
927.1981247
926.3347383
925.451267
924.5504832
923.6352802
922.7085501
921.7729866
920.8315136
919.8865287
918.9409191
917.9969443
917.057249
916.1238343
915.1991369
914.2848672
913.3830526
912.4952266
911.6228978
910.7673638
909.9295663
909.1105484
908.3110035
907.5313879
906.7721149
906.0335451
905.3156546
904.6184151
903.9417132
903.2853114
902.6488333
902.0318838
901.4339426
900.8544851
900.2928869
935.4766375
935.4031972
935.2459382
935.0135875
934.7112056
934.3435014
933.9145074
933.4282974
932.8889506
932.3001243
931.6654405
930.9884487
930.2725257
929.5210357
928.7373536
927.9245401
927.0856622
926.2238063
925.3420299
924.443137
923.5301697
922.6058353
921.6730192
920.7344504
919.7927296
918.8505293
917.9102678
916.9743993
916.045042
915.1244829
914.2144479
913.3169739
912.4334686
911.5655055
910.7142414
909.8806528
909.0658092
908.2702885
907.4945895
906.7391326
906.0042497
905.289908
904.5960981
903.9227077
903.2695048
902.6361164
902.0221559
901.4271058
900.8504482
900.2915618
935.3568227
935.2834659
935.1262284
934.8939146
934.5917224
934.2241056
933.7953625
933.3094568
932.7703661
932.1819457
931.5477651
930.8713745
930.1561815
929.4056144
928.6229074
927.8112295
926.9736668
926.1134339
925.2333902
924.3364968
923.4257928
922.5039187
921.5739066
920.6382916
919.6998747
918.7611132
917.8245801
916.8925403
915.9672392
915.0507818
914.1450013
913.251764
912.3725248
911.5088665
910.6618089
909.8323862
909.0216309
908.2300724
907.4582313
906.7065488
905.9752868
905.264447
904.5740238
903.9039055
903.2538651
902.6235326
902.0125292
901.4203398
900.8464531
900.2902505
935.2371518
935.1638065
935.0065956
934.7743264
934.4723342
934.104818
933.6763416
933.1907589
932.6520507
932.0640318
931.430366
930.7546278
930.0402106
929.2905186
928.5088345
927.6983455
926.8622406
926.0036023
925.1253554
924.2305906
923.3221455
922.4028411
921.4756345
920.5430164
919.6079346
918.6726336
917.7398375
916.8116231
915.8903615
914.9779784
914.0764141
913.1873675
912.3123728
911.4529276
910.6100172
909.7847246
908.9779728
908.1903189
907.4222811
906.6743214
905.946633
905.2392518
904.5521754
903.8852927
903.2383809
902.6110728
902.0029968
901.4136399
900.842497
900.2889519
935.1175544
935.044223
934.8870439
934.6549383
934.3530464
933.9857647
933.5574514
933.0722111
932.533907
931.9463601
931.3132585
930.6381742
929.9245367
929.1757633
928.3951499
927.5859116
926.7513328
925.8943224
925.0179332
924.1253547
923.2192249
922.3025886
921.3781912
920.4487004
919.5168813
918.5851095
917.6559998
916.7316141
915.8143621
914.9060245
914.0086376
913.1237364
912.2529564
911.397645
910.5588252
909.7376054
908.9348012
908.1509983
907.3867128
906.6424282
905.9182694
905.2143064
904.5305396
903.8668582
903.2230433
902.5987299
901.9935534
901.4070024
900.8385776
900.2876654
934.9980341
934.9247192
934.7675777
934.5356647
934.2338642
933.8668364
933.4387058
932.9538207
932.4159438
931.8288955
931.196388
930.5219918
929.8091733
929.0613623
928.2818676
927.4740335
926.6409324
925.7856066
924.9112341
924.0207889
923.117028
922.2031076
921.2815604
920.3552268
919.4266914
918.4984904
917.5730339
916.6525285
915.7391992
914.8348949
913.9416285
913.0608283
912.1942126
911.3429821
910.508199
909.6909977
908.8920884
908.1120861
907.3515284
906.610851
905.8901807
905.1895979
904.5091058
903.8485933
903.2078453
902.5864985
901.9841948
901.4004243
900.8346934
900.2863904
934.8785948
934.8052992
934.6483192
934.41649
934.1147928
933.7480338
933.3202266
932.8355951
932.2981695
931.7116473
931.0797653
930.4060927
929.6941331
928.9473285
928.1690757
927.3626205
926.5310498
925.6774623
924.8051582
923.9168977
923.0156346
922.1043875
921.1857267
920.2625763
919.3373413
918.4127164
917.4909092
916.5742691
915.6648396
914.7645836
913.8753495
912.9986071
912.1361075
911.2889077
910.4581277
909.6448757
908.8498118
908.0735626
907.3166984
906.5795753
905.8623547
905.1651161
904.4878654
903.8304911
903.1927814
902.5743742
901.9749179
901.3939035
900.8308429
900.2851265
934.7592404
934.6860434
934.5291678
934.2974187
933.9959471
933.629363
933.2018983
932.7176232
932.1805918
931.5946249
930.963401
930.2904887
929.5794291
928.8337317
928.0567508
927.2516828
926.4216938
925.569991
924.6997097
923.8136812
922.9149787
922.0064178
921.090757
920.1707333
919.2488343
918.3277631
917.409598
916.4968063
915.5912518
914.6950108
913.8097702
912.937079
912.0786125
911.2353953
910.4086
909.5992182
908.8079526
908.0354115
907.2821979
906.5485896
905.8347816
905.1408531
904.4668121
903.8125463
903.1778472
902.5623537
901.96572
901.3874381
900.8270251
900.2838734
934.6401019
934.5669341
934.410115
934.1784558
933.8772382
933.5108302
933.0837277
932.5998786
932.0632984
931.4778478
930.8473052
930.1752026
929.4651481
928.7205857
927.9448611
927.1412295
926.3128719
925.4631188
924.594891
923.7111613
922.8150341
921.9091921
920.9965627
920.0796805
919.1611886
918.2436078
917.3291196
916.4201136
915.5184084
914.6261492
913.7448643
912.8762081
912.0217038
911.182423
910.3595652
909.5540075
908.7664955
907.9976197
907.248016
906.5178845
905.8074539
905.1168025
904.4459406
903.7947549
903.1630395
902.5504344
901.9565993
901.3810269
900.8232393
900.2826308
934.5210605
934.4479211
934.2911652
934.0596488
933.7586562
933.3924993
932.9657211
932.4823213
931.9462631
931.3614318
930.7315912
930.0603408
929.351268
928.6078397
927.8334167
927.031269
926.2046905
925.3568336
924.4907036
923.6093865
922.7157968
921.8127089
920.9031275
919.9894019
919.074323
918.1602302
917.2494419
916.3441677
915.446321
914.5579753
913.680609
912.8159463
911.965361
911.1299721
910.3110068
909.5092292
908.7254279
907.9602107
907.2141438
906.4874527
905.7803656
905.0929596
904.4252471
903.7771138
903.148356
902.5386146
901.9475544
901.3746689
900.8194849
900.2813984
934.4021165
934.3290087
934.1723232
933.9410423
933.6402064
933.2743895
932.847885
932.3649584
931.8294499
931.2452682
930.6161746
929.9458037
929.237754
928.4955032
927.7224271
926.9218367
926.0970622
925.2511389
924.3871492
923.5082832
922.6172666
921.7170484
920.8104363
919.8998896
918.98822
918.0776111
917.1705097
916.2689476
915.3749674
914.4904685
913.6169844
912.7562752
911.9095674
911.0780477
910.2629102
909.4648708
908.6847395
907.9231451
907.1805742
906.4572886
905.753512
905.0693207
904.4047288
903.7596206
903.1337949
902.5268928
901.9385844
901.3683634
900.8157615
900.2801763
934.2832742
934.2102014
934.0536424
933.8225591
933.5218944
933.1564358
932.7302933
932.2477965
931.712866
931.1293653
930.5010536
929.8316005
929.124615
928.3835851
927.6119013
926.812992
925.989983
925.1460371
924.2843199
923.4078491
922.519436
921.6221088
920.718481
919.8111983
918.9028641
917.9957432
917.0923049
916.1944347
915.3042941
914.4236105
913.554015
912.6971789
911.8543087
911.0266453
910.2152636
909.4209223
908.6444217
907.8864122
907.1473014
906.4273875
905.7268896
905.0458831
904.3843834
903.7422739
903.119355
902.5152682
901.9296885
901.3621101
900.8120689
900.2789642
934.1645381
934.0915128
933.9351546
933.7042043
933.4037718
933.0386442
932.6129461
932.1308508
931.5965187
931.013731
930.3862365
929.7177397
929.0118592
928.2720931
927.5019383
926.7046593
925.8834578
925.0415302
924.1821328
923.3080799
922.4223305
921.527883
920.6272528
919.7232403
918.8182414
917.9146674
917.0148113
916.1206124
915.2342845
914.3573854
913.4916605
912.6386433
911.7995718
910.9757241
910.1680582
909.3773758
908.604476
907.8500062
907.1143211
906.3977459
905.7004957
905.0226446
904.3642097
903.7250724
903.1050354
902.5037401
901.9208664
901.3559085
900.8084068
900.2777622
934.0459696
933.9730542
933.8167889
933.5859831
933.2858816
932.9210204
932.4957882
932.0142335
931.4804227
930.8983729
930.2717312
929.604229
928.8994942
928.1611178
927.392467
926.5968442
925.7774919
924.9376997
924.0805745
923.2089703
922.3259709
921.4343646
920.5367506
919.6360048
918.7343393
917.834303
916.9380142
916.047529
915.164924
914.2917792
913.4298906
912.5806563
911.7453457
910.9252749
910.1212866
909.3342256
908.5649172
907.8139221
907.0816293
906.3683611
905.6743284
904.9996039
904.3442063
903.7080155
903.0908357
902.4923083
901.9121179
901.3497586
900.8047753
900.2765703
924.8344881
923.9796443
923.1105181
922.2302927
921.3415469
920.4470428
919.5494795
918.6511454
917.7546372
916.8619003
915.9751157
915.0961995
914.2267796
913.3686938
912.5232071
911.6916515
910.8752896
910.0749418
909.2914657
908.5257124
907.7781574
907.0492238
906.3392312
905.6483861
904.9767601
904.3243729
903.6911028
903.0767556
902.4809725
901.9034427
901.3436602
900.8011742
900.2753883
)
;

boundaryField
{
    front_top
    {
        type            wedge;
    }
    front_middle
    {
        type            wedge;
    }
    front_bottom
    {
        type            wedge;
    }
    back_top
    {
        type            wedge;
    }
    back_middle
    {
        type            wedge;
    }
    back_bottom
    {
        type            wedge;
    }
    axis_top
    {
        type            symmetryPlane;
    }
    axis_middle
    {
        type            symmetryPlane;
    }
    axis_bottom
    {
        type            symmetryPlane;
    }
    wall_top
    {
        type            calculated;
        value           nonuniform 0();
    }
    wall_middle
    {
        type            calculated;
        value           nonuniform 0();
    }
    wall_bottom
    {
        type            calculated;
        value           uniform 900.0184441;
    }
    inlet
    {
        type            calculated;
        value           nonuniform 0();
    }
    outlet
    {
        type            calculated;
        value           nonuniform 0();
    }
    procBoundary1to0
    {
        type            processor;
        value           nonuniform List<scalar> 
51
(
933.9275843
933.8547146
933.6985502
933.4679009
933.1681458
932.8035701
932.3788265
931.897839
931.364697
930.7833505
930.1575755
929.4911254
928.7876327
928.0506113
927.2834754
926.4895505
925.6720873
925.6720873
924.7318735
923.8793432
923.0128061
922.1352889
921.2494207
920.358035
919.4636569
918.5687181
917.6756564
916.7864567
915.9033515
915.0280992
914.1624367
913.3080598
912.4662868
911.638472
910.8257614
910.0290182
909.2490912
908.4868579
907.7427095
907.017103
906.3103551
905.6226683
904.9541126
904.3047092
903.6743423
903.0628013
902.4697327
901.8948409
901.3376135
900.7976036
900.2742163
)
;
    }
    procBoundary1to2
    {
        type            processor;
        value           nonuniform List<scalar> 
51
(
936.7996047
936.726032
936.5684704
936.3356016
936.0324154
935.6635644
935.232997
934.7447078
934.2026584
933.6103944
932.9715213
932.2895098
931.5676729
930.809274
930.0174561
929.1952054
928.3454533
927.4711515
926.5750143
925.6596082
924.7278794
923.7820874
922.8250114
921.8590248
920.8868614
919.9107447
918.9335116
917.9573972
916.9850705
916.0187691
915.0610141
914.1139136
913.1796825
912.2602352
911.2912812
911.2912812
910.4116363
909.5514125
908.7114839
907.8926789
907.0955479
906.3203215
905.5671459
904.8360385
904.1268052
903.4390931
902.7724633
902.1264099
901.5003586
900.8936969
900.3057576
)
;
    }
}


// ************************************************************************* //
