/*--------------------------------*- C++ -*----------------------------------*\
  =========                 |
  \\      /  F ield         | OpenFOAM: The Open Source CFD Toolbox
   \\    /   O peration     | Website:  https://openfoam.org
    \\  /    A nd           | Version:  7
     \\/     M anipulation  |
\*---------------------------------------------------------------------------*/
FoamFile
{
    version     2.0;
    format      ascii;
    class       volScalarField;
    location    "0.0003";
    object      T;
}
// * * * * * * * * * * * * * * * * * * * * * * * * * * * * * * * * * * * * * //

dimensions      [0 0 0 1 0 0 0];

internalField   nonuniform List<scalar> 
1167
(
455.2237504
455.3353474
455.574653
455.9284712
456.3891706
456.9502675
457.6055639
458.3494362
459.176263
460.0805924
461.0572937
462.1013811
463.2080055
464.372425
465.5902604
466.8570313
468.1684382
469.5200112
470.9080395
472.3283517
473.776864
475.2498787
476.7432448
478.2532526
479.7757053
481.3069718
482.8428364
484.3794607
485.9128905
487.4392786
488.9548717
490.456038
491.9394758
493.4018551
455.4066883
455.5183308
455.7577289
456.1116721
456.5723124
457.1335535
457.7887747
458.5325572
459.3592613
460.2634822
461.2399632
462.2836986
463.389895
464.5538776
465.7711754
467.0373012
468.3477589
469.6984368
471.0853959
472.5042419
473.9512092
475.4221978
476.9133166
478.4204902
479.9397887
481.46718
482.9987558
484.530355
486.0583128
487.5785295
489.0875645
490.5815995
492.0576621
493.5122749
494.9430315
496.3474153
497.7233775
499.0693121
500.3837151
501.6657047
502.9146823
504.130253
505.3121754
506.4606786
507.5761126
508.659023
509.7100634
510.7300193
511.7197425
512.6801934
455.5896332
455.7013188
455.9408044
456.2947063
456.755438
457.3166241
457.9719527
458.7156333
459.5422006
460.4462196
461.4224364
462.4658465
463.5716325
464.7351342
465.9518345
467.2171698
468.5266526
469.8763124
471.2619411
472.6792539
474.124468
475.5931964
477.0818112
478.5858824
480.1017507
481.624996
483.1520248
484.6783767
486.2006316
487.7145938
489.2169327
490.7038865
492.1725916
493.6195599
495.0426304
496.4391972
497.8074794
499.1458372
500.4527679
501.7275683
502.9695896
504.178426
505.3538773
506.4961719
507.6056263
508.6827729
509.7282421
510.7428073
511.727302
512.6826779
455.7725776
455.8843037
456.1238716
456.4776825
456.9385384
457.4996416
458.1550805
458.8986517
459.7250673
460.628867
461.6047993
462.647858
463.7531985
464.9161725
466.1322134
467.3965659
468.7050959
470.0536148
471.4377024
472.8533737
474.2964927
475.76289
477.24867
478.7494858
480.2615688
481.7805527
483.3026772
484.82375
486.3400775
487.8477774
489.3433222
490.8232631
492.2845772
493.724098
495.1396242
496.5285482
497.8893426
499.2202664
500.5200035
501.7878212
503.0230863
504.2253605
505.3945377
506.5307898
507.6344197
508.7059477
509.7459829
510.755288
511.73468
512.6851027
455.9555145
456.0672784
456.3067502
456.6606346
457.121605
457.6826147
458.3379564
459.0815994
459.9078473
460.8114089
461.7870345
462.8297133
463.9345708
465.0969684
466.3121178
467.5755789
468.8830577
470.230237
471.6127228
473.0265865
474.4674007
475.9312905
477.4139562
478.9113596
480.4194
481.9339762
483.451024
484.9666743
486.4769712
487.9783465
489.4670829
490.940039
492.3940341
493.8262136
495.2342543
496.6157834
497.969266
499.2929389
500.5856729
501.8466902
503.0753737
504.2712512
505.434308
506.5646603
507.6625983
508.7286317
509.76335
510.7675067
511.7419033
512.6874767
456.1384371
456.2501255
456.4895764
456.8435538
457.3044519
457.8655344
458.5207648
459.2643436
460.0905263
460.9938293
461.9691231
463.011391
464.1157259
465.2773627
466.4916708
467.7541782
469.0605059
470.4061347
471.7869783
473.1988285
474.6372139
476.0984084
477.5777665
479.0715637
480.5753798
482.0853819
483.5972122
485.1073278
486.6115199
488.1065337
489.588467
491.0544805
492.5012367
493.9261835
495.3268653
496.7011617
498.0474948
499.3640854
500.6499823
501.9043606
503.1266156
504.316241
505.4733106
506.5978866
507.6902474
508.7508932
509.7803955
510.7794998
511.7489934
512.6898069
456.32115
456.4328572
456.6723717
457.0264327
457.4872155
458.048391
458.7034946
459.44692
460.2729544
461.1760822
462.1510444
463.192822
464.2964925
465.4574062
466.6708613
467.9323328
469.2373235
470.5813738
471.960441
473.3700093
474.8059275
476.2641388
477.7401376
479.2300829
480.7295864
482.2347916
483.7413744
485.2457754
486.7439064
488.2324612
489.7076927
491.1668004
492.6064184
494.0242408
495.4176934
496.7848988
498.1242315
499.4338922
500.7131011
501.9609834
503.1769183
504.3604457
505.5116449
506.6305525
507.7174359
508.7727873
509.7971612
510.7912967
511.7559676
512.692099
456.5038224
456.6155579
456.8551289
457.2091962
457.6699205
458.2310856
458.8861348
459.629387
460.4551845
461.3580074
462.33259
463.3738796
464.4769596
465.6371267
466.8496595
468.1100119
469.4134789
470.755926
472.1330884
473.5402359
474.9735369
476.4285599
477.9011004
479.3869718
480.8820929
482.3823231
483.8836297
485.3822125
486.8742912
488.3563458
489.8249485
491.2771232
492.7097771
494.1205814
495.5069283
496.8671744
498.1995934
499.5025131
500.7751679
502.0166824
503.2263948
504.4039592
505.5493912
506.6627254
507.7442194
508.7943582
509.8136811
510.802921
511.7628399
512.6943576
456.6864604
456.7982207
457.0378407
457.3917635
457.8525591
458.4135867
459.0686743
459.811732
460.637268
461.5397588
462.5139297
463.5546925
464.6571346
465.816496
467.0280356
468.2870422
469.5890314
470.9297646
472.304739
473.7094949
475.1400402
476.5917359
478.0606802
479.5423473
481.0329684
482.5281282
484.0240859
485.5168063
487.0028156
488.4783836
489.9403969
491.3857048
492.811481
494.2153069
495.5947284
496.9481382
498.2737448
499.5700744
500.8362964
502.0715584
503.2751569
504.446858
505.5866146
506.69446
507.7706427
508.8156418
509.8299821
510.814392
511.7696216
512.6965865
456.8690576
456.9808388
457.2204199
457.5742694
458.0351232
458.5959965
459.2509965
459.9939429
460.8191911
461.7213198
462.6950438
463.7352377
464.836991
465.9954851
467.2059018
468.4634969
469.7639532
471.1028649
472.4755171
473.8777744
475.3052882
476.7536744
478.2188313
479.6962565
481.1822464
482.6722875
484.1628276
485.6496684
487.1296037
488.5987082
490.054178
491.4926882
492.9116726
494.3085927
495.6812265
497.0279148
498.3468264
499.6366805
500.8965801
502.1256938
503.3232764
504.4892041
505.6233678
506.7258003
507.7967421
508.8366668
509.8460864
510.8257248
511.7763217
512.6987885
457.0516073
457.1633904
457.4028125
457.7567072
458.2175306
458.778306
459.4331118
460.1759792
461.0009399
461.9026737
462.8759125
463.9154922
465.0165026
466.1740398
467.3831614
468.6393908
469.9382183
471.2750794
472.6454223
474.0450632
475.4694171
476.9143843
478.3755596
479.8487425
481.3299073
482.8148739
484.2998374
485.7808976
487.2546619
488.7174359
490.1663965
491.5981957
493.0104729
494.4005844
495.7665339
497.1066077
498.418933
499.7024167
500.9560945
502.1791267
503.3708124
504.5310478
505.6596936
506.7567822
507.8225466
508.8574565
509.8620114
510.8369318
511.7829476
512.7009661
457.2340064
457.3456908
457.5851411
457.9390698
458.3997214
458.9605062
459.6150952
460.3576863
461.1824644
462.0838043
463.0565166
464.095434
465.1955976
466.3519998
467.5599147
468.8146961
470.1118017
471.4464649
472.8144383
474.211292
475.632438
477.0738812
478.5309819
479.99984
481.4761116
482.9559524
484.4353101
485.9105811
487.3781695
488.8346675
490.2770805
491.7023314
493.1079843
494.4913805
495.8507434
497.1842699
498.490143
499.7673535
501.0149022
502.2319171
503.4178125
504.5724301
505.6956264
506.787434
507.8480798
508.8780295
509.8777712
510.848023
511.7895049
512.7031212
457.4162329
457.5279283
457.7673992
458.1213499
458.5818138
459.1425878
459.7969359
460.5392214
461.363623
462.2645754
463.2367429
464.2749183
465.3741619
466.5295019
467.7361353
468.9893844
470.284546
471.6170517
472.9825529
474.3764138
475.794356
477.2321016
478.6851196
480.149582
481.6209052
483.0955808
484.569314
486.0387959
487.5002297
488.9504902
490.3864119
491.8051833
493.2042435
494.5810655
495.9339338
497.2609656
498.5605217
499.8315492
501.0730549
502.284134
503.4643141
504.6133829
505.7311932
506.8177786
507.87336
508.8984003
509.893377
510.859006
511.7959984
512.7052552
457.5983943
457.7100969
457.9495803
458.3033718
458.7637996
459.3243582
459.9786233
460.7205732
461.5445645
462.4450206
463.4165662
464.4539963
465.5523134
466.7065231
467.9117992
469.1634196
470.456527
471.786822
473.1497548
474.5405283
475.9551752
477.3890637
478.8379903
480.2978465
481.7643313
483.23373
484.7019119
486.165596
487.6209159
489.0649801
490.4944675
491.9068273
493.2993368
494.6697096
496.0161706
497.3367969
498.630123
499.8950518
501.1305946
502.3358135
503.5103479
504.6539322
505.766416
506.8478339
507.8984018
508.9185806
509.9088375
510.869887
511.8024315
512.7073695
457.7804848
457.8921907
458.1316777
458.4852655
458.9456709
459.5059842
460.160136
460.9017303
461.7252755
462.6251939
463.5960711
464.6327023
465.7300311
466.8830414
468.0868847
469.3366357
470.6277625
471.9557562
473.3158691
474.703635
476.1148995
477.544852
478.9896187
480.4448168
481.9064259
483.3704754
484.8331551
486.2909532
487.7402939
489.1781782
490.6013156
492.0073306
493.3933662
494.757371
496.097508
497.4118131
498.6989915
499.9579005
501.1875191
502.3869847
503.5559386
504.6940988
505.8013118
506.8776141
507.9232168
508.9385793
509.9241595
510.8806707
511.8088072
512.7094648
457.9624986
458.0742035
458.3135053
458.667055
459.1274196
459.6874645
460.3412877
461.0826813
461.9057429
462.8050806
463.7752404
464.8110172
465.907295
467.0590367
468.2612558
469.5091736
470.7982357
472.123842
473.4810512
474.8657267
476.273405
477.6994826
479.1400281
480.5905228
482.0472253
483.5059126
484.9630916
486.4150227
487.8584159
489.29009
490.7070156
492.1067507
493.4863858
494.8440994
496.1779644
497.4860554
498.7671634
500.0201272
501.2438739
502.4376711
503.601106
504.7338992
505.8358944
506.9071303
507.9478139
508.9584036
509.9393484
510.8913608
511.8151276
512.7115419
458.1444294
458.2560125
458.4952157
458.848733
459.3088702
459.8687896
460.5222545
461.2632902
462.0859547
462.9846662
463.9540577
464.9889224
466.084085
467.2344018
468.4349464
469.6810169
470.9679325
472.2909225
473.6452944
475.0268022
476.4307909
477.8529708
479.2891144
480.7349884
482.1867254
483.6400795
485.0917644
486.5378507
487.9753312
489.4008439
490.8116152
492.2050788
493.5784406
494.9299369
496.2575551
497.5595578
498.8346688
500.0817577
501.2996999
502.4878913
503.6458657
504.7733463
505.8701744
506.9363911
507.9722
508.9780589
509.9544082
510.9019603
511.8213943
512.7136014
458.3260776
458.4376444
458.6768223
459.030292
459.490158
460.0499501
460.7030262
461.4435964
462.2657765
463.1639212
464.1325071
465.1663837
466.2602674
467.409113
468.6080063
469.8521511
471.1368406
472.4571091
473.8085944
475.186828
476.5870991
478.0053262
479.4370128
480.8782401
482.3248931
483.7730108
485.219144
486.6594784
488.0910827
489.5104825
490.9151559
492.3023683
493.6695686
495.0149185
496.3363626
497.6323485
498.9015323
500.1428132
501.3550149
502.5376603
503.6902301
504.8124503
505.9041601
506.9654033
507.9963804
508.9975492
509.969342
510.9124711
511.8276087
512.7156436
458.5076242
458.619176
458.858318
459.2116595
459.6712982
460.2308482
460.8835928
461.6236616
462.4452477
463.3426664
464.3104149
465.3432351
466.4358743
467.5832491
468.7804194
470.0225628
471.3047955
472.6224216
473.9709479
475.3457252
476.7423352
478.1565522
479.5837498
481.0203022
482.4618577
483.9047385
485.3452772
486.7799425
488.2056535
489.619043
491.0176739
492.3986976
493.7598021
495.0990736
496.4144134
497.7044506
498.9677738
500.2032569
501.4098333
502.5869899
503.7342089
504.851219
505.9378576
506.9941717
508.020359
509.0168776
509.9841521
510.922895
511.8337715
512.7176689
458.6890685
458.8006003
459.0396955
459.3927669
459.8522825
460.411454
461.0639443
461.8034744
462.6244235
463.5210688
464.4879091
465.5196302
466.61096
467.7567954
468.9521705
470.1921975
471.47193
472.7868538
474.1323518
475.5036092
476.8964989
478.3065188
479.7293483
481.1611883
482.597646
484.035292
485.4702523
486.8992755
488.3190745
489.7265579
491.1192003
492.4940958
493.8491674
495.1823957
496.4917303
497.7758839
499.0334101
500.2631497
501.4641663
502.6358892
503.7778093
504.8896582
505.9712716
507.0227
508.0441387
509.0360462
509.9988399
510.9332329
511.8398836
512.7196775
458.8704039
458.9819105
459.2208732
459.5737322
460.0331022
460.591867
461.2439677
461.9830246
462.8032926
463.6991154
464.6649931
465.6955549
466.7855103
467.9297374
469.123245
470.3609606
471.6382508
472.9504014
474.2926634
475.660483
477.0496011
478.4553867
479.8738206
481.3008081
482.7322819
484.1646839
485.5940975
487.0175064
488.4314322
489.8330556
491.2196973
492.5885878
493.9376872
495.2648883
496.5683323
497.8466646
499.0984547
500.3225103
501.518023
502.6843657
503.8210372
504.9277724
506.0044056
507.0509909
508.0677215
509.0550566
510.0134067
510.9434856
511.8459453
512.7216695
459.0516233
459.1630856
459.4018021
459.7545472
460.2136785
460.7720775
461.4236619
462.1622891
462.9818436
463.8767939
464.8416535
465.8709956
466.959512
468.102063
469.2934904
470.5289695
471.8037499
473.1130607
474.4520082
475.8163526
477.2016027
478.6031663
480.0171797
481.4393009
482.8657866
484.2928456
485.716838
487.1346612
488.5427525
489.938561
491.3192255
492.6821958
494.0253824
495.3466185
496.6442335
497.9168048
499.1629064
500.3813476
501.5714108
502.7324248
503.8638969
504.9655648
506.037262
507.0790461
508.0911085
509.0739096
510.0278531
510.9536536
511.8519568
512.723645
459.2326329
459.3439557
459.5825907
459.935204
460.393945
460.9520771
461.6031114
462.3410947
463.1600541
464.0540922
465.0178778
466.0459399
467.1329531
468.2736323
469.4630144
470.6962155
471.9684185
473.2747054
474.610408
475.9712256
477.3524677
478.7498672
480.1594285
481.576683
482.9981793
484.4199057
485.8384964
487.2506644
488.653058
490.0430962
491.4178346
492.7749391
494.1122701
495.4276007
496.7194456
497.9863139
499.2267386
500.4396695
501.6243356
502.7800712
503.9063915
505.0030379
506.0698424
507.1068667
508.1143008
509.0926059
510.0421795
510.9637371
511.8579184
512.7256041
473.4354221
474.7678636
476.1251052
477.5022976
478.8954989
480.3004552
481.7129731
483.1294792
484.5458842
485.9590934
487.3656213
488.7623693
490.1466806
491.5155427
492.8668342
494.198318
495.5078474
496.7939792
498.0552014
499.2900057
500.4974805
501.6768011
502.8273075
503.9485233
505.0401929
506.1021478
507.1344535
508.1372986
509.1111457
510.0563861
510.9737363
511.8638301
512.7275468
)
;

boundaryField
{
    front_top
    {
        type            wedge;
    }
    front_middle
    {
        type            wedge;
    }
    front_bottom
    {
        type            wedge;
    }
    back_top
    {
        type            wedge;
    }
    back_middle
    {
        type            wedge;
    }
    back_bottom
    {
        type            wedge;
    }
    axis_top
    {
        type            symmetryPlane;
    }
    axis_middle
    {
        type            symmetryPlane;
    }
    axis_bottom
    {
        type            symmetryPlane;
    }
    wall_top
    {
        type            convectiveRadiativeHeatFlux;
        mode            convectiveRadiative;
        kappaMethod     fluidThermo;
        kappa           none;
        alphaAni        Anialpha;
        h               nonuniform 0();
        Ta              constant 513.15;
        emissivityNozzle 0.95;
        emissivityFilament 0.95;
        dNozzle         2;
        dFilament       1.65;
        refValue        nonuniform 0();
        refGradient     nonuniform 0();
        valueFraction   nonuniform 0();
        value           nonuniform 0();
    }
    wall_middle
    {
        type            fixedValue;
        value           nonuniform 0();
    }
    wall_bottom
    {
        type            fixedValue;
        value           uniform 513.15;
    }
    inlet
    {
        type            fixedValue;
        value           nonuniform 0();
    }
    outlet
    {
        type            zeroGradient;
    }
    procBoundary1to0
    {
        type            processor;
        value           nonuniform List<scalar> 
51
(
459.413409
459.52469
459.7632312
460.1156943
460.5740212
461.1318565
461.7823058
462.5196038
463.3377401
464.2309192
465.1936085
466.2203004
467.30566
468.4445173
469.6318356
470.8626918
472.1322528
472.1322528
473.5952453
474.9243724
476.2778626
477.651103
479.0400754
480.4404095
481.8481824
483.2595952
484.6708017
486.0786489
487.4795662
488.8707047
490.2492349
491.6123657
492.9578956
494.28355
495.5873697
496.8678438
498.1234747
499.3527132
500.5547844
501.7288099
502.8741357
503.9902934
505.0770307
506.1341784
507.1617939
508.1600923
509.1295292
510.0704729
510.9836511
511.8696919
512.729473
)
;
    }
    procBoundary1to2
    {
        type            processor;
        value           nonuniform List<scalar> 
51
(
455.0407064
455.1523763
455.3915851
455.7452723
456.2060235
456.7669681
457.4223309
458.1662826
458.9930543
459.897516
460.8744444
461.9188173
463.0258432
464.1907944
465.409109
466.6764498
467.9885416
469.3410554
470.7300009
472.1515955
473.6014342
475.0761544
476.5715557
478.0840352
479.6094005
481.1442206
482.6840743
484.2254492
485.7641155
487.2964962
488.818528
490.3267776
491.817608
493.2878409
494.8404417
494.8404417
496.2528276
497.6366803
498.9904205
500.3125349
501.6019508
502.8581157
504.0806143
505.2692449
506.4241517
507.5457477
508.6345933
509.6913668
510.716868
511.7119685
512.6776385
)
;
    }
}


// ************************************************************************* //
