/*--------------------------------*- C++ -*----------------------------------*\
  =========                 |
  \\      /  F ield         | OpenFOAM: The Open Source CFD Toolbox
   \\    /   O peration     | Website:  https://openfoam.org
    \\  /    A nd           | Version:  7
     \\/     M anipulation  |
\*---------------------------------------------------------------------------*/
FoamFile
{
    version     2.0;
    format      ascii;
    class       volScalarField;
    location    "0.0003";
    object      thermo:mu;
}
// * * * * * * * * * * * * * * * * * * * * * * * * * * * * * * * * * * * * * //

dimensions      [1 -1 -1 0 0 0 0];

internalField   nonuniform List<scalar> 
1167
(
62962.93791
62422.42273
61281.64346
59639.58456
57578.43325
55180.28426
52526.88153
49694.96896
46755.96458
43773.32283
40801.01047
37883.78614
35057.36156
32349.00397
29777.81008
27356.74275
25092.96256
22989.41185
21044.31393
19253.95684
17612.45645
16112.11617
14744.83904
13501.59783
12373.59285
11351.63754
10427.19279
9591.81749
8837.597674
8157.07567
7543.304864
6989.860426
6490.777584
6040.675418
62079.74492
61547.91185
60425.4459
58809.71773
56782.43007
54422.53624
51812.11874
49025.69165
46133.50098
43197.76512
40271.94278
37400.05959
34617.06841
31949.66644
29416.89876
27031.56211
24801.05738
22727.70938
20810.19479
19045.1487
17426.39193
15946.80091
14598.12998
13371.80474
12258.92307
11250.70763
10338.52201
9514.229587
8769.868274
8098.212853
7492.286035
6945.846205
6452.914108
6008.261328
5606.875813
5244.331874
4916.586549
4619.971769
4351.239225
4107.416
3885.85071
3684.191233
3500.35639
3332.456922
3178.825264
3037.976652
2908.596837
2789.516696
2679.7007
2578.224668
61211.05146
60687.75247
59583.28669
57994.14215
55999.4194
53677.88412
51108.91715
48367.18163
45520.99324
42631.59704
39751.5262
36924.06941
34183.67515
31556.58817
29061.67287
26711.67854
24513.86935
22470.34324
20580.22991
18840.06621
17243.81498
15784.7601
14454.50768
13244.91768
12146.98949
11152.34187
10252.24538
9438.855801
8704.192725
8041.194541
7442.948911
6903.303877
6416.352085
5976.970697
5580.173654
5221.652366
4897.380219
4603.776639
4337.659729
4096.081025
3876.452587
3676.468748
3494.079538
3327.428637
3174.880655
3034.975225
2906.41985
2788.062507
2678.882808
2577.968432
60356.6213
59841.71179
58754.94026
57192.09829
55229.19672
52945.41835
50417.12854
47719.28479
44918.30267
42074.4511
39239.35471
36455.58524
33757.10007
31169.70028
28712.07271
26397.11212
24231.34329
22217.25965
20354.29591
18638.64592
17064.80142
15625.9054
14313.94983
13120.82604
12037.74299
11056.39863
10168.2885
9365.533153
8640.420515
7985.854897
7395.128866
6862.079748
6380.969351
5946.672497
5554.319261
5199.688844
4878.773441
4588.091882
4324.487651
4085.078165
3867.322854
3668.96402
3487.972833
3322.533395
3171.038158
3032.050026
2904.297261
2786.644164
2678.084845
2577.718374
59516.22057
59009.55907
57940.94455
56403.18258
54471.55893
52224.87528
49737.28357
47081.84884
44325.29272
41526.20599
38735.32399
35994.51866
33337.26761
30788.9376
28368.36028
26087.60264
23953.43603
21968.52177
20132.25347
18440.82636
16889.15093
15470.15423
14176.33338
12999.4211
11931.01503
10962.74544
10086.42753
9294.11712
8578.365862
7932.049986
7348.665098
6822.043518
6346.615318
5917.257376
5529.236006
5178.354499
4860.691168
4572.840606
4311.669846
4074.363136
3858.425094
3661.644446
3482.012572
3317.752473
3167.283278
3029.19015
2902.221237
2785.256471
2677.303905
2577.473591
58689.61815
58191.55567
57140.41678
55627.18684
53727.02137
51516.06661
49068.46951
46455.13138
43741.82892
40986.7442
38239.33347
35540.78475
32924.10585
30414.51299
28030.18583
25783.10401
23680.10519
21724.10051
19914.05145
18246.60238
16716.76774
15317.42795
14041.51207
12880.59755
11826.65802
10871.26154
10006.53615
9224.478711
8517.900166
7879.654413
7303.438092
6783.08342
6313.187313
5888.632356
5504.822023
5157.578014
4843.071823
4557.969874
4299.162731
4063.89983
3849.729714
3654.486066
3476.179568
3313.070735
3163.604306
3026.386794
2900.185453
2783.895237
2676.537645
2577.23335
57877.41666
57387.36813
56353.0093
54863.89971
52994.77537
50818.80969
48410.51917
45838.80051
43168.20032
40456.03414
37751.2888
35094.41497
32517.87077
30046.19656
27697.46254
25483.57001
23411.43615
21483.81581
19699.64429
18055.99623
16547.58552
15167.754
13909.39374
12764.30861
11724.56748
10781.88604
9928.500342
9156.548743
8458.910103
7828.591358
7259.344546
6745.108856
6280.598038
5860.719189
5481.006001
5137.300032
4825.864606
4543.436826
4286.930549
4053.65874
3841.217198
3647.469426
3470.458281
3308.47594
3159.991783
3023.632852
2898.184807
2782.557077
2675.784172
2576.997062
57078.58773
56596.36415
55578.50643
54113.38845
52274.49006
50133.25549
47763.26783
45232.46169
42604.04793
39934.36522
37271.58638
34655.57222
32118.22769
29683.81292
27370.13908
25188.95376
23147.37998
21247.62102
19488.97977
17868.81192
16381.53939
15020.99455
13779.89407
12650.45841
11624.64603
10694.50343
9852.217166
9090.197254
8401.295747
7778.748501
7216.295092
6708.061413
6248.773339
5833.451992
5457.73043
5117.471027
4809.038603
4529.20614
4274.943952
4043.615738
3832.867128
3640.578715
3464.83611
3303.958182
3156.438066
3020.922588
2896.215183
2781.239267
2675.041964
2576.764253
56292.85289
55818.32518
54816.69603
53375.72862
51565.97012
49459.29028
47126.55187
44635.9677
42049.03225
39421.12218
36799.61713
34223.79938
31725.03264
29327.30325
27048.16336
24899.4391
22887.75357
21015.46721
19282.19674
17684.9909
16218.56349
14877.02925
13652.9359
12538.90972
11526.80229
10608.9826
9777.593422
9025.31214
8344.96885
7730.02523
7174.212369
6671.840531
6217.65007
5806.79292
5434.947041
5098.04966
4792.553093
4515.248636
4263.178817
4033.751075
3824.659518
3633.801076
3459.302838
3299.509447
3152.936982
3018.251376
2894.273266
2779.939612
2674.309794
2576.534541
55519.99392
55053.03576
54067.69425
52650.13015
50869.02544
48796.31497
46500.57031
44049.17125
41503.02131
38916.19118
36335.28407
33799.01506
31338.21817
28976.60987
26731.58517
24614.80202
22632.5074
20787.30359
19079.06357
17504.47455
16058.73548
14735.7913
13528.49998
12429.57995
11430.97072
10525.2382
9704.55099
8961.811528
8289.851351
7682.348571
7133.029279
6636.385634
6187.174383
5780.684415
5412.615214
5079.001355
4776.373216
4501.540172
4251.615279
4024.048559
3816.581301
3627.126046
3453.850172
3295.123248
3149.483546
3015.615485
2892.356384
2778.656343
2673.586674
2576.307617
54759.79636
54300.34657
53331.46673
51936.39218
50183.74421
48144.15424
45885.07454
43472.01569
40965.88488
38419.45887
35878.49023
33381.1374
30957.71542
28631.72248
26420.46362
24334.91931
22381.58906
20563.23799
18879.50398
17327.20437
15901.85652
14597.21444
13406.52729
12322.39183
11337.12156
10443.19204
9633.067405
8899.622131
8235.918126
7635.654581
7092.693287
6601.644564
6157.300274
5755.078483
5390.700722
5060.297177
4760.474839
4488.060837
4240.237118
4014.500148
3808.621672
3620.545042
3448.47135
3290.794315
3146.073721
3013.011904
2890.462386
2777.388039
2672.871812
2576.083235
54012.4413
53560.76093
52607.27503
51234.31865
49510.11741
47502.63504
45279.60999
42904.794
40437.5972
37930.8115
35429.13788
32970.08239
30583.54998
28292.82836
26114.51257
24059.73852
22134.94529
20343.10986
18683.46142
17153.18369
15747.85345
14461.22889
13286.87545
12217.27656
11245.11272
10362.77309
9563.01146
8838.678354
8183.071072
7589.887056
7053.180571
6567.572321
6127.988353
5729.941173
5369.174666
5041.920689
4744.837833
4474.79409
4229.03085
4005.093919
3800.771914
3614.051127
3443.160913
3286.518405
3142.704262
3010.438214
2888.589546
2776.133561
2672.164574
2575.861198
53277.76321
52833.26427
51894.91771
50543.71662
48847.48533
46871.58735
44684.02162
42346.82273
39918.38958
37450.4527
34987.35843
32566.04058
30215.82778
27959.54639
25813.67291
23789.20772
21892.70724
20126.79833
18490.8762
16982.39146
15596.66047
14327.83302
13169.47953
12114.16873
11154.8785
10283.91664
9494.320914
8778.921488
8131.247304
7544.996689
7014.413499
6534.130395
6099.219775
5705.243119
5348.012368
5023.853098
4729.445276
4461.72608
4217.985202
3995.816568
3793.025031
3607.638745
3437.914493
3282.292129
3139.372585
3007.892493
2886.736495
2774.892009
2671.464456
2575.64135
52555.08788
52117.65192
51194.19673
49865.01954
48195.66856
46251.46416
44098.15478
41797.9588
39407.65776
36978.12711
34553.05903
32168.75482
29854.17737
27631.80695
25517.88142
23523.28648
21654.67636
19914.24587
18301.68843
16814.65668
15448.21474
14196.95675
13054.27958
12013.10989
11066.35685
10206.60843
9426.938204
8720.305038
8080.398179
7500.939808
6976.353423
6501.284942
6070.961385
5680.959488
5327.192935
5006.067128
4714.28296
4448.845274
4207.090911
3986.660752
3785.375251
3601.303373
3432.728571
3278.112774
3136.07663
3005.373218
2884.902151
2773.66267
2670.771064
2575.423567
51844.21137
51413.7233
50504.91739
49197.51155
47554.49045
45641.48512
43521.89092
41258.06099
38905.2755
36513.53562
34125.88795
31778.01501
29498.51969
27309.53809
25227.0714
23262.12855
21420.74051
19705.39847
18116.0213
16649.91572
15302.45539
14068.47758
12941.21214
11913.93464
10979.492
10130.77667
9360.813278
8662.821448
8030.47961
7457.687171
6938.965662
6469.005843
6043.176181
5657.06925
5306.698719
4988.548205
4699.338994
4436.142082
4196.347154
3977.620442
3777.817847
3595.041335
3427.600309
3273.97817
3132.814761
3002.879181
2883.085662
2772.444986
2670.084089
2575.207755
51144.93416
50721.28161
49827.55233
48540.89131
46923.77692
45041.46032
42955.62384
40726.9904
38411.11703
36056.56499
33705.74509
31393.73248
29148.77416
26992.66582
24941.36256
23005.42315
21190.83739
19500.19374
17933.62779
16488.11349
15159.43744
13942.33316
12830.21657
11816.58546
10894.22975
10056.34095
9295.899245
8606.380239
7981.454415
7415.223834
6902.219464
6437.26677
6015.842062
5633.554058
5286.521372
4971.283976
4684.603389
4423.608514
4185.74415
3968.690678
3770.348957
3588.849648
3422.52742
3269.88658
3129.585679
3000.409434
2881.286358
2771.238521
2669.403289
2574.99384
50457.06071
50040.56648
49161.30154
47894.97879
46303.92352
44451.23054
42398.60767
40204.96638
37925.05471
35607.10199
33292.52987
31015.81779
28804.86123
26681.26978
24660.59253
22753.10251
20964.90211
19298.74364
17754.44696
16329.18977
15019.01492
13818.46329
12721.32673
11721.01047
10810.54163
9983.254583
9232.153096
8550.942552
7933.287561
7373.489052
6866.088885
6406.062901
5988.939948
5610.398041
5266.653497
4954.263917
4670.067714
4411.237888
4175.273122
3959.867377
3762.965435
3582.725902
3417.508075
3265.836629
3126.38836
2997.963232
2879.503722
2770.042938
2668.72848
2574.781763
49781.11355
49371.24604
48505.90574
47259.59726
45694.25708
43870.63859
41850.69607
39691.69387
37447.28529
35165.07184
32886.14108
30644.21564
28466.91774
26375.27668
24384.57927
22505.09709
20742.86831
19100.83557
17578.41673
16173.11739
14881.0972
13696.81428
12614.40242
11627.15764
10728.41702
9911.473952
9169.568371
8496.472875
7885.947569
7332.455624
6830.550701
6375.370028
5962.453256
5587.587481
5247.071139
4937.47903
4655.724821
4399.024588
4164.929709
3951.147181
3755.664714
3576.668153
3412.540812
3261.827226
3123.222006
2995.54
2877.737353
2768.857981
2668.059522
2574.571482
49116.18984
48712.82124
47861.18452
46634.79476
45094.53105
43299.80631
41311.74279
39186.82638
36977.53707
34730.75995
32486.83061
30279.1386
28134.75836
26074.4378
24113.25067
22261.33704
20524.86735
18906.37239
17405.47514
16019.91293
14745.62839
13577.33866
12509.38582
11534.97812
10647.75024
9840.958265
9108.101806
8442.938707
7839.42801
7292.099075
6795.584088
6345.156658
5936.36743
5565.110437
5227.764639
4920.921597
4641.568624
4386.974585
4154.710275
3942.527317
3748.4447
3570.674835
3407.624468
3257.857519
3120.085996
2993.139298
2875.986951
2767.683457
2667.39631
2574.362967
48462.08288
48065.11042
47226.96075
46020.59474
44504.58307
42738.63129
40781.60439
38690.23194
36515.50739
34303.60649
32094.16815
29920.13797
27808.1628
25778.67337
23846.53386
22021.81099
20310.6433
18715.28993
17235.5618
15869.40662
14612.55899
13460.09411
12406.22332
11444.43096
10568.49851
9771.669193
9047.691277
8390.310164
7793.703327
7252.397284
6761.170384
6315.407314
5910.669847
5542.964778
5208.725392
4904.584865
4627.593876
4375.074392
4144.611753
3934.005482
3741.30368
3564.744684
3402.758123
3253.926842
3116.979857
2990.760795
2874.252293
2766.519227
2666.738769
2574.156193
47818.61236
47427.93538
46603.3152
45416.39356
43924.25434
42186.61704
40260.43577
38201.77711
36061.07364
33883.50057
31708.01357
29567.12004
27487.04426
25487.90384
23584.35632
21786.56179
20100.10939
18527.52329
17068.76196
15721.54052
14481.83134
13344.91121
12304.8703
11355.54237
10490.62203
9703.578197
8988.305216
8338.559711
7748.726417
7213.330136
6727.314552
6286.108168
5885.349277
5521.145667
5189.945868
4888.462944
4613.796035
4363.319109
4134.631545
3925.579748
3734.240242
3558.876679
3397.941045
3250.034678
3113.903227
2988.404243
2872.533216
2765.36519
2666.086848
2573.951147
47185.60145
46801.16851
45990.20405
44822.02739
43353.60761
41643.61631
39748.05829
37721.36519
35614.11479
33470.33148
31328.26537
29219.99079
27171.31532
25202.04725
23326.85397
21555.33756
19893.19971
18343.00842
16904.88151
15576.25551
14353.43125
13231.74149
12205.28302
11268.19316
10414.0836
9636.699839
8929.914343
8287.66191
7704.475522
7174.879231
6693.988428
6257.24649
5860.395166
5499.631774
5171.419904
4872.550958
4600.173766
4351.70574
4124.767426
3917.248486
3727.253212
3553.069986
3393.172651
3246.180625
3110.855835
2986.069465
2870.829605
2764.221279
2665.440513
2573.747818
46563.17316
46185.18592
45387.05826
44237.33482
42792.6571
41109.48087
39244.05939
37249.29176
35174.53909
33063.98893
30954.82167
28878.6558
26860.88799
24921.23045
23073.76737
21328.06749
19689.85032
18161.81926
16743.83862
15433.49254
14227.34186
13120.53843
12107.42552
11182.34444
10338.84818
9570.946271
8872.491315
8237.635479
7660.930577
7137.027676
6661.168312
6228.810751
5835.798211
5478.415859
5153.142
4856.844792
4586.731078
4340.231569
4115.017427
3909.010289
3720.341597
3547.323917
3388.452472
3242.364371
3107.837477
2983.75633
2869.141383
2763.08745
2664.799741
2573.546201
17983.79055
16585.57512
15293.19822
14103.4331
13011.25667
12011.34087
11097.95699
10264.88176
9506.287884
8816.010473
8188.421424
7618.072942
7099.759874
6628.841335
6200.790469
5811.563211
5457.491311
5135.10697
4841.340316
4573.454979
4328.894623
4105.380033
3900.864043
3713.504608
3541.63793
3383.780149
3238.585684
3104.848009
2981.464752
2867.468501
2761.963678
2664.164524
2573.346294
)
;

boundaryField
{
    front_top
    {
        type            wedge;
    }
    front_middle
    {
        type            wedge;
    }
    front_bottom
    {
        type            wedge;
    }
    back_top
    {
        type            wedge;
    }
    back_middle
    {
        type            wedge;
    }
    back_bottom
    {
        type            wedge;
    }
    axis_top
    {
        type            symmetryPlane;
    }
    axis_middle
    {
        type            symmetryPlane;
    }
    axis_bottom
    {
        type            symmetryPlane;
    }
    wall_top
    {
        type            calculated;
        value           nonuniform 0();
    }
    wall_middle
    {
        type            calculated;
        value           nonuniform 0();
    }
    wall_bottom
    {
        type            calculated;
        value           uniform 2530.329233;
    }
    inlet
    {
        type            calculated;
        value           nonuniform 0();
    }
    outlet
    {
        type            calculated;
        value           nonuniform 0();
    }
    procBoundary1to0
    {
        type            processor;
        value           nonuniform List<scalar> 
51
(
45951.19825
45579.20392
44793.71372
43662.15703
42240.84313
40584.06631
38748.30538
36784.96396
34742.64411
32664.54189
30587.67603
28543.16514
26555.95902
24645.23103
22824.97768
21104.67922
19489.99281
19489.99281
17808.81989
16430.03733
15155.43867
13981.65347
12903.84885
11916.89431
11014.99733
10192.21245
9442.695454
8760.447133
8139.992429
7575.885113
7063.095803
6596.995616
6173.176015
5787.679169
5436.852074
5117.310099
4826.03393
4560.342849
4317.693048
4095.853926
3892.808823
3706.741615
3536.011611
3379.155426
3234.846115
3101.888588
2979.194647
2865.810915
2760.849942
2663.534853
2573.148095
)
;
    }
    procBoundary1to2
    {
        type            processor;
        value           nonuniform List<scalar> 
51
(
63861.46477
63311.52008
62152.10656
60483.25381
58387.62725
55950.54591
53253.3826
50375.17068
47389.09911
44358.56389
41338.85053
38375.60591
35504.98274
32754.67836
30144.47615
27687.16157
25389.92654
23255.51031
21282.50468
19466.55757
17802.08556
16280.8649
14894.74356
13634.47337
12491.13648
11455.29048
10518.42642
9671.799379
8907.545912
8217.971556
7596.168123
7035.526564
6530.104601
6074.369053
5634.543392
5634.543392
5267.831051
4936.482341
4636.74103
4365.291841
4119.13777
3895.562216
3692.169623
3506.832734
3337.641451
3182.889961
3041.067836
2910.837949
2791.01318
2680.542128
2578.488208
)
;
    }
}


// ************************************************************************* //
