/*--------------------------------*- C++ -*----------------------------------*\
  =========                 |
  \\      /  F ield         | OpenFOAM: The Open Source CFD Toolbox
   \\    /   O peration     | Website:  https://openfoam.org
    \\  /    A nd           | Version:  7
     \\/     M anipulation  |
\*---------------------------------------------------------------------------*/
FoamFile
{
    version     2.0;
    format      ascii;
    class       volVectorField;
    location    "0.0003";
    object      U;
}
// * * * * * * * * * * * * * * * * * * * * * * * * * * * * * * * * * * * * * //

dimensions      [0 1 -1 0 0 0 0];

internalField   nonuniform List<vector> 
1167
(
(-1.546457368e-06 -1.976376552e-18 -0.05007183902)
(-4.02874398e-06 -3.147951177e-18 -0.05007048602)
(-6.344821587e-06 -3.983469823e-18 -0.05006771781)
(-8.709044999e-06 -4.9897191e-18 -0.05006352091)
(-1.104906919e-05 -3.979579435e-18 -0.05005774465)
(-1.338238998e-05 -6.489936189e-18 -0.05005014387)
(-1.576897989e-05 -7.351425337e-18 -0.05004036814)
(-1.828835306e-05 -1.020176784e-17 -0.05002796758)
(-2.102797201e-05 -1.250643764e-17 -0.05001240313)
(-2.407886879e-05 -1.216596527e-17 -0.04999305895)
(-2.753028525e-05 -1.380343077e-17 -0.04996924689)
(-3.146482285e-05 -1.515896911e-17 -0.04994020066)
(-3.59566777e-05 -1.651787653e-17 -0.049905063)
(-4.107092242e-05 -1.817898184e-17 -0.04986286852)
(-4.686261673e-05 -1.874265534e-17 -0.04981252373)
(-5.337651299e-05 -1.990799027e-17 -0.04975278345)
(-6.064648173e-05 -2.116646652e-17 -0.04968222458)
(-6.869183697e-05 -2.048797851e-17 -0.04959921725)
(-7.751374452e-05 -2.023140324e-17 -0.0495018924)
(-8.709480091e-05 -2.018711701e-17 -0.04938810113)
(-9.739377624e-05 -2.022942971e-17 -0.04925537115)
(-0.0001083420558 -2.027762779e-17 -0.04910085589)
(-0.0001198408943 -2.028383033e-17 -0.04892127543)
(-0.0001317571056 -2.021027798e-17 -0.0487128522)
(-0.0001439200801 -2.00361058e-17 -0.04847123773)
(-0.0001561202512 -1.971115455e-17 -0.04819143506)
(-0.000168107822 -1.916707323e-17 -0.04786771517)
(-0.0001795947054 -1.913898774e-17 -0.04749353495)
(-0.0001902586522 -1.893173111e-17 -0.04706145599)
(-0.0001997510599 -1.859774754e-17 -0.0465630738)
(-0.0002077078492 -1.880550884e-17 -0.04598896197)
(-0.0002137647003 -1.855324999e-17 -0.04532863859)
(-0.0002175747253 -1.824788641e-17 -0.0445705611)
(-0.0002188294773 -1.787335544e-17 -0.04370215568)
(-1.737096359e-06 -1.364902818e-18 -0.0500874385)
(-4.526185874e-06 -1.556473514e-18 -0.05008606062)
(-7.130535423e-06 -2.934486058e-18 -0.05008324547)
(-9.788026573e-06 -4.367707158e-18 -0.05007900522)
(-1.240633675e-05 -5.485983298e-18 -0.05007322257)
(-1.498763873e-05 -6.894327415e-18 -0.05006569857)
(-1.757604523e-05 -8.567711078e-18 -0.05005613288)
(-2.02357115e-05 -1.014740935e-17 -0.05004412287)
(-2.304373218e-05 -1.157779233e-17 -0.05002916483)
(-2.608386892e-05 -1.272218922e-17 -0.05001066219)
(-2.944113949e-05 -1.387987627e-17 -0.04998793249)
(-3.319664689e-05 -1.476932751e-17 -0.04996020666)
(-3.742389026e-05 -1.5460397e-17 -0.04992661978)
(-4.218685895e-05 -1.582843249e-17 -0.04988619524)
(-4.753972053e-05 -1.699376098e-17 -0.04983782413)
(-5.352668626e-05 -1.784108418e-17 -0.04978024064)
(-6.018045824e-05 -1.844043608e-17 -0.04971199474)
(-6.751824509e-05 -1.884184004e-17 -0.04963142219)
(-7.554058799e-05 -1.922860295e-17 -0.04953660835)
(-8.423032811e-05 -1.958162726e-17 -0.04942534698)
(-9.354688976e-05 -1.988632391e-17 -0.04929509563)
(-0.0001034244552 -2.012905989e-17 -0.04914292189)
(-0.0001137681868 -2.029120511e-17 -0.04896544504)
(-0.0001244511522 -2.036135938e-17 -0.0487587706)
(-0.0001353118653 -2.033955568e-17 -0.04851841927)
(-0.0001461534063 -2.022018592e-17 -0.04823925122)
(-0.000156743326 -2.001889726e-17 -0.04791538844)
(-0.0001668159252 -1.976321205e-17 -0.04754013829)
(-0.0001760773199 -1.941909486e-17 -0.04710592292)
(-0.0001842132284 -1.89711851e-17 -0.04660421879)
(-0.0001909001045 -1.891312489e-17 -0.0460255145)
(-0.0001958191063 -1.872947987e-17 -0.04535928964)
(-0.0001986722647 -1.845813805e-17 -0.0445940225)
(-0.0001992008855 -1.80987218e-17 -0.04371722856)
(-0.0001972030452 -1.765853164e-17 -0.04271553236)
(-0.0001925513173 -1.714727155e-17 -0.04157476649)
(-0.0001852065705 -1.654091595e-17 -0.04028010462)
(-0.0001752292179 -1.582950545e-17 -0.03881621403)
(-0.0001627862339 -1.499566246e-17 -0.0371674276)
(-0.0001481515814 -1.404868212e-17 -0.0353179231)
(-0.0001317029726 -1.299016662e-17 -0.03325189966)
(-0.0001139138477 -1.182497392e-17 -0.03095375418)
(-9.534150458e-05 -1.054641594e-17 -0.02840824909)
(-7.661187762e-05 -9.153057049e-18 -0.0256006582)
(-5.840165004e-05 -7.646415681e-18 -0.02251688851)
(-4.14147738e-05 -6.032398148e-18 -0.01914358177)
(-2.63625343e-05 -4.823135912e-18 -0.01546818765)
(-1.400214133e-05 -3.542397671e-18 -0.01147899608)
(-5.264575575e-06 -2.185381254e-18 -0.007165082373)
(-9.353789976e-07 -7.533709467e-19 -0.002515994773)
(-1.898289253e-06 1.874159183e-18 -0.05010401512)
(-4.947185275e-06 9.667819987e-18 -0.05010261252)
(-7.796970925e-06 1.114296945e-18 -0.05009974794)
(-1.070660015e-05 -2.632885601e-18 -0.05009545283)
(-1.356848097e-05 -4.519183722e-18 -0.05008963467)
(-1.637394312e-05 -5.313090453e-18 -0.05008212942)
(-1.915444036e-05 -9.498775372e-18 -0.05007268025)
(-2.195936958e-05 -1.046319944e-17 -0.05006092892)
(-2.485381584e-05 -1.176709695e-17 -0.05004641131)
(-2.791233097e-05 -1.323112633e-17 -0.05002855831)
(-3.121391692e-05 -1.500143579e-17 -0.05000670073)
(-3.483619229e-05 -1.492836708e-17 -0.04998007129)
(-3.88511092e-05 -1.52206791e-17 -0.04994779907)
(-4.332211532e-05 -1.520373597e-17 -0.04990889598)
(-4.830298535e-05 -1.619482555e-17 -0.04986223688)
(-5.383755131e-05 -1.65666322e-17 -0.04980653472)
(-5.995665208e-05 -1.647060609e-17 -0.04974031284)
(-6.667589427e-05 -1.699572515e-17 -0.0496618727)
(-7.399630666e-05 -1.816203099e-17 -0.04956925506)
(-8.190024228e-05 -1.898879364e-17 -0.0494601986)
(-9.03478888e-05 -1.962228625e-17 -0.04933209302)
(-9.927574699e-05 -2.008678487e-17 -0.04918192445)
(-0.0001085927982 -2.04122777e-17 -0.0490062173)
(-0.0001181784272 -2.06524903e-17 -0.04880096809)
(-0.0001278802379 -2.0771243e-17 -0.04856157711)
(-0.0001375137401 -2.074994092e-17 -0.04828277498)
(-0.0001468633564 -2.05917911e-17 -0.04795855095)
(-0.0001556847979 -2.028620038e-17 -0.04758208239)
(-0.0001637109482 -1.981572852e-17 -0.04714567386)
(-0.0001706594719 -1.917691485e-17 -0.04664070589)
(-0.0001762437078 -1.915929103e-17 -0.04605760455)
(-0.0001801852592 -1.903118966e-17 -0.04538583065)
(-0.0001822288619 -1.875893698e-17 -0.04461389693)
(-0.0001821578029 -1.832879214e-17 -0.04372941399)
(-0.0001798088969 -1.771176467e-17 -0.04271916533)
(-0.0001750873079 -1.739023978e-17 -0.04156920589)
(-0.0001679770389 -1.689570717e-17 -0.04026499049)
(-0.0001585497204 -1.628352666e-17 -0.0387915167)
(-0.0001469690269 -1.532189281e-17 -0.0371334876)
(-0.0001334904975 -1.423709467e-17 -0.03527547497)
(-0.0001184579429 -1.300045944e-17 -0.03320208034)
(-0.0001022962709 -1.18265731e-17 -0.03089809922)
(-8.550066452e-05 -1.049514939e-17 -0.02834867348)
(-6.862402126e-05 -9.126785913e-18 -0.0255394238)
(-5.226168562e-05 -7.659915919e-18 -0.02245656269)
(-3.70317146e-05 -6.093871924e-18 -0.01908698936)
(-2.355822623e-05 -4.754498444e-18 -0.01541835823)
(-1.250705429e-05 -3.442027793e-18 -0.0114391099)
(-4.700978968e-06 -2.104066239e-18 -0.007138419913)
(-8.349842563e-07 -7.194213305e-19 -0.002505905876)
(-2.032408785e-06 -1.441814397e-18 -0.0501214126)
(-5.297751329e-06 -1.553348744e-18 -0.0501199863)
(-8.353342129e-06 2.390860424e-19 -0.05011707319)
(-1.147514986e-05 -3.672712371e-18 -0.05011271957)
(-1.454441889e-05 -5.604626224e-18 -0.05010685102)
(-1.75453993e-05 -6.615228463e-18 -0.05009932909)
(-2.050081076e-05 -6.772024375e-18 -0.05008993269)
(-2.344718963e-05 -9.382331635e-18 -0.05007834293)
(-2.643663868e-05 -1.124912596e-17 -0.05006413498)
(-2.953374607e-05 -1.256233539e-17 -0.0500467717)
(-3.280973353e-05 -1.383647501e-17 -0.05002560391)
(-3.633722552e-05 -1.517616575e-17 -0.04999987182)
(-4.018552176e-05 -1.670399296e-17 -0.04996870174)
(-4.44168988e-05 -1.88633643e-17 -0.04993109535)
(-4.90849373e-05 -1.864234275e-17 -0.04988591128)
(-5.423240468e-05 -1.89195069e-17 -0.04983184134)
(-5.988827074e-05 -1.913479592e-17 -0.04976738236)
(-6.606787468e-05 -1.918336919e-17 -0.04969080083)
(-7.27721251e-05 -1.886165659e-17 -0.04960009392)
(-7.998291087e-05 -1.924227719e-17 -0.0494929474)
(-8.766184065e-05 -2.008787082e-17 -0.04936668583)
(-9.574735324e-05 -2.053187831e-17 -0.0492182184)
(-0.0001041522916 -2.062504134e-17 -0.04904397996)
(-0.000112762217 -2.123085187e-17 -0.0488398662)
(-0.0001214336406 -2.157403912e-17 -0.04860116694)
(-0.0001299942115 -2.161172658e-17 -0.04832249626)
(-0.0001382445229 -2.148637862e-17 -0.04799772585)
(-0.0001459607533 -2.123831106e-17 -0.04761992095)
(-0.0001529007513 -2.085747611e-17 -0.0471812872)
(-0.0001588116273 -2.03142945e-17 -0.04667312905)
(-0.0001634398854 -1.994421647e-17 -0.04608582797)
(-0.0001665428791 -1.991629263e-17 -0.04540884108)
(-0.0001679022325 -1.964887348e-17 -0.04463072498)
(-0.0001673365934 -1.914664683e-17 -0.04373918717)
(-0.0001647147693 -1.895716775e-17 -0.0427211615)
(-0.0001599674433 -1.82208857e-17 -0.04156290773)
(-0.0001530957136 -1.732225299e-17 -0.04025013362)
(-0.0001441780642 -1.622989371e-17 -0.03876812974)
(-0.000133372559 -1.547099787e-17 -0.03710192289)
(-0.000120916543 -1.45323026e-17 -0.03523642602)
(-0.0001071229614 -1.469640834e-17 -0.03315658906)
(-9.237397713e-05 -1.215458461e-17 -0.03084755146)
(-7.711129556e-05 -1.082122033e-17 -0.02829478158)
(-6.1825645e-05 -9.311480338e-18 -0.02548419877)
(-4.704378175e-05 -7.621179726e-18 -0.02240228058)
(-3.331174383e-05 -6.185827338e-18 -0.01903615147)
(-2.118086622e-05 -4.678222161e-18 -0.01537364779)
(-1.124082767e-05 -3.014285279e-18 -0.01140334772)
(-4.224100515e-06 -1.705511474e-18 -0.007114523387)
(-7.501204922e-07 -4.310869634e-19 -0.00249686456)
(-2.141742547e-06 -5.837714789e-18 -0.05013948648)
(-5.583967421e-06 -1.768835524e-17 -0.05013803791)
(-8.808293894e-06 -1.310536384e-17 -0.05013507898)
(-1.210448858e-05 -9.203141921e-18 -0.05013066816)
(-1.534666309e-05 -8.973748739e-18 -0.05012474326)
(-1.851376178e-05 -1.059189553e-17 -0.05011718476)
(-2.162191948e-05 -8.803180004e-18 -0.05010779952)
(-2.469842435e-05 -1.068900249e-17 -0.05009630281)
(-2.778325818e-05 -1.249982793e-17 -0.0500823053)
(-3.09304925e-05 -1.174457434e-17 -0.05006530289)
(-3.420284059e-05 -1.248184939e-17 -0.05004467098)
(-3.766648776e-05 -1.467790906e-17 -0.05001966266)
(-4.138671922e-05 -1.63500058e-17 -0.04998940571)
(-4.542402737e-05 -1.82977434e-17 -0.04995289385)
(-4.983082418e-05 -1.903891615e-17 -0.04990897086)
(-5.464788548e-05 -2.015415137e-17 -0.04985630825)
(-5.990332401e-05 -2.157769456e-17 -0.04979337556)
(-6.56130581e-05 -2.217893196e-17 -0.0497184046)
(-7.177709594e-05 -2.198562177e-17 -0.04962935028)
(-7.837705153e-05 -2.200033107e-17 -0.04952384676)
(-8.53760145e-05 -2.207698507e-17 -0.04939915625)
(-9.271448434e-05 -2.221362674e-17 -0.04925211544)
(-0.0001003094245 -2.2322441e-17 -0.04907907525)
(-0.0001080523614 -2.22851304e-17 -0.04887583848)
(-0.0001158084535 -2.22136325e-17 -0.04863759403)
(-0.0001234171884 -2.225677288e-17 -0.04835885162)
(-0.0001306944808 -2.227418842e-17 -0.04803337915)
(-0.0001374359078 -2.229154708e-17 -0.04765414567)
(-0.0001434224996 -2.235215218e-17 -0.04721327441)
(-0.0001484281234 -2.25322655e-17 -0.04670201015)
(-0.0001522289147 -2.256883914e-17 -0.04611070424)
(-0.0001546135763 -2.195132054e-17 -0.0454288211)
(-0.0001553952593 -2.15268919e-17 -0.04464496702)
(-0.0001544224698 -2.127862978e-17 -0.04374694536)
(-0.000151590366 -2.054635908e-17 -0.04272183199)
(-0.0001468496261 -1.939390362e-17 -0.04155607381)
(-0.0001402138542 -1.828281616e-17 -0.04023560471)
(-0.0001317650446 -1.714915111e-17 -0.03874597585)
(-0.000121654513 -1.623652563e-17 -0.03707249854)
(-0.0001101022156 -1.526065676e-17 -0.03520038337)
(-9.739327478e-05 -1.421709804e-17 -0.03311488337)
(-8.387231224e-05 -1.4242875e-17 -0.03080143667)
(-6.993496106e-05 -1.149941441e-17 -0.02824579515)
(-5.601891832e-05 -9.903850763e-18 -0.02543413809)
(-4.259290948e-05 -8.176612459e-18 -0.0223531752)
(-3.014233964e-05 -6.416259681e-18 -0.01899023016)
(-1.915747877e-05 -4.982763758e-18 -0.01533330275)
(-1.016417862e-05 -3.440008773e-18 -0.01137109796)
(-3.81905492e-06 -1.803729479e-18 -0.007092980922)
(-6.781625303e-07 -6.149958166e-19 -0.002488714687)
(-2.2290281e-06 9.557772831e-18 -0.05015810426)
(-5.812285929e-06 -2.075535538e-18 -0.05015663537)
(-9.170555913e-06 -6.718815438e-18 -0.05015363489)
(-1.260614428e-05 -7.53641557e-18 -0.05014917056)
(-1.598874882e-05 -7.024251316e-18 -0.05014318867)
(-1.929282686e-05 -1.0249223e-17 -0.05013558449)
(-2.252925454e-05 -1.260385012e-17 -0.05012618535)
(-2.571949649e-05 -1.188778636e-17 -0.05011473477)
(-2.889399486e-05 -1.145688869e-17 -0.05010087497)
(-3.209584384e-05 -1.3818529e-17 -0.05008413304)
(-3.537866329e-05 -1.39906969e-17 -0.0500639107)
(-3.880179382e-05 -1.435088645e-17 -0.05003947793)
(-4.242570137e-05 -1.429383392e-17 -0.05000996823)
(-4.630747085e-05 -1.538559921e-17 -0.0499743709)
(-5.049661489e-05 -1.758954792e-17 -0.04993151727)
(-5.503246524e-05 -1.964521465e-17 -0.049880059)
(-5.994326322e-05 -2.051426504e-17 -0.04981843835)
(-6.524444435e-05 -2.1512883e-17 -0.04974485315)
(-7.093504834e-05 -2.270536204e-17 -0.04965721759)
(-7.699745005e-05 -2.3144331e-17 -0.04955311555)
(-8.339572647e-05 -2.308752857e-17 -0.04942974994)
(-9.007252201e-05 -2.349803083e-17 -0.0492838887)
(-9.694886388e-05 -2.346647631e-17 -0.04911180461)
(-0.0001039221624 -2.29245972e-17 -0.04890921503)
(-0.0001108661599 -2.25837026e-17 -0.04867121722)
(-0.0001176317624 -2.247620091e-17 -0.04839222764)
(-0.0001240494116 -2.242095133e-17 -0.04806592315)
(-0.000129932748 -2.234269922e-17 -0.04768519046)
(-0.000135084025 -2.220208124e-17 -0.04724208474)
(-0.0001393013351 -2.244108934e-17 -0.04672780464)
(-0.0001423870979 -2.193300498e-17 -0.04613268288)
(-0.0001441573167 -2.148527111e-17 -0.04544619922)
(-0.0001444522275 -2.101868011e-17 -0.04465701268)
(-0.0001431453506 -2.053493845e-17 -0.04375301972)
(-0.0001401532248 -1.982498197e-17 -0.04272142893)
(-0.0001354424619 -1.9049595e-17 -0.04154885788)
(-0.0001290357988 -1.822101117e-17 -0.04022144342)
(-0.0001210164326 -1.735148461e-17 -0.03872496839)
(-0.0001115282292 -1.647155421e-17 -0.0370449951)
(-0.0001007748355 -1.532428397e-17 -0.03516699535)
(-8.901654832e-05 -1.409423251e-17 -0.03307648757)
(-7.656504947e-05 -1.294031796e-17 -0.03075917126)
(-6.377621874e-05 -1.159320776e-17 -0.02820104656)
(-5.104239636e-05 -1.009806244e-17 -0.02538852113)
(-3.878303143e-05 -8.587310274e-18 -0.02230851008)
(-2.743228215e-05 -7.021112635e-18 -0.01894851517)
(-1.742896238e-05 -5.496082144e-18 -0.01529668461)
(-9.245193822e-06 -3.961353284e-18 -0.01134184158)
(-3.473617233e-06 -2.39679987e-18 -0.007073441523)
(-6.168613048e-07 -8.200203581e-19 -0.002481322013)
(-2.295903742e-06 -3.584547479e-18 -0.05017714601)
(-5.98699717e-06 -7.083997831e-18 -0.05017565955)
(-9.44794888e-06 -9.353524157e-18 -0.05017262267)
(-1.299175566e-05 -9.905513638e-18 -0.05016810996)
(-1.648412054e-05 -1.096536119e-17 -0.05016207401)
(-1.989700312e-05 -1.180642831e-17 -0.05015442159)
(-2.32377942e-05 -1.243455179e-17 -0.05014499487)
(-2.652282411e-05 -1.221747865e-17 -0.05013355955)
(-2.977583806e-05 -1.146900296e-17 -0.05011978515)
(-3.303085665e-05 -1.295188238e-17 -0.05010322727)
(-3.633224978e-05 -1.409176185e-17 -0.05008331336)
(-3.973170189e-05 -1.489260303e-17 -0.05005933238)
(-4.328361265e-05 -1.535775521e-17 -0.05003042731)
(-4.704035696e-05 -1.53389278e-17 -0.04999558683)
(-5.104849192e-05 -1.671541036e-17 -0.04995363198)
(-5.534612529e-05 -1.776129588e-17 -0.04990319546)
(-5.996114979e-05 -1.867549989e-17 -0.04984269334)
(-6.490765308e-05 -1.964547103e-17 -0.04977029099)
(-7.018389632e-05 -2.051261276e-17 -0.04968386253)
(-7.577349799e-05 -2.115588426e-17 -0.04958094337)
(-8.164141606e-05 -2.15945737e-17 -0.04945868045)
(-8.773276385e-05 -2.189231265e-17 -0.04931377672)
(-9.397236784e-05 -2.217482772e-17 -0.0491424326)
(-0.0001002634724 -2.231400042e-17 -0.04894028654)
(-0.0001064881295 -2.237729695e-17 -0.04870235316)
(-0.0001125081439 -2.239492442e-17 -0.04842296569)
(-0.0001181676081 -2.233252249e-17 -0.04809572161)
(-0.0001232968738 -2.212516844e-17 -0.04771343728)
(-0.0001277175687 -2.177948765e-17 -0.04726811222)
(-0.0001312495792 -2.128401452e-17 -0.04675090976)
(-0.000133718517 -2.06497193e-17 -0.04615215327)
(-0.0001349642952 -2.04247779e-17 -0.04546134298)
(-0.0001348501181 -1.999694143e-17 -0.04466719236)
(-0.0001332703383 -1.938054429e-17 -0.04375768694)
(-0.0001301590145 -1.886848238e-17 -0.04272015857)
(-0.00012549533 -1.819192087e-17 -0.04154138025)
(-0.0001193087135 -1.736569848e-17 -0.04020767134)
(-0.0001116818813 -1.638514151e-17 -0.03870502126)
(-0.0001027509893 -1.523289396e-17 -0.03701921467)
(-9.270461441e-05 -1.449840209e-17 -0.03513595396)
(-8.178102392e-05 -1.365421957e-17 -0.03304099189)
(-7.026302493e-05 -1.214967721e-17 -0.03072025809)
(-5.847215824e-05 -1.046687534e-17 -0.02815997135)
(-4.6761875e-05 -8.90418685e-18 -0.0253467422)
(-3.55096387e-05 -6.959007378e-18 -0.02226766927)
(-2.510612095e-05 -5.84197599e-18 -0.01891041509)
(-1.594658279e-05 -4.836512959e-18 -0.01526326398)
(-8.457692654e-06 -3.615239979e-18 -0.01131515013)
(-3.177856584e-06 -2.248587487e-18 -0.007055616897)
(-5.644425891e-07 -7.771280118e-19 -0.002474577087)
(-2.343787521e-06 -1.695171555e-17 -0.05019650416)
(-6.112374455e-06 -1.280295773e-17 -0.05019500257)
(-9.648092631e-06 -1.330371223e-17 -0.05019193412)
(-1.327207067e-05 -9.974259624e-18 -0.05018737876)
(-1.684638071e-05 -1.582924715e-17 -0.05018129413)
(-2.034185919e-05 -1.444491861e-17 -0.05017359508)
(-2.376377968e-05 -1.548837733e-17 -0.05016413526)
(-2.712399678e-05 -1.444945975e-17 -0.0501526969)
(-3.044140171e-05 -1.438709892e-17 -0.05013897179)
(-3.374301672e-05 -1.491244392e-17 -0.05012254082)
(-3.706493101e-05 -1.549375918e-17 -0.05010285594)
(-4.045071191e-05 -1.618737671e-17 -0.05007922593)
(-4.394784768e-05 -1.700678603e-17 -0.05005080549)
(-4.760372465e-05 -1.59656836e-17 -0.05001658528)
(-5.146182936e-05 -1.631593591e-17 -0.04997537831)
(-5.555857136e-05 -1.600117458e-17 -0.0499258003)
(-5.992008938e-05 -1.611544813e-17 -0.04986624291)
(-6.455880551e-05 -1.799711857e-17 -0.04979484063)
(-6.947343744e-05 -1.923926402e-17 -0.04970942842)
(-7.464789146e-05 -2.005595684e-17 -0.04960749538)
(-8.004785778e-05 -2.053329362e-17 -0.0494861353)
(-8.562146072e-05 -2.064941023e-17 -0.04934199006)
(-9.129732231e-05 -2.131337461e-17 -0.04917119319)
(-9.698446493e-05 -2.174041361e-17 -0.04896931077)
(-0.000102572813 -2.204679044e-17 -0.04873128302)
(-0.0001079344659 -2.23122583e-17 -0.04845136902)
(-0.0001129263284 -2.263041775e-17 -0.04812309723)
(-0.0001173940789 -2.226617043e-17 -0.04773922401)
(-0.00012117698 -2.19853392e-17 -0.04729170357)
(-0.0001241143551 -2.104043884e-17 -0.04677167284)
(-0.000126052264 -2.06880511e-17 -0.04616945286)
(-0.0001268514129 -2.030392295e-17 -0.04547456838)
(-0.000126394507 -1.985438377e-17 -0.04467578732)
(-0.0001245934945 -1.93236123e-17 -0.04376117905)
(-0.0001213965433 -1.869763681e-17 -0.04271818984)
(-0.0001167926199 -1.796090776e-17 -0.04153373437)
(-0.000110816011 -1.711035192e-17 -0.04019429691)
(-0.000103547884 -1.613293448e-17 -0.03868605146)
(-9.511676297e-05 -1.502706376e-17 -0.03699497982)
(-8.56974333e-05 -1.406370104e-17 -0.03510698959)
(-7.550852189e-05 -1.299490268e-17 -0.03300804192)
(-6.480765085e-05 -1.195292752e-17 -0.03068427055)
(-5.388662919e-05 -1.082260513e-17 -0.02812208826)
(-4.306550525e-05 -9.733230894e-18 -0.02530828739)
(-3.268583601e-05 -8.603199276e-18 -0.02223013205)
(-2.310122963e-05 -7.13118099e-18 -0.01887543121)
(-1.46699152e-05 -5.638667969e-18 -0.01523259516)
(-7.779930666e-06 -4.104877986e-18 -0.01129066313)
(-2.923485654e-06 -2.51650937e-18 -0.007039264422)
(-5.194013201e-07 -8.637421206e-19 -0.002468387636)
(-2.374836814e-06 -2.847851887e-18 -0.05021608092)
(-6.193893888e-06 -4.144975858e-18 -0.05021456637)
(-9.77938614e-06 -2.869508635e-18 -0.05021147103)
(-1.345752779e-05 -7.274624783e-18 -0.05020687912)
(-1.708801481e-05 -9.579695406e-18 -0.05020075263)
(-2.064146828e-05 -1.091098044e-17 -0.05019301151)
(-2.412232274e-05 -1.202868895e-17 -0.05018351868)
(-2.753886063e-05 -1.325073554e-17 -0.05017206828)
(-3.09056281e-05 -1.463090512e-17 -0.05015836965)
(-3.424413384e-05 -1.622550066e-17 -0.050142025)
(-3.758342572e-05 -1.618136262e-17 -0.05012250858)
(-4.095976754e-05 -1.663917719e-17 -0.05009914856)
(-4.441399568e-05 -1.737891478e-17 -0.05007111257)
(-4.798807771e-05 -1.839260598e-17 -0.0500373952)
(-5.172172018e-05 -1.847997612e-17 -0.04999680379)
(-5.564878526e-05 -1.892389433e-17 -0.04994793944)
(-5.979264084e-05 -1.936961844e-17 -0.04988917176)
(-6.416429751e-05 -1.975287257e-17 -0.04981860517)
(-6.876325134e-05 -2.016680939e-17 -0.04973403728)
(-7.357329011e-05 -2.054892713e-17 -0.0496329137)
(-7.856124311e-05 -2.087321171e-17 -0.04951227736)
(-8.367780926e-05 -2.113344526e-17 -0.04936871308)
(-8.885528008e-05 -2.136169019e-17 -0.04919829252)
(-9.400842944e-05 -2.151414519e-17 -0.04899651566)
(-9.903467661e-05 -2.157081813e-17 -0.04875825578)
(-0.000103815916 -2.151343202e-17 -0.04847770617)
(-0.0001082209376 -2.13224778e-17 -0.04814833526)
(-0.0001121094916 -2.119196743e-17 -0.04776284848)
(-0.0001153367283 -2.092927143e-17 -0.04731316329)
(-0.0001177592777 -2.078478403e-17 -0.04679039751)
(-0.0001192411642 -2.051671474e-17 -0.04618487505)
(-0.0001196609235 -2.01684681e-17 -0.04548614763)
(-0.0001189180205 -1.97479864e-17 -0.04468303673)
(-0.0001169393378 -1.924444219e-17 -0.04376369121)
(-0.0001136843742 -1.865080378e-17 -0.04271566293)
(-0.0001091496654 -1.796085016e-17 -0.04152599495)
(-0.0001033727402 -1.717583255e-17 -0.04018132128)
(-9.643270792e-05 -1.629875259e-17 -0.03866798163)
(-8.845076006e-05 -1.532986911e-17 -0.03697213368)
(-7.958912954e-05 -1.427608535e-17 -0.03507986855)
(-7.004892849e-05 -1.312442068e-17 -0.03297733359)
(-6.006578405e-05 -1.209882822e-17 -0.03065084495)
(-4.990570373e-05 -1.098527458e-17 -0.02808698933)
(-3.985996124e-05 -9.801425483e-18 -0.02527272303)
(-3.023929651e-05 -8.55963143e-18 -0.02219546056)
(-2.136559891e-05 -7.181600549e-18 -0.01884314549)
(-1.356546735e-05 -5.687080905e-18 -0.01520430557)
(-7.19394586e-06 -4.145144945e-18 -0.01126808007)
(-2.703689839e-06 -2.542915337e-18 -0.007024182421)
(-4.805140383e-07 -8.730418999e-19 -0.002462677267)
(-2.390718557e-06 -2.501646143e-18 -0.05023578756)
(-6.235995461e-06 -4.666193683e-18 -0.05023426225)
(-9.848810649e-06 -6.546765723e-18 -0.05023114474)
(-1.355726007e-05 -9.581968602e-18 -0.05022652321)
(-1.722052077e-05 -6.738750424e-18 -0.0502203624)
(-2.080947454e-05 -8.122099591e-18 -0.05021258559)
(-2.432820259e-05 -8.359388334e-18 -0.0502030629)
(-2.778266737e-05 -1.127305349e-17 -0.05019159776)
(-3.118338185e-05 -1.367281549e-17 -0.05017791247)
(-3.454764267e-05 -1.316413272e-17 -0.05016162668)
(-3.789875198e-05 -1.46672781e-17 -0.05014223384)
(-4.126641559e-05 -1.589183031e-17 -0.05011908008)
(-4.46850737e-05 -1.703938845e-17 -0.0500913462)
(-4.819127639e-05 -1.81459372e-17 -0.05005803222)
(-5.182069663e-05 -1.902035282e-17 -0.05001794184)
(-5.560320938e-05 -2.008918863e-17 -0.0499696641)
(-5.955924998e-05 -2.159882183e-17 -0.04991154851)
(-6.369942955e-05 -2.106467841e-17 -0.04984167078)
(-6.802260863e-05 -2.09455702e-17 -0.04975779318)
(-7.251234031e-05 -2.101764303e-17 -0.04965732032)
(-7.713745467e-05 -2.115734569e-17 -0.04953724724)
(-8.18507547e-05 -2.12981989e-17 -0.04939410598)
(-8.658824122e-05 -2.13985067e-17 -0.04922391057)
(-9.127000533e-05 -2.141414816e-17 -0.049022101)
(-9.580064565e-05 -2.13099121e-17 -0.04878349009)
(-0.0001000712076 -2.103542502e-17 -0.04850221301)
(-0.0001039615173 -2.051773313e-17 -0.04817168595)
(-0.000107344087 -2.052654231e-17 -0.04778457131)
(-0.0001100884076 -2.02802054e-17 -0.04733275689)
(-0.0001120664257 -2.057534196e-17 -0.04680734731)
(-0.0001131578081 -2.034975451e-17 -0.04619867324)
(-0.0001132566286 -2.003739583e-17 -0.04549631467)
(-0.0001122766107 -1.964312975e-17 -0.04468914506)
(-0.000110157025 -1.916307644e-17 -0.0437653883)
(-0.0001068667659 -1.85965179e-17 -0.04271269369)
(-0.0001024083109 -1.794106488e-17 -0.04151822113)
(-9.682115892e-05 -1.719451027e-17 -0.04016874049)
(-9.018198214e-05 -1.63589595e-17 -0.03865074091)
(-8.26050223e-05 -1.543583661e-17 -0.03695053813)
(-7.424122761e-05 -1.442732766e-17 -0.03505438816)
(-6.527606802e-05 -1.333568737e-17 -0.03294860565)
(-5.592588684e-05 -1.216831753e-17 -0.03061967099)
(-4.643423806e-05 -1.091573059e-17 -0.02805432794)
(-3.706752154e-05 -9.567006711e-18 -0.02523968181)
(-2.810993895e-05 -8.110152683e-18 -0.02216328495)
(-1.985612746e-05 -6.533420212e-18 -0.01881320556)
(-1.260554701e-05 -5.245974271e-18 -0.01517808167)
(-6.684922559e-06 -3.859013546e-18 -0.01124714832)
(-2.51286665e-06 -2.37999405e-18 -0.007010201447)
(-4.467780717e-07 -8.191281323e-19 -0.002457381792)
(-2.39320639e-06 -2.134629189e-18 -0.0502555433)
(-6.243280682e-06 -3.681952174e-18 -0.05025400932)
(-9.862432305e-06 -4.849960856e-18 -0.05025087465)
(-1.357926024e-05 -6.135930142e-18 -0.05024623075)
(-1.725458242e-05 -7.389538805e-18 -0.05024004347)
(-2.085888888e-05 -8.508380922e-18 -0.05023223877)
(-2.439552212e-05 -9.577749171e-18 -0.05022269164)
(-2.787019418e-05 -1.081203747e-17 -0.05021121313)
(-3.129005885e-05 -1.2017378e-17 -0.05019753509)
(-3.46681767e-05 -1.316888258e-17 -0.05018129053)
(-3.802350428e-05 -1.423629629e-17 -0.05016198901)
(-4.138019891e-05 -1.524007158e-17 -0.05013899256)
(-4.476695736e-05 -1.622103101e-17 -0.05011149444)
(-4.821524884e-05 -1.709051546e-17 -0.05007850075)
(-5.175562534e-05 -1.790079804e-17 -0.05003881363)
(-5.541336112e-05 -1.866991597e-17 -0.04999101234)
(-5.920663618e-05 -1.919499418e-17 -0.04993342741)
(-6.314547318e-05 -1.972561149e-17 -0.04986410802)
(-6.722744292e-05 -2.019405874e-17 -0.04978078388)
(-7.143592688e-05 -2.060075103e-17 -0.04968082039)
(-7.574134526e-05 -2.093954567e-17 -0.04956116774)
(-8.009864765e-05 -2.120586711e-17 -0.04941830913)
(-8.444780095e-05 -2.139137217e-17 -0.04924820558)
(-8.87137765e-05 -2.148939297e-17 -0.04904624258)
(-9.280798883e-05 -2.150211815e-17 -0.04880717844)
(-9.66299217e-05 -2.143504424e-17 -0.04852509713)
(-0.0001000695723 -2.129063382e-17 -0.04819336921)
(-0.0001030110027 -2.10763787e-17 -0.04780462103)
(-0.0001053366165 -2.077925635e-17 -0.04735071639)
(-0.0001069318573 -2.040277346e-17 -0.04682275172)
(-0.000107690287 -2.021009825e-17 -0.04621106672)
(-0.000107519204 -1.992052186e-17 -0.0455052707)
(-0.0001063443332 -1.953958602e-17 -0.04469428703)
(-0.0001041153558 -1.907046815e-17 -0.04376641)
(-0.000100808933 -1.851687113e-17 -0.04270937888)
(-9.643228309e-05 -1.787539223e-17 -0.04151046038)
(-9.102590512e-05 -1.714226678e-17 -0.04015654788)
(-8.466375018e-05 -1.631670252e-17 -0.03863426576)
(-7.745354981e-05 -1.539915027e-17 -0.03693007258)
(-6.953614828e-05 -1.438859742e-17 -0.0350303737)
(-6.108304962e-05 -1.328275537e-17 -0.03292163486)
(-5.229366239e-05 -1.208100055e-17 -0.03059048465)
(-4.339194694e-05 -1.07811383e-17 -0.02802381015)
(-3.462272291e-05 -9.376313839e-18 -0.02520885318)
(-2.624724431e-05 -7.857800575e-18 -0.02213329328)
(-1.853662755e-05 -7.092448081e-18 -0.01878531478)
(-1.176693196e-05 -4.992079259e-18 -0.01515365997)
(-6.240446181e-06 -3.671182886e-18 -0.0112276559)
(-2.346321384e-06 -2.263799009e-18 -0.00699717951)
(-4.173533648e-07 -7.790069112e-19 -0.0024524475)
(-2.383759535e-06 -1.189938412e-18 -0.05027527513)
(-6.218982e-06 -1.666161088e-18 -0.05027373495)
(-9.825165516e-06 -2.036213307e-18 -0.05027058874)
(-1.353096694e-05 -2.220772772e-18 -0.05026592959)
(-1.719936736e-05 -7.881108492e-18 -0.05025972379)
(-2.080050904e-05 -8.610803837e-18 -0.05025189988)
(-2.43370562e-05 -9.660235062e-18 -0.05024233529)
(-2.781487663e-05 -1.016597548e-17 -0.05023084698)
(-3.123936454e-05 -1.045101828e-17 -0.05021717473)
(-3.461978196e-05 -1.34813106e-17 -0.05020096134)
(-3.797096813e-05 -1.403359335e-17 -0.05018172898)
(-4.131265943e-05 -1.469079194e-17 -0.05015885299)
(-4.466858018e-05 -1.533839687e-17 -0.05013153792)
(-4.806474147e-05 -1.596853282e-17 -0.05009879644)
(-5.152622565e-05 -1.676208733e-17 -0.05005943053)
(-5.507458857e-05 -1.742501606e-17 -0.05001201068)
(-5.872621472e-05 -1.741474201e-17 -0.04995485024)
(-6.248898942e-05 -1.860989508e-17 -0.04988597412)
(-6.635890347e-05 -1.951401122e-17 -0.04980308202)
(-7.03201889e-05 -2.020449172e-17 -0.04970350254)
(-7.434411389e-05 -2.073400671e-17 -0.04958414427)
(-7.838755316e-05 -2.112998421e-17 -0.04944144481)
(-8.239419994e-05 -2.137766836e-17 -0.0492713166)
(-8.629368843e-05 -2.152964622e-17 -0.0490690957)
(-9.000394044e-05 -2.16181324e-17 -0.04882949134)
(-9.343228736e-05 -2.16717886e-17 -0.04854654234)
(-9.64779898e-05 -2.171449016e-17 -0.04821357958)
(-9.903560237e-05 -2.135229082e-17 -0.04782319901)
(-0.0001009990335 -2.093704455e-17 -0.04736724538)
(-0.0001022656881 -2.002778664e-17 -0.0468368106)
(-0.0001027413843 -1.993583871e-17 -0.04622224582)
(-0.0001023447122 -1.970929067e-17 -0.04551318976)
(-0.0001010117333 -1.93667384e-17 -0.04469861273)
(-9.870067529e-05 -1.892374943e-17 -0.04376687529)
(-9.539447614e-05 -1.838568277e-17 -0.04270579994)
(-9.11042149e-05 -1.775618342e-17 -0.0415027516)
(-8.587067293e-05 -1.703630812e-17 -0.04014473617)
(-7.976495199e-05 -1.622248036e-17 -0.03861850049)
(-7.288873273e-05 -1.531268516e-17 -0.0369106331)
(-6.537367636e-05 -1.430204391e-17 -0.03500767546)
(-5.737894867e-05 -1.319801108e-17 -0.03289623048)
(-4.908903851e-05 -1.200023971e-17 -0.03056306138)
(-4.071077346e-05 -1.070528184e-17 -0.02799518688)
(-3.247016434e-05 -9.303530502e-18 -0.02517997468)