/*--------------------------------*- C++ -*----------------------------------*\
  =========                 |
  \\      /  F ield         | OpenFOAM: The Open Source CFD Toolbox
   \\    /   O peration     | Website:  https://openfoam.org
    \\  /    A nd           | Version:  7
     \\/     M anipulation  |
\*---------------------------------------------------------------------------*/
FoamFile
{
    version     2.0;
    format      ascii;
    class       volScalarField;
    location    "0.0015";
    object      generalizedNewtonian:nu;
}
// * * * * * * * * * * * * * * * * * * * * * * * * * * * * * * * * * * * * * //

dimensions      [0 2 -1 0 0 0 0];

internalField   nonuniform List<scalar> 
1166
(
2044.693452
2037.756414
1969.089863
1962.375435
1949.790805
1930.134992
1904.984091
1874.718761
1839.820774
1800.801214
1758.223758
1712.53785
1664.247257
1613.820795
1561.658955
1508.240506
1453.889788
1399.047149
1343.987537
1289.080045
1234.563476
1180.717114
1127.775526
1075.908491
1025.334776
976.1494745
928.4990092
882.4803121
838.1422237
795.5695354
754.7691151
715.7521277
678.550523
643.1133988
609.4251027
577.4647414
547.1664666
518.4935356
491.3886873
465.7802812
441.6229037
418.8370209
397.3571882
377.1323423
358.0797392
340.1450832
323.2633436
307.3683773
292.4147513
278.3351901
265.0932251
252.5798088
1896.574669
1890.10234
1877.905244
1858.871091
1834.456534
1805.092834
1771.291354
1733.516257
1692.247188
1648.046328
1601.315008
1552.525752
1502.110856
1450.450902
1397.972718
1344.990775
1291.876419
1238.895198
1186.344025
1134.471777
1083.476136
1033.582449
984.9102474
937.634734
891.8500467
847.634412
805.0910011
764.226278
725.0851989
687.688417
652.0090986
618.0513309
585.7807547
555.1514535
526.1433562
498.6840958
472.722688
448.2127834
425.0745115
403.256668
382.695001
363.3179552
345.0781264
327.8978161
311.7242115
296.50084
282.1641146
268.6765614
255.9797752
243.9842805
1827.108875
1820.839728
1808.971444
1790.522335
1766.88277
1738.451584
1705.678337
1669.105881
1629.190092
1586.370871
1541.169152
1493.971497
1445.218073
1395.31015
1344.605318
1293.470794
1242.201934
1191.109576
1140.45921
1090.47409
1041.387977
993.3446384
946.5474729
901.0885428
857.0843073
814.6310774
773.7621291
734.5481768
696.9987678
661.1137371
626.914036
594.3551524
563.4199878
534.0796659
506.2734471
479.967601
455.1006942
431.6080929
409.448945
388.5443503
368.840792
350.2800861
332.7915127
316.3294815
300.8255327
286.2276641
272.48579
259.5425484
247.3674376
235.8560919
1760.607843
1754.55525
1743.01284
1725.117649
1702.187552
1674.655907
1642.940048
1607.509673
1568.854164
1527.444877
1483.683037
1438.051124
1390.921221
1342.695492
1293.731412
1244.357087
1194.893419
1145.624987
1096.797502
1048.654842
1001.365515
955.154912
910.1207957
866.415563
824.1295563
783.3254275
744.0948905
706.4415622
670.4016684
635.9827892
603.1621349
571.9442919
542.2847184
514.1438003
487.4991362
462.278444
438.4392868
415.927784
394.6759799
374.6414976
355.7516687
337.949662
321.1852863
305.3903666
290.5216525
276.5172211
263.3280081
250.9099853
239.2149697
228.1682612
1696.88382
1691.038041
1679.84543
1662.538138
1640.353325
1613.65962
1582.918646
1548.632266
1511.212326
1471.10878
1428.804916
1384.661254
1339.118991
1292.519452
1245.227116
1197.567952
1149.848209
1102.332283
1055.276374
1008.877654
963.3662537
918.8646179
875.5543301
833.5206083
792.865733
753.6726541
715.9705208
679.8228125
645.223407
612.1769889
580.6972377
550.7380445
522.2855273
495.3024169
469.7342111
445.5528478
422.6885482
401.0914349
380.7164015
361.491545
343.3718741
326.2939022
310.2012054
295.0486067
280.7713732
267.3289856
254.6643503
242.734784
231.5037028
220.884819
1635.99
1630.332846
1619.453725
1602.669469
1581.17021
1555.333427
1525.576819
1492.345479
1456.129121
1417.346142
1376.392799
1333.737218
1289.698239
1244.679383
1199.005554
1153.007359
1106.963447
1061.144867
1015.774692
971.0895034
927.2366998
884.4235265
842.7345046
802.3104309
763.2260757
725.5413832
689.3338459
654.598647
621.3709851
589.6513439
559.4164429
530.6716977
503.3636625
477.4637795
452.9379475
429.7234519
407.7850337
387.0626583
367.5005692
349.0550114
331.6562672
315.2610386
299.8116104
285.2538876
271.5457472
258.6264794
246.4591748
234.993058
224.1946491
213.9875476
1577.719097
1572.255958
1561.701563
1545.452761
1524.618091
1499.563634
1470.737439
1438.588402
1403.52705
1365.990446
1326.409328
1285.12898
1242.578402
1199.075287
1154.977234
1110.572045
1066.148453
1021.952131
978.2280855
935.1549374
892.9415229
851.6972751
811.593032
772.6960186
735.1052012
698.8883544
664.0677517
630.7018732
598.7774235
568.3049067
539.2795671
511.6639326
485.4488051
460.5836162
437.0272403
414.7461516
393.6760333
373.7791207
354.9970882
337.2730109
320.5672064
304.8129386
289.9691733
275.9818983
262.8006997
250.3849041
238.6797931
227.6550212
217.2655873
207.4450798
1522.025911
1516.738282
1506.481311
1490.72415
1470.548158
1446.297845
1418.385412
1387.236587
1353.317343
1317.002305
1278.679298
1238.791843
1197.647274
1155.631856
1113.036815
1070.171624
1027.300619
984.6793899
942.51527
901.0203547
860.3333159
820.6395671
782.0159781
744.5949122
708.4348389
673.5955635
640.1292157
608.0404694
577.3662252
548.0857147
520.1891458
493.6692046
468.4767649
444.592317
421.9666636
400.5521825
380.3185721
361.197415
343.1490027
326.1200256
310.0552025
294.9168023
280.6418799
267.1921599
254.5156743
242.5671901
231.3083755
220.6922695
210.6945378
201.2365305
1468.787328
1463.678491
1453.731426
1438.479789
1418.923535
1395.41634
1368.388635
1338.250499
1305.392702
1270.236396
1233.190263
1194.593302
1154.846066
1114.236651
1073.098664
1031.710541
990.3408018
949.2224178
908.5725942
868.5632917
829.3781253
791.1212569
753.9504285
717.9194951
683.1268802
649.6122371
617.4108505
586.5670995
557.0633827
528.917395
502.106373
476.6045473
452.4005168
429.4377627
407.6900675
387.1122278
367.6518554
349.2760582
331.9194025
315.5432993
300.0968779
285.5281364
271.7999519
258.8537374
246.6544444
235.1524499
224.3093435
214.0885194
204.4525442
195.3438437
1417.955259
1413.010796
1403.349554
1388.561089
1369.626292
1346.867479
1320.67727
1291.462666
1259.666673
1225.65277
1189.790331
1152.497051
1114.050786
1074.812566
1035.0696
995.1058328
955.1761629
915.5048587
876.294887
837.7298716
799.9505648
763.1094714
727.28594
692.6089798
659.1063296
626.8505517
595.8737
566.1859315
537.8177997
510.7399682
484.9553526
460.4367034
437.1482509
415.0733425
394.1548927
374.3630445
355.6498642
337.9633801
321.271197
305.5109374
290.6458723
276.6261716
263.4042816
250.9426608
239.1885731
228.1115097
217.6631375
207.8122854
198.5251508
189.7406158
1369.418926
1364.637527
1355.266098
1340.94266
1322.570805
1300.494585
1275.122437
1246.85115
1216.055158
1183.128729
1148.460351
1112.356944
1075.194453
1037.263063
998.8648649
960.2723945
921.7192026
883.4365217
845.6097146
808.4147951
772.0002552
736.4820426
701.9853947
668.5610223
636.3087178
605.2484785
575.4277081
546.8621501
519.546988
493.5015478
468.6860943
445.0932879
422.6908057
401.4386436
381.3182253
362.2683172
344.2569356
327.2373872
311.160127
295.9918447
281.6739388
268.1720968
255.4364706
243.4253371
232.101601
221.4187861
211.3487977
201.8465333
192.8894888
184.4138018
1323.07339
1318.440003
1309.332956
1295.436925
1277.639285
1256.263192
1231.68196
1204.282988
1174.476331
1142.611593
1109.032907
1074.125908
1038.175987
1001.507324
964.405413
927.1156938
889.8941957
852.9307206
816.433785
780.5495695
745.4307033
711.1960613
677.9334254
645.7388302
614.6497579
584.7434004
556.0204092
528.5111878
502.220198
477.13006
453.2493516
430.5316804
408.9627375
388.5087141
369.1259268
350.7892961
333.4406822
317.0485449
301.565582
286.946054
273.1549634
260.1380303
247.8638503
236.2833715
225.3617359
215.0606648
205.3410252
196.1748746
187.5250387
179.3460037
1278.832553
1274.349808
1265.517899
1252.058255
1234.798914
1214.071381
1190.252646
1163.732016
1134.850636
1103.975474
1071.495935
1037.697949
1002.925436
967.4711598
931.5953742
895.5744337
859.6052136
823.9256082
788.6818967
754.0614309
720.1786785
687.1598072
655.0908531
624.0442971
594.0944072
565.2581652
537.5927786
511.0874485
485.7582253
461.5979353
438.5816485
416.7068939
395.927057
376.2232629
357.5547066
339.8790149
323.1682579
307.3671288
292.4453653
278.3542843
265.0529426
252.5041435
240.6591319
229.4909636
218.9504769
209.0086232
199.6264073
190.7733555
182.4216776
174.5174472
1236.655114
1232.31283
1223.736253
1210.679235
1193.946382
1173.865788
1150.777855
1125.054186
1097.071093
1067.186657
1035.714466
1003.009503
969.3653118
935.0601595
900.3861241
865.549024
830.8133428
796.3254511
762.3076628
728.870857
696.1798542
664.3121488
633.377309
603.4393218
574.5506591
546.7609515
520.076308
494.5376938
470.1213733
446.8341398
424.6576387
403.564383
383.5449345
364.5485375
346.5533871
329.5164285
313.3981152
298.1669255
283.7710284
270.1820449
257.3494243
245.2380715
233.8097469
223.0235126
212.8497062
203.2445133
194.1841721
185.6290007
177.5580823
169.9178776
1196.445002
1192.237133
1183.915795
1171.257906
1155.023081
1135.530436
1113.127088
1088.204814
1061.083919
1032.112096
1001.648805
969.9800509
937.4062633
904.2304611
870.6705203
837.0097928
803.4069584
770.0987327
737.2131127
704.9371099
673.3507707
642.5985511
612.7348585
583.8506557
555.9819492
529.1697602
503.4435424
478.7991365
455.2628778
432.8018212
411.4163088
391.0812775
371.7665242
353.4521918
336.090198
319.6584177
304.1103446
289.4103973
275.5232197
262.4009923
250.0174041
238.3215958
227.2852978
216.8680015
207.0358337
197.7571115
188.9954891
180.7272903
172.9191943
165.5325542
1158.120096
1154.034365
1145.94871
1133.659629
1117.898598
1098.999119
1077.285247
1053.098936
1026.793433
998.7375474
969.2073058
938.5250331
906.99942
874.8652015
842.4137234
809.8264326
777.3442831
745.1271524
713.3592876
682.1540906
651.6555702
621.9374013
593.1154154
565.2189376
538.3244873
512.4474517
487.6179918
463.8469055
441.124638
419.4607843
398.8220197
379.2034548
360.5687682
342.8894497
326.1396952
310.2735862
295.2695788
281.0775934
267.6667978
254.9978057
243.0301785
231.7346958
221.066468
211.000631
201.4948623
192.522825
184.0500623
176.0497102
168.4971452
161.3456534
1121.589257
1117.621334
1109.768242
1097.842375
1082.550228
1064.189499
1043.106203
1019.651293
994.1603701
966.934613
938.3071638
908.5869706
878.0276606
846.927992
815.4892819
783.9573796
752.5224403
721.3678611
690.6421099
660.4823245
630.9984523
602.2973226
574.4389442
547.5063554
521.5203063
496.541431
472.5647137
449.6138272
427.6823866
406.7596665
386.8433692
367.8959679
349.9083109
332.8386589
316.6613239
301.3441773
286.8454321
273.1411913
260.1816173
247.9401652
236.3748266
225.4529969
215.1415277
205.4027343
196.2112718
187.5274104
179.3307379
171.5857078
164.2744865
157.3488462
1086.811165
1082.956447
1075.308738
1063.710305
1048.852792
1031.023965
1010.571315
987.8027385
963.0500184
936.6458716
908.8904679
880.0606196
850.461454
820.3093079
789.8588088
759.3258896
728.8959828
698.7494231
669.0191769
639.8503295
611.3426662
583.5937427
556.6743479
530.6391027
505.5418716
481.3953015
458.2420025
436.0651347
414.8824042
394.6756897
375.4324444
357.1359975
339.750611
323.2656372
307.6335496
292.8324949
278.8242261
265.5730076
253.0489174
241.2077606
230.02716
219.4620389
209.4864615
200.0643074
191.1659834
182.7622932
174.8224081
167.3240869
160.2386759
153.5307289
1053.648045
1049.904321
1042.476377
1031.21035
1016.784258
999.4708573
979.5853626
957.4625962
933.4438265
907.8113837
880.867471
852.9219251
824.199873
794.968097
765.4640031
735.8779072
706.4188939
677.2153451
648.4480864
620.2098859
592.6372171
565.7894741
539.7587991
514.5861819
490.3191562
466.9856959
444.5954233
423.1687235
402.687655
383.1643264
364.5649841
346.878821
330.0798901
314.1369067
299.0302988
284.7157936
271.1730493
258.3579855
246.2416449
234.789859
223.9667081
213.7452383
204.0851751
194.9658029
186.3472509
178.2080802
170.516099
163.2491424
156.3827337
149.878261
1022.08865
1018.4507
1011.236028
1000.276324
986.2327656
969.396089
950.0766486
928.5980003
905.2494304
880.3473663
854.2104725
827.0661678
799.196435
770.8550566
742.2360349
713.5780097
685.0110137
656.733986
628.8562598
601.5286303
574.8207066
548.8479588
523.6471481
499.3007084
475.8213217
453.2532913
431.6012802
410.8747439
391.0770688
372.1877596
354.20765
337.0998433
320.8546204
305.436959
290.8207462
276.9779303
263.8691828
251.4728088
239.7440596
228.6603866
218.1829273
208.2832596
198.9304371
190.0924701
181.7445529
173.8535939
166.4000863
159.3518779
152.6949928
146.3841299
992.009676
988.4701884
981.4547201
970.7955521
957.1381991
940.7727389
921.9837504
901.0843992
878.3915974
854.21555
828.7999027
802.4380808
775.395821
747.8787363
720.1330177
692.3142097
664.6236421
637.2026882
610.1980403
583.7136854
557.8563782
532.6951252
508.3084074
484.7279127
462.0121156
440.1618888
419.2148102
399.1583283
380.0015951
361.7292281
344.3249562
327.7769621
312.0502835
297.1352777
282.988341
269.5891426
256.9019577
244.8952776
233.5415441
222.8025904
212.6566905
203.063262
194.0012571
185.4351139
177.3415657
169.6917253
162.4608255
155.625697
149.1640459
143.0413465
963.4007917
959.948275
953.1188623
942.7417188
929.444859
913.493431
895.2032644
874.8816804
852.8208304
829.2899519
804.5873302
778.9851145
752.7024619
725.9940824
699.0406752
672.0448442
645.1784015
618.5849488
592.4030482
566.7309265
541.6736575
517.2987223
493.6729674
470.841654
448.8362271
427.687091
407.3961558
387.9864361
369.4344269
351.7478968
334.8989319
318.8756672
303.6544177
289.2060978
275.5116788
262.5305006
250.24484
238.6132006
227.6122979
217.2084005
207.3715211
198.0748938
189.2849645
180.9804928
173.1272055
165.7079812
158.6897321
152.0565245
145.7828802
139.8381529
936.1587306
932.7806734
926.1113588
915.9822222
903.0294232
887.5011896
869.7074436
849.9167168
828.4280901
805.5401604
781.5250562
756.6181617
731.0825075
705.1198211
678.9370577
652.7328837
626.6467584
600.8534724
575.4408151
550.5531212
526.2452879
502.6229603
479.7166835
457.5942382
436.2707761
415.7792981
396.1282017
377.3198897
359.3556988
342.2157515
325.9007757
310.3759759
295.6327408
281.6368495
268.3658763
255.7911609
243.8797277
232.6096104
221.9419166
211.8575912
202.3178341
193.3011597
184.7753351
176.716014
169.0970963
161.8926256
155.0808582
148.6370158
142.5453654
136.767947
237.7976201
226.8663486
216.5228818
206.7365146
197.4838194
188.7305475
180.4581372
172.6324011
165.236307
158.2387513
151.622288
145.3616911
139.4415791
133.8262347
)
;

boundaryField
{
    front_top
    {
        type            wedge;
    }
    front_middle
    {
        type            wedge;
    }
    front_bottom
    {
        type            wedge;
    }
    back_top
    {
        type            wedge;
    }
    back_middle
    {
        type            wedge;
    }
    back_bottom
    {
        type            wedge;
    }
    axis_top
    {
        type            symmetryPlane;
    }
    axis_middle
    {
        type            symmetryPlane;
    }
    axis_bottom
    {
        type            symmetryPlane;
    }
    wall_top
    {
        type            calculated;
        value           nonuniform List<scalar> 
24
(
246.5454945
238.1963257
230.3071434
222.8381822
215.7663395
209.0643801
202.7060446
196.6768016
190.9482153
185.5024493
180.3258461
175.3976586
170.7037734
166.2316363
161.965523
157.8935064
154.006475
150.2907142
146.7360661
143.3380652
140.0835638
136.9649572
133.9772496
131.1133609
)
;
    }
    wall_middle
    {
        type            calculated;
        value           nonuniform 0();
    }
    wall_bottom
    {
        type            calculated;
        value           nonuniform 0();
    }
    inlet
    {
        type            calculated;
        value           nonuniform 0();
    }
    outlet
    {
        type            calculated;
        value           nonuniform 0();
    }
    procBoundary8to7
    {
        type            processor;
        value           nonuniform List<scalar> 
51
(
910.1319624
906.8451913
900.3633533
890.4941323
877.8792638
862.7493943
845.3845832
826.097141
805.1826403
782.9054879
759.521429
735.3005975
710.4603089
685.213271
659.7828066
634.3121545
608.9920638
583.9321643
559.2776433
535.1121293
511.5404544
488.6146886
466.4100935
444.9483855
424.2829641
404.412628
385.3699227
367.1392036
349.7274789
333.1201387
317.3025338
302.2611503
287.9653629
274.4038227
261.5363101
249.3462021
249.3462021
231.9803388
221.3716308
211.3359543
201.837744
192.8550914
184.3583185
176.3227204
168.7241957
161.5363948
154.7391134
148.3064263
142.2224833
136.4644631
131.0053008
)
;
    }
    procBoundary8to9
    {
        type            processor;
        value           nonuniform List<scalar> 
51
(
2123.708813
2116.53609
2024.827831
2024.827831
2004.570426
1978.624957
1947.370969
1911.355165
1871.12026
1827.146732
1779.964156
1730.07418
1677.907464
1624.004036
1568.707286
1512.498955
1455.676427
1398.671505
1341.731331
1285.213449
1229.333044
1174.348817
1120.483218
1067.881691
1016.741954
967.1513617
919.2214125
873.0527206
828.6684812
786.1264202
745.4433935
706.6055314
669.6244653
634.4590438
601.0669179
569.4303881
539.4754763
511.1463408
484.3999264
459.1498233
435.3385505
412.9007693
391.7576496
371.8565117
353.1194727
335.4807393
318.8864225
303.262789
288.5653482
274.7402867
261.6766844
)
;
    }
}


// ************************************************************************* //
