/*--------------------------------*- C++ -*----------------------------------*\
  =========                 |
  \\      /  F ield         | OpenFOAM: The Open Source CFD Toolbox
   \\    /   O peration     | Website:  https://openfoam.org
    \\  /    A nd           | Version:  7
     \\/     M anipulation  |
\*---------------------------------------------------------------------------*/
FoamFile
{
    version     2.0;
    format      ascii;
    class       volVectorField;
    location    "0.0015";
    object      grad(generalizedNewtonian:nu);
}
// * * * * * * * * * * * * * * * * * * * * * * * * * * * * * * * * * * * * * //

dimensions      [0 1 -1 0 0 0 0];

internalField   nonuniform List<vector> 
1166
(
(-209477.9725 0 1226833.386)
(-437174.8344 0 1223197.195)
(-202755.8063 3.091326197e-07 1193571.634)
(-424902.5905 0 1189825.096)
(-688027.18 0 1183926.96)
(-955886.9388 -4.783784015e-08 1174066.906)
(-1197905.126 -3.825549727e-08 1161732.138)
(-1430978.685 0 1146502.779)
(-1651000.575 2.799936073e-08 1128657.749)
(-1854830.242 -2.49501226e-08 1108831.107)
(-2042787.493 0 1087039.962)
(-2214884.573 2.082238729e-08 1063009.536)
(-2369610.821 0 1037554.83)
(-2508319.97 0 1010340.593)
(-2629549.353 0 982224.4232)
(-2734286.835 0 952921.112)
(-2822239.709 0 922857.0447)
(-2893875.794 0 891911.2548)
(-2949896.956 -7.27474002e-09 860555.2292)
(-2990509.888 -7.050614076e-09 828654.6528)
(-3017170.927 0 796687.1899)
(-3029244.096 0 764387.1531)
(-3029068.026 -6.536246209e-09 732247.1552)
(-3016342.177 0 700237.0821)
(-2992729.653 0 668576.5334)
(-2959741.045 0 637435.5825)
(-2916898.808 0 606766.5091)
(-2866793.458 0 576837.7134)
(-2809417.398 0 547621.9826)
(-2745886.117 0 519262.8774)
(-2678349.384 0 491857.7745)
(-2605799.239 0 465375.1242)
(-2530269.028 0 439925.9254)
(-2453300.737 0 415563.6617)
(-2373851.356 0 392236.3419)
(-2293753.712 0 369975.6159)
(-2213621.075 0 348794.748)
(-2133255.632 -1.419748872e-09 328685.2882)
(-2054101.34 -1.418652116e-09 309607.6114)
(-1975831.565 0 291584.9108)
(-1898952.752 0 274569.1834)
(-1824436.248 0 258506.7037)
(-1751315.321 0 243388.6301)
(-1680531.169 0 229159.3382)
(-1612408.768 0 215772.2382)
(-1546424.726 0 203228.7678)
(-1483314.205 -7.213854307e-10 191423.599)
(-1422403.163 7.246602762e-10 180376.1872)
(-1363975.343 -7.282813645e-10 170007.6534)
(-1307782.141 7.322386616e-10 160258.17)
(-1256129.249 7.365233097e-10 151167.1921)
(-1217275.767 0 142560.7834)
(-195445.1381 -3.139469288e-07 1161924.352)
(-411222.3473 0 1158282.183)
(-666454.7841 0 1152422.581)
(-927025.0432 -4.858284776e-08 1142548.008)
(-1162473.757 3.885127326e-08 1130175.244)
(-1387023.074 0 1115160.793)
(-1598691.104 0 1097774.068)
(-1796854.263 0 1077747.117)
(-1978053.447 -2.298746896e-08 1055958.485)
(-2143144.384 2.114666692e-08 1032501.131)
(-2292874.319 0 1007220.51)
(-2425531.07 0 980795.5496)
(-2542268.763 0 952902.9967)
(-2642096.446 0 924169.6787)
(-2725771.405 0 894334.3048)
(-2793603.384 7.650774805e-09 863984.1491)
(-2846051.919 0 832963.0818)
(-2884115.521 0 801738.4998)
(-2907459.877 0 770097.6347)
(-2918040.736 0 738498.7937)
(-2915752.394 0 706943.9624)
(-2902262.654 0 675654.7076)
(-2878353.056 0 644745.2511)
(-2844332.587 0 614250.7196)
(-2802648.76 0 584411.6523)
(-2752609.915 0 555230.8038)
(-2696202.998 0 526843.4257)
(-2634970.094 0 499355.7217)
(-2568280.201 2.970901372e-09 472750.4096)
(-2498376.219 0 447122.1405)
(-2425692.744 0 422554.1996)
(-2350474.75 -2.916296665e-09 399000.8319)
(-2274464.337 0 376471.6013)
(-2197163.493 0 355029.1882)
(-2119637.893 0 334637.2447)
(-2043108.882 1.441859479e-09 315266.418)
(-1966727.106 0 296951.918)
(-1891767.888 0 279639.1486)
(-1818564.286 0 263286.1286)
(-1746691.666 0 247891.2129)
(-1677167.406 0 233356.1701)
(-1609472.448 0 219737.1407)
(-1544099.311 -1.454140112e-09 206939.4172)
(-1481467.618 -7.296571404e-10 194888.2347)
(-1420871.148 0 183613.4233)
(-1363001.626 0 172999.5683)
(-1307173.487 -7.396233304e-10 163082.7493)
(-1253356.997 -7.436422569e-10 153784.9668)
(-1204278.357 0 145054.2305)
(-1167233.309 -7.526694223e-10 136854.3989)
(-189309.6565 -3.188362179e-07 1130032.489)
(-399652.6432 0 1126542.583)
(-646796.8194 0 1121100.691)
(-897961.8938 0 1111635.09)
(-1125563.556 3.945632809e-08 1099299.732)
(-1344028.78 0 1084072.912)
(-1548799.125 0 1066734.335)
(-1738709.146 -2.573330092e-08 1047247.743)
(-1914827.172 0 1025528.531)
(-2074465.382 0 1002321.79)
(-2217957.833 0 977643.7806)
(-2345979.489 -9.37623873e-09 951400.0562)
(-2457212.119 8.868283111e-09 924096.0225)
(-2552658.711 1.688329779e-08 895553.5502)
(-2632144.247 0 866344.6874)
(-2696370.666 0 836361.9965)
(-2745842.159 0 806018.2717)
(-2780527.854 7.271931148e-09 775159.9314)
(-2801984.991 0 744211.8048)
(-2810304.948 0 713212.5183)
(-2807101.954 0 682411.0579)
(-2792523.307 0 651796.5921)
(-2767610.494 0 621562.2341)
(-2734377.679 0 591888.3505)
(-2692295.348 0 562809.5982)
(-2643581.656 0 534458.766)
(-2588686.778 0 506922.8497)
(-2528174.557 0 480233.9519)
(-2464148.396 0 454460.6555)
(-2396081.992 2.995283452e-09 429709.7973)
(-2325430.73 0 405953.6391)
(-2253429.564 0 383181.7575)
(-2179552.766 2.949501349e-09 361481.6656)
(-2105407.001 1.47001948e-09 340802.7584)
(-2031216.485 1.466568578e-09 321159.3328)
(-1957133.357 0 302555.6415)
(-1884446.037 -1.463183263e-09 284918.7411)
(-1812492.194 -1.463109703e-09 268309.3713)
(-1742020.394 -1.464035756e-09 252632.7357)
(-1673685.961 0 237811.3334)
(-1606846.482 0 223917.0458)
(-1542412.55 0 210828.2515)
(-1480029.745 0 198565.2999)
(-1419824.543 7.410205409e-10 187052.5409)
(-1362261.876 0 176207.8614)
(-1306727.851 -7.474071873e-10 166077.4937)
(-1253666.333 0 156541.5176)
(-1202325.48 7.552234563e-10 147652.2829)
(-1155228.776 0 139327.7448)
(-1119582.662 0 131442.2224)
(-182770.3716 0 1099171.718)
(-387930.2955 0 1095598.296)
(-627923.6629 0 1089892.746)
(-871008.0803 0 1080251.377)
(-1090711.383 0 1067968.102)
(-1301027.636 0 1053304.398)
(-1499720.855 0 1036153.437)
(-1684084.229 0 1016854.378)
(-1852968.782 0 995786.1696)
(-2007347.308 0 972867.3891)
(-2145755.223 0 948402.6784)
(-2267997.594 0 922626.0839)
(-2374865.188 0 895519.9794)
(-2465789.985 0 867594.4319)
(-2541654.953 0 838790.8273)
(-2602461.198 1.578186202e-08 809454.9633)
(-2648473.167 0 779497.5113)
(-2680853.935 0 749310.1156)
(-2699901.447 0 718969.2522)
(-2707080.703 0 688699.4919)
(-2702157.384 -6.846405767e-09 658523.185)
(-2686662.019 0 628632.3993)
(-2662084.279 0 599198.9246)
(-2628247.493 0 570288.8627)
(-2587441.761 0 542019.426)
(-2539245.861 0 514499.8905)
(-2485284.882 0 487772.9862)
(-2427051.107 0 461891.5082)
(-2364282.927 0 436992.2415)
(-2298820.712 0 413034.9384)
(-2230663.2 0 390075.7565)
(-2160563.356 0 368134.6853)
(-2090063.814 0 347180.7811)
(-2018408.452 0 327284.0429)
(-1946889.89 0 308396.409)
(-1876322.84 0 290464.6301)
(-1806159.98 0 273562.1783)
(-1737527.595 0 257564.9224)
(-1670109.508 0 242505.519)
(-1604289.634 0 228329.2056)
(-1540819.892 0 214960.9557)
(-1478958.97 0 202446.0567)
(-1419387.03 0 190665.5686)
(-1361974.022 0 179613.0276)
(-1306661.241 0 169260.0167)
(-1253885.946 0 159507.5569)
(-1203024.417 0 150415.3969)
(-1154214.141 0 141860.4035)
(-1109145.274 0 133892.0111)
(-1074903.116 0 126360.2964)
(-176525.171 0 1068213.295)
(-375779.5652 0 1064824.233)
(-607822.1513 0 1059139.987)
(-842579.4212 0 1049619.771)
(-1056578.936 0 1037356.566)
(-1261206.49 0 1022824.547)
(-1452329.12 0 1006026.436)
(-1630006.91 0 987179.0875)
(-1794172.406 0 966269.3445)
(-1942137.089 0 943751.9307)
(-2075064.321 0 919680.6309)
(-2192750.14 0 894163.3041)
(-2294822.274 0 867669.1078)
(-2382102.389 0 840178.2648)
(-2454094.806 0 811973.093)
(-2511362.701 0 783031.7178)
(-2554670.888 0 753717.2358)
(-2584520.352 0 724143.8611)
(-2602022.253 0 694508.5941)
(-2607133.65 0 664868.257)
(-2601404.636 0 635413.4101)
(-2585546.621 0 606287.1893)
(-2560228.715 0 577615.0926)
(-2527296.188 0 549488.4455)
(-2486456.058 0 522043.3663)
(-2439653.944 0 495305.938)
(-2387185.192 0 469390.7388)
(-2330022.823 0 444378.5654)
(-2269894.884 0 420272.6822)
(-2206034.715 0 397134.0146)
(-2140123.012 -3.070336482e-09 374971.6356)
(-2073047.477 0 353771.6632)
(-2004542.584 0 333615.0894)
(-1936106.071 0 314406.7012)
(-1867455.996 0 296243.3263)
(-1799293.825 0 279048.1656)
(-1732545.017 1.509112245e-09 262755.5811)
(-1666404.879 0 247419.2722)
(-1601902.293 0 232936.8687)
(-1539173.529 0 219316.3647)
(-1478074.592 0 206535.9352)
(-1419248.457 0 194477.7745)
(-1362098.468 0 183206.0625)
(-1307181.392 0 172602.2)
(-1254454.952 0 162653.6005)
(-1203785.509 -7.708681248e-10 153352.6186)
(-1155435.864 0 144593.1767)
(-1108623.586 0 136433.7457)
(-1065660.026 0 128748.8335)
(-1032756.137 0 121551.5948)
(-170829.2736 0 1037383.207)
(-364834.814 0 1034051.225)
(-589897.4402 0 1028493.561)
(-816765.7977 0 1019276.513)
(-1023186.459 0 1007522.317)
(-1220777.034 0 993254.5052)
(-1406832.487 0 976586.2845)
(-1578607.415 -2.69544034e-08 957974.7418)
(-1735723.447 0 937441.9291)
(-1879226.445 0 915096.7207)
(-2006856.884 0 891388.4809)
(-2119640.734 0 866465.383)
(-2217980.587 0 840417.9774)
(-2300925.527 0 813461.9763)
(-2369311.621 0 785652.4334)
(-2423494.136 0 757324.8532)
(-2464165.848 0 728629.2077)
(-2492061.999 0 699730.6865)
(-2507342.612 0 670723.0234)
(-2511494.366 7.222339244e-09 641774.3035)
(-2504629.393 7.061312677e-09 613060.2443)
(-2488108.914 0 584706.4156)
(-2463281.346 0 556794.0439)
(-2430088.683 0 529488.4788)
(-2390582.872 0 502815.1008)
(-2344350.771 0 476903.9647)
(-2293226.321 0 451821.9036)
(-2238312.395 0 427603.594)
(-2179334.087 0 404317.534)
(-2118127.244 0 381912.0984)
(-2054438.938 0 360544.0666)
(-1989333.952 0 340144.5918)
(-1923990.343 0 320667.2515)
(-1857784.283 0 302229.9079)
(-1792046.715 0 284717.9391)
(-1726896.999 0 268174.6194)
(-1662379.484 0 252556.6715)
(-1599407.228 0 237756.4468)
(-1537484.794 0 223888.5017)
(-1477349.655 0 210825.2031)
(-1419127.387 0 198516.64)
(-1362513.436 0 186994.0443)
(-1308130.184 0 176122.2062)
(-1255475.901 0 165977.4506)
(-1205035.098 0 156437.1811)
(-1156729.923 0 147500.0308)
(-1110301.76 0 139147.8773)
(-1065731.659 0 131271.377)
(-1024472.705 0 123944.8018)
(-993025.0753 0 116995.0853)
(-164970.5891 0 1007555.325)
(-353520.8863 0 1004289.049)
(-571479.1386 0 998789.5317)
(-791202.5594 0 989710.3982)
(-991936.1918 0 978009.7644)
(-1183127.277 0 963979.8627)
(-1361826.452 0 947673.8253)
(-1527778.3 0 929264.7141)
(-1680138.193 0 908953.2905)
(-1817458.16 0 887132.1256)
(-1940958.193 -1.062547844e-08 863881.0793)
(-2049568.099 0 839402.6302)
(-2143167.253 -9.433767976e-09 813814.3351)
(-2222462.279 0 787258.2422)
(-2287408.241 0 760038.9316)
(-2338867.509 0 732338.8531)
(-2377178.264 0 704286.9369)
(-2402713.739 0 676017.4739)
(-2416634.191 7.521649285e-09 647673.7077)
(-2419224.751 0 619465.9159)
(-2411930.707 0 591480.251)
(-2395212.92 0 563897.8897)
(-2369936.639 3.45107832e-09 536798.8067)
(-2337756.421 0 510248.0963)
(-2298347.901 -3.347637325e-09 484394.3221)
(-2253793.031 0 459239.7901)
(-2204105.882 0 435002.9591)
(-2150298.466 0 411607.9079)
(-2093754.557 3.209558425e-09 389032.844)
(-2034124.08 0 367468.5114)
(-1972988.932 0 346797.2482)
(-1910461.087 -1.575283619e-09 327126.6245)
(-1847057.736 0 308424.1951)
(-1783953.844 0 290606.3257)
(-1720608.348 0 273806.5772)
(-1657998.439 0 257894.4498)
(-1596374.65 0 242821.7995)
(-1535663.048 0 228666.3663)
(-1476753.573 0 215284.7991)
(-1419045.345 0 202760.4376)
(-1363119.942 7.811683971e-10 190968.7434)
(-1309174.001 0 179856.9084)
(-1256859.043 0 169473.8156)
(-1206740.188 0 159678.5092)
(-1158398.736 0 150557.5846)
(-1112211.489 0 141975.8674)
(-1067849.504 0 133943.5985)
(-1025034.074 0 126429.5816)
(-985671.5099 0 119350.7456)
(-955647.57 0 112728.4999)
(-159670.7059 0 978063.6725)
(-343195.1703 0 974881.7291)
(-554581.0223 7.258580035e-08 969426.8938)
(-766607.5013 0 960471.1493)
(-960297.2493 0 948993.3615)
(-1145420.443 0 935102.8015)
(-1319102.342 0 918953.9239)
(-1479024.348 0 900894.8237)
(-1625436.762 0 881111.9534)
(-1759047.191 0 859740.6529)
(-1877252.715 -1.079095553e-08 836974.5624)
(-1981163.467 0 812884.1952)
(-2071058.745 -9.580685828e-09 787710.1032)
(-2146591.247 0 761729.6361)
(-2208740.169 0 735150.7047)
(-2257430.761 0 708061.0789)
(-2293258.265 0 680640.2891)
(-2317037.869 0 653004.6631)
(-2329232.183 0 625400.5659)
(-2331173.644 0 597892.9083)
(-2322969.628 0 570700.198)
(-2305981.776 0 543880.6826)
(-2281216.553 0 517539.8345)
(-2248914.171 0 491807.6878)
(-2210898.384 3.399772133e-09 466683.5346)
(-2167101.999 0 442420.7556)
(-2119060.082 0 418905.7485)
(-2067044.383 0 396258.6556)
(-2011806.024 0 374525.4094)
(-1954785.049 0 353636.5957)
(-1895490.077 0 333754.4803)
(-1835290.325 0 314777.3411)
(-1774607.324 1.593219647e-09 296719.5752)
(-1713530.445 0 279639.3419)
(-1653150.273 0 263400.6065)
(-1592850.874 0 248107.0932)
(-1533558.026 0 233655.5697)
(-1475735.739 1.580643539e-09 219997.6893)
(-1418956.864 0 207200.3615)
(-1363987.12 0 195098.1524)
(-1310332.83 0 183790.1517)
(-1258492.108 0 173147.0407)
(-1208625.785 -7.977094165e-10 163130.3853)
(-1160447.062 0 153783.7688)
(-1114414.857 0 144967.9249)
(-1070081.358 0 136763.2126)
(-1027691.227 0 129024.3228)
(-986718.3938 0 121805.6025)
(-948893.1146 0 115041.4365)
(-919934.427 0 108650.1504)
(-154271.7299 0 948965.1779)
(-332504.9796 0 945836.4823)
(-537132.5229 0 940405.0758)
(-742651.7368 -5.413309213e-08 931573.4565)
(-930841.1385 0 920253.5068)
(-1109635.503 0 906650.5032)
(-1276741.015 0 890946.9816)
(-1431966.816 0 873312.8369)
(-1574032.376 0 853948.548)
(-1701594.384 0 832963.1174)
(-1815663.675 0 810529.0644)
(-1915392.267 0 786868.9952)
(-2001260.018 -9.729891698e-09 762266.9878)
(-2073929.911 0 736941.1142)
(-2132898.941 -8.864642256e-09 710934.2732)
(-2178993.749 0 684476.7088)
(-2212668.104 -8.232064208e-09 657655.7517)
(-2234565.315 0 630756.0726)
(-2245711.995 0 603819.1913)
(-2246400.2 7.565055458e-09 577101.1225)
(-2238059.759 0 550589.0822)
(-2220863.195 3.624261772e-09 524574.0665)
(-2195945.636 0 499044.6934)
(-2164616.393 0 474020.7235)
(-2127062.95 0 449790.2194)
(-2084947.849 0 426233.0979)
(-2037905.853 0 403531.4932)
(-1987503.534 0 381640.608)
(-1934448.392 0 360611.095)
(-1878881.82 -1.643146888e-09 340527.1184)
(-1822221.857 0 321270.0599)
(-1764064.815 0 303020.5388)
(-1705548.108 0 285661.1173)
(-1647224.438 -1.61284097e-09 269160.3214)
(-1588785.181 0 253593.8863)
(-1531291.126 0 238798.8813)
(-1474372.799 0 224934.2424)
(-1418685.658 0 211853.8302)
(-1364563.506 0 199486.8071)
(-1311588.897 0 187918.5858)
(-1260450.414 0 176979.2834)
(-1210719.261 0 166778.0855)
(-1162849.121 -8.101326323e-10 157177.1743)
(-1116885.689 0 148166.9432)
(-1072615.346 0 139756.8357)
(-1030329.014 0 131810.9106)
(-989588.4195 0 124421.0725)
(-950488.4844 0 117443.6644)
(-914208.3994 0 110963.8576)
(-886389.2777 4.193282718e-10 104823.4949)
(-149308.0999 3.552609828e-07 920199.0572)
(-322654.3401 0 917166.3776)
(-521112.0739 0 911834.4778)
(-719459.5228 0 903237.2373)
(-901229.1604 0 892271.3619)
(-1074844.182 0 879022.1918)
(-1237422.723 0 863689.6037)
(-1386777.647 0 846397.1771)
(-1523014.599 1.300626008e-08 827304.8909)
(-1646794.333 0 806655.3971)
(-1755896.228 0 784631.5783)
(-1851747.913 0 761544.0935)
(-1934676.356 0 737605.0675)
(-2003746.411 -9.406047099e-09 712805.4504)
(-2060015.973 0 687432.7622)
(-2103562.143 0 661542.8505)
(-2135211.714 0 635460.1664)
(-2155664.639 0 609199.691)
(-2165393.186 0 583056.593)
(-2165559.868 -7.682870678e-09 556994.7131)
(-2156486.391 7.511576276e-09 531335.7436)
(-2139526.935 -3.68070461e-09 505976.5962)
(-2114880.398 0 481209.4416)
(-2083819.583 0 457074.3833)
(-2047682.953 0 433548.5258)
(-2006148.455 0 410820.043)
(-1960967.349 3.423816251e-09 388775.3582)
(-1912013.591 1.695250383e-09 367676.8489)
(-1860510.863 0 347412.0762)
(-1807266.908 0 327959.0858)
(-1752217.435 0 309479.9611)
(-1696688.822 0 291802.4748)
(-1640324.428 0 275118.4136)
(-1583970.548 1.637958726e-09 259279.3417)
(-1528152.742 0 244209.5204)
(-1472650.944 0 230060.7669)
(-1418406.323 0 216643.2699)
(-1364927.831 -1.630259556e-09 204083.1153)
(-1312778.98 -8.156457019e-10 192236.7297)
(-1262245.116 0 181051.4402)
(-1212980.295 0 170601.4261)
(-1165572.578 0 160721.8934)
(-1119647.499 8.227493216e-10 151530.1202)
(-1075594.378 0 142871.7159)
(-1033233.413 0 134763.2548)
(-992538.2674 0 127178.0994)
(-953663.7576 0 120018.5484)
(-916080.9482 0 113364.684)
(-881388.5968 8.464263497e-10 107077.6788)
(-854741.1497 0 101215.7196)
(-144384.076 1.803968433e-07 892335.4842)
(-312726.9888 0 889410.4864)
(-504976.4454 0 884199.3606)
(-697588.5556 -2.791615897e-08 875807.5259)
(-874297.0176 -2.23243052e-08 865110.1818)
(-1041848.175 0 852102.5224)
(-1198046.599 0 836969.8465)
(-1342635.102 0 819896.4861)
(-1474686.93 1.320881479e-08 801184.8084)
(-1592979.812 0 780970.8271)
(-1698722.975 0 759496.5735)
(-1791221.502 0 737049.835)
(-1870161.959 0 713573.4542)
(-1936459.061 -9.552533416e-09 689406.4379)
(-1989805.049 0 664567.196)
(-2031209.683 0 639419.0769)
(-2061025.748 0 613948.2443)
(-2079909.844 -8.228885868e-09 588482.4254)
(-2088730.907 0 562966.4551)
(-2087968.368 0 537754.156)
(-2078820.233 0 512734.0676)
(-2061481.089 0 488219.6581)
(-2037521.807 0 464137.6563)
(-2007294.947 0 440789.2507)
(-1971524.667 0 418092.5566)
(-1931534.814 0 395996.0476)
(-1887313.226 0 374799.6222)
(-1840388.327 1.721651589e-09 354312.1723)
(-1790518.686 0 334775.8826)
(-1738846.282 -1.694724906e-09 316084.4896)
(-1686205.931 0 298178.1209)
(-1632382.913 0 281241.1263)
(-1578548.429 0 265070.5795)
(-1524246.018 0 249825.7108)
(-1470354.65 0 235385.079)
(-1417433.986 0 221698.8369)
(-1365067.784 8.278659293e-10 208866.0457)
(-1314043.701 0 196693.8041)
(-1263949.742 0 185320.9203)
(-1215301.919 -1.658817302e-09 174593.9094)
(-1168255.01 0 164493.1783)
(-1122611.059 0 155063.1617)
(-1078815.835 0 146150.4476)
(-1036466.402 0 137863.5345)
(-995923.2476 0 130035.2286)
(-956907.8521 -8.457627438e-10 122736.8599)
(-919515.8829 0 115884.1641)
(-883593.59 4.273038e-10 109444.5094)
(-850228.7038 8.596082823e-10 103451.4994)
(-824569.5297 0 97756.82366)
(-139914.549 0 865204.4291)
(-303683.2482 0 862351.231)
(-490181.7652 0 857196.4644)
(-676169.9373 2.835091416e-08 848944.0914)
(-846736.0365 -2.267197507e-08 838319.042)
(-1009127.153 0 825439.0188)
(-1160911.618 0 810601.5572)
(-1300275.699 0 793877.317)
(-1427217.402 -1.341452363e-08 775592.0168)
(-1542305.747 0 756001.8537)
(-1643795.068 0 735091.4636)
(-1732342.33 0 713074.5232)
(-1808496.022 0 690245.9711)
(-1871523.537 0 666586.0016)
(-1922633.593 0 642494.9005)
(-1961823.746 0 617931.9194)
(-1989920.944 0 593253.4371)
(-2007497.77 8.357039271e-09 568389.2048)
(-2015210.76 -8.125874728e-09 543718.888)
(-2014028.784 3.962017122e-09 519128.934)
(-2004268.239 0 494947.495)
(-1987362.985 3.796241092e-09 471076.6196)
(-1963589.965 0 447888.155)
(-1934171.762 0 425179.2189)
(-1899349.333 3.616558086e-09 403186.3286)
(-1860104.102 0 381946.957)
(-1817679.347 0 361359.8225)
(-1771859.548 -1.748463908e-09 341682.6057)
(-1724110.585 0 322715.7973)
(-1674213.501 0 304709.0827)
(-1623170.781 0 287527.07)
(-1571740.082 0 271117.123)
(-1519542.469 -1.694811055e-09 255619.4846)
(-1467676.538 0 240831.6635)
(-1415881.91 0 226963.9438)
(-1364813.514 0 213840.0964)
(-1314792.022 8.407587848e-10 201417.2395)
(-1265537.143 8.407165167e-10 189780.5258)
(-1217718.424 0 178744.6602)
(-1170965.643 0 168455.7957)
(-1125776.564 0 158747.4268)
(-1082117.154 0 149644.3703)
(-1039928.343 0 141138.8282)
(-999480.4204 0 133087.4465)
(-960448.1907 0 125606.7142)
(-923157.511 0 118530.0717)
(-887261.7735 0 111960.8241)
(-852806.1111 -4.339584599e-10 105760.6796)
(-820773.1807 -4.364977403e-10 99978.36003)
(-796056.3238 -4.392263353e-10 94520.92241)
(-135365.6066 0 838244.4898)
(-294328.7807 0 835421.0797)
(-474982.9604 0 830276.1352)
(-655413.5048 0 822138.8635)
(-821079.0447 0 811809.5685)
(-978120.7017 0 799241.217)
(-1124231.244 0 784756.1331)
(-1259312.976 0 768509.0547)
(-1382902.903 0 750819.5084)
(-1493027.393 0 731607.2467)
(-1590824.806 0 711177.6636)
(-1676412.912 0 689815.4985)
(-1748919.743 1.035031684e-08 667449.8098)
(-1809610.981 0 644524.7658)
(-1858125.852 0 620972.217)
(-1895456.65 0 597184.152)
(-1921863.082 0 573069.051)
(-1938175.152 0 549058.7355)
(-1945112.409 -4.126212002e-09 525008.9837)
(-1943119.686 0 501271.0936)
(-1933403.321 0 477720.1584)
(-1916411.879 0 454761.8305)
(-1893347.621 0 432182.8515)
(-1864246.592 0 410293.0075)
(-1830569.945 0 388951.2654)
(-1792580.106 0 368418.054)
(-1751048.16 0 348648.4956)
(-1707120.984 0 329533.1574)
(-1660629.324 0 311349.4502)
(-1612883.942 0 293862.5732)
(-1563685.89 0 277330.8109)
(-1513826.275 0 261575.9177)
(-1463879.202 0 246545.4305)
(-1413720.515 0 232407.2725)
(-1364271.088 0 218947.9758)
(-1315132.059 0 206340.6871)
(-1266913.609 0 194408.1564)
(-1219789.166 0 183146.6368)
(-1173640.521 0 172602.9627)
(-1129005.494 0 162606.9647)
(-1085547.442 0 153309.8075)
(-1043732.681 0 144526.4927)
(-1003239.809 0 136321.2413)
(-964242.2388 0 128618.043)
(-926942.5894 0 121363.9565)
(-891036.3071 0 114614.4864)
(-856703.3922 0 108219.3752)
(-823544.9784 0 102293.0141)
(-792833.6529 0 96677.86881)
(-769108.6346 0 91451.13798)
(-131124.1133 0 811592.6413)
(-285636.5331 6.457335601e-08 808884.8245)
(-460933.4771 0 803854.3156)
(-635571.3287 0 795955.1064)
(-795692.8987 2.338364287e-08 785862.9983)
(-947886.1254 0 773700.4696)
(-1090131.87 0 759758.5575)
(-1220745.821 0 744010.0463)
(-1339155.961 0 726667.2047)
(-1445973.527 0 707920.0678)
(-1540370.677 0 688054.3908)
(-1622102.213 1.111358449e-08 667079.9719)
(-1692203.565 0 645420.9299)
(-1749939.9 0 622973.2405)
(-1796488.986 0 600162.5175)
(-1831770.802 4.604816542e-09 576908.5404)
(-1856832.457 0 553600.8436)
(-1872072.451 4.309682355e-09 530237.1925)
(-1878040.501 0 507010.6887)
(-1875717.84 0 483913.0641)
(-1865701.716 0 461293.7515)
(-1849114.753 0 438963.757)
(-1826064.428 0 417240.7008)
(-1797935.938 -3.783895126e-09 395939.7862)
(-1764919.555 0 375437.5872)
(-1728277.115 0 355500.3894)
(-1688080.215 0 336395.9792)
(-1645224.409 -1.803347766e-09 318066.3129)
(-1600699.723 1.78811377e-09 300403.2153)
(-1554319.851 0 283664.694)
(-1507222.192 -1.764244037e-09 267600.8256)
(-1459092.936 0 252432.1174)
(-1410812.899 0 238001.2829)
(-1362846.754 -1.742402915e-09 224313.2188)
(-1315015.995 0 211443.0727)
(-1268052.077 0 199189.7022)
(-1221612.066 1.734299999e-09 187735.78)
(-1176290.264 0 176889.077)
(-1132053.374 0 166696.8858)
(-1088995.604 0 157153.722)
(-1047497.02 0 148112.8427)
(-1007184.625 0 139710.2198)
(-968431.7249 0 131744.0594)
(-930986.6644 8.783260141e-10 124346.9088)
(-895118.4567 0 117369.939)
(-860668.3551 0 110837.058)
(-827590.8537 0 104724.2799)
(-795847.1841 0 98962.71033)
(-766264.5245 0 93608.30968)
(-743413.6198 0 88509.42835)
(-127065.174 -1.918998201e-07 785689.3194)
(-277048.5129 0 783123.151)
(-446967.9035 0 778212.4077)
(-616455.204 5.939245707e-08 770530.647)
(-772235.4862 0 760808.2942)
(-919932.4767 0 748989.4551)
(-1056898.111 0 735239.9848)
(-1182943.175 0 719861.9638)
(-1298092.022 0 703079.3323)
(-1400644.464 0 684782.2756)
(-1491295.187 0 665356.6539)
(-1570596.057 0 645121.1094)
(-1637390.295 0 623923.9697)
(-1693047.172 0 602208.0127)
(-1737249.589 0 579969.1529)
(-1771001.193 0 557465.1273)
(-1794763.026 0 534916.8372)
(-1808918.345 4.376799752e-09 512202.0558)
(-1814167.729 -4.255732843e-09 489690.0429)
(-1811478.192 0 467367.135)
(-1801515.283 -4.057496337e-09 445430.076)
(-1784740.701 0 423927.7349)
(-1762309.563 0 402788.4278)
(-1734553.61 3.842824107e-09 382365.8358)
(-1702722.087 0 362414.9327)
(-1666843.977 0 343279.6787)
(-1628209.645 0 324721.1568)
(-1586774.521 0 307036.5793)
(-1543454.881 0 290090.698)
(-1499029.358 -1.802788778e-09 273849.1175)
(-1453254.549 0 258465.6786)
(-1407183.124 0 243712.8939)
(-1360659.324 0 229858.6296)
(-1314399.324 0 216683.3495)
(-1268528.47 0 204223.32)
(-1223098.622 0 192510.6485)
(-1178694.83 8.806546724e-10 181362.7325)
(-1134996.27 0 170966.0742)
(-1092601.665 0 161111.4768)
(-1051245.097 0 151906.9272)
(-1011195.279 0 143254.21)
(-972631.3933 0 135091.6481)
(-935258.5786 0 127487.8396)
(-899428.988 -8.920047381e-10 120280.7705)
(-864879.9137 -8.956268319e-10 113597.447)
(-831846.9779 0 107263.5117)
(-800071.314 0 101384.8608)
(-769535.2833 0 95834.72076)
(-741076.0042 0 90648.54955)
(-719054.1037 -4.600686088e-10 85759.82804)
(-123376.963 0 760543.7094)
(-269151.8268 0 758105.7101)
(-434066.2514 4.106888863e-08 753347.636)
(-598476.019 0 745909.2665)
(-749135.8333 0 736330.1485)
(-891758.3762 0 724831.8816)
(-1025102.033 0 711422.1309)
(-1147664.872 0 696511.1267)
(-1257980.21 0 679947.4003)
(-1357099.855 0 662210.6055)
(-1445207.795 0 643557.1495)
(-1520824.491 0 623757.7748)
(-1585369.273 0 603293.069)
(-1638458.851 0 582195.9385)
(-1680889.658 0 560647.4911)
(-1713195.498 0 539015.7734)
(-1735450.355 0 516991.3772)
(-1748527.456 0 495108.2503)
(-1753253.9 0 473165.5881)
(-1750221.141 0 451662.5665)
(-1740212.243 0 430303.0282)
(-1723598.671 0 409461.1756)
(-1701443.858 0 389089.2913)
(-1674575.424 0 369258.8488)
(-1643265.889 0 350132.442)
(-1608724.726 0 331505.2021)
(-1570983.632 -1.878230616e-09 313730.2225)
(-1531217.474 0 296524.8374)
(-1489377.988 0 280218.4843)
(-1446252.338 0 264590.3015)
(-1402282.318 0 249662.0347)
(-1357620.011 -1.810345394e-09 235564.4868)
(-1313112.431 0 222081.1186)
(-1268441.2 0 209434.6587)
(-1224321.459 0 197399.2749)
(-1180650.185 0 186073.6726)
(-1137703.813 0 175413.4417)
(-1095917.015 0 165296.6533)
(-1054994.226 8.948907397e-10 155872.3139)
(-1015427.903 0 146923.8886)
(-976911.1775 0 138609.9035)
(-939760.5392 0 130746.8225)
(-903888.4319 -9.026845202e-10 123381.9951)
(-869323.7466 0 116488.9611)
(-836230.0311 0 109979.0593)
(-804386.6862 0 103935.5331)
(-773920.0887 0 98195.51126)
(-744480.6446 0 92880.05146)
(-717149.1305 -4.643309592e-10 87831.92165)
(-696030.475 0 83147.96815)
(-119819.4974 1.979235112e-07 735787.3528)
(-261405.4443 0 733403.6053)
(-421352.1245 0 728886.0514)
(-580716.7855 0 721761.2267)
(-727393.8148 0 712439.4184)
(-866067.4739 0 701390.544)
(-994649.5653 0 688374.398)
(-1112504.169 0 673746.5965)
(-1219959.163 0 657727.5554)
(-1316233.552 0 640681.8506)
(-1400426.018 0 622367.5037)
(-1473699.339 0 603255.712)
(-1535500.177 0 583374.7527)
(-1586545.994 0 562926.1782)
(-1627410.303 0 542277.5016)
(-1657840.259 0 521080.3391)
(-1678842.415 0 499904.0123)
(-1691016.897 4.514186486e-09 478539.5168)
(-1695119.494 0 457514.4686)
(-1691792.487 -4.280291995e-09 436503.143)
(-1681479.339 0 415960.0348)
(-1665297.389 0 395642.0684)
(-1643602.462 0 376008.7859)
(-1617366.016 0 356805.678)
(-1586995.497 0 338259.46)
(-1553180.955 1.928916386e-09 320405.8474)
(-1516904.37 0 303109.7592)
(-1478155.46 0 286660.6832)
(-1437981.036 0 270775.6104)
(-1396204.155 1.859377902e-09 255739.551)
(-1353747.74 0 241341.3606)
(-1310830.98 0 227698.3641)
(-1267672.985 0 214808.8234)
(-1224893.849 9.125419282e-10 202484.8624)
(-1182223.246 1.820799433e-09 190952.4086)
(-1140339.304 0 179963.3871)
(-1099002.326 0 169688.2795)
(-1058643.227 0 159982.0833)
(-1019445.261 -9.088274202e-10 150832.3032)
(-981226.5299 0 142290.9961)
(-944330.1555 0 134170.0707)
(-908505.9536 0 126633.896)
(-874084.7265 0 119487.2246)
(-840832.9561 9.20004561e-10 112845.0751)
(-808969.7437 0 106577.7729)
(-778365.5243 0 100712.9177)
(-748957.5189 0 95215.01787)
(-720706.2505 0 90034.61361)
(-694364.8139 0 85214.69873)
(-673973.751 0 80637.84845)
(-116401.0582 0 711960.3484)
(-254409.8539 0 709610.7017)
(-409967.0303 0 705153.5681)
(-564430.2287 0 698237.3779)
(-706486.9095 0 689160.5309)
(-840514.6793 0 678184.8269)
(-965256.5569 0 665635.828)
(-1080133.943 0 651676.9253)
(-1183828.612 0 636247.6464)
(-1276313.238 0 619552.178)
(-1358139.562 0 601911.9538)
(-1428421.04 0 583312.3828)
(-1488017.432 0 564062.8257)
(-1537414.306 0 544487.6623)
(-1576047.394 0 524214.3557)
(-1605070.268 0 503824.6035)
(-1624837.64 0 483117.7085)
(-1636265.204 0 462674.2434)
(-1639805.313 0 442149.9376)
(-1635989.318 0 422014.709)
(-1625749.098 0 401986.7434)
(-1609604.896 0 382565.5488)
(-1588523.657 0 363413.4797)
(-1562760.319 0 344970.047)
(-1533415.553 0 326957.7274)
(-1500635.42 0 309713.704)
(-1465277.179 0 293091.0851)
(-1428000.188 0 277118.0318)
(-1388831.089 0 261920.507)
(-1348720.373 0 247256.141)
(-1307621.698 0 233455.5094)
(-1266363.629 0 220239.7788)
(-1224744.698 0 207782.0336)
(-1183270.384 0 195976.8886)
(-1142383.354 0 184756.2099)
(-1101840.842 0 174249.9284)
(-1062243.121 0 164232.1138)
(-1023362.07 0 154914.0253)
(-985642.9046 0 146078.3508)
(-948866.2202 0 137802.752)
(-913197.9636 0 130026.1003)
(-878872.3379 0 122686.6935)
(-845638.2352 0 115860.9645)
(-813751.9391 0 109369.9391)
(-783021.7867 0 103366.3532)
(-753611.3228 0 97658.72299)
(-725300.0236 0 92369.77859)
(-698092.681 0 87360.33711)
(-672731.5321 0 82698.81258)
(-653059.2412 0 78285.71025)
(-113049.3573 2.04136281e-07 688788.5544)
(-247095.3501 0 686481.6538)
(-398207.0609 0 681872.8578)
(-548123.8343 0 675076.2391)
(-686025.1649 0 666416.3455)
(-816777.9787 0 655858.8671)
(-938150.0464 0 643796.8296)
(-1048737.683 -1.64758583e-08 630066.6908)
(-1148997.427 0 615125.8557)
(-1239003.701 0 599140.7605)
(-1317400.69 0 581913.3594)
(-1385385.684 0 563978.8995)
(-1443231.923 0 545572.482)
(-1490043.267 0 526300.7436)
(-1527120.668 0 506811.1463)
(-1554559.292 0 486855.9107)
(-1573514.635 4.803887647e-09 467033.172)
(-1584156.515 0 447134.8249)
(-1587094.496 4.527098956e-09 427422.2425)
(-1583053.395 0 407825.5727)
(-1572691.735 0 388674.5314)
(-1556895.183 -2.114967269e-09 369770.6869)
(-1535985.036 -2.077120651e-09 351482.5458)
(-1511023.165 2.043930581e-09 333509.5326)
(-1482234.784 0 316292.3478)
(-1450641.471 0 299493.9511)
(-1416351.691 0 283515.9542)
(-1380195.114 1.948213428e-09 268082.4252)
(-1342346.739 0 253341.0978)
(-1303347.152 0 239322.4102)