/*--------------------------------*- C++ -*----------------------------------*\
  =========                 |
  \\      /  F ield         | OpenFOAM: The Open Source CFD Toolbox
   \\    /   O peration     | Website:  https://openfoam.org
    \\  /    A nd           | Version:  7
     \\/     M anipulation  |
\*---------------------------------------------------------------------------*/
FoamFile
{
    version     2.0;
    format      ascii;
    class       volScalarField;
    location    "0.0015";
    object      p;
}
// * * * * * * * * * * * * * * * * * * * * * * * * * * * * * * * * * * * * * //

dimensions      [1 -1 -2 0 0 0 0];

internalField   nonuniform List<scalar> 
1166
(
1469602.161
1468949.001
1469135.231
1468516.877
1468648.842
1468744.312
1468816.996
1468898.704
1468997.564
1469119.339
1469257.212
1469404.711
1469571.064
1469747.78
1469941.884
1470146.408
1470364.006
1470589.688
1470825.655
1471067.673
1471318.924
1471572.595
1471830.662
1472089.629
1472350.077
1472611.488
1472870.409
1473127.665
1473380.633
1473629.725
1473874.466
1474112.716
1474345.106
1474571.588
1474790.636
1475002.195
1475206.257
1475402.808
1475591.579
1475773.169
1475947.46
1476114.132
1476273.709
1476426.25
1476571.805
1476711.161
1476843.773
1476970.498
1477090.894
1477206.081
1477322.554
1477438.394
1468717.926
1468128.694
1468250.078
1468337.745
1468410.512
1468496.756
1468599.649
1468713.747
1468848.671
1468998.048
1469156.673
1469332.296
1469518.486
1469719.523
1469928.375
1470148.178
1470374.809
1470611.069
1470850.784
1471095.512
1471342.369
1471591.849
1471842.308
1472091.503
1472339.786
1472584.883
1472826.783
1473065.034
1473297.699
1473524.9
1473746.819
1473962.015
1474169.885
1474371.067
1474565.056
1474751.404
1474930.97
1475103.484
1475268.595
1475426.784
1475577.6
1475722.554
1475861.149
1475992.891
1476118.898
1476238.5
1476352.705
1476462.5
1476572.642
1476683.09
1468314.784
1467757.833
1467880.761
1467971.505
1468042.48
1468121.061
1468222.322
1468339.038
1468466.31
1468611.689
1468770.961
1468940.158
1469124.016
1469316.379
1469520.096
1469731.562
1469953.011
1470178.861
1470410.277
1470645.086
1470883.856
1471122.904
1471362.138
1471601.277
1471838.378
1472073.09
1472304.49
1472531.321
1472753.059
1472970.228
1473181.502
1473385.666
1473583.63
1473774.719
1473958.838
1474136.249
1474306.388
1474470.456
1474627.596
1474777.159
1474920.856
1475058.038
1475189.504
1475315.003
1475434.083
1475547.926
1475655.765
1475760.113
1475865.211
1475969.336
1467944.412
1467413.254
1467531.476
1467619.919
1467691.204
1467774.182
1467871.661
1467983.634
1468111.904
1468252.902
1468407.106
1468574.588
1468750.673
1468938.525
1469135.038
1469341.783
1469553.802
1469771.892
1469994.316
1470221.352
1470449.804
1470679.196
1470909.036
1471137.886
1471364.927
1471589.578
1471810.519
1472026.612
1472238.725
1472445.482
1472646.379
1472841.159
1473029.126
1473211.138
1473386.59
1473554.798
1473717.08
1473872.363
1474021.415
1474164.222
1474300.382
1474431.113
1474555.656
1474674.533
1474788.154
1474895.837
1474998.78
1475097.343
1475197.134
1475296.607
1467604.546
1467101.693
1467215.769
1467299.725
1467364.524
1467445.127
1467542.843
1467654.659
1467777.869
1467917.089
1468068.633
1468228.749
1468400.962
1468582.733
1468774.891
1468973.123
1469177.912
1469387.95
1469603.164
1469820.925
1470040.489
1470260.71
1470481.065
1470700.201
1470917.759
1471132.184
1471342.953
1471550.039
1471752.343
1471949.578
1472141.076
1472326.047
1472505.344
1472677.864
1472844.919
1473005.766
1473159.605
1473307.559
1473449.028
1473584.631
1473714.69
1473838.28
1473956.886
1474069.827
1474177.531
1474280.535
1474377.96
1474472.074
1474566.293
1474660.93
1467278.041
1466800.793
1466911.116
1466993.721
1467061.531
1467140.832
1467233.914
1467343.861
1467466.897
1467600.488
1467746.917
1467904.398
1468071.737
1468249.468
1468434
1468625.55
1468823.232
1469026.576
1469233.436
1469442.685
1469653.578
1469865.394
1470076.426
1470286.741
1470494.632
1470699.739
1470901.583
1471099.25
1471292.424
1471479.604
1471662.326
1471839.307
1472009.455
1472174.406
1472333.074
1472486.036
1472632.964
1472772.887
1472908.012
1473037.361
1473160.563
1473278.655
1473390.722
1473498.394
1473600.938
1473698.757
1473792.074
1473881.057
1473971.181
1474060.483
1466982.408
1466527.491
1466633.461
1466712.616
1466776.752
1466854.866
1466948.717
1467055.9
1467173.809
1467304.546
1467446.737
1467600.102
1467763.556
1467934.368
1468112.664
1468297.967
1468489.36
1468685.21
1468883.982
1469085.203
1469287.694
1469491.05
1469694.107
1469895.265
1470094.303
1470289.842
1470483.543
1470673.029
1470856.458
1471035.754
1471209.269
1471377.849
1471540.933
1471697.382
1471849.218
1471994.999
1472134.132
1472268.211
1472396.15
1472519.494
1472637.238
1472749.099
1472856.405
1472958.228
1473056.242
1473149.363
1473238.014
1473323.346
1473408.674
1473494.562
1466699.308
1466266.71
1466369.441
1466447.043
1466512.13
1466588.552
1466678.545
1466782.274
1466898.198
1467025.666
1467165.115
1467314.494
1467471.745
1467636.914
1467809.926
1467989.379
1468174.173
1468362.391
1468553.946
1468747.25
1468942.348
1469137.706
1469332.095
1469525.161
1469714.926
1469903.313
1470087.792
1470268.241
1470444.398
1470614.749
1470780.995
1470941.687
1471096.678
1471246.833
1471390.598
1471529.545
1471662.837
1471790.132
1471912.757
1472029.301
1472141.573
1472248.618
1472350.392
1472448.166
1472540.902
1472629.941
1472714.048
1472795.318
1472877.153
1472958.384
1466440.337
1466027.381
1466126.321
1466201.014
1466263.312
1466337.28
1466425.601
1466526.783
1466640.425
1466765.547
1466900.954
1467044.447
1467196.469
1467357.204
1467524.662
1467698.292
1467875.807
1468057.542
1468241.494
1468427.951
1468614.577
1468802.769
1468989.917
1469173.675
1469356.644
1469536.25
1469713.056
1469885.451
1470053.162
1470216.742
1470374.35
1470528.179
1470676.766
1470819.414
1470957.18
1471088.527
1471216.037
1471338.322
1471454.553
1471566.36
1471672.419
1471774.669
1471872.116
1471965.091
1472054.293
1472138.478
1472219.134
1472296.116
1472374.37
1472452.076
1466195.343
1465800.893
1465896.17
1465968.205
1466029.38
1466101.733
1466188.766
1466288.176
1466399.05
1466520.598
1466650.444
1466789.407
1466937.932
1467093.387
1467255.792
1467422.492
1467594.251
1467768.668
1467946.559
1468125.043
1468305.513
1468484.73
1468663.895
1468841.784
1469016.533
1469189.051
1469356.768
1469522.196
1469683.217
1469838.585
1469990.138
1470135.862
1470278.191
1470415.199
1470545.695
1470672.09
1470792.747
1470909.575
1471021.22
1471127.269
1471229.275
1471325.968
1471419.347
1471508.182
1471593.076
1471674.178
1471750.643
1471824.773
1471898.824
1471973.611
1465965.213
1465588.1
1465680.165
1465750.158
1465811.25
1465882.496
1465967.093
1466063.687
1466171.427
1466287.903
1466413.863
1466550.288
1466693.782
1466844.929
1467000.727
1467162.392
1467327.119
1467496.22
1467666.334
1467839.288
1468011.595
1468184.265
1468354.979
1468526.143
1468694.922
1468858.616
1469020.213
1469176.972
1469331.174
1469480.926
1469624.846
1469765.262
1469899.877
1470030.671
1470156.399
1470276.544
1470392.714
1470503.084
1470609.829
1470711.629
1470808.593
1470901.911
1470990.297
1471075.528
1471156.242
1471233.689
1471307.283
1471377.84
1471449.371
1471519.922
1465753.375
1465391.935
1465481.165
1465548.924
1465607.442
1465676.851
1465760.227
1465853.005
1465956.38
1466071.168
1466193.673
1466324.645
1466464.411
1466609.164
1466760.558
1466915.397
1467075.497
1467236.998
1467402.154
1467567.283
1467733.663
1467898.156
1468063.711
1468226.577
1468387.66
1468546.128
1468699.664
1468850.741
1468996.652
1469140.115
1469279.155
1469412.587
1469542.126
1469665.689
1469786.285
1469902.048
1470012.391
1470118.816
1470219.668
1470317.245
1470410.176
1470499.192
1470584.686
1470665.317
1470743.042
1470816.486
1470887.146
1470954.639
1471022.943
1471091.067
1465552.414
1465205.906
1465292.511
1465358.674
1465417.33
1465483.907
1465562.565
1465652.743
1465755.282
1465865.381
1465984.149
1466112.547
1466246.239
1466387.308
1466532.152
1466683.098
1466835.754
1466992.895
1467150.534
1467310.363
1467468.496
1467628.304
1467785.868
1467942.7
1468095.867
1468247.63
1468396.391
1468539.685
1468680.566
1468816.251
1468949.682
1469078.37
1469201.236
1469320.74
1469434.816
1469545.781
1469651.81
1469753.053
1469850.591
1469942.892
1470032.322
1470117.274
1470198.88
1470276.77
1470350.767
1470421.921
1470488.801
1470553.897
1470618.792
1470684.444
1465370.829
1465036.372
1465119.502
1465182.118
1465236.333
1465301.023
1465380.031
1465468.099
1465565.455
1465672.621
1465788.862
1465911.18
1466041.762
1466176.348
1466317.649
1466461.26
1466609.281
1466759.907
1466912.549
1467064.616
1467218.604
1467370.83
1467523.149
1467671.711
1467819.774
1467963.823
1468106.141
1468245.191
1468378.875
1468510.213
1468636.261
1468759.441
1468877.929
1468991.82
1469102.27
1469207.112
1469308.924
1469405.905
1469498.995
1469588.614
1469673.347
1469755.29
1469832.683
1469907.575
1469978.718
1470046.651
1470111.479
1470173.502
1470236.493
1470298.446
1465192.597
1464870.937
1464951.987
1465013.42
1465068.934
1465132.974
1465207.366
1465292.683
1465389.788
1465492.336
1465602.76
1465722.714
1465846.789
1465977.858
1466112.459
1466250.876
1466394.201
1466538.338
1466684.814
1466831.494
1466979.42
1467127.047
1467271.397
1467415.586
1467555.846
1467695.047
1467829.788
1467963.068
1468092.686
1468217.623
1468339.53
1468455.778
1468569.86
1468679.357
1468784.644
1468886.359
1468982.576
1469076.015
1469164.801
1469250.621
1469332.738
1469410.728
1469485.878
1469556.801
1469625.446
1469690.23
1469752.632
1469812.234
1469872.483
1469932.676
1465034.68
1464724.533
1464803.114
1464861.71
1464912.553
1464972.975
1465045.303
1465130.532
1465221.302
1465320.162
1465429.375
1465542.902
1465663.835
1465789.037
1465917.953
1466053.493
1466189.646
1466329.299
1466468.316
1466610.841
1466751.681
1466892.934
1467032.385
1467169.867
1467306.187
1467437.857
1467568.394
1467694.271
1467818.993
1467939.422
1468055.292
1468168.353
1468276.232
1468381.702
1468482.327
1468579.489
1468672.976
1468761.602
1468847.625
1468929.053
1469008.143
1469083.166
1469155.046
1469223.981
1469289.342
1469352.429
1469411.616
1469469.302
1469526.755
1469585.182
1464884.054
1464581.677
1464658.242
1464715.095
1464765.236
1464827.945
1464897.488
1464975.759
1465063.302
1465161.334
1465264.151
1465375.019
1465490.361
1465609.926
1465736.889
1465864.942
1465997.319
1466129.262
1466265.286
1466400.071
1466536.306
1466669.631
1466804.201
1466935.779
1467065.878
1467193.965
1467317.696
1467440.12
1467557.726
1467673.406
1467784.577
1467892.739
1467997.84
1468097.494
1468194.697
1468287.001
1468376.742
1468462.606
1468544.764
1468624.17
1468698.928
1468771.475
1468840.102
1468906.514
1468969.628
1469030.027
1469087.582
1469142.723
1469198.783
1469254.157
1464744.31
1464451.05
1464529.035
1464586.253
1464633.388
1464689.016
1464755.723
1464834.203
1464918.601
1465010.079
1465111.024
1465215.852
1465325.651
1465443.734
1465563.318
1465688.042
1465812.485
1465941.726
1466070.278
1466201.25
1466329.449
1466459.301
1466585.963
1466713.038
1466836.388
1466959.223
1467079.037
1467195.644
1467310.006
1467418.935
1467526.487
1467629.572
1467730.127
1467826.939
1467919.316
1468009.075
1468093.973
1468176.961
1468255.879
1468331.856
1468404.598
1468473.814
1468540.767
1468603.762
1468665.01
1468722.658
1468778.347
1468831.458
1468885.491
1468939.204
1464624.978
1464336.315
1464408.447
1464460.843
1464505.808
1464560.547
1464627.897
1464700.049
1464780.491
1464871.829
1464965.513
1465065.187
1465174.096
1465284.821
1465401.517
1465517.746
1465638.756
1465761.295
1465885.696
1466009.25
1466133.991
1466256.652
1466380.004
1466499.488
1466619.219
1466734.85
1466850.441
1466962.094
1467070.955
1467177.2
1467279.089
1467379.096
1467474.112
1467567.386
1467656.449
1467742.209
1467825.185
1467903.881
1467980.474
1468052.701
1468123.043
1468189.861
1468254.047
1468315.553
1468374.126
1468430.505
1468483.578
1468535.475
1468587.066
1468639.668
1464505.543
1464223.756
1464294.973
1464348.223
1464395.113
1464446.023
1464505.89
1464575.19
1464656.091
1464739.073
1464828.472
1464927.849
1465028.966
1465136.056
1465244.619
1465356.655
1465472.967
1465589.537
1465708.403
1465826.173
1465945.44
1466063.34
1466180.409
1466296.588
1466409.796
1466522.694
1466631.249
1466738.906
1466842.064
1466944.18
1467042.882
1467138.087
1467230.935
1467318.743
1467404.885
1467486.764
1467566.572
1467643.021
1467716.14
1467786.787
1467853.545
1467918.51
1467979.712
1468039.415
1468095.869
1468150.2
1468201.815
1468251.697
1468302.108
1468352.313
1464411.422
1464132.521
1464200.858
1464248.655
1464288.702
1464336.948
1464396.654
1464464.95
1464536.86
1464615.783
1464705.35
1464796.546
1464893.786
1464994.007
1465096.612
1465206.288
1465315.408
1465428.263
1465539.236
1465653.478
1465765.162
1465878.807
1465989.42
1466100.796
1466209.605
1466317.011
1466422.554
1466523.977
1466624.534
1466720.666
1466815.902
1466906.969
1466995.62
1467081.227
1467163.081
1467243.042
1467318.624
1467392.704
1467462.869
1467530.83
1467595.863
1467658.058
1467718.106
1467775.002
1467830.232
1467882.06
1467932.485
1467980.335
1468029.489
1468077.812
1464315.684
1464040.638
1464107.925
1464154.264
1464194.261
1464244.862
1464298.853
1464359.586
1464429.01
1464507.422
1464588.171
1464675.412
1464766.921
1464860.779
1464962.163
1465063.51
1465169.482
1465273.654
1465381.875
1465487.876
1465596.507
1465702.097
1465809.443
1465913.304
1466018.335
1466119.729
1466220.513
1466318.267
1466413.946
1466507.813
1466597.454
1466685.769
1466769.52
1466852.154
1466931.12
1467007.629
1467081.572
1467151.94
1467220.469
1467285.043
1467348.283
1467408.082
1467466.164
1467521.418
1467574.506
1467625.361
1467673.798
1467720.782
1467767.912
1467815.638
1464235.034
1463964.322
1464033.582
1464080.999
1464116.187
1464157.512
1464207.729
1464268.171
1464334.574
1464404.47
1464481.595
1464563.552
1464648.002
1464740.532
1464832.993
1464930.096
1465027.556
1465127.46
1465228.528
1465330.313
1465432.097
1465534.146
1465634.832
1465735.954
1465834.144
1465932.435
1466026.352
1466120.778
1466211.559
1466301.29
1466387.975
1466471.831
1466553.764
1466631.596
1466708.341
1466781.116
1466852.529
1466920.533
1466986.201
1467049.475
1467109.815
1467168.489
1467223.839
1467277.859
1467328.67
1467378.394
1467425.16
1467470.892
1467516.644
1467562.994
1466631.539
1466697.797
1466760.375
1466821.816
1466880.149
1466936.706
1466990.79
1467042.683
1467092.727
1467140.405
1467186.411
1467230.35
1467275.402
1467319.769
)
;

boundaryField
{
    front_top
    {
        type            wedge;
    }
    front_middle
    {
        type            wedge;
    }
    front_bottom
    {
        type            wedge;
    }
    back_top
    {
        type            wedge;
    }
    back_middle
    {
        type            wedge;
    }
    back_bottom
    {
        type            wedge;
    }
    axis_top
    {
        type            symmetryPlane;
    }
    axis_middle
    {
        type            symmetryPlane;
    }
    axis_bottom
    {
        type            symmetryPlane;
    }
    wall_top
    {
        type            fixedFluxPressure;
        gradient        uniform 0;
        value           nonuniform List<scalar> 
24
(
1477438.394
1476683.09
1475969.336
1475296.607
1474660.93
1474060.483
1473494.562
1472958.384
1472452.076
1471973.611
1471519.922
1471091.067
1470684.444
1470298.446
1469932.676
1469585.182
1469254.157
1468939.204
1468639.668
1468352.313
1468077.812
1467815.638
1467562.994
1467319.769
)
;
    }
    wall_middle
    {
        type            fixedFluxPressure;
        gradient        nonuniform 0();
        value           nonuniform 0();
    }
    wall_bottom
    {
        type            fixedFluxPressure;
        gradient        nonuniform 0();
        value           nonuniform 0();
    }
    inlet
    {
        type            zeroGradient;
    }
    outlet
    {
        type            fixedValue;
        value           nonuniform 0();
    }
    procBoundary8to7
    {
        type            processor;
        value           nonuniform List<scalar> 
51
(
1464179.065
1463906.014
1463969.688
1464010.591
1464042.536
1464081.987
1464133.973
1464187.81
1464246.637
1464313.68
1464385.281
1464459.573
1464542.226
1464625.476
1464712.689
1464803.03
1464893.814
1464989.099
1465082.827
1465180.114
1465275.152
1465372.498
1465467.68
1465563.6
1465657.682
1465750.067
1465841.49
1465930.131
1466018.376
1466102.273
1466185.879
1466265.675
1466344.05
1466419.672
1466492.75
1466564.004
1466564.004
1466418.573
1466481.848
1466543.22
1466601.676
1466658.897
1466712.757
1466765.637
1466815.504
1466864.352
1466910.571
1466955.284
1466998.127
1467041.865
1467085.427
)
;
    }
    procBoundary8to9
    {
        type            processor;
        value           nonuniform List<scalar> 
51
(
1470085.57
1469393.598
1469084.904
1469084.904
1469178.662
1469243.572
1469328.764
1469433.91
1469553.34
1469686.957
1469842.087
1470009.347
1470195.512
1470394.227
1470604.138
1470828.023
1471061.416
1471304.727
1471556.195
1471813.53
1472079.818
1472347.411
1472618.726
1472889.797
1473161.419
1473433.288
1473701.327
1473966.305
1474228.126
1474484.561
1474735.634
1474979.348
1475216.834
1475447.792
1475670.542
1475885.46
1476092.571
1476291.779
1476483.114
1476666.498
1476842.525
1477010.783
1477171.639
1477325.435
1477472.197
1477612.639
1477746.315
1477873.083
1477995.046
1478117.579
1478240.337
)
;
    }
}


// ************************************************************************* //
