/*--------------------------------*- C++ -*----------------------------------*\
  =========                 |
  \\      /  F ield         | OpenFOAM: The Open Source CFD Toolbox
   \\    /   O peration     | Website:  https://openfoam.org
    \\  /    A nd           | Version:  7
     \\/     M anipulation  |
\*---------------------------------------------------------------------------*/
FoamFile
{
    version     2.0;
    format      ascii;
    class       volScalarField;
    location    "0.0021";
    object      generalizedNewtonian:nu;
}
// * * * * * * * * * * * * * * * * * * * * * * * * * * * * * * * * * * * * * //

dimensions      [0 2 -1 0 0 0 0];

internalField   nonuniform List<scalar> 
1167
(
6.567125922
6.544798237
6.582666964
6.555459304
6.540680793
6.521551177
6.497626181
6.469510568
6.43705173
6.400008619
6.358199997
6.311525447
6.259809877
6.202940123
6.14084965
6.073502611
6.000896594
5.923059208
5.840074247
5.752006698
5.658915516
5.560886498
5.457947208
5.350085314
5.237206103
5.119200061
4.995805991
4.866669321
4.731321554
4.589189088
4.439528906
4.281423124
4.113791134
3.93534048
3.744615943
6.311088921
6.289162778
6.325350033
6.298761923
6.283839546
6.264704304
6.240741488
6.212653736
6.180190191
6.143257017
6.101645833
6.055235459
6.003934326
5.947689138
5.886456373
5.820245787
5.749098143
5.673079621
5.592276678
5.506784729
5.416750841
5.322185353
5.22317902
5.11966371
5.011588705
4.898777272
4.780957641
4.657749724
4.528668007
4.393096516
4.25024391
4.099171546
3.938754623
3.767676154
3.584462725
3.387528535
3.17537727
2.946966242
2.702423307
2.444024128
2.177201492
1.910583796
1.654408413
1.417873402
1.20698731
1.024035387
0.8683297069
0.7374009215
0.6280203933
0.5368422578
6.071236449
6.049611837
6.084058569
6.057830334
6.042524992
6.022986888
5.998621329
5.97010729
5.937246471
5.899897556
5.858001374
5.811422514
5.760111149
5.704051988
5.643259864
5.577785988
5.507707918
5.433137914
5.35421919
5.271057798
5.183750406
5.092425568
4.9970617
4.897664748
4.794123335
4.6862458
4.573740903
4.456201077
4.333128158
4.203851243
4.067548217
3.923254404
3.76981219
3.605911688
3.430059791
3.240708495
3.036451223
2.8164348
2.581102333
2.333165536
2.078394964
1.825352046
1.583646425
1.361464044
1.163836588
0.9924072622
0.8462480541
0.7229501557
0.6195027473
0.5328275054
5.845438038
5.824036761
5.85670777
5.830650736
5.814702868
5.794488458
5.769444129
5.740141673
5.706541347
5.668474297
5.62589362
5.578795084
5.527142924
5.470962212
5.410318424
5.345305269
5.276074791
5.202754849
5.12547761
5.044416153
4.959678466
4.871343759
4.779437784
4.68393479
4.584692133
4.481511762
4.374084738
4.26197464
4.144639275
4.021384578
3.891375938
3.753619716
3.606939561
3.450009675
3.281358632
3.099500083
2.903124238
2.69157537
2.465600342
2.2282543
1.985508321
1.745720145
1.517818226
1.309052435
1.123633711
0.9627222209
0.8252506862
0.708908
0.6109010727
0.5283956043
5.631778172
5.610541661
5.641433716
5.615374061
5.598590872
5.577522438
5.551549218
5.521257554
5.486633004
5.447615101
5.404162574
5.356298248
5.304076321
5.247576364
5.186910696
5.122215115
5.053655157
4.98139618
4.905655025
4.826539375
4.744208663
4.658710076
4.570101069
4.478282914
4.383138959
4.284457059
4.181864341
4.074924636
3.963069923
3.84558189
3.721613308
3.590148089
3.450011441
3.299873591
3.138288898
2.963823121
2.775292128
2.572246813
2.355700018
2.128977464
1.898122536
1.671177181
1.456368769
1.260108824
1.085937094
0.9346549646
0.8051265767
0.6951605091
0.6021718263
0.5235481727
5.428544775
5.407444022
5.436552488
5.410333811
5.392606252
5.370573301
5.343493424
5.312078955
5.276285184
5.236141282
5.191676449
5.14294595
5.090054208
5.033133661
4.972342582
4.9078598
4.839911812
4.768678251
4.694340731
4.617099836
4.537044662
4.454286012
4.368792868
4.280506287
4.189296917
4.094880697
3.99689685
3.894891241
3.788270355
3.676303833
3.558130613
3.432722492
3.298912848
3.155379312
3.000715985
2.833555241
2.652834123
2.458291708
2.251178452
2.03501391
1.815807676
1.601215423
1.398779435
1.214169678
1.050377459
0.9079416504
0.7857079
0.6816161183
0.5932782714
0.5182836722
5.234228055
5.213213192
5.240525529
5.214069333
5.195368598
5.172265123
5.144024751
5.111388158
5.074393417
5.03306502
4.987509956
4.937870834
4.884281125
4.826922738
4.766012087
4.701758992
4.634387878
4.564119721
4.49119484
4.415736044
4.337918405
4.257762781
4.175277394
4.090392601
4.00291681
3.912571816
3.818990767
3.721696871
3.620074659
3.513395162
3.400780987
3.281205232
3.153510583
3.01639627
2.86850495
2.70854278
2.535569023
2.349498432
2.151774564
1.946032677
1.738163402
1.535393517
1.344614326
1.17085129
1.016651321
0.8823648652
0.7668562799
0.6681988057
0.5841888462
0.5125990307
5.047420284
5.026475261
5.052022139
5.025299416
5.005624586
4.981414166
4.952029483
4.91814319
4.879946358
4.83747752
4.790892993
4.740378029
4.68613571
4.628392674
4.567388137
4.503378611
4.436627875
4.367375635
4.295813343
4.222160324
4.146486876
4.068877224
3.989302768
3.907663657
3.823766366
3.737322742
3.647957866
3.555167379
3.458326853
3.356702985
3.249416545
3.135457245
3.013673972
2.882799992
2.741526883
2.588642791
2.423329162
2.245653948
2.057213495
1.861690051
1.66478978
1.473290024
1.293475881
1.129816759
0.9845013922
0.8577473505
0.7484570483
0.6548450462
0.5748765815
0.5064907026
4.866919976
4.846047284
4.869884265
4.842934953
4.822269262
4.797003269
4.766505383
4.731479972
4.692105969
4.648572513
4.601049995
4.549767354
4.494976251
4.436941689
4.375947183
4.312298435
4.246235103
4.178021974
4.107894577
4.036000483
3.9624712
3.887342633
3.810575917
3.732073112
3.651628947
3.568928405
3.483584336
3.395087194
3.302814638
3.206030213
3.103857876
2.995304015
2.879235903
2.754426498
2.619620678
2.473688741
2.315929259
2.146541353
1.967231314
1.781667671
1.595327691
1.414535431
1.245020341
1.09077826
0.9537064768
0.8339331828
0.7304164094
0.641502122
0.5653187956
0.4999553759
4.691697534
4.67091398
4.693132726
4.665953888
4.644366216
4.618154162
4.586611612
4.550557529
4.510182608
4.465698097
4.417366251
4.365463339
4.310282017
4.252120103
4.191286398
4.128082161
4.062808302
3.995731427
3.927056393
3.856967732
3.785561081
3.712858184
3.638850081
3.563389563
3.486251684
3.407136182
3.325642446
3.24125236
3.153350787
3.061201253
2.963938967
2.86058665
2.750039556
2.631116131
2.502618029
2.363497327
2.2131613
2.051917956
1.881543718
1.705643992
1.529435615
1.358798519
1.198956602
1.053493355
0.9240818524
0.8107945388
0.7126516795
0.6281260327
0.5554971493
0.4929909171
4.520892356
4.5002369
4.520883928
4.493522838
4.471137346
4.44408032
4.411661832
4.374701259
4.333493664
4.288269753
4.239332936
4.187001715
4.131604809
4.073473747
4.012945128
3.950359732
3.886002359
3.820135422
3.753001807
3.684739735
3.615453171
3.5451772
3.473849782
3.401330008
3.327387676
3.251726874
3.173932461
3.09348298
3.009768703
2.922058371
2.829511458
2.731167134
2.625955552
2.512739096
2.390381538
2.257916631
2.114845733
1.961567729
1.799892551
1.63332329
1.466797367
1.30577239
1.155012433
1.017750071
0.8954725158
0.7882237316
0.6950959486
0.6146819566
0.5453973898
0.4855970013
4.353769723
4.333257262
4.35240931
4.324956297
4.3019227
4.274146641
4.241037083
4.203370398
4.161509468
4.115757393
4.066433758
4.013892802
3.958492673
3.900605183
3.840593574
3.778771027
3.715460447
3.650935985
3.585401403
3.519021022
3.451884067
3.383995046
3.315299961
3.245660678
3.174828466
3.102494579
3.028245159
2.951570734
2.871866567
2.788412322
2.700390554
2.606863993
2.506801461
2.399111584
2.282721161
2.156742578
2.020763098
1.875250358
1.722015019
1.564429173
1.407140327
1.255195878
1.112958166
0.9833623671
0.8677436028
0.7661302191
0.6776938021
0.6011397731
0.5350091729
0.477775355
4.189706221
4.169377596
4.187133109
4.159720578
4.136156594
4.107851681
4.074223872
4.036088275
3.993818784
3.947758338
3.898281563
3.845773887
3.790616375
3.733190649
3.673862413
3.612988815
3.550884169
3.4878034
3.423971582
3.359530461
3.29454826
3.229059688
3.162976417
3.096137857
3.028315724
2.959194445
2.888358508
2.815312621
2.739459851
2.660093571
2.576418164
2.487526882
2.392431499
2.290089077
2.179488219
2.059817377
1.93073282
1.792753138
1.647664949
1.498693027
1.350194574
1.206831121
1.07259784
0.95017315
0.8407792108
0.744439923
0.6603997298
0.5874768653
0.5243264667
0.4695307724
4.028237661
4.008144126
4.024619951
3.997351617
3.973410589
3.944783212
3.910832257
3.872450334
3.830026462
3.783927465
3.73455649
3.68232342
3.627631762
3.570881103
3.51246549
3.452723933
3.39196275
3.330469942
3.268424879
3.205980493
3.143211042
3.080110177
3.01659655
2.952510406
2.887629195
2.821626099
2.754090295
2.684535321
2.61237515
2.536931495
2.457429222
2.372995315
2.282683617
2.185502177
2.080501408
1.966941684
1.844544067
1.713856326
1.576617634
1.435886019
1.295729507
1.16046415
1.033753133
0.9180490879
0.8144824254
0.7230868115
0.6431768369
0.5736767923
0.5133472372
0.4608708885
3.869031919
3.849238347
3.864533319
3.837508654
3.813378901
3.784605679
3.750586922
3.712169294
3.669832139
3.623950415
3.574943432
3.523237778
3.46926234
3.413436821
3.356124783
3.297687609
3.238449633
3.178648801
3.118499937
3.058126254
2.997586599
2.936887678
2.875937852
2.814568106
2.752550276
2.689566365
2.625215603
2.559021336
2.490411693
2.418736693
2.343246422
2.263101631
2.177398179
2.08519698
1.985610031
1.877958566
1.762015586
1.638350478
1.508643977
1.375779903
1.243542574
1.115911524
0.9962703508
0.886873872
0.7887714921
0.7020185619
0.6259966625
0.5597289546
0.5020735836
0.4518062236
3.711885057
3.692426705
3.706622663
3.679968406
3.655836907
3.627095454
3.593227108
3.555046328
3.513037329
3.467618623
3.419232024
3.368315087
3.315298401
3.260592992
3.204589538
3.14765412
3.090067661
3.032108073
2.973942693
2.915700114
2.857451002
2.799166287
2.740753377
2.682054935
2.622844235
2.562803328
2.501542519
2.438595743
2.373409504
2.30535619
2.233714606
2.157687263
2.076412294
1.989002206
1.894628841
1.792676519
1.682959127
1.566049618
1.443549252
1.318171109
1.193437102
1.073013698
0.9600173475
0.8565455839
0.763578432
0.6811927636
0.6088384753
0.5456277738
0.4905114781
0.4423507764
3.556633711
3.537561614
3.550759417
3.524622718
3.500629849
3.472137435
3.438605974
3.400891173
3.359468896
3.314770048
3.267246873
3.217346787
3.165507794
3.112150883
3.057663646
3.002374835
2.946617275
2.890595543
2.834519512
2.778486265
2.722550142
2.666692519
2.610819476
2.554768663
2.498309508
2.441132207
2.382863202
2.323049305
2.261158559
2.19658605
2.128645606
2.056577283
1.979562157
1.896763438
1.80741011
1.710933327
1.607190254
1.496755505
1.381142249
1.26288406
1.145246039
1.031621082
0.9248818549
0.8269798762
0.7388462513
0.6605756707
0.5916866425
0.5313726111
0.4786708426
0.4325217774
3.403238287
3.38460649
3.396915015
3.371402461
3.347698981
3.319643883
3.286667115
3.249616273
3.209007008
3.165261492
3.118833904
3.07017815
3.019751523
2.967942953
2.915133751
2.861684673
2.807860726
2.753917002
2.700004208
2.646237418
2.592669543
2.539258971
2.48590999
2.432469515
2.378710236
2.324334355
2.268975301
2.212194463
2.153486002
2.092267576
2.027882493
1.959611245
1.886680057
1.808303746
1.723771902
1.632558127
1.534549482
1.430298588
1.321244133
1.209747232
1.098823601
0.991608119
0.8907634237
0.7981050678
0.7145267549
0.6401414002
0.5745319304
0.5169674869
0.4665654935
0.4223395593
3.251747414
3.233615797
3.245123659
3.220320163
3.197074879
3.169602081
3.13738111
3.101212938
3.061615333
3.019034048
2.973922373
2.926731096
2.877890338
2.827801566
2.776862771
2.725375367
2.673635234
2.621847174
2.570194735
2.518759827
2.467580423
2.416626388
2.365805469
2.314957417
2.263856312
2.212213887
2.15968021
2.10583323
2.050191779
1.99220026
1.931236645
1.866615625
1.797608099
1.723478289
1.643560702
1.557380958
1.464857807
1.366515273
1.263699039
1.158609084
1.054034702
0.9528646186
0.8575759033
0.7698620602
0.6905825315
0.6198713008
0.5573708677
0.5024206412
0.4542122977
0.4118274905
3.102295946
3.084692172
3.095461252
3.07146315
3.048815018
3.022074613
2.990767092
2.955666866
2.917283105
2.876059437
2.832446875
2.786891784
2.739815381
2.691634921
2.64268839
2.593306872
2.543746459
2.494229286
2.444889595
2.395833758
2.347086791
2.298603884
2.250294372
2.202005186
2.15351564
2.104553311
2.054775589
2.003778462
1.951103139
1.896220078
1.838540237
1.777417972
1.712168635
1.642108917
1.566615963
1.485255547
1.397960954
1.30524419
1.2083582
1.10933511
1.01075978
0.9152984408
0.8252473257
0.7422017347
0.6669842536
0.5997539401
0.5402049054
0.4877441292
0.4416313482
0.4010117977
2.955013022
2.937974258
2.948079682
2.924993
2.90303093
2.877175832
2.846913789
2.813029033
2.776022027
2.736322094
2.694373435
2.650623324
2.605480013
2.559322504
2.512504659
2.465333935
2.418055053
2.370867106
2.323917158
2.277280376
2.230976717
2.184970122
2.139169688
2.093418975
2.04750333
2.001159091
1.954061062
1.905825307
1.856014383
1.804129577
1.749612861
1.691854838
1.630211231
1.564041237
1.492774294
1.416017736
1.33371454
1.246342914
1.155081846
1.061806209
0.9688950912
0.8788225393
0.7937163514
0.715082207
0.643709898
0.5797821205
0.5230398906
0.4729536094
0.4288457789
0.3899211969
2.810104344
2.793666138
2.803187898
2.781063111
2.759885582
2.73502067
2.705948568
2.673408143
2.63790671
2.599870304
2.559731806
2.517912705
2.474807938
2.430797578
2.386213879
2.341337276
2.296415536
2.251626125
2.20709472
2.162910416
2.119075268
2.075545484
2.032231845
1.988984732
1.945600466
1.901824007
1.85734162
1.811791472
1.76475522
1.71575885
1.664279513
1.60974713
1.551560636
1.489120014
1.421893111
1.34951996
1.271968718
1.189681176
1.103746273
1.015907569
0.9283501834
0.8433654556
0.7629328547
0.6884713023
0.6207438715
0.5599539185
0.5058856393
0.458067884
0.4158813039
0.3785866052
2.667819731
2.652018641
2.661006386
2.639882425
2.619589605
2.595779896
2.567991704
2.536910777
2.503029471
2.466763458
2.428532896
2.388742084
2.347783503
2.306010085
2.26372635
2.221223809
2.178705937
2.136353964
2.094286099
2.05256182
2.011188698
1.970132345
1.929293788
1.888524143
1.847627105
1.80635915
1.764422489
1.721477079
1.677128215
1.630925055
1.582374799
1.530940722
1.476060116
1.417183392
1.353817333
1.285629174
1.212589704
1.135127225
1.054242195
0.9715414539
0.8890447029
0.8088656534
0.7328541088
0.6623439104
0.5980767359
0.5402722914
0.4887554538
0.4431084996
0.4027658954
0.3670408912
1.985329916
1.946078518
1.907170139
1.868563251
1.830166168
1.791835149
1.753384424
1.714576225
1.675127051
1.634713803
1.592961197
1.549449357
1.503717959
1.45526328
1.40355827
1.348088226
1.288401558
1.224200581
1.155456062
1.082565328
1.006462267
0.9286195552
0.8509056497
0.7752705006
0.7034439078
0.6366812712
0.5757040624
0.5207441165
0.4716656714
0.4280994703
0.3895294116
0.3553184559
)
;

boundaryField
{
    front_top
    {
        type            wedge;
    }
    front_middle
    {
        type            wedge;
    }
    front_bottom
    {
        type            wedge;
    }
    back_top
    {
        type            wedge;
    }
    back_middle
    {
        type            wedge;
    }
    back_bottom
    {
        type            wedge;
    }
    axis_top
    {
        type            symmetryPlane;
    }
    axis_middle
    {
        type            symmetryPlane;
    }
    axis_bottom
    {
        type            symmetryPlane;
    }
    wall_top
    {
        type            calculated;
        value           nonuniform 0();
    }
    wall_middle
    {
        type            calculated;
        value           nonuniform List<scalar> 
23
(
0.49860626
0.4962560964
0.4933878305
0.4900151844
0.4861460688
0.481785158
0.4769353295
0.4715985963
0.4657773083
0.4594751032
0.4526970574
0.4454511254
0.4377478257
0.4296001732
0.4210246819
0.4120408939
0.4026712969
0.3929413984
0.3828794858
0.3725161981
0.3618842681
0.3510182997
0.3399543166
)
;
    }
    wall_bottom
    {
        type            calculated;
        value           nonuniform 0();
    }
    inlet
    {
        type            calculated;
        value           nonuniform 0();
    }
    outlet
    {
        type            calculated;
        value           nonuniform 0();
    }
    procBoundary4to3
    {
        type            processor;
        value           nonuniform List<scalar> 
51
(
2.528438996
2.513282442
2.521772355
2.50169301
2.48233622
2.459666507
2.433214069
2.403666943
2.371484535
2.337068154
2.300823243
2.263148984
2.224402016
2.18491277
2.145000497
2.104894611
2.064826548
2.024932556
2.024932556
1.880114759
1.84331382
1.806846908
1.770670462
1.734687415
1.698756388
1.662698661
1.626289467
1.589261646
1.551309751
1.512077256
1.47117021
1.428152751
1.382555023
1.333893681
1.281686678
1.225513968
1.165104844
1.100442186
1.031888784
0.9603110651
0.8870656118
0.8138711253
0.7425369493
0.6746740665
0.6114698959
0.5536244227
0.5013796101
0.4546353332
0.413066859
0.3762032744
0.3434549431
)
;
    }
    procBoundary4to5
    {
        type            processor;
        value           nonuniform List<scalar> 
51
(
6.841740618
6.818874085
6.858325526
6.830179652
6.815217163
6.795673114
6.771298395
6.742655054
6.709609482
6.671859593
6.629309482
6.581739507
6.528974244
6.470883177
6.407368081
6.338355861
6.263810799
6.183722203
6.098118439
6.007035786
5.910551064
5.80871095
5.701516822
5.588999102
5.471052468
5.347543782
5.218292453
5.082947563
4.941068359
4.792108104
4.635375063
4.46998931
4.294911264
4.108895792
3.910507898
3.540014769
3.540014769
3.319968248
3.083277443
2.829709303
2.561074505
2.282326929
2.001979876
1.730756033
1.478908377
1.253613125
1.057998583
0.8917492914
0.7523981915
0.6365051001
0.5404338757
)
;
    }
}


// ************************************************************************* //
