/*--------------------------------*- C++ -*----------------------------------*\
  =========                 |
  \\      /  F ield         | OpenFOAM: The Open Source CFD Toolbox
   \\    /   O peration     | Website:  https://openfoam.org
    \\  /    A nd           | Version:  7
     \\/     M anipulation  |
\*---------------------------------------------------------------------------*/
FoamFile
{
    version     2.0;
    format      ascii;
    class       volVectorField;
    location    "0.0021";
    object      grad(generalizedNewtonian:nu);
}
// * * * * * * * * * * * * * * * * * * * * * * * * * * * * * * * * * * * * * //

dimensions      [0 1 -1 0 0 0 0];

internalField   nonuniform List<vector> 
1167
(
(-801.3073779 0 15824.15114)
(667.3509241 0 15751.00425)
(46.65997734 0 15890.46187)
(-1020.558597 0 15892.37402)
(-873.6049783 0 15899.83519)
(-1126.670506 0 15925.28872)
(-1383.398762 1.427287194e-10 15958.57753)
(-1638.800031 1.271850122e-10 15995.23865)
(-1914.413541 -1.153833132e-10 16041.34265)
(-2211.670399 0 16091.60162)
(-2527.473302 9.873548993e-11 16149.58671)
(-2862.548986 0 16213.06336)
(-3217.878676 0 16280.30107)
(-3591.011722 0 16349.08954)
(-3980.234637 0 16417.88259)
(-4384.069829 0 16484.24065)
(-4800.931163 -7.416700243e-11 16545.79292)
(-5228.328092 0 16599.81188)
(-5665.266301 3.494683727e-11 16644.4135)
(-6112.683451 0 16678.18303)
(-6569.997097 0 16698.97924)
(-7038.491298 0 16708.35079)
(-7521.830811 0 16704.95389)
(-8024.870515 -3.155615117e-11 16693.60447)
(-8551.797864 0 16674.52208)
(-9109.857562 0 16652.1293)
(-9709.669691 0 16633.81747)
(-10361.18672 0 16625.2919)
(-11075.48307 0 16633.54239)
(-11866.68367 0 16667.92968)
(-12752.70491 0 16740.78688)
(-13752.375 0 16864.25083)
(-14887.39628 -1.457770111e-11 17053.13924)
(-16180.81738 0 17323.17352)
(-17654.32053 3.299570936e-12 17689.19904)
(-798.0391164 0 14788.13766)
(634.7623495 0 14723.29437)
(28.5346809 0 14866.81187)
(-1024.863252 0 14885.83362)
(-889.5571595 -2.005719857e-10 14911.03483)
(-1143.825121 1.687320807e-10 14961.24097)
(-1403.153943 0 15020.48459)
(-1661.417504 0 15086.25554)
(-1938.445862 0 15162.23339)
(-2234.163401 0 15246.07078)
(-2549.844441 0 15334.95866)
(-2882.939648 0 15430.11755)
(-3232.058343 -4.508096027e-11 15528.02639)
(-3596.322582 0 15626.00336)
(-3974.224885 0 15721.65031)
(-4363.515236 0 15812.12756)
(-4762.636918 0 15894.84501)
(-5170.254038 7.393215428e-11 15967.04497)
(-5585.476135 0 16026.78428)
(-6006.220294 0 16072.23845)
(-6435.504782 0 16103.1361)
(-6875.217157 0 16118.85163)
(-7328.555908 0 16122.00116)
(-7800.932504 0 16114.07926)
(-8297.172642 0 16097.6525)
(-8826.596574 3.159128337e-11 16079.06243)
(-9398.535546 0 16063.4792)
(-10023.36711 -3.093624429e-11 16057.52157)
(-10713.09197 -3.067490647e-11 16068.15191)
(-11483.41482 1.522620018e-11 16106.27984)
(-12351.75465 -1.513271177e-11 16183.54452)
(-13337.2039 -1.505555322e-11 16311.9499)
(-14462.03747 1.49934719e-11 16506.42143)
(-15748.63246 -1.494537069e-11 16780.89016)
(-17217.16686 0 17149.5981)
(-18877.56974 -1.488736896e-11 17619.86712)
(-20713.45745 0 18183.60885)
(-22654.83564 1.487512053e-11 18800.76663)
(-24543.28874 0 19375.65763)
(-26109.54493 0 19745.39149)
(-27011.87383 -1.49318158e-11 19704.22326)
(-26964.57949 -7.484399415e-12 19087.40764)
(-25885.21185 0 17862.2586)
(-23943.66518 1.130069387e-11 16156.14184)
(-21470.0026 0 14190.59537)
(-18807.9771 -3.799363792e-12 12185.54224)
(-16218.05711 0 10299.61139)
(-13853.10657 0 8619.112183)
(-11779.77431 0 7174.869294)
(-9999.457516 4.843586137e-13 5958.160853)
(-798.3692923 0 13886.97684)
(597.3879307 0 13828.74136)
(1.126448901 3.514273639e-10 13974.73637)
(-1042.090612 0 14007.34004)
(-922.9927526 2.063752542e-10 14048.81426)
(-1181.781711 0 14119.9862)
(-1445.911791 1.510469238e-10 14199.47024)
(-1708.07853 -1.345973323e-10 14290.71749)
(-1989.281016 0 14389.89935)
(-2286.266945 5.616480992e-11 14499.3881)
(-2599.636836 0 14614.94272)
(-2929.52097 -9.808432454e-11 14733.58864)
(-3272.933791 0 14853.53771)
(-3628.299067 0 14972.44127)
(-3993.834278 -4.226041045e-11 15086.88575)
(-4367.744608 0 15194.09897)
(-4748.125154 3.924472106e-11 15290.37039)
(-5132.777177 7.607127715e-11 15373.26764)
(-5521.831953 -3.698353283e-11 15441.37024)
(-5916.743939 -7.212978054e-11 15492.71204)
(-6316.63112 0 15528.16678)
(-6725.792396 0 15546.96122)
(-7148.711418 -3.393752161e-11 15552.58787)
(-7589.241299 0 15545.32242)
(-8055.46139 0 15531.07935)
(-8555.392133 0 15513.99865)
(-9099.037792 0 15499.75148)
(-9696.70346 1.591567046e-11 15495.07916)
(-10361.78942 1.578122087e-11 15508.35134)
(-11111.05828 -1.566674885e-11 15550.42332)
(-11961.13515 1.557055552e-11 15631.66567)
(-12931.59321 0 15764.62685)
(-14043.64614 -1.542728691e-11 15963.11062)
(-15319.49174 0 16240.7812)
(-16778.13483 -1.534169433e-11 16610.21951)
(-18424.46192 0 17075.12165)
(-20234.22453 -1.530628071e-11 17622.85247)
(-22124.66586 -1.530551126e-11 18205.68657)
(-23921.46459 -7.657599329e-12 18721.25765)
(-25348.33247 7.667401913e-12 19005.81699)
(-26082.37897 -7.681923426e-12 18870.32102)
(-25883.51044 0 18182.30202)
(-24720.2415 7.7242908e-12 16941.93064)
(-22788.36164 0 15288.33271)
(-20408.01959 0 13429.54526)
(-17891.42875 0 11559.4882)
(-15465.47452 0 9812.454841)
(-13259.3154 0 8258.887772)
(-11327.6015 0 6922.468575)
(-9669.520062 4.960237856e-13 5794.170006)
(-801.638139 0 13106.41948)
(556.2073963 0 13053.60972)
(-33.36841938 0 13200.65848)
(-1071.723216 0 13244.70596)
(-971.6199426 -2.124340777e-10 13301.50131)
(-1235.746298 0 13387.41148)
(-1507.676604 7.774070127e-11 13484.29756)
(-1775.888432 6.92744395e-11 13594.03474)
(-2060.022941 0 13713.35556)
(-2360.502714 0 13840.3991)
(-2673.159502 0 13974.43486)
(-2998.102482 0 14111.04902)
(-3334.68402 0 14247.30061)
(-3680.066984 0 14380.01439)
(-4032.217317 0 14505.94438)
(-4388.312108 -4.183351387e-11 14621.91552)
(-4747.160182 0 14724.91785)
(-5109.204156 0 14813.35245)
(-5472.673728 0 14884.43797)
(-5838.23335 0 14938.12265)
(-6208.974338 3.629599735e-11 14973.32365)
(-6587.855494 0 14993.36718)
(-6978.880128 0 14997.26544)
(-7388.805248 0 14990.61997)
(-7824.928821 -3.388677755e-11 14976.55812)
(-8294.928918 0 14959.11041)
(-8809.874856 0 14945.67718)
(-9381.371555 1.638292726e-11 14942.73677)
(-10022.88485 0 14959.17968)
(-10750.21852 3.225339542e-11 15004.64855)
(-11580.56743 -1.602768041e-11 15089.27125)
(-12534.11761 1.594595845e-11 15225.82278)
(-13631.90366 0 15427.10125)
(-14894.63476 0 15706.5287)
(-16337.93794 0 16073.83336)
(-17962.96424 0 16530.49799)
(-19738.03889 0 17059.16289)
(-21568.15175 7.877427435e-12 17605.37477)
(-23267.70878 0 18062.08705)
(-24559.89302 0 18269.33894)
(-25144.12948 7.907451545e-12 18056.4122)
(-24823.56086 0 17320.13582)
(-23608.20071 0 16085.19982)
(-21708.94065 3.989677277e-12 14495.18458)
(-19430.43863 -4.005877837e-12 12742.66363)
(-17054.68305 4.024063164e-12 10998.22845)
(-14780.26923 0 9376.297914)
(-12717.46682 2.033073103e-12 7935.184517)
(-10912.09475 0 6693.629427)
(-9362.75738 -1.550117727e-12 5643.220141)
(-807.2299359 0 12433.99208)
(512.4652298 -6.041105464e-10 12385.17209)
(-74.1028544 0 12532.59566)
(-1112.008636 0 12587.47663)
(-1031.661188 1.093818422e-10 12655.33726)
(-1303.210366 0 12751.52185)
(-1583.826278 0 12863.1809)
(-1859.686882 -1.426770302e-10 12985.02661)
(-2147.839056 0 13119.0026)
(-2449.326796 0 13259.67995)
(-2762.010979 0 13404.79711)
(-3083.307034 0 13552.36494)
(-3411.599358 0 13698.00552)
(-3745.085747 0 13838.18949)
(-4081.903559 0 13969.70837)
(-4420.13239 0 14089.46374)
(-4758.54232 -4.160052925e-11 14194.77066)
(-5094.992807 -4.031886701e-11 14283.27953)
(-5431.200688 0 14353.69754)
(-5768.724421 0 14405.444)
(-6109.651932 0 14439.55156)
(-6457.520655 -3.663023116e-11 14456.10957)
(-6818.042579 0 14458.71642)
(-7198.181502 3.539990956e-11 14450.95231)
(-7603.212726 0 14434.7312)
(-8044.466445 -1.722829217e-11 14417.31336)
(-8532.642904 1.703684395e-11 14405.1806)
(-9078.121832 1.687106687e-11 14404.10527)
(-9695.610336 0 14422.94048)
(-10400.65791 0 14470.97315)
(-11210.71125 0 14558.54474)
(-12145.65366 1.642107835e-11 14697.8652)
(-13226.03698 -1.635336634e-11 14900.78422)
(-14471.70432 0 15179.68183)
(-15895.7794 1.626263582e-11 15542.63851)
(-17494.34506 0 15988.5971)
(-19227.15006 0 16495.24025)
(-20989.81122 0 17003.48668)
(-22589.37265 -8.117274757e-12 17404.04229)
(-23753.49663 -8.127665782e-12 17542.8607)
(-24207.19468 0 17268.49929)
(-23792.95891 0 16503.41643)
(-22552.41664 4.093984815e-12 15289.80195)
(-20702.37211 -4.10855223e-12 13770.17959)
(-18529.32972 0 12120.98066)
(-16287.89431 0 10492.58601)
(-14152.94041 0 8983.344799)
(-12219.79164 0 7642.282174)
(-10527.80429 0 6484.84147)
(-9075.885588 5.191869806e-13 5503.655798)
(-814.1087258 -9.106201086e-10 11857.59398)
(466.6383436 -6.223825935e-10 11812.52752)
(-120.8664707 -1.918952425e-10 11960.83662)
(-1160.523944 0 12023.93015)
(-1099.527342 0 12098.08123)
(-1380.874386 0 12202.74874)
(-1671.04721 -8.247845514e-11 12323.58191)
(-1954.091291 1.469924677e-10 12454.6308)
(-2247.783596 1.333528035e-10 12596.09902)
(-2550.267072 -6.133705525e-11 12745.4046)
(-2860.863435 5.705614629e-11 12898.16689)
(-3177.326713 -5.355847974e-11 13050.53206)
(-3497.2311 0 13199.66991)
(-3818.698155 0 13342.04197)
(-4139.960573 4.615219277e-11 13473.98594)
(-4458.359016 0 13592.41589)
(-4773.470455 0 13695.13892)
(-5086.307604 0 13780.42301)
(-5395.669774 0 13846.96679)
(-5704.520624 0 13894.82951)
(-6015.725284 -3.850798551e-11 13924.21854)
(-6333.777893 0 13937.22056)
(-6665.17397 0 13937.49257)
(-7014.242064 0 13925.90423)
(-7390.692911 -1.797597043e-11 13908.49681)
(-7805.061207 -1.77493824e-11 13891.76028)
(-8266.17435 0 13879.82754)
(-8786.114511 0 13879.81258)
(-9379.610972 -1.723452143e-11 13900.52154)
(-10062.00944 0 13950.46113)
(-10851.05304 1.700445571e-11 14040.25859)
(-11765.9471 0 14181.18682)
(-12826.64736 0 14384.64861)
(-14051.71211 0 14661.70756)
(-15451.46884 1.675451869e-11 15018.48556)
(-17017.61583 0 15451.15662)
(-18702.67193 0 15933.89616)
(-20393.86768 0 16404.13821)
(-21893.83952 0 16752.02446)
(-22939.24968 0 16831.93569)
(-23281.62593 8.389355562e-12 16511.1041)
(-22797.82299 0 15733.21607)
(-21552.90654 4.217812286e-12 14552.19866)
(-19763.42587 4.232820327e-12 13106.19863)
(-17696.57604 0 11556.02323)
(-15582.34743 0 10034.60136)
(-13575.76536 0 8627.169964)
(-11760.27652 -2.156974744e-12 7375.690639)
(-10170.54039 -4.339192257e-12 6293.377759)
(-8806.387271 -1.652491554e-12 5374.176247)
(-823.1505525 0 11368.14774)
(417.9212888 0 11326.50713)
(-171.74196 -1.97788461e-10 11474.77811)
(-1213.315617 -2.904896775e-10 11542.34353)
(-1173.385506 0 11619.7765)
(-1465.338936 0 11730.88382)
(-1765.424994 1.700228365e-10 11855.26685)
(-2055.128476 0 11992.39319)
(-2353.51558 0 12137.04812)
(-2658.474148 1.264415058e-10 12288.76374)
(-2966.431678 -1.176167501e-10 12443.20228)
(-3276.433755 0 12596.20611)
(-3586.927282 5.221266686e-11 12744.38132)
(-3894.90595 -9.940165303e-11 12884.07735)
(-4199.014272 0 13012.24863)
(-4498.422012 0 13126.01053)
(-4792.186099 0 13223.63719)
(-5079.103836 4.281402756e-11 13302.59)
(-5362.167264 0 13362.95482)
(-5643.121374 0 13404.36953)
(-5925.578875 0 13428.22516)
(-6215.600318 3.889711778e-11 13437.12031)
(-6516.924173 1.910053367e-11 13432.29705)
(-6837.873928 -1.879532844e-11 13418.01667)
(-7187.670218 0 13399.91973)
(-7574.858406 0 13381.98965)
(-8009.569698 0 13369.44851)
(-8504.771856 1.791514425e-11 13370.07134)
(-9074.4303 0 13391.93719)
(-9733.928841 0 13443.38323)
(-10501.26502 -1.752667288e-11 13534.82289)
(-11394.77246 0 13676.355)
(-12433.69795 -3.473081097e-11 13879.15208)
(-13634.8816 1.730969482e-11 14152.72006)
(-15006.04438 0 14501.67848)
(-16534.7084 -1.724251723e-11 14919.69345)
(-18166.91652 0 15377.63577)
(-19783.64742 0 15810.59792)
(-21186.60434 8.619617805e-12 16110.27171)
(-22124.24132 0 16140.75435)
(-22373.93585 -8.646997748e-12 15786.60658)
(-21841.71097 0 15008.76753)
(-20608.94344 0 13868.38407)
(-18887.53807 0 12497.04184)
(-16925.53175 4.380528478e-12 11040.88259)
(-14930.96861 0 9617.844727)
(-13042.43115 0 8302.707766)
(-11334.0464 2.223216733e-12 7131.850959)
(-9836.935462 -2.236225738e-12 6117.042505)
(-8552.239223 5.420575973e-13 5253.68332)
(-833.1106029 1.935719625e-09 10956.48181)
(368.3406438 3.307521406e-10 10916.70824)
(-224.3661475 -4.079147641e-10 11062.97261)
(-1268.494046 0 11131.54592)
(-1250.664838 1.197737026e-10 11212.01935)
(-1552.899515 -1.007601633e-10 11324.88976)
(-1863.131344 0 11450.37244)
(-2160.110135 0 11587.45731)
(-2461.150692 -7.086754305e-11 11733.38036)
(-2766.758273 0 11883.23622)
(-3072.345363 0 12034.33019)
(-3376.078698 0 12183.51836)
(-3676.159274 5.384115338e-11 12326.60595)
(-3970.865456 0 12460.37691)
(-4258.560477 0 12582.03252)
(-4537.705978 0 12687.86395)
(-4808.15218 9.110560408e-11 12776.83391)
(-5071.752508 -4.414937518e-11 12847.61487)
(-5328.529105 0 12899.9324)
(-5582.528209 0 12933.79358)
(-5838.337885 0 12951.64033)
(-6099.768887 2.005514952e-11 12954.13333)
(-6374.133711 -1.969626954e-11 12945.11131)
(-6668.578848 0 12928.14787)
(-6991.709287 0 12907.18411)
(-7352.448118 1.88650721e-11 12887.322)
(-7761.863229 0 12874.34206)
(-8233.186159 -1.847390846e-11 12875.65166)
(-8779.642819 0 12898.38516)
(-9416.540388 -1.818497585e-11 12951.02097)
(-10161.16758 1.807332088e-11 13043.12237)
(-11031.72126 0 13184.28295)
(-12046.79421 0 13385.12213)
(-13221.28237 -1.784957545e-11 13653.73319)
(-14560.37583 2.671150975e-11 13993.37917)
(-16047.29812 2.667045383e-11 14395.35455)
(-17622.9761 0 14828.02848)
(-19164.1092 -8.882836995e-12 15225.40009)
(-20474.09574 -8.888459275e-12 15482.01278)
(-21315.21917 -8.899837556e-12 15472.29892)
(-21489.22717 0 15096.35949)
(-20926.26324 -4.469388982e-12 14328.77341)
(-19718.21915 4.482935321e-12 13234.40918)
(-18069.40989 0 11937.04803)
(-16209.54073 4.517154914e-12 10569.53267)
(-14327.62167 0 9237.142579)
(-12547.9418 -2.28016785e-12 8005.874799)
(-10937.12737 0 6907.849)
(-9524.244572 0 5954.018637)
(-8311.794611 2.873724721e-12 5141.241787)
(-843.2831125 1.997050088e-09 10611.31321)
(319.0988049 0 10572.40934)
(-276.0545306 -2.104194752e-10 10714.82518)
(-1324.913398 0 10783.73167)
(-1329.224267 -1.235685583e-10 10865.1896)
(-1640.840098 0 10975.42473)
(-1959.552733 -9.044035187e-11 11100.25634)
(-2264.41145 8.059104934e-11 11233.24)
(-2568.983364 -7.31128782e-11 11375.26798)
(-2873.156741 6.725810817e-11 11520.88423)
(-3175.16195 6.256394997e-11 11666.38)
(-3471.930427 0 11808.15955)
(-3761.647962 -1.11094064e-10 11942.74444)
(-4042.514622 0 12067.11729)
(-4312.319446 5.060740453e-11 12178.12947)
(-4571.783959 4.866739912e-11 12273.98428)
(-4821.423777 -4.699607634e-11 12353.12067)
(-5060.63209 0 12414.03106)
(-5292.993516 0 12456.74726)
(-5521.767938 0 12482.86624)
(-5750.921845 0 12492.5515)
(-5986.952498 0 12489.59437)
(-6235.394068 -2.032031712e-11 12475.33791)
(-6503.578006 -1.999562131e-11 12453.96431)
(-6801.438083 -1.971124559e-11 12430.41265)
(-7138.094532 0 12409.18049)
(-7523.923068 0 12396.00872)
(-7971.74692 0 12397.60487)
(-8494.898817 -1.889822231e-11 12420.6807)
(-9108.841282 1.876114045e-11 12473.66567)
(-9830.175545 0 12565.47168)
(-10676.59021 0 12705.49011)
(-11665.71483 0 12903.25666)
(-12810.77082 0 13165.74438)
(-14114.5867 -9.185941737e-12 13494.82575)
(-15556.42091 0 13879.82373)
(-17073.10253 9.164737586e-12 14287.33527)
(-18539.00614 -1.832855351e-11 14651.22222)
(-19761.56469 0 14870.08211)
(-20517.7056 0 14828.63881)
(-20631.43334 0 14440.59588)
(-20052.48722 0 13691.05277)
(-18878.45209 0 12645.90893)
(-17304.46927 -4.641427343e-12 11420.98267)
(-15543.21043 0 10136.91851)
(-13766.71141 -4.681430502e-12 8887.979374)
(-12087.65756 0 7733.159221)
(-10566.35506 0 6701.334883)
(-9230.238295 -2.379033858e-12 5802.788089)
(-8083.716047 5.644812285e-13 5036.044238)
(-853.0906258 -1.030671067e-09 10322.48006)
(271.7555074 0 10283.30607)
(-327.2529708 -4.343872321e-10 10422.17554)
(-1381.040076 0 10491.20039)
(-1404.994843 -1.275466635e-10 10569.24245)
(-1726.380409 0 10675.35187)
(-2053.564143 0 10795.39496)
(-2363.102153 0 10923.49369)
(-2671.246399 0 11057.2584)
(-2975.182216 0 11194.69228)
(-3272.23873 6.45781029e-11 11330.94296)
(-3560.667405 0 11462.48572)
(-3838.938956 5.73352857e-11 11586.13278)
(-4105.607719 0 11698.95952)
(-4359.626828 0 11798.48016)
(-4600.282162 -5.023417335e-11 11882.79799)
(-4827.859809 0 11949.9263)
(-5044.973697 0 11999.97075)
(-5253.87446 2.285703403e-11 12032.80873)
(-5458.165548 0 12049.3165)
(-5663.767616 0 12051.82464)
(-5874.712713 2.135666982e-11 12041.55513)
(-6098.101186 0 12021.58891)
(-6343.362666 0 11996.71158)
(-6618.009264 0 11970.91712)
(-6931.078323 2.008935971e-11 11947.74615)
(-7294.078839 0 11933.42265)
(-7719.132002 0 11934.36906)
(-8219.389385 0 11957.1451)
(-8810.311058 0 12009.935)
(-9507.936166 -3.849245236e-11 12100.80212)
(-10329.31941 0 12238.86679)
(-11290.78045 -1.90691366e-11 12432.57681)
(-12404.07507 -9.503980203e-12 12688.06648)
(-13669.88354 -9.481669401e-12 13005.87013)
(-15063.98409 9.467095957e-12 13373.56169)
(-16520.167 0 13756.75287)
(-17912.19629 0 14089.9036)
(-19053.34418 9.465294168e-12 14276.43467)
(-19735.44427 0 14210.96352)
(-19802.37059 9.495360374e-12 13818.95027)
(-19219.42045 -4.759439184e-12 13093.2373)
(-18086.81288 -4.773864629e-12 12099.26743)
(-16588.8309 0 10944.5255)
(-14921.86723 9.620609971e-12 9738.558546)
(-13243.88314 0 8566.54799)
(-11657.86775 0 7481.715205)
(-10218.80544 4.882675959e-12 6510.143344)
(-8953.043626 0 5662.040712)
(-7866.90606 5.754617339e-13 4937.373818)
(-861.591337 0 10081.17288)
(225.3744214 3.637415739e-10 10041.77305)
(-377.4246593 0 10177.53509)
(-1433.773864 0 10243.72824)
(-1476.602204 1.317200095e-10 10315.84322)
(-1806.415184 -1.108100474e-10 10417.13504)
(-2141.761945 0 10528.80474)
(-2455.823576 0 10649.22942)
(-2764.639516 0 10774.14864)
(-3067.000491 -7.169492588e-11 10900.13195)
(-3359.351504 0 11024.34499)
(-3639.930912 0 11143.47324)
(-3907.310797 0 11254.56248)
(-4160.165113 0 11354.37311)
(-4397.06426 0 11440.17616)
(-4618.793138 -5.187784285e-11 11510.98159)
(-4827.120067 0 11565.83352)
(-5022.648059 0 11604.00994)
(-5209.309961 0 11626.01639)
(-5391.791189 -2.301859154e-11 11633.3739)
(-5573.832692 0 11627.14572)
(-5762.020061 -2.205546319e-11 11609.79179)
(-5963.812452 -2.16607883e-11 11585.22104)
(-6186.920821 0 11556.14124)
(-6439.017738 0 11526.5487)
(-6729.695938 0 11501.01082)
(-7070.968684 0 11485.5164)
(-7474.268321 2.031650812e-11 11485.65059)
(-7952.540181 0 11507.97216)
(-8520.53415 -1.999875718e-11 11560.05352)
(-9193.925583 1.987596561e-11 11649.44056)
(-9989.361854 -1.977462216e-11 11784.83492)
(-10921.88697 9.846540797e-12 11973.77767)
(-12001.79536 0 12221.66009)
(-13227.47273 0 12527.68028)
(-14572.15074 0 12878.1613)
(-15967.4803 9.769308122e-12 13238.15929)
(-17287.91434 0 13543.38738)
(-18354.09553 0 13702.69324)
(-18972.46829 -9.787513065e-12 13619.925)
(-19004.06055 0 13230.39123)
(-18426.42389 -4.915168753e-12 12532.91517)
(-17339.90363 4.930066194e-12 11590.88732)
(-15917.70234 0 10503.46209)
(-14341.18774 -4.967698875e-12 9370.646929)
(-12755.38337 2.495125297e-12 8269.695351)
(-11255.33417 0 7248.943911)
(-9892.136384 -2.52121892e-12 6332.551975)
(-8691.160158 0 5530.689444)
(-7660.422175 -1.965574437e-12 4844.576103)
(-869.7408587 0 9880.339502)
(180.4846441 0 9840.631433)
(-424.3358294 -2.317615538e-10 9971.63252)
(-1480.968368 -1.701927876e-10 10032.26372)
(-1542.32329 0 10098.5249)
(-1879.431635 0 10192.13833)
(-2220.797974 -9.961338635e-11 10294.96951)
(-2539.544668 8.876510502e-11 10404.1678)
(-2848.394315 8.052845023e-11 10517.74048)
(-3147.644918 -7.407985233e-11 10631.65743)
(-3434.629921 6.890958299e-11 10742.68527)
(-3707.03102 0 10847.64799)
(-3963.07829 0 10943.79597)
(-4201.399322 0 11028.46071)
(-4422.89341 0 11100.07365)
(-4627.787296 -2.680177768e-11 11157.37097)
(-4816.452951 0 11198.76537)
(-4992.361343 0 11224.6368)
(-5158.870153 2.439013553e-11 11235.86112)
(-5319.879642 0 11233.00468)
(-5481.418932 0 11218.66148)
(-5649.269889 0 11194.60648)
(-5829.680137 0 11163.79118)
(-6031.594113 -2.202370414e-11 11130.16999)
(-6263.484154 -2.171048513e-11 11097.28306)
(-6534.265321 0 11069.83787)
(-6855.032006 0 11053.11533)
(-7237.192262 0 11052.16128)
(-7693.875404 0 11073.52492)
(-8239.133047 -2.066401431e-11 11124.23955)
(-8888.171624 -1.026856907e-11 11211.70961)
(-9656.965238 0 11343.89266)
(-10559.4525 0 11527.55904)
(-11604.54834 1.014144551e-11 11767.26926)
(-12788.54289 2.02352764e-11 12061.1633)
(-14082.5324 2.020417463e-11 12394.57486)
(-15417.04322 0 12732.55531)
(-16668.70356 0 13012.81401)
(-17666.3052 -1.010016464e-11 13149.72324)
(-18230.28586 1.0113094e-11 13055.46235)
(-18237.12021 0 12673.84363)
(-17672.88133 0 12007.70824)
(-16635.32665 0 11117.24769)
(-15287.36435 0 10094.19454)
(-13797.11953 0 9029.849373)
(-12297.77326 0 7994.554034)
(-10877.42723 0 7032.761835)
(-9584.355803 0 6167.088437)
(-8443.170998 0 5407.691423)
(-7463.473706 0 4757.049009)
(-876.4029338 0 9711.91692)
(138.5532384 0 9670.750296)
(-465.8537242 0 9795.630354)
(-1522.264157 1.759497724e-10 9850.178952)
(-1600.639317 0 9910.263528)
(-1943.606335 0 9993.555676)
(-2289.3348 -1.029829344e-10 10086.91396)
(-2610.454436 0 10183.77002)
(-2919.670072 -8.325242626e-11 10283.60768)
(-3215.734109 0 10383.51864)
(-3496.09842 0 10479.7532)
(-3759.324019 0 10569.48276)
(-4004.255549 0 10650.18754)
(-4230.149015 0 10719.93486)
(-4436.563296 0 10776.76243)
(-4624.133485 0 10819.10436)
(-4795.515305 -2.675682781e-11 10847.25062)
(-4953.058689 2.593248222e-11 10860.67742)
(-5100.370317 0 10860.47571)
(-5243.065325 0 10848.15195)
(-5385.12781 0 10825.10646)
(-5533.064067 0 10793.60991)
(-5695.39879 -2.313840923e-11 10757.39438)
(-5878.923948 -2.27686836e-11 10719.82937)
(-6091.607941 0 10683.55654)
(-6343.433037 0 10653.5931)
(-6644.700964 -2.191567799e-11 10634.844)
(-7006.53185 0 10632.33551)
(-7442.206008 0 10652.48167)
(-7965.241424 1.068150031e-11 10701.5756)
(-8590.138352 0 10786.78149)
(-9331.88894 1.056178789e-11 10915.291)
(-10203.50372 0 11093.29874)
(-11212.74434 1.048449265e-11 11324.6153)
(-12353.98529 -1.045988e-11 11606.42613)
(-13596.99472 1.044380306e-11 11923.48269)
(-14872.03347 0 12241.14266)
(-16058.54027 0 12499.44873)
(-16993.77034 -1.044181538e-11 12618.22498)
(-17511.3226 0 12517.3516)
(-17501.25379 5.237491706e-12 12147.89389)
(-16956.24933 -1.050092797e-11 11514.88782)
(-15970.18564 0 10675.29)
(-14694.78833 0 9713.534148)
(-13286.13832 0 8713.130335)
(-11867.98345 0 7738.711117)
(-10521.93831 2.678652281e-12 6831.388005)
(-9293.721064 0 6012.361524)
(-8207.871311 -2.708966552e-12 5292.108743)
(-7275.331111 6.071277431e-13 4674.190976)
(-881.0450055 0 9567.216116)
(100.6483378 0 9523.791077)
(-502.2028411 0 9642.415)
(-1556.950585 1.820039908e-10 9691.690883)
(-1649.604448 1.455469804e-10 9743.172253)
(-1997.252171 -1.224420485e-10 9816.287788)
(-2346.655418 -2.130529049e-10 9897.476845)
(-2668.028722 0 9982.343562)
(-2975.772061 0 10068.0914)
(-3268.086955 7.922091745e-11 10152.59404)
(-3542.265002 0 10233.14043)
(-3796.940275 0 10307.24363)
(-4031.06862 0 10372.23888)
(-4243.561657 -3.113965641e-11 10425.72056)
(-4435.277294 0 10466.88894)
(-4608.145504 5.732358677e-11 10495.10913)
(-4762.879574 -2.767749791e-11 10509.40007)
(-4903.417001 5.364957496e-11 10510.49747)
(-5034.180484 0 10499.31154)
(-5158.872612 2.543490936e-11 10477.02573)
(-5283.719223 0 10445.50429)
(-5415.269586 4.874135827e-11 10407.60056)
(-5560.48422 2.393457394e-11 10365.8545)
(-5726.279015 0 10323.25541)
(-5921.289929 0 10283.45056)
(-6155.682577 2.292451703e-11 10251.06975)
(-6439.000429 -2.266976994e-11 10230.4085)
(-6782.202177 0 10226.55779)
(-7197.756029 2.225953937e-11 10245.40832)
(-7698.82688 1.104903783e-11 10292.64166)
(-8299.708663 0 10375.18717)
(-9014.357491 -2.185041249e-11 10499.65214)
(-9854.845901 1.088015622e-11 10671.77524)
(-10827.69644 0 10894.58408)
(-11925.66203 0 11164.40444)
(-13117.38135 0 11465.74844)
(-14333.88136 0 11764.64773)
(-15458.68433 0 12003.81866)
(-16337.80503 0 12108.33927)
(-16817.11735 5.40746612e-12 12005.15884)
(-16797.12799 0 11650.88237)
(-16275.15017 0 11052.14197)
(-15341.38377 -5.447587228e-12 10262.1589)
(-14136.6622 5.466971105e-12 9358.529315)
(-12805.51817 -2.744585153e-12 8418.023237)
(-11463.41913 0 7500.120556)
(-10186.63851 0 6643.09754)
(-9018.691349 2.785877423e-12 5867.16267)
(-7984.209392 0 5183.113226)
(-7095.337744 2.02700557e-12 4595.463429)
(-882.954378 0 9438.475563)
(66.65972551 -4.1599622e-10 9393.191603)
(-533.7387797 0 9506.49242)
(-1583.604749 0 9549.532195)
(-1688.730079 0 9591.147865)
(-2038.644075 0 9654.548041)
(-2390.724292 -1.102560578e-10 9722.575363)
(-2712.414361 9.824874847e-11 9793.772469)
(-3016.836085 0 9865.358438)
(-3304.377809 8.199452674e-11 9934.790135)
(-3571.936106 0 9999.415981)
(-3817.701894 3.579811733e-11 10056.99177)
(-4040.407925 0 10105.32865)
(-4240.983392 3.222988935e-11 10143.1459)
(-4420.098364 0 10169.63963)
(-4577.89995 -2.966527354e-11 10183.04477)
(-4717.945734 0 10184.05126)
(-4843.428041 2.776395219e-11 10173.03729)
(-4958.183744 2.699597187e-11 10150.78247)
(-5067.998926 0 10119.22836)
(-5177.457674 0 10079.63568)
(-5293.040474 -2.522392269e-11 10034.64823)
(-5422.770899 0 9987.381312)
(-5573.503555 0 9940.517229)
(-5753.204065 0 9897.624707)
(-5971.467947 0 9862.785767)
(-6237.891829 0 9840.106451)
(-6563.349117 0 9834.57606)
(-6959.512797 0 9851.531216)
(-7439.092447 0 9896.608824)
(-8016.16148 1.136566061e-11 9976.345077)
(-8703.838311 1.130770942e-11 10096.69845)
(-9513.125623 1.126108222e-11 10262.8577)
(-10449.27202 0 10477.16016)
(-11504.07419 0 10735.41983)
(-12645.74423 -1.118139192e-11 11022.05998)
(-13805.97146 0 11303.97395)
(-14872.47175 -1.117219264e-11 11526.51428)
(-15700.37742 0 11620.13696)
(-16147.3197 0 11517.95567)
(-16123.62082 0 11181.22232)
(-15628.33448 -1.124255117e-11 10617.19947)
(-14746.48066 5.638313139e-12 9875.200094)
(-13610.05978 0 9026.692114)
(-12352.56526 0 8142.2171)
(-11081.7674 0 7276.815916)
(-9869.687924 2.867830894e-12 6466.391132)
(-8757.92235 0 5730.414242)
(-7771.273161 0 5079.947845)
(-6922.939138 6.268760341e-13 4520.357201)
(-883.3305486 1.260682781e-09 9320.659951)
(35.41145468 0 9273.890988)
(-559.7006248 0 9381.635915)
(-1601.070124 -1.950888957e-10 9416.710627)
(-1717.500168 0 9449.647829)
(-2068.403394 0 9501.83667)
(-2419.819118 -1.141850124e-10 9558.203212)
(-2740.89547 -1.017498246e-10 9614.816356)
(-3042.420034 0 9671.533484)
(-3324.164038 0 9725.478969)
(-3583.982428 7.8989801e-11 9774.200119)
(-3820.71277 0 9815.697274)
(-4033.761512 3.506531314e-11 9848.411851)
(-4223.050245 -3.337839572e-11 9871.137377)
(-4388.759257 0 9882.068652)
(-4533.770842 3.072239015e-11 9881.79448)
(-4660.207892 0 9869.68799)
(-4771.665186 0 9846.878781)
(-4873.347377 0 9814.332891)
(-4968.747686 0 9773.411737)
(-5064.317661 0 9725.922676)
(-5167.179351 0 9674.829015)
(-5283.457771 -2.565531441e-11 9622.412025)
(-5420.000401 2.524537124e-11 9571.200412)
(-5585.401576 0 9524.906342)
(-5788.936009 0 9487.523704)
(-6039.822983 0 9462.835853)
(-6348.682853 0 9455.624735)
(-6726.704862 0 9470.792863)
(-7186.152854 1.18433918e-11 9513.927396)
(-7740.155681 0 9590.830881)
(-8401.116557 0 9706.968669)
(-9179.405327 -1.166236882e-11 9867.130676)
(-10079.0658 0 10073.07629)
(-11090.71341 0 10320.07929)
(-12182.66986 1.15798388e-11 10592.86364)
(-13288.52339 -1.157089349e-11 10859.32266)
(-14301.02247 5.785155831e-12 11067.72877)
(-15083.54013 -5.788817488e-12 11153.48021)
(-15503.32868 0 11054.86482)
(-15479.54573 -1.161441096e-11 10737.25816)
(-15013.47562 0 10207.85676)
(-14183.49154 5.839233397e-12 9512.144371)
(-13112.36148 2.930005393e-12 8715.685069)
(-11924.70329 0 7883.592576)
(-10720.96948 0 7067.123342)
(-9569.46275 0 6299.991102)
(-8510.250864 0 5601.169647)
(-7568.198441 -1.501818622e-12 4981.890583)
(-6757.56769 6.362553075e-13 4448.34724)
(-881.3618368 0 9208.890491)
(8.179318832 -4.46450837e-10 9159.99651)
(-578.5310216 2.753026593e-10 9261.157638)
(-1609.9118 0 9288.66138)
(-1735.358685 0 9313.676422)
(-2085.796707 6.800327758e-11 9354.029327)
(-2435.716031 0 9398.46373)
(-2753.420524 0 9442.172513)
(-3050.700743 0 9484.030709)
(-3326.673084 0 9522.591191)
(-3579.188352 0 9555.950203)
(-3807.125537 -3.841885717e-11 9582.187111)
(-4009.821181 0 9599.149135)
(-4187.572052 -3.458940343e-11 9606.330009)
(-4342.42577 -3.310613975e-11 9603.315454)
(-4475.034298 0 9589.390227)
(-4589.233606 0 9565.014331)
(-4688.842877 5.959303991e-11 9531.097886)
(-4777.64387 0 9488.565219)
(-4861.61322 0 9439.099548)
(-4945.555884 0 9384.478441)
(-5036.088552 0 9327.107738)
(-5140.113028 0 9269.527462)
(-5264.71703 0 9214.439285)
(-5418.023044 0 9165.355863)
(-5608.482307 1.273208281e-11 9125.619418)
(-5845.176823 0 9099.056865)
(-6138.538719 0 9090.227489)
(-6499.346542 0 9103.611032)
(-6939.221452 -1.227308416e-11 9144.481846)
(-7470.553294 1.219772791e-11 9218.250359)
(-8105.290958 0 9330.14869)
(-8852.982791 -1.208549339e-11 9484.433117)
(-9716.61671 -1.204672158e-11 9682.28379)
(-10686.49139 -1.201844165e-11 9918.67671)
(-11730.7769 0 10178.74064)
(-12784.24271 0 10431.1143)
(-13745.52488 0 10627.55139)
(-14486.99204 0 10707.75035)
(-14885.01851 0 10614.86386)
(-14864.81075 6.017897772e-12 10317.42333)
(-14428.6895 6.032802876e-12 9822.135387)
(-13649.79234 0 9170.680457)
(-12641.36795 0 8423.442567)
(-11519.78362 9.145916186e-12 7640.407287)
(-10379.23545 0 6869.577045)
(-9284.486921 0 6142.741371)
(-8274.514996 0 5478.493982)
(-7374.186212 1.556306389e-12 4888.255938)
(-6598.700061 2.21130552e-12 4378.945302)
(-876.777789 0 9096.837897)
(-14.42753759 0 9045.466459)
(-591.1009275 0 9140.248831)
(-1610.48019 0 9161.814047)
(-1742.433583 0 9177.732463)
(-2089.928411 7.051609638e-11 9207.994886)
(-2437.80803 0 9239.788441)
(-2751.357194 0 9270.596678)
(-3042.716877 -9.919202814e-11 9298.930411)
(-3312.19343 0 9323.120565)
(-3557.045513 0 9341.483423)