/*--------------------------------*- C++ -*----------------------------------*\
  =========                 |
  \\      /  F ield         | OpenFOAM: The Open Source CFD Toolbox
   \\    /   O peration     | Website:  https://openfoam.org
    \\  /    A nd           | Version:  7
     \\/     M anipulation  |
\*---------------------------------------------------------------------------*/
FoamFile
{
    version     2.0;
    format      ascii;
    class       surfaceScalarField;
    location    "0.0021";
    object      phi;
}
// * * * * * * * * * * * * * * * * * * * * * * * * * * * * * * * * * * * * * //

dimensions      [1 0 -1 0 0 0 0];

internalField   nonuniform List<scalar> 
2260
(
-6.188519867e-13
6.481496685e-11
-2.421346584e-12
1.8950356e-10
-5.313180125e-12
3.067555116e-10
-9.189375847e-12
4.165870685e-10
-1.393689255e-11
5.190859109e-10
-1.943806362e-11
6.143753216e-10
-2.557317596e-11
7.026082458e-10
-3.222312201e-11
7.839672352e-10
-3.927103157e-11
8.586576684e-10
-4.66043121e-11
9.269029442e-10
-5.411563655e-11
9.889396631e-10
-6.170398146e-11
1.045013798e-09
-6.92753311e-11
1.095376782e-09
-7.674309029e-11
1.140282291e-09
-8.402814783e-11
1.179983151e-09
-9.105895423e-11
1.214729002e-09
-9.777135178e-11
1.244764064e-09
-1.041082699e-10
1.270325432e-09
-1.100194245e-10
1.291641833e-09
-1.154608985e-10
1.308932388e-09
-1.203948632e-10
1.322406185e-09
-1.247889451e-10
1.332261275e-09
-1.286161487e-10
1.338684851e-09
-1.318541757e-10
1.34185252e-09
-1.34485384e-10
1.341928464e-09
-1.364963001e-10
1.339065142e-09
-1.378771967e-10
1.333402717e-09
-1.386219799e-10
1.325068734e-09
-1.387278063e-10
1.31417739e-09
-1.381945382e-10
1.300828189e-09
-1.370242922e-10
1.285104109e-09
-1.352208368e-10
1.267069064e-09
-1.327887097e-10
1.246764235e-09
-1.29732133e-10
1.224202571e-09
1.199360949e-09
-6.217406153e-13
6.543670747e-11
-2.432755902e-12
1.913145752e-10
-5.338914221e-12
3.096616698e-10
-9.235587131e-12
4.204837413e-10
-1.401020493e-11
5.238605287e-10
-1.954553459e-11
6.199106514e-10
-2.572245355e-11
7.087851648e-10
-3.242217018e-11
7.906669518e-10
-3.952817695e-11
8.657636752e-10
-4.692777834e-11
9.343025454e-10
-5.4513519e-11
9.965254037e-10
-6.218394951e-11
1.052684229e-09
-6.984432368e-11
1.103037156e-09
-7.740698656e-11
1.147844954e-09
-8.47915693e-11
1.187367733e-09
-9.192493832e-11
1.22186237e-09
-9.87411761e-11
1.251580302e-09
-1.05181283e-10
1.276765539e-09
-1.111929327e-10
1.297653482e-09
-1.167301005e-10
1.314469556e-09
-1.217526629e-10
1.327428747e-09
-1.26226271e-10
1.336734884e-09
-1.301216941e-10
1.342580275e-09
-1.33414811e-10
1.345145636e-09
-1.360861464e-10
1.344599799e-09
-1.381205109e-10
1.341099506e-09
-1.395068285e-10
1.334789035e-09
-1.402377259e-10
1.325799631e-09
-1.403092552e-10
1.31424892e-09
-1.39720325e-10
1.300239259e-09
-1.384721678e-10
1.283855952e-09
-1.365677887e-10
1.265164685e-09
-1.340109977e-10
1.244207444e-09
-1.308052861e-10
1.220996859e-09
-1.269520897e-10
1.195507752e-09
-1.224486824e-10
1.167665105e-09
-1.172851198e-10
1.137326261e-09
-1.114403925e-10
1.104255065e-09
-1.048785526e-10
1.06808616e-09
-9.754594256e-11
1.028277498e-09
-8.937326858e-11
9.840552984e-10
-8.028720091e-11
9.343596281e-10
-7.02371818e-11
8.778029733e-10
-5.923892538e-11
8.126502173e-10
-4.743402864e-11
7.368183998e-10
-3.516262971e-11
6.478872615e-10
-2.30466738e-11
5.431105677e-10
-1.208148515e-11
4.194405042e-10
-3.729968031e-12
2.736110889e-10
1.02301802e-10
-6.195037816e-13
6.605621125e-11
-2.424148701e-12
1.931192202e-10
-5.320856482e-12
3.125583777e-10
-9.206341063e-12
4.24369226e-10
-1.396956161e-11
5.286237493e-10
-1.949495135e-11
6.254360412e-10
-2.56651267e-11
7.149553403e-10
-3.236272998e-11
7.97364555e-10
-3.947269447e-11
8.728736395e-10
-4.688342429e-11
9.417132752e-10
-5.44881357e-11
1.004130115e-09
-6.21858137e-11
1.060381907e-09
-6.988173478e-11
1.110733077e-09
-7.748783986e-11
1.155451059e-09
-8.492300807e-11
1.194802902e-09
-9.211302445e-11
1.229052387e-09
-9.899056158e-11
1.258457839e-09
-1.054949855e-10
1.283269963e-09
-1.11572047e-10
1.303730544e-09
-1.17173808e-10
1.320071317e-09
-1.222581077e-10
1.332513047e-09
-1.267884973e-10
1.341265273e-09
-1.307338174e-10
1.346525595e-09
-1.340680543e-10
1.348479874e-09
-1.367699461e-10
1.347301691e-09
-1.388227468e-10
1.343152307e-09
-1.402139827e-10
1.336180271e-09
-1.409350599e-10
1.326520708e-09
-1.409808847e-10
1.314294745e-09
-1.403493578e-10
1.299607733e-09
-1.390409626e-10
1.282547557e-09
-1.370579741e-10
1.263181697e-09
-1.344034519e-10
1.241552922e-09
-1.310801803e-10
1.217673588e-09
-1.270889238e-10
1.191516496e-09
-1.224263546e-10
1.163002536e-09
-1.170822034e-10
1.13198211e-09
-1.110359413e-10
1.098208803e-09
-1.042536987e-10
1.061303918e-09
-9.668720423e-11
1.020711003e-09
-8.827826691e-11
9.75646361e-10
-7.897294506e-11
9.250543062e-10
-6.874909632e-11
8.675791245e-10
-5.765778504e-11
8.01558906e-10
-4.587662014e-11
7.250372348e-10
-3.377199085e-11
6.357826321e-10
-2.196794957e-11
5.313065263e-10
-1.141997503e-11
4.088925296e-10
-3.489102985e-12
2.656802168e-10
9.88126991e-11
-6.125861839e-13
6.666879746e-11
-2.397258939e-12
1.94903893e-10
-5.262788756e-12
3.154239075e-10
-9.108139929e-12
4.282145772e-10
-1.382481341e-11
5.333404228e-10
-1.930005157e-11
6.309112792e-10
-2.541911485e-11
7.210744034e-10
-3.206732015e-11
8.040127604e-10
-3.913185145e-11
8.799381709e-10
-4.650323105e-11
9.490846549e-10
-5.407629285e-11
1.011703177e-09
-6.175110121e-11
1.068056715e-09
-6.943360458e-11
1.11841558e-09
-7.703598006e-11
1.163053435e-09
-8.447683246e-11
1.202243754e-09
-9.168128432e-11
1.236256839e-09
-9.858090696e-11
1.265357462e-09
-1.051136174e-10
1.289802674e-09
-1.112236476e-10
1.309840574e-09
-1.168611414e-10
1.325708811e-09
-1.219821925e-10
1.337634098e-09
-1.26548289e-10
1.345831369e-09
-1.305265354e-10
1.350503841e-09
-1.338890049e-10
1.351842343e-09
-1.366127775e-10
1.350025464e-09
-1.386796571e-10
1.345219187e-09
-1.400757055e-10
1.337576319e-09
-1.407910932e-10
1.327236095e-09
-1.408196392e-10
1.31432329e-09
-1.401583388e-10
1.298946432e-09
-1.388068216e-10
1.28119604e-09
-1.367665838e-10
1.261141459e-09
-1.340400427e-10
1.23882638e-09
-1.306292986e-10
1.214262843e-09
-1.265345186e-10
1.187421716e-09
-1.217519823e-10
1.15822e-09
-1.162713605e-10
1.126501488e-09
-1.100731238e-10
1.092010566e-09
-1.031262665e-10
1.054357061e-09
-9.538888996e-11
1.012973627e-09
-8.681456167e-11
9.670720327e-10
-7.736821696e-11
9.156079615e-10
-6.705362987e-11
8.572645373e-10
-5.595195382e-11
7.904572298e-10
-4.426891155e-11
7.133541924e-10
-3.238787911e-11
6.239015996e-10
-2.092695977e-11
5.19845607e-10
-1.079872692e-11
3.987642968e-10
-3.268897735e-12
2.581503877e-10
9.554380149e-11
-6.014861972e-13
6.727028366e-11
-2.354030695e-12
1.966564375e-10
-5.168953457e-12
3.182388303e-10
-8.948277834e-12
4.319939015e-10
-1.358700784e-11
5.379791528e-10
-1.897607051e-11
6.363003419e-10
-2.500430255e-11
7.271026355e-10
-3.156064451e-11
8.105691025e-10
-3.853545622e-11
8.869129828e-10
-4.582204603e-11
9.563712447e-10
-5.331766696e-11
1.019198798e-09
-6.092421477e-11
1.075663263e-09
-6.85489036e-11
1.126040269e-09
-7.610457959e-11
1.170609111e-09
-8.351003605e-11
1.209649211e-09
-9.069005466e-11
1.243436858e-09
-9.757549744e-11
1.272242905e-09
-1.041032083e-10
1.296330385e-09
-1.102159376e-10
1.315953304e-09
-1.158623201e-10
1.331355193e-09
-1.209966108e-10
1.342768389e-09
-1.255787095e-10
1.350413468e-09
-1.295738111e-10
1.354498943e-09
-1.329523473e-10
1.355220879e-09
-1.356898753e-10
1.352762992e-09
-1.377666359e-10
1.347295947e-09
-1.391673006e-10
1.338976984e-09
-1.398809269e-10
1.327949722e-09
-1.399002284e-10
1.314342592e-09
-1.392212703e-10
1.298267474e-09
-1.378428472e-10
1.279817617e-09
-1.357655779e-10
1.25906419e-09
-1.329912603e-10
1.236052063e-09
-1.295213274e-10
1.210792911e-09
-1.253555378e-10
1.183255926e-09
-1.204898456e-10
1.153354308e-09
-1.149142779e-10
1.12092592e-09
-1.086107034e-10
1.085706992e-09
-1.015516136e-10
1.047297971e-09
-9.370209098e-11
1.005124104e-09
-8.502780669e-11
9.583977484e-10
-7.551165822e-11
9.06091813e-10
-6.518059605e-11
8.469334752e-10
-5.414087973e-11
7.794175137e-10
-4.261957396e-11
7.018328868e-10
-3.100958957e-11
6.122916152e-10
-1.991711795e-11
5.087531354e-10
-1.021015818e-11
3.890573371e-10
-3.065235014e-12
2.510054646e-10
9.24785666e-11
-5.86743538e-13
6.785702719e-11
-2.296566954e-12
1.983662609e-10
-5.043942971e-12
3.209862063e-10
-8.734684094e-12
4.356846427e-10
-1.326806404e-11
5.425125327e-10
-1.853938487e-11
6.415716629e-10
-2.444199802e-11
7.330052488e-10
-3.086906948e-11
8.169961737e-10
-3.771501059e-11
8.937589239e-10
-4.487662806e-11
9.635328622e-10
-5.225408564e-11
1.026576255e-09
-5.975176481e-11
1.083160942e-09
-6.72786274e-11
1.133567132e-09
-7.474870385e-11
1.178079187e-09
-8.208135663e-11
1.216981863e-09
-8.920143469e-11
1.250556935e-09
-9.603933327e-11
1.279080803e-09
-1.025310845e-10
1.302822135e-09
-1.086183435e-10
1.322040563e-09
-1.142483388e-10
1.336985189e-09
-1.193738409e-10
1.347893891e-09
-1.239531402e-10
1.354992768e-09
-1.2794978e-10
1.358495583e-09
-1.313327698e-10
1.358603869e-09
-1.340760323e-10
1.355506255e-09
-1.361583371e-10
1.349378252e-09
-1.375632463e-10
1.340381893e-09
-1.382785786e-10
1.328665055e-09
-1.382959672e-10
1.31435998e-09
-1.376105182e-10
1.297582024e-09
-1.362201063e-10
1.278427205e-09
-1.341246397e-10
1.256968723e-09
-1.313250997e-10
1.233252522e-09
-1.278223744e-10
1.207290185e-09
-1.236157741e-10
1.179049326e-09
-1.18701255e-10
1.148439789e-09
-1.130694475e-10
1.115294113e-09
-1.067040448e-10
1.079341589e-09
-9.958153872e-11
1.040175464e-09
-9.167445545e-11
9.97217021e-10
-8.296031982e-11
9.496836128e-10
-7.343885751e-11
8.965703507e-10
-6.315735579e-11
8.366519734e-10
-5.224265766e-11
7.685028155e-10
-4.093731775e-11
6.90527547e-10
-2.963786533e-11
6.009921629e-10
-1.893415292e-11
4.98049423e-10
-9.648958609e-12
3.797721427e-10
-2.875168755e-12
2.442316748e-10
8.960339795e-11
-5.689240139e-13
6.842595121e-11
-2.227087449e-12
2.000244243e-10
-4.892625917e-12
3.236517447e-10
-8.475712319e-12
4.392677291e-10
-1.288045074e-11
5.469172711e-10
-1.800716047e-11
6.466983724e-10
-2.375438965e-11
7.387524777e-10
-3.002010168e-11
8.232618858e-10
-3.670330783e-11
9.004421301e-10
-4.370490363e-11
9.705344581e-10
-5.092860805e-11
1.03379996e-09
-5.82816159e-11
1.09051395e-09
-6.567513561e-11
1.140960652e-09
-7.302479159e-11
1.185428843e-09
-8.025085557e-11
1.224207927e-09
-8.727861014e-11
1.25758469e-09
-9.403833188e-11
1.285840525e-09
-1.004655659e-10
1.30924937e-09
-1.065010781e-10
1.328076075e-09
-1.120910017e-10
1.342575113e-09
-1.171868278e-10
1.352989717e-09
-1.21745385e-10
1.359551324e-09
-1.257289069e-10
1.362479105e-09
-1.291048761e-10
1.361979838e-09
-1.31845823e-10
1.358247201e-09
-1.339292798e-10
1.351461709e-09
-1.353375954e-10
1.341790209e-09
-1.360573638e-10
1.329384823e-09
-1.360791861e-10
1.314381803e-09
-1.353972014e-10
1.29690004e-09
-1.340083285e-10
1.277038332e-09
-1.319117116e-10
1.254872107e-09
-1.291076225e-10
1.230448434e-09
-1.255963497e-10
1.203778913e-09
-1.21376901e-10
1.174829877e-09
-1.164452929e-10
1.14350818e-09
-1.107930398e-10
1.109641859e-09
-1.044060649e-10
1.072954614e-09
-9.726526326e-11
1.033034663e-09
-8.93507146e-11
9.893024725e-10
-8.065151289e-11
9.409844109e-10
-7.118274393e-11
8.871015815e-10
-6.100920075e-11
8.264784302e-10
-5.027420479e-11
7.577678195e-10
-3.923087399e-11
6.794842161e-10
-2.827461126e-11
5.900359001e-10
-1.79756644e-11
4.877504761e-10
-9.111521384e-12
3.709079998e-10
-2.696642132e-12
2.378167956e-10
8.690675591e-11
-5.486193895e-13
6.897457063e-11
-2.147897988e-12
2.01623703e-10
-4.720016209e-12
3.262238629e-10
-8.179923765e-12
4.427276366e-10
-1.243693864e-11
5.51174286e-10
-1.739697963e-11
6.516584136e-10
-2.296411887e-11
7.443196171e-10
-2.904176381e-11
8.293395309e-10
-3.553379051e-11
9.06934157e-10
-4.234565293e-11
9.773463206e-10
-4.938501126e-11
1.040839318e-09
-5.656232145e-11
1.09769126e-09
-6.379140165e-11
1.148189732e-09
-7.098980394e-11
1.192627246e-09
-7.807912907e-11
1.231297252e-09
-8.498538045e-11
1.264490941e-09
-9.16390653e-11
1.29249421e-09
-9.797550608e-11
1.31558581e-09
-1.039348979e-10
1.334035467e-09
-1.094625544e-10
1.348102769e-09
-1.145088898e-10
1.358036052e-09
-1.190296337e-10
1.364072068e-09
-1.229857657e-10
1.366435237e-09
-1.263434307e-10
1.365337503e-09
-1.290740193e-10
1.36097779e-09
-1.311538459e-10
1.353541535e-09
-1.325640093e-10
1.343200372e-09
-1.332900067e-10
1.33011082e-09
-1.333214115e-10
1.314413208e-09
-1.326513823e-10
1.296230011e-09
-1.312759486e-10
1.275662898e-09
-1.291934177e-10
1.252789575e-09
-1.264033506e-10
1.227658366e-09
-1.229055183e-10
1.20028108e-09
-1.186986532e-10
1.170623012e-09
-1.137790268e-10
1.138588554e-09
-1.081392553e-10
1.104002088e-09
-1.017677143e-10
1.066583073e-09
-9.464994422e-11
1.025916893e-09
-8.677362276e-11
9.814261511e-10
-7.813876054e-11
9.323495489e-10
-6.877426863e-11
8.777370898e-10
-5.875982024e-11
8.164639819e-10
-4.825147115e-11
7.472594704e-10
-3.750880845e-11
6.687415534e-10
-2.692226547e-11
5.794493571e-10
-1.704018282e-11
4.778683934e-10
-8.595222328e-12
3.624630393e-10
-2.528074838e-12
2.317496482e-10
8.437868116e-11
-5.264282459e-13
6.950099887e-11
-2.061321331e-12
2.03158596e-10
-4.531150514e-12
3.286936922e-10
-7.855873693e-12
4.460523598e-10
-1.195037651e-11
5.552687888e-10
-1.672648804e-11
6.564345252e-10
-2.209399404e-11
7.496871233e-10
-2.796205186e-11
8.352075885e-10
-3.423984306e-11
9.132119479e-10
-4.083757331e-11
9.839440509e-10
-4.766711127e-11
1.047668856e-09
-5.464250281e-11
1.104666651e-09
-6.168050983e-11
1.155227738e-09
-6.870092863e-11
1.199647664e-09
-7.562703525e-11
1.238223359e-09
-8.238579508e-11
1.271249701e-09
-8.890830284e-11
1.299016718e-09
-9.512995978e-11
1.321807467e-09
-1.009907696e-10
1.339896277e-09
-1.06435411e-10
1.35354741e-09
-1.114136525e-10
1.363014294e-09
-1.158801751e-10
1.368538591e-09
-1.197950397e-10
1.370350101e-09
-1.231233397e-10
1.368665803e-09
-1.258352385e-10
1.363689689e-09
-1.279060107e-10
1.355612308e-09
-1.29315623e-10
1.344609984e-09
-1.300485436e-10
1.330843741e-09
-1.300933875e-10
1.314458051e-09
-1.294422575e-10
1.295578881e-09
-1.280903739e-10
1.274311014e-09
-1.260351787e-10
1.25073438e-09
-1.232755075e-10
1.224898695e-09
-1.198106871e-10
1.19681626e-09
-1.156392474e-10
1.166451572e-09
-1.107578418e-10
1.133707148e-09
-1.051603611e-10
1.098404607e-09
-9.883786539e-11
1.060260577e-09
-9.178065159e-11
1.018859679e-09
-8.39837731e-11
9.736292724e-10
-7.545742234e-11
9.238231981e-10
-6.624273905e-11
8.685224066e-10
-5.643176695e-11
8.066530097e-10
-4.61900506e-11
7.37017754e-10
-3.578003694e-11
6.583315397e-10
-2.558420435e-11
5.692535245e-10
-1.612742786e-11
4.68411617e-10
-8.098343336e-12
3.544339548e-10
-2.368324163e-12
2.26019629e-10
8.201035707e-11
-5.029338102e-13
7.000393267e-11
-1.969629801e-12
2.04625292e-10
-4.330960078e-12
3.310550224e-10
-7.51202778e-12
4.492334275e-10
-1.143348167e-11
5.591902428e-10
-1.601304995e-11
6.610140932e-10
-2.116653241e-11
7.548406056e-10
-2.680876891e-11
8.408498251e-10
-3.285450714e-11
9.192576862e-10
-3.921891463e-11
9.903084582e-10
-4.581825553e-11
1.054268197e-09
-5.257039257e-11
1.111418788e-09
-5.939518117e-11
1.162052527e-09
-6.621497085e-11
1.206467454e-09
-7.295493639e-11
1.244963324e-09
-7.954345626e-11
1.277838221e-09
-8.591247758e-11
1.305385739e-09
-9.19977943e-11
1.327892784e-09
-9.77394568e-11
1.345637939e-09
-1.030819697e-10
1.358889924e-09
-1.079745254e-10
1.36790685e-09
-1.123712987e-10
1.372935364e-09
-1.162314327e-10
1.374210235e-09
-1.195191614e-10
1.371953532e-09
-1.222036983e-10
1.366374225e-09
-1.242593844e-10
1.357667994e-09
-1.256652325e-10
1.346015833e-09
-1.264047079e-10
1.331583216e-09
-1.264654065e-10
1.31451875e-09
-1.258385449e-10
1.294952019e-09
-1.245184105e-10
1.27299088e-09
-1.225016588e-10
1.248717628e-09
-1.197864963e-10
1.222183532e-09
-1.163717354e-10
1.193401499e-09
-1.122558586e-10
1.162335696e-09
-1.074359866e-10
1.128887276e-09
-1.019074223e-10
1.092876043e-09
-9.566403369e-11
1.054017189e-09
-8.870090602e-11
1.011896552e-09
-8.102011381e-11
9.659484803e-10
-7.264118304e-11
9.154442671e-10
-6.361586555e-11
8.594970889e-10
-5.404626143e-11
7.970834054e-10
-4.410457095e-11
7.270760635e-10
-3.405318748e-11
6.482801561e-10
-2.426418436e-11
5.594645214e-10
-1.523781406e-11
4.593852467e-10
-7.619875816e-12
3.468160166e-10
-2.216592816e-12
2.206163461e-10
7.97937643e-11
-4.786986915e-13
7.048263137e-11
-1.87501232e-12
2.060216057e-10
-4.124235139e-12
3.333042453e-10
-7.156647736e-12
4.522658401e-10
-1.089858607e-11
5.629321811e-10
-1.527359809e-11
6.653891054e-10
-2.020355222e-11
7.597705598e-10
-2.560901614e-11
8.462552891e-10
-3.14101525e-11
9.250588227e-10
-3.752720776e-11
9.964255135e-10
-4.38809578e-11
1.060621947e-09
-5.039317267e-11
1.117931004e-09
-5.698706119e-11
1.168646416e-09
-6.358769711e-11
1.21306809e-09
-7.012244995e-11
1.251498077e-09
-7.652131779e-11
1.284237089e-09
-8.271737786e-11
1.311581799e-09
-8.864723523e-11
1.333822641e-09
-9.425126236e-11
1.351241966e-09
-9.94740333e-11
1.364112695e-09
-1.042645964e-10
1.372697413e-09
-1.085767502e-10
1.377247518e-09
-1.123690165e-10
1.378002502e-09
-1.156050204e-10
1.375189536e-09
-1.182533394e-10
1.369022545e-09
-1.202873766e-10
1.359702031e-09
-1.216852583e-10
1.347413715e-09
-1.224295605e-10
1.332327519e-09
-1.22507009e-10
1.314596199e-09
-1.219079196e-10
1.29435293e-09
-1.20625747e-10
1.271708707e-09
-1.186563452e-10
1.246748226e-09
-1.159973073e-10
1.219524494e-09
-1.126470697e-10
1.190051261e-09
-1.08604046e-10
1.158292672e-09
-1.038659914e-10
1.124149222e-09
-9.842970635e-11
1.087439758e-09
-9.229194812e-11
1.047879431e-09
-8.545240668e-11
1.00505701e-09
-7.791984566e-11
9.584159194e-10
-6.972213122e-11
9.072465529e-10
-6.092005433e-11
8.506950122e-10
-5.162355374e-11
7.87786905e-10
-4.200907762e-11
7.174615873e-10
-3.233664173e-11
6.386077203e-10
-2.296600834e-11
5.500938881e-10
-1.437215412e-11
4.507913925e-10
-7.1592745e-12
3.396031369e-10
-2.072333493e-12
2.155294051e-10
7.772143087e-11
-4.542609791e-13
7.093689238e-11
-1.779575162e-12
2.073469198e-10
-3.915588397e-12
3.354402584e-10
-6.797619422e-12
4.551478711e-10
-1.03574382e-11
5.664919999e-10
-1.452438152e-11
6.695560488e-10
-1.922602028e-11
7.644721986e-10
-2.438866348e-11
8.514179321e-10
-2.993778107e-11
9.3060794e-10
-3.579855099e-11
1.002286283e-09
-4.18962461e-11
1.066719642e-09
-4.815664732e-11
1.124191405e-09
-5.450641553e-11
1.174996184e-09
-6.087352573e-11
1.2194352e-09
-6.71876912e-11
1.257812243e-09
-7.338079544e-11
1.290430193e-09
-7.938742909e-11
1.317588433e-09
-8.514517438e-11
1.339580387e-09
-9.059510721e-11
1.356691899e-09
-9.568222493e-11
1.369199812e-09
-1.00355645e-10
1.377370833e-09
-1.045690705e-10
1.381460944e-09
-1.082808661e-10
1.381714297e-09
-1.114540806e-10
1.37836275e-09
-1.140567895e-10
1.371625253e-09
-1.160617581e-10
1.361707e-09
-1.1744636e-10
1.348798316e-09
-1.181924523e-10
1.333073611e-09
-1.182859196e-10
1.314689666e-09
-1.177162596e-10
1.29378327e-09
-1.164761303e-10
1.270468578e-09
-1.14560692e-10
1.244832788e-09
-1.119669305e-10
1.216930733e-09
-1.086929511e-10
1.186777282e-09
-1.047372558e-10
1.154336977e-09
-1.000982465e-10
1.119510213e-09
-9.477430754e-11
1.082115819e-09
-8.87650469e-11
1.04187017e-09
-8.207459179e-11
9.983665548e-10
-7.471779213e-11
9.510591195e-10
-6.673001797e-11
8.992587786e-10
-5.817954064e-11
8.421445347e-10
-4.918225943e-11
7.787896237e-10
-3.9916603e-11
7.081959308e-10
-3.063820532e-11
6.293293226e-10
-2.169329324e-11
5.411489759e-10
-1.353125111e-11
4.426293503e-10
-6.716025585e-12
3.327879115e-10
-1.935003983e-12
2.107483835e-10
7.578642696e-11
-4.301421436e-13
7.136703452e-11
-1.685351295e-12
2.08602129e-10
-3.709432602e-12
3.374643398e-10
-6.44244918e-12
4.578808877e-10
-9.821334029e-12
5.698708847e-10
-1.37809476e-11
6.735156621e-10
-1.82542138e-11
7.689454646e-10
-2.317282797e-11
8.563365464e-10
-2.846744059e-11
9.359025528e-10
-3.4068001e-11
1.007886844e-09
-3.99041779e-11
1.072555819e-09
-4.590566623e-11
1.130192893e-09
-5.200260467e-11
1.181093123e-09
-5.812599048e-11
1.225558586e-09
-6.420808267e-11
1.263894335e-09
-7.018291728e-11
1.296405028e-09
-7.598668854e-11
1.323392204e-09
-8.155839304e-11
1.345152091e-09
-8.684006278e-11
1.361973569e-09
-9.177735566e-11
1.374137105e-09
-9.631989e-11
1.381913368e-09
-1.004215168e-10
1.385562571e-09
-1.040405729e-10
1.385333354e-09
-1.07139956e-10
1.381462134e-09
-1.096874235e-10
1.374172721e-09
-1.116553077e-10
1.363674884e-09
-1.130204473e-10
1.350163456e-09
-1.137640332e-10
1.333817197e-09
-1.138711972e-10
1.31479683e-09
-1.133307809e-10
1.293242854e-09
-1.121347252e-10
1.269272523e-09
-1.102775189e-10
1.242975582e-09
-1.077556811e-10
1.214408895e-09
-1.045670242e-10
1.183588625e-09
-1.007101462e-10
1.150480098e-09
-9.618423264e-11
1.114984299e-09
-9.098923784e-11
1.076920824e-09
-8.512759748e-11
1.036008529e-09
-7.860759917e-11
9.918465565e-10
-7.144968031e-11
9.439012007e-10
-6.369547916e-11
8.915045774e-10
-5.541951883e-11
8.338685743e-10
-4.674190242e-11
7.701120072e-10
-3.784123462e-11
6.99295263e-10
-2.896710173e-11
6.204551896e-10
-2.045116956e-11
5.326330437e-10
-1.27172826e-11
4.348954633e-10
-6.290629648e-12
3.263612585e-10
-1.804556378e-12
2.062623103e-10
7.398187065e-11
-4.068151774e-13
7.177384969e-11
-1.594176894e-12
2.097894907e-10
-3.509756876e-12
3.393799199e-10
-6.097983756e-12
4.604691146e-10
-9.300639701e-12
5.730735406e-10
-1.30575121e-11
6.772725346e-10
-1.730668196e-11
7.731946345e-10
-2.198469038e-11
8.610145549e-10
-2.702699899e-11
9.409448615e-10
-3.236811579e-11
1.013227961e-09
-3.794189739e-11
1.0781296e-09
-4.368186375e-11
1.135932859e-09
-4.952161528e-11
1.186932874e-09
-5.539522861e-11
1.231432199e-09
-6.123757319e-11
1.269736679e-09
-6.698495651e-11
1.302152411e-09
-7.257555667e-11
1.328982804e-09
-7.794986116e-11
1.350526396e-09
-8.305126012e-11
1.367074967e-09
-8.782634557e-11
1.37891219e-09
-9.222550732e-11
1.386312529e-09
-9.620304583e-11
1.389540109e-09
-9.971758245e-11
1.388847889e-09
-1.027322012e-10
1.384476752e-09
-1.052145116e-10
1.376655031e-09
-1.071365722e-10
1.365596945e-09
-1.08474886e-10
1.35150177e-09
-1.092101672e-10
1.334552477e-09
-1.093270174e-10
1.31491368e-09
-1.088136613e-10
1.292729498e-09
-1.076614564e-10
1.268120317e-09
-1.058643546e-10
1.24117848e-09
-1.034184267e-10
1.211962968e-09
-1.003213085e-10
1.180491507e-09
-9.657183726e-11
1.146730627e-09
-9.216990422e-11
1.110582366e-09
-8.711709215e-11
1.071868012e-09
-8.141844978e-11
1.030309887e-09
-7.508620654e-11
9.855143134e-10
-6.814573461e-11
9.369607288e-10
-6.064410666e-11
8.840029495e-10
-5.266060637e-11
8.258850741e-10
-4.431799914e-11
7.617694002e-10
-3.579366009e-11
6.907709242e-10
-2.732972731e-11
6.11991257e-10
-1.924261272e-11
5.245459291e-10
-1.193089574e-11
4.275837465e-10
-5.882678923e-12
3.203130418e-10
-1.680551683e-12
2.02060183e-10
7.230131903e-11
-3.847151063e-13
7.21585648e-11
-1.507744369e-12
2.1091252e-10
-3.32026294e-12
3.411924384e-10
-5.770663681e-12
4.629195154e-10
-8.805047264e-12
5.761079243e-10
-1.236756118e-11
6.808350486e-10
-1.640088423e-11
7.772279577e-10
-2.084607275e-11
8.654597432e-10
-2.56428707e-11
9.457416591e-10
-3.072994278e-11
1.018315033e-09
-3.604509183e-11
1.08344475e-09
-4.15255157e-11
1.141413283e-09
-4.710814737e-11
1.192515506e-09
-5.273000237e-11
1.237054054e-09
-5.832873503e-11
1.275335412e-09
-6.384307341e-11
1.307666749e-09
-6.921327921e-11
1.33435301e-09
-7.438164417e-11
1.355694761e-09
-7.929309152e-11
1.371986415e-09
-8.389550935e-11
1.383514608e-09
-8.814026708e-11
1.390557287e-09
-9.198253289e-11
1.393382375e-09
-9.538143233e-11
1.392246789e-09
-9.830043382e-11
1.387395754e-09
-1.007072893e-10
1.379061887e-09
-1.025740945e-10
1.36746375e-09
-1.038772343e-10
1.352804909e-09
-1.045971496e-10
1.335272392e-09
-1.047180591e-10
1.315034589e-09
-1.042277544e-10
1.292239193e-09
-1.031170506e-10
1.267009613e-09
-1.01379536e-10
1.239440965e-09
-9.901092651e-11
1.209594358e-09
-9.600878331e-11
1.177489363e-09
-9.237217444e-11
1.143094018e-09
-8.810185797e-11
1.106312049e-09
-8.320095816e-11
1.066967112e-09
-7.767705453e-11
1.024785984e-09
-7.154580149e-11
9.793830603e-10
-6.48368822e-11
9.302518094e-10
-5.76020103e-11
8.767680777e-10
-4.992401008e-11
8.182070739e-10
-4.192690858e-11
7.537722986e-10
-3.378545821e-11
6.826294737e-10
-2.573348504e-11
6.039392837e-10
-1.807165033e-11
5.168840944e-10
-1.117378044e-11
4.206858765e-10
-5.49251218e-12
3.146317734e-10
-1.56291135e-12
1.981305822e-10
7.073840775e-11
-3.642282797e-13
7.252279311e-11
-1.42757895e-12
2.119758707e-10
-3.144330113e-12
3.429091896e-10
-5.466340329e-12
4.652415256e-10
-8.343330254e-12
5.789849142e-10
-1.172337847e-11
6.842150968e-10
-1.555295483e-11
7.81057534e-10
-1.97771054e-11
8.69683894e-10
-2.433942807e-11
9.503039819e-10
-2.918228909e-11
1.023157894e-09
-3.424702396e-11
1.088509485e-09
-3.947418774e-11
1.146640447e-09
-4.480388572e-11
1.197845203e-09
-5.017611117e-11
1.24242628e-09
-5.553126094e-11
1.280690562e-09
-6.081046192e-11
1.312945951e-09
-6.595624506e-11
1.339498793e-09
-7.09129146e-11
1.36065143e-09
-7.562714562e-11
1.376700646e-09
-8.004838011e-11
1.387935842e-09
-8.412930759e-11
1.394638214e-09
-8.782609542e-11
1.397079163e-09
-9.109881851e-11
1.395519513e-09
-9.39116002e-11
1.390208535e-09
-9.623263303e-11
1.38138292e-09
-9.803425847e-11
1.369265375e-09
-9.929295679e-11
1.354063608e-09
-9.99891046e-11
1.335968541e-09
-1.001067816e-10
1.315152267e-09
-9.963349165e-11
1.291765903e-09
-9.855975248e-11
1.265935875e-09
-9.687885592e-11
1.237760069e-09
-9.458636334e-11
1.207301865e-09
-9.167979941e-11
1.174582799e-09
-8.815859427e-11
1.139572813e-09
-8.402429146e-11
1.102177746e-09
-7.928151885e-11
1.06222434e-09
-7.394022684e-11
1.019444692e-09
-6.801920707e-11
9.734620406e-10
-6.15518132e-11
9.237844156e-10
-5.459326769e-11
8.698095321e-10
-4.722908217e-11
8.108428884e-10
-3.958335509e-11
7.461265714e-10
-3.182705354e-11
6.748731722e-10
-2.418500568e-11
5.962972358e-10
-1.694187826e-11
5.096409669e-10
-1.044737429e-11
4.141913726e-10
-5.120401109e-12
3.093048003e-10
-1.451535631e-12
1.944617168e-10
6.928687218e-11
-3.457118239e-13
7.286850494e-11
-1.355078435e-12
2.129852373e-10
-2.9850187e-12
3.445391298e-10
-5.190234449e-12
4.674467413e-10
-7.923443271e-12
5.81718123e-10
-1.113596852e-11
6.874276221e-10
-1.477748633e-11
7.846990519e-10
-1.879623131e-11
8.73702639e-10
-2.313909014e-11
9.546468407e-10
-2.775163178e-11
1.027770435e-09
-3.257831509e-11
1.093336168e-09
-3.756271124e-11
1.151624843e-09
-4.264787991e-11
1.202930372e-09
-4.777660326e-11
1.247555003e-09
-5.289187147e-11
1.28580583e-09
-5.793736807e-11
1.317991447e-09
-6.28579052e-11
1.34441933e-09
-6.759995656e-11
1.365393482e-09
-7.211214832e-11
1.381212838e-09
-7.634572251e-11
1.392169417e-09
-8.025493111e-11
1.398547423e-09
-8.379733788e-11
1.400621569e-09
-8.693413936e-11
1.398656314e-09
-8.963038905e-11
1.392904785e-09
-9.18550307e-11
1.383607561e-09
-9.358098247e-11
1.370991327e-09
-9.478508177e-11
1.355267707e-09
-9.544783606e-11
1.336631295e-09
-9.5553457e-11
1.315257888e-09
-9.508933863e-11
1.291301785e-09
-9.404597513e-11
1.264892511e-09
-9.241642709e-11
1.236130521e-09
-9.019620464e-11
1.205081643e-09
-8.7382951e-11
1.171769546e-09
-8.397657403e-11
1.136166437e-09
-7.997945083e-11
1.098180623e-09
-7.539764881e-11
1.057642537e-09
-7.024313421e-11
1.014290177e-09
-6.453752366e-11
9.677564301e-10
-5.831728034e-11
9.175641725e-10
-5.16403941e-11
8.631326459e-10
-4.459385278e-11
8.037963471e-10
-3.730099263e-11
7.388337113e-10
-2.99280962e-11
6.675002757e-10
-2.269038352e-11
5.890595232e-10
-1.585658998e-11
5.028071734e-10
-9.753023003e-12
4.080878056e-10
-4.76657694e-12
3.043183543e-10
-1.346317743e-12
1.910414576e-10
6.794055449e-11
-3.29481654e-13
7.319798658e-11
-1.29146842e-12
2.13947224e-10
-2.844996872e-12
3.460926583e-10
-4.946959384e-12
4.695487039e-10
-7.552492913e-12
5.843236566e-10
-1.061524233e-11
6.904903715e-10
-1.40874829e-11
7.881712925e-10
-1.791997687e-11
8.775351328e-10
-2.206212577e-11
9.587889895e-10
-2.646214522e-11
1.032170455e-09
-3.106712326e-11
1.097941146e-09
-3.582330133e-11
1.156381022e-09
-4.067626542e-11
1.207783337e-09
-4.557134416e-11
1.252450082e-09
-5.045415472e-11
1.290688641e-09
-5.527081182e-11
1.322808104e-09
-5.996844172e-11
1.34911696e-09
-6.449580204e-11
1.369920842e-09
-6.88036623e-11
1.385520698e-09
-7.284525399e-11
1.396211009e-09
-7.657660351e-11
1.402278772e-09
-7.995689312e-11
1.404001859e-09
-8.294883661e-11
1.401648257e-09
-8.551871289e-11
1.395474661e-09
-8.763649869e-11
1.385725348e-09
-8.927596863e-11
1.372630797e-09
-9.041450975e-11
1.356406248e-09
-9.103316861e-11
1.337249954e-09
-9.111642743e-11
1.315341147e-09
-9.065189706e-11
1.290837254e-09
-8.963010793e-11
1.263870722e-09
-8.804427156e-11
1.234544685e-09
-8.588995526e-11
1.202927327e-09
-8.316508938e-11
1.16904468e-09
-7.986996466e-11
1.132871312e-09
-7.60078423e-11
1.094318501e-09
-7.15862681e-11
1.053220963e-09
-6.661909183e-11
1.009323e-09
-6.113019945e-11
9.622675374e-10
-5.515860831e-11
9.115925811e-10
-4.876438412e-11
8.567384217e-10
-4.203512267e-11
7.970670856e-10
-3.50924817e-11
7.318910703e-10
-2.809744155e-11
6.605052355e-10
-2.125521959e-11
5.822173013e-10
-1.481880275e-11
4.963707566e-10
-9.091929212e-12
4.02360932e-10
-4.431264307e-12
2.996576893e-10
-1.247191502e-12
1.878573848e-10
6.669336303e-11
-3.15804392e-13
7.351379098e-11
-1.237787824e-12
2.148692075e-10
-2.726552442e-12
3.475814229e-10
-4.740573499e-12
4.715627249e-10
-7.236635749e-12
5.868197188e-10
-1.01699747e-11
6.934237105e-10
-1.349457023e-11
7.914958879e-10
-1.716301972e-11
8.812035824e-10
-2.112661854e-11
9.627525884e-10
-2.533550832e-11
1.036379345e-09
-2.973885184e-11
1.102344489e-09
-3.428502157e-11
1.160927191e-09
-3.892180595e-11
1.212420121e-09
-4.359697806e-11
1.257125254e-09
-4.825832935e-11
1.295349992e-09
-5.285433632e-11
1.327404111e-09
-5.733458179e-11
1.353597206e-09
-6.16501111e-11
1.374236371e-09
-6.575387653e-11