/*--------------------------------*- C++ -*----------------------------------*\
  =========                 |
  \\      /  F ield         | OpenFOAM: The Open Source CFD Toolbox
   \\    /   O peration     | Website:  https://openfoam.org
    \\  /    A nd           | Version:  7
     \\/     M anipulation  |
\*---------------------------------------------------------------------------*/
FoamFile
{
    version     2.0;
    format      ascii;
    class       volScalarField;
    location    "0.0021";
    object      thermo:mu;
}
// * * * * * * * * * * * * * * * * * * * * * * * * * * * * * * * * * * * * * //

dimensions      [1 -1 -1 0 0 0 0];

internalField   nonuniform List<scalar> 
1167
(
279066.7754
277079.1271
272861.0046
266725.7105
258908.409
249650.1385
239189.6998
227759.4037
215595.8051
202914.1938
189920.1048
176808.9651
163748.7914
150891.9772
138371.3103
126298.5256
114764.769
103840.9467
93580.52046
84016.86599
75166.50384
67033.35947
59607.04011
52866.90219
46783.16454
41321.25169
36440.35221
32097.31463
28247.81677
24847.88929
21854.12812
19224.80618
16920.76303
14905.33468
13144.98916
273908.1471
271904.2772
267652.7493
261471.3912
253600.5737
244291.4099
233776.2718
222306.883
210110.7847
197423.4306
184448.0104
171379.8909
158394.6251
145647.584
133270.2202
121373.4804
110046.2484
99355.82559
89349.57358
80056.28605
71490.46055
63646.37947
56511.01465
50057.03271
44252.14263
39056.82379
34427.95426
30320.39797
26688.74667
23488.19772
20675.08875
18208.25514
16049.12892
14162.07388
12514.68845
11077.57454
9824.447952
8731.839565
7779.05705
6947.744865
6221.904665
5587.574944
5032.562151
4546.308591
4119.604336
3744.503989
3414.123006
3122.508353
2864.472289
2635.53753
268765.1827
266745.9718
262463.0028
256238.7229
248325.0669
238964.6161
228405.6281
216903.539
204693.1638
192006.9737
179065.0538
166059.6047
153168.9134
140548.7493
128331.2654
116625.3415
105516.4368
95068.49852
85325.57814
76310.04527
68027.91412
60473.02088
53622.78419
47448.37875
41912.17103
36971.89044
32582.211
28696.4739
25268.681
22253.34002
19607.07784
17289.42194
15262.65676
13492.48696
11947.54574
10599.77398
9424.15947
8398.493283
7503.247734
6721.276675
6037.621173
5439.201093
4914.655685
4454.170186
4049.227668
3692.456306
3377.468978
3098.759759
2851.509157
2631.572629
263640.153
261606.7498
257294.8708
251035.5379
243080.3317
233675.7728
223085.909
211557.7001
199346.1041
186680.3598
173782.1387
160855.2847
148075.7609
135599.1735
123556.879
112055.132
101178.103
90983.62827
81508.29868
72771.99312
64774.96895
57503.69234
50932.91168
45028.91219
39750.38887
35052.88004
30889.387
27212.0569
23974.14287
21130.33827
18637.94551
16457.22035
14551.49589
12887.60674
11435.54968
10168.64453
9063.046208
8097.752101
7254.379044
6516.811075
5871.06268
5304.916954
4807.804582
4370.573753
3985.28913
3645.09793
3344.064788
3077.069313
2839.644037
2627.937478
258535.4909
256489.289
252154.024
245864.4254
237871.1435
228433.6007
217819.5395
206281.4755
194077.4851
181448.1042
168614.0794
155779.7854
143126.1492
130808.4062
118955.9818
107671.8404
97034.32532
87097.15984
77895.15876
69437.85797
61722.66846
54729.65142
48430.70454
42786.4693
37754.16943
33287.28669
29336.53682
25853.97057
22792.65329
20107.59999
17756.91537
15701.73449
13906.64725
12339.65698
10972.06222
9778.395418
8736.096849
7825.368954
7028.841043
6331.389202
5719.898627
5182.929841
4710.612608
4294.407051
3926.925531
3601.783021
3313.450247
3057.152241
2828.728261
2624.587803
253454.5675
251399.8401
247045.2377
240726.3634
232702.1227
223244.3999
212612.7601
201079.5779
188897.3904
176316.5037
163562.1771
150838.5353
138326.9478
126181.8898
114530.4088
103472.2226
93083.06536
83410.30214
74480.07194
66301.33808
58862.39043
52141.72951
46104.2402
40709.37161
35911.86742
31662.24991
27911.21999
24610.47722
21713.12254
19174.8297
16954.57444
15014.53229
13320.58566
11841.9322
10551.18244
9424.075871
8439.218105
7577.90133
6823.764877
6162.61721
5582.132791
5071.595929
4621.778641
4224.684837
3873.413051
3561.999817
3285.281054
3038.792101
2818.64713
2621.489342
248404.9713
246340.7648
241967.4754
235625.1442
227581.8001
218109.0833
207474.1874
195955.7889
183813.4942
171295.5334
158633.0358
146034.6873
133679.2532
121719.8376
110281.7413
99459.98025
89323.18398
79915.01053
71258.79115
63353.21625
56186.24097
49728.25211
43942.82708
38786.53722
34210.89419
30165.99103
26602.1384
23470.85236
20725.5434
18322.84931
16222.60324
14388.18076
12786.72013
11388.67297
10167.92556
9101.369428
8168.716334
7352.297093
6636.67727
6008.513527
5456.203959
4969.701068
4540.356919
4160.67726
3824.198187
3525.333611
3259.273161
3021.810175
2809.306026
2618.613873
243383.5186
241311.7739
236923.9837
230564.5705
222512.7604
213032.344
202409.6564
190915.5426
178827.1372
166389.6114
153836.7624
141377.0839
129190.7325
117428.5151
106210.9278
95629.80026
85749.79473
76608.98206
68221.71417
60586.96417
53682.85612
47479.3725
41935.73303
37005.79928
32640.02863
28787.76318
25399.15176
22425.62257
19821.27112
17543.68799
15553.79747
13816.30434
12299.48206
10975.07424
9818.147909
8806.732177
7921.601583
7146.029041
6465.459915
5867.325463
5340.685578
4876.105391
4465.461073
4101.716521
3778.802877
3491.471611
3235.190781
3006.057291
2800.625987
2615.937863
238393.0439
236315.833
231917.9951
225554.6603
217496.1167
208020.6849
197419.9339
185969.832
173943.0045
161600.0849
149170.9631
136864.1059
124858.6463
113302.6553
102313.7162
91980.49573
82358.86745
73482.73451
65363.49618
57991.21096
51343.34821
45384.47373
40071.35544
35356.50963
31189.17094
27517.80489
24292.63696
21465.64899
18991.84251
16829.77273
14941.49955
13293.00514
11853.75247
10596.73177
9498.135763
8537.064329
7695.302749
6956.996236
6308.407858
5737.668129
5234.462327
4789.912362
4396.368179
4047.241592
3736.795365
3460.086274
3212.854653
2991.407719
2792.540455
2613.441487
233436.4428
231355.934
226957.6253
220591.9636
212535.5374
203079.9558
192508.9837
181115.8595
169170.3433
156932.5434
144638.7582
132496.724
120683.6089
109343.9445
98590.74144
88505.74018
79143.2141
70530.94759
62673.19918
55557.97308
49157.25086
43432.57018
38339.95288
33829.00688
29848.1076
26346.19334
23273.57912
20582.81953
18229.96366
16174.57273
14379.91861
12813.20026
11445.10053
10249.81635
9204.607452
8289.584235
7487.482101
6783.25582
6163.927524
5618.265117
5136.534127
4710.365443
4332.536522
3996.813633
3697.830465
3430.92856
3192.070634
2977.75425
2784.992688
2611.107857
228519.5076
226440.6908
222042.4772
215679.7282
207637.1194
198209.261
187684.3705
176356.7858
164505.8321
152389.691
140245.1197
128279.047
116666.3404
105548.2747
95033.70069
85201.12124
76097.13223
67743.94684
60143.48652
53277.0471
47114.24733
41614.82714
36731.25853
32412.78393
28607.43233
25264.4212
22334.22775
19770.17369
17529.37742
15572.4986
13864.15072
12372.66212
11069.93314
9931.268437
8934.975103
8062.129416
7296.321707
6623.291169
6030.754111
5508.060452
5046.011571
4636.738275
4273.375763
3950.034262
3661.629675
3403.784425
3172.692161
2965.017214
2777.933816
2608.92243
223645.8397
221568.1117
217173.8349
210821.0391
202804.8035
193411.6468
182946.5202
171698.0449
159951.393
147969.2606
135985.3025
124205.2312
112801.0142
101911.4218
91641.05772
82059.83533
73211.91378
65115.02074
57764.2511
51139.08221
45205.59828
39920.4223
35235.38947
31099.20644
27459.25666
24264.88006
21467.30621
19020.95426
16883.96979
15018.16798
13389.42693
11967.21797
10724.61436
9637.971891
8686.592021
7852.460492
7119.982885
6475.618383
5907.711579
5406.151374
4962.233326
4568.480516
4218.430988
3906.529401
3627.930536
3378.468376
3154.592081
2953.104045
2771.321391
2606.872587
218814.5149
216740.1376
212354.6107
206023.5822
198037.7122
188692.618
178295.6382
167141.1151
155512.414
143673.5411
131860.0118
120275.3347
109087.8703
98431.25971
88404.31632
79074.95137
70480.99011
62634.14256
55527.16116
49135.02386
43420.70028
38340.68337
33844.43439
29879.79479
26395.02305
23339.75011
20665.91495
18329.08877
16288.46082
14507.00172
12951.79366
11593.47953
10406.2734
9367.527465
8457.470364
7658.957854
6957.109716
6339.077174
5793.792974
5311.673474
4884.475881
4505.079018
4167.341445
3865.996909
3596.491894
3354.839404
3137.658032
2941.942853
2765.117898
2604.947162
214028.4008
211959.6208
207590.3745
201286.586
193338.3875
184054.5049
173733.942
162684.3183
151186.137
139503.1459
127869.8593
116487.3398
105520.6538
95099.30225
85318.87624
76239.95654
67895.01685
60293.94115
53422.89473
47255.13504
41751.92526
36866.71899
32548.91279
28746.32976
25407.65222
22482.74794
19924.4947
17689.55659
15738.24816
14034.88784
12547.65349
11248.33454
10112.20552
9117.582687
8245.578101
7479.866493
6806.273797
6212.553056
5688.16567
5223.988237
4812.182023
4446.056523
4119.735816
3828.188115
3567.114229
3332.731619
3121.792001
2931.471649
2759.290328
2603.136308
209290.8584
207232.5679
202884.3847
196611.1327
188711.938
179495.8778
169267.4783
158329.0578
146971.0893
135453.5721
124008.8951
112835.1388
102094.6279
91913.05955
82377.62337
73546.06589
65447.64632
58084.71278
51442.97018
45491.49988
40189.40541
35489.95746
31341.69358
27692.21326
24490.55466
21687.55177
19237.1353
17097.05446
15228.768
13597.88055
12173.65754
10928.96083
9840.065957
8886.220914
8049.382077
7313.944415
6666.380991
6095.065241
5589.975859
5142.412866
4744.902162
4391.023971
4075.291294
3792.86657
3539.62093
3312.016033
3106.906493
2921.635195
2753.809308
2601.431278
204609.657
202561.2759
198235.7465
191999.5633
184160.386
175018.2524
164891.7796
154079.2966
142869.5426
131524.961
120276.303
109317.9697
98807.35664
88864.13014
79573.08945
70987.46407
63128.80264
55999.31877
49578.71471
43834.80635
38725.99646
34203.22043
30215.07076
26709.87111
23637.20368
20948.60657
18599.10563
16547.53928
14756.56783
13192.95783
11827.08659
10632.93927
9587.72727
8671.570494
7867.222677
7159.80992
6536.376168
5985.835828
5498.584719
5066.370274
4682.123271
4339.665174
4033.731685
3759.800278
3513.864715
3292.578361
3092.932368
2912.3833
2748.648117
2599.824105
199981.8219
197945.4242
193646.9148
187458.4791
179682.2567
170627.1037
160607.3781
149929.967
138879.1597
127716.2036
116669.2956
105929.5175
95650.17498
85947.12086
76899.97273
68554.37066
60932.65872
54028.34755
47822.14052
42278.15528
37353.21461
32998.48903
29162.51042
25793.76851
22842.38247
20260.94917
18005.74755
16036.72363
14317.75229
12816.70873
11505.11572
10357.94687
9353.303572
8472.126728
7697.927242
7016.424074
6415.29711
5884.020339
5413.357786
4995.415923
4623.446085
4291.614329
3994.833246
3728.797558
3489.703785
3274.314354
3079.790742
2903.67073
2743.782573
2598.307557
195409.9913
193387.5468
189122.5129
182986.4924
175279.0383
166319.9965
156417.5632
145880.4159
134996.2476
124021.6355
113181.7308
102664.1764
92619.84311
83156.43222
74348.92409
66242.10891
58849.25403
52165.42993
46165.20545
40812.88612
36064.43827
31869.74838
28177.64554
24937.5328
22100.30952
19619.68878
17452.93081
15561.12636
13909.41881
12466.73383
11205.62097
10102.06598
9135.054399
8286.320878
7540.139426
6882.761209
6302.416363
5788.975838
5333.705874
4929.061529
4568.542052
4246.583846
3958.357182
3699.685718
3466.993419
3257.129383
3067.412796
2895.456108
2739.193845
2596.875004
190896.7262
188892.6776
184665.6725
178583.9404
170955.8642
162096.3642
152320.9953
141933.7824
131221.0917
120440.1176
109812.2493
99520.8733
89709.66592
80483.65951
71915.49309
64040.82892
56873.16012
50401.33799
44600.88159
39432.89513
34852.36234
30809.86269
27254.64831
24136.40295
21406.85629
19020.85829
16936.94708
15117.37058
13528.4729
12140.24914
10926.28975
9863.438759
8931.527096
8113.040317
7392.852188
6757.864477
6196.874688
5700.103994
5259.161129
4866.884561
4517.06766
4204.313874
3924.08582
3672.316484
3445.615586
3240.937315
3055.738841
2887.701367
2734.859575
2595.520315
186450.0859
184463.4296
180274.7744
174252.409
166711.1931
157957.7836
148315.1278
138085.1532
127551.654
116969.1772
106555.7668
96490.75795
86912.98075
77925.35943
69590.71349
61944.95139
54995.44715
48730.77254
43121.74663
38130.59827
33711.25123
29813.80609
26388.16553
23385.00208
20757.00028
18460.28236
16454.34749
14702.62624
13172.59754
11835.29728
10665.31151
9640.401751
8741.202255
7950.953978
7255.078593
6641.024677
6098.014978
5616.791041
5189.267505
4808.525746
4468.706256
4164.605183
3891.833422
3646.554145
3425.46199
3225.670276
3044.713911
2880.371358
2730.759199
2594.237796
182066.3561
180098.664
175951.6554
169998.3549
162544.3438
153907.0155
144400.4311
134332.3067
123983.0262
113602.9401
103406.5436
93570.0186
84226.93865
75472.73103
67369.12205
59946.87939
53210.41521
47145.10929
41721.85534
36900.39513
32634.59564
28875.3983
25573.20913
22679.27916
20147.34297
17934.64847
16001.97368
14313.94491
12839.11234
11549.59433
10420.87664
9431.548484
8562.982039
7799.058239
7125.867574
6531.40393
6005.277473
5538.541741
5123.569157
4753.677431
4423.184815
4127.200951
3861.428705
3622.248282
3406.432455
3211.247378
3034.286941
2873.433352
2726.875078
2593.022121
177747.6522
175800.3613
171700.9502
165817.9701
158456.5599
149940.0091
140578.5849
130676.4572
120514.3335
110339.8557
100363.3534
90754.71166
81642.92366
73120.62617
65244.34661
58040.056
51510.90205
45639.3112
40394.13432
35735.9274
31617.59906
27990.26166
24805.16799
22014.65641
19573.65973
17440.48861
15576.99687
13949.03995
12526.16504
11281.46138
10191.39328
9235.394618
8395.576306
7656.410751
7004.50456
6428.32078
5918.027982
5464.940095
5061.684748
4701.981131
4380.269261
4091.899376
3832.726176
3599.275989
3388.433786
3197.59559
3024.410169
2866.856656
2723.190625
2591.86827
173496.6661
171573.4668
167523.3911
161712.1016
154452.1422
146056.5671
136844.7758
127114.4693
117143.6465
107176.6077
97419.67987
88037.76681
79156.86129
70863.56334
63209.15521
56219.02519
49890.72391
44206.4401
39133.97958
34632.0494
30654.42586
27153.24629
24079.98558
21387.88679
19033.03672
16974.96383
15176.73466
13605.39612
12231.53967
11029.13558
9975.514
9050.86434
8237.978384
7522.049781
6890.178553
6331.250095
5835.751322
5395.497898
5003.311384
4653.151794
4339.733601
4058.514724
3805.579651
3577.522999
3371.38442
3184.650706
3015.038611
2860.612277
2719.690126
2590.771474
37934.79287
33583.69372
29741.37994
26360.41517
23393.50117
20794.94895
18522.06836
16535.36018
14799.05146
13281.27025
11953.58515
10791.01466
9771.756728
8876.711315
8089.300841
7395.240335
6782.184717
6239.52805
5758.038703
5329.823474
4948.088715
4606.925235
4301.33725
4026.874227
3779.836252
3556.882352
3355.207736
3172.352277
3006.129763
2854.674453
2716.358634
2589.727182
)
;

boundaryField
{
    front_top
    {
        type            wedge;
    }
    front_middle
    {
        type            wedge;
    }
    front_bottom
    {
        type            wedge;
    }
    back_top
    {
        type            wedge;
    }
    back_middle
    {
        type            wedge;
    }
    back_bottom
    {
        type            wedge;
    }
    axis_top
    {
        type            symmetryPlane;
    }
    axis_middle
    {
        type            symmetryPlane;
    }
    axis_bottom
    {
        type            symmetryPlane;
    }
    wall_top
    {
        type            calculated;
        value           nonuniform 0();
    }
    wall_middle
    {
        type            calculated;
        value           uniform 2530.329233;
    }
    wall_bottom
    {
        type            calculated;
        value           nonuniform 0();
    }
    inlet
    {
        type            calculated;
        value           nonuniform 0();
    }
    outlet
    {
        type            calculated;
        value           nonuniform 0();
    }
    procBoundary4to3
    {
        type            processor;
        value           nonuniform List<scalar> 
51
(
169318.971
167418.5233
163417.9761
157683.2251
150526.8506
142260.0994
133197.9341
123642.7813
113865.7613
104107.6698
94570.61326
85416.38377
76763.74803
68694.48843
61259.68307
54476.57393
48344.63114
42841.40462
42841.40462
36792.65939
32585.95512
28873.24166
25607.67807
22742.54928
20233.19811
18038.11479
16119.06013
14441.45297
12974.47783
11690.62387
10565.83695
9579.044516
8711.89423
7948.558274
7275.216809
6679.966006
6152.626969
5684.39313
5267.57888
4895.706532
4563.091522
4264.878978
3996.838135
3755.366014
3537.252339
3339.814815
3160.643436
2997.64348
2849.019076
2713.181924
2588.731048
)
;
    }
    procBoundary4to5
    {
        type            processor;
        value           nonuniform List<scalar> 
51
(
284244.4021
282270.8616
278084.7782
271997.8036
264238.0243
255035.8795
244635.3516
233255.8109
221131.5944
208468.0621
195475.4321
182334.6791
169213.9506
156264.4142
143618.1008
131386.9967
119663.9574
108522.4389
98018.38079
88189.97759
79061.09454
70639.68241
62920.16069
55888.3716
49518.49266
43779.02332
38633.92532
34041.94818
29960.51109
26346.65777
23157.68796
20351.78781
17889.32719
15732.91804
13847.90894
11609.04855
11609.04855
10269.92597
9102.972628
8086.040066
7199.684465
6426.773744
5752.429597
5163.435719
4648.404534
4197.438441
3801.972655
3454.52268
3148.638423
2878.71024
2639.886324
)
;
    }
}


// ************************************************************************* //
