/*--------------------------------*- C++ -*----------------------------------*\
  =========                 |
  \\      /  F ield         | OpenFOAM: The Open Source CFD Toolbox
   \\    /   O peration     | Website:  https://openfoam.org
    \\  /    A nd           | Version:  7
     \\/     M anipulation  |
\*---------------------------------------------------------------------------*/
FoamFile
{
    version     2.0;
    format      ascii;
    class       volVectorField;
    location    "0.0021";
    object      U;
}
// * * * * * * * * * * * * * * * * * * * * * * * * * * * * * * * * * * * * * //

dimensions      [0 1 -1 0 0 0 0];

internalField   nonuniform List<vector> 
1167
(
(-6.287792369e-05 -3.888251293e-19 -0.004350758819)
(-0.0001623873179 -5.949873322e-19 -0.004347418506)
(-0.0002554307591 -5.549232434e-19 -0.004340171621)
(-0.0003512859606 -1.171763117e-18 -0.004329313444)
(-0.0004443762946 -2.076830622e-18 -0.004315227705)
(-0.0005342346931 -2.470641274e-18 -0.0042981681)
(-0.0006207764624 -3.52936169e-18 -0.004278340083)
(-0.000703811506 -3.851860992e-18 -0.004255953487)
(-0.000783209062 -3.804452777e-18 -0.004231207562)
(-0.0008588880067 -3.869538472e-18 -0.00420429102)
(-0.0009307998856 -3.980152797e-18 -0.004175378842)
(-0.0009989228093 -3.54057727e-18 -0.004144633184)
(-0.00106325748 -3.497806088e-18 -0.004112201974)
(-0.001123823143 -3.473524571e-18 -0.004078217652)
(-0.001180653296 -3.353285668e-18 -0.004042796561)
(-0.001233792349 -3.006897069e-18 -0.004006038791)
(-0.001283292553 -2.663317706e-18 -0.003968027862)
(-0.00132921124 -2.706076722e-18 -0.003928830669)
(-0.001371608178 -2.843922062e-18 -0.003888497651)
(-0.001410543462 -2.619000963e-18 -0.00384706325)
(-0.001446075956 -2.584747536e-18 -0.003804546235)
(-0.001478261333 -2.496327366e-18 -0.00376094994)
(-0.001507151112 -2.402860123e-18 -0.003716263127)
(-0.001532791158 -2.339657816e-18 -0.003670459648)
(-0.001555221076 -2.426724569e-18 -0.003623499096)
(-0.001574472818 -2.42322973e-18 -0.003575325786)
(-0.00159056932 -2.536562978e-18 -0.003525868192)
(-0.001603523409 -2.587948223e-18 -0.003475037548)
(-0.001613335875 -2.56787833e-18 -0.003422725246)
(-0.001619992795 -2.50654746e-18 -0.003368799192)
(-0.001623462024 -2.579548864e-18 -0.003313098917)
(-0.00162368871 -2.600462712e-18 -0.00325542842)
(-0.001620588554 -2.570098113e-18 -0.003195545818)
(-0.001614038372 -2.601704038e-18 -0.003133148815)
(-0.001603862503 -2.649265789e-18 -0.003067853525)
(-6.496875503e-05 -3.87701608e-19 -0.004518550074)
(-0.0001678356126 -8.436608892e-19 -0.004514924156)
(-0.0002640073726 -9.399295502e-19 -0.004507034744)
(-0.0003630475091 -1.452353602e-18 -0.004495234445)
(-0.0004592433677 -1.644973652e-18 -0.004479931772)
(-0.0005520838484 -3.193987981e-18 -0.004461405854)
(-0.0006414820232 -3.648958461e-18 -0.004439887238)
(-0.0007272414123 -3.818947655e-18 -0.004415608604)
(-0.0008092252112 -3.575380317e-18 -0.004388792327)
(-0.000887347944 -3.633847703e-18 -0.004359647892)
(-0.0009615578499 -3.725487117e-18 -0.004328371465)
(-0.001031831154 -3.492549242e-18 -0.004295143287)
(-0.001098167132 -3.18163033e-18 -0.004260127959)
(-0.001160583783 -3.226236387e-18 -0.004223472894)
(-0.001219113867 -3.220964243e-18 -0.004185307616)
(-0.001273801368 -3.049784321e-18 -0.004145743405)
(-0.00132469824 -2.760958045e-18 -0.00410487321)
(-0.001371861619 -2.881299214e-18 -0.004062771624)
(-0.00141535124 -2.903903815e-18 -0.004019495177)
(-0.001455227378 -2.742937896e-18 -0.003975082838)
(-0.001491548748 -2.601532126e-18 -0.003929556712)
(-0.001524371419 -2.51728276e-18 -0.00388292271)
(-0.001553747172 -2.491125399e-18 -0.003835170662)
(-0.001579722563 -2.487612734e-18 -0.00378627539)
(-0.001602337929 -2.612100321e-18 -0.00373619618)
(-0.001621625899 -2.740126315e-18 -0.003684876698)
(-0.001637610497 -2.73219344e-18 -0.003632244277)
(-0.001650305511 -2.490385793e-18 -0.003578208144)
(-0.001659712522 -2.424494486e-18 -0.003522656888)
(-0.00166581795 -2.533226263e-18 -0.003465454564)
(-0.001668589463 -2.475166264e-18 -0.003406435468)
(-0.001667970991 -2.535051011e-18 -0.003345396305)
(-0.001663875396 -2.571503885e-18 -0.00328208509)
(-0.001656174434 -2.380993009e-18 -0.003216185308)
(-0.001644683893 -2.42500885e-18 -0.003147292876)
(-0.001629142307 -2.45518209e-18 -0.003074882884)
(-0.001609179721 -2.495511817e-18 -0.002998260605)
(-0.001584272325 -2.537666574e-18 -0.002916490345)
(-0.001553678766 -2.321567464e-18 -0.002828294078)
(-0.001516354972 -2.138970079e-18 -0.002731914341)
(-0.001470851275 -1.967316693e-18 -0.002624945762)
(-0.001415206099 -1.943130704e-18 -0.002504155733)
(-0.001346860033 -2.088807213e-18 -0.002365325082)
(-0.001262610279 -2.194423898e-18 -0.002203134695)
(-0.001158610493 -1.752368621e-18 -0.002011100019)
(-0.001030410151 -1.250405302e-18 -0.001781531521)
(-0.0008730276525 -1.13078042e-18 -0.001505495662)
(-0.0006809651129 -9.498001523e-19 -0.001172809276)
(-0.0004479125832 -6.752860774e-19 -0.0007722041699)
(-0.0001660104557 -3.139822015e-19 -0.0002917469456)
(-6.701553728e-05 -6.099472692e-19 -0.004694296877)
(-0.0001731737946 -1.311848534e-18 -0.004690373503)
(-0.0002724144659 -2.17216193e-18 -0.004681818619)
(-0.0003745799797 -1.869346058e-18 -0.004669041541)
(-0.0004738290964 -2.823703419e-18 -0.004652476011)
(-0.0005696073501 -3.689870907e-18 -0.004632428239)
(-0.0006618261321 -3.9551829e-18 -0.004609153868)
(-0.0007502827795 -3.035574842e-18 -0.004582908404)
(-0.0008348344626 -3.502267132e-18 -0.004553938316)
(-0.0009153916073 -3.887793259e-18 -0.004522474064)
(-0.0009918987838 -3.485023152e-18 -0.004488731975)
(-0.001064329293 -3.122707007e-18 -0.00445291179)
(-0.001132680287 -3.089847748e-18 -0.00441519467)
(-0.001196967754 -3.043504014e-18 -0.004375742816)
(-0.001257222744 -2.66352074e-18 -0.0043346989)
(-0.001313487687 -2.929281586e-18 -0.004292185442)
(-0.00136581324 -3.198518572e-18 -0.004248304937)
(-0.001414255327 -3.155035067e-18 -0.004203139657)
(-0.001458872504 -2.715541967e-18 -0.004156752406)
(-0.00149972412 -2.553138485e-18 -0.004109187179)
(-0.001536868352 -2.544754826e-18 -0.004060469545)
(-0.001570360713 -2.468809325e-18 -0.004010608117)
(-0.00160025281 -2.384289397e-18 -0.003959594752)
(-0.001626591499 -2.520163558e-18 -0.003907405277)
(-0.00164941729 -2.659224531e-18 -0.003853999431)
(-0.001668763599 -2.781897713e-18 -0.003799320899)
(-0.001684655301 -2.799224016e-18 -0.003743296212)
(-0.001697107067 -2.718219198e-18 -0.003685833066)
(-0.001706121095 -2.569709115e-18 -0.003626817616)
(-0.00171168414 -2.525446156e-18 -0.003566110527)
(-0.00171376374 -2.645932715e-18 -0.003503541044)
(-0.001712302514 -2.52580498e-18 -0.003438898499)
(-0.001707210378 -2.494179007e-18 -0.003371920406)
(-0.001698353624 -2.354112528e-18 -0.003302275325)
(-0.001685539097 -2.217602708e-18 -0.003229538103)
(-0.001668491486 -2.220598361e-18 -0.00315315379)
(-0.001646820154 -2.140112394e-18 -0.003072385343)
(-0.001619971905 -2.171427231e-18 -0.002986238406)
(-0.00158716578 -2.051920884e-18 -0.002893356463)
(-0.001547309251 -2.052994642e-18 -0.002791884258)
(-0.001498902137 -1.79671482e-18 -0.002679308488)
(-0.00143994488 -1.802204568e-18 -0.002552300332)
(-0.001367874152 -2.01203561e-18 -0.002406590894)
(-0.001279541307 -1.932489195e-18 -0.00223689953)
(-0.001171232252 -1.77511188e-18 -0.002036908796)
(-0.001038719605 -1.520382012e-18 -0.001799259983)
(-0.0008773408461 -1.242724574e-18 -0.001515544045)
(-0.0006820112424 -9.565899364e-19 -0.001176323532)
(-0.0004469273658 -6.279503304e-19 -0.0007713175671)
(-0.0001648819398 -2.81328856e-19 -0.0002897993868)
(-6.902608524e-05 -6.81768375e-19 -0.004878125082)
(-0.0001784218969 -1.358346191e-18 -0.004873894074)
(-0.0002806835413 -1.916276925e-18 -0.004864654742)
(-0.0003859264674 -1.717998596e-18 -0.004850871765)
(-0.0004881884424 -1.884347603e-18 -0.004833004995)
(-0.0005868722542 -3.151510955e-18 -0.00481138896)
(-0.0006818870785 -4.086607559e-18 -0.004786303118)
(-0.0007730251254 -3.52564678e-18 -0.004758027167)
(-0.0008601374426 -3.369195222e-18 -0.004726830224)
(-0.0009431296925 -3.536893664e-18 -0.004692965381)
(-0.001021942985 -3.360389223e-18 -0.004656668319)
(-0.001096546892 -3.114375006e-18 -0.004618157221)
(-0.001166935139 -3.130104326e-18 -0.004577630346)
(-0.001233120952 -3.042736233e-18 -0.004535264866)
(-0.001295132701 -2.643727902e-18 -0.004491216355)
(-0.001353010317 -2.469317038e-18 -0.004445618432)
(-0.001406801927 -2.972551074e-18 -0.004398582889)
(-0.001456561009 -2.999137728e-18 -0.004350199911)
(-0.001502344317 -2.713881691e-18 -0.004300538805)
(-0.001544209363 -2.615147911e-18 -0.004249648544)
(-0.00158221296 -2.784651604e-18 -0.004197559127)
(-0.001616409507 -2.49525634e-18 -0.004144281975)
(-0.001646850212 -2.491774308e-18 -0.004089811609)
(-0.001673581422 -2.496000495e-18 -0.00403412532)
(-0.001696643924 -2.603952845e-18 -0.003977184209)
(-0.001716071725 -2.742050636e-18 -0.003918932373)
(-0.001731890266 -2.776519475e-18 -0.003859296096)
(-0.001744114985 -2.781775808e-18 -0.003798182242)
(-0.001752748757 -2.780628333e-18 -0.003735475087)
(-0.001757778745 -2.804500807e-18 -0.003671032166)
(-0.001759172194 -2.725495182e-18 -0.003604677817)
(-0.001756870263 -2.727269522e-18 -0.003536194047)
(-0.001750779781 -2.584882554e-18 -0.003465307653)
(-0.001740761324 -2.503748886e-18 -0.003391671638)
(-0.001726612444 -2.411747668e-18 -0.003314838712)
(-0.001708043476 -2.355144893e-18 -0.003234222711)
(-0.0016846428 -2.296347697e-18 -0.003149043109)
(-0.001655828026 -2.326477167e-18 -0.003058246155)
(-0.001620780141 -2.196567572e-18 -0.00296039793)
(-0.001578361939 -2.140495748e-18 -0.002853550079)
(-0.001527029609 -2.110519001e-18 -0.002735091845)
(-0.001464755635 -1.808429154e-18 -0.002601615664)
(-0.001388984057 -1.707872951e-18 -0.002448825387)
(-0.001296628588 -1.768458529e-18 -0.002271500345)
(-0.001184107053 -1.619726507e-18 -0.002063502199)
(-0.001047401939 -1.738031386e-18 -0.001817796623)
(-0.0008821411342 -1.429876772e-18 -0.001526466069)
(-0.0006836076788 -1.203642593e-18 -0.001180751341)
(-0.0004464425008 -6.994754619e-19 -0.000771250611)
(-0.0001640075666 -1.69108168e-19 -0.0002882939109)
(-7.101038718e-05 -4.46192936e-20 -0.005070189947)
(-0.0001836056369 1.821439955e-18 -0.005065642875)
(-0.0002888548268 -5.356444133e-19 -0.005055703954)
(-0.0003971422152 -1.208675979e-18 -0.005040891739)
(-0.0005023917707 -2.02988028e-18 -0.005021693532)
(-0.0006039629675 -2.702374263e-18 -0.004998471239)
(-0.0007017628329 -3.37918389e-18 -0.004971527916)
(-0.0007955790442 -2.717243896e-18 -0.004941168109)
(-0.0008852567054 -2.906676432e-18 -0.004907682657)
(-0.0009706962337 -3.164855698e-18 -0.004871346422)
(-0.0010518343 -3.146678999e-18 -0.004832415402)
(-0.001128636511 -3.319786588e-18 -0.004791125341)
(-0.001201092521 -3.204632116e-18 -0.004747690841)
(-0.001269211524 -3.208195915e-18 -0.004702303714)
(-0.001333018084 -2.937466055e-18 -0.004655132318)
(-0.001392548504 -2.55564477e-18 -0.004606321301)
(-0.001447847512 -2.34187045e-18 -0.004555991784)
(-0.00149896558 -2.51239717e-18 -0.004504241843)
(-0.001545956367 -2.645093631e-18 -0.004451147371)
(-0.001588874954 -2.635154762e-18 -0.004396762979)
(-0.001627776057 -2.681105922e-18 -0.004341122981)
(-0.001662712749 -2.402302753e-18 -0.00428424287)
(-0.001693734983 -2.426678565e-18 -0.004226119786)
(-0.001720888635 -2.499690541e-18 -0.004166733765)
(-0.001744214675 -2.653553234e-18 -0.004106047596)
(-0.001763747152 -2.733486786e-18 -0.004044006473)
(-0.001779512134 -2.886774633e-18 -0.003980537356)
(-0.001791525872 -2.903448509e-18 -0.003915546793)
(-0.001799791886 -2.793375693e-18 -0.003848917756)
(-0.001804297689 -2.75316726e-18 -0.003780504964)
(-0.001805010071 -2.672614318e-18 -0.003710127975)
(-0.00180186856 -2.739806063e-18 -0.003637561451)
(-0.00179477662 -2.531530727e-18 -0.003562521238)
(-0.001783588895 -2.583815927e-18 -0.0034846444)
(-0.001768093372 -2.665065966e-18 -0.003403460748)
(-0.001747985752 -2.556594266e-18 -0.003318351852)
(-0.001722833298 -2.515589945e-18 -0.003228492633)
(-0.001692024814 -2.320065865e-18 -0.003132769763)
(-0.001654704898 -2.090306284e-18 -0.003029673702)
(-0.001609695573 -1.93835295e-18 -0.002917168469)
(-0.00155541611 -2.025167935e-18 -0.002792556715)
(-0.001489819972 -2.002094671e-18 -0.002652368348)
(-0.001410367339 -1.920396085e-18 -0.002492298674)
(-0.001314039021 -1.59669238e-18 -0.002307202569)
(-0.001197381634 -1.407276062e-18 -0.002091126617)
(-0.00105657356 -1.219179021e-18 -0.001837350373)
(-0.0008875065805 -9.738165283e-19 -0.001538414844)
(-0.0006857919716 -7.389361123e-19 -0.001186178318)
(-0.0004464620269 -5.152842657e-19 -0.0007720251719)
(-0.0001633776452 -2.527664509e-19 -0.0002872165558)
(-7.298050294e-05 3.315544917e-18 -0.005270684072)
(-0.0001887559488 4.356890538e-18 -0.005265813938)
(-0.0002969767901 1.494107982e-18 -0.005255164088)
(-0.0004082941667 -4.611735334e-19 -0.005239305543)
(-0.0005165236305 -1.471056361e-18 -0.005218752822)
(-0.0006209800548 -2.021391588e-18 -0.005193894066)
(-0.0007215693835 -2.268765239e-18 -0.005165056968)
(-0.0008180747798 -3.059865105e-18 -0.005132569024)
(-0.0009103351838 -3.277423186e-18 -0.005096743769)
(-0.0009982458696 -2.694839535e-18 -0.005057875903)
(-0.001081738135 -3.267205792e-18 -0.005016241007)
(-0.001160772774 -3.010012481e-18 -0.004972092815)
(-0.001235334666 -3.070538223e-18 -0.004925661383)
(-0.001305428128 -3.422492163e-18 -0.004877152516)
(-0.001371072984 -3.615285023e-18 -0.004826747043)
(-0.001432301053 -3.130884484e-18 -0.004774600383)
(-0.001489152653 -2.781726278e-18 -0.004720842896)
(-0.001541674141 -2.614284112e-18 -0.004665580767)
(-0.001589915782 -2.664781509e-18 -0.004608896599)
(-0.001633929437 -2.674993125e-18 -0.004550850891)
(-0.001673767348 -2.573986807e-18 -0.004491483155)
(-0.001709480523 -2.401612566e-18 -0.004430813026)
(-0.001741117508 -2.365573245e-18 -0.004368841559)
(-0.001768723762 -2.367498939e-18 -0.004305551963)
(-0.001792339695 -2.322255565e-18 -0.004240909409)
(-0.00181199953 -2.425244222e-18 -0.004174861248)
(-0.001827730112 -2.550583367e-18 -0.00410733581)
(-0.001839548331 -2.560267542e-18 -0.004038239894)
(-0.001847458238 -2.529705997e-18 -0.003967455609)
(-0.001851447577 -2.517121227e-18 -0.003894835297)
(-0.001851482557 -2.501944112e-18 -0.003820193994)
(-0.001847500957 -2.481371911e-18 -0.00374329902)
(-0.001839402605 -2.363803446e-18 -0.003663854985)
(-0.001827035895 -2.494252447e-18 -0.003581482551)
(-0.001810178936 -2.683850689e-18 -0.003495688017)
(-0.001788512668 -2.644220991e-18 -0.003405820021)
(-0.001761583366 -2.449295974e-18 -0.003311008405)
(-0.001728751736 -2.285639709e-18 -0.003210080535)
(-0.001689127929 -2.146896772e-18 -0.003101453546)
(-0.001641497043 -2.111619706e-18 -0.002983009754)
(-0.001584247512 -2.246215979e-18 -0.002851975708)
(-0.001515321216 -2.345544904e-18 -0.002704833151)
(-0.001432200982 -2.403443653e-18 -0.002537284059)
(-0.001331937045 -2.201226551e-18 -0.002344269923)
(-0.001211199876 -1.691689781e-18 -0.002120023633)
(-0.001066349529 -1.219415967e-18 -0.001858125313)
(-0.0008935172345 -6.986646007e-19 -0.001551542134)
(-0.0006886074683 -1.819053693e-20 -0.001192694733)
(-0.0004469978371 1.660872283e-19 -0.0007736727651)
(-0.0001629877031 1.110175446e-19 -0.0002865616216)
(-7.495022275e-05 3.713042841e-18 -0.005479844822)
(-0.0001939086324 4.096405042e-18 -0.005474646489)
(-0.0003051061259 3.803431178e-18 -0.005463278481)
(-0.0004194602271 2.41755041e-18 -0.005446361819)
(-0.0005306811777 -1.82560072e-19 -0.005424437352)
(-0.0006380390696 -1.685169549e-18 -0.005397919422)
(-0.0007414392843 -2.804000148e-18 -0.005367160345)
(-0.0008406605454 -3.106679785e-18 -0.005332508685)
(-0.00093553514 -3.498781475e-18 -0.005294300292)
(-0.001025952795 -3.434753679e-18 -0.005252849625)
(-0.001111839547 -2.901046496e-18 -0.005208450193)
(-0.00119315027 -2.933774458e-18 -0.00516137246)
(-0.001269864103 -3.301417472e-18 -0.005111861836)
(-0.00134197988 -3.24370891e-18 -0.005060137574)
(-0.001409511783 -3.545856349e-18 -0.005006392353)
(-0.001472486173 -3.39302992e-18 -0.004950792246)
(-0.001530938376 -3.219184493e-18 -0.004893476757)
(-0.001584910252 -3.214538733e-18 -0.004834560144)
(-0.001634447622 -2.874195316e-18 -0.004774132156)
(-0.001679598903 -2.617316437e-18 -0.004712259586)
(-0.00172041326 -2.629373917e-18 -0.004648987401)
(-0.001756939311 -2.722551002e-18 -0.004584340425)
(-0.001789224338 -2.610641739e-18 -0.00451832426)
(-0.001817312574 -2.300942478e-18 -0.004450925871)
(-0.00184124401 -2.309950981e-18 -0.004382114009)
(-0.001861053254 -2.275439534e-18 -0.004311838946)
(-0.001876767609 -2.32070338e-18 -0.004240030898)
(-0.001888404462 -2.31300278e-18 -0.004166597641)
(-0.001895968374 -2.246588556e-18 -0.00409142101)
(-0.00189944716 -2.237006343e-18 -0.004014351342)
(-0.001898806314 -2.203001081e-18 -0.003935199468)
(-0.001893981747 -2.178440464e-18 -0.003853725419)
(-0.001884869439 -2.113318931e-18 -0.00376962239)
(-0.001871311293 -2.339415888e-18 -0.003682494212)
(-0.001853075245 -2.197375587e-18 -0.003591823104)
(-0.001829827304 -2.134530931e-18 -0.00349692424)
(-0.001801092964 -2.109364138e-18 -0.003396882223)
(-0.001766205784 -2.037270802e-18 -0.003290465951)
(-0.001724243621 -1.980637768e-18 -0.003176022137)
(-0.001673958472 -1.826889113e-18 -0.003051357555)
(-0.001613713427 -1.719384597e-18 -0.00291363254)
(-0.001541444859 -1.949053682e-18 -0.002759293123)
(-0.001454662702 -1.914381485e-18 -0.002584059856)
(-0.00135048681 -1.745462838e-18 -0.002382967895)
(-0.001225705242 -1.700426943e-18 -0.002150434278)
(-0.001076845537 -1.366271197e-18 -0.001880324393)
(-0.0009002557142 -1.059321506e-18 -0.001566000347)
(-0.0006921023495 -7.825668132e-19 -0.001200395006)
(-0.0004480677633 -2.164278519e-19 -0.0007762321291)
(-0.0001628370487 -9.389770268e-20 -0.000286329278)
(-7.693544404e-05 -2.657464576e-18 -0.005697963689)
(-0.0001991047072 -9.413758137e-19 -0.005692433762)
(-0.000313307065 4.353682977e-18 -0.005680343631)
(-0.0004307276209 2.700340363e-18 -0.005662360993)
(-0.0005449731346 -5.295602516e-19 -0.005639052228)
(-0.0006552692523 -2.008906186e-20 -0.005610859023)
(-0.0007615201941 -2.015828745e-18 -0.005578155811)
(-0.0008635006728 -2.241920612e-18 -0.005541312537)
(-0.0009610362203 -2.585645882e-18 -0.005500684359)
(-0.001054010101 -3.17299686e-18 -0.00545660581)
(-0.001142342577 -2.970025294e-18 -0.005409387471)
(-0.00122598231 -3.232753143e-18 -0.005359315229)
(-0.001304902104 -3.713108016e-18 -0.005306648865)
(-0.00137909437 -3.455150595e-18 -0.005251620462)
(-0.001448567091 -3.650044822e-18 -0.005194434156)
(-0.001513340704 -3.658726945e-18 -0.005135266336)
(-0.001573444814 -3.680407632e-18 -0.005074265615)
(-0.001628915893 -3.01963671e-18 -0.005011554394)
(-0.00167979532 -2.85492941e-18 -0.004947229732)
(-0.001726127389 -2.950411844e-18 -0.004881365175)
(-0.001767957927 -2.838699484e-18 -0.004814011973)
(-0.001805333293 -2.884595872e-18 -0.004745200709)
(-0.00183829876 -2.560425015e-18 -0.004674942188)
(-0.001866897508 -2.487765843e-18 -0.00460322823)
(-0.001891169246 -2.486969545e-18 -0.004530031987)
(-0.001911148623 -2.407872214e-18 -0.004455307167)
(-0.001926863182 -2.280738883e-18 -0.004378986709)
(-0.001938330781 -2.101572708e-18 -0.004300980204)
(-0.001945556502 -2.064916843e-18 -0.00422116983)
(-0.00194852815 -1.864166528e-18 -0.004139404303)
(-0.0019472104 -1.896698913e-18 -0.004055490443)
(-0.001941537045 -1.826133855e-18 -0.00396918105)
(-0.00193140002 -1.971144977e-18 -0.00388015785)
(-0.001916634539 -2.161057762e-18 -0.003788007537)
(-0.001896998185 -2.433729764e-18 -0.003692187857)
(-0.001872141979 -2.376207233e-18 -0.00359198016)
(-0.001841570948 -2.004075159e-18 -0.003486423951)
(-0.001804592522 -1.677005783e-18 -0.003374230892)
(-0.001760254419 -1.44150194e-18 -0.003253680524)
(-0.001707279131 -1.209015923e-18 -0.003122510273)
(-0.001644009194 -1.355598849e-18 -0.002977823346)
(-0.001568380269 -1.442532695e-18 -0.002816040585)
(-0.001477932157 -1.717192372e-18 -0.00263291006)
(-0.001369852944 -1.587209437e-18 -0.002423564296)
(-0.001241041127 -1.492709282e-18 -0.002182599716)
(-0.001088177978 -1.117791201e-18 -0.001904150844)
(-0.0009078071374 -7.001350911e-19 -0.001581944091)
(-0.0006963287941 -5.659431709e-19 -0.001209378244)
(-0.0004496942808 -4.163221707e-19 -0.0007797484413)
(-0.0001629278838 -3.476258137e-19 -0.0002865244244)
(-7.895371354e-05 -7.003095263e-18 -0.005925394771)
(-0.000204389396 -7.032982759e-19 -0.005919530717)
(-0.0003216501574 4.312383401e-18 -0.00590671632)
(-0.0004421915485 2.736624455e-18 -0.005887662224)
(-0.0005595186462 1.498211311e-18 -0.005862961147)
(-0.0006728119716 8.58481504e-19 -0.005833080916)
(-0.0007819738033 -8.217668854e-20 -0.005798415984)
(-0.0008867745367 -1.754855547e-18 -0.005759357598)
(-0.0009870334083 -1.603460717e-18 -0.005716279061)
(-0.001082626997 -3.147656014e-18 -0.005669532218)
(-0.001173468603 -3.437201872e-18 -0.005619444428)
(-0.001259500434 -3.363198669e-18 -0.005566316491)
(-0.00134068848 -3.150287968e-18 -0.005510421395)
(-0.001417018288 -3.732939195e-18 -0.005452003299)
(-0.001488491242 -4.154042775e-18 -0.00539127723)
(-0.001555120953 -4.250652787e-18 -0.005328429231)
(-0.001616930906 -3.616906727e-18 -0.005263617193)
(-0.001673952187 -3.074870666e-18 -0.00519697173)
(-0.001726221083 -3.013988637e-18 -0.005128597741)
(-0.001773777611 -3.023805063e-18 -0.005058575761)
(-0.001816664333 -2.962305746e-18 -0.004986964077)
(-0.001854924669 -2.862597035e-18 -0.004913799555)
(-0.001888602242 -2.508327973e-18 -0.004839099257)
(-0.001917739084 -2.408364782e-18 -0.004762860517)
(-0.001942374199 -2.467030414e-18 -0.004685061538)
(-0.001962542254 -2.646349246e-18 -0.004605660611)
(-0.001978271154 -2.670376876e-18 -0.004524594169)
(-0.00198957923 -2.381747977e-18 -0.004441774204)
(-0.00199647192 -2.195478316e-18 -0.004357083777)
(-0.001998936904 -1.991106214e-18 -0.004270370472)
(-0.001996937927 -1.845086996e-18 -0.004181437341)
(-0.001990406435 -1.898130961e-18 -0.004090030003)
(-0.001979230125 -1.964657801e-18 -0.003995818666)
(-0.001963237319 -2.029242624e-18 -0.003898372709)
(-0.001942175153 -2.13063283e-18 -0.003797125191)
(-0.001915679729 -2.186040413e-18 -0.003691323522)
(-0.001883236031 -2.070527281e-18 -0.003579962536)
(-0.001844126495 -1.547871376e-18 -0.003461698255)
(-0.001797370857 -1.446302589e-18 -0.003334746562)
(-0.00174166538 -1.294515712e-18 -0.003196781493)
(-0.001675336055 -1.335950736e-18 -0.00304485723)
(-0.001596321399 -1.238328064e-18 -0.002875378059)
(-0.001502192385 -1.221359154e-18 -0.002684125785)
(-0.001390202594 -1.119259996e-18 -0.002466331344)
(-0.001257353154 -1.059544868e-18 -0.002216763646)
(-0.001100465394 -7.53707681e-19 -0.00192980915)
(-0.0009162593306 -5.820137192e-19 -0.001599529845)
(-0.0007013430223 -2.754324443e-19 -0.001219747922)
(-0.0004519040872 2.124196562e-19 -0.0007842726379)
(-0.0001632648706 -6.340728732e-21 -0.0002871560178)
(-8.102376323e-05 4.082994883e-18 -0.00616256199)
(-0.0002098111658 2.62560529e-18 -0.006156361758)
(-0.0003302107034 6.168451499e-18 -0.006142821557)
(-0.0004539547605 3.289885522e-18 -0.006122692472)
(-0.0005744467675 3.148521446e-18 -0.006096593807)
(-0.0006908196033 1.029130329e-18 -0.006065016645)
(-0.0008029739777 8.675209259e-20 -0.006028375632)
(-0.000910675879 -1.360005313e-18 -0.005987080289)
(-0.001013737286 -1.79276964e-18 -0.0059415228)
(-0.0011120284 -3.27695183e-18 -0.005892070385)
(-0.001205455602 -4.191648419e-18 -0.005839065299)
(-0.00129395376 -3.83141679e-18 -0.005782822093)
(-0.001377481508 -3.853656649e-18 -0.005723626224)
(-0.001456017135 -3.838578859e-18 -0.005661733322)
(-0.001529554911 -3.933510602e-18 -0.005597368803)
(-0.001598101804 -3.843572223e-18 -0.005530728241)
(-0.001661675016 -3.482418806e-18 -0.005461978474)
(-0.001720299553 -3.34200431e-18 -0.005391258455)
(-0.001774006647 -3.502782147e-18 -0.005318681072)
(-0.001822832043 -3.270316451e-18 -0.005244334688)
(-0.001866814536 -3.099183604e-18 -0.00516828486)
(-0.001905995143 -3.304999218e-18 -0.005090575804)
(-0.00194041539 -3.056139523e-18 -0.005011231186)
(-0.001970115946 -2.927765328e-18 -0.004930254971)
(-0.00199513542 -2.925381533e-18 -0.004847631306)
(-0.002015508516 -3.094514893e-18 -0.004763323777)
(-0.002031263409 -2.95858961e-18 -0.004677273136)
(-0.002042418867 -2.733157301e-18 -0.004589394357)
(-0.002048980537 -2.466281796e-18 -0.004499571857)
(-0.002050935809 -2.246576183e-18 -0.004407652554)
(-0.002048247378 -1.841244348e-18 -0.004313436084)
(-0.002040844225 -2.005685196e-18 -0.004216661046)
(-0.002028609657 -1.953465922e-18 -0.004116986058)
(-0.002011364912 -1.921970247e-18 -0.004013963071)
(-0.001988846596 -2.051752718e-18 -0.00390700038)
(-0.00196067604 -2.227935591e-18 -0.003795311572)
(-0.001926318689 -2.137387926e-18 -0.003677847494)
(-0.001885033158 -1.944014571e-18 -0.003553210371)
(-0.001835813256 -1.832845563e-18 -0.003419556023)
(-0.001777331956 -1.60215686e-18 -0.003274500715)
(-0.001707901952 -1.476215805e-18 -0.00311505667)
(-0.001625467118 -1.138579995e-18 -0.002937618493)
(-0.001527629811 -9.878966546e-19 -0.002738005975)
(-0.001411705379 -1.280286742e-18 -0.002511546956)
(-0.001274789005 -1.671857839e-18 -0.002253173728)
(-0.001113828893 -1.319718048e-18 -0.001957507341)
(-0.0009257032201 -1.119838492e-18 -0.001618917796)
(-0.0007072045476 -1.133016743e-18 -0.001231611289)
(-0.0004547272911 -5.97237244e-19 -0.0007898602202)
(-0.0001638546407 -2.344988745e-19 -0.0002882361837)
(-8.31654449e-05 2.04887594e-18 -0.006409967195)
(-0.0002154211146 5.318842654e-19 -0.006403428604)
(-0.0003390689877 3.301285164e-18 -0.006389161638)
(-0.0004661274359 2.054972953e-18 -0.006367955241)
(-0.0005898949246 1.78213642e-18 -0.006340453415)
(-0.000709454841 1.535483058e-18 -0.006307169432)
(-0.0008247061393 -2.036002847e-19 -0.006268537998)
(-0.0009354106838 -9.787253146e-19 -0.006224984708)
(-0.001041372752 -1.507383294e-18 -0.006176918372)
(-0.001142455351 -2.329789358e-18 -0.0061247219)
(-0.001238557876 -3.276361311e-18 -0.006068750683)
(-0.001329607744 -3.668951915e-18 -0.006009331685)
(-0.001415556054 -4.041255497e-18 -0.00594676188)
(-0.001496373659 -3.881573216e-18 -0.005881307669)
(-0.001572047649 -3.787519464e-18 -0.005813204388)
(-0.001642577921 -3.498256947e-18 -0.005742656768)
(-0.001707975056 -3.531487045e-18 -0.005669840416)
(-0.001768258425 -3.591797743e-18 -0.005594902847)
(-0.001823453985 -3.441346199e-18 -0.005517965227)
(-0.001873593031 -3.296351827e-18 -0.00543912413)
(-0.001918711064 -3.377632674e-18 -0.005358453149)
(-0.001958846246 -3.25780951e-18 -0.005276004282)
(-0.001994038057 -3.234012364e-18 -0.005191808792)
(-0.002024326236 -3.272180239e-18 -0.005105878118)
(-0.002049749014 -3.304706103e-18 -0.005018203116)
(-0.002070340932 -3.356504995e-18 -0.004928753149)
(-0.002086130305 -3.369538913e-18 -0.004837474102)
(-0.002097136361 -3.355608808e-18 -0.004744284746)
(-0.002103364955 -3.034291688e-18 -0.004649071424)
(-0.002104803162 -2.757135324e-18 -0.00455168075)
(-0.002101412461 -2.843540139e-18 -0.004451909196)
(-0.002093119231 -2.570703045e-18 -0.004349488564)
(-0.002079802263 -2.696903773e-18 -0.004244065937)
(-0.002061275602 -2.564743018e-18 -0.004135175823)
(-0.0020372653 -2.514658337e-18 -0.004022201751)
(-0.002007378098 -2.524856024e-18 -0.003904323809)
(-0.001971060484 -2.48193717e-18 -0.003780449763)
(-0.001927548407 -2.242535632e-18 -0.00364913)
(-0.001875811631 -1.988798721e-18 -0.003508463861)
(-0.001814502366 -1.601306401e-18 -0.003356014959)
(-0.001741922513 -1.482106053e-18 -0.003188759392)
(-0.001656022645 -1.19893699e-18 -0.00300308724)
(-0.001554435521 -1.297109387e-18 -0.002794858447)
(-0.001434533996 -1.165837624e-18 -0.002559494748)
(-0.001293498857 -1.048911991e-18 -0.002292081922)
(-0.001128391963 -1.074661518e-18 -0.001987457235)
(-0.0009362324317 -6.412471113e-19 -0.001640271839)
(-0.0007139760558 -8.078869671e-20 -0.00124508016)
(-0.0004581970744 -9.689373905e-20 -0.0007965711545)
(-0.0001647054315 4.066802689e-20 -0.0002897795922)
(-8.539965259e-05 2.452022418e-19 -0.006668199196)
(-0.0002212737156 9.343306102e-19 -0.006661320097)
(-0.0003483107976 3.459725063e-18 -0.006646325324)
(-0.0004788262557 2.974532786e-18 -0.006624037742)
(-0.0006060082708 1.643389976e-18 -0.006595124705)
(-0.0007288897055 1.534856714e-18 -0.006560122469)
(-0.0008473668879 6.992107051e-19 -0.006519482847)
(-0.000961197109 -1.138826943e-18 -0.00647364806)
(-0.001070177419 -1.883309705e-18 -0.006423040818)
(-0.001174162898 -1.497576385e-18 -0.006368057795)
(-0.001273045437 -2.908160107e-18 -0.006309067316)
(-0.001366745116 -3.294038893e-18 -0.006246407877)
(-0.001455205606 -3.720033769e-18 -0.006180386987)
(-0.001538390257 -3.824321244e-18 -0.006111280692)
(-0.001616278492 -3.804321252e-18 -0.00603933361)
(-0.001688863391 -3.69924557e-18 -0.005964759637)
(-0.001756149368 -3.960916227e-18 -0.005887743143)
(-0.001818149809 -4.077397633e-18 -0.005808440267)
(-0.001874885653 -4.267527851e-18 -0.005726980678)
(-0.001926384096 -4.02969217e-18 -0.005643469627)
(-0.001972677006 -3.899017811e-18 -0.00555798923)
(-0.002013800076 -3.717845459e-18 -0.005470600079)
(-0.002049791213 -3.750793926e-18 -0.005381341771)
(-0.002080688896 -3.406075276e-18 -0.005290233618)
(-0.002106530913 -3.337750831e-18 -0.005197274183)
(-0.002127351886 -3.55944681e-18 -0.005102439504)
(-0.002143180458 -3.722342889e-18 -0.005005681156)
(-0.002154036256 -3.698467364e-18 -0.004906922272)
(-0.00215992529 -3.512006867e-18 -0.004806051706)
(-0.002160834302 -3.230659349e-18 -0.004702916171)
(-0.002156723412 -3.140208097e-18 -0.004597309222)
(-0.002147516276 -3.132100745e-18 -0.004488956052)
(-0.002133087046 -3.221180924e-18 -0.004377492335)
(-0.002113242526 -3.281862081e-18 -0.004262435221)
(-0.002087698238 -3.27243098e-18 -0.004143143595)
(-0.002056046562 -3.217845323e-18 -0.004018764456)
(-0.002017715601 -2.93617208e-18 -0.003888163533)
(-0.001971919732 -2.678343704e-18 -0.003749841491)
(-0.001917606358 -2.451819516e-18 -0.003601844644)
(-0.001853409019 -2.42972042e-18 -0.003441688613)