/*--------------------------------*- C++ -*----------------------------------*\
  =========                 |
  \\      /  F ield         | OpenFOAM: The Open Source CFD Toolbox
   \\    /   O peration     | Website:  https://openfoam.org
    \\  /    A nd           | Version:  7
     \\/     M anipulation  |
\*---------------------------------------------------------------------------*/
FoamFile
{
    version     2.0;
    format      ascii;
    class       volTensorField;
    location    "0.0018";
    object      grad(U);
}
// * * * * * * * * * * * * * * * * * * * * * * * * * * * * * * * * * * * * * //

dimensions      [0 0 -1 0 0 0 0];

internalField   nonuniform List<tensor> 
14000
(
(-0.002980502598 3.792215409e-17 -0.0001757250277 -2.647378579e-15 -0.004826901449 0 0.0005944225602 -2.936358148e-16 0.008367964102)
(-0.004006389747 -3.203398126e-16 -0.0004605657063 -9.255491727e-16 -0.004247662423 0 0.001558191336 -5.035156022e-16 0.008434539374)
(-0.004042522416 -6.51549581e-16 -0.0007589084434 -3.393573181e-16 -0.004096013839 0 0.002471930378 -6.451532073e-16 0.008586926674)
(-0.004278114987 -7.720845703e-16 -0.001037103057 -3.020668233e-17 -0.004111342787 0 0.003415791364 -5.284270393e-16 0.008808726031)
(-0.004486149607 -8.563119112e-17 -0.001321024723 1.449360987e-16 -0.004165832907 0 0.004364273492 -4.65112981e-16 0.009095533566)
(-0.004711530858 4.237221225e-16 -0.001605486369 2.032135697e-17 -0.004237160132 0 0.005309918223 -5.29539494e-16 0.009442397916)
(-0.004968818541 2.419589757e-16 -0.001889217742 -1.76798909e-17 -0.00432196212 0 0.00625382738 -3.644777771e-16 0.009844331403)
(-0.005253587532 1.424519099e-16 -0.0021734055 -4.726344825e-17 -0.004418381793 0 0.007197126135 -2.442797282e-16 0.0102966623)
(-0.005560168252 9.09617863e-17 -0.002459452126 -4.287779769e-17 -0.004524657866 0 0.008139997155 -1.443368017e-16 0.01079506317)
(-0.00588395607 6.638234216e-17 -0.002748627603 -5.259227727e-17 -0.00463926119 0 0.009082014501 -1.460642594e-16 0.01133553459)
(-0.006220433885 5.031911584e-17 -0.003042165756 -6.1152118e-17 -0.004760831745 0 0.01002221131 -1.44600087e-16 0.01191439614)
(-0.006564870781 3.751399209e-17 -0.003341272138 -4.592268727e-17 -0.004888096793 0 0.01095910971 -1.387441693e-16 0.01252827025)
(-0.006912345328 3.635122509e-17 -0.003647112947 -4.343483604e-17 -0.005019830882 0 0.01189073329 -1.287286371e-16 0.01317405996)
(-0.007257727547 4.216289761e-17 -0.00396079841 -6.201791786e-17 -0.005154835983 0 0.01281466148 -1.475996878e-16 0.01384893832)
(-0.00759564966 4.194896647e-17 -0.004283335992 -5.935846383e-17 -0.005291926705 0 0.01372810357 -1.607659633e-16 0.01455032473)
(-0.007920716211 4.407579949e-17 -0.004615676777 -4.756915965e-17 -0.005429921703 0 0.01462780796 -1.413374673e-16 0.01527586128)
(-0.00822767171 5.139039914e-17 -0.004958837842 -6.430977322e-17 -0.005567660249 0 0.01551007289 -1.467352058e-16 0.01602340479)
(-0.008510534448 5.794599654e-17 -0.005313938758 -7.123253356e-17 -0.005704009449 0 0.01637097082 -1.737091056e-16 0.01679102611)
(-0.008762039421 6.287029651e-17 -0.005682211399 -6.926216636e-17 -0.005837793981 0 0.01720622521 -1.962048109e-16 0.01757701555)
(-0.008974604049 6.386454774e-17 -0.006064897596 -6.754174736e-17 -0.00596777091 0 0.01801114929 -2.145917778e-16 0.01837987662)
(-0.009141156329 6.14088374e-17 -0.006463176935 -6.60358619e-17 -0.006092671505 0 0.01878080624 -2.308620953e-16 0.01919830888)
(-0.00925476601 5.918580445e-17 -0.006878350831 -6.471571143e-17 -0.006211239957 0 0.01951004882 -2.453130444e-16 0.02003120981)
(-0.009307040071 2.329412547e-16 -0.007311918095 -4.766823438e-17 -0.006322225944 0 0.02019354072 -2.752191688e-16 0.02087768963)
(-0.009288341087 3.956365873e-16 -0.007765230553 -7.817758198e-17 -0.006424303168 0 0.02082575589 -3.16221996e-16 0.02173707391)
(-0.009189579504 3.879176708e-16 -0.008239336129 -7.706574866e-17 -0.006516095903 0 0.02140097637 -3.553569514e-16 0.02260886687)
(-0.009000947664 3.812444906e-16 -0.008734945162 -9.131319782e-17 -0.006596230101 0 0.02191336368 -3.773874956e-16 0.02349274282)
(-0.008711663207 1.98336276e-16 -0.009252022986 -9.029848684e-17 -0.006663268996 0 0.02235698949 -3.988013379e-16 0.02438852181)
(-0.008310621495 2.399956219e-17 -0.009789483818 -8.941983633e-17 -0.006715746987 0 0.0227259162 -4.058266775e-16 0.02529610939)
(-0.007785678653 1.855979022e-16 -0.01034484967 -8.866445155e-17 -0.006752154272 0 0.02301416321 -4.115563377e-16 0.0262154492)
(-0.00712483203 3.444206138e-16 -0.01091393673 -7.335108951e-17 -0.006770928166 0 0.02321569148 -4.293978163e-16 0.02714642531)
(-0.006314756629 2.038657145e-16 -0.01149062549 -8.748085975e-17 -0.006770502181 0 0.02332456301 -4.477660257e-16 0.02808876826)
(-0.005339276624 8.59865418e-17 -0.01206634945 -1.160464169e-16 -0.006749224227 0 0.02333490628 -4.559109881e-16 0.02904193154)
(-0.004181931836 1.12591237e-16 -0.01262986639 -1.155679005e-16 -0.006705338431 0 0.02324089231 -4.654689505e-16 0.03000491994)
(-0.002826737899 1.283171306e-16 -0.01316757051 -1.151971434e-16 -0.006637039829 0 0.02303681895 -4.756922916e-16 0.03097611412)
(-0.001255529131 1.475725247e-16 -0.01366385537 -1.149267157e-16 -0.006542485361 0 0.02271720303 -4.87002113e-16 0.03195310936)
(0.0005527054624 1.721391156e-16 -0.01410131983 -1.00406313e-16 -0.006419728643 0 0.02227676319 -4.998528856e-16 0.03293254978)
(0.002620181968 1.971863028e-16 -0.01446127522 -1.146614276e-16 -0.006266713983 0 0.0217104318 -5.137951131e-16 0.03390998032)
(0.004969789597 2.173866895e-16 -0.01472438516 -1.146556632e-16 -0.006081290108 0 0.02101341087 -5.28328049e-16 0.03487976071)
(0.007626312991 2.387977412e-16 -0.01487108744 -1.003872036e-16 -0.005861224427 0 0.0201812635 -5.435469125e-16 0.0358350343)
(0.01061720742 1.302301072e-16 -0.01488154302 -1.00515711e-16 -0.005604171332 0 0.01920993045 -5.599295734e-16 0.03676778825)
(0.01397046968 2.270382613e-17 -0.01473529036 -1.007060803e-16 -0.005307663721 0 0.01809573432 -5.694429622e-16 0.03766896146)
(0.01771445576 5.364669775e-17 -0.01441053774 -1.153777233e-16 -0.004969159663 0 0.01683546383 -5.702782202e-16 0.03852864287)
(0.02187863129 8.672493326e-17 -0.01388261953 -1.157274236e-16 -0.004586036982 0 0.01542643516 -5.629019787e-16 0.03933629236)
(0.0264942381 1.16550346e-16 -0.01312191783 -1.161392086e-16 -0.004155609755 0 0.01386656752 -5.571398769e-16 0.04008096868)
(0.03159274076 1.467884072e-16 -0.01209120899 -1.093226307e-16 -0.003675104119 0 0.01215437691 -5.533645015e-16 0.0407515334)
(0.03718846817 1.790563146e-16 -0.01074336373 -1.098189184e-16 -0.003141719458 0 0.01028910039 -5.51144175e-16 0.04133679473)
(0.04328151574 5.201507929e-17 -0.009021167713 -1.103676776e-16 -0.002553073209 0 0.008271531321 -5.505551372e-16 0.04182560808)
(0.05006817569 -7.802394446e-17 -0.00684917474 -1.072684748e-16 -0.001907116826 0 0.0061042664 -5.42383906e-16 0.04220697008)
(0.05806484524 -4.918474457e-17 -0.004088138228 -1.041755926e-16 -0.001197145994 0 0.003782066707 -5.346388462e-16 0.04246973247)
(0.06465515906 -1.675042922e-17 -0.00126678237 -1.038908519e-16 -0.0004093046442 0 0.001283704629 -5.349151357e-16 0.04260044643)
(-0.007645899736 2.260188398e-15 -0.0005571410917 -5.848031787e-15 -0.01240715553 0 0.0003451434512 7.9104136e-17 0.02173841789)
(-0.01018567264 2.874502833e-15 -0.001325025995 -3.96308859e-15 -0.01090481587 0 0.0009009501705 2.251557206e-16 0.02177222989)
(-0.01004370723 5.67468623e-16 -0.00214017599 -3.42553597e-15 -0.01045263835 0 0.001413396175 -9.99418175e-17 0.02183778033)
(-0.01028497315 -5.770831659e-16 -0.002921694088 -2.17807478e-15 -0.01037874721 0 0.001921602247 -3.675248443e-16 0.02193462447)
(-0.01035231547 1.721088065e-16 -0.00367525995 -1.643658268e-15 -0.01036573362 5.024197213e-14 0.00240426669 -6.041645563e-16 0.02205900266)
(-0.01036858875 -1.33722684e-15 -0.004392409116 -1.465286212e-15 -0.01036167885 0 0.002851525994 -5.255195232e-16 0.02220704349)
(-0.01037693654 -2.524463357e-15 -0.005071135419 -8.079853825e-16 -0.01036086071 0 0.003259244937 -4.963181799e-16 0.02237522014)
(-0.01037399191 -1.945698928e-15 -0.005711228664 -4.479954361e-16 -0.01036102159 0 0.003624244602 -4.867687838e-16 0.02256006812)
(-0.01035290617 -8.75503896e-16 -0.006313132033 -1.741822401e-16 -0.01036009067 0 0.00394359055 -4.880996001e-16 0.02275813509)
(-0.01030825626 -6.46256219e-17 -0.006877739802 -1.602339875e-16 -0.01035638133 0 0.004214739675 -4.904670743e-16 0.02296605642)
(-0.01023468124 -1.151116195e-16 -0.007406175898 -1.490507461e-16 -0.01034842174 0 0.004435630324 -5.004454039e-16 0.02318060046)
(-0.01012671412 -1.794692626e-16 -0.007899609321 -1.399136086e-16 -0.01033487713 0 0.004604681862 -5.137210625e-16 0.02339869006)
(-0.009978988209 5.259752432e-17 -0.008359276077 -1.323338204e-16 -0.01031448583 0 0.004720632596 -4.896241181e-16 0.02361743521)
(-0.009786829796 2.517300189e-16 -0.008786445289 -1.259675221e-16 -0.01028607214 0 0.004782547697 -4.686093675e-16 0.02383414294)
(-0.009544948794 -1.093019843e-16 -0.009182322561 -1.205657794e-16 -0.01024858184 0 0.004789908882 -4.527828768e-16 0.02404634649)
(-0.009246660099 -1.71236246e-16 -0.009548124917 -1.159439603e-16 -0.01020093223 0 0.004742541599 -4.414961866e-16 0.02425181839)
(-0.008886707971 2.7013807e-16 -0.009885161585 -9.330186984e-17 -0.0101419921 0 0.004640613139 -4.290715593e-16 0.02444856451)
(-0.008460820589 4.326383624e-16 -0.01019493221 -1.265982929e-16 -0.01007077715 0 0.004484596095 -4.182790909e-16 0.02463481598)
(-0.007963549632 3.503646453e-16 -0.01047907241 -1.230964502e-16 -0.009986348608 0 0.004275365094 -4.113681152e-16 0.02480903526)
(-0.00739007371 2.935659419e-16 -0.01073923277 -1.20038829e-16 -0.009887768488 0 0.004014386144 -4.075901948e-16 0.02496988785)
(-0.006736417293 2.614786464e-16 -0.01097723283 -1.676606975e-16 -0.009774192226 0 0.003703580062 -4.070074741e-16 0.02511623802)
(-0.00599852436 4.19725859e-16 -0.01119521784 -1.643089226e-16 -0.009644836111 0 0.003345170057 -4.092225757e-16 0.02524712783)
(-0.005173435094 5.458484381e-16 -0.0113956153 -1.290949363e-16 -0.009498976082 8.262075925e-15 0.002941770763 -3.938626952e-16 0.02536173346)
(-0.004258812876 4.998479135e-16 -0.01158092871 -1.429111612e-16 -0.009336005575 0 0.002496601285 -3.499947819e-16 0.02545932203)
(-0.003251986634 3.060626309e-16 -0.01175375993 -1.878382584e-16 -0.009155391431 0 0.002013428088 -3.300611777e-16 0.02553923297)
(-0.002151599304 1.25186583e-16 -0.01191694117 -2.009264279e-16 -0.008956661479 0 0.001496421797 -2.97614804e-16 0.02560081616)
(-0.0009580785775 1.354078108e-16 -0.01207330241 -2.139777751e-16 -0.008739471866 -7.825472916e-15 0.0009503240823 -2.53259441e-16 0.0256433928)
(0.0003277082021 1.286509375e-16 -0.01222562608 -1.816248529e-16 -0.008503610904 0 0.0003803483207 -2.427991075e-16 0.02566624106)
(0.001704849062 1.072805065e-16 -0.01237640136 -1.65083009e-16 -0.008248972261 7.68386369e-15 -0.0002077739834 -2.353130328e-16 0.02566857616)
(0.003171184891 1.106925829e-16 -0.01252740383 -1.638855485e-16 -0.007975540571 0 -0.0008077169624 -2.04771694e-16 0.02564954954)
(0.004722038803 1.324840306e-16 -0.01267936187 -1.77686506e-16 -0.007683431742 -7.581290923e-15 -0.001412723648 -1.767657143e-16 0.02560827535)
(0.006350890049 1.43950673e-16 -0.01283118562 -1.620488088e-16 -0.007372933549 0 -0.002015465914 -1.727581706e-16 0.02554388665)
(0.008050392834 1.491309202e-16 -0.01297914062 -1.467096381e-16 -0.00704449623 0 -0.002607947214 -1.690124523e-16 0.02545563794)
(0.009811525749 1.621196129e-16 -0.01311621866 -1.608628717e-16 -0.006698717719 0 -0.00318165934 -1.79487901e-16 0.0253430136)
(0.01162216458 1.845352329e-16 -0.01323143167 -1.896643778e-16 -0.006336371889 0 -0.003727599698 -1.781199192e-16 0.02520584351)
(0.01346741242 2.030580097e-16 -0.01330930773 -1.893728615e-16 -0.005958447663 0 -0.004236147396 -1.780171645e-16 0.02504442021)
(0.01533017508 2.091129872e-16 -0.01333003041 -1.89226571e-16 -0.005566149133 0 -0.004697070392 -1.685062286e-16 0.02485960404)
(0.01719043916 2.152713598e-16 -0.01327007406 -1.746618996e-16 -0.005160901037 0 -0.005099500875 -1.405910025e-16 0.02465290173)
(0.0190244591 2.296448538e-16 -0.01310366381 -1.747724491e-16 -0.004744370701 0 -0.005432057342 -1.046855177e-16 0.02442652)
(0.02080511507 2.580510052e-16 -0.01280480748 -1.822876858e-16 -0.004318493849 -7.466503611e-15 -0.00568277832 -7.1032926e-17 0.02418338863)
(0.02250289957 1.33593131e-16 -0.0123498544 -1.82632925e-16 -0.003885472631 0 -0.005839096976 -5.469127766e-17 0.02392718185)
(0.02408507439 -1.564091724e-16 -0.01172024218 -1.830852681e-16 -0.003447760731 0 -0.005887976437 -4.935338418e-17 0.02366233219)
(0.02551481146 -2.931284707e-16 -0.01090497689 -1.616033622e-16 -0.003008086309 0 -0.005815962811 -4.396851452e-17 0.02339407468)
(0.026751399 -2.68212006e-16 -0.00990296886 -1.621783845e-16 -0.002569459322 0 -0.005609335547 -3.822046265e-17 0.02312853227)
(0.02775076152 -2.427519284e-16 -0.008724831281 -1.591360903e-16 -0.002135178887 0 -0.005254106211 -3.198633823e-17 0.02287284397)
(0.02846807312 -2.230003038e-16 -0.007393897735 -1.487055946e-16 -0.001708819672 0 -0.004736260898 -2.524841472e-17 0.02263536156)
(0.02885151638 -2.025511079e-16 -0.005945904061 -1.494486684e-16 -0.001294164747 -7.651771824e-15 -0.004042902298 -1.75749422e-17 0.02242585276)
(0.02881759754 -1.998970354e-16 -0.004430482537 -1.408694389e-16 -0.0008953634166 0 -0.003162092783 -2.264468261e-17 0.02225560527)
(0.02829058082 -8.199232997e-17 -0.002915473595 -1.350813535e-16 -0.0005174820357 0 -0.002071277203 -2.49100873e-17 0.02213801195)
(0.02747385899 2.141299907e-17 -0.001080983429 -1.340247022e-16 -0.0001655840148 0 -0.0007315559917 -2.545462782e-17 0.02209126571)
(-0.009060416442 -1.506649235e-15 -0.0005467239326 -4.026513076e-16 -0.01475409565 0 2.417607712e-05 1.454360691e-16 0.02718495006)
(-0.01199683001 1.726453521e-15 -0.001258334171 1.204002456e-15 -0.01293951368 0 6.155927039e-05 4.198037722e-16 0.02716917034)
(-0.01170138801 3.703647496e-15 -0.002015174248 -1.018209937e-15 -0.01234916751 -8.688724793e-14 8.919509086e-05 7.497478913e-16 0.0271280337)
(-0.01182429262 3.008999961e-15 -0.002754136082 -1.620052881e-15 -0.01219913225 0 0.0001052693325 5.343482584e-16 0.02706870119)
(-0.01169584034 9.3944309e-16 -0.003462226065 -1.893484384e-15 -0.01210889451 0 0.0001044590476 4.524322413e-16 0.02699253021)
(-0.01146544965 -4.197578975e-16 -0.004130435301 -1.446187537e-15 -0.01201634882 -4.292452283e-14 8.335376045e-05 4.684065678e-16 0.02690082894)
(-0.01118960277 -9.93657333e-17 -0.004756583047 -1.167030949e-15 -0.01191531361 0 3.932677589e-05 2.257687735e-17 0.02679498172)
(-0.01086899586 4.87787733e-17 -0.005339153721 -1.007438764e-15 -0.01180422572 0 -2.955630947e-05 -3.061885253e-16 0.02667626864)
(-0.01049967452 1.076513645e-16 -0.005877290942 -8.844744366e-16 -0.01168168631 3.019006077e-14 -0.0001247282836 -5.78407739e-16 0.02654583286)
(-0.01008105381 1.714697592e-16 -0.006371071553 -8.407686184e-16 -0.01154681558 0 -0.0002471316547 -6.246415607e-16 0.02640469447)
(-0.00961383618 2.487635313e-16 -0.006821185773 -8.073173609e-16 -0.01139920949 0 -0.0003970079486 -6.579692726e-16 0.02625376638)
(-0.009097577366 -7.148569856e-17 -0.007228878174 -7.341449418e-16 -0.01123875201 0 -0.0005740618571 -6.971725562e-16 0.02609390129)
(-0.008530781262 -3.637670032e-16 -0.007595860255 -6.719736823e-16 -0.01106531591 1.146835085e-14 -0.0007775185993 -7.492642409e-16 0.02592591783)
(-0.007913025344 -2.870496774e-16 -0.007924311113 -5.970033621e-16 -0.01087879038 0 -0.00100619902 -7.052502776e-16 0.02575059272)
(-0.00724419608 -2.094531888e-16 -0.008216885779 -5.918098853e-16 -0.01067918605 -2.089701112e-14 -0.001258586355 -6.783427866e-16 0.0255686937)
(-0.006523927521 -1.825272538e-16 -0.008476477059 -4.709985078e-16 -0.01046653234 1.004796817e-14 -0.001532659195 -6.882098613e-16 0.02538098726)
(-0.005752083939 -1.673756781e-16 -0.008706155444 -4.54823603e-16 -0.0102409018 9.702903532e-15 -0.001825915617 -6.245655559e-16 0.02518822183)
(-0.004928893895 -1.082656016e-16 -0.008909327409 -4.408110378e-16 -0.01000239317 0 -0.002135614696 -4.964572428e-16 0.02499112778)
(-0.004056681245 -3.819469592e-17 -0.009089540814 -4.286177383e-16 -0.009751160863 0 -0.00245865717 -3.860149332e-16 0.02479038304)
(-0.003138668203 2.408232518e-17 -0.009250284064 -4.005557362e-16 -0.009487543277 0 -0.00279157092 -3.149980384e-16 0.02458659667)
(-0.002176427263 8.220934416e-17 -0.00939496446 -3.916250958e-16 -0.009211953016 0 -0.003130698228 -2.514344841e-16 0.02438030618)
(-0.001171695782 -7.756745697e-17 -0.009526662939 -3.671091745e-16 -0.008924786781 8.543631697e-15 -0.003472127532 -1.942134189e-16 0.02417192542)
(-0.0001286715723 -4.042310153e-16 -0.009647923431 -3.60539881e-16 -0.008626503639 0 -0.003811713261 -1.072789595e-16 0.02396170245)
(0.0009471331858 -2.948406313e-16 -0.009760610559 -2.902736095e-16 -0.008317704851 0 -0.004145250921 -4.814925842e-17 0.02374969525)
(0.002050864238 -1.995814269e-16 -0.009865476062 -3.179392987e-16 -0.007999094036 -8.139246046e-15 -0.004468373383 8.944703204e-18 0.02353577287)
(0.003177077789 -4.969869275e-16 -0.00996183 -2.825384939e-16 -0.007671415849 0 -0.004776532923 3.00031722e-17 0.02331959503)
(0.004319540682 -4.289966155e-16 -0.01004757895 -2.793988063e-16 -0.00733551162 0 -0.005065254494 4.942999022e-17 0.02310060552)
(0.005471817284 -1.851138863e-16 -0.01011908361 -2.613089955e-16 -0.006992276465 0 -0.005330168679 5.187731524e-17 0.02287806307)
(0.006625909523 -2.770963739e-16 -0.01017094462 -2.438602884e-16 -0.006642673397 0 -0.005566900765 5.333077214e-17 0.02265104718)
(0.007773511797 -3.74662451e-16 -0.01019622674 -2.269606897e-16 -0.006287768352 0 -0.005771125801 5.383162938e-17 0.02241851963)
(0.008906563143 -1.909097051e-16 -0.01018696179 -1.95491538e-16 -0.005928671764 0 -0.00593869907 5.510556277e-17 0.02217939179)
(0.01001550359 -1.144000917e-17 -0.0101346939 -2.094559023e-16 -0.0055665465 0 -0.006065752669 7.108637631e-17 0.02193260484)
(0.01109030902 2.033832275e-16 -0.01003109601 -1.936927689e-16 -0.00520264092 0 -0.006148675978 8.630005501e-17 0.02167723902)
(0.01212115884 2.463864598e-16 -0.009868702877 -2.079230214e-16 -0.004838243739 0 -0.006184147746 1.149753579e-16 0.02141265789)
(0.01309740958 1.287063053e-16 -0.009641666743 -2.000265278e-16 -0.00447468682 0 -0.00616932538 1.424308908e-16 0.02113864113)
(0.01400797757 3.909431738e-17 -0.00934612687 -2.071160879e-16 -0.004113350855 0 -0.006101870518 1.702235838e-16 0.02085554642)
(0.01484086183 -3.283926585e-16 -0.008980494885 -1.995648018e-16 -0.003755651036 0 -0.005980036298 1.853575106e-16 0.02056444926)
(0.01558418091 -6.909352909e-16 -0.008545654235 -1.773820168e-16 -0.003403060174 0 -0.005802769089 1.998354812e-16 0.02026725822)
(0.01622673759 -7.675674619e-16 -0.008044831274 -1.55307502e-16 -0.003057056638 0 -0.005569781089 2.035469289e-16 0.01996678554)
(0.01675666059 -6.011840541e-16 -0.007483282578 -1.555063139e-16 -0.002719129317 0 -0.005281686167 2.08686747e-16 0.01966672919)
(0.01716217302 -2.988428611e-16 -0.006867991645 -1.409626568e-16 -0.002390781195 -7.597145294e-15 -0.00494005533 2.260706824e-16 0.01937159143)
(0.01743261662 -1.137190953e-16 -0.006207504164 -1.375930601e-16 -0.002073507643 -7.615961811e-15 -0.004547465207 2.271467757e-16 0.01908649045)
(0.01755964093 -9.281659588e-17 -0.005511735504 -1.305500882e-16 -0.001768770056 0 -0.004107601351 2.012564722e-16 0.01881690926)
(0.01753716844 -7.986993132e-17 -0.004791577758 -1.27271341e-16 -0.001477946616 0 -0.003625308619 1.771406878e-16 0.01856837578)
(0.01736160946 -6.934826373e-17 -0.004058547255 -1.202711922e-16 -0.001202319215 0 -0.003106661067 1.552760031e-16 0.01834610245)
(0.01703413201 -6.505980217e-17 -0.00332437548 -1.208171827e-16 -0.0009430308182 0 -0.002559010156 1.349616206e-16 0.01815460858)
(0.01655831525 7.314601315e-18 -0.002600011486 -1.195236981e-16 -0.0007010199483 0 -0.001990877585 1.154861998e-16 0.01799735373)
(0.01592835401 4.507983731e-17 -0.001894958205 -1.192194045e-16 -0.0004770580155 0 -0.001412161684 1.034415437e-16 0.01787644222)
(0.01513957644 -1.060516051e-18 -0.001219377537 -1.16559333e-16 -0.0002719941175 7.858881118e-15 -0.0008350102399 9.438119512e-17 0.01779225121)
(0.01441813491 -6.607900273e-18 -0.000444035386 -1.158399586e-16 -8.649639606e-05 0 -0.0002717973811 9.676571422e-17 0.01774300908)
(-0.008065529456 -7.176102673e-16 -0.0003891826721 -1.686803433e-15 -0.01311982946 0 -0.0001602103639 -2.651310603e-16 0.02647032112)
(-0.010676786 -1.652320221e-15 -0.0008715196089 6.987160728e-17 -0.01151393069 1.430970517e-13 -0.0004200274035 -7.482436144e-16 0.02644214987)
(-0.01037712139 3.130476715e-16 -0.00138700856 8.186364915e-16 -0.0109885084 0 -0.0006662309554 -3.312450717e-16 0.02637866731)
(-0.01040960821 1.58422754e-15 -0.001900982563 0 -0.01083774957 0 -0.0009210564613 -5.447096475e-17 0.02628631854)
(-0.01019530587 6.223766248e-16 -0.002394093556 -2.024181876e-16 -0.01072821022 0 -0.001178232162 1.512334292e-16 0.02616759111)
(-0.009872508901 2.220795972e-15 -0.00286067367 -2.341421589e-16 -0.01060825822 0 -0.001435710899 1.053364088e-16 0.02602523561)
(-0.009493020841 3.533192364e-15 -0.003299885651 -7.777913332e-16 -0.01047381572 0 -0.001693886811 8.1811972e-17 0.02586198888)
(-0.009060575523 2.862625372e-15 -0.003710769903 -1.056132364e-15 -0.01032457549 0 -0.001953083703 6.298524059e-17 0.02568050261)
(-0.008574512001 1.647988488e-15 -0.004092647989 -1.197665202e-15 -0.01016025193 0 -0.002213183144 4.631281517e-17 0.02548333855)
(-0.0080378961 5.947771536e-16 -0.004445357772 -1.211933766e-15 -0.009980884034 0 -0.00247362527 2.567258072e-17 0.02527293319)
(-0.007454820823 5.055505896e-16 -0.004769367687 -1.15297061e-15 -0.009787034967 0 -0.002733687035 6.80311433e-18 0.02505155045)
(-0.006828155044 6.123352481e-16 -0.005065723231 -1.082290984e-15 -0.009579401346 -1.23140663e-14 -0.002992577835 3.827227567e-17 0.02482131034)
(-0.006160335309 8.979223296e-17 -0.005335647769 -1.06915403e-15 -0.009358706505 0 -0.003249115411 -1.46413702e-17 0.02458414213)
(-0.005453826525 -3.847532159e-16 -0.005580610419 -9.527584993e-16 -0.00912566808 0 -0.003501881105 -2.640265685e-17 0.02434178556)
(-0.004711991738 -2.556629449e-16 -0.005802374394 -8.497271279e-16 -0.008881013038 0 -0.003749375574 4.400342773e-18 0.02409575346)
(-0.003938702251 -6.885583417e-16 -0.006002642983 -8.171533318e-16 -0.008625552808 0 -0.003989812319 2.887330031e-17 0.02384734202)
(-0.003137423126 -1.563822332e-15 -0.00618306989 -7.121063955e-16 -0.008360128931 0 -0.004221284457 4.292774772e-17 0.02359761378)
(-0.00231210332 -1.867102081e-15 -0.006345161826 -5.782482436e-16 -0.008085579357 0 -0.004441801722 5.038745656e-17 0.0233473936)
(-0.001467378316 -1.425399931e-15 -0.006490042825 -4.897044747e-16 -0.007802795498 0 -0.004649239988 8.542507727e-17 0.02309725303)
(-0.0006073924729 -1.053273395e-15 -0.006618598914 -4.067938374e-16 -0.007512704915 0 -0.004841642468 1.19147644e-16 0.02284753082)
(0.0002635015332 -9.692498847e-16 -0.006731230269 -3.458470562e-16 -0.007216214877 0 -0.005017079247 1.751879697e-16 0.02259833058)
(0.001140064256 -1.089683103e-15 -0.006827549721 -3.050397751e-16 -0.006914266379 -8.676686935e-15 -0.005173468579 2.512935854e-16 0.02234953687)
(0.002017492434 -1.005901715e-15 -0.006906534181 -2.33007594e-16 -0.006607834559 0 -0.00530878228 2.855952379e-16 0.0221008541)
(0.002890645034 -7.632310619e-16 -0.006966710241 -1.801520228e-16 -0.006297873353 8.385257789e-15 -0.00542123377 3.044289333e-16 0.0218518534)
(0.00375303838 -5.510584939e-16 -0.007006164917 -1.937344579e-16 -0.005985376163 -8.266003537e-15 -0.005509243252 3.595119883e-16 0.02160201377)
(0.004599092702 -3.364897298e-16 -0.00702255791 -1.75351391e-16 -0.005671387785 -8.1618102e-15 -0.005571304604 3.633957568e-16 0.02135081199)
(0.005424365228 -1.186910228e-16 -0.007013438366 -1.5763892e-16 -0.005356911691 0 -0.005606131885 3.390957893e-16 0.02109779722)
(0.00622297298 7.879949318e-17 -0.006976336626 -1.561050126e-16 -0.005042921965 0 -0.005612642063 3.350432478e-16 0.0208426478)
(0.006988204323 7.851172125e-17 -0.006908922162 -1.547862968e-16 -0.004730433291 0 -0.00558995705 3.347288613e-16 0.02058525298)
(0.007714176236 8.169377274e-17 -0.006809382055 -1.459803492e-16 -0.004420465818 0 -0.005537533272 3.255970776e-16 0.02032579491)
(0.008395283385 -8.736659929e-17 -0.006676463924 -1.450840351e-16 -0.004114020043 0 -0.005455099588 3.206467057e-16 0.02006478787)
(0.009025207526 -2.483439797e-16 -0.006509415201 -1.443442812e-16 -0.003812081029 0 -0.00534262377 3.315097681e-16 0.01980310238)
(0.009597254536 -4.120299587e-16 -0.006308216478 -1.134861148e-16 -0.003515643687 7.747318773e-15 -0.005200466264 3.218536866e-16 0.01954195324)
(0.01010629195 -5.64917899e-16 -0.006073579705 -1.206635055e-16 -0.003225697166 -7.722464355e-15 -0.005029284242 3.415205028e-16 0.01928287916)
(0.01054746224 -5.470453364e-16 -0.005806863453 -9.780894939e-17 -0.002943165689 0 -0.004830057222 3.420976389e-16 0.01902766772)
(0.01091548447 -3.7521391e-16 -0.005510064486 -9.014641471e-17 -0.002668957212 -7.692494055e-15 -0.004604156126 3.477433671e-16 0.01877827241)
(0.01120643283 -2.055609513e-16 -0.005185748319 -9.007677662e-17 -0.00240393856 -7.686551605e-15 -0.004353268467 3.389154488e-16 0.01853673367)
(0.01141711914 -5.076826095e-17 -0.004837097689 -7.506020677e-17 -0.00214891056 -7.686165173e-15 -0.004079495298 2.983864857e-16 0.01830507665)
(0.01154509557 8.783348503e-17 -0.004467763093 -6.759694347e-17 -0.001904615007 0 -0.003785262298 2.454059509e-16 0.01808522714)
(0.01158905614 -8.490912565e-17 -0.004081815712 -6.76834755e-17 -0.00167171504 0 -0.003473323384 1.978791594e-16 0.01787893995)
(0.01154888784 -1.426318555e-16 -0.003683690355 -6.404434833e-17 -0.001450790598 7.715460316e-15 -0.003146762394 1.609287696e-16 0.01768774198)
(0.01142583142 2.241830015e-16 -0.003278055914 -6.42029726e-17 -0.001242322953 0 -0.002808951651 1.45532958e-16 0.01751288625)
(0.01122197984 4.774919744e-16 -0.002869689352 -7.386779683e-17 -0.0010466892 0 -0.002463515592 1.333686732e-16 0.01735531787)
(0.01094031332 4.536194964e-16 -0.002463301029 -7.603142114e-17 -0.0008641668901 0 -0.002114205754 1.340142793e-16 0.01721565176)
(0.01058547784 4.319872484e-16 -0.002063411959 -8.397417159e-17 -0.0006949291451 0 -0.001764820717 1.205855075e-16 0.01709416709)
(0.01016380515 4.255476092e-16 -0.001674140961 -8.818972161e-17 -0.000539028258 0 -0.001419075335 1.175284522e-16 0.01699077869)
(0.009679918056 3.206191205e-16 -0.001299062475 -9.152052265e-17 -0.0003963945451 0 -0.001080520698 1.148067259e-16 0.0169049581)
(0.009129163942 1.590372169e-16 -0.0009414201554 -9.395503938e-17 -0.0002669138226 0 -0.0007526254466 1.157252151e-16 0.01683590569)
(0.008499360274 3.12548632e-17 -0.0006050478574 -9.450481134e-17 -0.0001506103878 0 -0.0004390119756 1.128704376e-16 0.01678393678)
(0.007973183784 -2.022378147e-17 -0.0002207862808 -9.239956277e-17 -4.764366296e-05 0 -0.0001421879906 1.088322681e-16 0.01675207546)
(-0.006321990226 3.56842061e-15 -0.0002493339861 -7.786695728e-15 -0.01031354024 0 -0.0001989353139 -6.960565083e-17 0.02413567915)
(-0.008340850889 9.216799789e-16 -0.0005425017777 -5.747740624e-15 -0.009034939335 0 -0.0005213187063 -2.018876015e-16 0.02411309439)
(-0.008069365516 -1.197937114e-15 -0.0008575693904 -2.77857826e-15 -0.008600970338 0 -0.0008243461354 -3.669722982e-16 0.02406450601)
(-0.008056995956 -4.866676799e-16 -0.001179287004 -1.799437194e-15 -0.008464288838 0 -0.001132629883 -2.264892804e-16 0.02399340609)
(-0.007840934143 -1.057965729e-16 -0.001489184484 -1.336208709e-15 -0.008358796458 0 -0.001436247844 -1.544140037e-16 0.02390171593)
(-0.007530384219 1.354027053e-16 -0.001784365843 -1.145708703e-15 -0.008243074224 0 -0.00173117399 -1.391492693e-16 0.02379156703)
(-0.007166622157 2.810250779e-16 -0.002064774107 -9.779768217e-16 -0.008113580694 0 -0.002016626582 1.310237815e-16 0.02366498706)
(-0.006754431446 3.702214946e-16 -0.002329945171 -9.217485776e-16 -0.007970097661 0 -0.002292040116 3.454209366e-16 0.02352393753)
(-0.006296902004 4.316203661e-16 -0.002579500872 -8.514220253e-16 -0.007812692692 0 -0.002556648363 5.420709326e-16 0.02337029181)
(-0.005798629243 4.99824511e-16 -0.002813166043 -8.391872425e-16 -0.007642037816 -2.864425788e-14 -0.002809431269 6.418019767e-16 0.02320582273)
(-0.005262837247 1.320087527e-16 -0.003030995201 -8.066382763e-16 -0.007458957949 0 -0.003049518601 7.185184761e-16 0.02303219987)
(-0.004693826264 1.459564973e-16 -0.003233265392 -6.839131704e-16 -0.007264264635 0 -0.00327610138 7.941435928e-16 0.02285091951)
(-0.004096469503 1.898037378e-16 -0.003420179675 -6.930667806e-16 -0.007058980576 -1.182833972e-14 -0.00348820708 8.803214136e-16 0.02266330873)
(-0.0034744145 -4.676272075e-16 -0.003591885531 -6.487294e-16 -0.006844127036 0 -0.003684789714 9.049164086e-16 0.02247053651)
(-0.002832440279 -7.037657889e-16 -0.003748554528 -5.682910287e-16 -0.006620678033 -1.077648173e-14 -0.003864886181 9.399026781e-16 0.02227357749)
(-0.002175647845 -5.39370193e-16 -0.003890274925 -5.060240019e-16 -0.006389728157 -1.036337156e-14 -0.004027594936 9.497396168e-16 0.02207322037)
(-0.001507845277 -3.872712496e-16 -0.004016854168 -4.495545601e-16 -0.006152337719 -1.000747543e-14 -0.004171963976 8.849043201e-16 0.02187010263)
(-0.0008335730088 -5.4461191e-16 -0.004127950081 -4.167606613e-16 -0.005909509436 0 -0.004297133105 7.22578938e-16 0.02166469773)
(-0.0001571755944 -7.231517142e-16 -0.004223092061 -3.223441301e-16 -0.005662288926 9.430868264e-15 -0.004402381887 5.786767581e-16 0.0214573506)
(0.0005175361946 -8.807409778e-16 -0.004301592113 -2.873941482e-16 -0.00541164806 0 -0.004487059742 4.987275232e-16 0.02124830935)
(0.00118522279 -1.263101618e-15 -0.004362486585 -2.546440302e-16 -0.005158545925 0 -0.004550528048 4.249820033e-16 0.02103773098)
(0.001840547263 -1.211429505e-15 -0.004404708497 -1.893163232e-16 -0.004903998449 0 -0.00459228758 3.810113463e-16 0.02082573806)