/*--------------------------------*- C++ -*----------------------------------*\
  =========                 |
  \\      /  F ield         | OpenFOAM: The Open Source CFD Toolbox
   \\    /   O peration     | Website:  https://openfoam.org
    \\  /    A nd           | Version:  7
     \\/     M anipulation  |
\*---------------------------------------------------------------------------*/
FoamFile
{
    version     2.0;
    format      ascii;
    class       volScalarField;
    location    "0.0018";
    object      p;
}
// * * * * * * * * * * * * * * * * * * * * * * * * * * * * * * * * * * * * * //

dimensions      [1 -1 -2 0 0 0 0];

internalField   nonuniform List<scalar> 
14000
(
1117292.839
1146859.03
1145243.641
1147302.952
1152850.175
1159833.055
1167919.741
1177163.9
1187569.095
1199121.508
1211822.259
1225685.647
1240733.597
1256993.573
1274498.122
1293280.687
1313361.766
1334766.17
1357562.823
1381807.069
1407548.479
1434818.439
1463675.804
1494231.262
1526546.946
1560706.976
1596849.395
1635057.183
1675503.807
1718305.739
1763602.371
1811604.115
1862476.716
1916341.945
1973287.021
2033412.732
2096678.727
2162969.207
2231976.926
2303336.092
2376440.083
2450551.044
2524807.168
2598283.537
2670094.325
2739298.383
2804728.067
2865959.356
2926935.29
2990571.608
1263456.663
1299279.793
1297374.201
1300009.585
1306901.352
1315488.386
1325301.535
1336357.865
1348602.662
1361999.758
1376520.459
1392154.762
1408909.076
1426787.408
1445795.715
1466020.616
1487517.33
1510296.604
1534468.521
1560092.839
1587234.082
1615971.222
1646366.305
1678437.478
1712245.708
1747780.196
1784975.722
1823722.896
1863879.149
1905237.89
1947488.538
1990249.733
2033116.258
2075662.861
2117433.886
2157988.248
2196956.96
2234022.921
2268936.082
2301489.665
2331557.293
2359033.172
2383786.239
2405668.083
2424449.167
2439853.038
2451546.292
2458759.349
2459857.446
2454802.926
1291155.877
1328405.389
1325935.577
1327289.867
1332570.404
1339329.566
1347156.048
1356155.564
1366383.797
1377843.245
1390519.852
1404404.961
1419554.324
1435964.314
1453644.797
1472623.072
1492896.881
1514490.323
1537366.476
1561430.534
1586656.864
1612980.379
1640276.04
1668345.704
1697021.7
1726105.62
1755339.367
1784530.24
1813398.057
1841715.011
1869290.808
1895933.384
1921457.811
1945771.115
1968730.617
1990260.277
2010247.252
2028577.061
2045189.418
2059933.034
2072690.568
2083287.802
2091586.772
2097434.477
2100654.514
2101117.151
2098742.251
2093294.86
2084082.882
2071942.928
1487416.463
1520771.186
1518404.647
1519920.805
1525175.183
1531903.313
1539728.273
1548707.285
1558898.898
1570287.46
1582803.947
1596466.884
1611228.902
1627105.248
1644033.855
1661967.141
1680834.864
1700578.226
1721063.874
1742201.852
1763868.407
1785906.641
1808160.523
1830499.044
1852702.407
1874612.687
1896110.245
1917046.887
1937235.374
1956572.076
1974921.463
1992187.498
2008207.851
2022909.503
2036223.013
2048008.585
2058225.09
2066774.992
2073602.226
2078641.016
2081845.32
2083184.606
2082636.159
2080177.252
2075823.611
2069636.722
2061686.063
2051836.893
2039590.335
2025885.749
1544864.922
1574934.988
1573418.574
1575038.429
1579885.209
1586058.531
1593206.484
1601390.171
1610601.193
1620749.595
1631853.335
1643856.361
1656663.971
1670254.615
1684542.401
1699396.832
1714774.237
1730551.694
1746605.492
1762871.714
1779179.165
1795383.111
1811371.615
1827049.153
1842294.996
1856961.724
1870968.277
1884197.184
1896547.648
1907956.278
1918343.371
1927605.682
1935737.821
1942622.714
1948270.461
1952619.965
1955636.907
1957312.461
1957631.787
1956592.714
1954188.969
1950441.553
1945394.847
1939083.511
1931531.601
1922782.316
1913030.486
1902415.75
1890741.494
1878488.675
1681544.386
1705610.821
1704553.752
1706403.781
1711002.665
1716780.4
1723445.625
1730982.442
1739384.977
1748496.482
1758352.17
1768820.181
1779804.173
1791213.185
1803023.401
1815076.391
1827273.891
1839553.069
1851803.393
1863906.481
1875741.885
1887232.766
1898299.114
1908837.108
1918776.32
1928058.569
1936551.747
1944236.645
1951049.771
1956934.526
1961858.93
1965761.698
1968670.392
1970494.045
1971251.544
1970960.727
1969569.904
1967095.67
1963592.315
1959057.144
1953483.54
1946956.728
1939601.743
1931510.005
1922106.342
1909331.865
1896470.35
1915645.493
2007573.278
2107851.949
1710414.995
1730190.097
1729764.772
1731479.841
1735339.49
1740129.091
1745651.008
1751796.461
1758550.332
1765858.513
1773576.385
1781682.112
1790079.398
1798652.034
1807330.113
1816057.831
1824722.638
1833241.985
1841542.628
1849539.45
1857136.315
1864315.793
1871007.801
1877097.232
1882566.691
1887373.911
1891467.989
1894791.164
1897348.8
1899076.318
1899984.954
1900060.625
1899260.3
1897637.37
1895159.732
1891826.945
1887694.877
1882768.794
1877066.044
1870669.564
1863713.474
1856261.56
1847217.934
1834718.607
1827805.497
1868992.451
1957644.556
2043872.95
2116638.405
2180428.204
1782375.677
1797143.826
1796784.482
1798235.64
1801391.72
1805319.579
1809754.646
1814704.5
1820034.327
1825765.494
1831746.578
1837890.965
1844171.499
1850491.804
1856770.13
1862928.649
1868897.015
1874620.51
1880040.742
1885096.171
1889720.875
1893878.917
1897506.321
1900557.318
1903027.579
1904824.943
1906000.768
1906458.474
1906252.203
1905313.449
1903670.235
1901322.914
1898231.832
1894479.659
1890034.612
1884921.104
1879211.099
1872920.689
1866255.499
1859210.537
1850509.867
1838175.839
1833652.157
1885461.441
1975612.819
2063663.058
2137582.844
2175420.645
2145807.323
2101852.031
1787674.871
1799690.524
1799520.419
1800583.427
1802912.595
1805830.396
1809049.238
1812645.945
1816486.951
1820509.072
1824682.871
1828917.468
1833147.141
1837315.244
1841365.452
1845242.959
1848888.077
1852222.913
1855207.012
1857819.676
1860031.15
1861755.142
1862984.616
1863692.294
1863849.52
1863444.959
1862452.449
1860871.898
1858690.836
1855909.607
1852542.662
1848569.947
1844056.111
1838974.298
1833373.745
1827333.48
1820995.078
1814412.749
1806081.693
1793948.095
1790800.625
1848809.051
1941709.311
2031885.963
2103454.304
2123366.424
2094695.846
2058150.873
2022645.131
1988641.415
1817053.701
1826465.654
1826086.943
1826779.167
1828511.459
1830624.442
1832992.141
1835537.409
1838268.626
1841099.399
1843969.416
1846834.49
1849639.989
1852322.349
1854833.16
1857141.061
1859213.525
1861000.29
1862441.714
1863494.421
1864196.262
1864472.611
1864298.296
1863702.288
1862601.618
1861071.15
1859025.866
1856541.669
1853549.868
1850130.909
1846233.452
1841918.882
1837190.078
1832123.262
1826899.975
1821517.676
1814369.778
1803359.56
1802073.482
1865179.011
1960944.353
2053450.125
2125145.331
2137387.29
2110362.099
2078607.46
2049467.455
2022784.531
1998929.356
1979774.987
1805882.232
1814234.996
1813770.242
1814085.537
1815143.915
1816440.899
1817893.547
1819436.414
1821015.768
1822640.869
1824246.246
1825784.457
1827218.254
1828512.179
1829633.199
1830547.079
1831216.976
1831620.019
1831749.348
1831573.363
1831062.11
1830232.024
1829057.524
1827532.023
1825663.734
1823442.116
1820883.232
1817997.905
1814787.517
1811287.996
1807484.14
1803476.216
1799432.711
1795334.378
1789544.17
1779837.667
1780371.114
1846952.952
1944138.807
2037849.014
2110144.517
2120100.929
2095591.366
2067735.2
2042450.969
2019448.602
1999524.366
1986182.543
1983306.482
1988861.058
1808396.194
1815826.988
1815139.036
1815105.979
1815676.506
1816441.221
1817216.874
1818054.556
1818898.005
1819699.705
1820426.306
1821072.754
1821614.335
1822021.797
1822265.041
1822305.734
1822135.615
1821747.048
1821137.245
1820280.439
1819162.917
1817806.574
1816175.75
1814284.786
1812170.792
1809785.786
1807204.439
1804354.096
1801334.948
1798116.886
1794988.465
1791824.103
1787029.977
1778316.635
1779977.385
1848086.466
1945701.051
2039971.093
2112607.207
2121028.485
2097790.179
2071914.769
2048444.96
2027080.626
2008650.13
1996422.953
1993909.584
2000190.35
2010825.755
2022268.972
1788463.694
1795906.346
1795038.578
1794686.739
1794890.405
1795165.248
1795436.782
1795642.148
1795840.502
1795987.255
1796047.568
1796002.738
1795835.253
1795528.515
1795067.996
1794442.739
1793654.027
1792709.714
1791554.204
1790184.121
1788646.442
1786906.097
1784945.146
1782832.112
1780495.906
1777997.027
1775315.864
1772504.739
1769772.715
1767040.041
1762691.738
1754480.114
1756344.879
1823696.458
1921082.083
2015735.009
2088589.534
2095338.673
2072246.677
2046986.399
2023839.932
2002511.913
1983879.9
1971332.72
1968652.109
1974896.423
1984959.492
1995303.832
2005087.737
2013990.514
1776720.579
1784126.329
1783033.679
1782498.748
1782472.744
1782460.189
1782424.118
1782328.537
1782145.018
1781895.576
1781577.053
1781154.017
1780609.133
1779932.65
1779121.011
1778182.628
1777098.006
1775843.369
1774387.789
1772794.54
1771045.463
1769098.299
1767000.753
1764739.886
1762287.051
1759732.126
1757237.437
1754754.698
1750693.818
1742853.237
1744410.151
1809204.075
1906043.475
2001240.183
2074706.652
2080778.307
2057680.935
2032595.964
2009464.469
1987821.825
1968574.653
1955089.013
1951534.778
1957423.174
1967560.415
1978005.174
1987494.143
1995603.639
2002295.741
2007824.913
1752390.985
1760242.422
1759043.303
1758348.206
1758110.065
1757894.462
1757581.489
1757230.652
1756764.529
1756205.558
1755555.562
1754802.671
1753937.209
1752951.836
1751837.264
1750585.922
1749192.726
1747646.882
1745937.967
1744090.375
1742092.672
1739933.068
1737607.312
1735174.412
1732818.793
1730457.59
1726627.544
1719123.737
1720076.724
1780936.44
1876708.476
1972318.241
2046790.199
2053982.836
2031282.608
2006334.896
1983316.417
1961631.751
1941911.059
1927370.804
1922721.677
1928191.633
1938605.166
1949538.48
1959553.892
1968214.34
1975228.603
1980632.827
1984972.544
1988766.804
1732099.18
1740295.644
1738946.018
1738113.12
1737754.193
1737415.746
1736958.523
1736423.1
1735786.462
1735047.184
1734206.167
1733254.954
1732185.923
1730993.485
1729672.537
1728216.39
1726619.767
1724885.455
1723016.855
1720981.086
1718793.003
1716531.572
1714311.733
1712094.261
1708547.048
1701442.102
1701775.119
1758220.22
1852561.075
1948282.467
2023888.717
2034026.238
2012262.73
1987534.871
1964578.842
1943049.592
1923220.798
1907681.476
1901503.304
1906221.994
1916900.796
1928478.742
1939166.213
1948522.699
1956276.436
1962371.68
1967091.326
1970950.981
1974534.616
1978047.943
1704135.907
1712809.162
1711343.771
1710390.532
1709933.809
1709459.309
1708860.979
1708150.892
1707335.348
1706414.303
1705381.726
1704232.895
1702962.472
1701563.988
1700033.59
1698368.212
1696564.232
1694628.689
1692586.564
1690432.552
1688310.703
1686231.424
1682919.14
1676181.176
1676018.422
1728457.298
1821026.716
1916324.815
1992893.312
2007024.897
1986550.729
1962109.081
1939201.45
1917765.873
1897859.987
1881506.325
1873556.753
1876971.481
1887699.326
1899980.36
1911441.659
1921578.337
1930130.55
1937000.617
1942407.619
1946785.768
1950576.676
1954100.19
1957575.352
1960981.236
1677769.934
1686763.429
1685167.763
1684116.718
1683598.365
1683026.419
1682332.563
1681497.028
1680563.847
1679526.177
1678368.974
1677087.908
1675680.925
1674145.55
1672477.244
1670669.852
1668728.225
1666713.54
1664786.953
1662894.011
1659782.762
1653371.174
1653071.429
1703025.244
1793756.302
1888062.972
1965165.009
1983350.107
1964470.489
1940490.555
1917789.781
1896359.028
1876381.352
1859288.757
1849532.421
1851144.531
1861423.116
1874299.159
1886577.784
1897564.775
1906992.024
1914705.297
1920847.851
1925831.646
1930112.435
1934003.037
1937619.372
1941016.792
1944327.568
1947547.752
1646515.013
1655877.648
1654192.17
1653042.778
1652445.032
1651782.557
1650980.255
1650005.078
1648957.211
1647793.588
1646479.988
1645031.078
1643462.705
1641776.186
1639982.991
1638140.302
1636364.349
1634570.574
1631537.701
1625335.396
1625389.563
1675422.643
1764359.628
1856943.037
1933815.05
1955162.579
1937539.196
1914301.693
1892008.806
1870560.516
1850458.923
1832700.681
1821086.303
1820507.587
1829931.255
1843189.302
1856206.902
1868013.271
1878338.181
1886969.034
1893940.571
1899595.402
1904403.764
1908733.841
1912754.369
1916495.221
1919947.266
1923147.93
1926245.866
1929248.004
1616250.045
1625791.957
1624059.384
1622842.093
1622147.576
1621434.308
1620512.306
1619475.337
1618327.898
1617009.839
1615564.543
1614009.306
1612361.438
1610676.671
1609052.987
1607369.997
1604341.04
1598126.684
1599244.416
1653171.731
1740588.599
1830578.226
1906101.216
1928733.347
1911971.493
1889298.827
1867549.44
1846441.027
1826151.609
1807779.669
1794349.694
1791194.516
1799189.5
1812582.184
1826299.05
1838877.537
1850048.921
1859588.517
1867425.511
1873809.324
1879191.807
1883985.767
1888417.94
1892547.666
1896377.003
1899903.763
1903136.651
1906122.656
1909021.143
1911856.581
1583067.525
1592691.156
1590900.65
1589647.014
1588872.236
1588037.679
1587019.05
1585871.35
1584560.415
1583135.876
1581639.294
1580077.139
1578514.687
1576820.359
1573548.437
1566968.673
1570177.028
1633216.864
1719483.51
1805728.521
1878327.522
1899202.61
1882767.948
1860721.52
1839394.031
1818522.053
1798270.531
1779370.93
1764390.673
1758621.426
1764677.215
1777822.159
1792140.835
1805461.34
1817451.58
1827887.433
1836619.152
1843783.684
1849774.196
1855027.795
1859846.841
1864344.738
1868527.306
1872392.569
1875953.191
1879221.314
1882213.059
1884994.147
1887734.539
1890449.797
1551127.791
1560685.294
1558813.753
1557464.073
1556632.875
1555710.199
1554628.518
1553399.559
1552047.678
1550571.878
1548985.548
1546939.856
1542991.289
1537912.193
1552421.654
1623452.661
1706640.256
1787841.176
1855705.133
1870589.761
1853709.862
1832472.191
1811691.677
1791093.537
1770965.685
1751889.177
1735606.776
1727124.146
1730699.397
1743181.448
1757995.979
1771994.35
1784691.48
1795930.575
1805523.515
1813488.631
1820136.68
1825893.861
1831105.062
1835941.731
1840442.804
1844611.877
1848458.366
1851999.58
1855254.495
1858250.936
1861020.999
1863633.223
1866244.318
1868854.276
1516483.814
1526120.641
1524338.928
1523050.497
1522241.72
1521276.493
1520020.535
1518505.47
1516716.236
1513837.935
1508460.914
1509296.113
1552604
1624083.67
1699916.529
1774772.562
1835929.262
1839401.039
1821152.468
1801068.392
1781126.507
1760986.395
1741134.667
1722117.97
1705118.559
1694448.917
1695340.501
1706523.492
1721476.287
1736047.504
1749401.529
1761396.263
1771819.251
1780581.961
1787891.402
1794155.538
1799765.024
1804948.18
1809771.01
1814242.24
1818369.607
1822170.103
1825661.408
1828870.37
1831835.69
1834596.372
1837181.257
1839638.69
1842105.109
1844576.174
1490615.786
1498799.872
1496075.423
1493591.065
1491252.706
1488756.694
1485461.077
1480350.161
1479888.229
1512280.377
1572321.631
1638011.588
1704512.516
1769842.224
1814793.64
1807289.679
1788552.799
1769829.932
1750850.663
1731363.177
1711994.911
1693257.099
1675932.307
1663578.991
1661878.359
1671416.766
1686200.092
1701192.065
1715074.138
1727710.738
1738902.168
1748465.218
1756474.116
1763269.031
1769257.884
1774739.784
1779834.706
1784566.554
1788943.92
1792977.037
1796683.917
1800085.764
1803217.038
1806120.613
1808837.227
1811392.233
1813796.254
1816087.047
1818394.419
1820715.634
1426777.558
1437613.328
1435894.009
1433747.356
1434971.384
1456121.321
1498471.203
1547672.58
1600043.271
1655151.761
1713256.452
1765336.791
1778816.906
1766891.923
1750847.283
1734212.543
1716657.034
1698421.834
1680150.87
1662269.132
1645276.804
1632058.183
1628441.188
1636430.904
1650889.281
1666219.834
1680554.842
1693716.861
1705544.308
1715826.996
1724537.032
1731912.467
1738330.371
1744130.632
1749497.777
1754483.085
1759096.14
1763348.37
1767258.511
1770844.522
1774134.621
1777169.084
1779992.153
1782640.164
1785135.135
1787488.589
1789707.771
1791827.757
1793970.114
1796129.546
1499929.245
1516340.784
1531213.269
1553335.97
1582135.321
1616027.762
1654888.819
1698578.58
1740502.104
1754967.215
1745998.019
1732773.257
1718929.777
1703618.07
1686956.744
1669602.357
1652145.423
1634876.048
1618081.759
1604325.757
1599144.399
1605430.862
1619078.568
1634327.479
1648806.976
1662228.795
1674455.343
1685261.979
1694526.38
1702373.237
1709131.467
1715173.557
1720748.516
1725935.828
1730745.863
1735185.983
1739273.303
1743026.697
1746467.277
1749629.282
1752555.47
1755286.653
1757852.039
1760269.722
1762553.602
1764714.246
1766757.618
1768715.383
1770697.88
1772704.146
1673127.972
1676447.822
1690432.173
1711055.175
1734043.932
1743500.828
1737368.094
1727703.906
1717342.617
1705822.667
1692597.962
1677962.526
1662001.408
1645184.511
1628271.044
1611464.223
1594918.351
1580855.092
1574499.186
1579075.322
1591395.645
1605971.154
1620045.215
1633250.837
1645484.378
1656501.55
1666103.69
1674302.161
1681340.348
1687559.073
1693243.132
1698529.964
1703451.8
1708013.735
1712225.738
1716103.877
1719663.032
1722929.162
1725940.603
1728740.333
1731363.47
1733831.461
1736158.844
1738359.236
1740445.3
1742425.825
1744304.32
1746110.367
1747949.798
1749817.002
1727649.48
1713546.536
1712706.579
1709768.794
1704569.191
1698007.634
1689916.281
1680105.905
1668538.66
1655131.256
1640494.502
1624896.476
1608416.799
1592170.506
1576329.564
1562632.922
1555869.716
1559071.461
1569717.046
1582869.898
1595910.793
1608363.753
1620112.268
1630904.881
1640489.245
1648771.91
1655887.57
1662125.485
1667785.928
1673056.849
1677991.856
1682592.064
1686858.985
1690803.257
1694437.522
1697777.312
1700851.95
1703700.599
1706361.67
1708862.798
1711220.277
1713446.527
1715554.367
1717554.105
1719455.98
1721266.459
1722990.849
1724655.206
1726358.526
1728092.957
1708911.249
1690046.613
1688503.643
1683897.686
1676176.218
1666241.418
1654636.188
1641375.671
1626966.867
1611585.555
1596033.6
1579681.656
1563922.553
1551059.164
1544542.902
1546602.799
1555067.371
1566048.494
1577299.201
1588347.362
1599045.399
1609112.386
1618240.924
1626240.058
1633147.414
1639182.866
1644631.216
1649711.536
1654502.453
1659006.926
1663216.979
1667133.568
1670763.494
1674112.986
1677200.153
1680056.48
1682719.83
1685221.827
1687581.517
1689810.912
1691920.861
1693922.438
1695825.61
1697638.845
1699370.995
1701028.485
1702612.05
1704143.066
1705714.739
1707321.555
1664559.845
1643484.766
1641019.335
1635323.249
1626921.431
1616336.589
1604351.629
1591713.077
1577786.671
1563762.895
1550022.471
1539255.744
1534757.576
1536850.707
1543495.394
1552280.908
1561631.526
1571130.466
1580604.389
1589746.378
1598198.544
1605739.319
1612331.897
1618110.941
1623305.033
1628130.821
1632706.166
1637050.557
1641148.935
1644990.837
1648574.984
1651903.107
1654980.369
1657826.922
1660474.875
1662957.964
1665300.504
1667514.432
1669609.185
1671595.849
1673483.328
1675280.32
1676993.378
1678632.701
1680205.665
1681715.363
1683162.208
1684569.341
1686019.915
1687507.281
1617242.306
1596616.468
1594323.286
1588684.952
1580455.921
1570786.483
1559711.171
1548510.207
1538272.461
1531288.526
1528813.907
1531073.969
1536040.803
1542460.385
1549779.419
1557557.841
1565582.928
1573538.555
1581068.17
1587944.431
1594059.338
1599448.333
1604275.656
1608750.086
1613019.272
1617115.548
1621024.19
1624721.145
1628196.214
1631445.781
1634466.309
1637266.318
1639868.669
1642304.7
1644601.888
1646776.646
1648837.872
1650793.044
1652651.151
1654419.806
1656105.624
1657713.358
1659251.275
1660726.485
1662144.158
1663507.912
1664822.117
1666110.099
1667446.451
1668819.4
1567599.019
1548576.105
1546817.067
1542412.608
1535987.246
1529674.969
1524686.748
1521854.593
1521841.687
1523837.534
1527626.668
1532458.02
1538207.281
1544621.958
1551436.287
1558364.411
1565067.456
1571333.387
1577011.544
1582054.528
1586563.331
1590748.566
1594756.01
1598629.022
1602354.682
1605908.078
1609272.725
1612439.407
1615401.578
1618155.387
1620711.498
1623093.998
1625334.998
1627457.235
1629470.945
1631382.164
1633198.014
1634926.76
1636574.854
1638146.332
1639648.211
1641087.042
1642467.654
1643792.253
1645067.91
1646301.047
1647494.766
1648668.228
1649893.011
1651156.327
1522291.706
1508432.428
1509211.503
1509325.796
1509031.995
1509304.28
1510695.924
1513153.093
1516475.883
1520799.628
1525835.711
1531532.006
1537604.26
1543850.455
1549959.555
1555769.085
1561120.552
1565906.052
1570226.039
1574231.136
1578043.693
1581732.508
1585300.495
1588716.075
1591969.312
1595054.221
1597955.144
1600661.702
1603176.869
1605517.674
1607710.826
1609781.619
1611746.057
1613611.685
1615383.024
1617065.563
1618666.51
1620192.603
1621648.082
1623039.826
1624373.142
1625654.035
1626886.363
1628075.778
1629226.76
1630343.095
1631428.173
1632499.444
1633618.951
1634775.703
1498633.063
1490940.175
1492975.354
1495011.344
1497196.092
1500111.102
1503708.981
1507940.522
1512828.144
1518169.395
1523816.135
1529608.729
1535325.79
1540803.368
1545925.537
1550556.973
1554783.561
1558703.078
1562406.771
1565964.483
1569430.021
1572776.234
1575972.107
1579003.95
1581863.75
1584542.944
1587030.708
1589337.78
1591488.538
1593511.202
1595428.229
1597251.041
1598982.521
1600627.061
1602191.734
1603682.009
1605102.107
1606455.108
1607747.569
1608985.406
1610172.29
1611312.877
1612414.495
1613485.702
1614530.026
1615546.196
1616536.594
1617516.969
1618542.396
1619599.668
1490315.122
1486314.248
1488547.401
1491220.824
1494327.479
1498014.062
1502236.666
1506918.715
1511931.611
1517073.086
1522263.21
1527282.426
1532071.732
1536494.264
1540593.303
1544419.943
1548020.836
1551509.01
1554908.424
1558192.601
1561335.551
1564312.962
1567130.656
1569792.148
1572279.174
1574588.582
1576733.822
1578739.148
1580628.308
1582415.172
1584110.209
1585719.363
1587248.641
1588703.412
1590089.374
1591411.707
1592674.944
1593883.539
1595040.393
1596145.635
1597208.068
1598234.965
1599232.217
1600204.682
1601157.83
1602090.881
1603001.05
1603902.75
1604846.568
1605819.534
1489940.934
1487718.702
1489769.986
1492333.829
1495348.526
1498845.271
1502756.963
1506980.804
1511321.332
1515679.801
1519931.668
1523990.61
1527833.735
1531488.594
1534951.995
1538343.949
1541656.037
1544852.913
1547917.408
1550866.489
1553676.269
1556329.939
1558815.729
1561119.76
1563256.083
1565245.874
1567118.058
1568890.735
1570572.367
1572167.971
1573681.111
1575116.362
1576480.09
1577778.572
1579015.346
1580196.227
1581325.967
1582410.017
1583450.619
1584451.137
1585416.126
1586353.711
1587268.78
1588165.063
1589044.949
1589909.372
1590753.206
1591590.234
1592465.569
1593365.568
1491791.603
1490320.375
1492093.91
1494326.536
1496926.68
1499902.023
1503192.184
1506656.478
1510155.37
1513658.764
1517047.749
1520379.869
1523607.133
1526804.616
1529952.713
1532999.317
1535973.604
1538852.962
1541603.082
1544197.253
1546646.601
1548954.505
1551106.541
1553106.7
1554971.049
1556721.59
1558380.251
1559955.413
1561451.729
1562876.318
1564232.807
1565523.914
1566751.366
1567918.064
1569032.728
1570099.698
1571121.412
1572101.443
1573047.481
1573966.852
1574858.417
1575728.214
1576580.902
1577418.42
1578241.805
1579050.236
1579841.642
1580626.034
1581442.957
1582279.908
1493850.84
1492597.365
1494055.509
1495867.692
1497937.906
1500309.793
1502923.321
1505637.769
1508437.71
1511276.083
1514134.023
1517002.151
1519884.641
1522704.77
1525508.4
1528242.474
1530855.962
1533369.852
1535783.289
1538062.499
1540182.02
1542154.51
1543999.641
1545744.199
1547397.597
1548966.349
1550450.404
1551859.339
1553200.304
1554477.538
1555695.662
1556859.753
1557972.61
1559035.388
1560050.604
1561022.756
1561957.157
1562859.944
1563736.869
1564592.655
1565429.763
1566249.587
1567055.047
1567847.259
1568626.509
1569391.634
1570140.317
1570879.349
1571646.569
1572431.624
1495141.903
1493891.251
1495045.656
1496444.799
1498060.697
1499951.277
1502021.659
1504231.105
1506593.526
1509005.875
1511521.078
1514033.076
1516567.064
1519069.992
1521503.012
1523894.057
1526198.081
1528377.016
1530439.127
1532394.572
1534228.101
1535939.654
1537555.528
1539094.3
1540565.513
1541972.196
1543310.308
1544580.495
1545791.153
1546947.349
1548051.326
1549108.059
1550123.263
1551100.003
1552032.909
1552930.091
1553799.095
1554644.88
1555471.036
1556281.089
1557076.964
1557858.782
1558627.701
1559384.779
1560129.574
1560858.221
1561568.816
1562269.108
1562994.43
1563733.334
1495446.766
1494128.79
1495075.843
1496223.181
1497573.925
1499130.408
1500855.449
1502778.628
1504805.363
1506928.228
1509102.783
1511310.283
1513495.87
1515687.932
1517812.833
1519863.444
1521851.806
1523733.573
1525496.447
1527160.891
1528752.766
1530271.079
1531712.272
1533088.193
1534403.192
1535661.619
1536871.91
1538028.729
1539130.116
1540183.441
1541194.432
1542166.041
1543100.511
1544000.407
1544869.231
1545710.832
1546531.386
1547334.911
1548124.188
1548900.229
1549663.373
1550414.625
1551154.781
1551883.356
1552597.387
1553291.942
1553969.305
1554636.008
1555324.119
1556022.587
1495117.645
1493765.85
1494623.745
1495646.382
1496800.626
1498112.619
1499628.033
1501300.507
1503051.454
1504910.563
1506788.339
1508713.891
1510616.212
1512496.985
1514342.155
1516099.524
1517781.052
1519396.469
1520923.611
1522378.115
1523777.63
1525132.774
1526431.056
1527668.393
1528854.861
1529994.372
1531090.228
1532146.29
1533156.677
1534126.42
1535060.556
1535960.31
1536827.787
1537668.649
1538488.108
1539287.627
1540071.951
1540843.874
1541604.305
1542353.037
1543088.737
1543815.131
1544530.412
1545231.21
1545914.11
1546579.471
1547226.991
1547862.394
1548516.348
1549180.145
1494542.608
1493167.58
1493949.136
1494846.697
1495828.433
1496979.913
1498313.63
1499752.307
1501290.852
1502897.259
1504537.413
1506192.423
1507843.793
1509450.177
1511023.31
1512529.825
1513969.999
1515365.04
1516715.96
1518012.486
1519262.936
1520472.212
1521644.041
1522766.451
1523845.342
1524884.784
1525886.039
1526853.038
1527787.653
1528687.443
1529554.896
1530394.146
1531210.292
1532007.103
1532786.991
1533554.001
1534310.275
1535056.487
1535792.179
1536515.533
1537229.275
1537932.894
1538622.387
1539295.008
1539948.528
1540586.646
1541205.948
1541811.987
1542432.391
1543063.902
1493811.702
1492398.067
1493107.405
1493889.766
1494741.586
1495770.253
1496933.887
1498175.368
1499520.155
1500901.564
1502327.267
1503742.384
1505158.711
1506528.28
1507863.613
1509171.46
1510432.96
1511662.999
1512871.039
1514035.103
1515159.398
1516249.542
1517309.745
1518334.774
1519321.895
1520275.137
1521197.85
1522092.436
1522960.418
1523797.451
1524609.399
1525401.731
1526177.82
1526939.558
1527688.425
1528429.291
1529161.839
1529885.295
1530598.193
1531298.59
1531991.005
1532669.822
1533332.454
1533977.01
1534603.748
1535214.892
1535806.486
1536382.094
1536972.292
1537573.437
1492965.687
1491515.634
1492157.402
1492846.604
1493608.556
1494503.396
1495503.57
1496589.298
1497749.068
1498932.571
1500148.916
1501353.951
1502556.793
1503737.064
1504897.558
1506050.625
1507173.96
1508273.297
1509352.504
1510402.666
1511421.748
1512413.042
1513378.028
1514317.082
1515224.516
1516105.297
1516961.964
1517794.206
1518600.566
1519385.538
1520153.97
1520908.874
1521652.241
1522384.87
1523108.82
1523826.991
1524537.523
1525239.143
1525929.88
1526609.029
1527276.644
1527929.576
1528565.542
1529181.062
1529782.572
1530367.294
1530930.072
1531476.171
1532038.974
1532609.663
1492035.769
1490550.765
1491129.408
1491750.687
1492418.629
1493185.865
1494034.42
1494971.624
1495958.669
1496968.092
1498002.069
1499034.778
1500071.213
1501111.086
1502140.911
1503166.451
1504174.064
1505161.472
1506131.341
1507086.09
1508015.484
1508921.907
1509805.968
1510668.392
1511507.879
1512326.718
1513124.329
1513899.983
1514656.137
1515399.808
1516132.882
1516857.253
1517573.5
1518279.83
1518982.402
1519679.267
1520368.963
1521049.582
1521715.737
1522371.34
1523013.894
1523640.42
1524246.964
1524837.44
1525413.576
1525970.332
1526503.654
1527024.511
1527558.955
1528097.829
1491025.432
1489514.849
1490046.508
1490602.326
1491173.194
1491822.962
1492542.72
1493335.636
1494167.692
1495034.307
1495923.444
1496828.379
1497742.026
1498667.332
1499587.086
1500502.695
1501409.431
1502303.133
1503184.634
1504053.181
1504902.899
1505734.731
1506549.291
1507346.172
1508126.558
1508888.632
1509633.409
1510363.411
1511078.813
1511788.166
1512492.079
1513190.515
1513881.692
1514565.352
1515246.898
1515923.353
1516591.949
1517247.07
1517889.18
1518520.484
1519137.074
1519734.536
1520314.063
1520880.654
1521429.497
1521956.842
1522464.164
1522960.203
1523465.704
1523972.914
1489929.976
1488414.107
1488904.516
1489389.445
1489869.976
1490416.035
1491026.817
1491701.715
1492415.811
1493170.67
1493949.487
1494753.541
1495568.02
1496393.189
1497216.91
1498039.642
1498860.999
1499674.439
1500478.717
1501271.024
1502050.871
1502818.686
1503573.819
1504312.841
1505038.071
1505750.476
1506452.017
1507142.005
1507825.47
1508507.285
1509186.409
1509860.801
1510527.085
1511191.216
1511853.077
1512508.743
1513152.026
1513780.281
1514399.797
1515005.969
1515594.235
1516163.799
1516719.761
1517259.546
1517779.643
1518279.951
1518763.647
1519233.426
1519709.082
1520189.422
1488762.427
1487253.961
1487699.509
1488123.254
1488530.293
1488993.73
1489522.27
1490108.022
1490734.976
1491400.747
1492092.346
1492807.398
1493535.131
1494272.88
1495016.763
1495763.516
1496508.94
1497251.195
1497987.123
1498712.895
1499432.783
1500145.472
1500846.668
1501531.321
1502209.444
1502881.837
1503546.863
1504201.914
1504860.009
1505518.328
1506174.141
1506823.968
1507468.969
1508114.914
1508756.661
1509387.578
1510002.678
1510608.553
1511203.404
1511781.953
1512341.397
1512886.652
1513417.204
1513929.231
1514421.782
1514898.491
1515357.013
1515798.534
1516248.559
1516704.411
1487544.102
1486051.743
1486461.035
1486837.584
1487189.368
1487591.792
1488057.996
1488574.471
1489130.894
1489722.022
1490339.241
1490976.641
1491631.09
1492297.231
1492973.074
1493653.198
1494331.434
1495011.029
1495687.526
1496356.191
1497024.166
1497685.085
1498332.683
1498974.576
1499615.546
1500253.416
1500885.425
1501515.752
1502151.098
1502787.241
1503419.858
1504045.691
1504673.796
1505300.376
1505917.787
1506519.329
1507111.199
1507694.148
1508262.214
1508811.361
1509345.898
1509867.122
1510370.795
1510854.823
1511323.49
1511776.079
1512207.164
1512624.483
1513051.489
1513479.161
1486311.849
1484846.793
1485227.625
1485568.234
1485878.904
1486236.01
1486648.603
1487106.797
1487603.246
1488129.41
1488683.653
1489258.258
1489851.701