/*--------------------------------*- C++ -*----------------------------------*\
  =========                 |
  \\      /  F ield         | OpenFOAM: The Open Source CFD Toolbox
   \\    /   O peration     | Website:  https://openfoam.org
    \\  /    A nd           | Version:  7
     \\/     M anipulation  |
\*---------------------------------------------------------------------------*/
FoamFile
{
    version     2.0;
    format      ascii;
    class       volVectorField;
    location    "0.0018";
    object      U;
}
// * * * * * * * * * * * * * * * * * * * * * * * * * * * * * * * * * * * * * //

dimensions      [0 1 -1 0 0 0 0];

internalField   nonuniform List<vector> 
14000
(
(-6.072857281e-08 3.328362195e-20 -0.002000023234)
(-1.593329716e-07 3.464443917e-20 -0.002000029053)
(-2.538642441e-07 2.082731992e-20 -0.002000043687)
(-3.535454691e-07 3.695099707e-21 -0.002000064794)
(-4.564175864e-07 -1.556256508e-20 -0.002000092261)
(-5.622497073e-07 -2.814266285e-21 -0.002000125866)
(-6.716293483e-07 4.224626564e-21 -0.002000165327)
(-7.850704082e-07 8.242611501e-21 -0.002000210398)
(-9.029116717e-07 1.060229718e-20 -0.002000260876)
(-1.025365741e-06 1.222391391e-20 -0.002000316596)
(-1.152536065e-06 1.344817701e-20 -0.002000377422)
(-1.284419551e-06 1.434317212e-20 -0.002000443246)
(-1.420909862e-06 1.499955295e-20 -0.002000513985)
(-1.561801311e-06 1.580497614e-20 -0.00200058958)
(-1.706791631e-06 1.666624385e-20 -0.002000669989)
(-1.855484822e-06 1.743673159e-20 -0.002000755185)
(-2.007401868e-06 1.834196511e-20 -0.002000845157)
(-2.161989568e-06 1.935429757e-20 -0.002000939908)
(-2.318599111e-06 2.04637031e-20 -0.002001039457)
(-2.47647557e-06 2.161497125e-20 -0.002001143839)
(-2.634773801e-06 2.27191727e-20 -0.002001253102)
(-2.792577437e-06 2.374529687e-20 -0.002001367306)
(-2.94890025e-06 2.473286651e-20 -0.002001486529)
(-3.102650816e-06 3.139048143e-20 -0.00200161086)
(-3.252643012e-06 3.768302052e-20 -0.002001740398)
(-3.397621912e-06 4.384825368e-20 -0.002001875247)
(-3.536233256e-06 4.970296759e-20 -0.002002015504)
(-3.667040521e-06 5.008853118e-20 -0.002002161248)
(-3.788517546e-06 5.043411395e-20 -0.002002312521)
(-3.89904364e-06 5.553210719e-20 -0.002002469309)
(-3.996932082e-06 6.05086377e-20 -0.002002631517)
(-4.080383767e-06 6.145473957e-20 -0.002002798949)
(-4.147473229e-06 6.29220881e-20 -0.002002971274)
(-4.196179449e-06 6.4565339e-20 -0.002003147999)
(-4.224393119e-06 6.640136535e-20 -0.002003328458)
(-4.22987461e-06 6.849145415e-20 -0.002003511797)
(-4.210246664e-06 7.089660045e-20 -0.002003696967)
(-4.16300037e-06 7.354674523e-20 -0.002003882733)
(-4.085502771e-06 7.636796761e-20 -0.002004067679)
(-3.974973123e-06 7.944370811e-20 -0.002004250228)
(-3.828473731e-06 7.957098594e-20 -0.002004428647)
(-3.642940846e-06 7.998044145e-20 -0.002004601057)
(-3.415180257e-06 8.081858168e-20 -0.002004765422)
(-3.141879169e-06 8.196476694e-20 -0.002004919522)
(-2.819588058e-06 8.343701218e-20 -0.002005060904)
(-2.444767409e-06 8.520282592e-20 -0.002005186806)
(-2.014141157e-06 8.731421835e-20 -0.002005294064)
(-1.524655394e-06 8.635223587e-20 -0.002005379056)
(-9.694577786e-07 8.568117827e-20 -0.002005437458)
(-3.356165018e-07 8.533984172e-20 -0.002005463288)
(-1.560978313e-07 7.387573329e-20 -0.002003016379)
(-4.090477407e-07 1.487644298e-19 -0.002003034829)
(-6.478374432e-07 2.138123807e-19 -0.002003075767)
(-8.92496501e-07 1.882870379e-19 -0.002003135542)
(-1.135692004e-06 1.842539179e-19 -0.002003212665)
(-1.374942347e-06 1.951006292e-19 -0.002003305557)
(-1.610069208e-06 1.282188651e-19 -0.002003412684)
(-1.840975232e-06 8.060622097e-20 -0.002003532591)
(-2.067393174e-06 4.198345699e-20 -0.002003663907)
(-2.288958992e-06 4.10142901e-20 -0.002003805342)
(-2.505219656e-06 3.927701127e-20 -0.002003955692)
(-2.715641448e-06 3.626886285e-20 -0.002004113837)
(-2.919611235e-06 3.198509181e-20 -0.002004278734)
(-3.116452397e-06 3.804581256e-20 -0.002004449416)
(-3.305448979e-06 4.197976275e-20 -0.002004624985)
(-3.485809917e-06 3.416486124e-20 -0.002004804611)
(-3.656662402e-06 3.523398605e-20 -0.002004987527)
(-3.817124664e-06 4.403402295e-20 -0.00200517303)
(-3.966282311e-06 5.111171753e-20 -0.002005360481)
(-4.103176458e-06 5.665653767e-20 -0.0020055493)
(-4.226846233e-06 6.147838975e-20 -0.002005738968)
(-4.336324453e-06 6.571718239e-20 -0.002005929026)
(-4.430644079e-06 7.560641185e-20 -0.002006119074)
(-4.508872722e-06 8.394317694e-20 -0.00200630878)
(-4.570101546e-06 9.196133108e-20 -0.002006497864)
(-4.613445685e-06 9.389150548e-20 -0.002006686108)
(-4.638085462e-06 9.590444687e-20 -0.00200687335)
(-4.643278822e-06 9.807605475e-20 -0.002007059479)
(-4.628356357e-06 9.981714708e-20 -0.002007244431)
(-4.592720521e-06 1.012773817e-19 -0.002007428179)
(-4.53587548e-06 1.030483367e-19 -0.002007610718)
(-4.4574602e-06 1.050751944e-19 -0.002007792044)
(-4.357253527e-06 1.071018133e-19 -0.002007972121)
(-4.235174468e-06 1.091968938e-19 -0.002008150845)
(-4.091308475e-06 1.114967662e-19 -0.002008328)
(-3.92594265e-06 1.141061479e-19 -0.002008503206)
(-3.739577214e-06 1.168017215e-19 -0.002008675879)
(-3.532939976e-06 1.194705997e-19 -0.002008845188)
(-3.307012023e-06 1.222201537e-19 -0.002009010034)
(-3.063057134e-06 1.251417855e-19 -0.002009169063)
(-2.802632322e-06 1.284718255e-19 -0.002009320687)
(-2.527588012e-06 1.283719265e-19 -0.002009463159)
(-2.240094664e-06 1.24867417e-19 -0.002009594654)
(-1.942658525e-06 1.216461648e-19 -0.002009713385)
(-1.638137232e-06 1.188252742e-19 -0.00200981772)
(-1.329738921e-06 1.16280113e-19 -0.002009906317)
(-1.02097757e-06 1.13987159e-19 -0.002009978241)
(-7.158033763e-07 1.119665865e-19 -0.002010033064)
(-4.190608223e-07 1.098143365e-19 -0.002010070993)
(-1.357735091e-07 1.102507875e-19 -0.002010093035)
(-1.856253295e-07 5.615935831e-21 -0.002007843484)
(-4.853707666e-07 -4.412840913e-20 -0.002007861589)
(-7.653812216e-07 5.952839127e-20 -0.002007900069)
(-1.049036326e-06 1.379643669e-19 -0.002007956403)
(-1.326676449e-06 2.035707758e-19 -0.002008029114)
(-1.594508679e-06 1.881632339e-19 -0.002008116572)
(-1.851629906e-06 1.836248688e-19 -0.002008217216)
(-2.09740777e-06 1.834355569e-19 -0.002008329542)
(-2.331122314e-06 1.856430967e-19 -0.002008452095)
(-2.552067804e-06 1.88072052e-19 -0.002008583488)
(-2.759601839e-06 1.928194689e-19 -0.002008722415)
(-2.953147908e-06 1.984024083e-19 -0.00200886765)
(-3.132140677e-06 1.903656098e-19 -0.002009018064)
(-3.296032916e-06 1.837356664e-19 -0.002009172618)
(-3.444330657e-06 1.78983996e-19 -0.002009330377)
(-3.576569418e-06 1.755867792e-19 -0.002009490505)
(-3.692323972e-06 1.720510892e-19 -0.002009652265)
(-3.791205094e-06 1.693228987e-19 -0.002009815017)
(-3.872872695e-06 1.680515755e-19 -0.00200997822)
(-3.937093012e-06 1.67919559e-19 -0.002010141422)
(-3.98370607e-06 1.688719175e-19 -0.002010304258)
(-4.012589816e-06 1.707404063e-19 -0.002010466436)
(-4.02369339e-06 1.663708434e-19 -0.002010627731)
(-4.017079061e-06 1.573656451e-19 -0.002010787966)
(-3.992911968e-06 1.565562117e-19 -0.002010946996)
(-3.951434408e-06 1.510517319e-19 -0.002011104688)
(-3.892996089e-06 1.409850984e-19 -0.002011260892)
(-3.818035609e-06 1.376566532e-19 -0.002011415426)
(-3.727089711e-06 1.353468263e-19 -0.002011568051)
(-3.620815729e-06 1.2946648e-19 -0.002011718447)
(-3.499961708e-06 1.243778089e-19 -0.002011866207)
(-3.365371369e-06 1.239074733e-19 -0.002012010825)
(-3.2180052e-06 1.2404381e-19 -0.002012151707)
(-3.058914737e-06 1.294403436e-19 -0.002012288185)
(-2.889243945e-06 1.307942491e-19 -0.002012419537)
(-2.710232676e-06 1.328555528e-19 -0.002012545021)
(-2.523207105e-06 1.318637392e-19 -0.002012663904)
(-2.329594627e-06 1.245307975e-19 -0.002012775494)
(-2.130888097e-06 1.145099762e-19 -0.002012879171)
(-1.928646594e-06 1.055481151e-19 -0.002012974407)
(-1.724495651e-06 9.988027823e-20 -0.002013060788)
(-1.520109274e-06 9.837285678e-20 -0.00201313802)
(-1.317187061e-06 9.721849735e-20 -0.002013205943)
(-1.117412356e-06 9.624212761e-20 -0.002013264534)
(-9.224350634e-07 9.541901708e-20 -0.002013313906)
(-7.338309614e-07 9.470902689e-20 -0.002013354305)
(-5.530405962e-07 9.400860144e-20 -0.002013386094)
(-3.81386744e-07 9.484348631e-20 -0.002013409737)
(-2.202628703e-07 9.495989578e-20 -0.00201342577)
(-7.092423279e-08 9.482523147e-20 -0.002013434824)
(-1.650641778e-07 2.161401597e-20 -0.002012663517)
(-4.318960901e-07 -2.026446558e-21 -0.002012676406)
(-6.810497931e-07 -5.257629384e-20 -0.00201270282)
(-9.319673536e-07 -6.541232433e-22 -0.002012741648)
(-1.175405718e-06 2.522802808e-20 -0.00201279188)
(-1.407662182e-06 3.004598262e-20 -0.002012852396)
(-1.627622323e-06 1.211176862e-19 -0.002012922149)
(-1.834499389e-06 1.90005794e-19 -0.002013000136)
(-2.027514638e-06 2.478709309e-19 -0.002013085385)
(-2.205966885e-06 2.632354367e-19 -0.002013176964)
(-2.369315147e-06 2.733338742e-19 -0.00201327399)
(-2.517129038e-06 2.842628118e-19 -0.002013375642)
(-2.649068999e-06 2.982658936e-19 -0.002013481162)
(-2.764875627e-06 2.886321513e-19 -0.002013589855)
(-2.864370498e-06 2.829575e-19 -0.002013701096)
(-2.947479391e-06 2.786854515e-19 -0.002013814322)
(-3.014217406e-06 2.572717696e-19 -0.002013929032)
(-3.064675537e-06 2.207817634e-19 -0.002014044781)
(-3.099039597e-06 1.888387755e-19 -0.002014161167)
(-3.117584517e-06 1.692885465e-19 -0.002014277831)
(-3.120649764e-06 1.516668788e-19 -0.002014394443)
(-3.108658564e-06 1.357199089e-19 -0.002014510692)
(-3.082117779e-06 1.147762974e-19 -0.00201462627)
(-3.041590875e-06 1.020247429e-19 -0.002014740866)
(-2.987723361e-06 8.980242386e-20 -0.002014854157)
(-2.921249125e-06 8.42021097e-20 -0.002014965806)
(-2.842942298e-06 7.91890956e-20 -0.002015075456)
(-2.753617613e-06 8.041417228e-20 -0.002015182732)
(-2.654164701e-06 8.158168247e-20 -0.002015287245)
(-2.545528281e-06 8.275297504e-20 -0.002015388598)
(-2.428691145e-06 8.396996084e-20 -0.002015486396)
(-2.304672808e-06 8.033108463e-20 -0.002015580253)
(-2.174541707e-06 7.697125554e-20 -0.002015669803)
(-2.039403786e-06 6.901902315e-20 -0.002015754707)
(-1.900361743e-06 6.163598847e-20 -0.002015834665)
(-1.758540738e-06 5.444983451e-20 -0.002015909418)
(-1.615068811e-06 5.175948629e-20 -0.002015978757)
(-1.471055532e-06 4.917660561e-20 -0.002016042525)
(-1.327591186e-06 5.042335095e-20 -0.002016100623)
(-1.185727909e-06 5.135277702e-20 -0.002016153009)
(-1.046470535e-06 4.842316502e-20 -0.002016199701)
(-9.107594313e-07 4.7922698e-20 -0.002016240774)
(-7.794599794e-07 5.35713747e-20 -0.002016276362)
(-6.533597018e-07 5.887692548e-20 -0.00201630665)
(-5.3315875e-07 6.378626741e-20 -0.00201633187)
(-4.194514295e-07 6.842290987e-20 -0.002016352294)
(-3.127190261e-07 7.301260022e-20 -0.002016368226)
(-2.133857737e-07 7.52773127e-20 -0.002016379991)
(-1.219654183e-07 7.635043246e-20 -0.002016387937)
(-3.906625474e-08 7.593842276e-20 -0.002016392439)
(-1.297574823e-07 9.779480031e-20 -0.002017095916)
(-3.389072835e-07 2.159688322e-19 -0.002017104173)
(-5.330740859e-07 1.726669679e-19 -0.002017120456)
(-7.278670552e-07 1.547263523e-19 -0.0020171445)
(-9.158076645e-07 1.483968468e-19 -0.002017175697)
(-1.093814235e-06 1.492133996e-19 -0.002017213381)
(-1.260843747e-06 1.54297862e-19 -0.002017256946)
(-1.416149196e-06 1.616955841e-19 -0.002017305815)
(-1.55905079e-06 1.705381181e-19 -0.00201735943)
(-1.689036993e-06 1.803227636e-19 -0.002017417255)
(-1.805717677e-06 1.916951779e-19 -0.002017478775)
(-1.90879271e-06 1.864482436e-19 -0.002017543507)
(-1.998110166e-06 1.970974709e-19 -0.002017610995)
(-2.073619144e-06 1.944992885e-19 -0.00201768081)
(-2.13535041e-06 1.790526007e-19 -0.002017752544)
(-2.18346493e-06 1.671563952e-19 -0.002017825816)
(-2.218205436e-06 1.584732005e-19 -0.002017900262)
(-2.239880187e-06 1.526404616e-19 -0.00201797553)
(-2.248893694e-06 1.387490612e-19 -0.00201805128)
(-2.245698506e-06 1.266264022e-19 -0.002018127178)
(-2.230811499e-06 1.078617536e-19 -0.002018202895)
(-2.204840823e-06 8.306827342e-20 -0.002018278101)
(-2.168447439e-06 6.655021161e-20 -0.002018352464)
(-2.122320792e-06 5.095702652e-20 -0.002018425658)
(-2.06718118e-06 3.087296507e-20 -0.002018497356)
(-2.003800681e-06 2.401974113e-20 -0.002018567238)
(-1.932981409e-06 2.245684588e-20 -0.002018634996)
(-1.855543269e-06 2.060317041e-20 -0.002018700333)
(-1.77233289e-06 1.845594677e-20 -0.002018762969)
(-1.684200495e-06 1.585015922e-20 -0.002018822647)
(-1.591991747e-06 1.257459839e-20 -0.002018879137)
(-1.496564239e-06 8.289048829e-21 -0.002018932238)
(-1.398755129e-06 1.171999485e-20 -0.00201898178)
(-1.299388914e-06 1.009240813e-20 -0.002019027634)
(-1.199269282e-06 1.111221391e-20 -0.002019069704)
(-1.099158963e-06 1.107406752e-20 -0.002019107933)
(-9.997959512e-07 1.311726598e-20 -0.002019142303)
(-9.018742344e-07 1.99104829e-20 -0.002019172833)
(-8.060393944e-07 2.843331635e-20 -0.002019199579)
(-7.128878237e-07 3.610293314e-20 -0.002019222629)
(-6.229662224e-07 4.328956678e-20 -0.002019242103)
(-5.36768004e-07 4.713602182e-20 -0.00201925815)
(-4.547232079e-07 5.030388456e-20 -0.002019270941)
(-3.772006045e-07 4.920002107e-20 -0.002019280669)
(-3.045183863e-07 5.312120983e-20 -0.002019287546)
(-2.369491645e-07 5.355323549e-20 -0.002019291788)
(-1.746874433e-07 5.387768474e-20 -0.002019293577)
(-1.178394775e-07 5.441601189e-20 -0.002019293094)
(-6.652918584e-08 5.553697931e-20 -0.002019290983)
(-2.11323643e-08 5.679828722e-20 -0.002019288919)
(-9.660022964e-08 4.654770511e-20 -0.002020972138)
(-2.524761673e-07 7.024699384e-20 -0.002020977243)
(-3.973239369e-07 7.61726273e-20 -0.002020986913)
(-5.421234517e-07 7.905888851e-20 -0.002021001238)
(-6.810464231e-07 7.983897763e-20 -0.002021019873)
(-8.117742784e-07 7.938315566e-20 -0.00202104243)
(-9.334605994e-07 7.689073007e-20 -0.002021068564)
(-1.045512322e-06 7.163393853e-20 -0.002021097946)
(-1.147413838e-06 6.160536322e-20 -0.00202113025)
(-1.238815146e-06 4.283340039e-20 -0.002021165157)
(-1.3194747e-06 2.675804305e-20 -0.002021202359)
(-1.389240323e-06 1.161822706e-20 -0.002021241549)
(-1.448107382e-06 -3.853552121e-21 -0.00202128243)
(-1.496176803e-06 -2.177716167e-20 -0.002021324709)
(-1.533602201e-06 -3.954703466e-20 -0.002021368096)
(-1.560620777e-06 -4.72943566e-20 -0.002021412302)
(-1.577576164e-06 -4.637609476e-20 -0.002021457044)
(-1.584856385e-06 -2.697332293e-20 -0.00202150204)
(-1.582896585e-06 -9.507323208e-21 -0.002021547009)
(-1.572196547e-06 -1.64631471e-21 -0.002021591675)
(-1.553316503e-06 5.893199982e-21 -0.002021635762)
(-1.526852964e-06 4.823952128e-21 -0.002021679001)
(-1.49341885e-06 3.92693333e-21 -0.002021721132)
(-1.453654527e-06 4.370419474e-21 -0.002021761908)
(-1.408220947e-06 4.938110343e-21 -0.002021801092)
(-1.357777867e-06 5.436906727e-21 -0.002021838464)
(-1.303010165e-06 6.200332462e-21 -0.002021873823)
(-1.24460847e-06 7.995089529e-21 -0.002021906987)
(-1.18324384e-06 9.996882071e-21 -0.002021937798)
(-1.119584063e-06 1.219506749e-20 -0.002021966123)
(-1.054279724e-06 1.451599714e-20 -0.002021991853)
(-9.879686669e-07 2.14160539e-20 -0.002022014907)
(-9.21253656e-07 2.819709087e-20 -0.002022035231)
(-8.547157083e-07 3.929217092e-20 -0.002022052796)
(-7.889174279e-07 5.065548459e-20 -0.002022067599)
(-7.243678909e-07 5.813340075e-20 -0.002022079664)
(-6.615500102e-07 6.263693677e-20 -0.002022089033)
(-6.009215987e-07 6.392674265e-20 -0.002022095776)
(-5.428859203e-07 6.260183793e-20 -0.002022099977)
(-4.87802626e-07 5.832492695e-20 -0.00202210174)
(-4.360086924e-07 5.792281297e-20 -0.002022101185)
(-3.877977916e-07 5.470279592e-20 -0.002022098443)
(-3.433931293e-07 4.875385298e-20 -0.002022093662)
(-3.029439449e-07 4.349198794e-20 -0.002022086981)
(-2.666661601e-07 3.859765341e-20 -0.002022078498)
(-2.353820826e-07 3.700684003e-20 -0.002022068365)
(-2.101123564e-07 3.547756776e-20 -0.002022057426)
(-1.850610573e-07 3.494303419e-20 -0.002022047114)
(-1.387579743e-07 3.471289769e-20 -0.002022038563)
(-5.224054068e-08 3.469222737e-20 -0.002022032839)
(-7.042479497e-08 4.61306524e-20 -0.002024520416)
(-1.837449663e-07 6.985748356e-20 -0.002024523569)
(-2.885340867e-07 7.700244684e-20 -0.002024529305)
(-3.930359678e-07 8.066238108e-20 -0.002024537805)
(-4.929354577e-07 8.30506146e-20 -0.00202454886)
(-5.865261949e-07 8.496947775e-20 -0.002024562239)
(-6.73133206e-07 8.777647841e-20 -0.002024577731)
(-7.523104146e-07 9.410033017e-20 -0.002024595128)
(-8.237247645e-07 5.930376159e-20 -0.002024614225)
(-8.871178021e-07 8.930940982e-21 -0.00202463481)
(-9.423705657e-07 -3.788678921e-20 -0.002024656678)
(-9.894624538e-07 -6.813336806e-20 -0.002024679617)
(-1.028438429e-06 -9.937009218e-20 -0.002024703414)
(-1.059449938e-06 -1.182730233e-19 -0.002024727857)
(-1.082727055e-06 -1.253367237e-19 -0.002024752737)
(-1.0985413e-06 -1.340257801e-19 -0.00202477784)
(-1.107223154e-06 -1.323214393e-19 -0.002024802954)
(-1.109165521e-06 -1.332357199e-19 -0.002024827873)
(-1.104798569e-06 -1.272127393e-19 -0.002024852392)
(-1.094587392e-06 -1.23582802e-19 -0.002024876312)
(-1.079039683e-06 -1.140576756e-19 -0.002024899442)
(-1.058672367e-06 -9.909423148e-20 -0.002024921603)
(-1.034000139e-06 -8.661256493e-20 -0.002024942625)
(-1.00557552e-06 -6.897270249e-20 -0.002024962354)
(-9.739618118e-07 -5.33471948e-20 -0.002024980647)
(-9.397058891e-07 -4.545337484e-20 -0.002024997379)
(-9.033526195e-07 -3.849234199e-20 -0.002025012439)
(-8.654501594e-07 -3.23265945e-20 -0.002025025738)
(-8.265275331e-07 -3.231579886e-20 -0.002025037202)
(-7.87100365e-07 -3.209433111e-20 -0.002025046776)
(-7.47669241e-07 -3.143397242e-20 -0.002025054426)
(-7.087026281e-07 -2.993480756e-20 -0.002025060133)
(-6.706594313e-07 -4.078548257e-20 -0.002025063898)
(-6.339657621e-07 -5.039101522e-20 -0.002025065735)
(-5.990152016e-07 -5.475488117e-20 -0.002025065675)
(-5.661890078e-07 -5.872296003e-20 -0.002025063765)
(-5.358295914e-07 -5.841242558e-20 -0.002025060063)
(-5.08243916e-07 -5.802348054e-20 -0.002025054638)
(-4.837188719e-07 -5.772856595e-20 -0.002025047571)
(-4.625030655e-07 -5.7401574e-20 -0.002025038952)
(-4.44781123e-07 -5.71397299e-20 -0.002025028882)
(-4.306639331e-07 -5.676997033e-20 -0.002025017452)
(-4.204828827e-07 -5.623066079e-20 -0.002025004696)
(-4.153994824e-07 -5.500742186e-20 -0.002024990706)
(-4.155457147e-07 -5.900548491e-20 -0.002024976493)
(-4.091693036e-07 -5.986369867e-20 -0.002024963657)
(-3.756344552e-07 -6.215216871e-20 -0.0020249536)
(-3.063821173e-07 -6.452173223e-20 -0.002024947508)
(-2.046718605e-07 -6.701246935e-20 -0.002024945824)
(-7.229043215e-08 -6.967032249e-20 -0.002024946534)
(-5.149985716e-08 -9.532230954e-21 -0.002027764183)
(-1.344898393e-07 1.855088023e-19 -0.002027766095)
(-2.11419175e-07 1.552702259e-19 -0.002027769439)
(-2.880350703e-07 1.389347326e-19 -0.002027774371)
(-3.610755955e-07 1.303315239e-19 -0.002027780765)
(-4.292780219e-07 1.268107146e-19 -0.00202778847)
(-4.921697995e-07 1.276891501e-19 -0.002027797347)
(-5.494317604e-07 1.335566255e-19 -0.002027807249)
(-6.008434245e-07 1.218868802e-19 -0.002027818035)
(-6.462582632e-07 1.253215767e-19 -0.002027829558)
(-6.856107913e-07 9.549000424e-20 -0.002027841669)
(-7.189590318e-07 5.537199663e-20 -0.00202785422)
(-7.464074296e-07 2.204552249e-20 -0.00202786706)
(-7.681127829e-07 -7.944987233e-21 -0.002027880041)
(-7.843029167e-07 -3.41720167e-20 -0.002027893015)
(-7.952592139e-07 -5.7695588e-20 -0.00202790584)
(-8.013074464e-07 -6.754162981e-20 -0.002027918376)
(-8.028039155e-07 -8.676563314e-20 -0.002027930488)
(-8.001279041e-07 -9.476572351e-20 -0.002027942048)
(-7.936819169e-07 -1.024802446e-19 -0.002027952936)
(-7.838925863e-07 -9.052407688e-20 -0.002027963039)
(-7.711970511e-07 -7.156061339e-20 -0.002027972259)
(-7.560415281e-07 -5.425980211e-20 -0.002027980505)
(-7.388851161e-07 -5.354268604e-20 -0.002027987698)
(-7.201736269e-07 -5.323956436e-20 -0.002027993771)
(-7.003616736e-07 -6.033260536e-20 -0.002027998669)
(-6.798877154e-07 -6.748762273e-20 -0.002028002352)
(-6.591805489e-07 -8.058604335e-20 -0.00202800479)
(-6.38656824e-07 -9.357865296e-20 -0.002028005968)
(-6.187133544e-07 -1.011065081e-19 -0.002028005879)
(-5.997381386e-07 -1.092809056e-19 -0.00202800453)
(-5.820865912e-07 -1.181871776e-19 -0.00202800194)
(-5.6610955e-07 -1.277420008e-19 -0.002027998134)
(-5.521253201e-07 -1.382183812e-19 -0.002027993149)
(-5.404219839e-07 -1.497991887e-19 -0.002027987027)
(-5.312791157e-07 -1.581760386e-19 -0.00202797982)
(-5.249365211e-07 -1.678689201e-19 -0.002027971584)
(-5.216059709e-07 -1.706088664e-19 -0.002027962383)
(-5.214344265e-07 -1.744632325e-19 -0.002027952289)
(-5.244914719e-07 -1.713179292e-19 -0.002027941358)
(-5.311537229e-07 -1.693822202e-19 -0.002027929574)
(-5.427932427e-07 -1.653171528e-19 -0.002027916981)
(-5.59136372e-07 -1.590626254e-19 -0.002027904756)
(-5.649777439e-07 -1.539275032e-19 -0.002027894722)
(-5.39402353e-07 -1.497680465e-19 -0.002027888532)
(-4.76369059e-07 -1.493108713e-19 -0.002027887517)
(-3.790770435e-07 -1.494412195e-19 -0.002027891604)
(-2.574522264e-07 -1.502300372e-19 -0.002027898684)
(-1.38347272e-07 -1.503297802e-19 -0.002027905881)
(-4.224012333e-08 -1.512100727e-19 -0.002027910893)
(-3.919446288e-08 1.520806409e-19 -0.00203086639)
(-1.022054394e-07 3.696936222e-19 -0.002030867346)
(-1.604188431e-07 4.107669368e-19 -0.002030868898)
(-2.184225318e-07 2.424574078e-19 -0.002030871162)
(-2.737708277e-07 1.450325192e-19 -0.002030874068)
(-3.255052251e-07 7.75790067e-20 -0.002030877522)
(-3.732908966e-07 2.32628465e-20 -0.002030881427)
(-4.169082975e-07 -2.748315114e-20 -0.00203088569)
(-4.5619044e-07 -3.511168765e-20 -0.002030890208)
(-4.910841964e-07 -2.629478213e-20 -0.002030894882)
(-5.215827521e-07 -1.95224127e-20 -0.002030899611)
(-5.477399042e-07 -1.454130914e-20 -0.002030904292)
(-5.696789737e-07 -1.076452589e-20 -0.002030908827)
(-5.875694149e-07 -7.13770446e-21 -0.002030913119)
(-6.016195919e-07 -4.28260276e-21 -0.002030917072)
(-6.120721697e-07 -2.553517818e-21 -0.002030920598)
(-6.192013499e-07 -1.384203614e-20 -0.002030923613)
(-6.233198674e-07 -2.536773467e-20 -0.00203092604)
(-6.247670768e-07 -3.736932929e-20 -0.002030927812)
(-6.238840025e-07 -3.956175168e-20 -0.002030928866)
(-6.210085779e-07 -4.305974262e-20 -0.002030929147)
(-6.165026808e-07 -3.821222125e-20 -0.002030928613)
(-6.107390122e-07 -3.414443044e-20 -0.002030927228)
(-6.040782505e-07 -3.777062163e-20 -0.002030924966)
(-5.968796942e-07 -4.15838089e-20 -0.002030921812)
(-5.894942904e-07 -4.53292166e-20 -0.00203091776)
(-5.822650523e-07 -4.928027772e-20 -0.002030912814)
(-5.755235253e-07 -5.339699809e-20 -0.002030906984)
(-5.695863003e-07 -5.191833314e-20 -0.002030900291)
(-5.647567816e-07 -5.09595463e-20 -0.002030892763)
(-5.61316646e-07 -5.023094163e-20 -0.002030884435)
(-5.59536401e-07 -4.960206122e-20 -0.002030875346)
(-5.59658929e-07 -4.413662492e-20 -0.002030865543)
(-5.619057653e-07 -3.880713173e-20 -0.002030855075)
(-5.664848535e-07 -3.797453274e-20 -0.002030843997)
(-5.735617442e-07 -3.689267823e-20 -0.002030832368)
(-5.83237997e-07 -3.97245463e-20 -0.002030820255)
(-5.955344224e-07 -4.229367432e-20 -0.002030807706)
(-6.108415957e-07 -4.45276343e-20 -0.002030794678)
(-6.306801082e-07 -4.654190257e-20 -0.002030781193)
(-6.545232106e-07 -4.823784738e-20 -0.002030768568)
(-6.650697817e-07 -4.966035323e-20 -0.002030758778)
(-6.408700147e-07 -5.090578831e-20 -0.002030753587)
(-5.77026321e-07 -4.844749721e-20 -0.002030754429)
(-4.777048344e-07 -4.553622825e-20 -0.002030760957)
(-3.58992685e-07 -4.382641594e-20 -0.002030770858)
(-2.471416372e-07 -4.189431418e-20 -0.00203078103)
(-1.549168022e-07 -3.971582627e-20 -0.002030789084)
(-8.128171859e-08 -3.889918697e-20 -0.002030794113)
(-2.46446052e-08 -3.788766339e-20 -0.002030796636)
(-3.163982193e-08 1.938075781e-19 -0.002033843396)
(-8.262217797e-08 2.194566711e-19 -0.002033843545)
(-1.29986782e-07 2.410456855e-19 -0.002033843541)
(-1.77337307e-07 1.41036408e-19 -0.002033843493)
(-2.226812004e-07 7.076325217e-20 -0.002033843377)
(-2.653161816e-07 1.536333126e-20 -0.002033843145)
(-3.050072331e-07 -3.203055757e-20 -0.002033842739)
(-3.416296277e-07 -7.534209839e-20 -0.002033842107)
(-3.750983503e-07 -9.14478159e-20 -0.002033841186)
(-4.05375463e-07 -1.094302256e-19 -0.002033839915)
(-4.324959782e-07 -9.00795595e-20 -0.002033838232)
(-4.565387886e-07 -5.828428495e-20 -0.002033836078)
(-4.776214291e-07 -3.185173543e-20 -0.002033833392)
(-4.959055524e-07 5.671806529e-21 -0.002033830121)
(-5.115897864e-07 3.958992451e-20 -0.002033826212)
(-5.248927832e-07 7.089916566e-20 -0.002033821619)
(-5.360453228e-07 7.617394838e-20 -0.002033816302)
(-5.45296889e-07 8.201877145e-20 -0.002033810223)
(-5.529239461e-07 7.849029012e-20 -0.002033803357)
(-5.592259687e-07 7.577641795e-20 -0.002033795684)
(-5.644827849e-07 5.485030393e-20 -0.002033787192)
(-5.689715714e-07 3.557790207e-20 -0.002033777875)
(-5.729913998e-07 1.813119012e-20 -0.002033767738)
(-5.768180907e-07 9.885799356e-21 -0.002033756791)
(-5.8073319e-07 2.319676657e-21 -0.002033745054)
(-5.850022869e-07 2.112364416e-21 -0.002033732554)
(-5.89880845e-07 1.900352521e-21 -0.002033719324)
(-5.956121368e-07 8.301270662e-21 -0.002033705404)
(-6.024249271e-07 1.464545267e-20 -0.002033690839)
(-6.105316403e-07 1.531075136e-20 -0.00203367568)
(-6.201253723e-07 1.63776989e-20 -0.002033659983)
(-6.313876216e-07 1.790390083e-20 -0.002033643806)
(-6.444726124e-07 1.995446444e-20 -0.002033627212)
(-6.595089361e-07 2.247047707e-20 -0.002033610268)
(-6.765451283e-07 2.542067546e-20 -0.002033593053)
(-6.955509548e-07 2.883538924e-20 -0.00203357562)
(-7.169332869e-07 3.275136369e-20 -0.002033557921)
(-7.42318236e-07 3.299978132e-20 -0.002033539964)
(-7.709802224e-07 3.374193119e-20 -0.002033523223)
(-7.838585355e-07 3.060920942e-20 -0.002033509825)
(-7.587737488e-07 2.808238662e-20 -0.002033501595)
(-6.915380447e-07 2.624436344e-20 -0.002033499966)
(-5.868660835e-07 2.145094234e-20 -0.00203350435)
(-4.644094213e-07 1.799044443e-20 -0.002033512252)
(-3.508055395e-07 1.541096332e-20 -0.002033520452)
(-2.557131111e-07 1.357960045e-20 -0.002033526587)
(-1.773528361e-07 1.073335883e-20 -0.002033530067)
(-1.131638185e-07 9.78700908e-21 -0.002033531386)
(-6.095138263e-08 9.266145733e-21 -0.002033531196)
(-1.861852473e-08 9.059602829e-21 -0.00203353055)
(-2.745598932e-08 -3.873217285e-20 -0.002036768464)
(-7.165125891e-08 -1.829076962e-19 -0.002036767922)
(-1.127396725e-07 -1.654355701e-19 -0.002036766589)
(-1.540261221e-07 -8.452810353e-20 -0.002036764584)
(-1.93888348e-07 -5.071230165e-20 -0.002036761923)
(-2.318013217e-07 -3.391237814e-20 -0.002036758593)
(-2.675985112e-07 -2.377602024e-20 -0.002036754582)
(-3.011984455e-07 -1.600268811e-20 -0.002036749867)
(-3.325871197e-07 -8.539463317e-21 -0.002036744429)
(-3.617724229e-07 -6.226491014e-22 -0.002036738242)
(-3.887924411e-07 8.204394999e-21 -0.002036731282)
(-4.137371685e-07 1.777805219e-20 -0.002036723524)
(-4.367285718e-07 2.79443874e-20 -0.002036714945)
(-4.579135349e-07 3.834920603e-20 -0.002036705526)
(-4.774600931e-07 4.876047719e-20 -0.002036695252)
(-4.955548554e-07 5.893946513e-20 -0.002036684113)
(-5.124030606e-07 6.921162623e-20 -0.002036672103)
(-5.282224146e-07 7.913497613e-20 -0.00203665922)
(-5.432294102e-07 8.870692502e-20 -0.002036645468)
(-5.576434195e-07 8.803841653e-20 -0.002036630859)
(-5.716960389e-07 8.766379142e-20 -0.002036615411)
(-5.856096504e-07 7.871657628e-20 -0.002036599147)
(-5.995979859e-07 7.056598501e-20 -0.002036582096)
(-6.138756023e-07 6.315501429e-20 -0.002036564293)
(-6.28643997e-07 5.633230189e-20 -0.002036545778)
(-6.440952979e-07 4.987776352e-20 -0.002036526597)
(-6.604098865e-07 4.359056195e-20 -0.002036506799)
(-6.777495349e-07 3.713392628e-20 -0.00203648644)
(-6.962648764e-07 3.062938939e-20 -0.002036465575)
(-7.160862122e-07 2.392066378e-20 -0.002036444265)
(-7.373329689e-07 1.693382105e-20 -0.002036422573)
(-7.600951572e-07 9.570017295e-21 -0.002036400567)
(-7.843746751e-07 7.140086285e-21 -0.002036378328)
(-8.101010177e-07 9.230946635e-21 -0.002036355909)
(-8.376833622e-07 1.051043094e-20 -0.002036333247)
(-8.688711924e-07 1.10670141e-20 -0.002036310336)
(-9.027737131e-07 1.092819509e-20 -0.002036288822)
(-9.186325876e-07 1.006935914e-20 -0.002036271051)
(-8.93397745e-07 8.560850941e-21 -0.002036258982)
(-8.234625234e-07 6.355038377e-21 -0.002036254085)
(-7.139757761e-07 3.424378556e-21 -0.002036255475)
(-5.867236516e-07 -2.031612103e-22 -0.002036260356)
(-4.689849344e-07 -4.449822294e-21 -0.002036265267)
(-3.691114444e-07 -9.305447573e-21 -0.002036267736)
(-2.851570625e-07 -1.480206671e-20 -0.002036267321)
(-2.146520418e-07 -1.62269629e-20 -0.002036264541)
(-1.554262918e-07 -1.524532976e-20 -0.002036260048)
(-1.046329486e-07 -1.502242813e-20 -0.002036254917)
(-5.952936994e-08 -1.393582949e-20 -0.002036250344)
(-1.828992142e-08 -1.337592707e-20 -0.002036247391)
(-2.558987178e-08 -8.410566365e-20 -0.002039631884)
(-6.688423298e-08 -2.991494131e-19 -0.002039630799)
(-1.055258924e-07 -3.276692778e-19 -0.002039628401)
(-1.446014633e-07 -2.450394754e-19 -0.002039624826)
(-1.826861124e-07 -2.060926278e-19 -0.002039620121)
(-2.193381475e-07 -1.44557349e-19 -0.002039614319)
(-2.544757866e-07 -1.025465172e-19 -0.002039607443)
(-2.880798047e-07 -7.232390089e-20 -0.002039599513)
(-3.201393409e-07 -4.964886688e-20 -0.002039590539)
(-3.506983779e-07 -3.201927162e-20 -0.002039580537)
(-3.798367295e-07 -1.794966971e-20 -0.002039569517)
(-4.076476731e-07 -6.536061868e-21 -0.002039557491)
(-4.342346165e-07 2.827055199e-21 -0.002039544472)
(-4.597210641e-07 1.013861644e-20 -0.002039530475)
(-4.84249608e-07 1.564328526e-20 -0.002039515516)
(-5.079844454e-07 1.978681198e-20 -0.002039499614)
(-5.310996475e-07 3.562655557e-20 -0.002039482792)
(-5.537662606e-07 4.999550903e-20 -0.002039465076)
(-5.761506713e-07 6.323449035e-20 -0.002039446497)
(-5.984224175e-07 7.562871386e-20 -0.002039427091)
(-6.207581491e-07 8.748916387e-20 -0.002039406892)
(-6.43320305e-07 8.956481725e-20 -0.002039385942)
(-6.662688753e-07 9.199203593e-20 -0.002039364285)
(-6.897642903e-07 9.482991737e-20 -0.002039341967)
(-7.139376796e-07 9.811080884e-20 -0.002039319038)