/*--------------------------------*- C++ -*----------------------------------*\
  =========                 |
  \\      /  F ield         | OpenFOAM: The Open Source CFD Toolbox
   \\    /   O peration     | Website:  https://openfoam.org
    \\  /    A nd           | Version:  7
     \\/     M anipulation  |
\*---------------------------------------------------------------------------*/
FoamFile
{
    version     2.0;
    format      ascii;
    class       volScalarField;
    location    "0.0018";
    object      wallHeatFlux;
}
// * * * * * * * * * * * * * * * * * * * * * * * * * * * * * * * * * * * * * //

dimensions      [1 0 -3 0 0 0 0];

internalField   uniform 0;

boundaryField
{
    front_top
    {
        type            wedge;
    }
    front_middle
    {
        type            wedge;
    }
    front_bottom
    {
        type            wedge;
    }
    back_top
    {
        type            wedge;
    }
    back_middle
    {
        type            wedge;
    }
    back_bottom
    {
        type            wedge;
    }
    axis_top
    {
        type            symmetryPlane;
    }
    axis_middle
    {
        type            symmetryPlane;
    }
    axis_bottom
    {
        type            symmetryPlane;
    }
    wall_top
    {
        type            calculated;
        value           nonuniform List<scalar> 
150
(
47280.05984
42093.23135
39140.91194
36908.99737
35208.27061
33924.89638
32400.48822
30670.41094
29114.02131
27909.14043
27281.51111
26968.45286
26649.17421
26185.72053
25694.76976
25238.21678
24812.59453
24412.48241
24034.09036
23674.58282
23331.6739
23002.84597
22686.46624
22381.05809
22085.48132
21799.14358
21521.6627
21252.9159
20992.62175
20740.47304
20496.1413
20259.3191
20029.67757
19806.88177
19590.62233
19380.62447
19176.65816
18978.4986
18785.93499
18598.7662
18416.79524
18239.83369
18067.71735
17900.25713
17737.27955
17578.61613
17424.11256
17273.66148
17127.07775
16984.21863
16844.99417
16709.2696
16576.89635
16447.81782
16321.89825
16199.00683
16079.1305
15962.07978
15847.83522
15736.27592
15627.32718
15520.92626
15416.96248
15315.40838
15216.14428
15119.15196
15024.3245
14931.62915
14840.99136
14752.34529
14665.66732
14580.84201
14497.91471
14416.74082
14337.32999
14259.62003
14183.53324
14109.10802
14036.22193
13964.85908
13895.01561
13826.59994
13759.60633
13694.01224
13629.74443
13566.79125
13505.14212
13444.72544
13385.51654
13327.53549
13270.70123
13214.98826
13160.3988
13106.89917
13054.44387
13003.00894
12952.60913
12903.1917
12854.72671
12807.19354
12760.60086
12714.90598
12670.08005
12626.10343
12582.97056
12540.67119
12499.1637
12458.43016
12418.45296
12379.23176
12340.74252
12302.95408
12265.84882
12229.40807
12193.62265
12158.48247
12123.94855
12090.00019
12056.61497
12023.76851
11991.44606
11959.61417
11928.22521
11897.23581
11866.59229
11836.22672
11806.05567
11775.97488
11745.81064
11715.3495
11684.29639
11652.2398
11618.60403
11582.60358
11543.07944
11498.42824
11446.39806
11383.85356
11306.3774
11207.81033
11079.67424
10910.20729
10683.28402
10376.85796
9960.818932
9393.906494
8618.804624
7552.875331
6065.974788
3910.000393
)
;
    }
    wall_middle
    {
        type            calculated;
        value           nonuniform List<scalar> 
65
(
297738.4638
182540.4827
143215.4929
123560.0566
111262.0587
102568.9113
95974.39106
90739.59874
86449.99822
82851.92986
79779.98572
77120.90123
74794.39664
72741.86203
70919.39943
69293.39003
67837.49232
66531.21782
65358.21342
64305.22614
63361.42014
62517.88209
61767.22578
61103.28663
60520.92704
60015.71488
59583.98084
59222.62016
58928.93186
58700.61327
58535.68544
58432.4361
58389.39406
58405.29267
58479.03309
58609.65269
58796.30686
59038.27164
59334.92033
59685.70791
60090.19478
60547.94231
61058.62089
61621.95102
62237.72736
62905.88251
63626.51756
64400.00586
65227.17515
66109.55745
67049.92219
68052.64588
69125.34024
70279.2444
71534.30086
72918.39531
74482.89076
76298.12338
78495.1359
81270.64499
84958.01131
90258.82279
98075.6669
111453.5526
160869.3433
)
;
    }
    wall_bottom
    {
        type            calculated;
        value           nonuniform List<scalar> 
65
(
156433.2021
131916.494
122885.9921
117902.0318
114682.748
112345.9968
110534.4637
109062.3547
107821.5901
106748.5708
105799.8695
104946.7346
104167.974
103448.2108
102775.6383
102141.2277
101537.8792
100960.012
100403.1856
99863.86091
99339.20111
98826.92805
98325.20825
97832.56462
97347.80698
96869.97809
96398.30938
95932.1843
95471.10889
95014.68818
94562.60929
94114.62691
93670.54984
93230.23006
92793.5541
92360.4361
91930.81233
91504.63688
91081.87785
90662.51416
90246.53301
89833.9279
89424.69672
89018.83813
88616.35632
88217.26507
87821.58077
87429.32028
87040.50098
86655.14179
86273.26429
85894.89356
85520.05965
85148.80007
84781.16315
84417.21179
84057.02832
83700.72243
83348.44064
83000.37852
82656.76133
82317.77655
81983.34642
81654.75311
81357.47251
)
;
    }
    inlet
    {
        type            calculated;
        value           nonuniform List<scalar> 
50
(
-21.89813937
-22.49963345
-23.81949981
-25.85111025
-28.6480752
-32.29820465
-36.92235332
-42.67666097
-49.7565501
-58.40218553
-68.90537264
-81.61796916
-96.96194131
-115.4412351
-137.6556668
-164.3170656
-196.2679277
-234.5028046
-280.1927383
-334.7133649
-399.6766643
-476.9668608
-568.7809674
-677.6742554
-806.6108313
-959.0198841
-1138.858113
-1350.679338
-1599.710744
-1891.934585
-2234.177129
-2634.211382
-3100.866389
-3644.143706
-4275.351026
-5007.235813
-5854.115298
-6832.038063
-7958.964642
-9254.958552
-10742.37333
-12446.06276
-14393.5324
-16615.20648
-19144.73208
-22019.23698
-25279.43555
-28970.00104
-33139.88222
-37842.55969
)
;
    }
    outlet
    {
        type            calculated;
        value           uniform 0;
    }
}


// ************************************************************************* //
