/*--------------------------------*- C++ -*----------------------------------*\
  =========                 |
  \\      /  F ield         | OpenFOAM: The Open Source CFD Toolbox
   \\    /   O peration     | Website:  https://openfoam.org
    \\  /    A nd           | Version:  7
     \\/     M anipulation  |
\*---------------------------------------------------------------------------*/
FoamFile
{
    version     2.0;
    format      ascii;
    class       volScalarField;
    location    "0.0018";
    object      generalizedNewtonian:nu;
}
// * * * * * * * * * * * * * * * * * * * * * * * * * * * * * * * * * * * * * //

dimensions      [0 2 -1 0 0 0 0];

internalField   nonuniform List<scalar> 
1167
(
34.86719265
34.69197023
31.27470049
31.11961478
31.18041798
30.90220361
30.63817033
30.32310094
29.96088045
29.56159631
29.13122337
28.67542801
28.19999505
27.70940778
27.20790318
26.69962906
26.18734623
25.67413903
25.16215291
24.65337056
24.14940367
23.65144339
23.16066725
22.67774453
22.20350679
21.73839249
21.28295717
20.83755054
20.40256829
19.97846071
19.56555647
19.1644845
18.77553296
18.39956033
18.03686606
17.6883079
17.35421577
17.03522751
16.73158181
16.44346286
16.17073161
15.91298965
15.66960768
15.43956213
15.22170387
15.0145354
14.81654404
14.62610407
14.44204518
14.26395135
14.08974201
13.91997815
28.1403385
28.00306515
28.06192424
27.81502873
27.58274823
27.30464612
26.9842965
26.63014022
26.24739237
25.84109731
25.41584715
24.97553199
24.52410377
24.06462707
23.59983084
23.13234598
22.66381959
22.19636611
21.7309136
21.26900413
20.8111608
20.35851257
19.91131422
19.47045623
19.03607408
18.60883408
18.1890017
17.77713636
17.37373889
16.97932303
16.59471111
16.22044376
15.85756103
15.50673605
15.16895942
14.84507166
14.53580023
14.24188809
13.9636459
13.70153658
13.45531192
13.22481869
13.00925417
12.80777263
12.61902135
12.44168614
12.27446094
12.11647099
11.96483578
11.8238382
25.40524524
25.28371738
25.34087606
25.12177354
24.91768349
24.67252576
24.38922073
24.07524768
23.73504617
23.37299808
22.99262659
22.59751286
22.19099369
21.77548094
21.35367521
20.92737464
20.49844047
20.06821739
19.63794845
19.20854969
18.78085342
18.35542619
17.93292718
17.51362579
17.09817793
16.6867311
16.27990315
15.87802624
15.48165046
15.09149201
14.70813078
14.33256069
13.96560654
13.60833479
13.26196478
12.92749839
12.60622989
12.29922204
12.00750487
11.73211085
11.47363849
11.23271732
11.00944735
10.80369313
10.61475978
10.44165876
10.28335084
10.13828352
10.0029256
9.884450462
23.0173832
22.90974174
22.96540577
22.77096056
22.5919659
22.37584262
22.12546129
21.84731546
21.54529326
21.22266303
20.88257271
20.52825702
20.16211618
19.78652884
19.40359719
19.01486312
18.62200659
18.22596779
17.8279967
17.42866013
17.02878656
16.62878618
16.22912497
15.83020106
15.4322163
15.03573333
14.64089245
14.24817056
13.85811583
13.47121103
13.08826173
12.71006948
12.33756081
11.97197608
11.61447726
11.26636811
10.92919276
10.60440565
10.29351191
9.99815306
9.719789322
9.459822046
9.219574295
8.99983665
8.801101544
8.62324965
8.465727249
8.326544954
8.201327289
8.099501923
20.93093698
20.83550913
20.8898787
20.71736298
20.56043857
20.37010312
20.14906298
19.90302963
19.63505606
19.34778866
19.0440818
18.72645144
18.39688418
18.05764148
17.71008944
17.35589854
16.99606968
16.63179151
16.26365073
15.89254733
15.5187615
15.14288897
14.76511974
14.38572854
14.00507017
13.6232389
13.24056882
12.85741279
12.47408664
12.09112895
11.7092325
11.32907842
10.95158632
10.5779203
10.20929054
9.847073581
9.492839144
9.148372424
8.815507457
8.496234088
8.192713046
7.907286199
7.642203706
7.399666597
7.181602634
6.989324082
6.823459686
6.682234284
6.560708232
6.470099616
19.1059126
19.02130571
19.07445673
18.92126564
18.7839284
18.61655111
18.4217151
18.20441394
17.96683851
17.71132818
17.44042193
17.15585874
16.85961782
16.55327324
16.238188
15.91559552
15.58643136
15.25152893
14.91154019
14.56690339
14.21818278
13.86548844
13.50913943
13.14931239
12.78607932
12.41964449
12.05019242
11.67786412
11.3029434
10.92589176
10.54717516
10.16738964
9.787329192
9.407967576
9.030495157
8.6562158
8.28667769
7.923649913
7.569146115
7.225452173
6.895140079
6.581063894
6.286267529
6.01390904
5.767195043
5.549451075
5.363769897
5.210148456
5.084234475
4.998632419
17.50818701
17.43305383
17.4846534
17.34838565
17.22819835
17.08095111
16.90926255
16.71711087
16.5063958
16.27921771
16.03736748
15.78244514
15.51616768
15.23958746
14.9541282
14.66047301
14.35968349
14.05220412
13.73865938
13.41942763
13.0947235
12.76489184
12.4299678
12.09002949
11.74520209
11.39554426
11.0410761
10.68189934
10.31818657
9.950237213
9.578340741
9.202949566
8.824674213
8.444269411
8.062678117
7.681050492
7.300753705
6.923434399
6.551032453
6.185809895
5.830389056
5.487760147
5.16131719
4.854989367
4.573386284
4.321869793
4.10576134
3.927458977
3.785629104
3.696124266
16.107155
16.04009934
16.0893566
15.96790534
15.86277157
15.73327557
15.58188725
15.41202246
15.22532942
15.02354029
14.80795801
14.58014922
14.34119887
14.09226066
13.83416039
13.56776116
13.29353987
13.01221488
12.72398924
12.42920019
12.12811858
11.82078138
11.50728019
11.18771488
10.86207094
10.53032738
10.19249724
9.84862856
9.498809412
9.143164781
8.781909923
8.415344017
8.043860607
7.668011681
7.288457805
6.90606383
6.52191705
6.13736983
5.754164533
5.374377396
5.000572633
4.635904868
4.284160587
3.949621345
3.636852675
3.350378469
3.094416251
2.872867564
2.694426882
2.590548502
14.87270201
14.8123478
14.86012519
14.75321624
14.6633586
14.5516762
14.42063961
14.27324012
14.11086328
13.93459574
13.7456534
13.54517438
13.33395658
13.11293732
12.88268223
12.64380742
12.3967691
12.14185729
11.87945966
11.60968743
11.33265374
11.04845064
10.75719922
10.45883639
10.15336253
9.840772164
9.521074381
9.194287832
8.860452729
8.519654452
8.172011388
7.817690287
7.456926315
7.090070954
6.717502985
6.339713761
5.957439211
5.57155171
5.183251041
4.794109911
4.406246903
4.022289372
3.645417201
3.279137024
2.927299143
2.594980876
2.289414377
2.01876265
1.795828816
1.661597668
13.79584811
13.73728251
13.78596186
13.69240521
13.61666335
13.520968
13.40802138
13.28032755
13.13866058
12.9837482
12.81664465
12.63789227
12.44833885
12.24839439
12.03881079
11.81984687
11.59196335
11.3555484
11.11079865
10.85796058
10.59728616
10.32893165
10.05301848
9.769683862
9.479050437
9.181249456
8.876396522
8.564615684
8.246056712
7.920864024
7.589274891
7.251392242
6.907415458
6.557626007
6.202189665
5.841446573
5.475642068
5.105197437
4.730686709
4.352894904
3.972983212
3.592662165
3.214367733
2.841642676
2.479665952
2.135753088
1.817222314
1.524418059
1.251549917
1.011201054
12.86903047
12.81279685
12.86075801
12.77315367
12.70352659
12.61529164
12.51143203
12.3944268
12.26482515
12.12357311
11.97152258
11.80932434
11.63768319
11.45711044
11.26804629
11.0710005
10.86619908
10.65392783
10.43449997
10.2080244
9.974648916
9.734495296
9.487662406
9.234221044
8.974244405
8.707782798
8.434859135
8.155500484
7.869706012
7.577558239
7.278938843
6.973826144
6.662162882
6.343824297
6.018677131
5.686568998
5.347261678
5.000580791
4.646367276
4.284586282
3.915448149
3.539568068
3.158209086
2.773590372
2.389000375
2.008635636
1.636705444
1.27214934
0.9023236437
0.5326673931
12.06053641
12.01297835
12.0626769
11.98532344
11.92649025
11.85143342
11.76264595
11.6620122
11.54990263
11.42708327
11.29396027
11.1511689
10.99902773
10.83811155
10.66861737
10.49094152
10.305418
10.11222783
9.9116152
9.70380981
9.489039369
9.267462728
9.039241238
8.804536912
8.563518367
8.316340852
8.063131079
7.803975722
7.538964249
7.268217344
6.991719488
6.709495732
6.421485568
6.127688924
5.827927302
5.522042077
5.209868717
4.891176045
4.565706337
4.233214666
3.893522442
3.546482838
3.192179709
2.830896249
2.463202999
2.0896863
1.708259901
1.3090397
0.8923848584
0.5261387504
11.33586147
11.29529433
11.34488007
11.27707255
11.22756206
11.16405346
11.088701
11.00298781
10.90727571
10.80204864
10.68759242
10.56438604
10.4326246
10.29262837
10.14466211
9.988876585
9.825504243
9.65476958
9.476775444
9.291688863
9.099660042
8.90083543
8.695338946
8.483301981
8.264815101
8.039951752
7.808799521
7.571367472
7.32757779
7.077376682
6.820562072
6.556914963
6.286063962
6.007561484
5.720850001
5.425247041
5.119964681
4.804136849
4.47686738
4.137349604
3.785153565
3.420370318
3.044135102
2.658996445
2.269246823
1.880639022
1.499190463
1.132272987
0.797987832
0.5306984869
10.67717403
10.64096842
10.68985749
10.62953616
10.58711636
10.53249845
10.46733121
10.39301842
10.30988743
10.21811013
10.11803935
10.00984449
9.893816654
9.770015243
9.638701456
9.499993351
9.353982667
9.20080428
9.040594625
8.873496999
8.699591584
8.518978024
8.331761145
8.138070721
7.93792348
7.731353126
7.518327567
7.298863612
7.072737548
6.839786681
6.599652931
6.352020566
6.096314964
5.831890094
5.5580115
5.273820314
4.978310672
4.670427105
4.349105246
4.013395108
3.662671867
3.297053669
2.917960424
2.528842574
2.135948103
1.748657795
1.379547467
1.044420135
0.7603180981
0.5401305565
10.08013843
10.0467226
10.09498274
10.04109902
10.00483596
9.957909202
9.901584087
9.837214433
9.764965657
9.68487525
9.597281622
9.502159411
9.399731196
9.290045294
9.173157155
9.049208417
8.918257881
8.780352034
8.635580044
8.48402225
8.325761521
8.160864509
7.989404418
7.811408882
7.626909636
7.43591817
7.238291413
7.033920042
6.822566441
6.603916564
6.37752811
6.142929325
5.899437895
5.646266327
5.382541514
5.107225505
4.819181262
4.517212769
4.200063566
3.866719337
3.516639024
3.150401365
2.770509023
2.382543409
1.995931132
1.623698379
1.280890482
0.9816812133
0.7356862164
0.5454407294
9.537820861
9.506598823
9.55418719
9.505879124
9.474887926
9.434520246
9.385802504
9.330030268
9.267119117
9.197183752
9.120286828
9.036507964
8.945797697
8.848299614
8.743948884
8.632754446
8.514745801
8.389974045
8.258471986
8.120257671
7.975365768
7.823859117
7.665768753
7.501066746
7.329728415
7.151702965
6.966869745
6.774978941
6.575785215
6.368877008
6.153779465
5.92989631
5.696513763
5.452789188
5.197747219
4.930275425
4.649126478
4.35294769
4.040454692
3.710587348
3.363028475
2.99898013
2.622418598
2.241244657
1.867681015
1.516656437
1.202405481
0.9348670064
0.7177362229
0.5488614398
9.043960746
9.014586378
9.061383645
9.017869115
8.991180915
8.956279488
8.913957998
8.865337463
8.810238825
8.748802414
8.680877189
8.606582169
8.525778958
8.438427432
8.344570252
8.244103199
8.136999926
8.023254363
7.902862241
7.775830781
7.642162326
7.501872558
7.354941755
7.20139164
7.04113658
6.87404123
6.700017925
6.518744565
6.329956721
6.133217243
5.928008581
5.713687928
5.489508406
5.254594988
5.007884289
4.74818217
4.474135129
4.184317354
3.877369841
3.552265771
3.209081279
2.849903502
2.480355186
2.110581253
1.75454022
1.427055709
1.139799675
0.8986733711
0.7037058234
0.5507396339
8.59340456
8.565620251
8.611535524
8.572003958
8.548814472
8.518405589
8.481376306
8.438597305
8.389981288
8.33546554
8.274982062
8.208412851
8.135749837
8.056823655
7.971551094
7.879865355
7.781739898
7.677091035
7.565887171
7.448105697
7.32376578
7.192853777
7.055323963
6.911139787
6.760279792
6.602575447
6.437872682
6.265881508
6.086322385
5.898731672
5.70256191
5.497145389
5.281712945
5.055315645
4.816830058
4.564974581
4.298290171
4.015297463
3.714562254
3.395270842
3.057970883
2.705902053
2.346368506
1.991241606
1.65503189
1.35112785
1.088237678
0.8691617074
0.6918492781
0.551412756
8.181545113
8.155117328
8.199970729
8.163759682
8.143360203
8.116605546
8.083788532
8.045700822
8.002300926
7.953330825
7.898819779
7.838516574
7.772323528
7.700165789
7.621855419
7.537298234
7.446417628
7.349149423
7.245451416
7.135289085
7.018654159
6.895518918
6.765917673
6.629761217
6.486980093
6.337481308
6.181046433
6.017414349
5.846281756
5.667168059
5.479499713
5.282598553
5.075639138
4.857598761
4.627297526
4.383352335
4.124249206
3.848415211
3.554473603
3.241888863
2.911862313
2.568852265
2.221683978
1.88323918
1.567573201
1.286042322
1.044688448
0.8441568963
0.6813150447
0.5511526831
7.804101233
7.778820405
7.822482301
7.789006393
7.770761317
7.746868354
7.717301968
7.682906903
7.643512115
7.598916733
7.548977809
7.493567482
7.432470992
7.365544751
7.292679308
7.213746445
7.128636344
7.03728584
6.939648388
6.835719452
6.725502282
6.608957121
6.48607377
6.356875449
6.221226009
6.079055869
5.930126589
5.774208661
5.610948536
5.439853138
5.260327095
5.071663413
4.872967433
4.663163301
4.440994821
4.204995888
3.953600618
3.685197155
3.398544533
3.09346972
2.771954078
2.439630173
2.106506245
1.785757885
1.490340989
1.229473679
1.007038334
0.8222991285
0.671618287
0.5501366774
7.457239952
7.432922643
7.475276107
7.444013015
7.427398533
7.405574682
7.378421296
7.346785113
7.310344606
7.269007566
7.222499058
7.170701749
7.11344246
7.050520317
6.981802003
6.907179907
6.826567423
6.739910415
6.647172665
6.548353492
6.44344722
6.332510745
6.215507662
6.092417018
5.963194431
5.827697549
5.685716946
5.537035122
5.381231073
5.217801017
5.046134741
4.865469283
4.674845126
4.473138318
4.259010569
4.03094912
3.787339965
3.526601616
3.247674076
2.950834318
2.638891011
2.318520058
2.000494726
1.697694431
1.4216525
1.179602432
0.9738254792
0.8027055052
0.6624568059
0.5484867235
7.137500122
7.11398075
7.154920788
7.125429818
7.109886503
7.089482933
7.064041518
7.034276306
6.99992426
6.96080632
6.916733219
6.867487065
6.81291918
6.752890663
6.687237444
6.615862322
6.538701323
6.455717233
6.366904539
6.272326916
6.171959824
6.065836426
5.954018079
5.836440661
5.713080552
5.583767064
5.448330171
5.306481236
5.157791989
5.00173298
4.837662771
4.664757142
4.482011467
4.28824258
4.082049311
3.861878229
3.626095114
3.373212633
3.102405015
2.814444308
2.512953398
2.205448469
1.903032939
1.617908094
1.36005904
1.135064266
0.944006191
0.784784485
0.6536352483
0.5462856806
6.841740577
6.818874044
6.858325486
6.830179613
6.815217125
6.795673078
6.77129836
6.742655022
6.709609452
6.671859564
6.629309456
6.581739483
6.528974223
6.470883158
6.407368063
6.338355846
6.263810786
6.183722192
6.09811843
6.007035778
5.910551057
5.808710945
5.701516818
5.588999099
5.471052466
5.34754378
5.218292452
5.082947562
4.941068359
4.792108104
4.635375063
4.46998931
4.294911265
4.108895792
3.910507899
3.698160232
3.470237964
3.225379439
2.963038057
2.68451102
2.394155564
2.100092692
1.813375144
1.545302997
1.30437542
1.094797034
0.9168330219
0.7681168537
0.6450178579
0.543589257
3.54001477
3.319968248
3.083277443
2.829709303
2.561074505
2.282326929
2.001979876
1.730756033
1.478908377
1.253613125
1.057998583
0.8917492914
0.7523981915
0.6365051
0.5404338756
)
;

boundaryField
{
    front_top
    {
        type            wedge;
    }
    front_middle
    {
        type            wedge;
    }
    front_bottom
    {
        type            wedge;
    }
    back_top
    {
        type            wedge;
    }
    back_middle
    {
        type            wedge;
    }
    back_bottom
    {
        type            wedge;
    }
    axis_top
    {
        type            symmetryPlane;
    }
    axis_middle
    {
        type            symmetryPlane;
    }
    axis_bottom
    {
        type            symmetryPlane;
    }
    wall_top
    {
        type            calculated;
        value           nonuniform List<scalar> 10(13.83695202 11.75865308 9.833986868 8.060991405 6.441007747 4.976367637 3.678056115 2.574540728 1.640784521 0.9618987496);
    }
    wall_middle
    {
        type            calculated;
        value           nonuniform List<scalar> 
14
(
0.4237660826
0.4132185268
0.4434809844
0.4636877362
0.4764182279
0.4856501544
0.4921057428
0.4965622504
0.4995322308
0.5013395253
0.5022041188
0.5022753992
0.5016561693
0.5004170543
)
;
    }
    wall_bottom
    {
        type            calculated;
        value           nonuniform 0();
    }
    inlet
    {
        type            calculated;
        value           nonuniform 0();
    }
    outlet
    {
        type            calculated;
        value           nonuniform 0();
    }
    procBoundary5to4
    {
        type            processor;
        value           nonuniform List<scalar> 
51
(
6.567125878
6.544798194
6.582666921
6.555459263
6.540680753
6.521551139
6.497626145
6.469510534
6.437051698
6.400008589
6.35819997
6.311525422
6.259809854
6.202940102
6.140849631
6.073502595
6.00089658
5.923059196
5.840074237
5.752006689
5.658915509
5.560886492
5.457947203
5.350085311
5.2372061
5.119200059
4.99580599
4.86666932
4.731321554
4.589189089
4.439528906
4.281423125
4.113791135
3.93534048
3.744615943
3.744615943
3.387528535
3.17537727
2.946966242
2.702423307
2.444024128
2.177201492
1.910583796
1.654408413
1.417873402
1.20698731
1.024035387
0.868329707
0.7374009216
0.6280203933
0.5368422577
)
;
    }
    procBoundary5to6
    {
        type            processor;
        value           nonuniform List<scalar> 
51
(
38.98408574
38.78605455
34.75495896
34.75495896
34.44150156
34.14168022
33.78508618
33.37580575
32.92565071
32.44182474
31.9307882
31.39893542
30.85213133
30.29492834
29.73194032
29.16681049
28.60250508
28.04208833
27.48723418
26.94020869
26.40199062
25.87409633
25.35708288
24.85193208
24.35891985
23.87874207
23.41144418
22.95760262
22.51715654
22.09072731
21.67820835
21.28028785
20.89688041
20.52861451
20.17547963
19.83787102
19.51565594
19.20887223
18.91706705
18.63972865
18.37587256
18.12442111
17.88393284
17.65292992
17.42968237
17.21262562
16.99994361
16.79064105
16.58464392
16.38101304
16.17554117
)
;
    }
}


// ************************************************************************* //
