/*--------------------------------*- C++ -*----------------------------------*\
  =========                 |
  \\      /  F ield         | OpenFOAM: The Open Source CFD Toolbox
   \\    /   O peration     | Website:  https://openfoam.org
    \\  /    A nd           | Version:  7
     \\/     M anipulation  |
\*---------------------------------------------------------------------------*/
FoamFile
{
    version     2.0;
    format      ascii;
    class       volVectorField;
    location    "0.0018";
    object      grad(generalizedNewtonian:nu);
}
// * * * * * * * * * * * * * * * * * * * * * * * * * * * * * * * * * * * * * //

dimensions      [0 1 -1 0 0 0 0];

internalField   nonuniform List<vector> 
1167
(
(-5291.197228 0 180379.4402)
(-1394.012549 0 179374.5831)
(-4683.128399 0 159841.8011)
(-1108.652006 0 158940.0174)
(-5453.198563 0 159038.1521)
(-11398.2311 -1.102453413e-09 157456.4135)
(-12514.05801 -8.816222349e-10 155851.4213)
(-14871.75283 0 153986.1713)
(-17001.8548 0 151872.8606)
(-18853.59186 2.874957119e-10 149591.6164)
(-20503.60974 0 147189.6297)
(-21941.64363 2.399325709e-10 144700.5336)
(-23183.17485 -2.23186911e-10 142167.2811)
(-24251.93843 0 139636.678)
(-25144.92029 1.981551745e-10 137122.9942)
(-25889.47098 0 134663.1762)
(-26502.27872 0 132278.8042)
(-26992.35385 0 129977.9552)
(-27381.10985 0 127794.2433)
(-27677.14443 0 125717.2285)
(-27896.98938 0 123778.7264)
(-28048.19194 0 121965.319)
(-28142.21144 -1.506319458e-10 120300.6782)
(-28185.54573 0 118771.1439)
(-28182.6962 0 117394.0791)
(-28139.27845 1.426623771e-10 116154.8198)
(-28056.15471 0 115066.7406)
(-27936.21529 0 114115.0781)
(-27774.39461 0 113307.2164)
(-27570.95313 0 112628.483)
(-27317.63245 0 112081.6582)
(-27013.79786 0 111652.1506)
(-26648.47583 0 111336.5993)
(-26218.9983 -6.617729015e-11 111120.3531)
(-25721.62984 0 110993.4301)
(-25152.7188 -6.569297865e-11 110939.771)
(-24516.65277 0 110945.0883)
(-23814.34071 0 110986.3479)
(-23060.3416 0 111047.1017)
(-22267.8109 -1.307683821e-10 111098.9342)
(-21459.06159 0 111122.2796)
(-20654.3676 -6.550932737e-11 111082.6769)
(-19881.33173 0 110960.4185)
(-19164.82442 0 110724.7943)
(-18529.81909 0 110359.7512)
(-17997.76407 0 109844.1893)
(-17581.16559 0 109173.0525)
(-17271.09146 0 108334.3871)
(-17017.10044 0 107335.5738)
(-16868.01107 0 106195.6718)
(-16779.59691 0 104960.7711)
(-16630.38966 0 103429.218)
(-4145.248273 0 141640.6195)
(-856.4990471 2.472492347e-09 140830.7672)
(-4751.43212 0 140918.7168)
(-10068.05768 0 139492.1481)
(-11030.497 0 138045.5128)
(-13141.49542 0 136358.2808)
(-15060.7111 0 134453.8064)
(-16746.94444 0 132394.9345)
(-18257.33934 0 130218.7373)
(-19594.28707 0 127956.2358)
(-20773.74864 0 125662.0127)
(-21800.0146 0 123357.7972)
(-22684.417 0 121065.3846)
(-23448.26865 0 118826.6089)
(-24094.83223 0 116642.9227)
(-24645.85805 0 114545.4516)
(-25108.06813 0 112540.9247)
(-25496.82265 0 110644.9143)
(-25822.21759 0 108866.135)
(-26093.02957 0 107211.4114)
(-26316.77854 0 105688.8986)
(-26499.5755 0 104301.2679)
(-26645.16637 0 103052.4984)
(-26755.98275 0 101946.8719)
(-26836.21028 0 100981.7895)
(-26880.65353 0 100162.2898)
(-26890.38562 6.97280767e-11 99482.91828)
(-26856.04558 0 98946.59018)
(-26776.79236 0 98547.98244)
(-26639.12193 0 98284.92819)
(-26439.42334 0 98150.52905)
(-26166.29317 0 98141.3712)
(-25811.71478 -6.693075137e-11 98244.94828)
(-25372.93824 0 98456.11355)
(-24839.75757 0 98753.47276)
(-24217.50917 0 99128.24409)
(-23505.609 0 99554.92641)
(-22716.6433 0 100012.3519)
(-21858.13178 0 100472.2435)
(-20950.71979 0 100900.1074)
(-20018.07258 0 101266.2119)
(-19084.08352 0 101530.6603)
(-18179.61695 0 101663.1888)
(-17332.21091 0 101630.9005)
(-16567.03995 0 101413.9572)
(-15887.65706 0 100996.9714)
(-15278.92695 0 100376.7041)
(-14822.68996 0 99580.63487)
(-14270.58525 0 98643.76119)
(-13435.06451 0 97406.58501)
(-3669.780671 0 125551.7846)
(-633.1558545 0 124825.5471)
(-4128.225183 7.742005906e-10 124903.8527)
(-8887.347988 0 123618.3378)
(-9710.493071 0 122312.3273)
(-11605.81821 0 120793.3145)
(-13337.26338 0 119078.4357)
(-14867.79672 0 117215.4446)
(-16249.99805 0 115236.8363)
(-17495.51855 0 113186.2453)
(-18612.94253 -2.301927954e-10 111098.9522)
(-19598.34787 0 108991.0338)
(-20472.61863 -2.043753073e-10 106900.6008)
(-21243.44463 0 104844.3545)
(-21920.8857 0 102837.7717)
(-22520.18763 0 100907.4459)
(-23048.889 0 99052.64707)
(-23519.02494 0 97302.09843)
(-23938.92455 -8.14753653e-11 95647.96511)
(-24316.84418 0 94114.10824)
(-24660.32057 -7.76801572e-11 92693.09953)
(-24971.99975 0 91402.48648)
(-25259.10102 0 90237.20316)
(-25519.64673 0 89209.18095)
(-25756.36741 7.252398074e-11 88316.97612)
(-25968.37601 0 87562.95492)
(-26148.70566 0 86950.34284)
(-26297.41676 0 86481.09325)
(-26399.84641 6.953260786e-11 86154.05486)
(-26452.55999 0 85970.07002)
(-26442.78986 0 85929.46038)
(-26358.79028 0 86025.95093)
(-26193.66409 0 86262.26518)
(-25928.6029 0 86624.5357)
(-25560.95515 0 87108.61468)
(-25082.18426 0 87703.11645)
(-24484.5199 0 88388.076)
(-23772.27913 0 89146.03395)
(-22940.98196 0 89947.74749)
(-22002.87546 0 90764.3091)
(-20969.58668 0 91553.82441)
(-19858.57258 0 92278.17646)
(-18699.8477 -3.403349406e-11 92885.17903)
(-17527.55998 0 93334.66823)
(-16380.75339 0 93581.2995)
(-15277.97172 -3.444896191e-11 93595.67131)
(-14249.85631 0 93359.29431)
(-13422.20681 0 92899.45388)
(-12373.40224 0 92252.84455)
(-10857.98015 0 91293.43377)
(-3250.452914 0 111363.0175)
(-436.0597745 0 110713.3867)
(-3575.08044 7.862571868e-10 110782.8038)
(-7837.867986 0 109623.2055)
(-8542.200294 9.234569837e-10 108449.2498)
(-10245.9736 0 107084.6683)
(-11802.84989 0 105534.8121)
(-13186.51402 -3.011379619e-10 103843.6657)
(-14455.63926 0 102045.8113)
(-15618.44173 0 100184.3728)
(-16667.83995 2.33777579e-10 98275.98952)
(-17615.10274 0 96347.25914)
(-18473.75584 -2.075580361e-10 94431.70379)
(-19245.53125 0 92533.08554)
(-19946.43477 0 90684.66268)
(-20582.23642 0 88889.54065)
(-21165.3748 0 87169.23951)
(-21703.24457 0 85527.5193)
(-22203.87924 -8.274417805e-11 83980.85374)
(-22675.99525 0 82529.51145)
(-23122.57126 0 81187.346)
(-23552.13816 0 79953.56473)
(-23963.8462 7.592926182e-11 78839.86805)
(-24364.52704 0 77846.17095)
(-24747.78696 -7.365339392e-11 76979.85559)
(-25114.82666 0 76242.41722)
(-25466.76215 0 75640.79297)
(-25789.24979 0 75174.51903)
(-26080.30145 0 74849.47345)
(-26328.91756 0 74670.0237)
(-26521.65803 0 74633.42412)
(-26650.89318 -6.931753571e-11 74747.4493)
(-26697.01022 0 75009.7596)
(-26646.91232 0 75417.97171)
(-26492.76121 -3.432435457e-11 75972.2931)
(-26214.21778 0 76663.43844)
(-25798.91502 0 77484.59121)
(-25241.0435 -3.424340122e-11 78417.77269)
(-24525.5261 0 79442.98907)
(-23646.25577 0 80536.45017)
(-22604.90237 0 81659.28372)
(-21399.27298 0 82768.81593)
(-20048.25845 0 83811.55976)
(-18581.81397 0 84729.2382)
(-17036.37999 0 85456.49346)
(-15457.31526 0 85935.92193)
(-13933.02581 0 86125.85238)
(-12652.01996 0 86031.70496)
(-11062.00018 0 85688.49891)
(-8845.82275 0 84995.60103)
(-2881.638072 0 98870.86128)
(-262.2075544 0 98288.58423)
(-3082.50492 0 98352.12381)
(-6910.259582 0 97309.30721)
(-7508.870347 0 96256.26724)
(-9035.878516 0 95024.02318)
(-10431.07537 0 93619.88302)
(-11683.65511 0 92081.76876)
(-12850.35055 0 90452.60917)
(-13928.43121 0 88755.8368)
(-14915.05821 0 87006.85651)
(-15825.06126 0 85243.50782)
(-16658.57791 0 83476.35802)
(-17427.01274 0 81725.86682)
(-18140.06563 0 80010.58566)
(-18804.21408 0 78338.42593)
(-19428.25072 0 76728.09364)
(-20021.18116 0 75182.40746)
(-20588.04789 8.403281239e-11 73716.34922)
(-21136.20275 8.19455019e-11 72333.3251)
(-21672.24054 0 71039.85567)
(-22198.16497 0 69843.66094)
(-22722.25958 0 68748.3783)
(-23238.96903 0 67759.60356)
(-23753.29928 -7.480045097e-11 66880.70659)
(-24265.04573 0 66120.63692)
(-24765.45156 -7.303685117e-11 65478.34368)
(-25254.12169 0 64962.33878)
(-25723.62192 0 64579.26878)
(-26159.66737 -3.559749091e-11 64329.69724)
(-26555.1683 0 64222.23591)
(-26899.32705 -7.039706734e-11 64262.0747)
(-27171.5214 0 64452.58882)
(-27356.90269 0 64800.54311)
(-27442.39378 0 65305.23255)
(-27408.55274 0 65966.68317)
(-27232.77301 0 66784.80131)
(-26896.84651 0 67751.69773)
(-26383.728 0 68854.54059)
(-25670.44813 -3.484325604e-11 70077.0445)
(-24731.60875 0 71391.14901)
(-23551.72333 0 72760.19845)
(-22124.43013 0 74140.69824)
(-20451.61241 0 75472.86304)
(-18561.50101 0 76688.08115)
(-16503.6797 0 77699.11748)
(-14417.02089 -1.785391522e-11 78413.50137)
(-12569.31529 0 78780.69363)
(-10329.63542 0 78799.88241)
(-7353.622209 0 78390.80491)
(-2554.877356 0 87865.08407)
(-109.9540851 0 87344.10141)
(-2649.835412 0 87415.31251)
(-6089.625628 0 86484.79318)
(-6590.137999 0 85541.71784)
(-7956.642406 0 84435.59784)
(-9204.716974 0 83168.65462)
(-10340.57506 0 81785.46413)
(-11412.68719 0 80315.53442)
(-12407.62947 1.296033681e-10 78772.87523)
(-13335.01983 0 77184.88772)
(-14202.46161 0 75574.96951)
(-15010.21123 0 73950.09666)
(-15769.37805 0 72341.2902)
(-16485.09659 0 70747.05796)
(-17165.51666 0 69192.78185)
(-17818.50944 0 67676.86488)
(-18449.68081 0 66218.42733)
(-19068.20618 0 64816.5172)
(-19675.04769 0 63484.45203)
(-20278.87375 0 62224.04173)
(-20885.7479 0 61041.58709)
(-21493.56508 0 59941.14668)
(-22109.38262 0 58927.77106)
(-22732.12667 0 58007.29087)
(-23358.20226 0 57180.6715)
(-23989.338 0 56455.98062)
(-24621.91413 0 55839.63384)
(-25244.71821 -3.641602959e-11 55335.32597)
(-25850.56314 0 54949.21655)
(-26433.2218 0 54691.6537)
(-26979.2177 0 54568.52405)
(-27472.37777 0 54587.77729)
(-27894.67645 0 54759.93328)
(-28229.42653 0 55091.90111)
(-28457.63437 0 55589.5106)
(-28554.97986 0 56257.99619)
(-28495.5003 0 57100.93741)
(-28249.47584 0 58115.66609)
(-27783.57261 0 59295.25492)
(-27061.9317 1.77264581e-11 60627.91971)
(-26050.62229 0 62097.08305)
(-24720.99216 0 63673.45382)
(-23049.09146 0 65312.68294)
(-21009.50651 -1.796028096e-11 66945.86512)
(-18588.85006 0 68468.98577)
(-15926.17708 1.813196853e-11 69761.56398)
(-13367.7851 -1.823049307e-11 70716.2897)
(-10293.23257 0 71240.06248)
(-6425.208251 0 71213.48103)
(-2268.799182 0 78180.18039)
(11.33968241 0 77722.65405)
(-2279.616375 0 77824.37886)
(-5371.040408 0 76996.89922)
(-5785.06153 0 76157.32388)
(-7006.360031 4.068632606e-10 75169.70484)
(-8126.852728 0 74036.98587)
(-9158.947507 0 72800.22887)
(-10135.79231 0 71473.58069)
(-11055.91801 1.3162178e-10 70072.90618)
(-11926.68094 0 68630.39344)
(-12745.70622 0 67150.51662)
(-13523.39624 1.087036107e-10 65656.6763)
(-14263.05736 0 64159.71198)
(-14972.17722 0 62673.76832)
(-15656.91119 0 61208.35834)
(-16322.34456 0 59775.58836)
(-16978.06549 0 58378.32605)
(-17625.05115 0 57028.36006)
(-18273.75821 0 55728.32153)
(-18924.46315 0 54485.78139)
(-19582.277 0 53302.7567)
(-20254.78415 7.953230885e-11 52185.1114)
(-20939.48465 0 51134.8238)
(-21637.15787 0 50154.1893)
(-22351.25445 0 49249.07017)
(-23080.62817 3.766474277e-11 48423.90825)
(-23820.51078 0 47681.13064)
(-24564.19825 0 47025.838)
(-25307.35922 0 46466.81056)
(-26043.89082 -7.297894338e-11 46010.56697)
(-26761.39641 0 45664.85249)
(-27447.25734 0 45440.11929)
(-28086.81356 0 45347.36557)
(-28662.03261 0 45400.41772)
(-29152.53952 0 45610.7535)
(-29533.72265 0 45990.41481)
(-29776.30938 0 46550.306)
(-29847.32397 0 47297.5282)
(-29708.83315 -1.796849474e-11 48237.58231)
(-29318.50791 3.600505145e-11 49370.69311)
(-28629.38918 0 50689.01491)
(-27584.14818 -1.810181346e-11 52173.16988)
(-26109.45528 0 53793.93695)
(-24117.40572 0 55516.16162)
(-21548.155 0 57309.16526)
(-18512.49311 0 59144.2811)
(-15306.07161 -9.257205206e-12 60919.84222)
(-11252.23748 9.311373155e-12 62294.12358)
(-6196.845483 0 62772.95489)
(-2024.882133 0 69780.6849)
(89.50653721 0 69389.46718)
(-1973.135891 0 69490.54133)
(-4741.019136 3.071001278e-10 68712.87405)
(-5076.500587 -4.91170507e-10 67909.38702)
(-6170.9809 -2.065996939e-10 66967.25094)
(-7176.134431 0 65890.35763)
(-8106.597667 0 64704.82234)
(-8992.604691 1.453075515e-10 63424.26785)
(-9838.980285 0 62075.60535)
(-10645.58981 0 60673.98341)
(-11415.22283 0 59231.71955)
(-12154.63125 1.103964642e-10 57773.08978)
(-12868.1855 0 56301.20686)
(-13560.84976 0 54838.73219)
(-14240.22995 0 53387.52884)
(-14908.28955 0 51963.5179)
(-15571.77132 0 50570.93461)
(-16239.90977 8.802034227e-11 49215.92832)
(-16910.57176 0 47905.61341)
(-17592.06857 0 46642.72228)
(-18289.47702 0 45433.87721)
(-19001.22454 0 44276.80712)
(-19730.81438 0 43175.2906)
(-20482.30751 -3.917494315e-11 42132.60175)
(-21255.39032 0 41150.41997)
(-22048.38083 0 40229.03653)
(-22859.24201 0 39370.64719)
(-23685.70064 0 38578.75093)
(-24523.53861 0 37858.99055)
(-25366.60615 0 37215.90265)
(-26208.12815 0 36657.05021)
(-27038.09837 0 36192.36467)
(-27845.32608 0 35832.52765)
(-28616.00708 0 35592.48423)
(-29331.05703 0 35489.70449)
(-29967.66256 -3.642875554e-11 35540.92477)
(-30494.7195 0 35766.69372)
(-30876.2901 0 36186.68731)
(-31069.79761 0 36819.23088)
(-31019.03145 -1.828288108e-11 37677.74818)
(-30657.82794 0 38771.99297)
(-29919.82251 0 40107.84231)
(-28749.7987 9.224564282e-12 41696.72041)
(-27113.52907 0 43558.87877)
(-25002.28493 0 45701.57006)
(-22420.36025 0 48073.336)
(-19125.79431 0 50520.89682)
(-13725.05474 -9.456380213e-12 52670.97822)
(-6695.678062 0 53859.06208)
(-1822.518038 0 62147.978)
(165.8348657 0 61920.5924)
(-1657.635854 0 61935.64458)
(-4111.038911 0 61185.44737)
(-4362.098524 -2.494100133e-10 60394.96269)
(-5333.129293 0 59486.00867)
(-6220.13528 0 58452.28744)
(-7043.396354 0 57318.34228)
(-7839.724443 0 56107.76232)
(-8609.930149 0 54847.51039)
(-9350.533094 1.2627869e-10 53544.29234)
(-10069.38553 0 52225.70005)
(-10768.98347 0 50898.04346)
(-11453.79235 0 49581.39474)
(-12130.18487 0 48277.6493)
(-12800.03962 0 47003.08686)
(-13471.05449 0 45758.13765)
(-14144.32049 -9.193417289e-11 44551.57542)
(-14824.5648 -8.939117646e-11 43383.65045)
(-15519.12573 0 42256.72982)
(-16228.74568 0 41171.25965)
(-16953.36119 0 40124.02859)
(-17697.95687 0 39114.24062)
(-18466.51884 0 38140.81509)
(-19257.97115 0 37200.04047)
(-20072.61656 0 36287.79566)
(-20910.26806 0 35401.29813)
(-21770.45275 0 34538.47544)
(-22651.43134 0 33697.63483)
(-23550.93647 0 32878.23301)
(-24466.37689 -3.763486562e-11 32079.63287)
(-25393.68794 0 31307.09984)
(-26326.01098 0 30565.83196)
(-27257.5667 0 29863.07983)
(-28182.18106 0 29212.1405)
(-29084.89857 0 28627.08389)
(-29948.89267 0 28130.58998)
(-30752.65615 0 27747.70147)
(-31463.68767 0 27509.8671)
(-32038.09401 0 27451.88338)
(-32423.31328 0 27611.60202)
(-32562.78497 0 28027.9542)
(-32404.20354 0 28737.3012)
(-31900.96465 0 29759.35005)
(-30962.26822 0 31077.17308)
(-29407.63686 0 32615.31712)
(-27059.22488 0 34290.97309)
(-23604.76154 -4.773893096e-12 36202.34861)
(-17367.44453 0 38743.84727)
(-8664.924275 0 42431.04121)
(-1768.507463 0 55658.28029)
(218.3300366 6.99465676e-10 55543.20354)
(-1327.405816 0 55539.25737)
(-3530.531196 0 55007.30726)
(-3712.929951 0 54450.0191)
(-4585.266447 0 53803.5773)
(-5376.570932 0 53053.67807)
(-6125.556611 0 52214.2453)
(-6867.039142 0 51308.27732)
(-7592.607865 0 50339.27157)
(-8305.747131 0 49317.38797)
(-9009.146512 1.203835664e-10 48255.68239)
(-9705.436686 0 47156.8855)
(-10395.2196 0 46032.39992)
(-11081.9974 -1.037364317e-10 44886.07682)
(-11771.9981 0 43720.43627)
(-12461.47067 0 42542.05834)
(-13157.00152 0 41351.20532)
(-13862.02974 0 40149.72673)
(-14574.88931 0 38937.88474)
(-15298.02644 0 37714.88989)
(-16035.14816 0 36479.9857)
(-16786.9038 0 35233.80767)
(-17553.4167 0 33972.82129)
(-18334.99483 0 32695.12419)
(-19132.02063 0 31399.3209)
(-19944.86666 0 30085.17013)
(-20772.56227 0 28752.58378)
(-21614.54286 0 27402.89187)
(-22467.81241 0 26036.26121)
(-23333.83609 0 24659.62231)
(-24213.7682 -3.802608895e-11 23278.26343)
(-25101.1741 0 21900.48271)
(-25997.05417 0 20539.7776)
(-26898.71768 3.765918527e-11 19210.46127)
(-27802.82803 0 17930.69669)
(-28705.40191 0 16727.59143)
(-29592.5295 0 15630.38326)
(-30447.80558 -1.879707318e-11 14676.96915)
(-31244.36263 0 13912.11419)
(-31939.17835 0 13388.92424)
(-32471.18037 0 13163.53089)
(-32750.48344 0 13289.5934)
(-32640.22482 0 13803.92567)
(-31947.16962 0 14724.48776)
(-30541.39412 -4.798061638e-12 16079.65856)
(-28715.67508 0 17955.87598)
(-27074.97887 0 20605.22189)
(-25018.45841 0 24727.46585)
(-16718.87282 0 31296.58721)
(-1708.102527 0 50592.36401)
(241.2718209 0 50213.95231)
(-1207.36416 0 50285.4057)
(-3295.188698 -3.493716254e-10 49931.74652)
(-3439.487599 0 49508.09491)
(-4246.126311 0 49034.01266)
(-4963.329628 0 48472.05346)
(-5640.952961 -1.822169405e-10 47842.12323)
(-6307.896104 0 47157.20064)
(-6956.077089 1.52071065e-10 46414.1248)
(-7590.803 0 45631.4536)
(-8213.916848 0 44805.73616)
(-8827.772972 1.255922375e-10 43952.04098)
(-9437.811385 0 43065.86834)
(-10043.1079 5.721185244e-11 42162.54798)
(-10648.72066 1.100373382e-10 41238.87017)
(-11259.83396 1.062584655e-10 40299.25056)
(-11873.79826 0 39348.84992)
(-12495.30032 0 38387.4139)
(-13128.72054 4.882439961e-11 37416.4594)
(-13773.81454 -9.547165813e-11 36436.61842)
(-14432.09189 -4.678152232e-11 35448.30542)
(-15105.23487 0 34450.96299)
(-15794.23972 0 33444.2802)
(-16500.03771 -4.456726746e-11 32427.35487)
(-17224.54965 -8.80109905e-11 31400.29471)
(-17968.92033 0 30363.3574)
(-18734.41614 0 29318.32363)
(-19519.61016 0 28266.56723)
(-20329.13909 0 27210.88825)
(-21167.12932 0 26160.4906)
(-22032.36126 0 25117.54945)
(-22929.38698 2.088535455e-11 24091.92685)
(-23862.00305 0 23093.81401)
(-24832.46358 -2.076947998e-11 22134.77341)
(-25846.14866 0 21232.29059)
(-26905.39631 0 20399.93019)
(-28008.73885 -2.072049558e-11 19656.60192)
(-29151.96731 0 19024.95806)
(-30320.9477 0 18528.33846)
(-31488.53967 1.039973499e-11 18192.06691)
(-32608.14069 -1.042549292e-11 18045.74722)
(-33605.44203 -1.045709171e-11 18117.60318)
(-34381.95129 0 18447.49469)
(-34834.39362 0 19109.22927)
(-34901.68646 0 20258.46608)
(-34813.75771 0 22289.72519)
(-35377.82505 2.673860396e-12 25953.29148)
(-36292.16431 2.689506299e-12 30900.32383)
(-29193.01143 2.867115199e-13 30680.06889)
(-1461.856578 -2.311993518e-09 45709.445)
(436.8474987 0 45187.37823)
(-944.6550315 0 45232.22034)
(-2881.953549 0 44750.53885)
(-2952.840606 -2.86111708e-10 44209.64916)
(-3665.580421 0 43586.32981)
(-4308.368883 0 42864.61095)
(-4925.255223 0 42075.98829)
(-5537.321295 0 41226.97238)
(-6143.48968 0 40330.55009)
(-6745.227234 0 39403.05772)
(-7344.301347 0 38449.34)
(-7940.897743 0 37484.00895)
(-8537.931467 -6.121336414e-11 36512.86733)
(-9139.007081 -1.171768224e-10 35541.51651)
(-9740.298662 1.126849162e-10 34579.49595)
(-10347.15536 5.440756079e-11 33627.53041)
(-10961.63085 0 32687.80419)
(-11582.24435 5.127272543e-11 31766.06649)
(-12209.21498 0 30860.445)
(-12844.43681 4.888438769e-11 29971.26699)
(-13489.71784 0 29098.26238)
(-14144.9318 9.409967576e-11 28240.60337)
(-14809.80479 4.629803453e-11 27396.33738)
(-15484.499 0 26564.92841)
(-16170.31542 0 25746.07937)
(-16869.52342 4.456352567e-11 24938.67925)
(-17583.47134 0 24143.81262)
(-18311.17412 0 23363.42871)
(-19056.52 0 22603.20357)
(-19823.12506 0 21867.20719)
(-20613.22436 -2.147642919e-11 21162.49439)
(-21428.28793 0 20499.28891)
(-22273.59446 0 19889.80352)
(-23156.05564 0 19350.17005)
(-24076.48825 0 18897.09208)
(-25039.1655 2.122011256e-11 18549.44657)
(-26049.39215 0 18330.96733)
(-27109.53426 0 18265.47065)
(-28218.15187 -1.062982798e-11 18376.00574)
(-29372.86026 1.064996019e-11 18681.27484)
(-30563.70478 0 19192.68876)
(-31772.62231 1.070869688e-11 19905.61013)
(-32977.49448 -1.074680098e-11 20799.49235)
(-34163.21794 1.079043966e-11 21837.36052)
(-35454.15249 0 23042.23875)
(-37359.47412 0 24647.52868)
(-39781.40607 -2.738195415e-12 26363.53199)
(-38848.71465 0 25083.25464)
(-29781.07758 2.863020417e-13 17116.20625)
(-1262.059834 0 41240.0527)
(560.6839762 0 40847.36773)
(-726.8565774 0 40956.25959)
(-2507.62721 0 40544.90671)
(-2523.250746 -2.930795859e-10 40103.38775)
(-3144.557825 0 39592.13393)
(-3708.142537 2.145061919e-10 38998.76769)
(-4251.294446 0 38339.19266)
(-4793.883419 1.734089342e-10 37615.83833)
(-5337.357781 0 36846.20715)
(-5880.812117 7.419450689e-11 36031.31749)
(-6426.380252 -1.392924428e-10 35185.0646)
(-6977.260274 6.587315326e-11 34308.55927)
(-7531.525151 0 33416.59474)
(-8093.348221 0 32507.93865)
(-8663.30917 0 31590.94901)
(-9239.343815 5.573258614e-11 30672.26526)
(-9824.960982 5.401553202e-11 29754.03666)
(-10421.64552 0 28839.88318)
(-11028.13109 0 27932.07599)
(-11644.99863 0 27035.17335)
(-12273.06367 0 26151.19635)
(-12912.81595 0 25282.0177)
(-13565.40389 0 24429.04344)
(-14232.79275 4.675108092e-11 23597.55579)
(-14915.28446 4.616178187e-11 22791.42215)
(-15615.31489 4.564881211e-11 22016.40881)
(-16338.85816 4.520462598e-11 21277.10475)
(-17088.69687 0 20584.29597)
(-17870.13857 0 19949.05646)
(-18690.12345 0 19385.02819)
(-19556.39103 0 18906.46445)
(-20479.27179 2.190874511e-11 18534.12385)
(-21468.25764 4.367691776e-11 18292.73049)
(-22535.33048 0 18205.74515)
(-23693.05874 0 18301.60922)
(-24952.93335 0 18612.85915)
(-26324.04965 -2.173580804e-11 19170.71239)
(-27808.96601 -3.262434798e-11 20002.89628)
(-29392.84275 -1.088870357e-11 21125.43192)
(-31040.93494 0 22535.93476)
(-32686.02323 -1.093634624e-11 24192.82979)
(-34215.74011 0 25996.79858)
(-35477.28165 1.100852534e-11 27768.90893)
(-36304.81418 0 29243.83778)
(-36591.49293 0 30090.92065)
(-36226.92218 0 29799.52867)
(-34571.69593 2.80488059e-12 27228.8093)
(-30193.04896 0 21037.02427)
(-22492.93638 3.147527995e-13 12467.76307)
(-1140.171039 0 37435.44446)
(626.2433537 8.292852662e-10 37169.16986)
(-565.1653921 0 37286.29154)
(-2218.834875 3.755263987e-10 36958.58988)
(-2193.314766 -3.00305137e-10 36603.45929)
(-2746.314745 0 36195.84334)
(-3250.759836 0 35726.99075)
(-3734.711226 2.937871874e-10 35201.6794)
(-4224.377598 8.884206957e-11 34627.86835)
(-4718.425408 0 34018.49275)
(-5216.974898 0 33371.85761)
(-5720.977907 0 32702.94441)
(-6233.385407 -6.749718238e-11 32011.39873)
(-6754.538743 -6.425003658e-11 31305.35419)
(-7283.125576 0 30590.75169)
(-7823.581637 0 29868.8494)
(-8375.523515 0 29144.84205)
(-8937.825041 0 28423.8238)
(-9510.280287 0 27706.15734)
(-10094.62754 -5.247950782e-11 26994.95236)
(-10692.23854 0 26292.71078)
(-11302.55413 0 25601.76031)
(-11924.76409 0 24923.43284)
(-12561.86025 0 24261.88725)
(-13217.12407 -4.79036769e-11 23620.17211)
(-13892.65215 -4.729984937e-11 23001.15987)
(-14589.46734 4.677423285e-11 22412.38889)
(-15314.91243 0 21860.53532)
(-16076.03748 -4.592780975e-11 21353.64335)
(-16879.14321 0 20902.77369)
(-17731.29893 0 20518.86955)
(-18642.74231 0 20214.89759)
(-19628.36574 0 20007.8748)
(-20697.66695 0 19913.84068)
(-21862.81187 0 19949.60362)
(-23139.05735 0 20134.94586)
(-24539.51501 0 20488.91923)
(-26072.39768 0 21028.02783)
(-27739.33165 -1.114288833e-11 21766.61394)
(-29527.40038 0 22707.21074)
(-31394.79586 0 23834.3645)
(-33252.66223 0 25089.19877)
(-34946.65391 0 26349.64806)
(-36241.51987 0 27396.47637)
(-36832.90921 0 27903.68309)
(-36375.45559 5.688573389e-12 27450.02604)
(-34494.64301 0 25535.15851)
(-30888.98102 -2.874031797e-12 21754.61402)
(-25615.05713 2.890849018e-12 16356.02253)
(-19235.53705 3.372076361e-13 10579.51732)
(-1065.369133 0 33966.65308)
(667.2228371 0 33765.78637)
(-424.2199406 0 33875.53361)
(-1966.737618 -3.849001282e-10 33596.73164)
(-1904.009885 0 33288.53119)
(-2397.087011 0 32940.19931)
(-2848.012431 -1.126405112e-10 32536.79591)
(-3281.18697 2.007470516e-10 32082.43809)
(-3725.270882 0 31591.99432)
(-4175.536226 8.376778187e-11 31066.54628)
(-4634.119424 0 30515.07644)
(-5103.331143 7.314461113e-11 29940.6561)
(-5581.75714 0 29353.28133)
(-6073.719658 0 28751.3915)
(-6576.883299 0 28144.3858)
(-7091.430148 0 27535.65407)
(-7620.129939 -5.853208169e-11 26927.8398)
(-8162.352947 0 26323.48614)
(-8717.387236 1.103192026e-10 25725.6558)
(-9285.604866 0 25138.31529)
(-9867.640794 0 24563.13795)
(-10464.00923 0 24001.53317)
(-11076.23112 0 23456.35921)
(-11705.93351 0 22933.06505)
(-12354.06764 0 22433.44682)
(-13027.02166 0 21962.60049)
(-13729.58022 2.397089565e-11 21525.3962)
(-14466.17802 0 21132.08615)
(-15245.29516 -4.707423994e-11 20787.33941)
(-16076.0656 2.336638909e-11 20503.20732)
(-16966.41239 0 20287.61008)
(-17928.03598 0 20155.25649)
(-18976.11314 -2.300924027e-11 20118.5085)
(-20122.03447 -2.293542348e-11 20190.29837)
(-21380.31974 0 20386.64533)
(-22766.84939 -2.284641274e-11 20725.0092)
(-24294.15327 0 21221.37269)
(-25973.87262 -2.282761612e-11 21893.28341)
(-27805.19663 1.142103234e-11 22750.18958)
(-29763.7889 0 23786.41459)
(-31783.99819 -1.145731084e-11 24962.00274)
(-33729.34704 -1.148568834e-11 26175.26993)
(-35362.55962 0 27223.70695)
(-36338.81419 5.78074655e-12 27784.08776)
(-36263.77833 0 27450.79755)
(-34804.62332 5.83056913e-12 25852.8284)
(-31828.37704 0 22836.05422)
(-27527.98398 0 18650.20144)
(-22433.07486 0 13966.18463)
(-17140.10109 0 9559.96364)
(-1007.928223 0 30891.27765)
(697.3552781 4.357353219e-10 30719.04521)
(-302.2291836 5.37389934e-10 30827.75429)
(-1747.717528 0 30590.94361)
(-1654.160161 -3.155815268e-10 30331.74752)
(-2094.54994 0 30040.79854)
(-2496.720837 2.309754585e-10 29700.15251)
(-2886.598947 0 29318.10059)
(-3289.610588 1.86722853e-10 28907.30641)
(-3702.630718 -8.588518305e-11 28464.52932)
(-4126.566371 -7.989098202e-11 28004.62452)
(-4564.641183 -7.49934898e-11 27524.04797)
(-5015.188437 -7.093073427e-11 27033.48559)
(-5479.241363 0 26535.99212)
(-5960.55859 0 26033.02829)
(-6457.041417 0 25531.79561)
(-6967.855071 0 25034.87842)
(-7493.248972 0 24544.1201)
(-8034.520208 0 24062.88518)
(-8591.96865 0 23593.69893)
(-9164.587661 0 23138.90802)
(-9752.849319 0 22700.381)
(-10360.01088 0 22282.15821)
(-10988.3489 0 21885.50746)
(-11639.2588 0 21514.78594)
(-12316.69934 0 21176.19482)
(-13028.46583 0 20871.50123)
(-13780.15342 0 20609.90882)
(-14579.26056 0 20396.07074)
(-15436.07448 0 20238.87346)
(-16360.0181 0 20145.80359)
(-17363.13673 0 20128.64089)
(-18458.56112 0 20196.85308)
(-19660.86176 0 20361.66262)
(-20985.86687 0 20638.38019)
(-22450.48313 0 21042.27766)
(-24071.32234 2.340580753e-11 21590.78263)
(-25857.26274 0 22298.4751)
(-27803.31435 1.170972215e-11 23169.5267)
(-29873.82418 0 24189.86521)
(-31971.83335 0 25294.37567)
(-33899.59672 0 26336.35581)
(-35332.39904 0 27048.55305)
(-35848.4478 -5.926866636e-12 27059.31683)
(-35055.57064 0 26001.26008)
(-32782.52498 0 23697.58608)
(-29199.7875 3.003910026e-12 20310.13973)
(-24776.67574 0 16320.22101)
(-20099.87571 -3.037905234e-12 12329.46011)
(-15613.49287 1.899593202e-12 8788.428011)
(-960.3420389 0 28156.27667)
(718.7366697 0 28002.5979)
(-199.3688119 0 28112.4673)
(-1563.504592 0 27917.29715)
(-1446.082451 1.618302971e-10 27705.85484)
(-1839.021939 -1.361404619e-10 27468.75239)
(-2200.860087 0 27188.67569)
(-2555.024936 0 26879.70737)
(-2922.601884 0 26543.97161)
(-3303.943517 0 26187.17881)
(-3699.313417 0 25813.54843)
(-4109.305197 7.691336594e-11 25429.41673)
(-4538.242302 0 25034.71704)
(-4981.826698 0 24638.36162)
(-5442.438135 6.627746941e-11 24241.70822)
(-5922.356319 0 23847.92338)
(-6419.411977 -6.154793015e-11 23458.59618)
(-6933.455961 0 23078.03805)
(-7464.546297 0 22708.50013)
(-8012.947783 0 22351.57125)
(-8578.838192 -5.529990386e-11 22008.07315)
(-9163.407885 0 21680.96059)
(-9766.909651 -5.322459046e-11 21372.91008)
(-10392.13256 5.237412145e-11 21085.43072)
(-11044.97353 0 20820.89493)
(-11726.39439 -5.097847277e-11 20583.7172)
(-12444.11395 0 20378.36009)
(-13205.63287 0 20209.6522)
(-14017.07918 0 20082.06095)
(-14889.85423 0 20002.85985)
(-15834.43773 0 19979.99728)
(-16862.85401 2.429496466e-11 20022.38861)
(-17988.04814 -2.419478466e-11 20139.27664)
(-19227.17325 0 20343.69222)
(-20598.52203 0 20650.97525)
(-22120.4119 0 21077.68354)
(-23809.74705 1.200250477e-11 21641.50051)
(-25674.6636 0 22353.83918)
(-27705.79053 1.200949771e-11 23218.37356)
(-29846.13073 1.202487124e-11 24202.82413)
(-31957.6499 1.204764552e-11 25213.50086)
(-33778.58415 0 26053.63223)
(-34909.36684 0 26407.85187)
(-34908.75904 -6.078597787e-12 25907.3759)
(-33484.51089 0 24300.60853)
(-30673.26 6.130987523e-12 21621.18833)
(-26854.00042 3.080811835e-12 18212.67108)
(-22576.44742 3.097552223e-12 14574.27637)
(-18348.93093 -1.557838673e-12 11156.84139)
(-14471.68602 -1.181870095e-12 8216.674814)
(-920.0603917 0 25712.23066)
(733.4374049 0 25573.77019)
(-116.5527701 2.827200254e-10 25687.41792)
(-1411.852403 0 25531.34734)
(-1274.800489 0 25360.77905)
(-1626.917552 -1.396709235e-10 25171.15089)
(-1956.608897 1.215158366e-10 24949.31041)
(-2280.598123 1.082822941e-10 24706.08863)
(-2620.114992 0 24439.62309)
(-2975.17416 0 24162.22181)
(-3347.758764 0 23869.27836)
(-3736.700199 7.890792151e-11 23572.08311)
(-4144.194285 0 23270.2663)
(-4572.731453 7.104266286e-11 22965.88507)
(-5020.247491 6.799620941e-11 22665.92585)
(-5485.72535 0 22370.28333)
(-5970.305562 0 22081.14558)
(-6474.662834 0 21800.8491)
(-6997.603956 -5.950581211e-11 21530.63398)
(-7538.076119 0 21271.80108)
(-8096.326404 0 21025.05331)
(-8674.921242 0 20792.79697)
(-9275.187422 0 20574.25294)
(-9896.96924 -2.686615656e-11 20373.07864)
(-10545.52095 0 20191.0112)
(-11226.25254 5.230047189e-11 20029.27412)
(-11944.76846 5.17192865e-11 19894.56409)
(-12706.97917 0 19788.13579)
(-13521.18949 0 19715.43492)
(-14399.58311 -2.520750565e-11 19683.85571)
(-15352.82907 0 19701.01)
(-16392.93319 0 19774.81502)
(-17535.09684 0 19916.26142)
(-18798.40037 0 20140.60696)
(-20202.27654 0 20462.9611)
(-21767.54348 0 20901.83676)
(-23510.31001 0 21473.29342)
(-25437.96424 0 22189.23848)
(-27529.32973 1.2320934e-11 23043.84585)
(-29701.67428 1.233670615e-11 23984.65451)
(-31769.90459 0 24885.67898)
(-33407.96412 0 25505.34028)
(-34176.41895 -1.242823938e-11 25507.90838)
(-33674.78837 0 24578.88649)
(-31757.93465 -6.261553926e-12 22607.99985)
(-28642.48507 0 19784.76332)
(-24809.31944 3.160704974e-12 16516.41242)
(-20785.41926 0 13239.71245)
(-16974.0388 0 10274.61329)