/*--------------------------------*- C++ -*----------------------------------*\
  =========                 |
  \\      /  F ield         | OpenFOAM: The Open Source CFD Toolbox
   \\    /   O peration     | Website:  https://openfoam.org
    \\  /    A nd           | Version:  7
     \\/     M anipulation  |
\*---------------------------------------------------------------------------*/
FoamFile
{
    version     2.0;
    format      ascii;
    class       volTensorField;
    location    "0.0018";
    object      grad(U);
}
// * * * * * * * * * * * * * * * * * * * * * * * * * * * * * * * * * * * * * //

dimensions      [0 0 -1 0 0 0 0];

internalField   nonuniform List<tensor> 
1167
(
(-0.4166492403 -2.908882557e-15 0.01099663836 5.017454921e-15 -0.6905129761 0 0.06150756674 -7.837560803e-15 1.145054198)
(-0.552637825 -2.105250675e-15 0.01792179355 2.286190532e-15 -0.5990625886 0 0.1588024641 -3.004143829e-14 1.142754672)
(-0.4830568557 1.231269486e-14 0.01254796442 -8.492657643e-15 -0.8009360643 0 0.06986887237 2.402650928e-15 1.325943594)
(-0.6407794799 -1.965816386e-15 0.02053345651 -1.276987069e-14 -0.6946666114 0 0.1803153622 9.426623806e-15 1.323385597)
(-0.6331137531 -2.455190134e-15 0.03133543661 -4.295184562e-15 -0.6620609561 0 0.2839263381 -7.800318389e-15 1.31985108)
(-0.6446489084 4.981741274e-15 0.04624415222 -3.154144516e-15 -0.6571937602 1.345768327e-13 0.3913764713 -1.477056474e-14 1.313972731)
(-0.63941348 -1.055737836e-14 0.06118420641 -1.681560964e-15 -0.6538554376 1.076199017e-13 0.4963804119 -8.432093403e-15 1.306076269)
(-0.6321453719 -1.660107111e-14 0.07725186683 0 -0.6505679657 0 0.598656903 -1.392337498e-15 1.296147106)
(-0.6234425357 -9.785838016e-15 0.09476797114 2.461483205e-15 -0.6471826478 0 0.6982111894 2.16735746e-15 1.284096981)
(-0.6127793796 -3.93273031e-15 0.1137810489 1.096709106e-15 -0.6434969971 -3.50946914e-14 0.7948927613 7.904423124e-15 1.269846818)
(-0.600176022 -2.244453126e-15 0.1343528007 3.979774893e-15 -0.6394106831 0 0.8886066542 4.850703152e-15 1.253306149)
(-0.5856108589 2.570621944e-15 0.1565251067 1.830540244e-15 -0.6348737219 -2.92886439e-14 0.9792848823 6.241050965e-15 1.234366637)
(-0.5689984064 2.339661001e-15 0.1802928156 3.405561997e-15 -0.6298524046 2.724449598e-14 1.06685689 -2.81929816e-15 1.21291719)
(-0.5502528108 -4.228571196e-15 0.2056127914 3.19679358e-15 -0.6243205207 0 1.151267883 2.229125306e-15 1.188854954)
(-0.5292851534 -9.862158934e-16 0.2324234759 1.511804004e-15 -0.6182578918 0 1.232470121 6.543566653e-15 1.162065458)
(-0.5059964171 1.134114245e-15 0.260633478 2.878148666e-15 -0.6116466252 0 1.310402988 5.169789923e-15 1.132438836)
(-0.480295365 -1.910016358e-16 0.2901315809 2.754727817e-15 -0.6044706923 0 1.385016364 5.656665189e-15 1.099871568)
(-0.45208458 -3.86762183e-16 0.3207949767 1.324563463e-15 -0.5967161344 0 1.456244402 7.764951028e-15 1.064252064)
(-0.421269224 -2.623104378e-16 0.3524780546 2.558151318e-15 -0.5883693228 0 1.524015953 5.178932728e-15 1.025480701)
(-0.387754663 1.162189579e-16 0.385026618 2.479337769e-15 -0.5794183565 0 1.588245439 3.675254627e-15 0.9834490133)
(-0.3514460198 8.875539672e-16 0.4182714573 1.205378332e-15 -0.5698514947 -9.643026657e-15 1.648829563 4.822874506e-15 0.9380600203)
(-0.3122500231 6.439653589e-16 0.4520312586 2.350875321e-15 -0.5596583079 0 1.705646763 2.014176268e-15 0.8892098627)
(-0.2700743772 1.650896611e-15 0.4861107209 3.44769163e-15 -0.5488286017 9.193844347e-15 1.758547216 -1.307426931e-17 0.8368033835)
(-0.2248299395 3.461256826e-15 0.5202998997 1.126255796e-15 -0.5373533156 0 1.807355368 8.009997309e-16 0.7807436085)
(-0.1764317561 3.899441031e-15 0.5543716013 0 -0.5252237949 0 1.851858944 1.668105194e-15 0.7209425311)
(-0.1248020459 6.061818723e-15 0.5880772784 -1.08842756e-15 -0.5124325863 -8.707420477e-15 1.891808676 4.233793427e-15 0.6573164005)
(-0.06987368973 5.945221952e-15 0.6211466299 0 -0.4989729786 0 1.926911428 3.184519684e-15 0.5897975274)
(-0.01159634937 4.736367953e-15 0.6532826508 0 -0.4848398289 0 1.956828381 2.326717571e-15 0.5183307332)
(0.05005845073 5.396833631e-15 0.6841582104 0 -0.4700294334 0 1.981170201 2.895833617e-15 0.4428874179)
(0.1150890759 6.009953426e-15 0.7134103091 0 -0.4545403848 0 1.999494989 1.307038186e-15 0.3634670133)
(0.1834547757 5.339356198e-15 0.7406379576 0 -0.4383737404 0 2.011307593 8.760188578e-16 0.2801139793)
(0.255063132 4.350203462e-15 0.7654004937 0 -0.4215340245 0 2.016061571 1.544917114e-16 0.1929217833)
(0.3297597298 4.724918132e-15 0.7872193218 0 -0.4040297462 0 2.013164662 -6.915391176e-16 0.1020529666)
(0.4073126706 3.374497397e-15 0.8055779744 1.009785311e-15 -0.3858744676 8.078282489e-15 2.001984592 -2.06460551e-15 0.00774647254)
(0.4874024084 2.771351356e-15 0.8199350075 0 -0.3670876378 0 1.981865868 -2.906443581e-15 -0.08966378609)
(0.5696080931 2.136942333e-15 0.8297322196 1.002395304e-15 -0.3476956075 1.603832487e-14 1.952143226 -2.519121471e-15 -0.1897376142)
(0.6533961429 1.17290101e-15 0.8344164822 0 -0.3277325648 0 1.912173021 -1.853901964e-15 -0.2919189837)
(0.7381169365 1.981408526e-15 0.8334581063 0 -0.3072415037 0 1.861357008 -1.772917607e-15 -0.3955270426)
(0.8230032693 2.907458473e-15 0.8263751054 -1.496600608e-15 -0.2862747963 0 1.799182515 -2.113806483e-15 -0.4997571027)
(0.9071798212 2.617945095e-15 0.8127619377 0 -0.2648947738 7.981468632e-15 1.725261853 -2.883810878e-15 -0.6036874117)
(0.989676296 2.643000091e-15 0.7923094357 -9.983150473e-16 -0.2431736102 0 1.639373094 -2.818541153e-15 -0.7062954632)
(1.069452004 2.40038985e-15 0.7648190964 -4.99796504e-16 -0.2211931961 7.996744064e-15 1.541506478 -2.441678936e-15 -0.8064818754)
(1.145430273 6.22505803e-16 0.7302096373 -1.001486162e-15 -0.1990441146 0 1.431894232 -1.311032826e-15 -0.9030987502)
(1.216533687 -3.774679228e-17 0.6885146416 -1.003966631e-15 -0.1768244521 0 1.311039727 -1.044630023e-15 -0.9949954237)
(1.281722702 -3.245245686e-17 0.6398682789 -5.035047853e-16 -0.15463795 0 1.17972541 -6.450099002e-16 -1.081049898)
(1.340031458 -2.639976164e-16 0.5844868328 -5.052963723e-16 -0.1325920601 0 1.039007954 -3.816472681e-16 -1.160213396)
(1.39060403 8.155225784e-16 0.5226425544 -7.610222846e-16 -0.1107956255 0 0.8901888014 2.341089492e-16 -1.231532836)
(1.432719153 1.775567669e-15 0.4546287402 -5.096513787e-16 -0.08935656941 0 0.7347727836 4.131890784e-16 -1.294172315)
(1.465679822 1.45181145e-15 0.3807374254 -7.682971186e-16 -0.06837964496 0 0.5744275564 1.471747731e-16 -1.347410432)
(1.488695898 1.527844716e-15 0.3013164958 -7.724718513e-16 -0.04796776663 0 0.4109610468 -9.853910936e-17 -1.390648577)
(1.501707294 1.987374356e-15 0.2167627739 -7.122425946e-16 -0.02822303493 0 0.2461485173 -3.270016019e-16 -1.423435352)
(1.506618029 1.157356132e-15 0.08636384626 -7.166949008e-16 -0.009227375755 4.169861241e-15 0.08153338959 -4.607499078e-16 -1.445416292)
(-0.5570176255 -1.15324554e-14 0.01424457402 1.034989862e-14 -0.9240041446 0 0.07875557052 1.104587707e-14 1.527471516)
(-0.7389498089 1.075585536e-14 0.02341601063 1.178976225e-14 -0.8011732147 -1.509089568e-13 0.2031600697 4.541301528e-14 1.524631978)
(-0.730345141 1.776920518e-14 0.03578732614 -2.908049561e-15 -0.7635571193 0 0.3198679579 1.532050518e-14 1.520645865)
(-0.7438022096 2.700669088e-15 0.05273541744 -4.27101953e-15 -0.7580332172 0 0.4409388183 1.366507373e-14 1.514051076)
(-0.7379191196 -1.273139665e-14 0.06967722184 -3.415496508e-15 -0.7542349412 0 0.5592048348 1.100533484e-14 1.505230218)
(-0.7298605478 -1.619318776e-14 0.08787395892 0 -0.7505254081 0 0.6743996604 5.840628218e-15 1.494175398)
(-0.7202404143 -1.129799826e-14 0.1076718765 2.499816382e-15 -0.7467311074 0 0.7865342636 3.291663604e-15 1.480814368)
(-0.7084845717 -3.991800148e-15 0.1291294261 4.455153517e-15 -0.7426195613 0 0.8954597598 2.625588372e-15 1.465080909)
(-0.6946424059 6.986232752e-16 0.1523315994 4.041752733e-15 -0.7380803819 0 1.001091976 1.662619419e-15 1.446885521)
(-0.6786969849 5.840386901e-15 0.1773348827 3.718095236e-15 -0.7330595664 0 1.103369316 -2.000475524e-15 1.426124707)
(-0.6605707363 1.168627672e-15 0.2041412526 1.729298752e-15 -0.7275208499 0 1.202247242 -1.011690731e-15 1.402701184)
(-0.6401837969 -8.156075813e-15 0.2327219299 3.246577894e-15 -0.7214381226 0 1.297706674 1.560511586e-15 1.376507102)
(-0.6174385451 -2.715346255e-15 0.2630267521 1.535347634e-15 -0.7147910047 0 1.389722423 1.719800634e-15 1.347425713)
(-0.592235393 3.85352577e-16 0.2949723787 2.922970658e-15 -0.7075609274 0 1.478279583 3.725241989e-15 1.315350299)
(-0.564471944 -1.867361883e-15 0.3284619927 1.398813876e-15 -0.6997321111 0 1.56336734 4.176322332e-15 1.280159193)
(-0.5340368505 -2.338320567e-16 0.3633800611 2.690382316e-15 -0.6912892127 0 1.644961775 4.60755331e-15 1.24173427)
(-0.5008172946 1.677022794e-15 0.3995967106 0 -0.6822178405 0 1.723044358 4.326019477e-15 1.199954316)
(-0.4646926847 -1.180288593e-16 0.4369692024 0 -0.6725038464 0 1.79757224 3.443895958e-15 1.154686945)
(-0.4255382226 2.197253493e-15 0.4753426893 0 -0.6621332299 0 1.868498369 3.170635169e-15 1.105802696)
(-0.3832210482 4.429905624e-15 0.5145515153 0 -0.6510920524 0 1.935743934 1.691229304e-15 1.053156697)
(-0.3376012925 2.728617009e-15 0.5544151359 0 -0.639366098 0 1.999212705 -5.58609263e-16 0.9966050519)
(-0.2885327128 2.280888486e-15 0.594738227 0 -0.6269409856 0 2.058767333 1.082210428e-15 0.9359880687)
(-0.2358602652 2.558202589e-15 0.6353061602 0 -0.6138019875 0 2.114237466 1.620362533e-15 0.8711465505)
(-0.179425549 4.432306155e-15 0.6758786417 0 -0.5999339877 0 2.165399022 2.443825305e-15 0.8019091117)
(-0.1190678595 5.205667468e-15 0.716188179 0 -0.5853217338 0 2.211977214 4.887335618e-15 0.7281066668)
(-0.05462907397 3.870797929e-15 0.7559334494 0 -0.5699498363 0 2.253631568 3.193041664e-15 0.6495695506)
(0.01404130514 6.155209637e-15 0.7947702162 -1.063966014e-15 -0.5538032347 -8.511728113e-15 2.289951452 3.294368119e-15 0.5661360469)
(0.08707799376 8.1346338e-15 0.8323027271 0 -0.5368673968 0 2.320442684 2.567810443e-15 0.4776617948)
(0.1645865737 6.553938934e-15 0.8680768594 0 -0.5191290434 0 2.344526232 2.84990761e-15 0.3840285974)
(0.24663051 5.765009571e-15 0.9015739522 0 -0.5005768355 0 2.361525875 1.387947e-15 0.2851620601)
(0.3332148466 6.345656704e-15 0.932204147 0 -0.48120239 0 2.37066863 7.113392569e-16 0.1810487699)
(0.4242642067 6.029883928e-15 0.9593102546 0 -0.4610013399 0 2.371084297 4.614436709e-16 0.07175565776)
(0.5196028118 3.104737833e-15 0.9821638216 1.021282217e-15 -0.4399748456 8.170257735e-15 2.361806326 -8.645832672e-16 -0.04254437901)
(0.6189239393 5.756107066e-16 0.9999839708 0 -0.4181309325 0 2.341790536 -4.377128178e-16 -0.1615474419)
(0.7217674381 8.222125778e-16 1.011951811 0 -0.3954865874 0 2.309934437 -6.721416352e-16 -0.2847883897)
(0.8274987226 1.863722188e-15 1.017237137 0 -0.3720692308 0 2.265107624 -9.631763261e-16 -0.4116168352)
(0.9352825439 2.873575065e-15 1.015035417 -1.013271648e-15 -0.3479187542 0 2.206202921 -9.056874812e-16 -0.5411816281)
(1.044080602 2.522167562e-15 1.004607579 -2.026441415e-15 -0.3230891548 0 2.132192273 -3.792383286e-16 -0.6724081983)
(1.152643224 2.126733981e-15 0.9853223196 -1.01386201e-15 -0.2976497681 0 2.042201683 -4.84414757e-16 -0.8040092329)
(1.259530921 1.524722543e-15 0.9566867886 -1.015159872e-15 -0.271686441 0 1.935592015 -7.823810518e-17 -0.9344904566)
(1.363152198 4.077269238e-16 0.9183895718 -1.017082509e-15 -0.2453013974 0 1.812048887 -3.177958299e-16 -1.062191202)
(1.46181127 1.413900666e-16 0.8703081906 -1.019601607e-15 -0.2186127414 0 1.671659733 -1.081362942e-15 -1.18533568)
(1.553780018 1.388224403e-16 0.8125092612 -1.022691934e-15 -0.1917527278 0 1.514989244 -2.03769206e-15 -1.302102985)
(1.637375949 -1.272890875e-16 0.7452305488 -1.02633091e-15 -0.1648652451 0 1.343109213 -1.037666736e-15 -1.410705482)
(1.7110513 9.91250952e-17 0.6688369358 -5.152492258e-16 -0.1381023446 0 1.157601164 -5.135296359e-16 -1.509468712)
(1.773440968 1.00055274e-15 0.5837630783 -5.175882828e-16 -0.1116200512 0 0.9605013795 -2.10481198e-16 -1.596889204)
(1.823246567 1.225001126e-15 0.4904710583 -5.201746435e-16 -0.0855747295 0 0.7542495549 1.319403666e-16 -1.671664325)
(1.859304688 1.30239542e-15 0.3895423958 -6.537514265e-16 -0.06012317585 0 0.5416150306 5.422157136e-16 -1.732713033)
(1.881632012 1.276495299e-15 0.2815882666 -7.233344927e-16 -0.03541792019 0 0.3253550834 1.257118423e-15 -1.77923496)
(1.890798833 5.755861178e-16 0.1126175071 -7.278561356e-16 -0.01158208341 0 0.1079154357 1.37236191e-15 -1.810592103)
(-0.6387449997 -3.072920704e-14 0.01609810241 2.627773189e-14 -1.060097079 0 0.08807740401 3.373663543e-15 1.750234498)
(-0.8474282443 5.018530598e-15 0.0266029871 3.592014445e-14 -0.9188980427 0 0.2270998187 1.214185498e-14 1.747082956)
(-0.8378025115 2.163091462e-14 0.04071714881 2.953340876e-15 -0.8757314716 -9.450690803e-14 0.3575157601 4.239211964e-14 1.742570327)
(-0.8533671018 8.770383986e-15 0.05988921621 4.337538373e-15 -0.8694843231 0 0.4928371568 3.165892024e-14 1.735156854)
(-0.8467378044 -3.514420851e-15 0.07900069459 0 -0.8651675972 0 0.6249421751 3.332189306e-14 1.725290214)
(-0.8377982969 -9.822778098e-15 0.0994852232 2.918051863e-15 -0.8609832119 0 0.7535912086 1.241847907e-14 1.712978556)
(-0.8271700626 -6.964206896e-15 0.1217136878 5.077499367e-15 -0.8567305211 0 0.8788034669 3.599086312e-15 1.698172021)
(-0.8142300098 -2.403661954e-15 0.1457611821 4.524540148e-15 -0.8521454038 0 1.000425358 -4.348256201e-15 1.680816383)
(-0.7990578629 2.310898487e-15 0.1717359478 4.104700869e-15 -0.8471070054 0 1.118374408 3.98077065e-16 1.660835012)
(-0.7816553023 5.016847176e-15 0.1997012593 1.888001289e-15 -0.8415569269 0 1.232603525 2.046385434e-16 1.638144693)
(-0.761966964 -1.250286012e-15 0.2296728909 5.268694963e-15 -0.8354585898 0 1.34310565 6.637992673e-15 1.612663748)
(-0.7399155455 -6.946858415e-15 0.2616441428 3.297141607e-15 -0.8287875025 0 1.449888698 3.279304013e-15 1.584287633)
(-0.7154081832 -3.292109179e-15 0.2955703708 4.677779555e-15 -0.8215235091 0 1.552965592 6.493683092e-16 1.552914091)
(-0.6883520066 -1.382784971e-15 0.3313854981 0 -0.8136498523 0 1.652376128 2.736442582e-15 1.518438286)
(-0.6586375629 -1.151462609e-15 0.369010194 0 -0.8051516541 0 1.748151759 3.446032486e-15 1.480737617)
(-0.6261508219 -5.22976154e-16 0.4083430589 5.46456716e-15 -0.796014035 0 1.840335912 2.770563319e-15 1.439694929)
(-0.5907655598 1.064141377e-15 0.4492769633 5.276904457e-15 -0.7862230704 0 1.928964131 3.407511672e-15 1.395171627)
(-0.5523445412 1.388460524e-15 0.4916906564 0 -0.7757637831 0 2.014069271 2.455099253e-15 1.347028965)
(-0.5107375848 2.947780295e-15 0.5354552273 2.486430826e-15 -0.7646213143 1.989144661e-14 2.095669373 -1.379957036e-15 1.295102737)
(-0.4657782555 5.071916699e-15 0.5804328872 0 -0.7527793168 0 2.173766348 2.12884111e-15 1.239223938)
(-0.417283968 2.294213646e-15 0.6264754056 2.370610266e-15 -0.7402207973 9.482441065e-15 2.248336807 2.765156029e-15 1.179195771)
(-0.3650512675 8.349066152e-16 0.6734218758 0 -0.7269269676 0 2.31932675 3.792269886e-15 1.114809013)
(-0.3088567791 2.19251844e-15 0.7210928751 0 -0.7128777248 0 2.386639991 4.54351895e-15 1.045824723)
(-0.2484534402 1.889991452e-15 0.7692867599 0 -0.6980509082 0 2.450132416 1.870915527e-15 0.9719879054)
(-0.1835776746 5.077088796e-15 0.8177677472 -1.106628124e-15 -0.6824225624 -8.853024993e-15 2.50959717 2.337847477e-15 0.8930122828)
(-0.1139445166 6.75454907e-15 0.8662666324 0 -0.6659668691 0 2.564755008 1.723744083e-15 0.8085963759)
(-0.03925132764 6.261625848e-15 0.9144605616 0 -0.6486560961 0 2.615236445 9.437716418e-16 0.7184191268)
(0.04081206128 6.620764465e-15 0.9619646543 0 -0.6304608067 0 2.660572485 1.664759226e-15 0.6221460297)
(0.1265560893 7.029015e-15 1.008315802 -2.121966793e-15 -0.6113503653 -1.697573434e-14 2.70017088 2.372817798e-15 0.5194401974)
(0.2182785592 7.358611073e-15 1.052955769 0 -0.5912934006 0 2.733301027 1.648057479e-15 0.4099792682)
(0.3162401246 6.066241327e-15 1.095225328 0 -0.570258743 0 2.759080115 9.578671503e-16 0.2934696644)
(0.4206491046 5.744427938e-15 1.134346525 0 -0.5482167641 0 2.776451525 9.988057531e-16 0.169676745)
(0.5316233253 4.067722239e-15 1.169420151 0 -0.5251405238 0 2.784172751 1.701327938e-15 0.03845180678)
(0.6491471138 1.838535492e-15 1.199418908 0 -0.501008199 0 2.780813425 6.546712857e-16 -0.1002236838)
(0.7730370895 1.978257594e-15 1.223201827 0 -0.4758052945 0 2.76475145 -6.793105816e-16 -0.2461840057)
(0.9028819962 2.33928448e-15 1.239546457 0 -0.4495274127 0 2.73419679 -5.422485751e-16 -0.3990416685)
(1.037988939 1.958617119e-15 1.247167255 0 -0.4221837059 0 2.687222516 -6.923729618e-16 -0.5581195594)
(1.177337542 1.944450278e-15 1.244780229 0 -0.3938003103 0 2.621834079 -6.703864257e-16 -0.7223964196)
(1.319531162 2.121646969e-15 1.231165145 0 -0.3644239314 0 2.536059351 -7.067834528e-17 -0.8904653511)
(1.462770445 2.120335698e-15 1.205231582 -1.030970444e-15 -0.3341254163 0 2.428069619 4.45199145e-16 -1.060500285)
(1.604865419 2.365434075e-15 1.166108672 -1.032923025e-15 -0.3030026241 0 2.296348368 2.258026323e-17 -1.230261361)
(1.743265693 2.995210719e-15 1.11320731 -1.035481356e-15 -0.2711821028 0 2.139866381 -3.715382217e-16 -1.397131964)
(1.875155694 -1.587343759e-16 1.046272492 -5.19309907e-16 -0.2388198219 8.308958511e-15 1.958284209 -9.238829837e-16 -1.558208499)
(1.997600394 -3.03279192e-15 0.9654064548 -1.042315465e-15 -0.2060991754 0 1.752120647 -6.502971977e-16 -1.710435407)
(2.10772912 -7.292108752e-16 0.8710301427 -1.56982187e-15 -0.1732272402 -4.186191654e-15 1.522871698 -6.964619051e-16 -1.850786518)
(2.202863803 5.384826816e-16 0.7637775542 -2.628247216e-16 -0.1404281959 4.205195546e-15 1.273037661 -8.292684965e-16 -1.976423733)
(2.280457836 -7.738419216e-18 0.6444191584 -5.282760851e-16 -0.1079374266 0 1.006088383 -4.14879781e-16 -2.084837627)
(2.338576251 -6.984266625e-16 0.5139896544 -7.967199061e-16 -0.07599839744 0 0.726325237 -1.305335982e-16 -2.17396137)
(2.377238423 3.283004796e-16 0.373512471 -8.013818621e-16 -0.04484593872 -4.274036598e-15 0.4381684244 2.842458823e-16 -2.242296604)
(2.394427986 9.161615439e-16 0.1499715545 -7.055924642e-16 -0.01467259501 0 0.145647886 3.873119234e-16 -2.288663207)
(-0.7283370056 -2.254839121e-14 0.01812436372 2.13495632e-14 -1.209404618 0 0.09772401569 -1.400423379e-15 1.994515072)
(-0.9663406607 -2.564729279e-14 0.03013844894 2.675165349e-14 -1.047991179 0 0.2518455763 -1.177678932e-14 1.99101471)
(-0.9556041138 6.07775026e-15 0.046194988 2.399466512e-14 -0.9987211745 -9.597866049e-14 0.3964120107 2.985914862e-14 1.985881293)
(-0.9734403703 9.468355283e-15 0.06779249028 8.810173384e-15 -0.9916788971 0 0.5464323685 2.180817144e-14 1.977518321)
(-0.9659358473 5.67279967e-15 0.08924947739 7.045417661e-15 -0.9867737724 -5.636334129e-14 0.6927666274 3.088769438e-14 1.966455569)
(-0.9560001877 9.472185292e-15 0.1121854158 5.926989147e-15 -0.9820504077 0 0.8352199385 1.231445238e-14 1.952720857)
(-0.9442401707 3.83721402e-15 0.136998079 5.156571071e-15 -0.9772782366 0 0.9738083995 4.43007675e-15 1.936284496)
(-0.9299793034 -1.619917217e-15 0.1637784301 6.892500958e-15 -0.9721584156 3.676000511e-14 1.108361186 -2.936363095e-15 1.917115309)
(-0.9133427035 -3.323907088e-15 0.192648159 2.084311609e-15 -0.9665585911 0 1.23879481 1.973803029e-15 1.895163989)
(-0.8943710413 -3.726203215e-16 0.2236811288 3.834806123e-15 -0.9604177896 0 1.36509054 3.793470657e-15 1.870383228)
(-0.873029489 -1.494446119e-15 0.2569150606 1.783581383e-15 -0.9537016791 0 1.487271404 1.098378987e-14 1.842704655)
(-0.8492509776 -2.24322527e-15 0.2923565965 0 -0.946387523 0 1.605369594 5.59170246e-15 1.812046057)
(-0.8229653788 -2.335106094e-15 0.3299736927 1.583542146e-15 -0.9384578091 2.533667433e-14 1.71945502 2.999888179e-15 1.778331998)
(-0.7940873931 -2.467126511e-15 0.3697228645 4.522083916e-15 -0.9298995074 0 1.82961155 4.370773687e-15 1.741461709)
(-0.7625164542 -1.854123963e-15 0.4115397438 5.770890389e-15 -0.9206998292 0 1.935932954 4.925989892e-15 1.701336747)
(-0.7281426227 -2.303328446e-16 0.4553483795 5.549666656e-15 -0.9108470633 0 2.038531962 4.900350804e-15 1.657841002)
(-0.6908395489 2.054140121e-15 0.5010652228 2.679540744e-15 -0.9003287341 0 2.137516179 4.76607123e-15 1.610843553)
(-0.6504640371 5.277666642e-15 0.5486022368 5.193974667e-15 -0.8891318841 0 2.233004553 4.926554634e-15 1.560200979)
(-0.6068522525 2.374727829e-15 0.5978662474 2.525151918e-15 -0.8772419422 2.020121534e-14 2.325102785 3.950075221e-15 1.505741326)
(-0.5598172329 -2.428763062e-16 0.6487607255 0 -0.864642876 0 2.413913035 7.574665217e-15 1.447273187)
(-0.5091443173 7.71161213e-16 0.7011860542 0 -0.851316314 0 2.499515933 7.721496366e-15 1.384573381)
(-0.4545867785 1.45158263e-16 0.7550357504 0 -0.8372415387 0 2.58197141 6.302395148e-15 1.317386071)
(-0.395861114 4.971521742e-15 0.8101926985 -2.31717718e-15 -0.8223946747 -9.268708719e-15 2.661303077 5.951181072e-15 1.245417195)
(-0.3326456422 7.043084453e-15 0.8665224923 0 -0.8067485954 0 2.737494627 3.05656068e-15 1.168327592)
(-0.2645742852 5.412974042e-15 0.923867551 0 -0.7902723823 8.990892813e-15 2.810471815 -1.82534155e-15 1.085732674)
(-0.1912336362 5.708862029e-15 0.9820281517 0 -0.7729310604 0 2.880086214 4.199905778e-18 0.9971957261)
(-0.1121649262 6.196247958e-15 1.040764247 0 -0.7546851863 0 2.946104463 -8.395040957e-16 0.9022284652)
(-0.0268596385 6.205995599e-15 1.09976642 0 -0.7354909326 0 3.008179972 2.885494932e-16 0.800287784)
(0.06523968124 6.622874101e-15 1.158632278 0 -0.7152996363 0 3.065827356 2.503687084e-16 0.6907833603)
(0.1647190693 7.746896698e-15 1.216852466 0 -0.6940580654 0 3.118399501 -1.292751596e-16 0.5730788429)
(0.2721912503 7.236291435e-15 1.273780821 0 -0.671709127 0 3.165047866 3.677838803e-16 0.4465115689)
(0.388277043 4.943515746e-15 1.328614012 2.115403311e-15 -0.6481921111 8.461613246e-15 3.204684431 -3.117682292e-16 0.3104114625)
(0.5135627248 3.666117761e-15 1.380358389 0 -0.6234440745 0 3.235946897 1.46936374e-15 0.1641258922)
(0.648561331 4.154728401e-15 1.42779769 0 -0.5974016953 0 3.257147885 1.142477312e-15 0.007077144709)
(0.7936531048 2.622832213e-15 1.46950338 1.047496172e-15 -0.5700036521 8.379969378e-15 3.266246507 3.141248599e-16 -0.1611807372)
(0.9490097639 1.895668663e-15 1.503824184 0 -0.5411940309 0 3.260818333 5.328925248e-16 -0.3408860817)
(1.114489572 3.056649653e-15 1.528879421 0 -0.5109264836 0 3.238037192 3.038393418e-16 -0.5319665726)
(1.289526987 1.500183338e-15 1.542620461 1.045025672e-15 -0.4791700013 8.360205376e-15 3.194700159 -3.67023637e-16 -0.7339232848)
(1.473016128 3.012477499e-16 1.542889359 0 -0.44591505 0 3.12729259 -3.477982741e-16 -0.9456916154)
(1.663167822 1.401828364e-15 1.527513145 0 -0.4111809277 0 3.032105437 -7.000629409e-16 -1.16552173)
(1.8574099 1.825520992e-15 1.49445796 0 -0.3750239243 0 2.905441506 1.707660485e-16 -1.390861027)
(2.052318301 1.82696154e-15 1.441985667 0 -0.3375447238 0 2.74391919 7.797377104e-16 -1.618274142)
(2.243636449 6.046525349e-16 1.368843081 -1.054794201e-15 -0.2988954276 0 2.544851823 1.464032566e-15 -1.843457502)
(2.426436115 -5.726906851e-16 1.274442211 -1.058547403e-15 -0.2592832785 0 2.306710183 2.054434289e-16 -2.061378715)
(2.595409863 4.167310296e-16 1.158908232 -1.062845764e-15 -0.2189704159 -4.251383056e-15 2.029579422 -6.228471931e-16 -2.266541145)
(2.745169479 4.540728518e-16 1.023002729 -1.067670724e-15 -0.178267999 0 1.715539738 -9.242910619e-16 -2.453394183)
(2.870434291 -1.189317971e-16 0.8680488558 -5.365029084e-16 -0.1375280215 0 1.368931965 -1.22699959e-15 -2.616790652)
(2.967449669 -8.639118485e-17 0.6960447407 -5.394181298e-16 -0.09713412464 0 0.9962783983 -1.541355208e-15 -2.752452802)
(3.035891918 2.477085734e-16 0.5088898355 -6.78218126e-16 -0.05745960307 0 0.6048630994 -1.929739806e-15 -2.857352849)
(3.0686704 3.763261223e-16 0.2052161092 -7.165806286e-16 -0.0188179212 0 0.2017430833 -1.542805596e-15 -2.929173673)
(-0.8257647645 -1.811072713e-14 0.02034122189 2.168205524e-14 -1.371909536 0 0.1075654647 -2.266963454e-15 2.260265819)
(-1.095644135 -2.95681727e-14 0.03407549329 2.469843286e-14 -1.188421359 0 0.277056096 -9.623569548e-15 2.256375992)
(-1.083696711 -8.269533254e-16 0.05230839412 2.436835123e-14 -1.132489857 0 0.4360216986 -1.341685214e-14 2.250507338)
(-1.103941268 6.474618133e-15 0.07655120612 1.342107079e-14 -1.124574005 0 0.6009893112 3.13892367e-16 2.241027884)
(-1.095400606 6.620601654e-15 0.1005443222 1.431028199e-14 -1.118998726 0 0.7617382524 -9.883751646e-16 2.22857345)
(-1.084316206 1.289093028e-14 0.1261142093 6.019294394e-15 -1.113659979 0 0.9181298069 4.630430241e-15 2.21318209)
(-1.0712478 6.699521718e-15 0.1536769031 5.236878045e-15 -1.108291933 0 1.070160248 6.058486554e-15 2.194855482)
(-1.055472201 -7.314288875e-16 0.183330819 4.666561874e-15 -1.102557663 0 1.217630145 7.584095602e-15 2.173599113)
(-1.037184239 -3.844918048e-15 0.2152057919 2.116772087e-15 -1.096313834 0 1.360464314 6.496796417e-15 2.149413573)
(-1.016471021 -3.719578791e-15 0.2493936107 3.894528305e-15 -1.089499994 0 1.498671662 9.043264019e-15 2.122284659)
(-0.9933174315 -2.508306809e-15 0.285954607 7.245433491e-15 -1.082084893 0 1.632286553 9.619459776e-15 2.092169796)
(-0.9676887124 8.069869266e-16 0.3249021674 6.801272533e-15 -1.074048839 0 1.761380627 8.831908599e-15 2.059033092)
(-0.9395411836 -2.195575085e-15 0.3662261082 6.432815127e-15 -1.065380246 0 1.886074138 8.629238381e-15 2.022824254)
(-0.9088076185 -3.327775487e-15 0.4098993506 3.061673045e-15 -1.056070415 0 2.00649428 7.658500082e-15 1.983471216)
(-0.875411828 -1.694127266e-15 0.4558774958 5.860764598e-15 -1.046111729 0 2.122808579 6.790823204e-15 1.94090788)
(-0.8392586831 -3.467519747e-16 0.5041132866 5.636095589e-15 -1.035497181 0 2.235191138 6.580767405e-15 1.895034233)
(-0.8002352876 1.039079121e-15 0.5545514751 2.721271151e-15 -1.024218537 0 2.343839723 7.374092055e-15 1.845748426)
(-0.7582084386 2.372143499e-15 0.6071412749 5.274864155e-15 -1.012266699 0 2.448954998 8.440993451e-15 1.792912577)
(-0.713016535 -1.302273942e-16 0.6618354892 0 -0.9996303763 -1.025791167e-14 2.550750762 1.173483041e-14 1.736374838)
(-0.6644704339 8.205678653e-16 0.7185873729 0 -0.986295974 -1.000311302e-14 2.6494363 1.023938106e-14 1.675936753)
(-0.6123436041 3.772592296e-15 0.7773602157 2.445021842e-15 -0.9722469421 0 2.745218827 9.186773866e-15 1.611373703)
(-0.5563672794 2.8711589e-15 0.8381192732 4.792284781e-15 -0.9574631695 0 2.838292859 6.934944392e-15 1.542410405)
(-0.4962249812 6.179616738e-15 0.9008340469 0 -0.9419204269 0 2.928837893 4.499134284e-15 1.468720643)
(-0.4315427729 1.149011437e-14 0.9654696954 0 -0.9255898002 -9.262646812e-15 3.01700334 5.284248237e-15 1.389915515)
(-0.3618781401 8.702902812e-15 1.031976552 2.282728606e-15 -0.9084368995 9.130914426e-15 3.102900366 2.703899024e-15 1.305537902)
(-0.2867199829 5.555646185e-15 1.100290345 0 -0.8904210532 0 3.186588708 2.012406864e-15 1.215048374)
(-0.2054723822 5.844353002e-15 1.170309393 0 -0.8714950315 8.915631246e-15 3.268055337 1.577984376e-16 1.117816463)
(-0.1174400903 5.207658266e-15 1.24187715 0 -0.8516037569 0 3.347190094 2.23115102e-16 1.013115853)
(-0.02183523147 7.593752117e-15 1.314760423 0 -0.830683701 0 3.423763399 -1.487463034e-15 0.9001055356)
(0.0822367754 7.186454636e-15 1.388614861 2.17269842e-15 -0.8086625608 1.738158736e-14 3.497386924 1.677906682e-16 0.7778306071)
(0.1957831602 6.364201987e-15 1.462952474 0 -0.7854583457 0 3.567460674 2.000452787e-15 0.6452204626)
(0.3199136601 4.109974352e-15 1.537111825 2.148348002e-15 -0.7609791756 8.593392009e-15 3.633127551 2.364093826e-15 0.5010850705)
(0.4558332024 2.018307296e-15 1.61019324 0 -0.7351232666 0 3.693199489 2.676507192e-15 0.3441325407)
(0.604803104 3.584227111e-15 1.680994292 0 -0.7077792659 0 3.746071382 3.045791257e-15 0.1729966322)
(0.7680902785 2.877688025e-15 1.747979965 0 -0.6788279575 0 3.789632075 3.40030082e-15 -0.01371405044)
(0.9469030384 2.358774216e-15 1.809223888 0 -0.6481444248 0 3.821159797 2.70309784e-15 -0.2173272928)
(1.142261542 3.385138715e-15 1.862336953 0 -0.6156015984 0 3.837214908 2.604942779e-15 -0.4389971469)
(1.354823027 2.951742308e-15 1.904439758 0 -0.5810762472 0 3.833533415 2.597988209e-15 -0.6795347785)
(1.584674186 2.640411694e-15 1.932177851 0 -0.5444570763 0 3.804966792 1.609608807e-15 -0.9391730954)
(1.831046724 1.22740056e-15 1.941778182 1.063331788e-15 -0.5056552564 8.506654307e-15 3.745474359 1.026226344e-15 -1.217283999)
(2.091968855 -1.134010516e-16 1.929162824 0 -0.4646184739 0 3.648218611 1.337706703e-15 -1.512029854)
(2.363920489 7.686566651e-16 1.890199202 0 -0.4213480287 0 3.505835462 1.343649757e-15 -1.819989138)
(2.641540055 8.975662562e-16 1.821115569 0 -0.3759176699 0 3.310925625 1.306063869e-15 -2.135844911)
(2.917491867 6.886929645e-16 1.71898335 0 -0.3284925704 0 3.056837153 -1.880272776e-17 -2.452231866)
(3.182636643 1.314462484e-15 1.582226021 -5.396991112e-16 -0.2793445985 0 2.738726986 -1.599670086e-15 -2.759885524)
(3.426355596 1.647625189e-15 1.410972283 -1.084298325e-15 -0.2288594608 0 2.354876546 -8.591518321e-16 -3.048205486)
(3.637225327 1.145585759e-15 1.207228882 -5.448582524e-16 -0.1775378668 4.35886602e-15 1.908198217 -8.692392241e-16 -3.306219954)
(3.806693697 6.542797693e-16 0.9750231705 -8.21728312e-16 -0.1259820146 0 1.407112701 -2.805872467e-15 -3.524090227)
(3.932394137 3.094131164e-16 0.7183029742 -8.265366031e-16 -0.07480337229 0 0.863314935 -2.361757334e-15 -3.694655043)
(3.996704044 1.516691768e-16 0.2911786947 -6.930861447e-16 -0.02454049657 0 0.2896858662 -2.038038864e-15 -3.812700372)
(-0.9308590851 -1.376232952e-14 0.02276727908 1.467981816e-14 -1.547365983 0 0.1174473394 -5.399335641e-15 2.5470893)
(-1.235114592 -1.715153666e-14 0.03847554282 1.504984879e-14 -1.339956889 0 0.3023382588 -1.358038654e-14 2.54274569)
(-1.221856556 -4.033006818e-15 0.05916733664 1.85608943e-14 -1.276812898 0 0.4757561186 -2.84674875e-14 2.536004155)