/*--------------------------------*- C++ -*----------------------------------*\
  =========                 |
  \\      /  F ield         | OpenFOAM: The Open Source CFD Toolbox
   \\    /   O peration     | Website:  https://openfoam.org
    \\  /    A nd           | Version:  7
     \\/     M anipulation  |
\*---------------------------------------------------------------------------*/
FoamFile
{
    version     2.0;
    format      ascii;
    class       volScalarField;
    location    "0.0018";
    object      p;
}
// * * * * * * * * * * * * * * * * * * * * * * * * * * * * * * * * * * * * * //

dimensions      [1 -1 -2 0 0 0 0];

internalField   nonuniform List<scalar> 
1167
(
1434948.474
1441219.434
1431414.807
1437989.784
1436432.487
1436666.846
1437239.525
1437858.744
1438583.801
1439415.397
1440343.219
1441360.323
1442461.143
1443640.41
1444891.678
1446209.716
1447588.879
1449023.094
1450507.489
1452035.566
1453602.552
1455202.044
1456829.058
1458477.259
1460141.44
1461815.215
1463493.145
1465168.777
1466836.296
1468489.108
1470121.076
1471725.48
1473295.85
1474825.45
1476307.618
1477735.754
1479103.337
1480403.858
1481631.248
1482779.349
1483842.665
1484815.475
1485692.922
1486470.135
1487143.028
1487707.585
1488160.581
1488499.443
1488722.64
1488823.746
1488794.756
1488680.595
1427813.893
1434691.859
1433071.864
1433365.253
1434010.978
1434713.939
1435537.005
1436478.361
1437525.958
1438671.934
1439910.405
1441234.286
1442636.799
1444112.419
1445654.235
1447256.773
1448913.831
1450619.758
1452368.751
1454155.114
1455973.214
1457817.323
1459681.684
1461560.642
1463448.092
1465338.18
1467224.489
1469100.781
1470960.356
1472796.396
1474601.803
1476369.376
1478091.641
1479761.21
1481370.132
1482910.965
1484375.878
1485757.274
1487047.734
1488239.818
1489326.747
1490301.851
1491159.235
1491893.341
1492499.598
1492974.525
1493314.713
1493511.969
1493563.195
1493523.958
1424163.585
1431342.858
1429659.737
1430014.391
1430734.048
1431522.505
1432445.369
1433498.224
1434667.596
1435945.419
1437324.094
1438795.503
1440353.042
1441989.592
1443698.419
1445473.597
1447308.439
1449197.686
1451134.929
1453115.089
1455132.094
1457180.81
1459255.384
1461350.514
1463460.403
1465579.061
1467700.522
1469818.455
1471926.174
1474016.733
1476082.8
1478116.52
1480110.074
1482054.744
1483941.722
1485761.964
1487505.859
1489163.742
1490725.763
1492182.158
1493523.21
1494739.913
1495823.472
1496766.314
1497561.815
1498205.153
1498690.646
1499007.771
1499160.795
1499218.574
1420480.54
1427958.662
1426211.869
1426629.675
1427423.997
1428298.857
1429322.313
1430487.623
1431780.392
1433191.639
1434712.054
1436333.317
1438048.015
1439848.016
1441726.965
1443677.78
1445694.535
1447770.956
1449901.683
1452080.896
1454303.542
1456564.115
1458857.709
1461178.985
1463522.752
1465883.512
1468255.662
1470633.121
1473009.617
1475378.434
1477731.982
1480062.549
1482361.687
1484620.075
1486827.847
1488974.309
1491048.194
1493037.171
1494928.43
1496708.969
1498365.281
1499884.16
1501252.883
1502459.869
1503495.38
1504352.351
1505022.238
1505491.572
1505775.829
1505961.908
1416779.44
1424553.628
1422742.799
1423225.729
1424094.743
1425055.946
1426180.176
1427458.335
1428875.282
1430420.25
1432083.034
1433855.156
1435727.607
1437692.597
1439742.784
1441871.189
1444071.661
1446338.036
1448664.991
1451047.239
1453479.717
1455957.798
1458476.77
1461032.107
1463619.122
1466233.247
1468869.347
1471522.247
1474186.462
1476855.596
1479522.848
1482180.73
1484820.863
1487434.019
1490009.552
1492535.606
1494999.235
1497385.875
1499679.355
1501862.317
1503916.196
1505821.696
1507559.691
1509112.285
1510464.667
1511605.177
1512519.155
1513188.229
1513644.863
1514001.311
1413075.434
1421142.497
1419266.643
1419815.737
1420757.804
1421803.981
1423027.546
1424417.504
1425956.989
1427633.941
1429438.045
1431359.431
1433388.451
1435517.367
1437737.813
1440043.354
1442427.109
1444883.629
1447407.279
1449993.485
1452637.641
1455335.556
1458083.338
1460877.179
1463713.433
1466588.203
1469497.674
1472437.849
1475404.206
1478391.61
1481394.525
1484406.495
1487420.039
1490426.651
1493416.243
1496376.887
1499294.728
1502153.694
1504935.029
1507617.316
1510176.699
1512587.434
1514822.259
1516853.325
1518653.988
1520199.239
1521459.664
1522408.335
1523107.559
1523714.517
1409382.68
1417736.595
1415792.543
1416407.865
1417420.403
1418549.094
1419869.847
1421369.103
1423028.363
1424834.952
1426778.001
1428846.176
1431030.054
1433320.531
1435709.721
1438190.264
1440755.952
1443400.684
1446119.594
1448908.058
1451762.206
1454678.461
1457653.684
1460684.992
1463769.637
1466905.15
1470089.119
1473318.884
1476591.565
1479904.094
1483252.82
1486633.364
1490040.444
1493467.552
1496906.801
1500348.24
1503779.441
1507185.009
1510545.752
1513838.292
1517034.488
1520100.611
1522996.456
1525676.181
1528092.864
1530203.82
1531965.796
1533344.699
1534430.017
1535417.217
1405695.708
1414332.555
1412319.424
1413005.68
1414090.855
1415305.499
1416727.633
1418340.226
1420123.769
1422065.277
1424152.019
1426372.292
1428715.917
1431172.971
1433735.329
1436395.106
1439145.936
1441981.926
1444897.922
1447889.845
1450954.006
1454087.591
1457287.952
1460553.074
1463881.403
1467271.691
1470722.795
1474233.705
1477803.472
1481431.198
1485115.673
1488855.352
1492648.166
1496491.02
1500379.706
1504308.37
1508268.592
1512248.877
1516233.547
1520201.624
1524125.588
1527970.41
1531693.313
1535246.602
1538582.542
1541646.381
1544344.37
1546559.907
1548344.114
1549841.307
1402033.851
1410956.609
1408873.673
1409638.677
1410798.399
1412101.049
1413625.691
1415351.552
1417258.343
1419331.655
1421557.226
1423923.041
1426417.357
1429030.544
1431753.276
1434578.208
1437498.498
1440508.774
1443604.317
1446781.444
1450037.342
1453369.79
1456777.334
1460259.203
1463815.156
1467445.341
1471150.403
1474931.438
1478789.923
1482727.642
1486746.603
1490849.325
1495038.526
1499316.821
1503686.862
1508150.769
1512709.906
1517363.946
1522109.983
1526941.045
1531844.102
1536797.532
1541767.622
1546702.535
1551519.871
1556073.755
1560114.394
1563421.765
1566306.577
1569302.563
1398533.979
1407729.931
1405526.764
1406357.736
1407558.289
1408907.589
1410486.856
1412271.339
1414240.202
1416377.273
1418668.009
1421099.018
1423658.202
1426335.004
1429120.264
1432005.707
1434984.812
1438051.855
1441202.247
1444432.448
1447739.659
1451121.864
1454577.955
1458107.25
1461709.618
1465385.445
1469135.643
1472961.617
1476865.247
1480848.703
1484915.025
1489067.737
1493311.202
1497650.669
1502092.375
1506643.53
1511312.721
1516109.73
1521045.38
1526131.216
1531378.917
1536798.789
1542397.369
1548173.85
1554115.134
1560185.504
1566346.321
1572816.603
1580503.579
1588911.627
1395049.027
1404607.959
1402265.695
1403195.076
1404468.052
1405906.095
1407595.032
1409507.866
1411623.518
1413926.099
1416401.661
1419036.134
1421818.028
1424735.893
1427780.778
1430944.02
1434218.292
1437597.668
1441076.935
1444651.775
1448318.803
1452075.366
1455919.482
1459849.783
1463865.429
1467966.091
1472151.922
1476423.644
1480782.466
1485230.011
1489768.993
1494402.612
1499135.196
1503972.461
1508921.931
1513993.638
1519200.487
1524559.64
1530093.902
1535833.286
1541817.008
1548095.964
1554734.827
1561813.929
1569426.847
1577674.862
1586722.914
1597064.401
1609516.945
1622577.086
1391594.182
1401372.322
1398970.368
1399901.816
1401177.119
1402614.017
1404300.04
1406207.367
1408313.338
1410601.931
1413057.771
1415666.451
1418415.258
1421292.655
1424288.051
1427392.756
1430598.574
1433898.427
1437286.655
1440758.01
1444308.118
1447933.274
1451630.364
1455396.657
1459229.922
1463128.228
1467089.792
1471113.102
1475196.963
1479340.379
1483542.472
1487802.575
1492120.374
1496495.802
1500929.17
1505421.328
1509973.59
1514588.233
1519269.05
1524022.351
1528858.663
1533796.042
1538864.911
1544115.198
1549623.383
1555504.133
1561965.05
1569407.945
1578117.991
1586615.174
1388306.206
1398211.974
1395795.227
1396734.733
1398037.308
1399504.447
1401224.903
1403170.056
1405316.534
1407648.035
1410147.829
1412801.594
1415595.287
1418517.346
1421556.429
1424702.951
1427948.648
1431285.926
1434708.213
1438209.836
1441786.002
1445432.441
1449145.365
1452921.354
1456757.548
1460651.333
1464600.368
1468602.224
1472654.998
1476756.955
1480906.576
1485102.45
1489343.785
1493630.554
1497963.2
1502343.294
1506773.992
1511260.227
1515809.197
1520430.757
1525137.747
1529945.676
1534872.063
1539935.214
1545153.116
1550536.393
1556049.17
1561530.943
1566692.042
1571210.383
1385009.926
1395024.55
1392603.549
1393543.428
1394866.962
1396356.657
1398102.435
1400075.787
1402253.208
1404617.447
1407151.431
1409840.145
1412669.195
1415625.726
1418698.383
1421876.443
1425150.637
1428512.829
1431955.48
1435471.979
1439056.4
1442703.462
1446408.303
1450166.56
1453974.069
1457826.895
1461721.616
1465654.85
1469623.307
1473624.174
1477654.793
1481712.813
1485796.457
1489904.72
1494037.389
1498195.53
1502381.873
1506601.265
1510861.333
1515172.898
1519550.61
1524012.25
1528576.813
1533259.568
1538063.088
1542956.614
1547824.679
1552407.503
1556372.317
1559559.657
1381686.451
1391791.807
1389371.455
1390303.957
1391640.99
1393144.342
1394904.444
1396893.715
1399088.458
1401470.198
1404022.259
1406728.24
1409573.984
1412545.512
1415630.878
1418819.088
1422099.975
1425464.449
1428904.392
1432412.546
1435982.205
1439607.193
1443281.922
1447001.401
1450760.816
1454555.653
1458381.658
1462235.336
1466112.934
1470011.456
1473928.1
1477860.811
1481807.949
1485768.703
1489743.281
1493733.127
1497741.143
1501772.1
1505832.832
1509932.441
1514081.856
1518292.373
1522571.455
1526914.84
1531293.631
1535634.383
1539793.736
1543563.36
1546767.296
1549354.188
1378344.29
1388526.349
1386110.388
1387031.576
1388378.445
1389890.825
1391659.873
1393659.292
1395864.434
1398256.396
1400818.259
1403533.042
1406385.852
1409362.772
1412450.646
1415638.079
1418914.426
1422269.959
1425695.897
1429184.255
1432727.78
1436319.791
1439954.221
1443625.315
1447327.973
1451057.611
1454809.571
1458580.137
1462365.654
1466163.082
1469969.838
1473784.068
1477604.431
1481430.377
1485262.505
1489102.56
1492953.8
1496821.191
1500711.389
1504632.736
1508593.71
1512599.935
1516647.431
1520712.619
1524740.706
1528634.841
1532253.342
1535445.666
1538150.768
1540387.36
1374974.273
1385223.508
1382814.381
1383721.13
1385073.715
1386590.211
1388362.653
1390366.056
1392574.503
1394969.517
1397532.92
1400248.238
1403099.336
1406072.177
1409153.392
1412330.667
1415592.793
1418929.726
1422332.216
1425791.777
1429300.6
1432851.722
1436438.789
1440055.894
1443697.558
1447359.094
1451036.198
1454724.989
1458422.058
1462124.561
1465830.275
1469537.521
1473245.234
1476953.187
1480662.131
1484373.922
1488091.707
1491819.913
1495564.467
1499331.755
1503126.587
1506947.441
1510778.785
1514581.659
1518287.742
1521799.242
1524998.033
1527787.26
1530175.263
1532204.273
1371568.436
1381875.817
1379475.153
1380364.251
1381718.124
1383233.752
1385004.119
1387004.901
1389209.742
1391600.141
1394157.3
1396864.562
1399705.753
1402665.79
1405731.373
1408889.799
1412129.5
1415439.916
1418811.453
1422235.363
1425703.645
1429209.108
1432745.041
1436305.707
1439885.749
1443480.222
1447085.209
1450696.865
1454312.01
1457928.061
1461543.018
1465155.313
1468764.061
1472369.231
1475971.577
1479572.908
1483176.058
1486785.004
1490404.502
1494038.493
1497687.367
1501341.876
1504975.585
1508538.809
1511959.344
1515149.756
1518019.95
1520515.284
1522685.521
1524576.846
1368119.934
1378476.447
1376085.329
1376953.662
1378304.876
1379815.306
1381578.464
1383570.64
1385765.863
1388144.643
1390688.862
1393380.763
1396204.52
1399144.892
1402187.799
1405320.472
1408531.26
1411809.308
1415144.801
1418528.731
1421953.064
1425410.56
1428894.586
1432399.075
1435919.055
1439449.696
1442987.09
1446527.554
1450068.171
1453606.511
1457140.656
1460669.115
1464191.141
1467706.686
1471216.466
1474722.117
1478226.057
1481731.618
1485241.988
1488758.364
1492276.137
1495778.645
1499230.787
1502577.453
1505749.704
1508675.086
1511288.667
1513565.547
1515578.855
1517370.748
1364620.185
1375017.069
1372636.302
1373481.287
1374826.263
1376327.793
1378078.899
1380057.401
1382237.42
1384598.888
1387123.993
1389794.846
1392595.069
1395509.727
1398524.609
1401626.684
1404804.043
1408045.826
1411342.141
1414683.927
1418063.121
1421472.277
1424905.053
1428355.526
1431818.45
1435289.475
1438764.604
1442240.258
1445713.724
1449182.653
1452645.106
1456099.703
1459545.734
1462983.059
1466412.322
1469834.862
1473252.664
1476668.071
1480082.511
1483494.05
1486892.931
1490255.829
1493541.715
1496694.629
1499653.127
1502360.468
1504772.03
1506883.037
1508779.099
1510495.208
1361059.287
1371488.273
1369118.807
1369938.197
1371273.953
1372763.003
1374497.853
1376458.501
1378618.35
1380957.978
1383458.844
1386103.771
1388876.17
1391760.728
1394743.514
1397811.487
1400952.636
1404156.072
1407411.835
1410710.85
1414045.165
1417407.423
1420790.982
1424190.33
1427600.18
1431016.285
1434434.593
1437851.786
1441265.137
1444672.319
1448071.392
1451461.047
1454840.521
1458209.614
1461568.812
1464919.117
1468261.958
1471598.478
1474928.115
1478245.586
1481536.179
1484771.097
1487906.119
1490887.699
1493663.811
1496191.956
1498443.011
1500425.534
1502231.361
1503887.519
1357427.042
1367880.309
1365523.054
1366315.071
1367639.023
1369112.393
1370827.709
1372766.856
1374902.793
1377216.68
1379689.831
1382305.055
1385046.229
1387898.055
1390846.409
1393878.34
1396981.926
1400146.316
1403361.541
1406618.643
1409909.43
1413226.797
1416564.242
1419915.923
1423276.989
1426642.963
1430009.867
1433374.597
1436734.352
1440086.758
1443429.95
1446762.635
1450083.957
1453393.654
1456691.963
1459979.546
1463257.122
1466524.516
1469778.961
1473011.744
1476203.662
1479321.839
1482321.275
1485152.893
1487774.343
1490155.16
1492277.705
1494159.23
1495894.216
1497501.884
1353712.726
1364182.979
1361838.953
1362602.239
1363911.921
1365367.201
1367060.679
1368975.347
1371084.883
1373370.044
1375813.089
1378396.509
1381104.377
1383921.756
1386834.594
1389829.97
1392896.035
1396021.937
1399197.709
1402414.533
1405664.216
1408939.474
1412233.975
1415541.945
1418858.484
1422179.012
1425499.797
1428817.64
1432129.763
1435433.775
1438727.873
1442010.726
1445281.432
1448539.618
1451785.242
1455018.531
1458239.393
1461446.241
1464633.969
1467790.491
1470892.821
1473905.386
1476784.132
1479485.654
1481976.611
1484236.265
1486255.295
1488056.659
1489735.449
1491303.538
1450036.717
1453208.502
1456362.494
1459491.161
1462579.249
1465600.676
1468518.581
1471291.037
1473880.618
1476261.983
1478422.045
1480357.498
1482095.004
1483729.137
1485264.988
)
;

boundaryField
{
    front_top
    {
        type            wedge;
    }
    front_middle
    {
        type            wedge;
    }
    front_bottom
    {
        type            wedge;
    }
    back_top
    {
        type            wedge;
    }
    back_middle
    {
        type            wedge;
    }
    back_bottom
    {
        type            wedge;
    }
    axis_top
    {
        type            symmetryPlane;
    }
    axis_middle
    {
        type            symmetryPlane;
    }
    axis_bottom
    {
        type            symmetryPlane;
    }
    wall_top
    {
        type            fixedFluxPressure;
        gradient        uniform 0;
        value           nonuniform List<scalar> 10(1488680.595 1493523.958 1499218.574 1505961.908 1514001.311 1523714.517 1535417.217 1549841.307 1569302.563 1588911.627);
    }
    wall_middle
    {
        type            fixedFluxPressure;
        gradient        uniform 0;
        value           nonuniform List<scalar> 
14
(
1622577.086
1586615.174
1571210.383
1559559.657
1549354.188
1540387.36
1532204.273
1524576.846
1517370.748
1510495.208
1503887.519
1497501.884
1491303.538
1485264.988
)
;
    }
    wall_bottom
    {
        type            fixedFluxPressure;
        gradient        nonuniform 0();
        value           nonuniform 0();
    }
    inlet
    {
        type            zeroGradient;
    }
    outlet
    {
        type            fixedValue;
        value           nonuniform 0();
    }
    procBoundary5to4
    {
        type            processor;
        value           nonuniform List<scalar> 
51
(
1349905.282
1360385.95
1358056.226
1358789.617
1360083.167
1361518.847
1363188.673
1365077.023
1367158.438
1369413.409
1371824.691
1374375.378
1377049.462
1379832.077
1382709.471
1385668.836
1388698.379
1391787.278
1394925.65
1398104.52
1401315.741
1404552.204
1407807.277
1411075.478
1414351.629
1417631.332
1420910.902
1424187.082
1427457.055
1430718.517
1433969.702
1437209.21
1440436.115
1443649.869
1446850.174
1446850.174
1445033.544
1448163.155
1451271.186
1454347.816
1457374.91
1460323.938
1463157.822
1465837.62
1468331.71
1470621.557
1472700.033
1474568.121
1476254.863
1477853.787
1479363.723
)
;
    }
    procBoundary5to6
    {
        type            processor;
        value           nonuniform List<scalar> 
51
(
1438396.399
1444363.111
1439724.456
1439724.456
1439902.447
1440403.638
1440941.132
1441571.095
1442295.621
1443106.626
1443998.375
1444965.503
1446003.941
1447108.544
1448273.611
1449495.065
1450766.835
1452084.088
1453441.271
1454832.924
1456253.722
1457697.812
1459159.939
1460634.014
1462114.622
1463595.599
1465071.35
1466535.661
1467982.655
1469406.153
1470800.074
1472158.408
1473474.947
1474743.925
1475959.432
1477116.04
1478208.319
1479231.273
1480180.155
1481050.595
1481838.551
1482540.209
1483152.286
1483671.673
1484095.823
1484422.261
1484649.593
1484777.191
1484800.586
1484707.602
1484535.226
)
;
    }
}


// ************************************************************************* //
