/*--------------------------------*- C++ -*----------------------------------*\
  =========                 |
  \\      /  F ield         | OpenFOAM: The Open Source CFD Toolbox
   \\    /   O peration     | Website:  https://openfoam.org
    \\  /    A nd           | Version:  7
     \\/     M anipulation  |
\*---------------------------------------------------------------------------*/
FoamFile
{
    version     2.0;
    format      ascii;
    class       surfaceScalarField;
    location    "0.0018";
    object      phi;
}
// * * * * * * * * * * * * * * * * * * * * * * * * * * * * * * * * * * * * * //

dimensions      [1 0 -1 0 0 0 0];

internalField   nonuniform List<scalar> 
2259
(
-5.076878514e-13
4.898425781e-11
1.433117114e-10
-5.79596509e-13
4.956385431e-11
-2.272216795e-12
1.450043317e-10
-5.009286164e-12
2.350770481e-10
-8.718937141e-12
3.199566439e-10
-1.332831358e-11
3.998277544e-10
-1.876350872e-11
4.748680901e-10
-2.494956073e-11
5.452476713e-10
-3.181053985e-11
6.111307189e-10
-3.92696881e-11
6.726757907e-10
-4.724952584e-11
7.300361325e-10
-5.567181945e-11
7.833602591e-10
-6.445763224e-11
8.327923635e-10
-7.352764722e-11
8.784732438e-10
-8.28020012e-11
9.205406301e-10
-9.220054065e-11
9.591295336e-10
-1.016430465e-10
9.943730852e-10
-1.110490178e-10
1.026402246e-09
-1.203383127e-10
1.055346728e-09
-1.294306784e-10
1.081334535e-09
-1.382464971e-10
1.104492709e-09
-1.467063254e-10
1.124946906e-09
-1.547316142e-10
1.142821975e-09
-1.622443306e-10
1.158241524e-09
-1.691676784e-10
1.171328497e-09
-1.754258351e-10
1.182204709e-09
-1.809447261e-10
1.190991439e-09
-1.856519888e-10
1.197809073e-09
-1.894778136e-10
1.202777606e-09
-1.923552107e-10
1.206016461e-09
-1.942210128e-10
1.207644869e-09
-1.950165551e-10
1.207781874e-09
-1.946888426e-10
1.206546493e-09
-1.931916609e-10
1.20405768e-09
-1.904869275e-10
1.200434308e-09
-1.865460751e-10
1.195794889e-09
-1.813516284e-10
1.190257332e-09
-1.748983997e-10
1.183938054e-09
-1.671950413e-10
1.176951554e-09
-1.582646898e-10
1.169408944e-09
-1.481460728e-10
1.161417444e-09
-1.368932168e-10
1.15307858e-09
-1.245755346e-10
1.144487638e-09
-1.112765857e-10
1.135732238e-09
-9.709306064e-11
1.12689203e-09
-8.21327518e-11
1.118037881e-09
-6.651298814e-11
1.109232189e-09
-5.035829252e-11
1.100528753e-09
-3.379890715e-11
1.091973812e-09
-1.696799974e-11
1.083604805e-09
1.075450231e-09
-6.581153727e-13
5.022196969e-11
-2.580173011e-12
1.469263893e-10
-5.688428847e-12
2.38185304e-10
-9.901657481e-12
3.241698725e-10
-1.51377207e-11
4.050638176e-10
-2.13135141e-11
4.810438835e-10
-2.834497106e-11
5.522791283e-10
-3.614729654e-11
6.189330444e-10
-4.463510868e-11
6.811636029e-10
-5.372252505e-11
7.391235489e-10
-6.332307359e-11
7.929608076e-10
-7.335000097e-11
8.428192909e-10
-8.371630242e-11
8.888395452e-10
-9.43345916e-11
9.311589192e-10
-1.051175729e-10
9.699125149e-10
-1.159777008e-10
1.005233213e-09
-1.268275616e-10
1.037252106e-09
-1.375797141e-10
1.06609888e-09
-1.481468402e-10
1.091901661e-09
-1.584417265e-10
1.114787596e-09
-1.683772698e-10
1.134882449e-09
-1.778665075e-10
1.152311213e-09
-1.868226273e-10
1.167197643e-09
-1.95158916e-10
1.179664786e-09
-2.027889702e-10
1.189834763e-09
-2.096266269e-10
1.197829096e-09
-2.155863361e-10
1.203768782e-09
-2.205832716e-10
1.207774542e-09
-2.24533891e-10
1.20996708e-09
-2.273565027e-10
1.21046748e-09
-2.289721071e-10
1.209397479e-09
-2.293054463e-10
1.206879833e-09
-2.282864538e-10
1.203038688e-09
-2.258517151e-10
1.197999569e-09
-2.219468285e-10
1.191890002e-09
-2.165281474e-10
1.184838651e-09
-2.095656216e-10
1.176975528e-09
-2.010450557e-10
1.168430988e-09
-1.909705831e-10
1.159334471e-09
-1.793669699e-10
1.14981383e-09
-1.662808958e-10
1.139992506e-09
-1.517821855e-10
1.129988928e-09
-1.359634186e-10
1.119913471e-09
-1.189391266e-10
1.109867738e-09
-1.008435214e-10
1.099942275e-09
-8.182784625e-11
1.090216514e-09
-6.205717187e-11
1.080758078e-09
-4.170706938e-11
1.071623709e-09
-2.095970022e-11
1.062857436e-09
1.05449053e-09
-7.431393797e-13
5.096510907e-11
-2.913641215e-12
1.490968912e-10
-6.423774595e-12
2.416954374e-10
-1.118213566e-11
3.289282336e-10
-1.709650981e-11
4.109781918e-10
-2.407378276e-11
4.880211565e-10
-3.202009131e-11
5.602254368e-10
-4.084113899e-11
6.277540921e-10
-5.044235478e-11
6.907648187e-10
-6.07288963e-11
7.494100904e-10
-7.160582993e-11
8.038377412e-10
-8.297834988e-11
8.541918109e-10
-9.475157921e-11
9.006127745e-10
-1.068308787e-10
9.432382187e-10
-1.191218273e-10
9.822034636e-10
-1.315300952e-10
1.017641481e-09
-1.439617758e-10
1.049683787e-09
-1.563228989e-10
1.078460003e-09
-1.685198877e-10
1.10409865e-09
-1.804589359e-10
1.126726644e-09
-1.920463773e-10
1.14646989e-09
-2.031880833e-10
1.163452919e-09
-2.137896419e-10
1.177799202e-09
-2.237558647e-10
1.189631009e-09
-2.329907829e-10
1.199069681e-09
-2.413974346e-10
1.206235748e-09
-2.488776656e-10
1.211249013e-09
-2.553321016e-10
1.214228978e-09
-2.606602929e-10
1.215295271e-09
-2.647608578e-10
1.214568045e-09
-2.675320406e-10
1.212168662e-09
-2.688726132e-10
1.208220405e-09
-2.686827509e-10
1.202848826e-09
-2.668661945e-10
1.196183013e-09
-2.633321315e-10
1.188355939e-09
-2.579980834e-10
1.179504603e-09
-2.507935753e-10
1.16977102e-09
-2.416639084e-10
1.159301321e-09
-2.30574849e-10
1.148245412e-09
-2.175171337e-10
1.136756115e-09
-2.025111666e-10
1.124986539e-09
-1.856105771e-10
1.113088338e-09
-1.669052675e-10
1.101208161e-09
-1.465217728e-10
1.089484243e-09
-1.246223322e-10
1.078042835e-09
-1.014012019e-10
1.066995384e-09
-7.707993337e-11
1.05643681e-09
-5.190090131e-11
1.046444677e-09
-2.612007338e-11
1.037076608e-09
1.028370457e-09
-8.344305309e-13
5.17995396e-11
-3.271679673e-12
1.515341403e-10
-7.21320443e-12
2.456369621e-10
-1.255658292e-11
3.342716121e-10
-1.919867209e-11
4.17620281e-10
-2.703554461e-11
4.95858029e-10
-3.596279644e-11
5.691526886e-10
-4.587591502e-11
6.376672106e-10
-5.667046233e-11
7.015593661e-10
-6.824218438e-11
7.609818124e-10
-8.048736719e-11
8.16082924e-10
-9.330278403e-11
8.670072277e-10
-1.065857224e-10
9.138957129e-10
-1.202343486e-10
9.568868448e-10
-1.341473045e-10
9.961164195e-10
-1.482241135e-10
1.03171829e-09
-1.623647779e-10
1.063824451e-09
-1.764699825e-10
1.092565208e-09
-1.904406451e-10
1.118069312e-09
-2.041780075e-10
1.140464007e-09
-2.175830857e-10
1.159874969e-09
-2.305566021e-10
1.176426435e-09
-2.429983505e-10
1.19024095e-09
-2.548069454e-10
1.201439604e-09
-2.658792216e-10
1.210141957e-09
-2.761097613e-10
1.216466287e-09
-2.853902475e-10
1.220529499e-09
-2.936091102e-10
1.22244784e-09
-3.006508186e-10
1.22233698e-09
-3.063955781e-10
1.220312805e-09
-3.107193343e-10
1.216492418e-09
-3.134934726e-10
1.210994544e-09
-3.145855438e-10
1.203940897e-09
-3.138603203e-10
1.195457789e-09
-3.111813779e-10
1.185676997e-09
-3.064140398e-10
1.174737265e-09
-2.994289914e-10
1.162785972e-09
-2.901076634e-10
1.149979993e-09
-2.783487503e-10
1.136486499e-09
-2.640760174e-10
1.122483382e-09
-2.472476232e-10
1.108158144e-09
-2.278655856e-10
1.093706301e-09
-2.059849682e-10
1.079327544e-09
-1.817208598e-10
1.065220135e-09
-1.552522999e-10
1.051574275e-09
-1.268208232e-10
1.038563907e-09
-9.672420806e-11
1.026340195e-09
-6.530494001e-11
1.015025409e-09
-3.293459903e-11
1.004706267e-09
9.954358579e-10
-9.316104658e-13
5.273115006e-11
-3.652790716e-12
1.542553206e-10
-8.05337101e-12
2.500375424e-10
-1.401903883e-11
3.402372799e-10
-2.143486958e-11
4.250361117e-10
-3.018528385e-11
5.046084433e-10
-4.015448074e-11
5.791218855e-10
-5.122694885e-11
6.487396787e-10
-6.328767199e-11
7.136200892e-10
-7.622251369e-11
7.739166541e-10
-8.991846238e-11
8.297788727e-10
-1.042635299e-10
8.813522952e-10
-1.191471954e-10
9.287793785e-10
-1.344602296e-10
9.72199879e-10
-1.500948071e-10
1.011750997e-09
-1.659445234e-10
1.047568007e-09
-1.819041705e-10
1.079784098e-09
-1.978697718e-10
1.108530809e-09
-2.137381778e-10
1.133937718e-09
-2.294068837e-10
1.156132713e-09
-2.447736394e-10
1.175241724e-09
-2.597359142e-10
1.19138871e-09
-2.741904007e-10
1.204695437e-09
-2.880323267e-10
1.21528153e-09
-3.011546851e-10
1.223264316e-09
-3.134472525e-10
1.228758855e-09
-3.247958481e-10
1.231878095e-09
-3.350809641e-10
1.232732956e-09
-3.441766539e-10
1.23143267e-09
-3.519495507e-10
1.228085701e-09
-3.582573678e-10
1.222800235e-09
-3.629478317e-10
1.215685008e-09
-3.658578602e-10
1.206850925e-09
-3.668128459e-10
1.196412775e-09
-3.656269634e-10
1.184491114e-09
-3.621041872e-10
1.171214489e-09
-3.560406795e-10
1.156722464e-09
-3.472293822e-10
1.141168696e-09
-3.354670207e-10
1.124724137e-09
-3.205641207e-10
1.107580482e-09
-3.023590578e-10
1.089953081e-09
-2.807356236e-10
1.072082867e-09
-2.556434608e-10
1.054235381e-09
-2.271200594e-10
1.036696734e-09
-1.953099895e-10
1.019764205e-09
-1.604775892e-10
1.003731507e-09
-1.230081472e-10
9.888707527e-10
-8.339143087e-11
9.754086926e-10
-4.218805447e-11
9.635028905e-10
9.532478034e-10
-1.034163085e-12
5.376531315e-11
-4.054934111e-12
1.572760916e-10
-8.939758066e-12
2.549223664e-10
-1.556152873e-11
3.468590506e-10
-2.379267178e-11
4.332672548e-10
-3.350501153e-11
5.14320783e-10
-4.457046359e-11
5.901873376e-10
-5.686160955e-11
6.610308247e-10
-7.025218097e-11
7.270106607e-10
-8.461750517e-11
7.882819783e-10
-9.983458876e-11
8.449959562e-10
-1.157824319e-10
8.973001383e-10
-1.323423294e-10
9.453392759e-10
-1.493975975e-10
9.892551471e-10
-1.668340918e-10
1.029187491e-09
-1.845396765e-10
1.065273591e-09
-2.024045791e-10
1.097649001e-09
-2.203208281e-10
1.126447058e-09
-2.381823253e-10
1.151799215e-09
-2.558842185e-10
1.173834606e-09
-2.733226281e-10
1.192680134e-09
-2.903940215e-10
1.208460103e-09
-3.069945723e-10
1.221295988e-09
-3.230192929e-10
1.23130625e-09
-3.383610661e-10
1.238606089e-09
-3.529096091e-10
1.243307398e-09
-3.665499347e-10
1.245518421e-09
-3.791608713e-10
1.245343893e-09
-3.906133505e-10
1.242885149e-09
-4.007683075e-10
1.238240658e-09
-4.094742001e-10
1.231506127e-09
-4.165646018e-10
1.222775409e-09
-4.218553669e-10
1.212141691e-09
-4.251416235e-10
1.199699032e-09
-4.261950306e-10
1.185544521e-09
-4.247613468e-10
1.169780805e-09
-4.205588396e-10
1.152519957e-09
-4.132783742e-10
1.13388823e-09
-4.025865137e-10
1.114032277e-09
-3.881327843e-10
1.093126752e-09
-3.695633357e-10
1.071383633e-09
-3.465429285e-10
1.049062459e-09
-3.187875009e-10
1.026479953e-09
-2.861078328e-10
1.004017065e-09
-2.484628514e-10
9.821192239e-10
-2.060170686e-10
9.612857237e-10
-1.591857147e-10
9.420393988e-10
-1.086393779e-10
9.248623558e-10
-5.524886456e-11
9.101123771e-10
8.979989389e-10
-1.141426027e-12
5.490673918e-11
-4.475549015e-12
1.606102146e-10
-9.86679224e-12
2.603136096e-10
-1.71742751e-11
3.541665334e-10
-2.62568515e-11
4.423498312e-10
-3.697279626e-11
5.250367278e-10
-4.918074264e-11
6.023952839e-10
-6.274050138e-11
6.745905834e-10
-7.751373287e-11
7.417838922e-10
-9.336434149e-11
8.041325869e-10
-1.101587162e-10
8.617903309e-10
-1.277663519e-10
9.14907774e-10
-1.460597133e-10
9.636326373e-10
-1.649146341e-10
1.008110068e-09
-1.842102011e-10
1.048483058e-09
-2.038288826e-10
1.084892273e-09
-2.236562554e-10
1.117476374e-09
-2.435810562e-10
1.146371859e-09
-2.634947041e-10
1.171712863e-09
-2.832910584e-10
1.19363096e-09
-3.028658897e-10
1.212254965e-09
-3.221163441e-10
1.227710558e-09
-3.409401636e-10
1.240119807e-09
-3.59234923e-10
1.24960101e-09
-3.768969349e-10
1.256268101e-09
-3.938199055e-10
1.260230368e-09
-4.098935024e-10
1.261592018e-09
-4.250016202e-10
1.26045201e-09
-4.39020167e-10
1.256903695e-09
-4.518143351e-10
1.251034827e-09
-4.632355813e-10
1.242927373e-09
-4.731178703e-10
1.232657698e-09
-4.812730855e-10
1.220296906e-09
-4.874857526e-10
1.205911699e-09
-4.915066576e-10
1.189565426e-09
-4.930457964e-10
1.171319944e-09
-4.917644465e-10
1.151238607e-09
-4.87266884e-10
1.129390668e-09
-4.790929753e-10
1.105858368e-09
-4.667128931e-10
1.08074667e-09
-4.495272248e-10
1.054197964e-09
-4.268771076e-10
1.026412342e-09
-3.980718971e-10
9.97674743e-10
-3.624438664e-10
9.683890347e-10
-3.194407435e-10
9.39116101e-10
-2.687609394e-10
9.106059196e-10
-2.105164267e-10
8.837948861e-10
-1.453738442e-10
8.597197732e-10
-7.461156638e-11
8.393500993e-10
8.233873725e-10
-1.252655701e-12
5.615939488e-11
-4.9117202e-12
1.642692791e-10
-1.082816952e-11
2.662300589e-10
-1.884620052e-11
3.621845644e-10
-2.881016877e-11
4.523137994e-10
-4.056381487e-11
5.367903739e-10
-5.395147647e-11
6.157829455e-10
-6.88192573e-11
6.894583642e-10
-8.501572324e-11
7.579803582e-10
-1.023923414e-10
8.215092051e-10
-1.208041966e-10
8.802021861e-10
-1.401103057e-10
9.342138831e-10
-1.601737717e-10
9.836961033e-10
-1.80862237e-10
1.028798533e-09
-2.020476712e-10
1.069668492e-09
-2.236066757e-10
1.106451278e-09
-2.454201528e-10
1.139289851e-09
-2.673732761e-10
1.168324982e-09
-2.893552226e-10
1.19369481e-09
-3.112587675e-10
1.215534505e-09
-3.329798779e-10
1.233976075e-09
-3.544170403e-10
1.24914772e-09
-3.754708253e-10
1.261173592e-09
-3.960428152e-10
1.270173e-09
-4.160346546e-10
1.27625994e-09
-4.353469191e-10
1.279542633e-09
-4.538777009e-10
1.2801228e-09
-4.715207951e-10
1.278095105e-09
-4.881635529e-10
1.273546453e-09
-5.03684194e-10
1.266555468e-09
-5.179486142e-10
1.257191793e-09
-5.308061326e-10
1.245515217e-09
-5.420842187e-10
1.231574992e-09
-5.515819358e-10
1.215409416e-09
-5.590612644e-10
1.197044755e-09
-5.642361875e-10
1.176494867e-09
-5.667589714e-10
1.153761391e-09
-5.662025765e-10
1.128834272e-09
-5.620391912e-10
1.101694983e-09
-5.536145003e-10
1.072321979e-09
-5.40119252e-10
1.040702716e-09
-5.205613597e-10
1.00685445e-09
-4.93747037e-10
9.708604202e-10
-4.582849814e-10
9.329269791e-10
-4.126368545e-10
8.934679742e-10
-3.552545725e-10
8.532236376e-10
-2.848746808e-10
8.134149945e-10
-2.010454663e-10
7.758905587e-10
-1.048790544e-10
7.431836874e-10
7.185083181e-10
-1.367035707e-12
5.752643058e-11
-5.360146134e-12
1.682623895e-10
-1.181678106e-11
2.726866938e-10
-2.056459049e-11
3.709323739e-10
-3.143255957e-11
4.631817685e-10
-4.42488351e-11
5.496066494e-10
-5.884234296e-11
6.303764534e-10
-7.504427398e-11
7.056602952e-10
-9.268882313e-11
7.756249074e-10
-1.116139821e-10
8.404343641e-10
-1.316623985e-10
9.002506025e-10
-1.526815002e-10
9.552329848e-10
-1.745242416e-10
1.005538845e-09
-1.970489842e-10
1.051323276e-09
-2.201199762e-10
1.092739484e-09
-2.436070672e-10
1.129938369e-09
-2.673858775e-10
1.163068661e-09
-2.913374462e-10
1.192276551e-09
-3.153481164e-10
1.21770548e-09
-3.39309071e-10
1.23949546e-09
-3.631159673e-10
1.257782972e-09
-3.866684425e-10
1.272700195e-09
-4.098693339e-10
1.284374484e-09
-4.326239762e-10
1.292927642e-09
-4.548394002e-10
1.298475364e-09
-4.76423277e-10
1.30112651e-09
-4.972826325e-10
1.300982155e-09
-5.173223565e-10
1.298134829e-09
-5.364434295e-10
1.292667526e-09
-5.545407102e-10
1.284652748e-09
-5.71500213e-10
1.274151296e-09
-5.871954079e-10
1.261210412e-09
-6.014827244e-10
1.245862309e-09
-6.14195587e-10
1.228122278e-09
-6.251360909e-10
1.207985258e-09
-6.340643406e-10
1.185423117e-09
-6.406830165e-10
1.160380067e-09
-6.446165047e-10
1.13276776e-09
-6.453813867e-10
1.102459865e-09
-6.423451451e-10
1.069285738e-09
-6.346681292e-10
1.0330257e-09
-6.212227937e-10
9.934091142e-10
-6.004827686e-10
9.501203952e-10
-5.703765067e-10
9.028207171e-10
-5.281134499e-10
8.512049175e-10
-4.700424959e-10
7.951526836e-10
-3.917147959e-10
7.350872944e-10
-2.884832652e-10
6.726590281e-10
-1.573076826e-10
6.120081048e-10
5.612006355e-10
-1.483122061e-12
5.900955265e-11
-5.816807276e-12
1.725960747e-10
-1.282360554e-11
2.796934921e-10
-2.231341384e-11
3.804221822e-10
-3.409901476e-11
4.749673694e-10
-4.799188643e-11
5.634995211e-10
-6.380433941e-11
6.461889064e-10
-8.135139445e-11
7.232073502e-10
-1.004517119e-10
7.947252249e-10
-1.209288296e-10
8.609114817e-10
-1.426117129e-10
9.219334858e-10
-1.653354444e-10
9.779567163e-10
-1.889416839e-10
1.029145084e-09
-2.132789084e-10
1.0756605e-09
-2.382025023e-10
1.117663078e-09
-2.635749233e-10
1.15531079e-09
-2.892654693e-10
1.188759207e-09
-3.151501066e-10
1.218161188e-09
-3.411111846e-10
1.243666558e-09
-3.670370739e-10
1.265421349e-09
-3.928216522e-10
1.28356755e-09
-4.183637323e-10
1.298242275e-09
-4.435663834e-10
1.309577135e-09
-4.683363179e-10
1.317697576e-09
-4.925829769e-10
1.322722023e-09
-5.162175817e-10
1.324761115e-09
-5.391520207e-10
1.323916595e-09
-5.612976053e-10
1.320280413e-09
-5.825635224e-10
1.313933443e-09
-6.028552625e-10
1.304944488e-09
-6.220720472e-10
1.293368081e-09
-6.401044041e-10
1.279242769e-09
-6.568307149e-10
1.26258862e-09
-6.721125197e-10
1.243404083e-09
-6.857886079e-10
1.221661346e-09
-6.976668095e-10
1.197301319e-09
-7.075120937e-10
1.170225351e-09
-7.15029979e-10
1.140285646e-09
-7.19841231e-10
1.107271117e-09
-7.214437854e-10
1.070888292e-09
-7.191534411e-10
1.030735356e-09
-7.120103867e-10
9.862660599e-10
-6.986303389e-10
9.367403473e-10
-6.769694496e-10
8.811598278e-10
-6.439568006e-10
8.181922686e-10
-5.949119794e-10
7.461078624e-10
-5.225651625e-10
6.627404775e-10
-4.152457911e-10
5.653396567e-10
-2.527218198e-10
4.494841334e-10
3.084788157e-10
-7.454203398e-14
5.908409468e-11
-2.945234448e-13
1.728160561e-10
-6.340626365e-13
2.800330313e-10
-1.068071495e-12
3.80856191e-10
-1.564026302e-12
4.754633242e-10
-2.088150931e-12
5.640236458e-10
-2.605993962e-12
6.467067494e-10
-3.083592275e-12
7.236849483e-10
-3.488851982e-12
7.951304845e-10
-3.792591825e-12
8.612152216e-10
-3.968960928e-12
9.221098549e-10
-3.996373799e-12
9.779841291e-10
-3.857437314e-12
1.029006148e-09
-3.539608751e-12
1.075342672e-09
-3.034792525e-12
1.117158262e-09
-2.339642139e-12
1.15461564e-09
-1.455326503e-12
1.187874892e-09
-3.872783828e-13
1.21709314e-09
8.549681118e-13
1.242424311e-09
2.257995869e-12
1.264018321e-09
3.804772234e-12
1.282020773e-09
5.474899068e-12
1.296572148e-09
7.244757333e-12
1.307807276e-09
9.087765012e-12
1.315854569e-09
1.09743768e-11
1.320835411e-09
1.287228912e-11
1.322863202e-09
1.474627871e-11
1.322042605e-09
1.655820176e-11
1.31846849e-09
1.826692081e-11
1.312224724e-09
1.982783837e-11
1.30338357e-09
2.119277167e-11
1.292003147e-09
2.230901357e-11
1.278126526e-09
2.311878759e-11
1.261778846e-09
2.355803686e-11
1.242964834e-09
2.355481689e-11
1.221664566e-09
2.302731473e-11
1.197828821e-09
2.188037882e-11
1.171372287e-09
2.000167507e-11
1.142164349e-09
1.725639725e-11
1.110016395e-09
1.348075031e-11
1.074663939e-09
8.475280328e-12
1.035740826e-09
2.000908485e-12
9.927404315e-10
-6.216339138e-12
9.449575949e-10
-1.645454074e-11
8.913980294e-10
-2.889376154e-11
8.306314894e-10
-4.332045292e-11
7.605345538e-10
-5.837573194e-11
6.777957566e-10
-6.980392244e-11
5.767678473e-10
-6.581887e-11
4.45499081e-10
2.426599457e-10
-1.439359894e-13
5.922803066e-11
-5.638358702e-13
1.73235956e-10
-1.226311535e-12
2.80695507e-10
-2.096772974e-12
3.817266525e-10
-3.133754244e-12
4.765003056e-10
-4.293986033e-12
5.651838776e-10
-5.53361531e-12
6.479463786e-10
-6.809491841e-12
7.249608249e-10
-8.08068629e-12
7.964016789e-10
-9.309296347e-12
8.624438317e-10
-1.046132285e-11
9.232618813e-10
-1.150726193e-11
9.79030068e-10
-1.242242313e-11
1.029921309e-09
-1.318710305e-11
1.076107352e-09
-1.378680872e-11
1.117757968e-09
-1.421189976e-11
1.15504073e-09
-1.445761038e-11
1.188120603e-09
-1.452388366e-11
1.217159414e-09
-1.441481092e-11
1.242315238e-09
-1.413861614e-11
1.263742126e-09
-1.370712837e-11
1.281589285e-09
-1.31355602e-11
1.29600058e-09
-1.244218641e-11
1.307113902e-09
-1.164816118e-11
1.315060543e-09
-1.077713096e-11
1.319964381e-09
-9.855121327e-12
1.321941193e-09
-8.910478535e-12
1.321097962e-09
-7.973773829e-12
1.317531786e-09
-7.077728325e-12
1.311328679e-09
-6.257159489e-12
1.302563002e-09
-5.549168901e-12
1.291295157e-09
-4.993348735e-12
1.277570706e-09
-4.631641619e-12
1.261417139e-09
-4.508575778e-12
1.242841768e-09
-4.671362638e-12
1.221827353e-09
-5.169808249e-12
1.198327267e-09
-6.0561345e-12
1.172258613e-09
-7.384401692e-12
1.143492616e-09
-9.209611259e-12
1.111841605e-09
-1.158579026e-11
1.077040118e-09
-1.456313779e-11
1.038718173e-09
-1.818214788e-11
9.963594417e-10
-2.246217695e-11
9.492376239e-10
-2.737481318e-11
8.963106656e-10
-3.278028575e-11
8.360369621e-10
-3.82746501e-11
7.660289182e-10
-4.278987615e-11
6.823109826e-10
-4.338972078e-11
5.773676919e-10
-3.203577271e-11
4.341451329e-10
2.10624173e-10
-2.103977951e-13
5.943842846e-11
-8.227115797e-13
1.738482697e-10
-1.796301728e-12
2.816690971e-10
-3.086688101e-12
3.830170389e-10
-4.643489585e-12
4.780571071e-10
-6.41409659e-12
5.669544847e-10
-8.345214269e-12
6.498774964e-10
-1.038451984e-11
7.270001306e-10
-1.248210538e-11
7.984992648e-10
-1.459130498e-11
8.645530315e-10
-1.666988405e-11
9.253404605e-10
-1.868027495e-11
9.81040459e-10
-2.05903517e-11
1.031831386e-09
-2.237322809e-11
1.077890228e-09
-2.400761933e-11
1.119392359e-09
-2.547760815e-11
1.156510719e-09
-2.677233572e-11
1.18941533e-09
-2.788585136e-11
1.218272929e-09
-2.8816756e-11
1.243246142e-09
-2.956781778e-11
1.264493188e-09
-3.014550332e-11
1.282166972e-09
-3.055969724e-11
1.296414775e-09
-3.082327671e-11
1.307377482e-09
-3.095186529e-11
1.315189132e-09
-3.096343034e-11
1.319975946e-09
-3.087814144e-11
1.321855904e-09
-3.071802616e-11
1.320937847e-09
-3.050713316e-11
1.317320893e-09
-3.02712097e-11
1.311092755e-09
-3.003773884e-11
1.302329531e-09
-2.983600276e-11
1.291093421e-09
-2.969724562e-11
1.277431949e-09
-2.96547463e-11
1.261374639e-09
-2.974369714e-11
1.242930719e-09
-3.000158905e-11
1.222085245e-09
-3.046800179e-11
1.198793679e-09
-3.118396351e-11
1.172974575e-09
-3.219085924e-11
1.144499512e-09
-3.352781061e-11
1.113178556e-09
-3.522648726e-11
1.078738795e-09
-3.730102859e-11
1.040792715e-09
-3.97301138e-11
9.987885271e-10
-4.242394272e-11
9.519314529e-10
-4.516489134e-11
8.990516142e-10
-4.750188638e-11
8.38373957e-10
-4.855910128e-11
7.670861331e-10
-4.667868208e-11
6.804305633e-10
-3.892386101e-11
5.696128707e-10
-2.184752793e-11
4.170687998e-10
1.88776645e-10
-2.73304384e-13
5.971173286e-11
-1.068384631e-12
1.7464335e-10
-2.337068213e-12
2.829377807e-10
-4.025527085e-12
3.847054977e-10
-6.07437633e-12
4.801059562e-10
-8.421677251e-12
5.693017856e-10
-1.100473209e-11
6.524605513e-10
-1.376194667e-11
7.29757345e-10
-1.66341451e-11
8.01371463e-10
-1.956575736e-11
8.674846437e-10
-2.25058527e-11
9.282805557e-10
-2.540855175e-11
9.839431582e-10
-2.823364668e-11
1.034656481e-09
-3.094669331e-11
1.080603275e-09
-3.35189868e-11
1.121964653e-09
-3.592753509e-11
1.158919268e-09
-3.815482052e-11
1.191642615e-09
-4.018831658e-11
1.220306425e-09
-4.202028289e-11
1.245078109e-09
-4.364719448e-11
1.2661201e-09
-4.506938883e-11
1.283589166e-09
-4.629059919e-11
1.297635985e-09
-4.731757634e-11
1.308404459e-09
-4.815957867e-11
1.316031134e-09
-4.882817862e-11
1.320644546e-09
-4.933707486e-11
1.3223648e-09
-4.970162054e-11
1.321302393e-09
-4.993877264e-11
1.317558045e-09
-5.006718918e-11
1.311221172e-09
-5.010694227e-11
1.302369284e-09
-5.007962499e-11
1.291066103e-09
-5.000835297e-11
1.277360677e-09
-4.991786263e-11
1.261284149e-09
-4.983441639e-11
1.242847273e-09
-4.978567645e-11
1.222036505e-09
-4.980022847e-11
1.198808232e-09
-4.990666468e-11
1.173081012e-09
-5.01319095e-11
1.144724757e-09
-5.049746852e-11
1.113544115e-09
-5.101331158e-11
1.079254637e-09
-5.166579281e-11
1.041445196e-09
-5.239677604e-11
9.995195101e-10
-5.306602694e-11
9.526007038e-10
-5.338679901e-11
8.993723862e-10
-5.281819145e-11
8.378053495e-10
-5.039812906e-11
7.646660707e-10
-4.455934033e-11
6.745917747e-10
-3.329634235e-11
5.583498729e-10
-1.606370152e-11
3.99836159e-10
1.727129435e-10
-3.321277569e-13
6.004386062e-11
-1.298530738e-12
1.75609753e-10
-2.843524151e-12
2.844827741e-10
-4.904539446e-12
3.867665131e-10
-7.413361016e-12
4.826147778e-10
-1.029892883e-11
5.721873532e-10
-1.348939088e-11
6.556510132e-10
-1.691396347e-11
7.331819177e-10
-2.050428949e-11
8.049617891e-10
-2.419598301e-11
8.711763372e-10
-2.792927676e-11
9.320138495e-10
-3.165001983e-11
9.876639013e-10
-3.530974094e-11
1.038316202e-09
-3.886625246e-11
1.084159786e-09
-4.228338985e-11
1.12538179e-09
-4.553090997e-11
1.162166787e-09
-4.858430174e-11
1.194696007e-09
-5.142445569e-11
1.22314658e-09
-5.403714692e-11
1.2476908e-09
-5.641256047e-11
1.268495513e-09
-5.854493596e-11
1.285721541e-09
-6.043203945e-11
1.299523088e-09
-6.207474197e-11
1.310047162e-09
-6.347658532e-11
1.317432978e-09
-6.464349562e-11
1.321811457e-09
-6.558346895e-11
1.323304774e-09
-6.630649992e-11
1.322025424e-09
-6.68240892e-11
1.318075634e-09
-6.71496603e-11
1.311546743e-09
-6.729804658e-11
1.30251767e-09
-6.728582398e-11
1.291053881e-09
-6.713089465e-11
1.277205748e-09
-6.685270795e-11
1.261005962e-09
-6.647204047e-11
1.242466606e-09
-6.601036379e-11
1.221574829e-09
-6.548905446e-11
1.198286922e-09
-6.492785e-11
1.172519807e-09
-6.434200752e-11
1.144138915e-09
-6.373769114e-11
1.112939798e-09
-6.310370965e-11
1.078620656e-09
-6.239767424e-11
1.04073916e-09
-6.152234527e-11
9.986441811e-10
-6.028748116e-11
9.513658396e-10
-5.835075817e-11
8.974356632e-10
-5.513732925e-11
8.345919205e-10
-4.976236386e-11
7.592911053e-10
-4.10715069e-11
6.659009177e-10
-2.815557797e-11
5.454339439e-10
-1.213214126e-11
3.838127223e-10
1.605808022e-10
-3.86392786e-13
6.04302534e-11
-1.511050557e-12
1.767344107e-10
-3.311051733e-12
2.862827752e-10
-5.715720388e-12
3.891711816e-10
-8.648375103e-12
4.855474324e-10
-1.202926854e-11
5.755682467e-10
-1.577775635e-11
6.593995011e-10
-1.981410541e-11
7.372182668e-10
-2.406117298e-11
8.092088568e-10
-2.844590996e-11
8.755610742e-10
-3.290004436e-11
9.364679841e-10
-3.736117828e-11
9.921250352e-10
-4.177297826e-11
1.042728002e-09
-4.60854542e-11
1.088472262e-09
-5.025512514e-11
1.129551461e-09
-5.424472967e-11
1.166156392e-09
-5.802301502e-11
1.198474293e-09
-6.156436078e-11
1.226687925e-09
-6.484833116e-11
1.250974771e-09
-6.785923786e-11
1.27150642e-09
-7.05856427e-11
1.288447946e-09
-7.301986382e-11
1.301957309e-09
-7.51575244e-11
1.312184822e-09
-7.699726175e-11
1.319272715e-09
-7.854035279e-11
1.323354547e-09
-7.979021348e-11
1.324554634e-09
-8.075263969e-11
1.32298785e-09
-8.143518661e-11
1.318758181e-09
-8.184741026e-11
1.311958966e-09
-8.200060735e-11
1.302670867e-09
-8.190779358e-11
1.290961067e-09
-8.158344238e-11
1.276881397e-09
-8.104343832e-11
1.260465958e-09
-8.030466982e-11
1.241727837e-09
-7.938424463e-11
1.220654404e-09
-7.829837225e-11
1.19720105e-09
-7.706039944e-11
1.171281834e-09
-7.567741615e-11
1.142755931e-09
-7.41448668e-11
1.111407249e-09
-7.243684303e-11
1.076912632e-09
-7.04911405e-11
1.038793458e-09
-6.818444661e-11
9.963374872e-10
-6.529605279e-11
9.484774459e-10
-6.146066314e-11
8.936002735e-10
-5.6124957e-11
8.292562142e-10
-4.855829342e-11
7.517244417e-10
-3.803888857e-11
6.553815128e-10
-2.445768354e-11
5.318527387e-10
-9.710135638e-12
3.690651743e-10
1.508706666e-10
-4.356676344e-13
6.086592104e-11
-1.704042499e-12
1.780027856e-10
-3.735477186e-12
2.8831421e-10
-6.451834348e-12
3.918875389e-10
-9.768576561e-12
4.888641749e-10
-1.359783896e-11
5.793975093e-10
-1.785065216e-11
6.636523144e-10
-2.243885464e-11
7.418064691e-10
-2.727708432e-11
8.140470862e-10
-3.228393693e-11
8.805679269e-10
-3.738327253e-11
9.415673196e-10
-4.250468073e-11
9.972464433e-10
-4.758438871e-11
1.04780771e-09
-5.256515992e-11
1.093453033e-09
-5.7396469e-11
1.13438277e-09
-6.203440341e-11
1.170794326e-09
-6.644146643e-11
1.202881356e-09
-7.058599766e-11
1.230832456e-09
-7.444190505e-11
1.254830678e-09
-7.798813802e-11
1.275052653e-09
-8.120825367e-11
1.291668062e-09
-8.408989297e-11
1.304838949e-09
-8.662431976e-11
1.314719249e-09
-8.880605674e-11
1.321454452e-09
-9.063264485e-11
1.325181136e-09
-9.210420953e-11
1.326026199e-09
-9.322326114e-11
1.324106902e-09
-9.399459197e-11
1.319529512e-09
-9.442509588e-11
1.31238947e-09
-9.452360934e-11
1.302769381e-09
-9.430073398e-11
1.290738191e-09
-9.376856078e-11
1.276349223e-09
-9.294045372e-11
1.259637851e-09
-9.183037631e-11
1.240617759e-09
-9.045200205e-11
1.219276029e-09
-8.881736101e-11
1.195566409e-09
-8.693440739e-11
1.16939888e-09
-8.480342953e-11
1.140624953e-09
-8.241050591e-11
1.109014325e-09
-7.971780563e-11
1.074219932e-09
-7.664760451e-11
1.035723257e-09
-7.305922809e-11
9.927491109e-10
-6.871816469e-11
9.441363824e-10
-6.326694921e-11
8.881490581e-10
-5.622115955e-11
8.222104246e-10
-4.704471221e-11
7.425479942e-10
-3.539777102e-11
6.437345716e-10
-2.169366321e-11
5.18148631e-10
-8.112213628e-12
3.554837248e-10
1.427584529e-10
-4.795548236e-13
6.134547588e-11
-1.875903538e-12
1.793991344e-10
-4.113309099e-12
2.905516155e-10
-7.106936557e-12
3.948811663e-10
-1.076515324e-11
4.925223914e-10
-1.499266445e-11
5.836250203e-10
-1.969283357e-11
6.683524833e-10
-2.47698711e-11
7.468835068e-10
-3.013080798e-11
8.194080232e-10
-3.568662217e-11
8.861237409e-10
-4.135380266e-11
9.472345e-10
-4.705481188e-11
1.002947453e-09
-5.271878393e-11
1.053471682e-09
-5.828190972e-11
1.099016159e-09
-6.368730124e-11
1.139788162e-09
-6.888503063e-11
1.175992056e-09
-7.383177796e-11
1.207828103e-09
-7.849057423e-11
1.235491253e-09
-8.283030316e-11
1.259170407e-09
-8.682526591e-11
1.279047616e-09
-9.045467407e-11
1.29529747e-09
-9.37021167e-11
1.308086391e-09
-9.655533585e-11
1.317572468e-09
-9.900558097e-11
1.323904697e-09
-1.010473222e-10
1.327222876e-09
-1.026781185e-10
1.327656995e-09
-1.038980421e-10
1.325326825e-09
-1.04709782e-10
1.320341252e-09
-1.051182758e-10
1.312797964e-09
-1.051304614e-10
1.302781567e-09
-1.047551123e-10
1.290362843e-09
-1.040025727e-10
1.275596684e-09
-1.028841756e-10
1.258519454e-09
-1.01411552e-10
1.239145136e-09
-9.959567343e-11
1.217460151e-09
-9.744514686e-11
1.193415882e-09
-9.496368737e-11
1.166917421e-09
-9.214587432e-11
1.137807141e-09
-8.897040014e-11
1.105838851e-09
-8.53901424e-11
1.070639674e-09
-8.131635808e-11
1.031649472e-09
-7.659852148e-11
9.880312741e-10
-7.10023201e-11
9.385401809e-10
-6.419988928e-11
8.813466272e-10
-5.579936901e-11
8.138099044e-10
-4.545822918e-11
7.322068546e-10
-3.313937333e-11
6.314157157e-10
-1.957657056e-11
5.045858282e-10
-6.996909851e-12
3.429040641e-10
1.357615431e-10
-5.17729621e-13
6.186320551e-11
-2.025372146e-12
1.809067769e-10