/*--------------------------------*- C++ -*----------------------------------*\
  =========                 |
  \\      /  F ield         | OpenFOAM: The Open Source CFD Toolbox
   \\    /   O peration     | Website:  https://openfoam.org
    \\  /    A nd           | Version:  7
     \\/     M anipulation  |
\*---------------------------------------------------------------------------*/
FoamFile
{
    version     2.0;
    format      ascii;
    class       volScalarField;
    location    "0.0018";
    object      thermo:mu;
}
// * * * * * * * * * * * * * * * * * * * * * * * * * * * * * * * * * * * * * //

dimensions      [1 -1 -1 0 0 0 0];

internalField   nonuniform List<scalar> 
1167
(
417276.4137
415589.8061
410094.3583
408413.7806
404840.4547
399629.2283
392965.3564
385031.3212
376014.2038
366095.5057
355439.1771
344207.3417
332564.5503
320636.3162
308545.6377
296415.0694
284324.7529
272367.4712
260606.7153
249100.7916
237897.1558
227028.6306
216527.0209
206407.1351
196686.8455
187370.1898
178462.6109
169961.3371
161862.4926
154160.4848
146844.2852
139907.1939
133332.9172
127115.2857
121235.5962
115685.8126
110448.4801
105513.3754
100865.458
96492.50398
92380.90467
88517.60259
84890.41051
81485.81971
78292.17979
75296.02812
72485.56784
69848.14398
67371.83828
65045.04469
62855.16852
60792.32495
403102.2811
401423.3938
397854.2003
392649.8162
385995.9597
378077.9926
369085.9125
359189.2335
348559.6391
337366.6659
325761.6999
313873.4695
301835.7135
289751.9855
277714.9024
265814.8314
254107.4017
242663.7608
231514.0098
220707.3145
210257.9247
200197.1542
190526.8904
181265.24
172405.4215
163953.4493
155900.718
148243.3068
140972.5353
134076.8051
127549.082
121373.2086
115542.044
110039.1429
104854.586
99975.54219
95388.74777
91083.83423
87045.84307
83266.47249
79730.01758
76427.36875
73343.93854
70469.33312
67789.66014
65293.87976
62967.41117
60799.12865
58774.10974
56881.59069
396287.0165
394605.3178
391030.7276
385819.3356
379158.6958
371242.1289
362243.862
352343.1209
341713.5516
330530.46
318930.3179
307053.8498
295032.838
282962.9556
270951.3151
259069.3426
247389.9764
235966.0453
224843.8878
214057.2892
203634.0415
193590.9833
183944.7711
174696.7409
165857.1223
157417.4824
149380.1162
141735.2242
134475.4641
127593.933
121076.7835
114917.3129
109101.3422
103618.1607
98458.61067
93608.18816
89058.36018
84796.7773
80812.35326
77096.16142
73634.83034
70419.79712
67438.27706
64679.96454
62132.23527
59782.81852
57618.48959
55625.58298
53789.30771
52095.58941
389636.3506
387947.1874
384357.3527
379125.5409
372447.4952
364501.8268
355472.8445
345541.0777
334890.6763
323678.4355
312051.2623
300159.2874
288115.593
276031.1765
264004.7703
252108.66
240419.8916
228982.858
217852.2882
207053.2531
196619.0902
186564.232
176902.5147
167642.3464
158782.2112
150328.7588
142271.8248
134608.0915
127331.6025
120430.6572
113898.5794
107724.3838
101896.599
96407.54342
91245.06555
86398.41007
81859.78033
77618.29246
73663.8129
69988.81664
66583.00864
63436.8599
60542.6344
57888.51737
55465.25416
53260.91823
51262.90551
49457.2862
47828.40518
46359.19177
383139.0294
381437.6129
377825.1333
372563.7154
365840.9096
357843.918
348759.0241
338773.9487
328067.2677
316794.5401
305113.8156
293166.4231
281065.7882
268935.8148
256856.0485
244917.2909
233177.4254
221699.7598
210518.9492
199679.4996
189197.6018
179099.6382
169392.8883
160084.9994
151183.0186
142681.5215
134579.8639
126873.7017
119553.5237
112612.4899
106043.422
99834.81776
93977.29915
88462.92028
83281.15477
78422.31802
73877.58819
69639.56044
65699.12263
62048.10114
58678.97918
55585.7188
52759.77702
50193.63056
47880.32002
45809.79494
43971.59752
42353.65977
40939.88459
39712.75502
376788.9508
375072.7731
371426.8672
366114.2769
359327.5686
351256.5634
342090.8411
332027.2756
321230.0085
309865.0262
298100.8559
286060.9554
273877.7344
261659.1069
249497.351
237475.6448
225657.4998
214099.3191
202844.986
191925.4858
181373.717
171200.4727
161422.5329
152047.4966
143075.9621
134510.3336
126348.443
118583.3374
111208.9552
104220.0472
97607.3009
91361.06382
85472.4762
79932.6288
74733.37269
69864.80729
65318.38653
61085.74955
57159.05338
53531.1865
50195.61868
47146.57371
44378.43217
41886.05602
39664.51411
37708.4326
36012.13207
34566.18425
33358.76865
32372.78826
370577.0298
368838.6776
365146.4317
359767.3778
352897.3287
344729.3116
335465.1642
325285.9512
314367.7716
302887.8025
290998.0866
278834.296
266534.0429
254192.2876
241919.1259
229779.7414
217854.4056
206187.2338
194828.2536
183810.9748
173158.0197
162894.3507
153028.7495
143568.9849
134521.4312
125886.5901
117660.8167
109840.2968
102419.7844
95393.89963
88753.29323
82489.48719
76593.72197
71056.63268
65868.92519
61021.24278
56504.07621
52308.53247
48426.00119
44848.33345
41568.36225
38579.88302
35877.66199
33457.96752
31318.20699
29457.18561
27874.37461
26568.5285
25536.02117
24766.60645
364490.1125
362724.514
358975.2527
353514.2827
346541.292
338259.2471
328864.1663
318540.9435
307474.6761
295845.4813
283797.9007
271485.9082
259028.7848
246542.2405
234117.6391
221841.2056
209772.5816
197978.1945
186493.2812
175355.7662
164595.5762
154228.1759
144268.3752
134727.8088
125610.0688
116915.9289
108644.5477
100793.1182
93356.87961
86329.03735
79702.29572
73468.19502
67616.96563
62139.05718
57023.51163
52259.59975
47836.2829
43742.27465
39967.44648
36500.69445
33331.85032
30452.16838
27854.52051
25533.08234
23485.20511
21711.59083
20216.28146
19007.59169
18096.12609
17490.30127
358520.7932
356722.7917
352905.7636
347347.3642
340255.1576
331835.2744
322280.4517
311785.2419
300547.6286
288732.3456
276501.4117
264005.7592
251365.8133
238702.8628
226106.5852
213663.1892
201441.5195
189494.4464
177874.0769
166612.561
155737.3949
145270.6565
135230.8766
125625.0681
116459.8183
107738.1241
99460.35706
91624.10165
84224.59585
77255.80999
70709.77422
64577.23704
58847.67152
53510.32234
48552.19413
43959.56245
39719.64686
35817.57799
32238.93908
28968.89697
25993.69095
23299.3303
20873.61925
18706.21763
16789.55538
15120.60169
13703.22077
12550.64859
11689.44282
11162.49903
352662.6885
350826.9454
346931.3741
341262.0195
334034.3528
325448.2732
315708.3099
305020.0677
293576.1661
281545.9433
269107.8125
256396.1004
243553.6459
230683.9054
217899.6353
205273.1776
192880.0693
180781.5282
169020.3546
157635.7351
146660.312
136116.2029
126019.3301
116381.9891
107211.9142
98513.50147
90287.35785
82531.27274
75240.89188
68409.07185
62028.53143
56086.53334
50570.76175
45468.53924
40763.03208
36439.14768
32478.22657
28862.40406
25573.12417
22591.03254
19896.78326
17471.46981
15296.64748
13355.31112
11631.87274
10114.44276
8796.776048
7683.194313
6798.852181
6216.698676
347120.5189
345268.8454
341339.8555
335624.8195
328330.9861
319666.2937
309837.1384
299058.7125
287509.3407
275374.8114
262823.5158
249999.9385
237042.3379
224064.1947
211165.1948
198437.7204
185948.2525
173758.6469
161923.3167
150478.9002
139458.0528
128886.3015
118783.2258
109162.4775
100033.571
91401.52022
83267.34277
75629.31768
68481.99374
61819.58628
55629.26512
49899.05549
44614.40878
39758.20986
35312.22671
31256.98892
27571.04615
24233.05264
21220.58684
18510.93993
16081.37056
13909.12117
11971.55
10246.41514
8711.677676
7345.243158
6124.884428
5028.261736
4033.214071
3120.344927
341826.5694
339978.6978
336053.9588
330338.3583
323042.2868
314373.0085
304543.0859
293753.2175
282188.0221
270040.5007
257464.7566
244619.7564
231630.4802
218625.797
205697.7065
192939.2651
180427.4368
168220.8538
156372.8578
144927.2514
133920.1199
123377.5747
113320.285
103763.7696
94718.84931
86191.54858
78183.15645
70690.77822
63708.45711
57228.14632
51236.32094
45718.68598
40657.36894
36034.20211
31826.97183
28013.34106
24570.21655
21473.35304
18698.12539
16219.98131
14014.8639
12058.75717
10328.9204
8803.229519
7460.751529
6282.01754
5248.896343
4345.084641
3556.040903
2868.897251
336550.4559
334701.4352
330773.4125
325052.0435
317747.3178
309066.8835
299227.4978
288417.7106
276833.3447
264660.7612
252056.9197
239183.0717
226165.5376
213128.1436
200175.902
187395.6031
174866.8298
162657.284
150818.5411
139396.6233
128428.6086
117944.2205
107965.754
98510.01096
89587.4293
81203.49404
73359.98515
66053.03475
59273.97248
53012.40869
47252.64544
41977.66439
37166.73396
32797.54875
28846.18146
25287.39441
22095.16058
19243.08282
16704.65631
14453.65233
12465.07865
10714.26159
9178.076322
7834.60566
6663.420751
5645.681959
4764.161464
4003.237867
3348.823207
2788.010143
331283.8029
329430.5165
325493.1414
319757.5325
312433.7243
303736.5826
293868.438
283025.6565
271411.9723
259199.9855
246562.2685
233647.092
220597.3488
207526.9174
194549.6574
181756.0691
169224.1427
157022.8558
145210.3805
133835.5416
122935.4768
112540.8261
102675.2463
93356.96752
84594.64546
76393.2206
68751.39832
61665.48086
55122.77397
49110.17933
43608.45522
38598.14376
34054.51527
29951.95097
26263.68969
22961.90443
20017.93145
17403.43589
15090.49518
13051.92937
11261.52192
9694.514374
8327.649932
7139.137636
6108.965757
5218.842775
4452.022132
3793.465065
3229.533961
2747.913309
326025.2126
324164.8754
320212.4977
314454.7287
307105.5765
298377.1678
288468.6583
277584.9212
265927.26
253666.6842
240986.642
228028.3634
214940.5246
201842.9273
188844.1831
176043.921
163523.5601
151352.2891
139590.3742
128287.4119
117483.8337
107210.8517
97492.3737
88343.95943
79775.23002
71789.75151
64382.28473
57545.04589
51263.90465
45520.972
40294.0634
35559.42723
31289.35078
27454.95311
24026.72233
20974.11321
18266.78274
15875.00949
13769.43217
11922.4163
10307.50017
8900.055325
7676.938723
6617.016191
5700.999483
4911.311093
4232.120231
3649.241953
3149.923831
2722.723836
320773.747
318903.9282
314931.5373
309145.2768
301765.1908
292992.1952
283033.4614
272102.8864
260388.8662
248079.2557
235345.1058
222345.4747
209217.1485
196096.486
183089.5451
170295.2847
157799.9105
145677.8199
133990.4196
122787.5762
112109.996
101990.1873
92450.90053
83505.46518
75161.0087
67417.90934
60269.5428
53702.25854
47699.41362
42238.34163
37293.6974
32837.1655
28838.43054
25265.8709
22087.25233
19270.29365
16783.14786
14594.81838
12675.9927
10998.67017
9536.743551
8265.869805
7163.908227
6210.491198
5387.286628
4677.777393
4067.206782
3542.422959
3091.739475
2704.756063
315528.8727
313647.4809
309650.7499
303836.3689
296411.462
287585.9485
277572.6713
266584.1049
254807.4919
242444.2355
229655.2672
216613.5973
203455.8777
190313.9825
177309.5082
164539.1079
152091.122
140041.2987
128452.6775
117376.9805
106854.567
96916.33159
87582.66744
78867.16277
70772.3393
63293.53482
56421.95391
50138.59673
44423.03112
39248.62254
34586.08714
30403.61158
26668.11094
23345.73991
20402.11883
17803.67691
15517.72533
13513.1477
11760.57434
10232.22506
8902.864299
7748.895621
6749.115539
5884.447678
5137.605401
4493.250245
3937.771599
3459.121538
3046.652679
2690.968016
310290.4307
308397.4131
304378.0819
298523.2687
291047.6067
282163.2829
272093.0833
261037.569
249200.8531
236775.6853
223938.9141
210852.5392
197672.5154
184526.6984
171535.2481
158803.2261
146423.1205
134469.2242
123005.4933
112083.1895
101743.3335
92014.22215
82913.04201
74448.7049
66622.51344
59424.62569
52840.60112
46848.29724
41422.85894
36533.52237
32147.41616
28229.82294
24745.43396
21658.28469
18932.84745
16534.81415
14431.18923
12591.22829
10985.669
9587.861747
8373.212412
7319.483892
6406.52265
5616.513018
4933.353576
4342.890878
3832.64414
3391.64385
3010.218469
2679.879892
305064.7866
303157.835
299107.4851
293208.2615
285677.2832
276734.3386
266598.2383
255472.7651
243575.3436
231088.0957
218206.7385
205088.1883
191889.5501
178752.5926
165794.3684
153122.8562
140830.7263
128995.6282
117681.4591
106938.3042
96804.33413
87304.9127
78456.89973
70262.82294
62718.31625
55811.16028
49520.60528
43821.03449
38683.06702
34072.34975
29952.92107
26287.88948
23039.87763
20171.53082
17646.82509
15431.10876
13491.85352
11798.57802
10322.9672
9039.439631
7924.454696
6957.07857
6118.418602
5391.870869
4762.5172
4217.376367
3745.04215
3335.460163
2979.876888
2670.665014
299846.9308
297924.0942
293840.5302
287893.9949
280304.5383
271302.5227
261095.8288
249904.9418
237942.1885
225403.151
212475.9119
199335.5364
186134.9709
173016.7491
160108.0402
147517.0015
135335.9718
123643.086
112501.1637
101959.8546
92054.63638
82806.24378
74225.57901
66314.4403
59061.00198
52449.04983
46452.68425
41042.88055
36185.64857
31843.69879
27978.62119
24551.71463
21524.07374
18857.77288
16516.56886
14466.02087
12674.29338
11111.60584
9750.855174
8567.582051
7539.535877
6647.011644
5872.446119
5200.355585
4617.037453
4110.587421
3670.476121
3287.63214
2954.052236
2662.818837
294636.8005
292697.3433
288579.1053
282583.431
274940.9382
265871.3156
255593.8003
244340.3889
232313.6689
219728.7507
206767.1419
193612.0629
180424.3919
167345.8467
154505.0426
142013.314
129964.4839
118435.9846
107488.7364
97169.05076
87508.00367
78525.67427
70226.21202
62604.76019
55647.19207
49330.33975
43624.85396
38498.12597
33911.82129
29826.39946
26201.71026
22997.48114
20173.94742
17693.13946
15518.91915
13617.59676
11958.12137
10511.79317
9252.712832
8157.676622
7205.785052
6378.544611
5659.710116
5034.804995
4491.337785
4018.235018
3605.998671
3246.203272
2931.660234
2656.012595
289435.4998
287479.0291
283325.3863
277283.8836
269583.8443
260446.9782
250105.3875
238787.3492
226707.2707
214078.5863
201096.3675
187939.7012
174776.0618
161754.4557
149002.0476
136630.9654
124735.0676
113390.2831
102655.5837
92575.95568
83175.95988
74469.30578
66458.48225
59131.3437
52469.47472
46444.35613
41023.68369
36170.07097
31842.8231
28000.35391
24601.12236
21603.8025
18968.46427
16657.31537
14634.75832
12868.02106
11327.04541
9984.466543
8815.614553
7798.527377
6913.679645
6143.759885
5473.685753
4890.073647
4381.335627
3937.410552
3549.449023
3209.847412
2911.965319
2650.02121
284244.4021
282270.8615
278084.7782
271997.8035
264238.0243
255035.8795
244635.3514
233255.8107
221131.5942
208468.062
195475.432
182334.6789
169213.9504
156264.414
143618.1006
131386.9965
119663.9572
108522.4388
98018.38069
88189.9775
79061.09446
70639.68234
62920.16063
55888.37155
49518.49261
43779.02329
38633.92529
34041.94816
29960.51107
26346.65776
23157.68794
20351.7878
17889.32718
15732.91803
13847.90893
12202.51803
10767.88707
9517.985685
8429.401496
7481.454112
6655.910836
5936.623409
5309.4847
4762.240596
4284.136148
3865.850003
3499.336206
3177.569216
2894.443949
2644.684827
11609.04854
10269.92597
9102.972626
8086.040064
7199.684463
6426.773743
5752.429596
5163.435719
4648.404534
4197.438441
3801.972655
3454.52268
3148.638423
2878.71024
2639.886324
)
;

boundaryField
{
    front_top
    {
        type            wedge;
    }
    front_middle
    {
        type            wedge;
    }
    front_bottom
    {
        type            wedge;
    }
    back_top
    {
        type            wedge;
    }
    back_middle
    {
        type            wedge;
    }
    back_bottom
    {
        type            wedge;
    }
    axis_top
    {
        type            symmetryPlane;
    }
    axis_middle
    {
        type            symmetryPlane;
    }
    axis_bottom
    {
        type            symmetryPlane;
    }
    wall_top
    {
        type            calculated;
        value           nonuniform List<scalar> 10(59801.6768 55979.60013 51299.03768 45685.11384 39173.62872 31973.42369 24499.7952 17335.53825 11089.75181 6193.439744);
    }
    wall_middle
    {
        type            calculated;
        value           uniform 2530.329233;
    }
    wall_bottom
    {
        type            calculated;
        value           nonuniform 0();
    }
    inlet
    {
        type            calculated;
        value           nonuniform 0();
    }
    outlet
    {
        type            calculated;
        value           nonuniform 0();
    }
    procBoundary5to4
    {
        type            processor;
        value           nonuniform List<scalar> 
51
(
279066.7754
277079.1271
272861.0045
266725.7104
258908.4089
249650.1384
239189.6997
227759.4036
215595.805
202914.1937
189920.1047
176808.9649
163748.7913
150891.9771
138371.3101
126298.5255
114764.7689
103840.9466
93580.52035
84016.86588
75166.50374
67033.35939
59607.04004
52866.90213
46783.16449
41321.25165
36440.35217
32097.3146
28247.81675
24847.88927
21854.1281
19224.80616
16920.76302
14905.33467
13144.98916
13144.98916
11077.57453
9824.447948
8731.839562
7779.057047
6947.744863
6221.904664
5587.574943
5032.562151
4546.30859
4119.604335
3744.503989
3414.123006
3122.508353
2864.472289
2635.53753
)
;
    }
    procBoundary5to6
    {
        type            processor;
        value           nonuniform List<scalar> 
51
(
424666.9373
422967.7116
412003.1608
412003.1608
406771.7418
400080.8441
392112.9367
383049.8418
373079.3832
362369.4147
351077.6939
339359.9013
327361.3207
315194.1538
302977.6604
290805.8829
278756.0497
266909.9588
255311.3023
244020.0468
233060.9969
222471.8856
212264.6685
202459.7937
193059.0217
184071.5061
175489.7955
167315.9022
159536.173
152148.8738
145135.8248
138492.7501
132199.6653
126249.3122
120623.1396
115310.8672
110295.5214
105565.555
101105.4674
96902.89998
92943.07613
89213.75237
85701.13437
82393.42291
79277.13517
76341.43412
73572.75399
70961.63645
68494.78576
66164.46253
63957.81594
)
;
    }
}


// ************************************************************************* //
