/*--------------------------------*- C++ -*----------------------------------*\
  =========                 |
  \\      /  F ield         | OpenFOAM: The Open Source CFD Toolbox
   \\    /   O peration     | Website:  https://openfoam.org
    \\  /    A nd           | Version:  7
     \\/     M anipulation  |
\*---------------------------------------------------------------------------*/
FoamFile
{
    version     2.0;
    format      ascii;
    class       volScalarField;
    location    "0.0009";
    object      generalizedNewtonian:nu;
}
// * * * * * * * * * * * * * * * * * * * * * * * * * * * * * * * * * * * * * //

dimensions      [0 2 -1 0 0 0 0];

internalField   nonuniform List<scalar> 
1167
(
2.528446196
2.513289519
2.521779288
2.501699648
2.482342505
2.459672379
2.433219482
2.403671862
2.37148894
2.337072035
2.300826603
2.263151833
2.224404374
2.184914663
2.145001957
2.104895674
2.064827253
2.024932944
2.392227548
2.377728706
2.385762566
2.366761098
2.348363285
2.32687981
2.301828004
2.273852881
2.243415353
2.210902097
2.176697767
2.141168695
2.104663005
2.067509143
2.029974092
1.99230177
1.954674595
1.917250674
1.880115556
1.843314292
1.806847099
1.770670417
1.734687177
1.698755996
1.662698151
1.626288871
1.589260993
1.551309065
1.512076559
1.471169518
1.428152076
1.382554374
1.333893063
1.281686093
1.225513418
1.165104329
1.100441709
1.031888351
0.9603106871
0.8870653024
0.8138708987
0.7425368169
0.6746740342
0.6114699631
0.5536245833
0.5013798539
0.454635648
0.413067232
0.3762036936
0.343455398
2.259456607
2.245625204
2.253252574
2.23531462
2.217910145
2.197619391
2.173991696
2.147622882
2.118956111
2.088362879
2.056206725
2.022837962
1.988600266
1.95377351
1.918624198
1.883370744
1.84819028
1.81320662
1.778516368
1.744148619
1.710092422
1.67630219
1.642686273
1.60911039
1.57539821
1.541334106
1.506665167
1.47109924
1.434303146
1.395912405
1.355514766
1.312669503
1.266922317
1.217834176
1.165018231
1.108221822
1.047434464
0.9829967353
0.9157014356
0.8468051154
0.7778863053
0.7106254476
0.6465221456
0.5867017782
0.5318413116
0.4821921615
0.437685874
0.398038322
0.3628204791
0.3314872995
2.130433205
2.117278044
2.124506329
2.107620639
2.091220713
2.072126335
2.049911386
2.02514562
1.998245564
1.969565445
1.939451912
1.908244198
1.876240769
1.843722266
1.810934312
1.778071988
1.745297506
1.712731561
1.680441513
1.648456357
1.616770288
1.585326273
1.554030234
1.522750771
1.491322044
1.459540169
1.427166769
1.393921568
1.359490444
1.323526532
1.285648775
1.245450934
1.202505785
1.15640147
1.106787529
1.053434495
0.9963282181
0.9357937237
0.8725564044
0.8077748724
0.7429043629
0.67950372
0.6189708127
0.5623725318
0.5103608176
0.4631967351
0.4208395021
0.3830418817
0.3494136635
0.3194517791
2.005440775
1.992946908
1.999792484
1.983952233
1.968529334
1.950624725
1.929804981
1.906609985
1.881447147
1.854651894
1.826546983
1.797445547
1.767635257
1.737384793
1.706899536
1.676382229
1.645961298
1.615747945
1.585808718
1.55615527
1.526773181
1.49760968
1.468574603
1.43953621
1.410333416
1.380769049
1.35061773
1.319617558
1.287475713
1.253861596
1.218416876
1.180759493
1.140502735
1.097259986
1.050703055
1.000629787
0.9470273953
0.890192829
0.8308026325
0.7699171932
0.7088844908
0.6491449327
0.5920067975
0.5384801161
0.4891920313
0.444411026
0.4041209023
0.3681075538
0.3360170892
0.307385849
1.884742572
1.872900436
1.879383812
1.864552316
1.850080377
1.833324816
1.813863749
1.792199823
1.768722659
1.743748982
1.717585545
1.69052985
1.662854362
1.634788183
1.606546804
1.578286633
1.550149859
1.52222007
1.494547987
1.467151621
1.440008132
1.413058675
1.386209141
1.359337297
1.33228999
1.304876749
1.276881496
1.248055226
1.21812025
1.186771548
1.153673701
1.118466901
1.080786499
1.040283951
0.9966532805
0.9497035309
0.8994341694
0.8461135766
0.79037165
0.7331799792
0.6757876284
0.6195262459
0.5656211197
0.5150259972
0.4683458071
0.4258537527
0.3875552684
0.353265506
0.3226649572
0.2953268798
1.768606804
1.757406792
1.763540336
1.749662574
1.736115011
1.720449952
1.702283948
1.682084951
1.660221056
1.636991208
1.61269299
1.587600225
1.5619575
1.535993688
1.509890511
1.483805637
1.457848244
1.432108753
1.406621217
1.381389942
1.356391993
1.33157253
1.306833081
1.28205356
1.257082576
1.231740605
1.205824133
1.179097461
1.151297007
1.122132627
1.09129049
1.058441242
1.023240089
0.9853591161
0.944526489
0.9005603507
0.853461618
0.8034834577
0.7512023076
0.6975178371
0.6435811146
0.5906283053
0.5398061307
0.4920135966
0.4478345046
0.4075444978
0.3711677491
0.3385458834
0.309391161
0.2833116146
1.657301474
1.646718635
1.652495138
1.639524717
1.626844971
1.612220773
1.595273772
1.576453373
1.556113106
1.534535734
1.511995723
1.488748853
1.46503588
1.441055989
1.416981928
1.392951091
1.369071151
1.345405401
1.321989434
1.298824707
1.275878343
1.253087742
1.230360838
1.207583873
1.184607191
1.161258796
1.137340907
1.112629902
1.086882458
1.059823459
1.031155277
1.000566868
0.9677460362
0.9323829936
0.8942232202
0.8531064351
0.8090282548
0.7622297565
0.7132379403
0.6628866966
0.6122358201
0.5624350452
0.514556529
0.469447925
0.427671521
0.3895036128
0.354984043
0.3239787522
0.296229216
0.2713762145
1.551054925
1.541062168
1.546484727
1.534370457
1.522489421
1.508830691
1.493023233
1.475489054
1.456564359
1.436520069
1.415615559
1.39409715
1.372181936
1.350052901
1.327877764
1.305771744
1.283832304
1.262120109
1.240653658
1.219429846
1.198418991
1.177552847
1.156739475
1.135863399
1.114782183
1.093335629
1.071332155
1.048557284
1.024776942
0.9997355026
0.9731560951
0.944743397
0.9142018965
0.8812520603
0.8456520013
0.8072557817
0.7660607262
0.7222882557
0.6764271044
0.6292466336
0.5817254015
0.5349331142
0.4898690501
0.4473349617
0.4078706654
0.3717513617
0.3390294456
0.309593395
0.283211392
0.2595549908
1.450095989
1.440666187
1.445746792
1.434410803
1.423273372
1.41048475
1.395718573
1.379362047
1.361734405
1.343096123
1.323700745
1.303767685
1.283499872
1.263083213
1.242650406
1.222325287
1.202183766
1.182274838
1.162622141
1.14321158
1.124005379
1.104936855
1.085920075
1.066838773
1.047553433
1.027907166
1.007718483
0.9867887843
0.9648910876
0.9417810473
0.9171982853
0.8908712594
0.8625177155
0.8318764968
0.7987274751
0.7629295877
0.7244867674
0.6835988147
0.6407215129
0.5965612506
0.5520252787
0.5081080729
0.4657406295
0.4256805918
0.3884451445
0.3543067568
0.3233282579
0.2954183118
0.2703697878
0.247883298
1.354654288
1.345760905
1.350487551
1.339858373
1.329390572
1.317395023
1.303559687
1.288260111
1.271802905
1.254437264
1.236394667
1.217890038
1.19912237
1.180246294
1.161402642
1.142688207
1.124185817
1.105929833
1.087932155
1.070183888
1.052644235
1.035242777
1.017891627
1.000479002
0.9828738881
0.9649222762
0.9464490627
0.9272614428
0.9071493099
0.8858805888
0.8632056965
0.8388686114
0.8126091059
0.7841770673
0.7533715296
0.7200587885
0.6842426524
0.6461076296
0.6060762366
0.5647983411
0.5231156941
0.4819494597
0.4421700632
0.4044918356
0.369409263
0.3371891258
0.3079040155
0.2814800427
0.257732512
0.2363892262
1.264948186
1.256549802
1.260919863
1.250934074
1.241046312
1.229748046
1.216738895
1.202372739
1.186946533
1.170699858
1.153853599
1.136622433
1.119176681
1.101675033
1.084239582
1.06696963
1.049926693
1.033150866
1.016648294
1.000401717
0.9843686413
0.968484431
0.9526607131
0.9367862614
0.9207322858
0.904351911
0.8874808468
0.8699320347
0.8515022006
0.8319729684
0.8111107743
0.7886691795
0.7644045905
0.7380845301
0.7095152801
0.6785774768
0.6452688821
0.6097639885
0.5724483011
0.5339243897
0.4949720318
0.4564436167
0.4191527079
0.383771726
0.3507721809
0.3204139167
0.292777395
0.2678043183
0.2453309762
0.2251110269
1.181185473
1.173245131
1.177263795
1.167838955
1.158457671
1.14774976
1.135450013
1.121887062
1.107348645
1.092068426
1.076262172
1.060122955
1.043823156
1.027512449
1.011302523
0.9952862251
0.9795242993
0.9640439607
0.9488534483
0.933937134
0.9192467811
0.9047167559
0.8902619158
0.8757780992
0.8611392707
0.8462016166
0.830804748
0.8147752891
0.7979183622
0.7800225658
0.7608672675
0.7402219165
0.7178513114
0.693541499
0.6671060431
0.6384336767
0.607519573
0.5745265475
0.5398063943
0.5039180474
0.4675805717
0.4315851725
0.3966908056
0.3635294401
0.3325478475
0.3039990894
0.277968826
0.2544117108
0.2331823868
0.2140582064
1.103589962
1.09607231
1.099738444
1.09079141
1.081835823
1.071624026
1.059909923
1.047015344
1.033219585
1.018746864
1.003803149
0.9885783896
0.9732423496
0.9579271978
0.9427516576
0.9277949397
0.913114093
0.8987396496
0.8846735698
0.8708964687
0.8573663212
0.8440188544
0.8307688888
0.8175129017
0.8041331047
0.790493837
0.7764379685
0.7617966693
0.746386844
0.730008613
0.7124480733
0.6934882068
0.672907443
0.6504991991
0.6260916839
0.5995742384
0.5709441956
0.5403464556
0.5081063394
0.4747407016
0.4409110436
0.4073516985
0.3747694211
0.3437565061
0.3147349949
0.2879500912
0.2634913225
0.2413254714
0.2213254155
0.2032916545
1.032408691
1.0252658
1.028575811
1.020034199
1.011411794
1.001593866
0.9903488144
0.9779867096
0.9647800893
0.9509478768
0.9366939624
0.9222047747
0.9076348932
0.8931245804
0.8787755082
0.8646772555
0.8508756841
0.8373986165
0.8242561989
0.8114246515
0.7988611134
0.78650517
0.7742787555
0.7620801586
0.7497950777
0.7372916748
0.7244253827
0.7110324893
0.6969349955
0.681944254
0.6658586362
0.6484665439
0.6295626189
0.6089471894
0.586457677
0.5619864623
0.5355300455
0.5072168577
0.4773473416
0.4463951801
0.4149713487
0.3837556775
0.353405215
0.3244719576
0.2973543944
0.2722875396
0.2493616327
0.2285514913
0.2097433939
0.1927574941
0.9678963781
0.9610833081
0.9640431975
0.9558267416
0.9474540549
0.9379205977
0.9270218043
0.915053676
0.9022831025
0.8889280984
0.8751891441
0.8612413785
0.8472463919
0.833332981
0.8196091537
0.8061512534
0.7930171747
0.7802294497
0.7677946462
0.7556971138
0.7438967359
0.732334546
0.7209337116
0.7096011328
0.6982293597
0.6866905023
0.6748446021
0.6625387804
0.6496035239
0.6358555078
0.6211051435
0.6051512178
0.5877943053
0.5688492292
0.548155907
0.5256139868
0.5012124706
0.4750686676
0.4474581162
0.4188131543
0.3896975706
0.3607393508
0.332546625
0.3056328746
0.2803725724
0.2569901879
0.2355771764
0.2161185834
0.198517963
0.1826165491
0.9103647823
0.9038356706
0.9064557557
0.898476952
0.8902701915
0.8809181325
0.8702387846
0.8585239268
0.8460359424
0.8329884015
0.8195774561
0.8059820231
0.7923593366
0.7788354433
0.765519956
0.7524900174
0.7397972461
0.727475753
0.7155308767
0.7039468784
0.6926887638
0.6817066382
0.6709257524
0.6602583528
0.6496014068
0.638838472
0.6278354286
0.6164445764
0.6045068589
0.5918488528
0.5782861271
0.5636313473
0.547691047
0.5302892263
0.5112710738
0.4905396914
0.4680774985
0.4439903764
0.4185258929
0.3920807363
0.3651729835
0.3383814748
0.3122665995
0.2873050923
0.2638459254
0.2420994044
0.2221517985
0.2039887685
0.1875189787
0.172597459
0.860204746
0.8539094092
0.8561910653
0.8483704578
0.8402355572
0.8309592618
0.8203757151
0.8087703329
0.7964027801
0.7834873398
0.7702203936
0.756781345
0.7433205862
0.7299741517
0.7168433187
0.7040128507
0.6915353913
0.6794442975
0.6677533223
0.6564505794
0.6455050903
0.6348696068
0.6244798509
0.6142554263
0.604098139
0.5938968112
0.5835292071
0.5728553473
0.5617220034
0.5499674325
0.5374162891
0.5238874308
0.5092008085
0.4931839815
0.4756915573
0.4566250571
0.435964806
0.4138037165
0.3903638564
0.3660078836
0.3412106707
0.3165018137
0.2923972727
0.2693371417
0.2476456982
0.227521766
0.2090527237
0.1922363454
0.1770020682
0.1632249196
0.8179095869
0.8117899313
0.813743752
0.805997984
0.7978400046
0.7885253569
0.777905982
0.7662609781
0.7538489496
0.7408880495
0.7275741821
0.7140830788
0.7005738932
0.6871773023
0.6740041681
0.661134559
0.6486316562
0.6365313288
0.6248493176
0.6135815099
0.602705736
0.5921792325
0.5819436985
0.5719278349
0.5620441653
0.5521878757
0.5422434038
0.5320832958
0.5215629165
0.5105270886
0.4988139295
0.4862482753
0.4726597792
0.4578816863
0.4417741164
0.4242373083
0.4052477995
0.3848815193
0.3633379767
0.3409462976
0.3181396037
0.2954022501
0.2732082391
0.2519614957
0.231958379
0.2133772397
0.1962897492
0.1806796805
0.1664644259
0.1535228659
0.7841405805
0.7781359956
0.7797804604
0.7720105511
0.7637335747
0.7542605174
0.7434627127
0.7316191411
0.7189890782
0.7057908177
0.692220761
0.6784612511
0.6646731222
0.6509888895
0.6375247012
0.6243652968
0.6115744515
0.5992000689
0.5872608841
0.5757582203
0.5646774507
0.5539864463
0.5436331042
0.5335539101
0.523670152
0.5138896773
0.5041042383
0.49419425
0.4840294761
0.4734630247
0.462341614
0.45050325
0.437784094
0.4240276361
0.4090967638
0.3928949235
0.3753940445
0.356656125
0.3368595012
0.3163019412
0.2953755838
0.2745223976
0.2541753021
0.2347042493
0.2163832885
0.1993829136
0.183782857
0.16959085
0.1567595822
0.1451883077
0.7598269703
0.7538702824
0.75521296
0.7473171863
0.738808677
0.7290488656
0.7179211
0.7057046113
0.6926628818
0.6790174433
0.6649698961
0.6507104907
0.6363967479
0.6221736511
0.6081559412
0.5944405653
0.5810947046
0.5681706114
0.5556996324
0.543688626
0.5321308087
0.5210026072
0.5102640545
0.4998598646
0.4897209635
0.4797662243
0.4698996905
0.4600114235
0.449981159
0.4396754303
0.4289487935
0.4176511736
0.4056250985
0.3927218174
0.3788054096
0.3637792442
0.3476055038
0.3303313324
0.3121116996
0.2932120803
0.2739880862
0.254843467
0.2361739449
0.2183151138
0.20150903
0.1858936052
0.1715112548
0.1583244321
0.1462371788
0.1351355737
0.7462650079
0.7402735878
0.7413275186
0.7331902986
0.7243138504
0.7141112372
0.7024719677
0.6896779916
0.675999408
0.6616636866
0.6468822144
0.6318448267
0.6167189367
0.6016573155
0.5867793196
0.572188448
0.5579618363
0.5441571122
0.530813707
0.5179486998
0.5055630434
0.493641666
0.4821555849
0.4710600015
0.4602963092
0.4497939835
0.4394708558
0.429228588
0.4189588391
0.4085427047
0.3978467494
0.3867331128
0.3750564096
0.362676286
0.3494634573
0.3353233167
0.320212141
0.3041650906
0.2873167214
0.2699030217
0.2522458825
0.2347130957
0.2176672152
0.2014189297
0.1861994679
0.172155658
0.1593633503
0.1478446333
0.137577968
0.128472183
0.7454212884
0.7392885367
0.7400666722
0.7315393227
0.7221399696
0.7113040217
0.6989386378
0.6853288511
0.6707550063
0.6554554822
0.6396484103
0.6235322974
0.6072870249
0.5910703289
0.5750138661
0.5592273032
0.5437994603
0.5287957592
0.5142642392
0.5002328671
0.4867117989
0.4736960493
0.4611671139
0.4490917227
0.4374227492
0.4261017524
0.4150594536
0.4042106669
0.3934602612
0.3827027807
0.3718176304
0.3606782961
0.3491493896
0.3370966239
0.324392908
0.3109394091
0.29668021
0.2816305917
0.2658980463
0.2496866403
0.2332859539
0.2170329503
0.201260694
0.1862480314
0.1721853429
0.1591615079
0.1471703796
0.1361258848
0.1258878172
0.1163276406
0.7536504249
0.7541601762
0.7450434488
0.7348972059
0.7231697559
0.7097729796
0.6950102702
0.6791768017
0.6625224866
0.6452783335
0.6276563513
0.6098494916
0.5920242105
0.574324457
0.5568691055
0.5397571009
0.5230628305
0.5068440358
0.4911368773
0.4759609929
0.461321199
0.4472091993
0.4336013727
0.4204628029
0.4077484634
0.3954011678
0.3833517609
0.3715220381
0.3598222258
0.3481504707
0.3363982362
0.3244456672
0.3121730425
0.299462105
0.2862162212
0.2723745851
0.2579380101
0.2429919563
0.2277144397
0.2123679219
0.1972664203
0.1827293667
0.169038047
0.1564102063
0.1449970293
0.1348972755
0.1261719727
0.1188411563
0.1128033385
)
;

boundaryField
{
    front_top
    {
        type            wedge;
    }
    front_middle
    {
        type            wedge;
    }
    front_bottom
    {
        type            wedge;
    }
    back_top
    {
        type            wedge;
    }
    back_middle
    {
        type            wedge;
    }
    back_bottom
    {
        type            wedge;
    }
    axis_top
    {
        type            symmetryPlane;
    }
    axis_middle
    {
        type            symmetryPlane;
    }
    axis_bottom
    {
        type            symmetryPlane;
    }
    wall_top
    {
        type            calculated;
        value           nonuniform 0();
    }
    wall_middle
    {
        type            calculated;
        value           nonuniform List<scalar> 
23
(
0.3287299511
0.3173821488
0.3059498801
0.2944712698
0.2829848417
0.2715283561
0.2601389043
0.2488514798
0.2377026952
0.2267203764
0.2159457625
0.2053844769
0.1951077641
0.185043797
0.1753911185
0.1658105084
0.1569559958
0.1476234356
0.1399178129
0.1300583949
0.1243339814
0.1119378415
0.1101207344
)
;
    }
    wall_bottom
    {
        type            calculated;
        value           nonuniform 0();
    }
    inlet
    {
        type            calculated;
        value           nonuniform 0();
    }
    outlet
    {
        type            calculated;
        value           nonuniform 0();
    }
    procBoundary3to2
    {
        type            processor;
        value           nonuniform List<scalar> 
51
(
0.7600322103
0.7600322103
0.7879822925
0.7881941644
0.7782240981
0.7670324751
0.7540764145
0.7392700464
0.7229411951
0.7054095628
0.6869480728
0.6678088672
0.648223519
0.628403183
0.6085297432
0.5887615629
0.5692316124
0.5500483149
0.5312973596
0.5130467789
0.4953382017
0.4782003856
0.4616478335
0.4456757548
0.4302704746
0.4154069691
0.4010483196
0.3871474679
0.3736492802
0.3604886848
0.3475896666
0.3348691711
0.3222324279
0.3095777834
0.2967969247
0.2837805206
0.270428072
0.2566655341
0.2424642502
0.2278695456
0.2130180699
0.1981354897
0.1835102427
0.1694416616
0.1561795744
0.1438751706
0.1325579112
0.1221456204
0.1124777994
0.1033613594
0.09465935703
)
;
    }
    procBoundary3to4
    {
        type            processor;
        value           nonuniform List<scalar> 
51
(
2.667824805
2.652023616
2.661011235
2.639887032
2.619593918
2.595783868
2.567995299
2.536913969
2.503032246
2.466765811
2.428534832
2.388743617
2.347784654
2.306010878
2.263726817
2.221223982
2.178705852
2.136353657
1.985330028
1.985330028
1.946078395
1.90716982
1.868562775
1.830165571
1.791834463
1.753383679
1.714575447
1.675126262
1.634713022
1.592960438
1.54944863
1.50371727
1.455262633
1.403557666
1.348087662
1.288401031
1.224200089
1.155455607
1.082564914
1.006461904
0.9286192579
0.8509054329
0.7752703759
0.7034438811
0.6366813415
0.5757042228
0.5207443563
0.4716659779
0.4280998304
0.3895298132
0.3553188888
)
;
    }
}


// ************************************************************************* //
