/*--------------------------------*- C++ -*----------------------------------*\
  =========                 |
  \\      /  F ield         | OpenFOAM: The Open Source CFD Toolbox
   \\    /   O peration     | Website:  https://openfoam.org
    \\  /    A nd           | Version:  7
     \\/     M anipulation  |
\*---------------------------------------------------------------------------*/
FoamFile
{
    version     2.0;
    format      ascii;
    class       volTensorField;
    location    "0.0009";
    object      grad(U);
}
// * * * * * * * * * * * * * * * * * * * * * * * * * * * * * * * * * * * * * //

dimensions      [0 0 -1 0 0 0 0];

internalField   nonuniform List<tensor> 
1167
(
(-10.88265579 -1.106175301e-13 0.6371305607 2.087007846e-13 -17.892593 0 0.5268455206 -3.139281071e-14 29.60498538)
(-14.4134374 -9.165796705e-14 1.478147687 1.4264097e-13 -15.59922969 0 1.274241038 -2.056138823e-13 29.53287322)
(-14.14035102 4.71577892e-14 2.400763506 8.795915508e-14 -14.87001484 0 2.011352331 5.088161602e-14 29.38793694)
(-14.32762802 8.764747336e-14 3.318862542 6.459230854e-14 -14.72035269 0 2.763134575 -5.726736098e-14 29.17367212)
(-14.16017442 -7.813660842e-14 4.212242201 1.033077947e-13 -14.62039843 8.264623579e-13 3.479910366 7.170450823e-14 28.89526538)
(-13.90855711 -5.376592741e-14 5.085813867 8.69081447e-14 -14.51621003 -3.476325788e-13 4.159685625 -7.641598659e-14 28.55676062)
(-13.62042973 5.58963279e-14 5.942944552 3.780570658e-14 -14.40543075 -3.024456527e-13 4.801541992 7.323983909e-14 28.16136931)
(-13.28939358 1.131723704e-14 6.783413081 0 -14.28564004 0 5.402063242 1.042779015e-13 27.71223945)
(-12.91712762 -4.447083754e-15 7.607943719 0 -14.15554439 -2.445000679e-13 5.958641046 1.369151339e-13 27.21234096)
(-12.507289 7.907374236e-14 8.417946121 0 -14.01492839 0 6.469448859 1.597972584e-13 26.66431792)
(-12.06232721 -7.759023889e-14 9.214964672 2.615286525e-14 -13.86399056 2.09222922e-13 6.93301516 8.650451834e-14 26.07054528)
(-11.58410015 -1.358381297e-13 10.00058138 2.454963728e-14 -13.70307738 1.963970982e-13 7.34816363 4.062000937e-14 25.43318186)
(-11.07427498 -3.614467598e-14 10.77640014 0 -13.53259976 0 7.714040419 6.400945168e-14 24.75422389)
(-10.53429952 -7.796352977e-14 11.54400618 0 -13.35299611 0 8.030040854 1.044920566e-13 24.03547168)
(-9.965445025 -2.681537777e-14 12.30490495 4.230962532e-14 -13.16470091 0 8.295749399 9.356386725e-14 23.27858212)
(-9.368902513 -3.576068251e-14 13.06047686 -4.068770988e-14 -12.96814014 -8.137541976e-14 8.510995366 9.109761648e-14 22.4851492)
(-8.745770905 -5.298835463e-14 13.81199891 7.858084741e-14 -12.76372622 0 8.675774514 8.845144056e-14 21.65663581)
(-8.097078671 -9.710787548e-14 14.56072973 1.142397999e-13 -12.55185586 7.615986658e-14 8.790238264 9.465185232e-14 20.79444827)
(-11.62320707 2.172923555e-13 0.6865207914 1.087789646e-13 -19.10294651 0 0.5695402494 -1.5196515e-13 31.61425615)
(-15.39316989 -8.966689334e-14 1.591420508 -7.434728646e-14 -16.65832183 1.189556583e-12 1.378727543 -4.851069296e-14 31.53566448)
(-15.09625207 -7.252987779e-14 2.584254759 0 -15.8797318 0 2.175808964 -5.989531394e-14 31.37744032)
(-15.29187108 -1.153350407e-13 3.572983004 3.366678498e-14 -15.71774941 5.386685597e-13 2.988351836 1.544775605e-14 31.14356278)
(-15.10960442 -1.095325612e-13 4.535362913 8.076908975e-14 -15.60945498 4.307684787e-13 3.76282586 1.862533945e-13 30.83982616)
(-14.8351935 -2.494942062e-14 5.476590312 0 -15.49632769 0 4.496724891 7.404875756e-15 30.47059464)
(-14.52096418 -8.959653477e-14 6.400450191 7.882031924e-14 -15.37580594 0 5.188975433 8.567132866e-14 30.03952995)
(-14.160447 -5.631264886e-14 7.306797447 3.511824143e-14 -15.24540903 -2.809459314e-13 5.835894058 1.331875451e-13 29.55018827)
(-13.7553739 -1.549420215e-14 8.196346367 6.371912854e-14 -15.10379224 0 6.434658856 1.261327383e-13 29.00586086)
(-13.30975325 1.671488867e-14 9.070598172 0 -14.95075168 0 6.98327087 1.225897708e-13 28.40953371)
(-12.8263672 -5.11177089e-15 9.93118716 0 -14.78653038 0 7.480157572 1.817688151e-13 27.76393532)
(-12.30737992 -2.514165952e-14 10.77974805 0 -14.61153262 0 7.924135655 8.205497799e-14 27.07156482)
(-11.75466546 -9.15255192e-14 11.61796518 -2.420509599e-14 -14.42623424 0 8.314324412 1.215476214e-13 26.33467764)
(-11.16985889 -9.04975147e-14 12.44748465 2.304064024e-14 -14.23112975 -1.843251219e-13 8.65010475 1.135300691e-13 25.55536043)
(-10.5544835 -3.854899772e-14 13.26978371 4.410522197e-14 -14.02671237 0 8.931172458 8.296983513e-14 24.73557989)
(-9.909933727 -3.943220583e-14 14.08627207 8.482894699e-14 -13.81346764 0 9.157438817 1.003715747e-13 23.8771613)
(-9.237472648 -1.10394306e-14 14.89825016 4.095788746e-14 -13.59186315 -8.191577492e-14 9.329016909 7.818791713e-14 22.9818243)
(-8.538279232 -1.325785187e-14 15.70691643 3.969602431e-14 -13.3623477 0 9.446199772 8.223510366e-14 22.05117686)
(-7.813427368 -2.050518231e-14 16.51351294 7.719598048e-14 -13.1253503 0 9.509411312 3.891492456e-14 21.08673328)
(-7.063864088 4.359389231e-14 17.31931085 3.763924598e-14 -12.88127839 -1.505569839e-13 9.519203149 5.019736702e-14 20.0898718)
(-6.290374221 5.976415219e-14 18.12570818 7.360011046e-14 -12.63051624 7.360011046e-14 9.476203343 5.885931484e-14 19.06179572)
(-5.493530042 4.391823206e-14 18.93439221 7.212874039e-14 -12.3734219 0 9.381050952 2.243623557e-14 18.00348015)
(-4.67364192 1.556499481e-14 19.74746661 1.062570313e-13 -12.1103236 1.416760417e-13 9.23436208 8.608977616e-15 16.91560546)
(-3.830653532 -3.413829435e-14 20.56761353 6.97061085e-14 -11.84151563 6.97061085e-14 9.036656807 1.372756685e-14 15.79846492)
(-2.964030428 -3.610208841e-14 21.3982639 3.435737782e-14 -11.5672505 0 8.788278393 2.222109982e-14 14.65185463)
(-2.072658758 -2.892179229e-14 22.24385506 3.39243016e-14 -11.28773152 0 8.489314652 1.979354125e-14 13.47492401)
(-1.15465494 -3.177822328e-15 23.11013226 0 -11.00310365 -6.70946405e-14 8.139471699 1.02689387e-14 12.26599856)
(-0.207149514 2.199586109e-14 24.00449466 3.322088754e-14 -10.71344028 0 7.737930114 4.586345482e-15 11.02235956)
(0.7739569625 1.785335834e-14 24.93649511 6.58805007e-14 -10.41872871 0 7.283189735 2.027774809e-14 9.739945257)
(1.79438288 -2.027864557e-14 25.9184691 3.270131191e-14 -10.11885211 0 6.772820675 2.098235328e-14 8.412979164)
(2.861939773 5.097250637e-14 26.96633029 0 -9.81356473 -6.50010542e-14 6.203180002 3.910171587e-15 7.033485571)
(3.987118853 1.144349259e-13 28.10061863 3.23348135e-14 -9.502462511 0 5.569046524 -3.788491344e-14 5.590629781)
(5.183877945 3.974870359e-14 29.34787286 6.440296278e-14 -9.184945637 9.660444417e-14 4.863119353 -2.169944185e-14 4.069903551)
(6.470631233 5.507470014e-14 30.74235259 4.814726205e-14 -8.860171566 0 4.075422387 -4.260217548e-14 2.452091761)
(7.871395597 1.332199493e-14 32.32788191 3.202282349e-14 -8.526996695 3.202282349e-14 3.192581788 -1.599995621e-14 0.7120778131)
(9.41690625 -5.857664151e-14 34.15959917 3.197360389e-14 -8.183908351 0 2.19705264 2.510993933e-15 -1.18237653)
(11.14552075 -6.193220323e-15 36.30521696 7.98722621e-14 -7.828952885 9.584671452e-14 1.066422864 -1.826755213e-14 -3.271619832)
(13.10344206 -1.845393248e-14 38.84468172 3.194729816e-14 -7.459666778 0 -0.2269471451 -9.444165641e-16 -5.604361183)
(15.34366582 -5.572463e-15 41.86734806 1.598375942e-14 -7.073030161 -3.196751883e-14 -1.715705059 1.954529249e-15 -8.236657584)
(17.92355296 5.673371061e-14 45.46663605 3.200844058e-14 -6.665463794 0 -3.4364601 -2.728826103e-14 -11.22939826)
(20.90115931 3.996105848e-14 49.7328222 0 -6.23288156 3.20690626e-14 -5.42803107 -1.118751719e-14 -14.64461365)
(24.33118903 1.10259279e-13 54.74563354 -1.607424568e-14 -5.77080578 -3.214849136e-14 -7.729289317 -4.855356503e-14 -18.54133544)
(28.261741 1.15458693e-13 60.56883338 -1.612296491e-14 -5.274524305 0 -10.37724637 -2.500297569e-14 -22.97210893)
(32.73228451 6.478454255e-14 67.24797138 8.090167265e-15 -4.739262443 1.618033453e-14 -13.40562879 3.247819217e-15 -27.98102201)
(37.77200098 5.413230122e-14 74.81161603 2.436905471e-14 -4.160346004 1.624603647e-14 -16.84353328 3.917183961e-15 -33.60339859)
(43.39879278 -5.123839753e-15 83.27510856 1.63197882e-14 -3.533363978 0 -20.71437665 4.596276775e-14 -39.86713096)
(49.63286096 2.757314636e-14 92.63731937 8.200668566e-15 -2.854303666 -8.200668566e-15 -25.04293474 3.099530447e-14 -46.79027456)
(56.54474879 1.774495672e-13 102.8597686 0 -2.119304716 -8.245229005e-15 -29.88268276 -9.435024115e-14 -54.36842234)
(64.25777351 2.665615311e-13 113.878296 8.293475361e-15 -1.323573275 0 -35.31984671 -1.801633196e-13 -62.57968078)
(71.84816811 1.834635624e-13 126.2795065 1.043164853e-15 -0.4612606148 2.086329707e-15 -40.83980741 -9.883653745e-14 -71.77477875)
(-12.44168608 -3.016388157e-13 0.7418908686 -5.107299881e-13 -20.44055878 0 0.6160763363 -2.098707091e-14 33.83461373)
(-16.47583418 -1.832840684e-13 1.718499369 3.878546932e-14 -17.82882606 -1.241135018e-12 1.49250322 2.900092184e-13 33.74863643)
(-16.15219415 -3.774393852e-14 2.790017874 9.566780457e-14 -16.99557177 0 2.354879139 2.148489176e-13 33.57529567)
(-16.35658872 -2.315814245e-13 3.857720638 7.025311175e-14 -16.81979688 0 3.233663568 5.307837726e-14 33.31922849)
(-16.15746054 -4.076399232e-14 4.897227787 8.427118735e-14 -16.70209568 -4.494463325e-13 4.071020937 -3.908120174e-15 32.98672061)
(-15.85722229 6.110873174e-14 5.914032602 4.726234237e-14 -16.57887215 0 4.863902834 1.432911196e-13 32.58269591)
(-15.5133559 -1.04483919e-13 6.912196761 8.223791932e-14 -16.44732851 0 5.611139251 1.026675025e-13 32.11117813)
(-15.11938251 -5.030973731e-14 7.891666743 7.328189333e-14 -16.30491497 0 6.308690701 9.984856638e-14 31.57621687)
(-14.67714455 -3.116341414e-15 8.853232399 3.324097508e-14 -16.15024243 0 6.953473229 9.29426295e-14 30.9815473)
(-14.19104646 -1.732018627e-15 9.798434204 6.115817497e-14 -15.98312581 0 7.543337518 1.213302389e-13 30.33056264)
(-13.66427566 -2.888932649e-15 10.72897157 1.137795013e-13 -15.80386329 0 8.076621787 6.210463811e-14 29.62637655)
(-13.09926864 -3.379363325e-14 11.64660714 8.010342696e-14 -15.6129309 0 8.5520525 1.014417881e-13 28.87184332)
(-12.49814521 -6.126216882e-14 12.55307345 1.010184555e-13 -15.41086892 0 8.968701079 1.316771702e-13 28.06957157)
(-11.86288004 -3.497959518e-14 13.44999605 4.80793362e-14 -15.19824197 0 9.326032789 6.923629088e-14 27.22203553)
(-11.1952461 -2.332337183e-14 14.3389266 4.601759682e-14 -14.97561828 0 9.623792217 5.688102618e-14 26.33150441)
(-10.49684595 -3.790073596e-14 15.22128442 8.850707783e-14 -14.74354954 0 9.861980065 5.203276112e-14 25.40011303)
(-9.769183555 -3.672435575e-14 16.09838478 8.546759156e-14 -14.50256908 0 10.04084091 5.910774919e-14 24.42986825)
(-9.013627201 -2.984951948e-14 16.97146943 4.141721944e-14 -14.25318853 0 10.16081452 8.246782549e-14 23.422651)
(-8.231408362 -6.764366141e-15 17.84173689 4.027157517e-14 -13.99589457 -8.054315033e-14 10.22249718 6.084766372e-14 22.38020804)
(-7.423650032 -2.43911342e-14 18.7104947 7.854252019e-14 -13.73114806 0 10.22662396 6.189232222e-14 21.30413285)
(-6.591275038 5.988076707e-14 19.57925634 0 -13.45938493 -1.535827313e-13 10.1740028 6.350160904e-14 20.19580129)
(-5.734926445 1.307061991e-13 20.4498014 7.525619784e-14 -13.18100892 0 10.06545651 2.488413134e-14 19.05633458)
(-4.854956685 5.572084434e-14 21.3243398 7.390951373e-14 -12.89638843 0 9.901783216 4.428762859e-14 17.88651387)
(-3.951325744 1.228714289e-14 22.20572639 7.272852209e-14 -12.60585227 0 9.683665253 3.726858939e-14 16.68668175)
(-3.023478641 -1.505297819e-15 23.09765732 3.584709226e-14 -12.30968248 0 9.411596311 2.069126686e-14 15.45662913)
(-2.070212597 -5.15028371e-15 24.0049151 7.079047676e-14 -12.00810602 1.415809535e-13 9.085779177 -2.199286838e-15 14.19543497)
(-1.089482984 -1.910748856e-14 24.93367376 7.000382213e-14 -11.70128454 7.000382213e-14 8.705993801 -2.397238045e-15 12.90129361)
(-0.07819477878 -2.650372772e-14 25.89187622 3.466132462e-14 -11.3893006 0 8.271462318 1.502242577e-14 11.5712727)
(0.9680728976 9.632583e-15 26.8897214 3.436851914e-14 -11.07214301 0 7.780666191 1.449977746e-14 10.20100303)
(2.055447494 7.430259963e-15 27.94031944 3.411922064e-14 -10.74968698 -6.823844128e-14 7.231086714 2.45915186e-14 8.784299985)
(3.192236796 2.82139547e-14 29.06059225 3.390972959e-14 -10.42167 0 6.618927099 4.57689732e-15 7.312641248)
(4.389598399 8.460564667e-14 30.27236956 3.373683107e-14 -10.08766124 0 5.938703269 1.397612861e-14 5.774497791)
(5.662346975 8.071326682e-14 31.60370992 3.359771757e-14 -9.74702119 0 5.182746537 1.555407909e-14 4.154495183)
(7.029909888 2.197776764e-14 33.09062112 5.023489746e-14 -9.398853566 6.697986329e-14 4.34057922 2.392539618e-14 2.432344658)
(8.517505929 1.517212951e-14 34.77904268 6.682262632e-14 -9.041946595 6.682262632e-14 3.398173642 3.536105415e-14 0.5816347937)
(10.15734001 2.684434244e-14 36.72661386 0 -8.674703107 0 2.337164144 8.366317816e-15 -1.431407994)
(11.98944191 -1.110054552e-14 39.00376661 3.333418948e-14 -8.29506586 0 1.134141038 2.235947667e-14 -3.648914736)
(14.06186804 -1.176728855e-14 41.69335694 3.333251307e-14 -7.900450243 0 -0.2397230266 3.197074757e-14 -6.121583796)
(16.42964305 1.698623819e-14 44.88773572 3.335361057e-14 -7.487696467 0 -1.818423744 7.404236021e-15 -8.907621951)
(19.15222637 3.833726443e-14 48.68317854 0 -7.053068427 3.339630691e-14 -3.640093355 -1.602724996e-14 -12.07018644)
(22.28980164 9.100084626e-15 53.17257424 1.672977856e-14 -6.592308669 3.345955712e-14 -5.745190716 3.241620834e-14 -15.67361662)
(25.89914936 5.812601765e-14 58.43783281 0 -6.100756343 0 -8.174340153 -1.704160806e-14 -19.77918957)
(30.0303051 3.806316606e-14 64.5443313 0 -5.573508582 -5.04661399e-14 -10.96634681 4.339596198e-14 -24.44158167)
(34.7244292 2.444908519e-14 71.53848598 8.440951865e-15 -5.005596723 1.688190373e-14 -14.15671303 5.821108493e-14 -29.7067375)
(40.01201773 5.666152943e-14 79.44905425 8.475227306e-15 -4.392155352 0 -17.77620999 4.783213487e-14 -35.61160137)
(45.91187444 1.321536075e-13 88.29107005 2.554110616e-14 -3.728591335 0 -21.8497839 -1.996227898e-14 -42.18550749)
(52.44557675 2.674912637e-13 98.06208815 8.556244464e-15 -3.010723884 0 -26.40403775 -1.585836284e-13 -49.44741605)
(59.68836851 2.570235698e-13 108.7202298 -4.301368495e-15 -2.234519659 -8.602736991e-15 -31.49621765 -1.468431624e-13 -57.39266818)
(67.76979912 1.239738947e-13 120.1976907 4.326537665e-15 -1.394940705 4.326537665e-15 -37.21740152 -6.046654769e-14 -65.99889112)
(75.71089551 6.417283867e-14 133.1139425 1.088395833e-15 -0.4858605108 2.176791665e-15 -43.02267358 -2.287218932e-14 -75.63724414)
(-13.3470003 -3.577183868e-13 0.8041935172 0 -21.91999315 0 0.6666279407 1.819320258e-13 36.29020539)
(-17.67326648 -3.107450338e-13 1.861528131 3.240355546e-13 -19.123483 0 1.615973262 1.605575718e-13 36.1959143)
(-17.31978645 2.691852003e-13 3.021462092 2.497695226e-13 -18.22971457 -7.992624722e-13 2.549304162 1.572275805e-13 36.00556905)
(-17.53346911 1.566207841e-13 4.177895114 3.668336754e-14 -18.03855356 5.869338807e-13 3.500069421 1.127723605e-13 35.72444658)
(-17.31518738 -2.875094884e-13 5.303936444 8.80060929e-14 -17.91027739 -4.693658288e-13 4.40578164 5.584090647e-14 35.35941587)
(-16.98581023 -1.424798149e-13 6.405370138 9.871402602e-14 -17.77568183 0 5.262809486 1.439994764e-13 34.91607773)
(-16.60849158 -2.209970131e-14 7.4866822 4.294135511e-14 -17.63171859 0 6.069862587 1.045151438e-13 34.3989246)
(-16.17671074 -6.038675781e-14 8.547739342 7.652975247e-14 -17.47575274 0 6.82256981 5.590598375e-14 33.812465)
(-15.69249946 -5.844463989e-14 9.589376639 6.942843532e-14 -17.30634601 0 7.517536068 7.755278036e-14 33.16095312)
(-15.16074096 6.985640145e-14 10.61325384 6.38687099e-14 -17.12334346 -2.554748396e-13 8.152411619 9.161339609e-14 32.44825902)
(-14.58500086 2.883527458e-14 11.62116039 1.485277725e-13 -16.92710936 2.37644436e-13 8.72539663 9.158171388e-14 31.67794673)
(-13.96806795 -1.15404957e-13 12.61490383 5.576907784e-14 -16.71819234 0 9.235122548 1.286333665e-13 30.85330464)
(-13.31246798 -3.997294259e-14 13.5962325 5.274780053e-14 -16.49721536 -2.109912021e-13 9.680694632 4.918429041e-14 29.97741276)
(-12.62046228 1.113058501e-14 14.56685614 5.021021609e-14 -16.26483207 0 10.06157152 -1.166858348e-14 29.05310114)
(-11.89409866 -9.573875494e-15 15.5283553 4.805710052e-14 -16.02168811 0 10.37754514 4.157767905e-14 28.0830295)
(-11.13529375 -3.91291825e-14 16.48217659 4.621485915e-14 -15.7684164 0 10.62872315 1.921864072e-14 27.06970001)
(-10.34579773 -6.537269657e-14 17.4296582 4.462776086e-14 -15.50562682 0 10.81547645 2.450653791e-14 26.01547092)
(-9.527219694 -2.741317296e-14 18.37205244 4.325283376e-14 -15.2339033 -1.73011335e-13 10.93841022 1.113624909e-14 24.92253837)
(-8.681023788 1.301941739e-14 19.31064582 8.411282905e-14 -14.9538014 0 10.99830168 -2.158378914e-14 23.7929372)
(-7.808494969 4.325459627e-15 20.24678406 4.101176535e-14 -14.66584725 0 10.99608599 -3.201191498e-14 22.62850755)
(-6.910689185 4.397398493e-14 21.18202526 0 -14.37053405 -8.019476504e-14 10.93276606 -1.843942344e-14 21.43084001)
(-5.988394649 8.024167368e-14 22.11829758 7.859155796e-14 -14.06831895 0 10.8093788 1.935150592e-14 20.20122943)
(-5.042036011 6.218533293e-14 23.05802978 3.859259449e-14 -13.75961922 0 10.62691787 3.769171482e-14 18.94057211)
(-4.071576951 4.487389944e-14 24.00431234 3.797592812e-14 -13.44480512 0 10.38625395 3.738393222e-14 17.64927863)
(-3.076418669 5.129148509e-14 24.96112946 3.743583801e-14 -13.12419328 0 10.08804709 2.480257251e-14 16.32713728)
(-2.055252809 2.830053034e-14 25.93362665 7.392791599e-14 -12.79803767 7.392791599e-14 9.732629771 2.483132557e-14 14.97316074)
(-1.005880227 -2.220321237e-14 26.92843929 3.65531985e-14 -12.46651918 0 9.319878795 3.739908442e-14 13.58539805)
(0.07501912873 -3.421796571e-14 27.95412511 3.619751744e-14 -12.12973227 0 8.849070801 2.341489903e-14 12.16068067)
(1.192214271 -2.895173118e-14 29.02165996 3.589173454e-14 -11.78766903 0 8.318667786 2.684431127e-14 10.69430577)
(2.352299711 -1.69805828e-14 30.14507122 7.126277371e-14 -11.4401973 0 7.726074568 2.411711129e-14 9.179635661)
(3.564170807 2.732027661e-15 31.34233534 3.54126117e-14 -11.08703629 0 7.067326191 2.015766433e-14 7.607551937)
(4.839686987 4.507225139e-14 32.63656913 0 -10.72772471 -7.046409988e-14 6.336667109 3.102565932e-14 5.965772126)
(6.194546957 7.856832596e-14 34.05750389 3.508677095e-14 -10.36158088 0 5.526035508 4.162926884e-14 4.23796904)
(7.649322884 7.626699855e-14 35.64314636 3.497420802e-14 -9.987650796 0 4.62441263 5.543514855e-14 2.402687631)
(9.2305731 4.569366493e-14 37.44167106 5.23381576e-14 -9.604647361 3.489210506e-14 3.617067709 4.977497737e-14 0.432099239)
(10.9720669 -2.82382175e-15 39.51335572 5.225771336e-14 -9.210880802 6.967695114e-14 2.484739819 8.022995129e-14 -1.709253664)
(12.91568935 -2.111130939e-14 41.93163707 3.48115633e-14 -8.804181456 0 1.202931904 7.964295202e-14 -4.065446575)
(15.11154656 -1.543325671e-14 44.7825379 3.48098125e-14 -8.381830933 0 -0.2584864503 4.793633405e-14 -6.689374791)
(17.61691372 5.372744079e-14 48.16172539 3.483184512e-14 -7.940516314 0 -1.935007346 4.710176332e-14 -9.64165067)
(20.49363958 2.673632883e-15 52.16878052 5.231465107e-14 -7.4763276 3.487643405e-14 -3.866454052 1.078081283e-13 -12.98799483)
(23.80433291 1.800015816e-14 56.89962073 3.494248713e-14 -6.984816779 0 -6.095124503 1.037216482e-13 -16.79536986)
(27.60817198 4.318765073e-14 62.43879327 1.751451657e-14 -6.461117682 -3.502903315e-14 -8.663602138 3.638403268e-14 -21.12763669)
(31.95743834 -3.734830802e-14 68.85374717 3.513520203e-14 -5.900112508 3.513520203e-14 -11.61270323 1.168764895e-13 -26.04195545)
(36.89530437 2.6014744e-14 76.19222529 8.815055544e-15 -5.296612773 -3.526022217e-14 -14.97992321 4.908132736e-14 -31.586457)
(42.45389988 1.125371748e-13 84.48366744 8.850850003e-15 -4.645534304 -1.770170001e-14 -18.79792734 -2.661387642e-15 -37.80007212)
(48.65316981 2.529602225e-13 93.74316077 8.891029995e-15 -3.942073373 0 -23.09337195 -1.032103103e-13 -44.71386193)
(55.51634308 1.849569973e-13 103.9672396 8.93545788e-15 -3.181853707 -1.787091576e-14 -27.89488806 -8.244460597e-14 -52.34794999)
(63.12394071 1.210121707e-13 115.1108076 1.347601639e-14 -2.360639979 0 -33.26386971 -6.609748561e-15 -60.69761815)
(71.61252596 2.292767514e-13 127.1024402 4.518290162e-15 -1.473114715 -4.518290162e-15 -39.29675215 -8.113113892e-14 -69.74010992)
(79.94311472 2.700159742e-13 140.597626 0 -0.5128326414 0 -45.41561936 -1.464609204e-13 -79.86889295)
(-14.34895009 -2.701190975e-13 0.8744069366 3.716935577e-13 -23.5571249 0 0.7213546558 2.474829226e-14 39.00756081)
(-18.9984933 -1.945834735e-13 2.02281657 2.963821373e-13 -20.55626086 0 1.749491349 -5.354038616e-14 38.90399017)
(-18.6116861 1.070878216e-14 3.282488089 2.610903079e-13 -19.59553344 0 2.759596653 -9.417349547e-14 38.694548)
(-18.8352748 -5.864247686e-14 4.538909742 1.53384154e-13 -19.38720823 0 3.788239767 1.924984637e-13 38.38522183)
(-18.59544718 -7.426676672e-14 5.762366169 9.199496264e-14 -19.24709337 0 4.768003921 1.588895419e-13 37.98371074)
(-18.23330228 -1.50650788e-14 6.958873443 1.031882321e-13 -19.09975388 0 5.694612492 4.332739293e-14 37.49614196)
(-17.81836511 1.130958845e-14 8.133426211 8.977533778e-14 -18.94184604 -3.591013511e-13 6.566592082 9.618150833e-14 36.92765773)
(-17.34410844 -1.011699247e-14 9.28586805 7.999845782e-14 -18.77066228 3.199938313e-13 7.379230471 1.018518157e-13 36.28331502)
(-16.81268376 -8.483652658e-14 10.41699316 1.451505484e-13 -18.58470639 0 8.128800691 9.640198504e-14 35.56788392)
(-16.22951014 -4.101003507e-14 11.52851528 6.676355471e-14 -18.38385016 -2.670542189e-13 8.812713581 6.125992214e-14 34.78577648)
(-15.59866463 -1.146253866e-14 12.62229729 6.210391316e-14 -18.16853212 -2.484156526e-13 9.429018175 1.190539111e-13 33.94110345)
(-14.92339356 5.670275372e-14 13.70019749 8.744521056e-14 -17.93939214 0 9.97627915 5.453847709e-14 33.03766551)
(-14.20655521 1.235772125e-13 14.76406474 5.513859066e-14 -17.69715293 -2.205543626e-13 10.45352154 1.165244336e-14 32.0790014)
(-13.45077112 -3.910821381e-14 15.81563889 1.049719815e-13 -17.44255657 2.09943963e-13 10.86019182 -7.987918058e-15 31.06840504)
(-12.65847167 -5.298252703e-14 16.85651948 1.004705698e-13 -17.17634636 2.009411396e-13 11.19615793 3.83928213e-15 30.00901313)
(-11.83188605 1.269069082e-14 17.88816773 4.830954426e-14 -16.89924559 0 11.46161184 -3.253138137e-15 28.90374008)
(-10.97310797 -2.769874095e-14 18.91197508 4.665051107e-14 -16.61195303 0 11.65706441 -1.870368401e-15 27.75535789)
(-10.08401548 1.567452067e-14 19.92926162 4.521326526e-14 -16.31513923 0 11.78327517 -2.848404826e-14 26.56644065)
(-9.166315814 5.499620537e-14 20.94131843 1.318878555e-13 -16.00943815 2.63775711e-13 11.84122102 -2.893856191e-14 25.33936304)
(-8.221542341 -5.212297135e-14 21.94962755 8.574124122e-14 -15.69545123 8.574124122e-14 11.83203989 1.53851243e-14 24.07626456)
(-7.250929398 -7.944981861e-14 22.95589459 4.191479354e-14 -15.37374171 0 11.75696078 2.312839102e-14 22.7789941)
(-6.255377394 1.941523335e-14 23.96217686 4.107685733e-14 -15.04482955 0 11.61724588 -1.24306635e-14 21.44904922)
(-5.235401937 4.329652248e-14 24.97109857 4.034180075e-14 -14.70918701 0 11.414104 3.67098792e-14 20.08747543)
(-4.191023613 4.210072478e-14 25.98605214 3.969718432e-14 -14.36723354 0 11.14862098 4.389454677e-14 18.69476694)
(-3.121613313 3.263598924e-14 27.01142049 7.826522946e-14 -14.01932761 0 10.82163645 3.636425121e-14 17.27072203)
(-2.025746785 2.184783368e-14 28.05281479 7.727869322e-14 -13.66575624 0 10.43363736 4.118259932e-14 15.81429182)
(-0.9010352233 3.209040436e-14 29.1174113 0 -13.30672398 -7.641993968e-14 9.984620762 2.897757313e-14 14.32336855)
(0.2561169635 6.281726995e-16 30.21440359 3.783816731e-14 -12.94233948 0 9.473921967 2.506054634e-14 12.79452978)
(1.450831468 -3.847114333e-15 31.35556073 7.503704909e-14 -12.57259865 7.503704909e-14 8.900000165 9.460160066e-15 11.22270993)
(2.690170116 -4.583050301e-15 32.55594423 3.724637705e-14 -12.19736343 0 8.260187616 -3.627463809e-15 9.600771146)
(3.9836779 -4.522375453e-14 33.83480607 3.701768557e-14 -11.81633506 0 7.550339643 2.872056498e-14 7.91894291)
(5.344041831 -3.546224123e-14 35.21670804 3.682894018e-14 -11.42902 0 6.76441818 1.953943904e-14 6.164117139)
(6.78792972 -6.662047049e-15 36.7330597 0 -11.0346891 -7.335415245e-14 5.89393913 3.418937081e-14 4.318931166)
(8.337100268 3.552403729e-14 38.4240116 1.827970562e-14 -10.63232599 -7.311882247e-14 4.927305527 3.8175133e-14 2.36064864)
(10.01961147 3.910937395e-14 40.34028435 3.647358736e-14 -10.22056259 0 3.849025983 2.933355497e-14 0.2598948133)
(11.87096246 3.090510835e-14 42.54496496 1.820876349e-14 -9.797606842 -3.641752698e-14 2.638871413 5.739519417e-14 -2.020630255)
(13.93505429 8.635373969e-14 45.11473215 3.638939483e-14 -9.361166491 0 1.271145594 2.528012478e-14 -4.527147404)
(16.26428791 -2.459003407e-14 48.13916536 5.458134729e-14 -8.908376303 7.277512973e-14 -0.2857023296 9.926857397e-14 -7.314992638)
(18.91843564 -1.625142858e-13 51.71757968 1.820529796e-14 -8.435754184 0 -2.068827803 1.486269989e-13 -10.44745115)
(21.96201689 -6.424514451e-14 55.95326055 0 -7.939198272 -3.645720586e-14 -4.119912142 1.245951332e-13 -13.9931086)
(25.46039276 1.496720287e-13 60.9456432 1.826312648e-14 -7.414048812 -3.652625295e-14 -6.483307931 -3.505437579e-15 -18.02188964)
(29.47548796 1.013396368e-13 66.78244222 1.830836064e-14 -6.8552106 -3.661672127e-14 -9.203776636 8.071368963e-14 -22.60062867)
(34.06216408 3.127593439e-14 73.53362637 0 -6.257324327 -3.672770277e-14 -12.32436681 6.992834159e-14 -27.78929985)
(39.26591174 1.387948713e-13 81.2486904 2.764379179e-14 -5.614953964 0 -15.88478548 -3.934658968e-14 -33.63857069)
(45.12080384 1.412197074e-13 89.95822814 3.700805641e-14 -4.922767643 0 -19.91981336 -5.924542992e-14 -40.18972122)
(51.64818372 2.508022701e-13 99.67777291 1.858803059e-14 -4.175721417 0 -24.45799765 -9.922347849e-14 -47.47583422)
(58.87323307 1.984573436e-13 110.4031761 9.340456858e-15 -3.369214589 -1.868091372e-14 -29.5302156 -6.705476427e-14 -55.51848193)
(66.88236042 1.825416549e-13 122.0862937 1.408681581e-14 -2.498779326 0 -35.20240441 -9.202986113e-14 -64.31308229)
(75.81997765 2.954232036e-13 134.6520726 9.446162701e-15 -1.5587812 4.72308135e-15 -41.57689464 -1.649644011e-13 -73.83658797)
(84.58192244 2.444575205e-13 148.7953794 3.564454363e-15 -0.5424127836 2.376302909e-15 -48.03985705 -1.452105257e-13 -84.50678993)
(-15.45814881 -2.211789847e-13 0.953629377 0 -25.36921075 0 0.7803264888 -1.148857568e-13 42.01535898)
(-20.46553408 -1.833589502e-13 2.205052339 3.101267001e-13 -22.14230821 1.417722057e-12 1.893106995 -2.757096382e-14 41.90141757)
(-20.04156213 -1.075718035e-13 3.57747308 2.185585849e-13 -21.10746697 0 2.985789077 1.896142994e-13 41.67059105)
(-20.27588 -1.317362781e-13 4.946670867 1.60497262e-13 -20.8800246 0 4.098340633 6.668659995e-14 41.32981937)
(-20.01204813 -8.999417588e-14 6.28002946 1.283482397e-13 -20.7267208 0 5.157958591 -6.324058059e-14 40.88759318)
(-19.6133118 -8.788665839e-14 7.583754115 5.398676556e-14 -20.56518385 0 6.159701855 -6.964126546e-15 40.35067248)
(-19.15626797 -1.060937648e-13 8.863191771 1.409079315e-13 -20.39171653 0 7.101957727 3.987660708e-15 39.72479197)
(-18.63445668 -4.324386102e-14 10.11824866 1.255625152e-13 -20.20353262 -3.348333738e-13 7.979560666 -4.41337232e-14 39.01567427)
(-18.05017851 9.566775256e-15 11.34968747 1.139113705e-13 -19.99907797 -3.037636546e-13 8.788428254 3.74849746e-14 38.22871192)
(-17.40944281 1.964803472e-14 12.55920724 1.047895185e-13 -19.7782566 0 9.525744446 1.538159414e-14 37.3689122)
(-16.71688266 2.202092788e-14 13.7487329 9.747592281e-14 -19.54159139 0 10.18936634 9.714827098e-14 36.44094119)
(-15.97616349 4.169941722e-15 14.92021663 1.220005807e-13 -19.28982279 0 10.77768739 2.687936699e-14 35.44916279)
(-15.19060204 9.155798033e-14 16.07552569 5.769561345e-14 -19.02377312 -2.307824538e-13 11.2896518 2.238183063e-14 34.39767512)
(-14.36328311 8.296996167e-14 17.21640801 1.647600014e-13 -18.74429599 2.196800019e-13 11.72472511 2.949051964e-14 33.29035031)
(-13.49703129 -3.711370752e-14 18.34451553 5.256491909e-14 -18.45224182 0 12.08278222 5.53759737e-15 32.13081032)
(-12.59447036 -3.919589799e-14 19.46135678 5.054987348e-14 -18.14843955 0 12.36410972 3.49739427e-14 30.92249906)
(-11.65804198 -2.726714155e-14 20.56831363 4.881390375e-14 -17.83368999 0 12.5693398 2.352712853e-14 29.66863295)
(-10.68998825 -2.25461747e-14 21.66679836 4.731000593e-14 -17.50875983 0 12.69938381 2.221122053e-14 28.37224018)
(-9.692328322 -3.16708592e-14 22.75823244 4.600136145e-14 -17.17437827 0 12.75541569 4.276510759e-14 27.03610497)
(-8.666828508 -1.80486268e-14 23.8441446 4.485872292e-14 -16.83123287 -1.794348917e-13 12.73879127 7.724590971e-14 25.66272271)
(-7.614968189 6.107648445e-14 24.92639577 8.771713895e-14 -16.47996672 0 12.65097739 1.369791637e-14 24.25425424)
(-6.537834819 -1.729344838e-14 26.00731071 8.596354925e-14 -16.1211746 8.596354925e-14 12.4934687 4.733565537e-14 22.81243943)
(-5.436047371 -6.051576303e-14 27.08980277 0 -15.75539517 -8.442526068e-14 12.26772048 8.455793464e-14 21.33851439)
(-4.309656611 5.411313648e-14 28.17757914 0 -15.38310577 -8.307623951e-14 11.97504599 5.647335642e-14 19.83308174)
(-3.158013474 7.273756248e-14 29.27541984 8.189473775e-14 -15.00471281 0 11.61648743 7.137415686e-14 18.29597576)
(-1.979619529 4.44585549e-14 30.38946881 8.086245154e-14 -14.62054306 1.617249031e-13 11.19271633 2.810980466e-14 16.72608877)
(-0.771900285 2.701904305e-14 31.52757308 3.998193654e-14 -14.23083127 0 10.7038632 2.766573495e-14 15.12115173)
(0.4690440328 3.495310006e-14 32.69972006 3.95928921e-14 -13.83570506 0 10.14933642 2.956059746e-14 13.4774714)
(1.748753678 3.74565256e-14 33.91859538 3.925842601e-14 -13.43516729 0 9.527610842 -1.752078468e-14 11.78958526)
(3.074830094 -2.359733202e-14 35.20032009 3.897365804e-14 -13.02907415 0 8.835938608 1.630550724e-14 10.04981443)