/*--------------------------------*- C++ -*----------------------------------*\
  =========                 |
  \\      /  F ield         | OpenFOAM: The Open Source CFD Toolbox
   \\    /   O peration     | Website:  https://openfoam.org
    \\  /    A nd           | Version:  7
     \\/     M anipulation  |
\*---------------------------------------------------------------------------*/
FoamFile
{
    version     2.0;
    format      ascii;
    class       volScalarField;
    location    "0.0009";
    object      p;
}
// * * * * * * * * * * * * * * * * * * * * * * * * * * * * * * * * * * * * * //

dimensions      [1 -1 -2 0 0 0 0];

internalField   nonuniform List<scalar> 
1167
(
1214732.659
1225297.987
1223663.554
1224180.444
1225606.362
1227245.892
1229112.864
1231215.401
1233525.882
1236017.756
1238667.877
1241454.501
1244357.212
1247357.012
1250436.724
1253581.076
1256776.496
1260011.189
1205961.917
1216579.521
1214985.39
1215521.475
1216987.434
1218677.519
1220599.419
1222761.218
1225134.245
1227690.59
1230406.085
1233258.144
1236225.307
1239288.149
1242429.188
1245632.615
1248884.85
1252173.95
1255489.879
1258824.546
1262171.199
1265524.508
1268880.482
1272236.235
1275589.842
1278940.113
1282286.452
1285628.778
1288967.315
1292302.343
1295634.139
1298962.556
1302286.571
1305603.75
1308909.505
1312196.082
1315451.498
1318659.109
1321798.028
1324845.071
1327778.321
1330580.644
1333242.485
1335762.426
1338145.049
1340396.473
1342526.337
1344578.659
1346652.42
1348625.123
1196843.066
1207519.44
1205966.208
1206523.688
1208032.359
1209776.399
1211757.4
1213982.637
1216422.647
1219048.216
1221833.962
1224756.104
1227792.7
1230923.693
1234130.91
1237398.404
1240712.186
1244060.373
1247432.91
1250821.591
1254219.791
1257622.392
1261025.511
1264426.39
1267823.246
1271215.062
1274601.416
1277982.442
1281358.504
1284730.073
1288097.528
1291460.837
1294819.213
1298170.407
1301509.937
1304830.257
1308119.792
1311362.218
1314537.164
1317621.938
1320594.944
1323439.129
1326144.744
1328709.95
1331138.846
1333437.022
1335613.815
1337713.976
1339838.013
1341858.022
1187353.63
1198095.537
1196583.727
1197164.461
1198718.936
1200520.196
1202564.196
1204857.39
1207369.104
1210068.728
1212929.641
1215927.171
1219038.59
1222242.873
1225521.602
1228858.28
1232238.853
1235651.127
1239085.122
1242532.684
1245987.174
1249443.529
1252898.049
1256348.189
1259792.293
1263229.497
1266659.541
1270082.67
1273499.404
1276910.469
1280316.405
1283717.323
1287112.483
1290499.882
1293875.299
1297231.35
1300556.789
1303835.783
1307048.374
1310172.422
1313186.614
1316074.017
1318824.67
1321436.311
1323912.549
1326258.437
1328483
1330631.73
1332806.695
1334874.645
1177469.311
1188283.449
1186813.271
1187419.528
1189022.865
1190885.124
1192996.103
1195361.665
1197949.897
1200728.705
1203670.197
1206748.665
1209940.195
1213223.41
1216579.131
1219990.65
1223443.411
1226925.269
1230426.065
1233937.58
1237453.381
1240968.447
1244479.176
1247983.094
1251478.709
1254965.367
1258443.009
1261912.003
1265373.026
1268826.881
1272274.295
1275715.619
1279150.289
1282576.357
1285989.856
1289383.737
1292746.992
1296064.313
1299316.19
1302480.988
1305537.706
1308469.524
1311266.273
1313925.304
1316449.732
1318844.06
1321116.999
1323314.788
1325541.085
1327657.386
1167163.917
1178056.636
1176628.656
1177262.925
1178917.935
1180845.093
1183027.439
1185469.964
1188139.718
1191003.081
1194030.643
1197195.515
1200473.068
1203841.08
1207279.745
1210771.965
1214302.894
1217860.048
1221433.378
1225014.584
1228597.131
1232176.113
1235748.143
1239310.83
1242862.804
1246403.507
1249933.017
1253451.893
1256961.016
1260461.333
1263953.693
1267438.52
1270915.541
1274383.014
1277837.051
1281270.963
1284674.111
1288031.548
1291324.344
1294531.304
1297631.8
1300609.09
1303452.806
1306159.959
1308733.176
1311176.418
1313498.085
1315745.157
1318022.897
1320187.661
1156409.998
1167387.735
1166002.724
1166667.103
1168376.891
1170372.442
1172630.503
1175154.863
1177911.303
1180864.557
1183983.873
1187241.26
1190610.997
1194069.973
1197597.911
1201177.072
1204792.396
1208431.218
1212083.18
1215740.05
1219395.327
1223044.146
1226683.091
1230309.906
1233923.419
1237523.182
1241109.405
1244682.774
1248244.244
1251794.978
1255336.031
1258867.974
1262390.571
1265902.371
1269399.723
1272876.11
1276321.353
1279720.866
1283056.281
1286306.834
1289452.29
1292475.998
1295367.427
1298123.256
1300745.644
1303238.033
1305608.532
1307904.852
1310233.862
1312446.936
1145179.756
1156248.744
1154907.29
1155603.807
1157371.574
1159439.196
1161777.08
1164387.957
1167236.232
1170284.944
1173501.967
1176857.933
1180326.039
1183882.508
1187506.188
1191179
1194885.341
1198612.414
1202349.736
1206088.829
1209823.16
1213548.055
1217260.098
1220957.106
1224637.949
1228302.259
1231950.431
1235583.312
1239201.997
1242807.714
1246401.635
1249984.586
1253556.487
1257115.937
1260659.63
1264181.282
1267671.028
1271114.769
1274494.593
1277790.23
1280981.802
1284052.755
1286992.476
1289797.332
1292469.037
1295010.539
1297429.68
1299774.901
1302154.675
1304415.579
1133445.662
1144611.333
1143313.749
1144044.66
1145873.072
1148016.621
1150438.458
1153140.381
1156085.556
1159235.256
1162555.609
1166016.104
1169589.054
1173249.473
1176975.741
1180748.983
1184553.387
1188375.735
1192205.31
1196033.634
1199854.088
1203661.874
1207453.606
1211227.262
1214981.775
1218716.859
1222432.948
1226130.937
1229812.152
1233477.973
1237129.641
1240768.027
1244393.347
1248004.346
1251597.832
1255167.891
1258704.908
1262195.278
1265621.511
1268963.861
1272202.778
1275321.838
1278310.379
1281164.499
1283885.508
1286475.9
1288943.273
1291336.783
1293766.5
1296074.444
1121181.186
1132448.234
1131195.218
1131962.402
1133853.847
1136076.231
1138585.891
1141383.179
1144429.89
1147685.528
1151114.801
1154685.888
1158369.771
1162140.709
1165976.24
1169856.967
1173766.451
1177691.33
1181620.568
1185545.396
1189459.248
1193357.268
1197236.033
1201093.463
1204928.516
1208741.08
1212531.648
1216301.177
1220050.984
1223782.599
1227497.45
1231196.482
1234879.947
1238546.88
1242194.204
1245816.261
1249403.765
1252943.49
1256418.398
1259809.224
1263096.746
1266264.741
1269302.509
1272205.916
1274975.923
1277614.64
1280129.45
1282570.218
1285048.601
1287402.317
1108362.92
1119735.311
1118527.345
1119331.992
1121288.675
1123592.289
1126192.69
1129088.859
1132241.074
1135607.175
1139150.427
1142837.303
1146637.838
1150525.415
1154476.65
1158471.558
1162493.263
1166527.831
1170564.13
1174593.153
1178608.08
1182603.942
1186577.38
1190526.277
1194449.549
1198347.042
1202219.271
1206067.348
1209892.635
1213696.647
1217480.865
1221246.445
1224993.681
1228721.68
1232427.631
1236105.995
1239747.856
1243340.273
1246866.699
1250308.276
1253646.109
1256864.215
1259951.891
1262904.821
1265723.679
1268410.25
1270971.729
1273458.663
1275984.259
1278382.324
1094972.637
1106452.87
1105289.712
1106132.644
1108155.604
1110542.363
1113235.463
1116232.867
1119493.54
1122973.538
1126634.311
1130441.306
1134363.433
1138372.871
1142445.606
1146560.836
1150701.298
1154852.658
1159003.23
1163143.865
1167267.652
1171369.41
1175445.588
1179493.978
1183513.533
1187504.058
1191466.036
1195400.464
1199308.798
1203192.628
1207053.399
1210892.267
1214709.695
1218504.761
1222274.84
1226014.541
1229715.179
1233364.094
1236945.168
1240439.901
1243829.762
1247098.991
1250236.918
1253239.113
1256106.064
1258839.289
1261445.855
1263977.029
1266547.55
1268987.585
1080999.5
1092587.822
1091469.175
1092350.508
1094439.407
1096909.303
1099695.771
1102795.27
1106165.515
1109760.9
1113541.459
1117471.462
1121518.363
1125653.655
1129852.29
1134093.007
1138357.837
1142632.065
1146903.67
1151163.125
1155403.214
1159618.667
1163805.774
1167962.158
1172086.56
1176178.686
1180239.056
1184268.599
1188268.614
1192240.669
1196186.28
1200106.518
1204001.833
1207871.412
1211712.594
1215520.195
1219285.618
1222996.512
1226637.045
1230189.033
1233634.307
1236957.31
1240147.428
1243200.178
1246115.933
1248895.996
1251547.321
1254121.796
1256735.602
1259215.995
1066443.208
1078137.758
1077062.832
1077981.151
1080134.427
1082685.539
1085563.591
1088763.642
1092242.21
1095952.273
1099852.458
1103905.542
1108078.232
1112340.975
1116668.054
1121037.371
1125430.62
1129832.482
1134230.466
1138614.892
1142978.19
1147314.719
1151620.527
1155893.157
1160131.146
1164333.974
1168501.878
1172635.758
1176736.822
1180806.412
1184845.905
1188856.381
1192838.076
1196790.193
1200709.999
1204592.329
1208428.608
1212206.686
1215910.896
1219523.352
1223026.172
1226403.995
1229646.309
1232748.686
1235711.454
1238535.809
1241228.752
1243842.969
1246496.088
1249012.385
1051318.526
1063114.334
1062081.267
1063033.583
1065247.252
1067875.446
1070840.396
1074136.293
1077718.742
1081539.246
1085555.074
1089728.181
1094024.268
1098412.933
1102867.775
1107366.167
1111889.087
1116420.956
1120948.838
1125462.534
1129954.279
1134418.157
1138849.89
1143246.63
1147606.706
1151929.445
1156214.797
1160463.318
1164676.054
1168854.219
1172998.897
1177110.996
1181190.665
1185236.846
1189246.787
1193215.139
1197133.354
1200989.254
1204767.227
1208449.588
1212018.594
1215458.993
1218760.358
1221918.321
1224933.18
1227806.03
1230543.797
1233199.576
1235892.241
1238444.892
1035659.729
1047547.275
1046553.115
1047534.713
1049801.709
1052499.189
1055542.838
1058925.846
1062603.167
1066525.241
1070648.486
1074933.934
1079346.394
1083854.986
1088432.564
1093056.201
1097706.391
1102366.907
1107024.713
1111669.22
1116292.17
1120887.263
1125450.029
1129977.215
1134466.738
1138917.458
1143329.074
1147701.772
1152036.108
1156332.925
1160593.019
1164816.787
1169004.112
1173153.545
1177262.011
1181323.835
1185330.278
1189268.933
1193124.147
1196878.258
1200513.595
1204015.008
1207372.24
1210581.046
1213641.82
1216555.779
1219330.243
1222019.429
1224743.535
1227322.575
1019525.055
1031489.934
1030530.817
1031534.294
1033844.367
1036598.993
1039708.122
1043164.204
1046921.89
1050931.018
1055147.303
1059531.015
1064046.798
1068663.087
1073352.618
1078091.885
1082861.33
1087644.365
1092427.454
1097199.911
1101953.203
1106680.663
1111377.338
1116039.677
1120665.307
1125252.658
1129800.884
1134309.825
1138779.677
1143210.734
1147603.39
1151957.668
1156272.886
1160547.274
1164777.212
1168956.643
1173076.318
1177123.379
1181081.839
1184933.669
1188660.892
1192248.195
1195685.212
1198967.612
1202095.721
1205070.63
1207899.316
1210635.643
1213400.798
1216017.297
1003003.195
1015025.035
1014095.491
1015110.307
1017448.897
1020243.687
1023399.235
1026907.954
1030724.682
1034798.848
1039085.879
1043546.162
1048144.047
1052847.94
1057630.409
1062468.027
1067340.834
1072232.342
1077128.852
1082019.291
1086894.844
1091748.693
1096575.431
1101370.936
1106132.242
1110857.335
1115544.715
1120193.373
1124802.803
1129372.585
1133902.154
1138390.809
1142836.969
1147238.045
1151589.572
1155884.741
1160113.483
1164262.317
1168314.666
1172252.039
1176056.171
1179711.661
1183208.145
1186541.395
1189711.963
1192721.413
1195577.918
1198337.642
1201122.821
1203749.21
986218.5844
998269.3494
997361.8989
998374.4309
1000721.736
1003533.714
1006710.079
1010243.461
1014089.439
1018197.842
1022524.535
1027030.183
1031679.37
1036441.047
1041287.949
1046197.053
1051148.715
1056126.389
1061116.758
1066108.888
1071093.883
1076064.767
1081016.19
1085943.876
1090844.504
1095715.611
1100555.433
1105362.51
1110135.635
1114873.86
1119575.985
1124240.452
1128864.982
1133445.999
1137978.127
1142453.384
1146860.461
1151184.588
1155407.738
1159509.961
1163471.704
1167276.407
1170912.756
1174375.799
1177665.503
1180782.636
1183733.596
1186571.747
1189420.28
1192106.926
969335.5864
981378.3504
980484.3192
981477.2661
983808.1953
986607.4407
989771.062
993292.3215
997128.175
1001229.656
1005553.463
1010060.91
1014717.795
1019493.596
1024362.037
1029300.473
1034290.018
1039314.549
1044360.852
1049418.356
1054478.312
1059533.565
1064578.42
1069608.315
1074619.436
1079608.484
1084572.738
1089509.816
1094417.305
1099292.847
1104133.994
1108937.627
1113700
1118415.99
1123078.763
1127678.793
1132203.368
1136636.306
1140958.255
1145148.137
1149185.502
1153053.13
1156739.344
1160239.159
1163552.898
1166682.566
1169638.069
1172478.888
1175328.209
1177990.88
952562.5494
964550.2206
963659.3199
964611.5016
966895.7686
969645.9385
972755.6356
976219.6586
979997.1075
984040.7518
988308.7917
992764.5492
997375.412
1002112.355
1006950.684
1011869.18
1016850.176
1021879.106
1026943.853
1032034.893
1037144.655
1042267.053
1047397.14
1052531.084
1057665.733
1062798.325
1067926.308
1073047.385
1078159.157
1083258.84
1088343.363
1093408.811
1098450.241
1103461.111
1108432.714
1113353.26
1118207.375
1122975.674
1127635.191
1132161.034
1136528.856
1140717.757
1144712.805
1148506.212
1152095.663
1155479.571
1158660.857
1161688.756
1164688.885
1167504.483
936137.5793
948015.0215
947115.7403
948002.3652
950202.9729
952859.7363
955864.4225
959213.8783
962869.9929
966787.8177
970927.9115
975255.9009
979740.7981
984355.6156
989077.1768
993885.9813
998765.5238
1003702.391
1008685.641
1013706.465
1018757.954
1023834.501
1028931.459
1034044.991
1039171.762
1044308.578
1049452.211
1054599.426
1059746.631
1064889.673
1070023.861
1075143.601
1080242.073
1085310.892
1090339.399
1095313.874
1100216.958
1105027.195
1109719.481
1114266.788
1118642.766
1122824.846
1126797.001
1130551.114
1134085.728
1137402.978
1140516.59
1143493.977
1146457.506
1149173.443
920382.7639
932073.31
931152.5381
931948.4252
934027.7701
936546.6096
939396.5052
942576.7473
946053.0816
949784.2398
953734.3839
957872.2692
962170.2607
966604.8142
971155.8878
975807.1492
980545.3182
985360.1213
990243.7823
995190.7494
1000197.281
1005260.934
1010380.265
1015554.596
1020783.578
1026066.821
1031403.832
1036793.681
1042234.65
1047724.123
1053258.25
1058831.589
1064436.755
1070063.83
1075699.646
1081326.882
1086923.267
1092461.096
1097907.67
1103227.184
1108383.815
1113345.475
1118087.097
1122592.079
1126849.989
1130849.815
1134580.796
1138076.803
1141467.208
1144628.242
916912.7218
915960.9042
916632.5411
918537.7975
920851.8552
923467.6148
926386.6053
929578.2112
933004.5714
936632.6794
940433.832
944382.8508
948458.2683
952641.9936
956919.2217
961278.2583
965710.007
970207.7807
974767.203
979385.3781
984060.6126
988792.4216
993580.8688
998426.2338
1003328.881
1008289.079
1013306.471
1018379.989
1023507.762
1028686.493
1033911.456
1039175.887
1044470.509
1049782.637
1055095.237
1060385.695
1065625.167
1070778.731
1075807.102
1080670.116
1085331.104
1089761.073
1093941.267
1097862.966
1101526.891
1104957.849
1108251.136
1111536.427
1114454.062
)
;

boundaryField
{
    front_top
    {
        type            wedge;
    }
    front_middle
    {
        type            wedge;
    }
    front_bottom
    {
        type            wedge;
    }
    back_top
    {
        type            wedge;
    }
    back_middle
    {
        type            wedge;
    }
    back_bottom
    {
        type            wedge;
    }
    axis_top
    {
        type            symmetryPlane;
    }
    axis_middle
    {
        type            symmetryPlane;
    }
    axis_bottom
    {
        type            symmetryPlane;
    }
    wall_top
    {
        type            fixedFluxPressure;
        gradient        nonuniform 0();
        value           nonuniform 0();
    }
    wall_middle
    {
        type            fixedFluxPressure;
        gradient        uniform 0;
        value           nonuniform List<scalar> 
23
(
1348625.123
1341858.022
1334874.645
1327657.386
1320187.661
1312446.936
1304415.579
1296074.444
1287402.317
1278382.324
1268987.585
1259215.995
1249012.385
1238444.892
1227322.575
1216017.297
1203749.21
1192106.926
1177990.88
1167504.483
1149173.443
1144628.242
1114454.062
)
;
    }
    wall_bottom
    {
        type            fixedFluxPressure;
        gradient        nonuniform 0();
        value           nonuniform 0();
    }
    inlet
    {
        type            zeroGradient;
    }
    outlet
    {
        type            fixedValue;
        value           nonuniform 0();
    }
    procBoundary3to2
    {
        type            processor;
        value           nonuniform List<scalar> 
51
(
905471.2901
905471.2901
903130.479
902134.1457
902668.9564
904382.5612
906475.3235
908843.3727
911492.6478
914398.369
917528.3355
920855.1372
924355.666
928010.3143
931802.9549
935720.9383
939754.697
943898.0441
948147.0638
952500.7719
956960.2992
961528.3327
966209.27
971008.686
975932.6583
980987.875
986181.2002
991519.1171
997007.5937
1002651.752
1008455.344
1014420.413
1020546.807
1026831.416
1033267.473
1039843.353
1046541.167
1053335.036
1060189.562
1067059.42
1073890.819
1080625.737
1087208.133
1093590.247
1099736.012
1105616.932
1111196.517
1116417.962
1121254.186
1125816.283
1130016.209
)
;
    }
    procBoundary3to4
    {
        type            processor;
        value           nonuniform List<scalar> 
51
(
1223176.133
1233695.457
1232020.887
1232520.943
1233909.473
1235502.113
1237317.817
1239365.047
1241617.294
1244049.225
1246638.719
1249364.776
1252207.661
1255149.142
1258172.296
1261262.158
1264405.27
1267590.076
1263275.238
1263275.238
1266560.315
1269859.65
1273167.867
1276480.786
1279795.345
1283109.387
1286421.579
1289731.186
1293037.936
1296341.92
1299643.273
1302942.065
1306237.979
1309529.841
1312815.15
1316089.157
1319343.815
1322566.898
1325741.438
1328845.991
1331856.963
1334752.044
1337514.052
1340133.585
1342609.629
1344947.267
1347153.133
1349237.152
1351242.607
1353266.99
1355193.254
)
;
    }
}


// ************************************************************************* //
