/*--------------------------------*- C++ -*----------------------------------*\
  =========                 |
  \\      /  F ield         | OpenFOAM: The Open Source CFD Toolbox
   \\    /   O peration     | Website:  https://openfoam.org
    \\  /    A nd           | Version:  7
     \\/     M anipulation  |
\*---------------------------------------------------------------------------*/
FoamFile
{
    version     2.0;
    format      ascii;
    class       volScalarField;
    location    "0.0009";
    object      rho;
}
// * * * * * * * * * * * * * * * * * * * * * * * * * * * * * * * * * * * * * //

dimensions      [1 -3 0 0 0 0 0];

internalField   nonuniform List<scalar> 
1167
(
944.4974154
944.4145834
944.2366396
943.9726535
943.6273443
943.2042107
942.7066525
942.1380409
941.5013805
940.7999135
940.0370222
939.2163322
938.3414388
937.416164
936.4448781
935.4314355
934.3805295
933.2962488
944.317029
944.2328907
944.0521689
943.7843699
943.4338967
943.004879
942.5006325
941.9246144
941.280193
940.5708016
939.7999849
938.9713737
938.0888482
937.1566422
936.1787955
935.159772
934.1038635
933.0158084
931.8999762
930.7608416
929.60286
928.4304413
927.2477074
926.0585967
924.8669508
923.6763186
922.4900057
921.3111475
920.1424444
918.986443
917.8453832
916.7212206
915.6157808
914.5304548
913.4664236
912.4248104
911.4064797
910.4118699
909.4415977
908.4958617
907.5748595
906.6785402
905.8069375
904.9596439
904.1365748
903.3372333
902.5610546
901.8075655
901.0761439
900.3660615
944.1347184
944.0492898
943.8660326
943.5942751
943.2388733
942.8039285
942.2931579
941.710031
941.0581053
940.3410127
939.5624492
938.7262571
937.8367181
936.8978024
935.9139744
934.8896876
933.8295271
932.7379678
931.619824
930.4794865
929.3213433
928.1498234
926.9691251
925.7832267
924.5958491
923.4104734
922.2303671
921.0585344
919.897664
918.75035
917.6186658
916.5044667
915.4093927
914.3349408
913.2822318
912.2521909
911.2456605
910.2631232
909.3049156
908.3714616
907.4626637
906.5786521
905.7192172
904.8840543
904.0730381
903.285584
902.5211521
901.7792904
901.0592959
900.3604705
943.9506486
943.8640526
943.6781134
943.4024214
943.0422557
942.6015083
942.0842321
941.49416
940.8349324
940.1103778
939.3244001
938.4811573
937.5847276
936.6395377
935.650159
934.6210667
933.5569584
932.4625844
931.3424886
930.2012378
929.0434425
927.8733696
926.6951495
925.5127132
924.3298181
923.1499316
921.9763014
920.8117782
919.65899
918.5203476
917.3979541
916.2937077
915.2090715
914.1453452
913.1037335
912.0851434
911.0901234
910.1193863
909.1730147
908.2514572
907.3545375
906.4824402
905.6347844
904.8113939
904.0119615
903.2359641
902.4828395
901.7521569
901.0431369
900.3551117
943.7649216
943.6770633
943.4884469
943.2090562
942.8439998
942.3976812
941.8740632
941.2771096
940.6107678
939.8790378
939.0859463
938.2357343
937.332772
936.3817753
935.3870573
934.3536654
933.2860423
932.1890873
931.0675883
929.925958
928.7687587
927.6003817
926.4250114
925.2464693
924.0684451
922.8942963
921.7272308
920.5700963
919.4255271
918.2957462
917.1827626
916.0883021
915.0140339
913.9610517
912.9303525
911.9230055
910.939432
909.9801204
909.0453979
908.1353833
907.2501163
906.3895222
905.5533001
904.741318
903.9530952
903.1881694
902.4459704
901.7260519
901.0275993
900.3499625
943.5774773
943.4883677
943.2971793
943.0141002
942.6442218
942.1923534
941.6625659
941.0589564
940.3856758
939.6468802
938.8468144
937.9899536
937.0809141
936.1241815
935.1247243
934.0871171
933.0164511
931.917394
930.7946669
929.6529953
928.4968836
927.3306404
926.158323
924.9838572
923.8109341
922.6428122
921.4826003
920.3330517
919.196678
918.0757697
916.9722632
915.8877461
914.8236642
913.7813236
912.7615626
911.7651887
910.7928881
909.844814
908.9215039
908.0227858
907.1489006
906.2995232
905.4744801
904.6735377
903.8961943
903.1419994
902.4104029
901.7008645
901.0126168
900.3450009
943.3883899
943.2981184
943.10446
942.8175672
942.4431108
941.9856291
941.4497154
940.8395714
940.1594978
939.4138119
938.6070917
937.7439002
936.8288313
935.8668574
934.8627285
933.8214797
932.7478713
931.647038
930.5235857
929.382125
928.2272622
927.0634392
925.8945701
924.7245355
923.5568826
922.3948848
921.2416404
920.0998388
918.971888
917.8599193
916.7657958
915.691231
914.6374523
913.6055438
912.5966341
911.6112289
910.6499485
909.7130637
908.8008546
907.9133035
907.0504858
906.2120779
905.3979766
904.6077711
903.8410199
903.0972585
902.3759573
901.6764864
900.9981245
900.3402051
943.1979411
943.1064714
942.9102038
942.6196253
942.2405527
941.7777241
941.2357235
940.619103
939.9323895
939.1800786
938.3668299
937.4973445
936.5766394
935.6095617
934.601129
933.5563426
932.4803101
931.3778471
930.253831
929.1129822
927.9597831
926.7985169
925.6332066
924.4677901
923.3056706
922.1500801
921.0039507
919.8698981
918.7504229
917.6475236
916.562918
915.4981388
914.4546451
913.43328
912.4349961
911.4605045
910.5100876
909.5842517
908.6829851
907.8064508
906.9544781
906.1268453
905.3234473
904.5437441
903.7873397
903.0537713
902.3424857
901.6528121
900.9840592
900.3355542
943.0060379
942.9133461
942.7144917
942.4204224
942.036633
941.5685253
941.0206338
940.3977155
939.7044574
938.9455787
938.1259176
937.2504847
936.3242925
935.3522847
934.3398234
933.2917877
932.2134013
931.1097157
929.9854065
928.8452413
927.6938854
926.5354959
925.3740659
924.2133725
923.0568264
921.9077461
920.7689151
919.6428416
918.5318407
917.4379516
916.3629124
915.3080752
914.2746811
913.26383
912.2761733
911.3124486
910.372903
909.4579023
908.56749
907.7017817
906.8604958
906.043536
905.2505862
904.4811904
903.7349281
903.0113633
902.3098438
901.6297386
900.9703593
900.3310275
942.8127265
942.7188251
942.5176346
942.219903
941.8316915
941.3581484
940.8044593
940.1753552
939.4756831
938.7103837
937.8846548
937.0034032
936.0717756
935.0952547
934.0787571
933.027778
931.9473224
930.8424132
929.71808
928.5789432
927.4295363
926.2740608
925.1166379
923.9609037
922.8101803
921.6676405
920.5360453
919.4180237
918.3156578
917.2308444
916.1652505
915.1203716
914.097174
913.0966795
912.1196782
911.1665737
910.2378548
909.3335681
908.4539664
907.5989016
906.7681758
905.9617494
905.1790999
904.4198536
903.6835665
902.9698294
902.2778935
901.6071673
900.9569657
900.3266053
942.6181845
942.5232116
942.3195397
942.0181898
941.6256318
941.1469883
940.587503
939.9522979
939.2464104
938.4749796
937.6431577
936.7561792
935.81957
934.8384405
933.8183394
932.7643742
931.6820693
930.5762854
929.4519133
928.3138583
927.1666314
926.0143246
924.8609423
923.7101257
922.5652844
921.4294356
920.3052498
919.1951606
918.1013827
917.0257215
915.9696521
914.93458
913.9216021
912.9314253
911.9649907
911.0225222
910.104486
909.2108632
908.341965
907.4974525
906.6772644
905.8811777
905.1087128
904.3594923
903.6331005
902.9290009
902.2465032
901.5850041
900.9438219
900.3222687
942.4225551
942.326421
942.1202936
941.8156389
941.4186044
940.9349904
940.3699879
939.7288743
939.0169082
938.2394081
937.4016797
936.5094067
935.567767
934.5824004
933.5586833
932.5021476
931.417953
930.3113607
929.1872542
928.050397
926.9052806
925.756167
924.6069711
923.4612213
922.3222103
921.1929424
920.0761622
918.9741373
917.8889011
916.8222605
915.7757386
914.7504787
913.7475777
912.7677983
911.8117537
910.879925
909.9724417
909.0895174
908.2311516
907.3971163
906.5873944
905.801551
905.0391805
904.2998903
903.5832936
902.8887233
902.2155516
901.5631616
900.930875
900.3179998
942.2257809
942.1285248
941.920151
941.6121765
941.2109954
940.7224088
940.1520861
939.5052817
938.7874668
938.0041809
937.1610004
936.2634183
935.3170446
934.3276236
933.3005457
932.2414413
931.1556984
930.0483383
928.9244461
927.7889286
926.6460942
925.5001359
924.354977
923.2142488
922.0811375
920.9585145
919.8489454
918.7548594
917.6781827
916.6205104
915.583342
914.5678907
913.574936
912.6054577
911.6597922
910.738469
909.8414807
908.9691713
908.1212691
907.2977175
906.4983171
905.7226475
904.9703001
904.2409189
903.5339831
902.8488624
902.1849326
901.541563
900.9180785
900.313783
942.0279558
941.9297508
941.7192397
941.4079981
941.0029533
940.5098063
939.93432
939.2821149
938.5588354
937.7701117
936.9215962
936.019036
935.0683192
934.0749356
933.0448107
931.9833582
930.8960423
929.7881487
928.6646348
927.530308
926.3896847
925.2469414
924.105886
922.9699915
921.8425408
920.7264592
919.6241211
918.5377759
917.469412
916.4206358
915.3926921
914.3868263
913.4038271
912.4443913
911.5090773
910.5980691
909.7115925
908.8496948
908.0121739
907.1990499
906.4098789
905.6443156
904.9019343
904.1823943
903.4850518
902.809317
902.154564
901.5201472
900.9053943
900.3096049
941.8294141
941.730222
941.5176135
941.2035322
940.7947352
940.2974075
939.7172534
939.0600864
938.3317092
937.5378845
936.6845052
935.7775297
934.8226213
933.8258366
932.7927058
931.7292349
930.640606
929.532099
928.4090443
927.2760619
926.1375808
924.9978153
923.860714
922.7296124
921.607709
920.4977738
919.4024014
918.3236749
917.2633809
916.2231577
915.2043077
914.2077287
913.2344599
912.2849286
911.359726
910.4588882
909.5827585
908.7311403
907.9039737
907.1010808
906.322046
905.5665059
904.8340765
904.1242495
903.4364379
902.7700302
902.124397
901.4988768
900.8927987
900.3054571
941.6300153
941.529945
941.3155237
940.9989367
940.586887
940.0857276
939.501451
938.8399046
938.1070296
937.3087989
936.4512587
935.5402125
934.5818161
933.5818925
932.5464058
931.4809554
930.3912978
929.2825288
928.1598308
927.0280994
925.8917669
924.7549679
923.6214977
922.4948313
921.3782031
920.2742408
919.1853863
918.1138372
917.061345
916.0293063
915.0191165
914.0316422
913.0676277
912.1277835
911.2123198
910.3215147
909.4553839
908.6138383
907.7968588
907.0040163
906.2349751
905.4893678
904.7667466
904.066537
903.3881718
902.7310158
902.0944341
901.4777476
900.8802854
900.3013361
941.4298583
941.3290999
941.1133315
940.7945081
940.3798988
939.8756404
939.2879071
938.6227885
937.8863252
937.0845249
936.2234597
935.3092419
934.3480277
933.3456516
932.3082499
931.2415224
930.1509533
929.0421199
927.9200741
926.7895922
925.6551546
924.5211236
923.3911243
922.2686187
921.1567073
920.0582343
918.9755278
917.9106083
916.8653011
915.8410259
914.8388836
913.8599909
912.9048166
911.9741279
911.0680027
910.1867989
909.3303051
908.498604
907.6914041
906.9083496
906.14907
905.4132311
904.7002007
904.0094546
903.3404026
902.6923826
902.0647512
901.4568086
900.8678812
900.2972496
941.2292056
941.1280078
940.9111162
940.5908004
940.17427
939.6678834
939.0778017
938.4102049
937.6711982
936.8669157
936.003534
935.0872969
934.1241347
933.1203719
932.081776
931.0143752
929.9236332
928.8149861
927.6937371
926.5646523
925.4321945
924.3005749
923.1736409
922.0548948
920.9473218
919.8536228
918.7763427
917.7174434
916.6785511
915.6612304
914.6665372
913.6953389
912.7483912
911.8260866
910.9287586
910.056441
909.2090515
908.3866532
907.588764
906.8150739
906.0652515
905.3387634
904.635022
903.9534721
903.293497
902.6544047
902.0355403
901.4361813
900.8556495
900.2932157
941.0281037
940.926644
940.7091849
940.3883009
939.9708198
939.4634387
938.872359
938.2037411
937.4637207
936.6585924
935.794529
934.8776071
933.9141182
932.9100721
931.8716158
930.804407
929.7142735
928.6065818
927.4865069
926.3589265
925.2284645
924.0992286
922.9750092
921.8593866
920.7555094
919.6659621
918.5931621
917.539294
916.5059291
915.4944242
914.506133
913.5416477
912.6018438
911.6869674
910.7974407
909.9331036
909.0940571
908.2800699
907.490757
906.7257891
905.9847833
905.267087
904.572141
903.8993483
903.2480618
902.6175549
902.0071552
901.416111
900.8437335
900.2892796
940.826592
940.7252014
940.5081199
940.1874621
939.770511
939.2636608
938.6732586
938.0055345
937.2666147
936.4627086
935.5998951
934.6844139
933.7224938
932.7200572
931.6833173
930.6179424
929.529512
928.4237608
927.3056954
926.1801495
925.0517728
923.9248791
922.8031655
921.690213
920.5891667
919.5028697
918.4336176
917.3834723
916.3543429
915.34744
914.364008
913.4048938
912.4707263
911.5619662
910.6787782
909.8211393
908.9891363
908.1823715
907.4005176
906.643278
905.9100633
905.2002689
904.5133014
903.8485196
903.2052429
902.5827073
901.9802207
901.397002
900.8323505
900.285506
940.6248735
940.5240943
940.3080768
939.9889783
939.5741658
939.0699254
938.4825178
937.8181063
937.0828043
936.2827223
935.4238997
934.5126964
933.5548686
932.5566698
931.5238723
930.4624439
929.3777537
928.275354
927.1605453
926.0380049
924.9123721
923.7879447
922.6686378
921.5579708
920.4591053
919.374967
918.308019
917.2602858
916.233649
915.2295868
914.249153
913.2934625
912.362966
911.4583273
910.5795216
909.7267223
908.899828
908.0985033
907.3224648
906.5712962
905.844385
905.1411161
904.4608638
903.8029426
903.1666343
902.5511311
901.9557097
901.3795461
900.8219139
900.2820289
940.4231308
940.3233428
940.1094349
939.7936558
939.3828382
938.8836288
938.3019733
937.6439151
936.915491
936.1226529
935.2714919
934.3679141
933.4177152
932.42709
931.4015653
930.3469681
929.2687227
928.1721738
927.062569
925.9446604
924.8230093
923.7018735
922.5852846
921.4768177
920.3796764
919.2968009
918.2308964
917.1839985
916.1580148
915.1546704
914.1750034
913.2202094
912.2908745
911.3876409
910.5105568
909.6599097
908.8354942
908.0370389
907.2643264
906.5168081
905.7939115
905.0949961
904.4194086
903.7664248
903.1352923
902.525165
901.9352936
901.3648217
900.8130025
900.2790217
940.221307
940.1231067
939.9127223
939.6019915
939.1977745
938.7062798
938.133675
937.4856332
936.7680469
935.9867385
935.1474877
934.2559719
933.3179579
932.3392094
931.325252
930.2815598
929.2135578
928.1263648
927.0250768
925.9144512
924.7989513
923.6828144
922.5700729
921.4643705
920.3689628
919.2868734
918.2209361
917.1732998
916.1459953
915.1409102
914.1592112
913.2022138
912.2706663
911.365292
910.4862618
909.6339798
908.8082697
908.0089389
907.2358475
906.4884198
905.7661273
905.0683335
904.3943792
903.7435183
903.1149685
902.5078398
901.921336
901.3545401
900.8066531
900.2768226
939.9236885
939.7182341
939.4145877
939.0197237
938.5394336
937.9795599
937.3457638
936.6436952
935.8788156
935.0566313
934.1825845
933.262234
932.3009271
931.304017
930.2766614
929.2240771
928.1511435
927.0628114
925.9636204
924.8579407
923.749949
922.6436583
921.5426229
920.4501849
919.369513
918.3033818
917.2541584
916.224099
915.2151029
914.2286078
913.2661699
912.328602
911.4169325
910.5314463
909.6726735
908.8406634
908.0353162
907.2565784
906.5040126
905.777137
905.0753679
904.3980818
903.7445547
903.1140145
902.5055727
901.9184311
901.3516654
900.8044598
900.2759133
)
;

boundaryField
{
    front_top
    {
        type            wedge;
    }
    front_middle
    {
        type            wedge;
    }
    front_bottom
    {
        type            wedge;
    }
    back_top
    {
        type            wedge;
    }
    back_middle
    {
        type            wedge;
    }
    back_bottom
    {
        type            wedge;
    }
    axis_top
    {
        type            symmetryPlane;
    }
    axis_middle
    {
        type            symmetryPlane;
    }
    axis_bottom
    {
        type            symmetryPlane;
    }
    wall_top
    {
        type            calculated;
        value           nonuniform 0();
    }
    wall_middle
    {
        type            calculated;
        value           uniform 900.0184441;
    }
    wall_bottom
    {
        type            calculated;
        value           nonuniform 0();
    }
    inlet
    {
        type            calculated;
        value           nonuniform 0();
    }
    outlet
    {
        type            calculated;
        value           nonuniform 0();
    }
    procBoundary3to2
    {
        type            processor;
        value           nonuniform List<scalar> 
51
(
940.0195144
940.0195144
939.7252032
939.5261375
939.2320362
938.8493428
938.3838573
937.8409876
937.226155
936.5446926
935.8017749
935.002589
934.1522402
933.2559598
932.3187111
931.3454959
930.3412083
929.3106268
928.2583988
927.1892881
926.1074045
925.0170042
923.9222732
922.8267641
921.7341186
920.6477423
919.5706736
918.5056708
917.4553705
916.422103
915.4077677
914.4143091
913.4431206
912.4955598
911.5726592
910.6752045
909.8037101
908.9587341
908.1403074
907.3485051
906.5833102
905.8443429
905.131199
904.4434043
903.7803614
903.1413799
902.5256128
901.932248
901.3603121
900.8089111
900.2770944
)
;
    }
    procBoundary3to4
    {
        type            processor;
        value           nonuniform List<scalar> 
51
(
944.6758156
944.5943076
944.419182
944.1592373
943.8190213
943.4019436
942.9114239
942.3503005
941.7216142
941.0284145
940.2738911
939.4613395
938.5943877
937.6767693
936.7122519
935.7051885
934.6595184
933.5797015
932.1832106
932.1832106
931.0459335
929.8886107
928.7156172
927.5311783
926.339281
925.1437994
923.9482834
922.7560468
921.570277
920.3937919
919.2291852
918.0788596
916.9448328
915.8288423
914.7324556
913.6569919
912.6036294
911.5731504
910.566262
909.5835139
908.6251432
907.6915388
906.78252
905.8982912
905.0384429
904.2028274
903.3911219
902.6027103
901.8370987
901.0937509
900.3719081
)
;
    }
}


// ************************************************************************* //
