/*--------------------------------*- C++ -*----------------------------------*\
  =========                 |
  \\      /  F ield         | OpenFOAM: The Open Source CFD Toolbox
   \\    /   O peration     | Website:  https://openfoam.org
    \\  /    A nd           | Version:  7
     \\/     M anipulation  |
\*---------------------------------------------------------------------------*/
FoamFile
{
    version     2.0;
    format      ascii;
    class       volScalarField;
    location    "0.0009";
    object      T;
}
// * * * * * * * * * * * * * * * * * * * * * * * * * * * * * * * * * * * * * //

dimensions      [0 0 0 1 0 0 0];

internalField   nonuniform List<scalar> 
1167
(
443.4519055
443.5756007
443.8414024
444.2359134
444.75229
445.385561
446.1309448
446.9837364
447.9398086
448.9946991
450.1437488
451.3819376
452.7042893
454.1054751
455.5793166
457.1203899
458.7219621
460.3781773
443.7213092
443.8470033
444.1170592
444.5174265
445.0417375
445.6840822
446.4398105
447.3040948
448.2722685
449.3395865
450.5011488
451.7519301
453.0865245
454.4989777
455.9836074
457.534058
459.144198
460.8071706
462.5166305
464.2660178
466.0487432
467.8582252
469.6882639
471.5328817
473.3861908
475.2426991
477.0972388
478.9448556
480.7812298
482.6022406
484.404213
486.183888
487.9381841
489.6646862
491.3612959
493.0259927
494.6571581
496.2538498
497.8148367
499.3395581
500.8274577
502.2783838
503.6920536
505.0689062
506.4088649
507.7125322
508.9806323
510.213751
511.4127278
512.5785881
443.9936913
444.1213625
444.3953144
444.8017617
445.3336629
445.9851554
446.7509933
447.6263361
448.6062386
449.6856618
450.8594814
452.1223547
453.4682683
454.8916635
456.3862097
457.9455598
459.5631258
461.2324413
462.9464681
464.6987592
466.4828128
468.2920022
470.1199926
471.9607275
473.8084892
475.6578755
477.5037631
479.3413899
481.1664424
482.9747138
484.7627811
486.5275356
488.2661844
489.9761393
491.6553933
493.3022389
494.9150923
496.4929396
498.0350003
499.5403529
501.0089188
502.4402564
503.8344795
505.1918645
506.5124041
507.7968477
509.0458829
510.2600646
511.4403687
512.5877751
444.2688083
444.3982749
444.676346
445.0888438
445.6280968
446.2885603
447.0644912
447.9506592
448.9419993
450.0331814
451.2187702
452.4929475
453.8500057
455.2836929
456.7875098
458.3550678
459.979598
461.6542011
463.3722387
465.1269802
466.9115649
468.7195987
470.5448353
472.3812757
474.2231298
476.0650014
477.9017835
479.7289405
481.5422427
483.3377622
485.1120209
486.8618348
488.5846846
490.2782918
491.940513
493.5696678
495.1646411
496.7240509
498.2475253
499.7341049
501.1838405
502.5962053
503.9715938
505.3100776
506.6119483
507.8778594
509.1085391
510.3045111
511.4668802
512.5965806
444.5465111
444.6779167
444.9601044
445.378306
445.9251085
446.5942058
447.3799948
448.2769042
449.2794125
450.3819347
451.5788525
452.8642228
454.2318957
455.6751757
457.1879496
458.7629504
460.3937862
462.0733185
463.7945213
465.5508841
467.335606
469.1420846
470.9639735
472.7954262
474.6307429
476.464684
478.2921915
480.1087229
481.9100269
483.6924608
485.4526877
487.1877906
488.8949182
490.5721146
492.2175657
493.8293303
495.4064966
496.9480432
498.4532063
499.9215597
501.352808
502.7468466
504.1039443
505.4241037
506.7079027
507.9558996
509.1688395
510.3472752
511.492373
512.6050417
444.8268926
444.9602228
445.2463735
445.6702696
446.2245269
446.9022354
447.6976347
448.6049585
449.6183836
450.7320932
451.9401425
453.2362342
454.6138427
456.0666178
457.5874439
459.1697642
460.8061876
462.4899154
464.2140107
465.971468
467.7555582
469.5597904
471.377999
473.2041611
475.0325587
476.8580922
478.6758454
480.481412
482.270724
484.0400239
485.7860813
487.5061917
489.1978544
490.8587729
492.4873831
494.0821614
495.6417724
497.1657328
498.6529425
500.1034459
501.5166256
502.892785
504.2319898
505.5344113
506.8006653
508.0312949
509.227016
510.3885386
511.5169559
512.6131949
445.1098447
445.2449678
445.5349329
445.9647173
446.5260713
447.2124956
448.0174511
448.9350186
449.9591534
451.0837995
452.3025098
453.6088535
454.9963366
456.4578651
457.9866485
459.5754188
461.217279
462.904703
464.6309152
466.389072
468.1722723
469.9738023
471.7877019
473.6080025
475.4291961
477.2461467
479.0539419
480.8482643
482.6251985
484.3812298
486.1132378
487.8183128
489.4942963
491.139243
492.7511243
494.3288978
495.8713344
497.3777632
498.8475002
500.2803431
501.6759451
503.0346101
504.3562935
505.6414577
506.8906246
508.1043638
509.2833615
510.4284783
511.5407354
512.6210755
445.3949486
445.5319207
445.8259129
446.2613998
446.8299155
447.5246653
448.3391283
449.2668636
450.3014901
451.4366845
452.6658779
453.9824298
455.3792019
456.8492846
458.3854725
459.9805398
461.6270467
463.3179423
465.0460211
466.8042542
468.5859146
470.3845191
472.1939235
474.0080552
475.8216149
477.6295182
479.4271008
481.2101514
482.9745994
484.7171313
486.4348499
488.1251279
489.7854355
491.4142077
493.0096961
494.5705298
496.0960217
497.5851245
499.037625
500.4530329
501.8314012
503.172873
504.4774097
505.7456874
506.978158
508.1753922
509.3381181
510.4672671
511.5638149
512.6287182
445.6823462
445.8212051
446.1191951
446.5600981
447.1359343
447.8389167
448.6626032
449.6002488
450.6452349
451.7909035
453.0304167
454.3566639
455.762509
457.2408909
458.7840714
460.3850007
462.0360498
463.7297928
465.4593189
467.2175123
468.997348
470.7925204
472.5969171
474.4047001
476.2105455
478.009221
479.7962827
481.5676768
483.3196173
485.0487197
486.7520483
488.4272572
490.0721604
491.6847824
493.2638538
494.8079618
496.3164766
497.7885785
499.2239678
500.622233
501.9836097
503.308041
504.5958343
505.8475331
507.063633
508.2446645
509.3915213
510.5050734
511.5862954
512.6361568
445.9719712
446.1127
446.4143158
446.8608981
447.4436199
448.1550788
448.9878585
449.9352569
450.9904174
452.1463503
453.3956735
454.7314313
456.1462814
457.6323366
459.1825281
460.7888568
462.4440143
464.1406064
465.8711636
467.62878
469.4066189
471.1982916
472.9974707
474.7985226
476.5962479
478.3856295
480.1622484
481.9218516
483.6610097
485.3765573
487.065666
488.7257583
490.3550816
491.9517837
493.5143732
495.0419718
496.5335634
497.9888428
499.4071759
500.7885792
502.1331566
503.4407627
504.712043
505.9474112
507.147405
508.3125152
509.4437967
510.5420586
511.6082741
512.6434238
446.2635598
446.4059533
446.7114168
447.1636182
447.7531194
448.4725599
449.3144403
450.2714744
451.3365208
452.5022915
453.7614735
455.1066129
456.5297874
458.0236685
459.5802169
461.1920137
462.8509447
464.549849
466.2814567
468.0384085
469.8138854
471.6016527
473.3955496
475.1899209
476.9794173
478.759252
480.5251371
482.2731176
483.9995481
485.7013997
487.3761428
489.0213394
490.6350264
492.215852
493.7620834
495.2731302
496.7480139
498.1865364
499.5879723
500.9526486
502.2804516
503.5715364
504.8264825
506.0457139
507.2297257
508.3792198
509.4951595
510.5783771
511.6298436
512.6505503
446.5568996
446.7010942
447.0103702
447.4677259
448.0642088
448.7914441
449.6420149
450.608404
451.68314
452.8586647
454.1274329
455.481307
456.9128874
458.414035
459.9769636
461.5935953
463.2563614
464.9574741
466.689659
468.44576
470.2189737
472.0027867
473.7911618
475.5786053
477.3599376
479.130381
480.8855206
482.6216523
484.335409
486.023754
487.6840761
489.3143498
490.9126101
492.4774145
494.0075538
495.5020269
496.9603964
498.382093
499.766895
501.1149543
502.4260885
503.700799
504.9395499
506.1427931
507.3109804
508.4450301
509.5458079
510.6141717
511.6510904
512.6575654
446.8520789
446.9980175
447.3107962
447.7733338
448.3763096
449.1113506
449.9703235
450.9457489
452.0298366
453.2146956
454.4923695
455.8550069
457.2945484
458.8026878
460.3716089
461.9930727
463.659148
465.3624021
467.0952367
468.8502589
470.6209327
472.4008376
474.1839093
475.9644802
477.7375232
479.4984571
481.2431384
482.9676003
484.6686367
486.343539
487.9897295
489.6050682
491.1880927
492.7370133
494.2510626
495.7291627
497.1710977
498.5760902
499.9443578
501.275779
502.5704691
503.8289102
505.0515744
506.2388579
507.391434
508.5101655
509.5959156
510.6495685
511.6720912
512.6644951
447.1489588
447.2963834
447.6125045
448.08015
448.6891997
449.4314331
450.29858
451.2826117
452.3754779
453.5691513
454.8555588
456.2264616
457.6733718
459.1883637
460.7627964
462.3887506
464.0581674
465.7631943
467.4964153
469.2505766
471.0188067
472.7946951
474.5723428
476.3463158
478.111425
479.8629926
481.5971646
483.3102492
484.9989352
486.66049
488.2927349
489.8934756
491.4612323
492.994666
494.492654
495.9546725
497.3801328
498.7687363
500.1205916
501.4354556
502.7138421
503.9561154
505.1627789
506.3342071
507.4712777
508.574791
509.6456169
510.6846672
511.692908
512.6713612
447.4470397
447.596009
447.9154158
448.3875316
449.0024929
449.7513536
450.6259334
451.617915
452.7190107
453.9209924
455.2154218
456.5937354
458.047782
459.5687661
461.1486411
462.7785718
464.4509195
466.1578287
467.8912956
469.6443408
471.4102144
473.1824345
474.9548695
476.7222863
478.4796161
480.2224142
481.9464717
483.648349
485.3250469
486.9737768
488.5922638
490.1788625
491.7316926
493.249843
494.7321385
496.178293
497.5875305
498.9599458
500.2954215
501.5940362
502.8562616
504.0824943
505.2731735
506.4289497
507.550612
508.6389996
509.6949915
510.7195294
511.7135803
512.6781777
447.7465339
447.8968859
448.2191539
448.6952418
449.315368
450.070335
450.9515302
451.9505861
453.0590064
454.2682444
455.5696274
456.9548233
458.4149274
459.9414933
461.5258029
463.1596344
464.834457
466.5426859
468.276533
470.0285814
471.7920619
473.560603
475.3282996
477.0896905
478.8396381
480.5739106
482.2885303
483.9798697
485.6449771
487.2814415
488.8868358
490.4595605
491.9982029
493.5013985
494.9685811
496.3990769
497.7926365
499.1491846
500.4685388
501.7511863
502.9974728
504.207804
505.382726
506.5230002
507.6293871
508.7027684
509.7440353
510.7541618
511.7341178
512.68495
448.0472945
448.1987447
448.5231762
449.0028346
449.6270858
450.3870586
451.2738667
452.2787781
453.3931453
454.6083675
455.9157308
457.3064305
458.7715558
460.302636
461.8906832
463.5273115
465.2043994
466.9136112
468.6473473
470.3983641
472.1598071
473.9249393
475.6881086
477.4438629
479.1872649
480.9137343
482.6194625
484.3010936
485.9555538
487.580389
489.1736355
490.7332926
492.2583836
493.7474521
495.2001429
496.615654
497.9941017
499.3351352
500.6390129
501.9061063
503.1368199
504.331508
505.4910188
506.6160356
507.7073597
508.7659197
509.7926241
510.788484
511.754477
512.6916658
448.3489282
448.501104
448.8273641
449.3094756
449.9368925
450.7004083
451.5911559
452.6002659
453.7189915
454.9385388
456.2500317
457.6444618
459.1132566
460.6471928
462.2378383
463.8762971
465.5544705
467.2642309
468.9975823
470.7472863
472.506506
474.2687297
476.0279499
477.7786418
479.5160391
481.2357784
482.9337032
484.6065423
486.2515304
487.8659793
489.4479915
490.9959594
492.5084469
493.9845938
495.4236344
496.8252862
498.1894587
499.5158325
500.8049753
502.0571861
503.2728078
504.4525202
505.597102
506.7072898
507.7839307
508.8280051
509.8404433
510.8222969
511.7745537
512.6982953
448.6513663
448.8040011
449.1312552
449.6144297
450.2435502
451.0088974
451.9015411
452.9126382
454.033393
455.2547645
456.5678781
457.9639751
459.4339282
460.9689884
462.5601373
464.1990407
465.877034
467.586089
469.3184012
471.0665525
472.8234487
474.5827306
476.3384735
478.0850234
479.8173514
481.5312691
483.2228149
484.8883612
486.5252233
488.1310374
489.7034297
491.2412263
492.7427971
494.2075137
495.6344668
497.023684
498.3747793
499.6879077
500.9634811
502.2018307
503.4033839
504.5690154
505.6994602
506.7955249
507.8581087
508.8882512
509.8869138
510.8551981
511.7941126
512.704764
448.9545505
449.1071466
449.4339723
449.9170125
450.5456024
451.3104747
452.202474
453.2126469
454.3322067
455.5522358
456.863997
458.2584786
459.726643
461.2598692
462.849033
464.4857787
466.1618192
467.8685554
469.5984374
471.3441117
473.0984406
474.8547404
476.6072267
478.3502409
480.0787556
481.7881725
483.4747162
485.1349491
486.7656486
488.364678
489.9298336
491.4595332
492.9525365
494.4078694
495.8250331
497.2038338
498.5439067
499.845674
501.1094549
502.3355272
503.5246531
504.6776311
505.7952527
506.8783979
507.9280225
508.9452285
509.9310121
510.886525
511.8127971
512.7109656
449.2581758
449.4099169
449.7352792
450.2161744
450.841803
451.6030527
452.4908912
453.4964578
454.6109774
455.8256745
457.131865
458.5203466
459.9827961
461.5100823
463.0937514
464.7249856
466.3958187
468.0979319
469.823321
471.5648737
473.315469
475.068449
476.8176894
478.5576276
480.2832102
481.9897086
483.6730823
485.3299508
486.9571335
488.5520673
490.1128483
491.6374648
493.124958
494.5740267
495.9844726
497.3557845
498.6878981
499.981134
501.2357387
502.4521822
503.6312644
504.7737998
505.880633
506.9527163
507.9910673
508.9968607
509.9711449
510.9151428
511.8299287
512.7166802
449.5619678
449.7122807
450.0346026
450.5106946
451.130553
451.8845106
452.7639986
453.7603264
454.8648231
456.0689434
457.3639135
458.7412131
460.1924524
461.7085841
463.2815262
464.9026761
466.5639828
468.2574492
469.9751565
471.7098817
473.4546289
475.2028092
476.9481222
478.6849238
480.4080992
482.1129019
483.7949135
485.4507381
487.0771552
488.6712108
490.2310253
491.7544575
493.2403305
494.687375
496.0952736
497.4633287
498.7916407
500.0804242
501.3298164
502.540499
503.713205
504.8487889
505.9481385
507.012268
508.0422503
509.0393223
510.0045745
510.9392835
511.8445569
512.7216225
449.8660124
450.013997
450.3311434
450.7998178
451.4099614
452.1525539
453.0186758
454.0001799
455.0885985
456.275567
457.5527714
458.9120281
460.3449822
461.8432381
463.3987124
465.003343
466.6490805
468.3282806
470.0332663
471.7568158
473.4920967
475.2325633
476.9719272
478.7044492
480.4249453
482.1285486
483.8106486
485.4676783
487.0962298
488.6930958
490.2561963
491.7832006
493.2726737
494.7232155
496.1343103
497.5050705
498.8355462
500.1258216
501.3759043
502.5865162
503.7583148
504.8921446
505.9888991
507.0496254
508.0754419
509.0676549
510.0274298
510.9561407
511.8549797
512.7252367
450.3146087
450.624453
451.0826282
451.6788858
452.4048158
453.2519703
454.2121991
455.2773809
456.4396788
457.6911765
459.024033
460.4301978
461.9019024
463.4313226
465.0108807
466.6328504
468.2899633
469.9747775
471.6804219
473.4002253
475.1277547
476.8567717
478.5816969
480.2972315
481.9983003
483.680404
485.3396489
486.9722846
488.575098
490.1455886
491.6810499
493.1799491
494.6404012
496.0617089
497.4427815
498.7833037
500.0832066
501.3423542
502.5612396
503.740439
504.8807055
505.9828691
507.0479349
508.0769998
509.0713624
510.0321864
510.960854
511.8585801
512.726731
)
;

boundaryField
{
    front_top
    {
        type            wedge;
    }
    front_middle
    {
        type            wedge;
    }
    front_bottom
    {
        type            wedge;
    }
    back_top
    {
        type            wedge;
    }
    back_middle
    {
        type            wedge;
    }
    back_bottom
    {
        type            wedge;
    }
    axis_top
    {
        type            symmetryPlane;
    }
    axis_middle
    {
        type            symmetryPlane;
    }
    axis_bottom
    {
        type            symmetryPlane;
    }
    wall_top
    {
        type            convectiveRadiativeHeatFlux;
        mode            convectiveRadiative;
        kappaMethod     fluidThermo;
        kappa           none;
        alphaAni        Anialpha;
        h               nonuniform 0();
        Ta              constant 513.15;
        emissivityNozzle 0.95;
        emissivityFilament 0.95;
        dNozzle         2;
        dFilament       1.65;
        refValue        nonuniform 0();
        refGradient     nonuniform 0();
        valueFraction   nonuniform 0();
        value           nonuniform 0();
    }
    wall_middle
    {
        type            fixedValue;
        value           uniform 513.15;
    }
    wall_bottom
    {
        type            fixedValue;
        value           nonuniform 0();
    }
    inlet
    {
        type            fixedValue;
        value           nonuniform 0();
    }
    outlet
    {
        type            zeroGradient;
    }
    procBoundary3to2
    {
        type            processor;
        value           nonuniform List<scalar> 
51
(
450.1701405
450.1701405
450.6139406
450.9142749
451.3582243
451.936321
452.6401191
453.4618017
454.3935565
455.4277155
456.5568524
457.7735131
459.0703489
460.4397914
461.8746463
463.3676195
464.9115345
466.499341
468.1241355
469.7787765
471.4570747
473.1525573
474.8587993
476.5703068
478.2813928
479.986688
481.6813505
483.3609364
485.0211545
486.6581619
488.2687698
489.8496923
491.3984996
492.9128042
494.3907253
495.8307705
497.2318789
498.5929189
499.9136092
501.1936035
502.4327097
503.6313316
504.7899232
505.9090625
506.9895397
508.0323081
509.0385896
510.0095613
510.946677
511.8512731
512.7247899
)
;
    }
    procBoundary3to4
    {
        type            processor;
        value           nonuniform List<scalar> 
51
(
443.1855693
443.3072412
443.5687329
443.9570524
444.4656089
445.0895589
445.8240849
446.6652735
447.6089377
448.6508986
449.7867826
451.0120644
452.321718
453.7105488
455.1732952
456.7037833
458.296434
459.944838
462.0823265
462.0823265
463.827796
465.6084142
467.4176713
469.2492253
471.0970408
472.9551957
474.8182128
476.6809271
478.5383183
480.3858956
482.2194769
484.0351404
485.8295371
487.5997331
489.3430394
491.0571422
492.7399357
494.389935
496.0057686
497.586312
499.1309423
500.6387927
502.1099184
503.5437575
504.940749
506.3009151
507.6245712
508.9125209
510.1653798
511.3838427
512.5689813
)
;
    }
}


// ************************************************************************* //
