/*--------------------------------*- C++ -*----------------------------------*\
  =========                 |
  \\      /  F ield         | OpenFOAM: The Open Source CFD Toolbox
   \\    /   O peration     | Website:  https://openfoam.org
    \\  /    A nd           | Version:  7
     \\/     M anipulation  |
\*---------------------------------------------------------------------------*/
FoamFile
{
    version     2.0;
    format      ascii;
    class       volScalarField;
    location    "0.0009";
    object      thermo:alpha;
}
// * * * * * * * * * * * * * * * * * * * * * * * * * * * * * * * * * * * * * //

dimensions      [1 -1 -1 0 0 0 0];

internalField   nonuniform List<scalar> 
1167
(
0.000120392234
0.0001203805075
0.000120355316
0.0001203179434
0.0001202690579
0.000120206933
0.000120129468
0.0001200487956
0.0001199512338
0.0001198499621
0.0001197326331
0.0001196164137
0.00011948738
0.0001193522434
0.0001192013924
0.0001190435585
0.0001188652019
0.0001186808953
0.0001203666967
0.0001203547852
0.0001203292004
0.0001202912881
0.0001202416715
0.000120175899
0.0001201001241
0.0001200171315
0.0001199179457
0.000119815748
0.000119699024
0.0001195817422
0.000119448044
0.0001193122428
0.0001191599526
0.0001189976579
0.000118818174
0.0001186332258
0.0001184308205
0.0001182105353
0.0001179806054
0.0001177412335
0.0001174894282
0.000117223459
0.0001169504477
0.0001166627059
0.0001163672698
0.0001160672524
0.0001157602474
0.000115447466
0.0001151272157
0.0001148064378
0.0001144752457
0.0001141453727
0.0001138110942
0.0001134838586
0.0001131502011
0.0001128131611
0.0001124799865
0.000112153515
0.0001118237567
0.000111501672
0.0001111767968
0.0001108609825
0.000110551857
0.0001102421416
0.0001099339039
0.0001096308405
0.0001093366529
0.0001090471894
0.000120340887
0.0001203287928
0.0001203028491
0.0001202643763
0.0001202123296
0.0001201446129
0.000120070754
0.0001199837207
0.0001198865091
0.0001197799675
0.0001196654031
0.0001195470484
0.0001194117645
0.0001192719309
0.0001191187092
0.0001189517488
0.0001187715422
0.0001185852294
0.0001183791994
0.0001181546691
0.0001179247072
0.0001176814897
0.0001174301177
0.0001171608753
0.0001168849301
0.0001165984587
0.0001163040384
0.0001160006677
0.0001156940167
0.0001153835859
0.0001150625849
0.0001147414979
0.0001144134114
0.0001140839496
0.0001137532281
0.0001134282393
0.0001130973298
0.0001127620841
0.0001124330522
0.0001121089744
0.0001117835858
0.0001114644404
0.0001111441006
0.0001108328078
0.0001105272389
0.0001102221294
0.0001099178546
0.0001096194679
0.0001093298764
0.0001090448579
0.0001203148282
0.0001203025688
0.0001202762453
0.0001202372156
0.0001201817182
0.0001201144041
0.0001200411784
0.0001199501095
0.000119854919
0.0001197440553
0.0001196317096
0.0001195091384
0.0001193761002
0.0001192317087
0.0001190776225
0.0001189060885
0.0001187252108
0.000118534487
0.0001183260276
0.0001180994198
0.0001178695269
0.0001176226323
0.0001173681291
0.0001170993953
0.000116820638
0.0001165354932
0.0001162426405
0.000115937473
0.0001156294382
0.0001153196291
0.0001149996662
0.000114678354
0.0001143533947
0.0001140243858
0.0001136971506
0.0001133733203
0.0001130460616
0.0001127127273
0.0001123877597
0.0001120660077
0.000111744872
0.000111428579
0.0001111126297
0.0001108057248
0.0001105035739
0.0001102029035
0.0001099024447
0.0001096085544
0.0001093233771
0.0001090426233
0.0001202885348
0.0001202760967
0.0001202493942
0.0001202076874
0.0001201508516
0.0001200855503
0.0001200092606
0.0001199175092
0.0001198219712
0.0001197102131
0.0001195979588
0.0001194709186
0.0001193396732
0.0001191915647
0.000119036292
0.0001188606355
0.0001186791603
0.0001184840923
0.0001182714431
0.00011804476
0.0001178132616
0.0001175645129
0.0001173067345
0.0001170388857
0.0001167574716
0.0001164708092
0.0001161798285
0.0001158755779
0.0001155662697
0.0001152556015
0.0001149383211
0.000114616814
0.000114294961
0.0001139664877
0.0001136426808
0.0001133200154
0.0001129943168
0.0001126649058
0.0001123439383
0.0001120244482
0.0001117074847
0.0001113939454
0.0001110822578
0.0001107796052
0.0001104807654
0.0001101843848
0.0001098876155
0.0001095980546
0.0001093171277
0.0001090404761
0.0001202619982
0.000120249383
0.0001202214073
0.0001201773346
0.0001201204506
0.0001200564841
0.0001199763304
0.0001198866296
0.000119786922
0.0001196773535
0.000119564112
0.0001194334519
0.0001193004488
0.0001191514469
0.0001189917004
0.0001188153274
0.000118633335
0.0001184340298
0.0001182172516
0.0001179905602
0.0001177553791
0.0001175070847
0.0001172461238
0.0001169787006
0.0001166952386
0.0001164064037
0.0001161136408
0.0001158118203
0.0001155043496
0.0001151928924
0.0001148783136
0.000114556727
0.000114237488
0.0001139100239
0.0001135896534
0.0001132681312
0.0001129439961
0.0001126184439
0.0001123013952
0.0001119841335
0.0001116712452
0.0001113603998
0.000111052879
0.0001107543413
0.0001104587184
0.0001101664956
0.0001098733098
0.0001095879239
0.0001093111015
0.0001090384071
0.0001202352291
0.0001202215535
0.0001201914028
0.0001201467363
0.0001200919813
0.0001200266314
0.0001199431895
0.0001198555756
0.0001197517037
0.0001196443649
0.0001195287502
0.0001193986279
0.0001192611893
0.0001191113712
0.0001189471662
0.0001187701742
0.0001185870541
0.0001183842138
0.0001181634254
0.000117936776
0.0001176979764
0.0001174501972
0.0001171861804
0.0001169160299
0.0001166338415
0.0001163437959
0.0001160484463
0.0001157487194
0.0001154435277
0.0001151313594
0.0001148194555
0.0001144978506
0.0001141789872
0.0001138548005
0.0001135378391
0.0001132175149
0.0001128949131
0.0001125732032
0.0001122599663
0.0001119449342
0.0001116360084
0.000111327806
0.0001110243636
0.0001107298279
0.0001104373403
0.0001101491602
0.0001098594553
0.0001095781187
0.0001093052725
0.0001090364072
0.0001202059569
0.0001201917159
0.000120161159
0.0001201169688
0.0001200633072
0.0001199942606
0.000119911651
0.000119823269
0.0001197177645
0.0001196112823
0.0001194913341
0.0001193637328
0.0001192219128
0.0001190712998
0.0001189026994
0.0001187251061
0.0001185377531
0.0001183330483
0.0001181098627
0.0001178833347
0.0001176410298
0.0001173916214
0.0001171267799
0.0001168539818
0.0001165731307
0.000116284636
0.0001159866886
0.0001156865039
0.0001153836055
0.0001150708114
0.0001147590099
0.0001144399998
0.0001141215561
0.0001138006817
0.0001134870585
0.0001131679624
0.0001128468873
0.0001125289713
0.000112219492
0.0001119066763
0.0001116016335
0.000111296037
0.0001109965841
0.0001107059629
0.0001104165412
0.0001101320812
0.0001098459926
0.0001095685966
0.0001092996152
0.0001090344678
0.0001201760794
0.0001201616482
0.0001201306885
0.0001200887696
0.0001200344403
0.0001199616882
0.000119881205
0.0001197887967
0.000119685503
0.0001195780911
0.0001194538167
0.0001193268577
0.0001191826122
0.0001190303812
0.0001188582825
0.0001186801368
0.0001184885723
0.0001182798079
0.000118056564
0.0001178295447
0.0001175844198
0.0001173318443
0.0001170678846
0.0001167924963
0.0001165124333
0.0001162260732
0.0001159264956
0.0001156250688
0.0001153229053
0.0001150110682
0.0001146990877
0.0001143830563
0.0001140650181
0.0001137474468
0.0001134361236
0.0001131192871
0.0001127997805
0.0001124855851
0.0001121791609
0.0001118692002
0.0001115679838
0.0001112649849
0.0001109694263
0.0001106826471
0.0001103962336
0.0001101150241
0.0001098328635
0.0001095593161
0.000109294105
0.0001090325801
0.0001201459827
0.0001201313631
0.000120102531
0.000120060384
0.0001200026633
0.0001199289803
0.0001198506055
0.0001197541729
0.0001196531222
0.0001195448016
0.0001194185489
0.0001192883772
0.0001191432851
0.0001189866911
0.0001188139063
0.0001186352603
0.0001184395443
0.000118226732
0.0001180034834
0.0001177728495
0.0001175281396
0.0001172724275
0.0001170093786
0.0001167314818
0.0001164492668
0.0001161637055
0.0001158667444
0.0001155642393
0.0001152612776
0.0001149520277
0.0001146398677
0.0001143268198
0.000114009252
0.0001136949344
0.0001133846739
0.0001130713289
0.0001127534072
0.0001124428908
0.0001121385146
0.0001118323647
0.0001115349293
0.0001112345003
0.000110942781
0.0001106597848
0.0001103763329
0.0001100983186
0.0001098200127
0.0001095502377
0.0001092887179
0.000109030736
0.0001201167648
0.0001201033204
0.0001200744886
0.0001200317012
0.0001199705797
0.0001198990905
0.0001198183486
0.0001197205823
0.0001196206709
0.0001195081762
0.0001193843697
0.0001192498744
0.0001191040065
0.0001189430376
0.0001187696403
0.0001185900948
0.0001183906686
0.0001181738894
0.000117950633
0.0001177164126
0.0001174721668
0.0001172133969
0.0001169489953
0.0001166708758
0.0001163865485
0.0001160992563
0.0001158042976
0.0001155039388
0.0001152001937
0.0001148935528
0.000114581266
0.0001142711562
0.0001139540939
0.0001136430177
0.0001133338184
0.0001130228483
0.0001127076106
0.0001124007561
0.0001120984132
0.0001117960416
0.0001115011963
0.0001112044685
0.0001109165454
0.0001106372862
0.0001103567792
0.0001100818968
0.0001098073871
0.0001095413233
0.0001092834312
0.0001090289276
0.0001200890715
0.0001200754627
0.0001200462833
0.0001200001639
0.0001199383455
0.0001198690822
0.0001197844792
0.0001196889589
0.0001195881871
0.0001194714906
0.0001193501933
0.0001192114419
0.0001190647906
0.0001188995158
0.0001187255038
0.0001185417767
0.0001183410116
0.0001181212856
0.000117898082
0.0001176603213
0.0001174158855
0.000117154725
0.0001168876176
0.0001166107227
0.000116326233
0.0001160352702
0.0001157423129
0.0001154441361
0.0001151396211
0.0001148355517
0.000114523169
0.0001142144956
0.0001138994219
0.0001135916122
0.0001132834397
0.0001129738829
0.0001126622689
0.000112359088
0.0001120587372
0.0001117601169
0.0001114676987
0.000111174789
0.0001108906284
0.0001106150705
0.0001103374808
0.0001100656966
0.0001097949379
0.000109532538
0.0001092782238
0.0001090271475
0.0001200612161
0.0001200474485
0.0001200164365
0.0001199684847
0.0001199081507
0.0001198389912
0.0001197505496
0.0001196573115
0.0001195557119
0.0001194354654
0.0001193129213
0.0001191731316
0.000119024391
0.0001188562086
0.0001186816254
0.0001184937387
0.000118288938
0.0001180690596
0.0001178458986
0.0001176046544
0.0001173569798
0.0001170965364
0.0001168267178
0.0001165510364
0.0001162679749
0.000115975052
0.0001156808343
0.0001153848056
0.000115079551
0.0001147762643
0.0001144655265
0.0001141571332
0.0001138451843
0.0001135406108
0.0001132334804
0.0001129253093
0.0001126172991
0.0001123177631
0.0001120193945
0.0001117245278
0.0001114344967
0.000111145379
0.0001108649543
0.0001105922864
0.0001103183748
0.000110049664
0.0001097826225
0.0001095238507
0.0001092730769
0.0001090253891
0.0001200332119
0.0001200179312
0.0001199851545
0.0001199366941
0.0001198787023
0.0001198062504
0.0001197180377
0.0001196257245
0.0001195212351
0.0001194023375
0.0001192756364
0.0001191350713
0.0001189821124
0.0001188132566
0.0001186381554
0.0001184461841
0.0001182373804
0.0001180173961
0.0001177910931
0.0001175495937
0.0001172987052
0.0001170389925
0.0001167665195
0.0001164901943
0.0001162103152
0.0001159156221
0.0001156200031
0.0001153245968
0.0001150200363
0.0001147163814
0.0001144084073
0.0001141002495
0.0001137914283
0.0001134900097
0.0001131839309
0.0001128770983
0.0001125726976
0.0001122767369
0.0001119803337
0.0001116892005
0.0001114015328
0.0001111161821
0.0001108394721
0.0001105696102
0.0001102994157
0.0001100337583
0.0001097704079
0.000109515237
0.0001092679751
0.0001090236468
0.0001200023087
0.0001199868645
0.0001199537612
0.0001199070943
0.000119849229
0.0001197731776
0.000119687314
0.0001195942985
0.0001194858646
0.0001193694703
0.0001192387117
0.000119097459
0.0001189403485
0.0001187709145
0.0001185953024
0.0001183993591
0.0001181866607
0.0001179665545
0.0001177366775
0.0001174954643
0.0001172414092
0.0001169820732
0.0001167072683
0.0001164286328
0.0001161474898
0.0001158563888
0.0001155600119
0.0001152635626
0.0001149613025
0.0001146572164
0.0001143519668
0.0001140439837
0.0001137382194
0.0001134390016
0.0001131348297
0.0001128293059
0.0001125284582
0.0001122360273
0.0001119415933
0.0001116541233
0.0001113687945
0.0001110871798
0.0001108141792
0.0001105470812
0.0001102805795
0.0001100179566
0.0001097582743
0.0001095066817
0.000109262909
0.0001090219171
0.0001199712623
0.0001199556813
0.0001199229467
0.0001198781338
0.0001198182526
0.0001197402169
0.0001196567693
0.0001195631339
0.0001194508752
0.0001193359395
0.0001192023858
0.0001190604991
0.0001188994163
0.0001187294487
0.0001185499316
0.0001183535211
0.0001181371577
0.0001179169996
0.0001176836196
0.0001174426727
0.0001171855426
0.0001169233838
0.0001166494565
0.0001163685048
0.0001160853941
0.0001157959069
0.0001155012936
0.0001152037436
0.0001149037076
0.000114599138
0.000114296483
0.0001139886638
0.0001136858068
0.0001133873381
0.000113086368
0.0001127821341
0.0001124847198
0.0001121957477
0.0001119032415
0.00011161937
0.0001113363402
0.0001110584278
0.000110789083
0.0001105247197
0.0001102618782
0.0001100022644
0.0001097462228
0.0001094981832
0.000109257876
0.0001090201987
0.0001199400977
0.0001199248685
0.0001198943264
0.0001198491969
0.0001197860224
0.0001197097322
0.0001196265443
0.0001195311945
0.0001194187852
0.0001193010109
0.0001191669083
0.0001190230645
0.0001188596768
0.0001186892923
0.0001185060487
0.0001183059791
0.0001180894346
0.0001178692637
0.0001176325751
0.0001173895924
0.0001171317674
0.0001168668702
0.0001165937817
0.0001163132815
0.000116025809
0.0001157374615
0.0001154445117
0.0001151458086
0.0001148478208
0.0001145427286
0.0001142422685
0.0001139347373
0.0001136346576
0.0001133368217
0.000113038465
0.0001127358749
0.0001124417699
0.0001121544962
0.0001118654841
0.0001115851171
0.0001113043205
0.0001110300491
0.0001107642791
0.0001105026023
0.0001102433693
0.0001099867256
0.0001097342839
0.0001094897613
0.0001092528868
0.0001090184946
0.0001199107284
0.0001198964038
0.0001198657028
0.000119818862
0.0001197540039
0.0001196803262
0.0001195968059
0.0001194980888
0.0001193883382
0.0001192671204
0.0001191326569
0.0001189853382
0.0001188216193
0.0001186509991
0.0001184643184
0.0001182608764
0.0001180442977
0.0001178231027
0.0001175843876
0.00011733847
0.0001170810948
0.0001168135698
0.0001165412221
0.0001162616325
0.0001159721849
0.0001156820993
0.0001153906177
0.0001150907425
0.0001147936528
0.0001144888614
0.0001141881236
0.0001138830098
0.0001135855145
0.0001132881512
0.0001129906508
0.0001126911122
0.0001124001333
0.0001121144129
0.0001118287344
0.0001115517203
0.0001112730784
0.0001110022924
0.0001107399848
0.0001104809111
0.0001102251951
0.0001099714503
0.0001097225349
0.0001094814647
0.0001092479671
0.0001090168124
0.0001198822624
0.0001198679008
0.0001198371194
0.0001197873307
0.0001197232039
0.0001196513891
0.0001195677275
0.0001194659361
0.0001193589739
0.000119234676
0.0001191001064
0.000118949695
0.0001187859206
0.0001186152522
0.0001184255941
0.0001182191849
0.000118002727
0.0001177787332
0.000117540268
0.0001172917143
0.0001170347928
0.0001167649101
0.0001164914788
0.0001162143857
0.0001159230613
0.0001156313235
0.0001153403852
0.000115039957
0.0001147419347
0.0001144388858
0.0001141377305
0.0001138347256
0.0001135394747
0.0001132424139
0.0001129455584
0.0001126487601
0.0001123606461
0.0001120762514
0.0001117936436
0.0001115192825
0.0001112430852
0.0001109755762
0.0001107165469
0.00011045994
0.0001102075906
0.0001099566288
0.0001097111179
0.0001094733921
0.0001092431743
0.0001090151711
0.0001198537384
0.0001198393865
0.0001198059878
0.000119756058
0.0001196948522
0.0001196231125
0.0001195390542
0.0001194356569
0.0001193293697
0.000119204169
0.0001190697941
0.0001189168559
0.0001187533481
0.0001185819286
0.0001183908981
0.0001181821603
0.0001179660406
0.0001177398103
0.000117501773
0.0001172510834
0.0001169946358
0.0001167227747
0.0001164474693
0.0001161698117
0.0001158804606
0.0001155871952
0.0001152949035
0.0001149955365
0.0001146965191
0.0001143948489
0.0001140930801
0.0001137917626
0.0001134982824
0.0001132013181
0.0001129048117
0.0001126103134
0.000112324618
0.0001120412711
0.000111761334
0.0001114885278
0.0001112152345
0.0001109506708
0.0001106946154
0.0001104402457
0.0001101909997
0.0001099426126
0.0001097002845
0.0001094657062
0.0001092385959
0.0001090135975
0.0001198241676
0.0001198084752
0.000119774839
0.0001197257741
0.0001196670614
0.0001195956911
0.0001195093501
0.0001194091302
0.000119300743
0.0001191761379
0.0001190423845
0.0001188876673
0.0001187248551
0.0001185518227
0.0001183615187
0.0001181512844
0.0001179359073
0.0001177082144
0.0001174708704
0.000117218778
0.0001169614236
0.0001166896816
0.0001164130165
0.000116134032
0.0001158459255
0.0001155525883
0.0001152590988
0.0001149604195
0.0001146603589
0.0001143595397
0.0001140569969
0.000113756755
0.0001134644281
0.0001131672454
0.0001128707286
0.0001125778921
0.000112293951
0.0001120112426
0.0001117333876
0.0001114616977
0.0001111907539
0.0001109286225
0.0001106750701
0.0001104225863
0.0001101760403
0.0001099299122
0.0001096904258
0.0001094586852
0.0001092343981
0.0001090121475
0.0001197927542
0.0001197772161
0.0001197439084
0.0001196981281
0.0001196399809
0.0001195693227
0.0001194812339
0.0001193844769
0.0001192746856
0.0001191512086
0.0001190166478
0.0001188630571
0.0001187015418
0.0001185279463
0.0001183377573
0.0001181283555
0.0001179142581
0.0001176862473
0.0001174500112
0.0001171975636
0.0001169398272
0.0001166688807
0.0001163916697
0.0001161120751
0.0001158244344
0.0001155314388
0.0001152371133
0.0001149386721
0.0001146376987
0.0001143370946
0.0001140337019
0.0001137337416
0.0001134409556
0.0001131440063
0.0001128470472
0.0001125549498
0.0001122718599
0.0001119892357
0.0001117125715
0.0001114413881
0.0001111719408
0.000110911432
0.0001106596183
0.0001104084369
0.0001101638964
0.0001099194682
0.0001096822141
0.0001094527628
0.0001092308138
0.0001090108935
0.0001197613281
0.0001197460373
0.0001197149808
0.0001196709999
0.000119613787
0.0001195441967
0.0001194550248
0.0001193620753
0.0001192517226
0.0001191300414
0.0001189955696
0.0001188440292
0.0001186845851
0.0001185117535
0.0001183226046
0.0001181153681
0.0001179033047
0.0001176764947
0.0001174420293
0.0001171906981
0.0001169340133
0.0001166642749
0.0001163877741
0.0001161087076
0.0001158215357
0.0001155287529
0.0001152342741
0.0001149356224
0.0001146340978
0.0001143329722
0.0001140287407
0.0001137280882
0.000113434312
0.0001131366589
0.0001128387048
0.000112546046
0.0001122625115
0.0001119791747
0.0001117023749
0.0001114308069
0.0001111615847
0.000110901494
0.000110650289
0.0001103995615
0.0001101560216
0.0001099124998
0.0001096766002
0.0001094486274
0.00010922826
0.0001090099764
0.000119716533
0.000119687453
0.0001196444748
0.0001195885857
0.0001195182138
0.0001194319809
0.0001193416966
0.0001192323561
0.0001191132335
0.0001189801259
0.000118831555
0.0001186751133
0.0001185046998
0.0001183183884
0.0001181143958
0.0001179053936
0.0001176817704
0.0001174500633
0.0001172018732
0.0001169482697
0.0001166804997
0.0001164066198
0.00011612988
0.0001158435125
0.0001155511132
0.0001152577774
0.0001149586732
0.0001146574982
0.0001143552008
0.0001140505427
0.000113748181
0.0001134533593
0.0001131536366
0.0001128542206
0.0001125593329
0.0001122736351
0.000111988619
0.0001117097976
0.0001114366189
0.0001111656885
0.000110904116
0.0001106516692
0.0001103999631
0.000110155652
0.0001099115879
0.0001096754318
0.0001094474711
0.0001092273778
0.0001090095973
)
;

boundaryField
{
    front_top
    {
        type            wedge;
    }
    front_middle
    {
        type            wedge;
    }
    front_bottom
    {
        type            wedge;
    }
    back_top
    {
        type            wedge;
    }
    back_middle
    {
        type            wedge;
    }
    back_bottom
    {
        type            wedge;
    }
    axis_top
    {
        type            symmetryPlane;
    }
    axis_middle
    {
        type            symmetryPlane;
    }
    axis_bottom
    {
        type            symmetryPlane;
    }
    wall_top
    {
        type            calculated;
        value           nonuniform 0();
    }
    wall_middle
    {
        type            calculated;
        value           uniform 0.0001089022317;
    }
    wall_bottom
    {
        type            calculated;
        value           nonuniform 0();
    }
    inlet
    {
        type            calculated;
        value           nonuniform 0();
    }
    outlet
    {
        type            calculated;
        value           nonuniform 0();
    }
    procBoundary3to2
    {
        type            processor;
        value           nonuniform List<scalar> 
51
(
0.0001197300962
0.0001197300962
0.0001196884394
0.0001196602636
0.0001196186364
0.0001195644699
0.0001194939859
0.0001194123688
0.0001193230687
0.0001192169376
0.0001191012353
0.0001189709399
0.0001188263972
0.000118674047
0.000118507977
0.0001183266248
0.0001181272126
0.0001179225794
0.0001177046056
0.0001174769907
0.0001172345516
0.0001169867113
0.0001167221461
0.0001164535141
0.000116181692
0.000115895463
0.0001156055421
0.0001153154449
0.0001150160337
0.0001147168212
0.0001144129241
0.0001141088836
0.0001138037728
0.0001135060848
0.0001132048341
0.0001129035851
0.000112604329
0.0001123141788
0.0001120262107
0.0001117427115
0.000111466176
0.0001111907385
0.0001109249263
0.0001106685625
0.000110413837
0.0001101662552
0.0001099196484
0.0001096809892
0.000109450949
0.0001092291682
0.0001090100898
)
;
    }
    procBoundary3to4
    {
        type            processor;
        value           nonuniform List<scalar> 
51
(
0.0001204174902
0.0001204059511
0.0001203811585
0.0001203443581
0.0001202961937
0.0001202371479
0.0001201613489
0.0001200788431
0.0001199855243
0.0001198823064
0.000119769516
0.0001196510921
0.0001195267718
0.0001193891269
0.0001192430333
0.0001190861928
0.0001189126246
0.0001187290767
0.0001184830094
0.0001184830094
0.0001182671434
0.0001180373443
0.0001178019478
0.0001175497795
0.0001172872505
0.0001170155519
0.0001167284321
0.0001164354034
0.0001161373629
0.0001158282549
0.0001155131452
0.0001151937733
0.000114870494
0.0001145390794
0.0001142088338
0.0001138709636
0.0001135400368
0.0001132049962
0.0001128661767
0.000112528718
0.0001121996301
0.0001118655329
0.0001115400652
0.0001112108474
0.0001108903535
0.0001105775275
0.0001102630214
0.0001099506584
0.0001096427192
0.0001093437347
0.0001090496275
)
;
    }
}


// ************************************************************************* //
