/*--------------------------------*- C++ -*----------------------------------*\
  =========                 |
  \\      /  F ield         | OpenFOAM: The Open Source CFD Toolbox
   \\    /   O peration     | Website:  https://openfoam.org
    \\  /    A nd           | Version:  7
     \\/     M anipulation  |
\*---------------------------------------------------------------------------*/
FoamFile
{
    version     2.0;
    format      ascii;
    class       volScalarField;
    location    "0.0009";
    object      thermo:mu;
}
// * * * * * * * * * * * * * * * * * * * * * * * * * * * * * * * * * * * * * //

dimensions      [1 -1 -1 0 0 0 0];

internalField   nonuniform List<scalar> 
1167
(
169318.9732
167418.5251
163417.9766
157683.2238
150526.847
142260.0933
133197.9249
123642.7691
113865.746
104107.6516
94570.59243
85416.36075
76763.72329
68694.46249
61259.6565
54476.54721
48344.60476
42841.37898
165211.5689
163334.8811
159385.9457
153733.9057
146680.9033
138547.1474
129641.0625
120261.4441
110679.4298
101131.6699
91815.21993
82885.12886
74457.01208
66610.35469
59388.38669
52808.99715
46866.05098
41538.83924
36792.64153
32585.93769
28873.2249
25607.66217
22742.53436
20233.18425
18038.10204
16119.04849
14441.44242
12974.46832
11690.61537
10565.82938
9579.037813
8711.888325
7948.553092
7275.212288
6679.96208
6152.623574
5684.390213
5267.576389
4895.704417
4563.089741
4264.877492
3996.836909
3755.365015
3537.25154
3339.814191
3160.642964
2997.64314
2849.018852
2713.181799
2588.731009
161175.9836
159323.9257
155432.7102
149861.2709
142917.3477
134916.239
126168.9331
116968.5396
107582.9412
98244.88533
89146.4876
80438.52467
72234.00635
64604.23478
57591.4097
51209.54005
45451.54635
40293.56771
35702.14499
31635.0096
28046.75638
24891.38489
22123.38726
19699.29235
17578.52937
15723.98474
14102.22753
12683.40951
11441.07076
10352.13502
9396.200084
8555.581528
7814.985059
7161.244297
6582.90343
6070.101503
5614.39428
5208.428277
4845.880675
4521.382279
4230.169373
3968.235855
3732.047132
3518.543483
3325.132165
3149.469578
2989.541139
2843.617078
2710.14623
2587.778854
157215.7087
155391.2671
151555.2724
146065.868
139234.805
131368.8307
122780.0802
113760.0775
104571.3467
95442.51987
86561.3371
78075.07692
70088.52417
62671.92786
55863.59816
49674.22643
44095.03638
39101.95513
34659.52012
30726.26753
27257.88343
24208.55228
21533.65385
19190.84132
17140.87114
15347.81277
13779.34755
12406.51081
11203.79147
10148.85553
9222.166057
8406.779355
7687.886755
7052.749626
6490.4441
5991.497365
5547.67462
5152.025391
4798.374329
4481.580831
4197.040425
3940.919571
3709.767377
3500.672522
3311.091845
3138.780064
2981.786806
2838.445025
2707.238672
2586.866645
153332.4748
151533.9197
147753.8828
142351.7612
135631.4649
127904.6127
119476.2095
110635.742
101643.6694
92723.72974
84058.10868
75788.50279
68016.65869
60809.77183
54200.01272
48198.68654
42793.14744
37958.89829
33660.899
29857.05831
26503.50669
23555.69451
20970.14027
18705.39167
16723.29795
14988.97961
13471.24243
12142.19864
10977.30137
9954.894765
9056.152278
8264.70419
7566.494795
6949.159235
6402.113479
5916.362402
5483.935093
5098.072405
4752.940876
4443.481974
4165.341787
3914.752657
3688.417163
3483.540655
3297.6272
3128.525088
2974.347568
2833.479749
2704.446486
2585.99049
149524.4809
147752.3204
144030.7945
138716.4363
132108.3732
124520.6038
116254.2381
107594.6154
98798.46389
90084.6955
81631.27875
73575.77208
66016.0622
59012.53878
52598.20308
46778.25174
41541.76989
36861.71041
32702.48936
29023.3759
25780.76765
22930.75634
20430.70824
18240.62831
16323.54418
14645.57506
13176.50764
11889.39395
10760.52415
9769.168936
8897.176322
8128.726225
7450.19993
6849.875136
6317.49506
5844.307334
5422.787394
5046.2995
4709.324838
4406.894692
4134.890127
3889.606558
3667.905521
3467.06595
3284.674779
3118.657065
2967.192164
2828.698953
2701.757339
2585.14658
145792.6408
144048.8088
140387.9477
135159.1856
128667.5444
121217.1258
113112.1376
104632.9495
96031.55512
87522.04984
79279.26796
71435.02576
64081.53199
57278.33089
51052.99089
45410.80641
40337.20012
35806.40738
31781.89448
28222.8321
25086.67847
22330.76174
19913.15128
17794.94163
15940.1302
14316.0632
12893.60345
11646.7214
10552.50482
9590.903408
8744.451187
7998.057874
7338.495984
6754.401767
6236.097443
5775.020511
5363.927119
4996.490726
4667.311062
4371.665548
4105.537036
3865.35967
3648.127791
3451.170279
3272.173852
3109.130286
2960.282292
2824.081047
2699.159249
2584.331198
142141.5823
140425.4171
136822.6923
131681.9265
125305.6382
117996.0005
110051.2778
101750.8252
93342.72887
85036.17196
77000.1297
69361.7993
62211.51035
55603.07902
49562.41493
44092.02327
39177.40813
34790.45364
30895.67285
27452.82416
24419.60766
21753.96128
19415.39119
17366.23442
15571.3788
13999.2395
12621.53445
11413.16347
10352.19985
9419.241205
8597.40192
7872.089132
7230.767146
6662.371997
6157.534453
5708.137736
5307.072333
4948.360505
4626.69824
4337.607734
4077.142637
3841.900912
3628.98367
3435.779307
3260.066487
3099.904079
2953.586388
2819.605167
2696.640607
2583.540737
138568.4108
136879.5295
133335.4623
128285.87
122022.7121
114853.7887
107070.3765
98948.3044
90731.03094
82623.65053
74790.46712
67355.40272
60403.27949
53984.4693
48123.69853
42820.28692
38058.92406
33811.73404
30042.31229
26711.07372
23776.96162
21198.49723
18936.21928
16953.33861
15215.96207
13693.72135
12359.14167
11187.94807
10158.90005
9253.41888
8455.298352
7750.392023
7126.546923
6573.299138
6081.486933
5643.337703
5252.004051
4901.68858
4587.313582
4304.554031
4049.575333
3819.136705
3610.384779
3420.822242
3248.297282
3090.938625
2947.074061
2815.251132
2694.190136
2582.771677
135072.9002
133411.5627
129930.4312
124968.6164
118822.571
111790.5601
104167.7049
96222.6048
88194.04593
80282.97743
72650.68439
65414.12064
58654.47371
52421.71125
46734.49079
41593.47979
36980.74151
32867.8363
29219.66075
25996.45321
23157.59649
20662.78709
18473.902
16554.96772
14873.07207
13398.73585
12105.49517
10970.11167
9971.911032
9092.935874
8317.591043
7632.394438
7025.496112
6486.82188
6007.647429
5580.349699
5198.459417
4856.274541
4548.992156
4272.359323
4022.713281
3796.946112
3592.248159
3406.232222
3236.813536
3082.18829
2940.716516
2810.999729
2691.79705
2582.020637
131656.9948
130025.5105
126604.4521
121730.701
115701.8861
108810.0789
101345.2626
93574.92817
85733.26794
78016.54591
70579.36394
63536.21672
56966.09876
50912.42631
45394.917
40410.03
35941.14129
31958.46886
28426.59203
25307.19153
22560.27013
20146.21162
18027.76241
16170.11857
14541.58323
13113.46288
11860.15189
10759.10298
9790.580797
8937.233402
8183.934954
7517.696192
6927.220389
6402.65531
5935.709733
5518.971496
5146.220124
4811.948668
4511.559964
4240.894905
3996.469954
3775.236526
3574.497451
3391.947376
3225.577654
3073.615656
2934.48651
2806.832718
2689.451074
2581.284382
128321.6911
126718.335
123357.4665
118576.0134
112661.1092
105909.4043
98603.60663
91006.73654
83349.02199
75822.14977
68576.16871
61723.68693
55336.3442
49457.64788
44103.46538
39270.59555
34939.66368
31082.22713
27662.8317
24643.23732
21984.2844
19647.723
17597.10825
15798.50951
14221.13339
12837.30119
11622.41204
10554.56167
9614.612566
8785.906638
8053.940597
7406.057605
6831.421806
6320.596979
5865.457893
5459.005725
5095.11707
4768.589342
4474.887583
4210.048745
3970.729078
3753.928053
3557.065852
3377.912942
3214.534575
3065.186889
2928.35919
2802.733324
2687.142684
2580.559888
125064.4429
123489.6939
120191.8728
115501.4125
109703.7588
103089.7733
95942.40404
88517.62392
81041.57307
73701.7987
66644.73521
59976.22949
53767.03934
48057.71707
42861.69465
38174.6584
33977.27129
30239.88289
26928.03282
24004.36818
21430.01317
19167.57508
17181.70537
15439.67774
13911.50914
12570.29933
11392.1563
10356.16694
9443.793202
8638.844705
7927.380173
7297.278925
6737.939299
6240.419944
5796.768727
5400.287547
5045.031724
4726.048565
4438.875608
4179.755901
3945.411571
3732.955572
3539.89843
3364.095763
3203.646439
3056.872745
2922.312888
2798.686805
2684.863448
2579.844455
121885.2272
120341.5598
117107.7036
112507.819
106829.5052
100355.9776
93365.21132
86111.22164
78815.31458
71659.60759
64785.69084
58296.66564
52260.99508
46714.49942
41671.37926
37124.65623
33054.71823
29432.7104
26223.93906
23391.44536
20897.72925
18706.23561
16782.37051
15094.19001
13612.85957
12312.4319
11169.61341
10164.09069
9278.088456
8496.021625
7804.292937
7191.279788
6646.78641
6162.06791
5729.589532
5342.7527
4995.937489
4684.264088
4403.464887
4149.944255
3920.467297
3712.274236
3522.957787
3350.450549
3192.885954
3048.651293
2916.330911
2794.68151
2682.60654
2579.135843
118787.5568
117273.9215
114103.7149
109599.1229
104039.2789
97707.85533
90875.39413
83791.68422
76673.34482
69697.8538
63003.49692
56690.16675
50821.11317
45432.84856
40535.41904
36123.47838
32175.53204
28662.83287
25552.19763
22806.67653
20389.43439
18264.98277
16399.93344
14763.04078
13326.27672
12064.39787
10955.16018
9978.770887
9117.926633
8357.655203
7684.892992
7088.22967
6558.004396
6085.649214
5663.933218
5286.439148
4947.805403
4643.238754
4368.678732
4120.595823
3895.881052
3691.867062
3506.239458
3336.959867
3182.238392
3040.509998
2910.403295
2790.710264
2680.367644
2578.432586
115767.2851
114284.8747
111181.4292
106774.8736
101337.3735
95148.48422
88475.66634
81562.35751
74620.33714
67823.23082
61305.34723
55161.29967
49454.37873
44217.14234
39460.25401
35175.56681
31343.62907
27934.97868
24916.51481
22252.78563
19907.72832
17846.57184
16036.62895
14447.83314
13053.04445
11827.63578
10749.95719
9801.011292
8964.044474
8224.424439
7569.627685
6988.621013
6471.929358
6011.444669
5600.011163
5231.551362
4900.76318
4603.069804
4334.565652
4091.76376
3871.690742
3671.76905
3489.745455
3323.634132
3171.709342
3032.451115
2904.530178
2786.77212
2678.145634
2577.734119
112824.0233
111375.0277
108343.5206
104036.2829
98726.65531
92684.4662
86172.71591
79430.85079
72665.24646
66044.24802
59697.80706
53719.03052
48168.11714
43075.7119
38452.06853
34288.77256
30565.29998
27254.18224
24322.34884
21734.82959
19456.61872
17454.27641
15695.67272
14151.60345
12795.59463
11604.04362
10555.83205
9632.414957
8817.662043
8097.43033
7459.417059
6893.121177
6389.224069
5939.929458
5538.261786
5178.386071
4855.088957
4564.013744
4301.292932
4063.583606
3848.001016
3652.060851
3473.535224
3310.516913
3161.330004
3024.49635
2898.726049
2782.876058
2675.945182
2577.041723
109959.5571
108546.6849
105588.3578
101387.4951
96209.51496
90319.84501
83974.0864
77405.92262
70816.32416
64369.53756
58191.97162
52374.16191
46972.56981
42019.02663
37521.04496
33471.47828
29849.83014
26628.72857
23776.60133
21259.23857
19042.47852
17093.54107
15381.59705
13878.28317
12557.71359
11396.83934
10375.40596
9475.343793
8680.849435
7978.327712
7355.809414
6802.972181
6310.946742
5871.985668
5479.452619
5127.554639
4811.297183
4526.450289
4269.20207
4036.331809
3825.054414
3632.907669
3457.745849
3297.712988
3151.178151
3016.701055
2893.027891
2779.044422
2673.777471
2576.358442
107172.3333
105797.0422
102917.253
98831.11049
93791.55565
88060.58203
81886.6149
75496.15275
69084.48108
62812.17218
56801.54974
51139.30725
45882.33699
41059.7153
36680.48738
32736.12967
29208.12962
26069.56557
23289.45742
20834.92076
18673.07886
16771.84489
15101.19182
13633.69283
12344.36651
11210.63549
10212.69086
9333.16643
8556.621858
7869.68663
7260.915568
6720.088629
6238.647796
5808.980553
5424.673512
5080.009348
4770.202304
4491.03166
4238.827538
4010.451388
3803.179599
3614.586424
3442.594919
3285.390883
3141.382019
3009.160485
2887.503765
2775.322387
2671.667752
2575.691954
104460.6931
103126.2537
100334.632
96368.76621
91479.11536
85915.63316
79920.53917
73713.79937
67484.42546
61387.46019
55541.2444
50031.40745
44913.15076
40214.78042
35945.94365
32098.84777
28655.17119
25590.32126
22873.94123
20474.23196
18359.50265
16499.02044
14863.44856
13426.14152
12162.80637
11051.72458
10073.4276
9210.877585
8449.269472
7775.410039
7178.050396
6647.348765
6174.797005
5753.056615
5375.735688
5037.304367
4733.073624
4458.857062
4211.089386
3986.711415
3783.001918
3597.607043
3428.490077
3273.869433
3132.183547
3002.050532
2882.273726
2771.784204
2669.654294
2575.053183
101825.0883
100537.0681
97838.94542
94004.49776
89276.00232
83892.93518
78087.96419
72072.96094
66030.81099
60111.26746
54429.46059
49069.98727
44084.80603
39504.38934
35337.32672
31578.44438
28210.11582
25208.85515
22546.65062
20192.66924
18116.4658
16288.39858
14680.40389
13266.49148
12023.04083
10928.96255
9965.375147
9115.543872
8364.936759
7700.786745
7111.906018
6588.770821
6122.903469
5707.176793
5335.205967
5001.625733
4701.742235
4431.457347
4187.272731
3966.13869
3765.372096
3582.655575
3415.978521
3263.579779
3123.9174
2995.625562
2877.524205
2768.556885
2667.809824
2574.46476
99265.47706
98026.86089
95431.25291
91742.92452
87187.85473
81999.56437
76397.92439
70585.75025
64739.07292
59002.04971
53487.48653
48276.00629
43420.22888
38951.35918
34878.59804
31198.34776
27895.34699
24947.55836
22328.83017
20010.24105
17962.65497
16157.62954
14568.32215
13169.62786
11938.61878
10854.73228
9899.706864
9057.092014
8312.598099
7653.793172
7069.589015
6550.5977
6088.4771
5676.135245
5307.260405
4976.561028
4679.326386
4411.505091
4169.637693
3950.650507
3751.890778
3571.050134
3406.126262
3255.363493
3117.226391
2990.354521
2873.575382
2765.838096
2666.23615
2573.955984
96778.72162
95594.76201
93113.99366
89584.47577
85221.5016
80242.82053
74860.46575
69265.06345
63624.9242
58078.79853
52734.99436
47672.33421
42944.16611
38581.42303
34595.89178
30985.42219
27737.65371
24832.5683
22246.13196
19951.61769
17921.50996
16128.84124
14547.97742
13154.8458
11927.28603
10845.34799
9891.263728
9048.930588
8304.31676
7645.199031
7060.61539
6541.26051
6078.868572
5666.362977
5297.457541
4966.874011
4669.879153
4402.419334
4161.031801
3942.609983
3744.494477
3564.361518
3400.194353
3250.222397
3112.896827
2986.843797
2870.87951
2763.941563
2665.115581
2573.584011
93241.45556
90886.47773
87530.44094
83377.81021
78629.67287
73483.85698
68121.7436
62702.49715
57357.60124
52191.44311
47281.33511
42680.8845
38421.55547
34517.70481
30969.54847
27767.64747
24894.6953
22329.37082
20047.14315
18022.59938
16230.52206
14646.71187
13248.11085
12013.52697
10923.76574
9961.41379
9110.833868
8358.307735
7691.67551
7100.151524
6574.517968
6106.464955
5688.974365
5315.706929
4981.337933
4681.122928
4410.947575
4167.294364
3947.024032
3747.423278
3566.124754
3401.071108
3250.454827
3112.693792
2986.384787
2870.318839
2763.411582
2664.728631
2573.430233
)
;

boundaryField
{
    front_top
    {
        type            wedge;
    }
    front_middle
    {
        type            wedge;
    }
    front_bottom
    {
        type            wedge;
    }
    back_top
    {
        type            wedge;
    }
    back_middle
    {
        type            wedge;
    }
    back_bottom
    {
        type            wedge;
    }
    axis_top
    {
        type            symmetryPlane;
    }
    axis_middle
    {
        type            symmetryPlane;
    }
    axis_bottom
    {
        type            symmetryPlane;
    }
    wall_top
    {
        type            calculated;
        value           nonuniform 0();
    }
    wall_middle
    {
        type            calculated;
        value           uniform 2530.329233;
    }
    wall_bottom
    {
        type            calculated;
        value           nonuniform 0();
    }
    inlet
    {
        type            calculated;
        value           nonuniform 0();
    }
    outlet
    {
        type            calculated;
        value           nonuniform 0();
    }
    procBoundary3to2
    {
        type            processor;
        value           nonuniform List<scalar> 
51
(
94363.84832
94363.84832
90965.22843
88746.45648
85581.65511
81656.51477
77159.14327
72271.00895
67161.32495
61979.16581
56849.12226
51871.21912
47120.75747
42651.36398
38495.73409
34670.63631
31179.54133
28015.84669
25165.70951
22611.03371
20329.57541
18298.53728
16494.98978
14895.84066
13479.65247
12226.3831
11117.46824
10136.04437
9267.068371
8497.060207
7813.943107
7207.250343
6667.588103
6186.831236
5757.816103
5374.27072
5030.695845
4722.380275
4445.089748
4195.200807
3969.56367
3765.361006
3580.156374
3411.825015
3258.496277
3118.524707
2990.44538
2872.986897
2765.006087
2665.514011
2573.629994
)
;
    }
    procBoundary3to4
    {
        type            processor;
        value           nonuniform List<scalar> 
51
(
173496.6667
171573.4665
167523.3888
161712.0964
154452.1335
146056.5544
136844.7591
127114.4484
117143.6218
107176.5797
97419.64901
88037.73382
79156.82691
70863.52825
63209.12014
56218.99068
49890.69053
44206.40823
37934.76828
37934.76828
33583.67044
29741.35816
26360.39499
23393.48264
20794.93205
18522.05308
16535.34645
14799.03919
13281.25935
11953.57552
10791.00619
9771.749294
8876.70483
8089.295206
7395.23546
6782.180513
6239.524446
5758.035628
5329.820863
4948.086513
4606.92339
4301.33572
4026.87297
3779.835235
3556.881541
3355.207105
3172.351802
3006.129423
2854.674229
2716.35851
2589.727144
)
;
    }
}


// ************************************************************************* //
