/*--------------------------------*- C++ -*----------------------------------*\
  =========                 |
  \\      /  F ield         | OpenFOAM: The Open Source CFD Toolbox
   \\    /   O peration     | Website:  https://openfoam.org
    \\  /    A nd           | Version:  7
     \\/     M anipulation  |
\*---------------------------------------------------------------------------*/
FoamFile
{
    version     2.0;
    format      ascii;
    class       volVectorField;
    location    "0.0009";
    object      U;
}
// * * * * * * * * * * * * * * * * * * * * * * * * * * * * * * * * * * * * * //

dimensions      [0 1 -1 0 0 0 0];

internalField   nonuniform List<vector> 
1167
(
(-0.0001285857748 -1.393580465e-18 -0.01099274061)
(-0.0003342364544 -3.483380562e-18 -0.01098068861)
(-0.0005264371439 -4.173381596e-18 -0.01095480315)
(-0.0007230607794 -2.499091008e-18 -0.0109162382)
(-0.0009149865991 -1.709801897e-18 -0.010866016)
(-0.001100278446 -4.310935549e-18 -0.0108049746)
(-0.001278703812 -3.352663889e-18 -0.01073377646)
(-0.00144990675 -2.849441996e-18 -0.01065305124)
(-0.001613545064 -3.032173549e-18 -0.01056339579)
(-0.00176935861 -2.971480859e-18 -0.01046536419)
(-0.001917144936 -1.18494974e-18 -0.0103594687)
(-0.002056743923 -4.621421506e-18 -0.01024618236)
(-0.002188032062 -4.489035148e-18 -0.01012594111)
(-0.002310918642 -5.417193008e-18 -0.009999146013)
(-0.002425340297 -6.246739116e-18 -0.009866165798)
(-0.002531258715 -6.040743987e-18 -0.009727339994)
(-0.002628657963 -6.991200496e-18 -0.009582982081)
(-0.00271754224 -7.191021287e-18 -0.009433381692)
(-0.0001344605583 -4.944432087e-19 -0.0115061923)
(-0.0003495882431 3.532919465e-18 -0.01149347311)
(-0.0005506215354 -1.237281199e-18 -0.01146618432)
(-0.0007561742037 6.741132492e-19 -0.01142552406)
(-0.0009567934042 -3.673869233e-18 -0.01137256541)
(-0.001150411095 -2.615001197e-18 -0.01130818987)
(-0.001336769437 -4.142044258e-18 -0.01123309424)
(-0.001515494475 -4.911234372e-18 -0.01114793679)
(-0.001686224652 -5.536891382e-18 -0.01105334288)
(-0.001848684997 -5.325013189e-18 -0.01094989332)
(-0.002002663028 -5.139728705e-18 -0.01083812517)
(-0.002147992655 -5.427431733e-18 -0.01071853482)
(-0.002284548233 -5.71621957e-18 -0.01059158077)
(-0.002412238359 -7.43752896e-18 -0.01045768476)
(-0.002531001982 -7.755006627e-18 -0.01031723592)
(-0.002640805787 -8.267062642e-18 -0.01017059432)
(-0.002741640462 -8.59832793e-18 -0.01001809242)
(-0.002833518391 -8.508108144e-18 -0.009860039063)
(-0.002916471341 -8.857797172e-18 -0.009696720423)
(-0.002990548022 -8.928459496e-18 -0.00952840071)
(-0.003055811662 -8.020587995e-18 -0.009355323362)
(-0.003112337231 -7.757023743e-18 -0.009177709816)
(-0.00316020843 -7.193682837e-18 -0.008995757708)
(-0.003199514448 -7.449974529e-18 -0.00880963768)
(-0.003230345565 -7.816481095e-18 -0.0086194892)
(-0.003252788549 -8.099528309e-18 -0.008425415151)
(-0.003266921296 -8.32787678e-18 -0.008227474187)
(-0.003272805872 -8.163461044e-18 -0.008025671529)
(-0.003270480663 -7.955540543e-18 -0.007819947287)
(-0.003259950817 -7.86397941e-18 -0.007610161212)
(-0.003241175796 -8.278285646e-18 -0.007396073631)
(-0.003214054441 -7.073125029e-18 -0.00717732114)
(-0.003178406124 -6.465781226e-18 -0.006953385708)
(-0.003133947159 -6.448977739e-18 -0.006723555081)
(-0.003080261383 -5.642710357e-18 -0.006486873302)
(-0.003016765057 -6.228114528e-18 -0.006242083133)
(-0.002942667928 -6.504578191e-18 -0.005987562469)
(-0.002856933064 -6.325115673e-18 -0.005721261776)
(-0.00275824334 -6.755132968e-18 -0.005440659161)
(-0.002644984161 -6.414184982e-18 -0.0051427495)
(-0.002515249411 -5.986397794e-18 -0.004824080292)
(-0.002366876161 -5.87718528e-18 -0.004480837983)
(-0.002197502034 -4.563003126e-18 -0.004108973)
(-0.002004635377 -4.379719877e-18 -0.003704339497)
(-0.001785728276 -3.753838092e-18 -0.00326282704)
(-0.001538255343 -3.7027681e-18 -0.002780461942)
(-0.001259785834 -3.813928878e-18 -0.002253472707)
(-0.0009478894968 -3.382093421e-18 -0.001678413211)
(-0.0005996525461 -1.757182813e-18 -0.001052452465)
(-0.0002115986619 -3.229094897e-19 -0.000373331162)
(-0.0001408544909 3.625311964e-18 -0.01205509559)
(-0.0003662956002 -1.852442925e-18 -0.01204163918)
(-0.000576938065 -2.17715423e-18 -0.01201279688)
(-0.0007922014406 -2.809471728e-18 -0.01196982048)
(-0.001002270122 -7.765120893e-18 -0.01191384023)
(-0.001204932271 -4.504346072e-18 -0.01184578537)
(-0.001399901146 -5.922640671e-18 -0.01176639179)
(-0.001586781757 -7.088902837e-18 -0.01167635377)
(-0.001765191635 -7.191231099e-18 -0.01157632937)
(-0.001934839702 -7.166641425e-18 -0.01146693069)
(-0.002095502814 -7.227341747e-18 -0.0113487246)
(-0.002247009153 -7.234552273e-18 -0.01122223567)
(-0.002389229467 -7.960103286e-18 -0.01108794792)
(-0.002522072575 -8.587618898e-18 -0.01094630886)
(-0.002645481562 -8.730566806e-18 -0.01079773248)
(-0.002759428754 -9.076105024e-18 -0.01064260187)
(-0.00286391309 -9.517661559e-18 -0.01048127292)
(-0.002958957183 -9.829762167e-18 -0.01031407607)
(-0.003044604298 -1.011729909e-17 -0.01014131886)
(-0.003120915774 -9.974827366e-18 -0.009963286845)
(-0.003187968932 -1.057137972e-17 -0.009780243051)
(-0.003245853127 -8.892430466e-18 -0.00959242706)
(-0.003294666562 -8.121777616e-18 -0.009400053603)
(-0.003334512733 -7.864702923e-18 -0.009203309022)
(-0.003365495986 -7.895517558e-18 -0.009002346598)
(-0.003387716496 -7.892343834e-18 -0.00879728048)
(-0.003401264386 -7.983442631e-18 -0.008588177964)
(-0.00340621245 -8.214140849e-18 -0.008375049774)
(-0.003402608062 -8.425165604e-18 -0.00815783798)
(-0.003390462939 -8.067290282e-18 -0.007936400705)
(-0.003369740804 -8.295645669e-18 -0.007710492533)
(-0.003340342022 -7.639438105e-18 -0.007479738867)
(-0.003302083816 -6.990110251e-18 -0.007243604275)
(-0.003254676329 -6.41632692e-18 -0.007001353013)
(-0.003197693234 -6.650544238e-18 -0.006751999478)
(-0.00313053624 -6.206057672e-18 -0.00649424936)
(-0.003052395459 -6.258694707e-18 -0.006226436386)
(-0.002962210132 -6.362433459e-18 -0.005946461353)
(-0.002858634842 -6.422171692e-18 -0.005651747734)
(-0.00274002284 -6.13799196e-18 -0.005339232796)
(-0.00260443246 -5.912459901e-18 -0.005005405312)
(-0.002449661866 -6.014619647e-18 -0.00464639289)
(-0.002273306774 -5.182692849e-18 -0.004258088953)
(-0.002072830893 -5.519645083e-18 -0.003836293534)
(-0.00184564003 -4.895019238e-18 -0.003376848198)
(-0.001589162195 -4.826451474e-18 -0.002875737579)
(-0.001300920798 -3.345724576e-18 -0.002329156442)
(-0.0009784347532 -1.711244159e-18 -0.001733638002)
(-0.0006187152543 -4.015720626e-19 -0.001086351823)
(-0.0002182034082 -3.031038747e-19 -0.000385046698)
(-0.0001478093489 2.816392533e-19 -0.01264319296)
(-0.0003844673849 -6.070933237e-18 -0.01262891938)
(-0.0006055595226 -8.467674719e-18 -0.0125983534)
(-0.0008313810981 -5.047859498e-19 -0.01255281096)
(-0.001051718914 -3.403644214e-18 -0.01249348289)
(-0.001264204923 -7.584579146e-18 -0.01242135636)
(-0.001468521142 -7.201893206e-18 -0.01233720994)
(-0.001664248243 -8.047270931e-18 -0.01224177926)
(-0.001850980113 -8.641806684e-18 -0.01213576232)
(-0.002028408378 -9.394336218e-18 -0.01201980813)
(-0.002196298371 -7.178357547e-18 -0.01189451819)
(-0.002354470626 -8.61047544e-18 -0.01176044984)
(-0.00250279302 -9.723031302e-18 -0.01161811884)
(-0.002641176131 -9.514861566e-18 -0.01146800343)
(-0.002769566556 -9.482515448e-18 -0.01131054587)
(-0.002887943998 -9.705769675e-18 -0.01114615769)
(-0.002996317112 -1.027061417e-17 -0.01097522102)
(-0.003094720282 -1.100917032e-17 -0.01079809263)
(-0.003183210494 -1.083365794e-17 -0.01061510457)
(-0.00326186446 -1.075684353e-17 -0.01042656554)
(-0.003330775257 -1.075089274e-17 -0.01023276096)
(-0.003390048969 -9.961978507e-18 -0.01003395154)
(-0.003439801121 -9.289261236e-18 -0.00983037071)
(-0.00348015217 -8.846170727e-18 -0.009622221282)
(-0.003511222891 -8.50082147e-18 -0.009409670846)
(-0.003533128919 -7.965750904e-18 -0.009192845318)
(-0.003545974565 -8.012293194e-18 -0.008971821033)
(-0.003549845461 -8.328603884e-18 -0.008746614442)
(-0.003544799932 -8.570992177e-18 -0.008517169165)
(-0.003530858005 -8.791274421e-18 -0.008283340296)
(-0.003507988846 -8.839919069e-18 -0.008044874661)
(-0.003476094891 -8.751442491e-18 -0.007801385194)
(-0.003434992232 -8.168830635e-18 -0.007552318127)
(-0.003384385508 -7.586881252e-18 -0.007296911833)
(-0.003323837933 -7.058920618e-18 -0.007034147779)
(-0.003252736125 -6.929391541e-18 -0.006762692102)
(-0.003170249921 -7.093931495e-18 -0.006480831045)
(-0.00307529281 -7.220429473e-18 -0.006186411317)
(-0.00296648905 -7.302625969e-18 -0.005876797139)
(-0.002842156344 -6.522777529e-18 -0.005548861808)
(-0.0027003132 -7.245594895e-18 -0.005199027191)
(-0.002538713357 -6.317809598e-18 -0.004823352704)
(-0.00235490407 -6.68582511e-18 -0.004417663151)
(-0.002146296878 -6.780533141e-18 -0.003977691574)
(-0.001910242639 -6.379280252e-18 -0.003499216323)
(-0.00164411313 -5.455592044e-18 -0.00297816342)
(-0.00134537605 -3.455386141e-18 -0.002410676281)
(-0.001011488626 -3.320639398e-18 -0.001793248634)
(-0.000639374335 -2.115623973e-18 -0.00112303153)
(-0.0002253767659 -8.034808905e-19 -0.0003977633966)
(-0.0001553669515 -2.25986845e-18 -0.0132746529)
(-0.0004042141382 -6.947173639e-18 -0.01325947328)
(-0.0006366620007 -7.86954282e-18 -0.01322699333)
(-0.0008739540132 -6.925506822e-18 -0.01317860185)
(-0.001105445651 -9.025714788e-18 -0.01311555849)
(-0.001328598783 -8.916636976e-18 -0.01303891571)
(-0.001543059704 -9.349909112e-18 -0.0129495028)
(-0.001748383429 -8.711602768e-18 -0.01284810171)
(-0.001944137353 -9.51084523e-18 -0.01273545605)
(-0.002129992966 -1.062292362e-17 -0.01261225823)
(-0.002305702395 -1.047586412e-17 -0.01247915104)
(-0.00247107856 -1.085609126e-17 -0.01233673091)
(-0.002625986959 -9.328554214e-18 -0.01218555129)
(-0.002770338199 -8.2407058e-18 -0.01202612514)
(-0.00290408412 -1.004862651e-17 -0.01185892955)
(-0.003027212269 -9.389061601e-18 -0.01168440836)
(-0.003139742354 -9.765952816e-18 -0.01150297606)
(-0.003241722692 -9.935561518e-18 -0.01131501868)
(-0.003333225609 -9.482181472e-18 -0.0111208973)
(-0.003414345216 -8.902860022e-18 -0.01092094794)
(-0.003485193314 -1.039832212e-17 -0.01071548077)
(-0.003545895298 -1.037844788e-17 -0.01050477958)
(-0.00359658607 -1.006070499e-17 -0.01028909902)
(-0.003637405706 -9.625025737e-18 -0.01006866075)
(-0.003668494195 -9.336117283e-18 -0.009843647958)
(-0.003689985335 -9.076450917e-18 -0.009614198841)
(-0.003702000091 -8.973159806e-18 -0.009380398524)
(-0.003704638956 -8.563648533e-18 -0.009142268709)
(-0.003697972842 -8.948373869e-18 -0.008899754447)
(-0.003682032119 -8.636663305e-18 -0.008652707648)
(-0.00365679321 -9.006557632e-18 -0.008400866121)
(-0.003622161964 -9.318098329e-18 -0.008143827636)
(-0.003577953641 -9.532608943e-18 -0.007881017545)
(-0.003523867991 -9.41912057e-18 -0.007611646915)
(-0.003459458202 -9.031578235e-18 -0.007334661222)
(-0.003384095022 -8.870370825e-18 -0.007048682931)
(-0.00329692718 -8.609821229e-18 -0.006751947399)
(-0.003196840733 -7.71947569e-18 -0.006442242226)
(-0.003082426951 -8.902229665e-18 -0.006116866188)
(-0.002951964695 -9.828108529e-18 -0.005772621873)
(-0.002803428163 -9.734820511e-18 -0.005405855647)
(-0.002634521141 -7.985404818e-18 -0.005012548489)
(-0.002442735606 -8.461078645e-18 -0.004588444081)
(-0.002225423348 -7.628696046e-18 -0.004129195304)
(-0.001979871805 -6.823829605e-18 -0.003630502033)
(-0.001703387208 -5.994059908e-18 -0.003088215126)
(-0.001393371832 -3.990076357e-18 -0.002498408893)
(-0.001047210576 -3.755926532e-18 -0.00185751886)
(-0.0006617267041 -2.012492391e-18 -0.001162658639)
(-0.0002331515297 -5.776277418e-19 -0.0004115382831)
(-0.0001635686398 -3.228527438e-19 -0.01395411059)
(-0.0004256444717 -4.077285964e-18 -0.01393792667)
(-0.0006704164829 -5.313602537e-18 -0.01390331921)
(-0.0009201551012 -6.714888461e-18 -0.01385176237)
(-0.001163749655 -8.478086546e-18 -0.01378459504)
(-0.001398477236 -8.966700137e-18 -0.01370293906)
(-0.001623943588 -1.046940416e-17 -0.01360768331)
(-0.001839675076 -1.143935125e-17 -0.01349966383)
(-0.002045210151 -1.149318787e-17 -0.01337967582)
(-0.002240198132 -1.124280635e-17 -0.01324846178)
(-0.002424376488 -1.106337861e-17 -0.01310671276)
(-0.002597549264 -1.077787376e-17 -0.01295507064)
(-0.002759577179 -1.096165435e-17 -0.01279413207)
(-0.002910372041 -8.965174818e-18 -0.01262445221)
(-0.003049890634 -9.216205978e-18 -0.01244654844)
(-0.003178129375 -9.696410765e-18 -0.01226090301)
(-0.003295120156 -9.986376514e-18 -0.01206796713)
(-0.003400926043 -1.021871484e-17 -0.01186816285)
(-0.003495637335 -1.041096424e-17 -0.01166188374)
(-0.003579367398 -1.079704343e-17 -0.01144949699)
(-0.003652248741 -1.074742092e-17 -0.01123134231)
(-0.003714428844 -9.736322856e-18 -0.01100773001)
(-0.003766065028 -1.099959334e-17 -0.01077893804)
(-0.003807319685 -1.080158693e-17 -0.01054520852)
(-0.003838354345 -1.010238983e-17 -0.01030674213)
(-0.003859323647 -9.60177287e-18 -0.01006369108)
(-0.003870368103 -9.379244479e-18 -0.009816150271)
(-0.003871605723 -9.174735023e-18 -0.009564146563)
(-0.003863122407 -8.838070389e-18 -0.009307625331)
(-0.003844960565 -8.601367101e-18 -0.009046433935)
(-0.003817105338 -9.177842238e-18 -0.008780300488)
(-0.003779467856 -8.889427965e-18 -0.008508806582)
(-0.003731863846 -9.19913321e-18 -0.008231353601)
(-0.003673988313 -9.371306072e-18 -0.007947121705)
(-0.003605384752 -8.597360984e-18 -0.007655018111)
(-0.003525407887 -9.313329355e-18 -0.007353617358)
(-0.003433183906 -9.299692728e-18 -0.007041098634)
(-0.003327570054 -1.016376066e-17 -0.006715185294)
(-0.003207121747 -9.622341473e-18 -0.006373103992)
(-0.003070075612 -9.593666948e-18 -0.006011578486)
(-0.002914356697 -9.64308764e-18 -0.005626870394)
(-0.002737613316 -1.076422597e-17 -0.005214871257)
(-0.002537275609 -9.585343777e-18 -0.004771231419)
(-0.002310627968 -7.914336299e-18 -0.004291509433)
(-0.002054885854 -6.929480149e-18 -0.003771310959)
(-0.001767281075 -6.723480037e-18 -0.003206395446)
(-0.001445141118 -4.866208043e-18 -0.002592750699)
(-0.001085768255 -3.666752101e-18 -0.001926735445)
(-0.000685873395 -2.19594986e-18 -0.001205407187)
(-0.0002415614953 -6.363023136e-19 -0.0004264302078)
(-0.0001724522947 1.729518977e-18 -0.01468669965)
(-0.0004488575517 -5.951363669e-18 -0.01466940219)
(-0.0007069796518 -1.424884816e-17 -0.01463243102)
(-0.0009702023525 -8.928283952e-18 -0.01457736179)
(-0.001226910065 -6.663987381e-18 -0.0145056187)
(-0.00147418044 -8.385713583e-18 -0.01441840283)
(-0.001711575516 -9.062143457e-18 -0.01431666732)
(-0.0019385886 -6.949049747e-18 -0.01420131039)
(-0.002154726202 -1.077601107e-17 -0.01407318719)
(-0.002359613449 -1.123059203e-17 -0.01393309728)
(-0.002552970422 -1.389853726e-17 -0.01378178588)
(-0.002734589558 -1.179479051e-17 -0.01361994764)
(-0.002904326983 -1.068508034e-17 -0.01344823036)
(-0.003062094595 -9.79748579e-18 -0.01326723806)
(-0.003207853606 -9.973803958e-18 -0.01307753456)
(-0.003341609594 -1.025416812e-17 -0.01287964768)
(-0.003463407347 -1.032732643e-17 -0.01267407122)
(-0.003573325914 -1.048072431e-17 -0.01246126802)
(-0.003671474339 -1.060864698e-17 -0.0122416714)
(-0.003757987727 -1.130382897e-17 -0.01201568438)
(-0.003833021828 -1.149572563e-17 -0.01178367964)
(-0.003896747985 -1.180014738e-17 -0.01154599811)
(-0.003949348556 -1.225735122e-17 -0.01130294554)
(-0.003991011293 -1.214371415e-17 -0.01105478749)
(-0.004021922425 -1.260939475e-17 -0.01080174397)
(-0.004042260348 -1.056179587e-17 -0.01054398229)
(-0.004052187631 -1.024462777e-17 -0.01028160806)
(-0.004051842346 -1.000975979e-17 -0.01001465426)
(-0.004041328213 -8.854606454e-18 -0.009743067025)
(-0.004020702241 -8.859366674e-18 -0.009466688193)
(-0.003989960325 -7.791773526e-18 -0.009185233877)
(-0.003949019977 -9.020260864e-18 -0.008898267633)
(-0.003897699072 -9.380575624e-18 -0.008605165602)
(-0.003835688998 -9.339526847e-18 -0.008305073231)
(-0.00376252335 -9.201418181e-18 -0.007996854984)
(-0.003677540877 -9.029479904e-18 -0.007679033989)
(-0.003579844184 -9.116734379e-18 -0.007349727532)
(-0.003468259884 -9.873983591e-18 -0.00700658826)
(-0.003341304874 -8.867452028e-18 -0.006646763365)
(-0.003197169853 -8.643226456e-18 -0.006266888733)
(-0.003033726058 -8.907970526e-18 -0.005863131303)
(-0.002848560501 -9.173716819e-18 -0.005431281083)
(-0.002639035027 -8.800992788e-18 -0.004966882707)
(-0.002402359246 -7.781163639e-18 -0.004465386001)
(-0.002135668383 -6.698943726e-18 -0.003922286726)
(-0.001836111274 -5.65297397e-18 -0.003333236545)
(-0.001500931528 -4.335121138e-18 -0.002694119375)
(-0.001127339071 -3.070332731e-18 -0.002001198972)
(-0.0007119209872 -2.036220984e-18 -0.001251458761)
(-0.0002506421977 -4.907398428e-19 -0.0004425002486)
(-0.0001820483053 -9.769990266e-18 -0.01547807476)
(-0.0004739341471 -6.693913228e-18 -0.01545954658)
(-0.0007464829191 -8.895921789e-18 -0.01541995702)
(-0.001024279792 -1.050717675e-17 -0.0153609991)
(-0.00129516602 -9.563119602e-18 -0.01528418797)
(-0.001556003801 -9.103563293e-18 -0.0151908155)
(-0.001806307907 -8.970456546e-18 -0.01508190618)
(-0.00204553665 -9.936334524e-18 -0.01495842607)
(-0.00227316037 -9.852947147e-18 -0.01482129725)
(-0.002488775977 -9.756370367e-18 -0.01467138422)
(-0.002692083594 -9.824171809e-18 -0.01450949433)
(-0.00288286317 -7.844734353e-18 -0.01433638259)
(-0.003060963433 -9.633180881e-18 -0.01415275477)
(-0.003226294138 -1.011174103e-17 -0.01395927072)
(-0.00337882065 -1.048302871e-17 -0.01375654911)
(-0.003518556827 -1.06650915e-17 -0.01354516925)
(-0.003645560163 -1.090948341e-17 -0.01332567558)
(-0.003759926364 -1.102660107e-17 -0.0130985784)
(-0.003861784613 -1.108773195e-17 -0.01286435572)
(-0.003951292422 -1.112210259e-17 -0.0126234534)
(-0.004028630626 -1.158970888e-17 -0.01237628342)
(-0.004093997277 -1.201056079e-17 -0.01212322156)
(-0.004147602357 -1.243505077e-17 -0.01186460469)
(-0.004189661122 -1.194677873e-17 -0.0116007258)
(-0.004220387391 -1.235220221e-17 -0.01133182797)
(-0.004239986515 -1.26308945e-17 -0.01105809635)
(-0.004248646367 -1.227257718e-17 -0.01077964873)
(-0.004246528179 -1.159734653e-17 -0.01049652431)
(-0.004233755824 -1.08271552e-17 -0.01020867)
(-0.00421040344 -1.046653216e-17 -0.009915922546)
(-0.00417648044 -1.025206833e-17 -0.009617985463)
(-0.004131912908 -9.835471893e-18 -0.00931440135)
(-0.004076521851 -9.886443291e-18 -0.009004518021)
(-0.00400999648 -9.830472627e-18 -0.00868744427)
(-0.003931861136 -9.762468584e-18 -0.008361997117)
(-0.003841438119 -8.762260801e-18 -0.008026642698)
(-0.003737805853 -9.630382043e-18 -0.007679430861)
(-0.003619758282 -1.061533884e-17 -0.007317936255)
(-0.003485771338 -9.234680135e-18 -0.006939218377)
(-0.003333985952 -9.227835597e-18 -0.0065398158)
(-0.00316221497 -8.800306301e-18 -0.006115789687)
(-0.002967978466 -8.781770428e-18 -0.005662816129)
(-0.002748563501 -7.977994347e-18 -0.005176320775)
(-0.002501097754 -7.077095908e-18 -0.00465163007)
(-0.002222628502 -6.488295811e-18 -0.004084114546)
(-0.001910213587 -5.067429672e-18 -0.003469301836)
(-0.001561004222 -4.12655349e-18 -0.002802954753)
(-0.001172108856 -2.5040707e-18 -0.002081224188)
(-0.0007399801285 -1.756194014e-18 -0.001301002167)
(-0.0002604301626 -1.754640256e-19 -0.0004598112068)
(-0.0001923767729 -2.602169126e-18 -0.01633442994)
(-0.0005009284672 -9.895786669e-18 -0.01631454851)
(-0.0007890148952 -1.326519706e-17 -0.01627207048)
(-0.001082512001 -4.203625841e-18 -0.01620882128)
(-0.001368683134 -9.302544873e-18 -0.01612641853)
(-0.001644159596 -9.123977171e-18 -0.01602624874)
(-0.001908403422 -9.474210531e-18 -0.01590941865)
(-0.002160835321 -8.073683674e-18 -0.01577696859)
(-0.002400886448 -6.457203362e-18 -0.01562989377)
(-0.002628122055 -7.389192615e-18 -0.01546913064)
(-0.002842219397 -9.011141861e-18 -0.0152955566)
(-0.003042941735 -8.218037368e-18 -0.01510999334)
(-0.003230126866 -9.104165458e-18 -0.01491321199)
(-0.003403681411 -9.433561891e-18 -0.01470593715)
(-0.003563571598 -1.040710543e-17 -0.01448884866)
(-0.00370981829 -1.076112613e-17 -0.01426258677)
(-0.00384249094 -1.091412014e-17 -0.01402775274)
(-0.00396170106 -1.157934825e-17 -0.01378491269)
(-0.004067598073 -1.189449448e-17 -0.01353459727)
(-0.004160363206 -1.20780579e-17 -0.01327730073)
(-0.004240203013 -1.214980296e-17 -0.01301348067)
(-0.004307343769 -1.227290567e-17 -0.01274355498)
(-0.004362025446 -1.251538519e-17 -0.01246789744)
(-0.004404493705 -1.208931173e-17 -0.01218683253)
(-0.004434992826 -1.164998165e-17 -0.01190062954)
(-0.004453757521 -1.163137047e-17 -0.01160949472)
(-0.004461003925 -1.176980616e-17 -0.01131356143)
(-0.004456919949 -1.217277046e-17 -0.01101287756)
(-0.004441653036 -1.225263386e-17 -0.01070739098)
(-0.004415297174 -1.1973178e-17 -0.01039693235)
(-0.004377877493 -1.190726179e-17 -0.01008119223)
(-0.004329331457 -1.133930103e-17 -0.009759691728)
(-0.004269485306 -1.10249068e-17 -0.009431746919)
(-0.004198026945 -1.079591199e-17 -0.009096425837)
(-0.004114472647 -1.061947599e-17 -0.00875249464)
(-0.004018128202 -1.045631665e-17 -0.008398356674)
(-0.003908047253 -1.052260727e-17 -0.008031987844)
(-0.003782989358 -9.323050108e-18 -0.007650877001)
(-0.003641386853 -9.502726331e-18 -0.007251986411)
(-0.003481327212 -9.117254716e-18 -0.006831747257)
(-0.003300560324 -8.66536621e-18 -0.006386103028)
(-0.003096534101 -8.344783857e-18 -0.005910603737)
(-0.002866454624 -7.605420496e-18 -0.005400541992)
(-0.002607360674 -7.575856204e-18 -0.00485110569)
(-0.002316204681 -6.797628173e-18 -0.004257525285)
(-0.001989946224 -5.865818549e-18 -0.003615188683)
(-0.001625636425 -4.771771552e-18 -0.002919720719)
(-0.001220273949 -3.640351495e-18 -0.002167141908)
(-0.0007701674163 -2.879951146e-18 -0.001354235847)
(-0.0002709638728 -9.195430266e-19 -0.0004784296046)
(-0.0002034408913 4.310087901e-19 -0.01726249011)
(-0.0005298505194 -4.682324216e-18 -0.01724112828)
(-0.000834592814 -6.021394341e-18 -0.01719547809)
(-0.001144929431 -5.342199937e-18 -0.01712751899)
(-0.001447510901 -9.157629258e-18 -0.01703897868)
(-0.001738723871 -9.405660618e-18 -0.01693134454)
(-0.002017974405 -9.179051298e-18 -0.01680580878)
(-0.002284640908 -9.091215423e-18 -0.01666349446)
(-0.00253811252 -1.191849866e-17 -0.01650547702)
(-0.002777919495 -8.246434422e-18 -0.0163327702)
(-0.003003710496 -7.585971828e-18 -0.01614632673)
(-0.003215227681 -9.044851343e-18 -0.01594704347)
(-0.003412296311 -9.862318092e-18 -0.01573576478)
(-0.003594813968 -1.043648905e-17 -0.01551328598)
(-0.00376274511 -1.116786068e-17 -0.01528035721)
(-0.003916114439 -1.149436621e-17 -0.01503768647)
(-0.004055000319 -1.168794763e-17 -0.01478594209)
(-0.004179529171 -1.19721662e-17 -0.0145257527)
(-0.0042898689 -1.230271822e-17 -0.01425770964)
(-0.004386223484 -1.454535773e-17 -0.01398236517)
(-0.004468826146 -1.335388897e-17 -0.01370022965)
(-0.004537932423 -1.361489801e-17 -0.01341176915)
(-0.004593813011 -1.382679712e-17 -0.01311740117)
(-0.00463674589 -1.408682685e-17 -0.01281748886)
(-0.004667008567 -1.480895874e-17 -0.01251233348)
(-0.004684868285 -1.283372965e-17 -0.01220216616)
(-0.004690572546 -1.229238817e-17 -0.0118871384)
(-0.004684338408 -1.256121566e-17 -0.01156730963)
(-0.004666340312 -1.254604188e-17 -0.01124263191)
(-0.00463669579 -1.208071033e-17 -0.0109129306)
(-0.004595448701 -1.153464977e-17 -0.01057788183)
(-0.00454255001 -1.137628334e-17 -0.010236984)
(-0.00447783397 -1.115900443e-17 -0.009889520328)
(-0.004400988985 -1.142431101e-17 -0.009534513997)
(-0.004311524193 -1.058510207e-17 -0.009170675496)
(-0.004208729456 -1.152960874e-17 -0.008796339873)
(-0.004091632907 -1.114189654e-17 -0.008409401763)
(-0.003958958532 -1.081020695e-17 -0.008007256028)
(-0.003809092572 -1.013906302e-17 -0.007586757982)
(-0.003640065658 -1.003458119e-17 -0.007144220123)
(-0.003449560274 -9.489141644e-18 -0.006675455454)
(-0.003234947041 -8.95124353e-18 -0.006175875111)
(-0.00299334553 -8.795077191e-18 -0.005640624647)
(-0.002721699552 -8.469043786e-18 -0.005064738898)
(-0.002416860548 -8.270669607e-18 -0.004443293223)
(-0.002075683457 -7.180985581e-18 -0.003771520511)
(-0.001695112996 -6.162379322e-18 -0.003044891769)
(-0.001272031383 -4.833016176e-18 -0.002259281246)
(-0.0008025955033 -3.196771261e-18 -0.001411348925)
(-0.0002822782787 -1.088477816e-18 -0.0004984134478)
(-0.0002152169934 -2.55387779e-18 -0.01826945719)
(-0.0005606395049 -6.960954434e-18 -0.01824648817)
(-0.000883127298 -7.393368579e-19 -0.0181973817)
(-0.001211420805 -4.736982347e-18 -0.01812429347)
(-0.001531525921 -9.675544384e-18 -0.01802906183)
(-0.00183957043 -1.194608605e-17 -0.0179132859)
(-0.002134903571 -1.410850152e-17 -0.0177782463)
(-0.002416860205 -1.232890743e-17 -0.01762515151)
(-0.00268478238 -1.195653993e-17 -0.01745516184)
(-0.00293815979 -1.152608202e-17 -0.01726937394)
(-0.003176608696 -9.461991828e-18 -0.01706882176)
(-0.00339984663 -8.905638982e-18 -0.0168544832)
(-0.003607677926 -9.49269779e-18 -0.01662728117)
(-0.003799986788 -1.097690952e-17 -0.01638808933)
(-0.003976730657 -1.159968102e-17 -0.01613773573)
(-0.004137933056 -1.169818864e-17 -0.01587700422)
(-0.004283676949 -1.165533727e-17 -0.01560663741)
(-0.004414098909 -1.209287725e-17 -0.01532733766)
(-0.004529383271 -1.232077653e-17 -0.01503976498)
(-0.004629754541 -1.262495082e-17 -0.01474453752)
(-0.00471547046 -1.351597367e-17 -0.01444222852)
(-0.004786815417 -1.409755004e-17 -0.01413336171)
(-0.004844091624 -1.458165943e-17 -0.01381840584)
(-0.004887610498 -1.494060999e-17 -0.01349776933)
(-0.004917683849 -1.489664377e-17 -0.01317179254)
(-0.004934613803 -1.478265681e-17 -0.01284073872)
(-0.004938682402 -1.349456696e-17 -0.01250478301)
(-0.004930139297 -1.258400001e-17 -0.0121639995)
(-0.004909188811 -1.289831705e-17 -0.01181834656)
(-0.004875975094 -1.260017652e-17 -0.01146764732)
(-0.004830564597 -1.220752892e-17 -0.01111156499)
(-0.004772924923 -1.181351832e-17 -0.01074957366)
(-0.004702900637 -1.161356088e-17 -0.01038092184)
(-0.004620183335 -1.165757781e-17 -0.01000458551)
(-0.004524276342 -1.101120225e-17 -0.009619214512)
(-0.004414454655 -1.145322608e-17 -0.009223069993)
(-0.004289720645 -1.088170589e-17 -0.00881395784)
(-0.004148761761 -1.03757895e-17 -0.008389169618)
(-0.003989915875 -9.611355719e-18 -0.007945443633)
(-0.003811153829 -9.475387327e-18 -0.007478961864)
(-0.003610086982 -9.39955073e-18 -0.00698539463)
(-0.003384004022 -8.60004516e-18 -0.006460000318)
(-0.003129932829 -8.566146755e-18 -0.005897762856)
(-0.002844717454 -7.528137816e-18 -0.005293550544)
(-0.002525103627 -6.827669561e-18 -0.004642270004)
(-0.002167836615 -5.983215671e-18 -0.003938984524)
(-0.00176974964 -5.437747257e-18 -0.003178995991)
(-0.001327603591 -4.827842094e-18 -0.002358017324)
(-0.000837397 -3.277276111e-18 -0.001472568328)
(-0.000294417928 -1.161443829e-18 -0.0005198417433)
(-0.0002276431829 -1.125920235e-18 -0.01936290913)
(-0.0005931375273 -3.553133116e-18 -0.01933821581)
(-0.0009343780164 -2.039121845e-18 -0.01928538384)
(-0.001281666769 -6.075600952e-18 -0.01920676386)
(-0.001620345036 -9.514914098e-18 -0.01910431013)
(-0.001946271605 -1.211626733e-17 -0.01897973329)
(-0.00225873561 -1.355176554e-17 -0.018834409)
(-0.00255702814 -1.283041854e-17 -0.01866963179)
(-0.002840441371 -1.214912787e-17 -0.01848664793)
(-0.003108419933 -1.14549561e-17 -0.01828663968)
(-0.003360543004 -1.100506679e-17 -0.01807072567)
(-0.003596494213 -1.070710639e-17 -0.0178399663)
(-0.003816050622 -1.123669399e-17 -0.01759536905)
(-0.004019076372 -1.203098036e-17 -0.0173378924)
(-0.004205513556 -1.232597317e-17 -0.01706844742)
(-0.004375377035 -1.264826531e-17 -0.01678790228)
(-0.004528747451 -1.246665887e-17 -0.01649708193)
(-0.004665765333 -1.29554692e-17 -0.01619676979)
(-0.004786624784 -1.394755618e-17 -0.01588770634)
(-0.004891566541 -1.416840854e-17 -0.01557058566)
(-0.004980869672 -1.461084249e-17 -0.01524605251)
(-0.005054844066 -1.477667049e-17 -0.01491469821)
(-0.00511382156 -1.597034378e-17 -0.01457705408)
(-0.005158146827 -1.540441963e-17 -0.01423358391)
(-0.005188166825 -1.481550514e-17 -0.01388467534)
(-0.005204219848 -1.402139756e-17 -0.01353063078)
(-0.005206623891 -1.535719834e-17 -0.01317165651)
(-0.005195664179 -1.516551319e-17 -0.01280784871)
(-0.005171578516 -1.428017767e-17 -0.01243917659)
(-0.005134540943 -1.346645785e-17 -0.01206546338)
(-0.005084643564 -1.264349465e-17 -0.01168636205)
(-0.00502187456 -1.268700453e-17 -0.01130132398)
(-0.004946091872 -1.08351632e-17 -0.01090956131)
(-0.004856992973 -1.048976045e-17 -0.01051000074)
(-0.004754077654 -1.009646111e-17 -0.01010122745)
(-0.00463660713 -9.901738427e-18 -0.009681422453)
(-0.004503558594 -9.775637632e-18 -0.009248295684)
(-0.004353582365 -9.705179344e-18 -0.008799026275)
(-0.00418496634 -9.040732998e-18 -0.008330224587)
(-0.003995618851 -8.638807061e-18 -0.007837929115)
(-0.003783076845 -8.463129475e-18 -0.007317655047)
(-0.003544543499 -8.544815635e-18 -0.006764494334)
(-0.003276951076 -8.343553956e-18 -0.006173255501)
(-0.002977040345 -7.786713151e-18 -0.005538626881)
(-0.00264144801 -7.716570832e-18 -0.004855333464)
(-0.002266807006 -5.681700756e-18 -0.004118256178)
(-0.001849836934 -5.223828534e-18 -0.00332251566)
(-0.001387175917 -3.052228439e-18 -0.00246365256)
(-0.0008746630819 -1.476997101e-18 -0.00153803882)
(-0.0003074031833 -5.707622928e-19 -0.0005427397911)
(-0.0002406057514 1.752437805e-18 -0.02055062049)
(-0.000627050679 4.913051297e-18 -0.02052410419)
(-0.0009878880086 -7.383960438e-18 -0.02046730757)
(-0.001355056104 -9.928307489e-18 -0.02038279907)
(-0.001713221117 -1.045995701e-17 -0.02027265193)
(-0.002057968611 -1.349919142e-17 -0.02013868409)
(-0.00238852811 -1.480734467e-17 -0.01998236268)
(-0.002704145784 -1.340435262e-17 -0.01980506949)
(-0.00300406267 -1.235707616e-17 -0.01960813507)
(-0.003287674147 -1.118894131e-17 -0.0193928246)
(-0.003554513774 -1.190526738e-17 -0.01916034003)
(-0.003804224826 -1.197813062e-17 -0.01891182607)
(-0.004036549737 -1.290853372e-17 -0.01864837659)
(-0.004251320393 -1.392906681e-17 -0.01837103586)
(-0.004448453862 -1.469960831e-17 -0.01808080431)