/*--------------------------------*- C++ -*----------------------------------*\
  =========                 |
  \\      /  F ield         | OpenFOAM: The Open Source CFD Toolbox
   \\    /   O peration     | Website:  https://openfoam.org
    \\  /    A nd           | Version:  7
     \\/     M anipulation  |
\*---------------------------------------------------------------------------*/
FoamFile
{
    version     2.0;
    format      ascii;
    class       volVectorField;
    location    "0.0027";
    object      grad(generalizedNewtonian:nu);
}
// * * * * * * * * * * * * * * * * * * * * * * * * * * * * * * * * * * * * * //

dimensions      [0 1 -1 0 0 0 0];

internalField   nonuniform List<vector> 
1167
(
(-21129.98956 0 -22330.84984)
(-40728.5249 0 -21850.31505)
(-65602.0811 -1.766087453e-09 -20489.51102)
(-91832.79287 0 -18828.03997)
(-114378.3057 0 -16727.55086)
(-135848.2116 0 -14331.3996)
(-155345.5823 0 -11753.51992)
(-172261.3362 0 -9168.370737)
(-185911.2166 0 -6713.969401)
(-195483.0173 5.645090647e-10 -4495.898053)
(-200242.9661 0 -2618.913682)
(-199731.9116 0 -1155.459463)
(-193975.6838 0 -116.5133)
(-183591.5496 -2.218936483e-10 547.693206)
(-169693.7516 0 919.7375415)
(-153636.936 1.021184976e-10 1084.908926)
(-136725.0544 0 1114.061449)
(-21777.57004 1.676159064e-08 -24497.51056)
(-42589.37455 0 -23959.81502)
(-68413.68674 1.766087453e-09 -22453.60336)
(-95385.69929 0 -20629.86635)
(-118670.8174 1.037132521e-09 -18317.69859)
(-140673.2867 0 -15691.99046)
(-160456.1304 0 -12867.26895)
(-177333.7643 0 -10017.43306)
(-190670.6304 6.136491728e-10 -7322.540645)
(-199705.9867 -5.645090647e-10 -4913.609122)
(-203742.7004 0 -2892.337679)
(-202403.7375 0 -1320.224302)
(-195832.9521 2.331079767e-10 -200.305312)
(-184745.0383 -2.218936483e-10 518.8657738)
(-170302.0893 0 922.1888064)
(-153857.5064 0 1099.94811)
(-136694.9435 0 1128.508927)
(-119857.7498 0 1073.783716)
(-104060.3011 0 978.6417711)
(-89698.58816 0 866.4222496)
(-76939.62573 0 752.7388735)
(-65791.80564 -4.341488838e-11 645.4549052)
(-56162.93053 0 547.4536536)
(-47914.18573 0 460.8272878)
(-40886.2607 0 385.1885788)
(-34920.45124 0 320.2303368)
(-29867.75151 0 264.9547052)
(-25592.7049 0 218.1058588)
(-21977.22694 0 178.8596)
(-18918.09041 -9.841595743e-12 146.040196)
(-16327.58172 0 118.7874051)
(-14131.45922 0 96.22794273)
(-12266.48338 0 77.57115122)
(-10680.04586 0 62.25320677)
(-9327.858535 0 49.68309742)
(-8172.482257 0 39.37575058)
(-7183.045475 0 30.92457141)
(-6333.795173 0 24.03788734)
(-5602.953302 -2.405189498e-12 18.42295045)
(-4972.35539 0 13.84712945)
(-4426.826288 1.206414697e-12 10.12211304)
(-3953.63026 0 7.093032414)
(-3542.092704 0 4.632528544)
(-3183.266673 0 2.63662115)
(-2869.627702 0 1.022785156)
(-2594.811784 0 -0.2796517115)
(-2353.523269 0 -1.329835957)
(-2141.508831 0 -2.173668196)
(-1955.794979 0 -2.85008892)
(-1795.429332 0 -3.392687811)
(-22503.87355 0 -26763.9705)
(-44652.28437 0 -26159.39951)
(-71517.5417 0 -24505.27998)
(-99295.36423 1.296916343e-09 -22489.53587)
(-123389.5684 -1.037132521e-09 -19941.7866)
(-145952.7212 0 -17049.51377)
(-166038.7219 -7.590816911e-10 -13980.73143)
(-182887.7915 0 -10874.83389)
(-195864.9791 6.136491728e-10 -7933.446759)
(-204275.9609 0 -5319.842228)
(-207500.8877 -2.625550867e-10 -3145.066737)
(-205265.0859 -2.464598854e-10 -1463.815473)
(-197822.0271 0 -270.7367217)
(-185979.6844 0 494.0151628)
(-170949.9365 0 921.2483311)
(-154087.3373 1.021184976e-10 1105.080965)
(-136660.6393 1.972231438e-10 1133.895925)
(-119679.6071 0 1077.50811)
(-103810.3742 0 978.9107993)
(-89422.35157 0 862.8515304)
(-76666.03148 0 746.3878626)
(-65534.02272 0 636.9234021)
(-55927.73138 0 538.0957305)
(-47704.18917 0 451.3071258)
(-40701.58677 0 375.8976004)
(-34760.20442 0 311.633208)
(-29729.4148 -2.019241095e-11 257.1384879)
(-25474.1623 0 211.2914491)
(-21876.27825 -9.913505491e-12 173.0018967)
(-18832.53201 0 141.0567659)
(-16255.44686 0 114.6505373)
(-14070.6852 0 92.82986832)
(-12215.48868 0 74.8140617)
(-10637.43013 0 60.04824996)
(-9292.253864 0 47.93963559)
(-8142.745525 0 38.00893246)
(-7158.277672 0 29.88710602)
(-6313.226115 0 23.26417671)
(-5585.866597 0 17.86193696)
(-4958.17023 0 13.45715352)
(-4415.061284 0 9.868752175)
(-3943.881505 1.209402773e-12 6.947654567)
(-3534.021521 -1.213068337e-12 4.570479874)
(-3176.601074 0 2.64038368)
(-2864.139899 0 1.078497149)
(-2590.296137 0 -0.1836080719)
(-2349.812925 0 -1.204728478)
(-2138.469637 6.203589913e-13 -2.027696093)
(-1953.307811 0 -2.689492908)
(-1793.380913 0 -3.222147389)
(-23322.3297 0 -29112.28282)
(-46918.51986 0 -28441.40354)
(-74935.748 0 -26626.1436)
(-103618.5522 0 -24395.91485)
(-128598.33 0 -21595.90645)
(-151719.3819 0 -18417.37974)
(-172092.758 0 -15078.78342)
(-188923.8019 0 -11719.96574)
(-201502.8165 0 -8534.09419)
(-209208.198 0 -5712.847031)
(-211530.2163 0 -3381.813997)
(-208311.2136 0 -1593.846583)
(-199927.5155 0 -332.9000907)
(-187280.8758 -2.218936483e-10 470.6467051)
(-171622.695 0 913.5074654)
(-154321.6435 1.021184976e-10 1101.088634)
(-136627.2157 0 1131.853728)
(-119496.8314 0 1075.024122)
(-103553.4971 0 973.1990287)
(-89140.33472 0 855.0299433)
(-76387.38633 0 737.096145)
(-65273.28794 0 626.3556044)
(-55692.26755 0 527.3359964)
(-47495.17422 0 440.8202472)
(-40518.68633 0 366.1606067)
(-34602.02345 0 302.8093161)
(-29593.63965 0 249.2369402)
(-25358.5324 0 204.4818579)
(-21778.05294 0 167.203187)
(-18749.50124 -9.841595743e-12 136.1903475)
(-16185.61061 0 110.6154089)
(-14011.97218 0 89.52085243)
(-12166.30465 0 72.14289022)
(-10596.36659 0 57.91570111)
(-9257.937454 0 46.25558182)
(-8114.128498 0 36.68836555)
(-7134.484388 0 28.88661392)
(-6293.442468 0 22.51851223)
(-5569.422298 0 17.32144277)
(-4944.509878 0 13.08164466)
(-4403.721132 0 9.625003704)
(-3934.469056 0 6.807695342)
(-3526.221447 0 4.511298806)
(-3170.156799 0 2.647273266)
(-2858.825487 0 1.135592973)
(-2585.913033 0 -0.08903192235)
(-2346.200468 0 -1.080791948)
(-2135.501615 0 -1.882989845)
(-1950.871033 0 -2.530249631)
(-1791.367691 0 -3.052949774)
(-24218.05978 0 -31526.5732)
(-49413.73906 0 -30791.07406)
(-78711.02034 0 -28790.44648)
(-108367.2911 0 -26327.09048)
(-134299.7991 0 -23261.70336)
(-158025.1888 0 -19785.65528)
(-178658.3158 0 -16135.13334)
(-195431.6338 0 -12518.12521)
(-207577.9067 0 -9103.379668)
(-214498.8224 0 -6082.2559)
(-215818.2719 0 -3599.334015)
(-211530.7052 0 -1709.492096)
(-202139.2638 0 -387.3421204)
(-188630.7842 -2.218936483e-10 444.5431179)
(-172312.15 0 897.2628195)
(-154564.0588 1.021184976e-10 1091.001691)
(-136596.191 0 1124.565109)
(-119310.0381 0 1067.102253)
(-103291.0575 0 962.9972388)
(-88855.53966 0 843.6310977)
(-76107.08552 0 724.9967491)
(-65011.90574 0 614.177821)
(-55457.29896 0 515.5194207)
(-47287.84904 0 429.5031609)
(-40338.40448 0 355.9308597)
(-34446.70641 0 293.7363862)
(-29460.82348 0 241.3276213)
(-25245.84811 0 197.6958653)
(-21682.61978 0 161.4213112)
(-18669.04161 -9.841595743e-12 131.3911704)
(-16118.06266 0 106.655545)
(-13955.29142 0 86.26396343)
(-12118.90605 0 69.53189455)
(-10556.82485 0 55.83469715)
(-9224.9086 0 44.61519795)
(-8086.602636 0 35.41301658)
(-7111.609643 0 27.91458932)
(-6274.416865 0 21.79314602)
(-5553.601053 0 16.79570613)
(-4931.358326 0 12.71649686)
(-4392.791998 0 9.387713183)
(-3925.387574 0 6.669661214)
(-3518.691396 0 4.456221144)
(-3163.927542 0 2.656752838)
(-2853.672913 0 1.193937306)
(-2581.657835 -1.227877028e-12 0.005629695954)
(-2342.689012 0 -0.9571614906)
(-2132.605135 0 -1.738662773)
(-1948.484719 0 -2.371326902)
(-1789.389956 0 -2.883945238)
(-25201.62831 0 -34015.99527)
(-52160.65043 0 -33208.45181)
(-82874.51438 0 -31009.38461)
(-113585.2109 0 -28303.44079)
(-140535.2919 0 -24938.85555)
(-164920.7336 0 -21144.27888)
(-185780.6034 0 -17155.80948)
(-202399.5771 0 -13247.48788)
(-214051.4757 0 -9607.792661)
(-220127.8174 0 -6408.116553)
(-220358.7405 0 -3788.609935)
(-214911.0532 0 -1808.715707)
(-204431.0959 0 -439.7509364)
(-190012.7268 0 412.6916676)
(-173019.6947 0 876.8865454)
(-154818.1097 1.021184976e-10 1077.543398)
(-136567.4749 0 1113.319939)
(-119120.4282 0 1053.953805)
(-103026.0497 0 949.1686774)
(-88568.99514 0 829.5768698)
(-75826.56958 0 710.4887194)
(-64751.89983 0 600.3676229)
(-55224.02806 0 502.6747112)
(-47082.97073 0 417.6514147)
(-40161.42304 0 345.377052)
(-34294.75756 0 284.4185934)
(-29331.30393 0 233.3359601)
(-25136.14313 0 190.9009956)
(-21590.03692 0 155.6603546)
(-18591.27654 -9.841595743e-12 126.6364004)
(-16052.76715 0 102.7481004)
(-13900.62794 0 83.06529964)
(-12073.3155 0 66.96984334)
(-10518.78386 0 53.79354786)
(-9193.148387 0 43.00249447)
(-8060.146314 0 34.16424805)
(-7089.62766 0 26.96220736)
(-6256.130731 0 21.08189638)
(-5538.388244 0 16.27978386)
(-4918.702649 0 12.35772212)
(-4382.257695 0 9.153705339)
(-3916.634225 0 6.534913251)
(-3511.434709 0 4.403827923)
(-3157.908884 0 2.667407217)
(-2848.684146 0 1.253105179)
(-2577.529156 -1.227877028e-12 0.1018855932)
(-2339.273613 0 -0.8329672322)
(-2129.779776 0 -1.593862935)
(-1946.149567 0 -2.211771464)
(-1787.448577 0 -2.714109111)
(-26281.44124 0 -36575.72606)
(-55174.53311 5.72803201e-09 -35680.54443)
(-87433.74122 0 -33266.47935)
(-119310.2018 0 -30306.81255)
(-147361.1919 0 -26616.84347)
(-172443.0169 8.72492374e-10 -22488.12367)
(-193526.6039 -7.590816911e-10 -18151.74765)
(-209891.784 0 -13914.8407)
(-220911.3857 0 -10027.30359)
(-226042.7324 5.645090647e-10 -6660.591036)
(-225103.1534 -7.876652602e-10 -3931.921135)
(-218410.3831 0 -1886.742685)
(-206782.9446 0 -484.4809444)
(-191430.7807 0 385.8959965)
(-173749.0778 0 860.049535)
(-155080.5763 1.021184976e-10 1064.421376)
(-136536.9053 9.861157192e-11 1099.262758)
(-118927.7323 9.557346841e-11 1037.673228)
(-102761.502 0 932.5961922)
(-88282.55597 0 813.3301709)
(-75546.92957 0 694.4732669)
(-64494.67753 0 585.4143247)
(-54994.03381 0 488.9144447)
(-46881.58857 0 405.3909063)
(-39987.81711 0 334.5820184)
(-34146.32617 0 274.9249226)
(-29205.38442 0 225.2595138)
(-25029.66938 0 184.0821885)
(-21500.39724 0 149.9531914)
(-18516.17296 0 121.9179593)
(-15989.80058 0 98.8796369)
(-13847.98551 0 79.92617694)
(-12029.45415 0 64.44615452)
(-10482.19819 0 51.78103127)
(-9162.63412 4.818700871e-12 41.40387221)
(-8034.754832 0 32.93143244)
(-7068.523173 0 26.02203969)
(-6238.569672 -2.403668045e-12 20.37892861)
(-5523.772017 0 15.76905331)
(-4906.533001 0 12.00158193)
(-4372.123599 1.206414697e-12 8.919185433)
(-3908.209645 1.209402773e-12 6.403840501)
(-3504.440205 0 4.352869489)
(-3152.098309 0 2.678950691)
(-2843.858884 0 1.313144834)
(-2573.52727 0 0.199149241)
(-2335.954807 0 -0.7075744238)
(-2127.026253 0 -1.447640591)
(-1943.866362 0 -2.050560117)
(-1785.544307 -6.278896109e-13 -2.542402822)
(-27488.93702 0 -39205.19669)
(-58497.05623 0 -38198.82746)
(-92428.48017 -3.532174906e-09 -35552.85996)
(-125573.6088 0 -32302.25175)
(-154795.4863 0 -28263.89645)
(-180601.6388 0 -23772.87664)
(-201921.2636 0 -19097.14075)
(-217958.1738 0 -14533.7764)
(-228188.9627 -6.136491728e-10 -10384.71305)
(-232217.1463 5.645090647e-10 -6846.119266)
(-229994.2683 0 -4021.764336)
(-221992.2284 0 -1928.852356)
(-209181.632 0 -503.2668043)
(-192872.0578 -2.218936483e-10 376.2386266)
(-174486.1222 0 851.6223463)
(-155340.5318 1.021184976e-10 1053.435334)
(-136500.9419 0 1083.247254)
(-118732.4188 0 1019.965887)
(-102496.6096 0 914.6768714)
(-87997.34341 0 795.2116203)
(-75269.62342 0 677.407916)
(-64240.29908 0 569.7286393)
(-54767.61694 0 474.4830701)
(-46684.37971 0 392.6806861)
(-39818.12005 0 323.5228543)
(-34001.68447 0 265.3697983)
(-29083.17572 0 217.1493229)
(-24926.56215 0 177.2359387)
(-21413.77413 0 144.2694699)
(-18443.72212 -9.841595743e-12 117.2255622)
(-15929.15581 -9.781168704e-12 95.01639114)
(-13797.35634 0 76.80594457)
(-11987.30682 0 61.93955308)
(-10447.03729 -4.830039681e-12 49.78285359)
(-9133.34905 0 39.82108014)
(-8010.426555 0 31.70669103)
(-7048.286135 0 25.08619844)
(-6221.724523 0 19.67791564)
(-5509.744915 0 15.25863204)
(-4894.839298 0 11.64472942)
(-4362.38842 0 8.685160773)
(-3900.119908 0 6.272655682)
(-3497.708874 0 4.301975474)
(-3146.496245 0 2.690978212)
(-2839.197893 0 1.374171445)
(-2569.653181 0 0.2978495895)
(-2332.733708 0 -0.5804886281)
(-2124.345703 0 -1.299147476)
(-1941.636167 0 -1.886725321)
(-1783.678071 0 -2.367831285)
(-28852.84912 1.676159064e-08 -41883.60045)
(-62155.57375 0 -40748.80328)
(-97918.67865 0 -37860.81816)
(-132448.9467 0 -34278.4475)
(-162913.8255 1.037132521e-09 -29859.63107)
(-189418.7536 0 -24966.85978)
(-210920.2189 0 -19956.64319)
(-226572.5414 0 -15090.3617)
(-235888.3246 6.136491728e-10 -10687.07791)
(-238658.7742 -5.645090647e-10 -6978.67703)
(-235026.0417 0 -4062.64273)
(-225636.6988 0 -1930.615542)
(-211600.8578 2.331079767e-10 -494.7287301)
(-194311.8182 0 382.3917406)
(-175212.3567 0 850.7167974)
(-155585.9389 0 1042.571057)
(-136455.3168 0 1065.940865)
(-118535.4069 0 1000.896762)
(-102231.0936 0 895.4789906)
(-87713.02508 0 775.8251016)
(-74995.95239 0 659.2855645)
(-63989.63424 -4.341488838e-11 553.2797456)
(-54545.20313 0 459.6572875)
(-46491.71798 0 379.6805515)
(-39652.8228 0 312.2063212)
(-33861.16977 0 255.7388344)
(-28964.659 0 209.0026564)
(-24826.8479 0 170.3381718)
(-21330.24363 0 138.5781098)
(-18373.87883 -9.841595743e-12 112.5375083)
(-15870.82066 0 91.1493047)
(-13748.78308 0 73.69010218)
(-11946.87472 0 59.43541422)
(-10413.32801 0 47.78627214)
(-9105.289541 0 38.24696644)
(-7987.12608 0 30.48147027)
(-7028.906477 0 24.14735573)
(-6205.590986 0 18.97302809)
(-5496.305295 -2.405189498e-12 14.74339198)
(-4883.632389 0 11.28004922)
(-4353.055487 1.206414697e-12 8.450372427)
(-3892.357421 0 6.13981059)
(-3491.241939 -1.213068337e-12 4.249961721)
(-3141.105737 0 2.702863489)
(-2834.704054 -1.222328066e-12 1.436077549)
(-2565.908631 -1.227877028e-12 0.3982674709)
(-2329.612538 0 -0.4513069032)
(-2121.740748 0 -1.147533782)
(-1939.460366 0 -1.719238227)
(-1781.850728 0 -2.189286954)
(-30388.49547 0 -44508.13497)
(-66168.5255 0 -43241.5363)
(-103940.9822 -3.532174906e-09 -40097.77187)
(-139991.1384 0 -36159.40858)
(-171771.4992 0 -31353.27502)
(-198930.6948 0 -26049.49967)
(-220512.2782 0 -20676.58915)
(-235703.4677 0 -15535.20463)
(-243987.4781 0 -10909.19269)
(-245347.6313 0 -7047.885808)
(-240178.5415 0 -4053.625452)
(-229318.6179 0 -1896.475397)
(-214015.3402 0 -462.7120467)
(-195732.5157 -2.218936483e-10 401.9633375)
(-175912.0032 0 853.7104013)
(-155809.5729 1.021184976e-10 1031.283494)
(-136401.0113 0 1048.604696)
(-118335.8151 0 981.4017352)
(-101965.4499 0 874.778446)
(-87430.47658 0 755.6726009)
(-74725.85448 0 640.5185061)
(-63743.46864 0 536.0322641)
(-54327.5542 0 444.4727374)
(-46303.58023 0 366.4562434)
(-39492.00658 0 300.6707395)
(-33725.03052 0 245.9750883)
(-28849.91681 0 200.7819775)
(-24730.58363 0 163.4281474)
(-21249.88672 0 132.8697089)
(-18306.69822 -9.841595743e-12 107.8401365)
(-15814.8083 0 87.30056766)
(-13702.24151 0 70.57730462)
(-11908.14813 0 56.92764673)
(-10381.06329 0 45.76890738)
(-9078.451797 0 36.66314217)
(-7964.851339 0 29.24730153)
(-7010.383154 0 23.19883665)
(-6190.167247 0 18.25832238)
(-5483.441156 0 14.21918257)
(-4872.916102 0 10.90830015)
(-4344.142975 -1.206414697e-12 8.209741977)
(-3884.928564 0 6.002729811)
(-3485.043803 0 4.195385027)
(-3135.931259 0 2.713837601)
(-2830.381599 0 1.498624903)
(-2562.2966 0 0.5007433065)
(-2326.59469 0 -0.3187363345)
(-2119.215045 0 -0.9918571683)
(-1937.341081 0 -1.547118274)
(-1780.063715 0 -2.005731155)
(-32089.178 0 -46950.78674)
(-70551.12586 0 -45544.93267)
(-110527.8532 0 -42159.83963)
(-148197.6022 2.593832687e-09 -37861.8853)
(-181342.8132 -1.037132521e-09 -32665.3199)
(-209172.7495 0 -26962.1681)
(-230703.3344 -7.590816911e-10 -21205.3609)
(-245268.1934 0 -15803.30372)
(-252415.0917 6.136491728e-10 -11010.68212)
(-252243.5209 -5.645090647e-10 -7037.961976)
(-245415.959 0 -3990.206622)
(-233008.6554 0 -1825.365206)
(-216403.1591 0 -407.408896)
(-197109.7099 0 431.0004906)
(-176570.9053 0 857.9336648)
(-156010.1981 1.021184976e-10 1021.574547)
(-136336.9907 1.972231438e-10 1032.361317)
(-118131.0785 0 961.9035926)
(-101698.4856 0 853.1533027)
(-87150.84733 0 734.7712138)
(-74459.29667 0 621.2420444)
(-63501.76173 0 518.3010649)
(-54115.35039 0 428.9221739)
(-46120.34416 0 352.9865584)
(-39335.83536 0 289.0490059)
(-33593.40635 0 236.1304492)
(-28739.19655 -2.019241095e-11 192.4942448)
(-24637.8677 0 156.5204566)
(-21172.63141 -9.913505491e-12 127.1443376)
(-18242.22861 0 103.1190711)
(-15761.1398 0 83.44738111)
(-13657.69027 0 67.45071323)
(-11871.0633 0 54.40406084)
(-10350.23268 0 43.7343353)
(-9052.87669 0 35.06239368)
(-7943.604433 0 27.9960718)
(-6992.714371 0 22.23353773)
(-6175.457548 0 17.52697585)
(-5471.173968 0 13.67702823)
(-4862.697485 0 10.52868775)
(-4335.642801 0 7.960432722)
(-3877.838836 0 5.858742079)
(-3479.12233 0 4.136308763)
(-3130.98038 0 2.722728291)
(-2826.237664 0 1.561330278)
(-2558.824829 0 0.605436026)
(-2323.684708 0 -0.1819142269)
(-2116.769971 0 -0.8310867444)
(-1935.280096 0 -1.36907891)
(-1778.318239 0 -1.815638144)
(-33980.64051 0 -49126.80375)
(-75268.50828 0 -47565.30626)
(-117632.0601 0 -43966.8747)
(-157082.8052 0 -39325.09623)
(-191635.8736 0 -33727.43305)
(-220131.3753 0 -27647.57125)
(-241496.4051 0 -21530.04085)
(-255210.0329 0 -15858.85531)
(-261052.9432 0 -10933.37012)
(-259256.1034 0 -6913.318325)
(-250689.0994 0 -3859.467213)
(-236672.0801 0 -1716.078761)
(-218728.2848 0 -336.1451814)
(-198420.8733 -2.218936483e-10 464.4463834)
(-177186.5235 0 865.7122768)
(-156188.6935 1.021184976e-10 1015.16065)
(-136260.6624 0 1017.907879)
(-117919.1065 0 942.1040255)
(-101429.6995 0 831.4335218)
(-86873.98829 0 713.6000499)
(-74196.94873 0 601.551054)
(-63264.91643 0 500.4993825)
(-53908.51682 0 413.2566306)
(-45942.35817 0 339.3147909)
(-39184.57058 0 277.4036252)
(-33466.20937 0 226.2612745)
(-28632.48143 0 184.1094934)
(-24548.73678 0 149.5732792)
(-21098.47642 0 121.391218)
(-18180.45926 -9.841595743e-12 98.34204494)
(-15709.82181 0 79.56030907)
(-13615.13692 0 64.29204935)
(-11835.67357 0 51.85153429)
(-10320.84328 0 41.68729413)
(-9028.523792 0 33.43733724)
(-7923.38375 0 26.71946442)
(-6975.903301 0 21.24425766)
(-6161.453655 0 16.77368222)
(-5459.512912 0 13.11445397)
(-4853.001247 0 10.13303884)
(-4327.566584 0 7.698369016)
(-3871.09791 0 5.705139066)
(-3473.487457 0 4.070821723)
(-3126.263034 0 2.728376392)
(-2822.281577 0 1.623766861)
(-2555.501553 -1.227877028e-12 0.7124915089)
(-2320.889424 0 -0.04056696274)
(-2114.410907 0 -0.664175801)
(-1933.281575 0 -1.183842803)
(-1776.617578 0 -1.61778142)
(-36079.01277 0 -50916.82421)
(-80320.25655 0 -49181.24125)
(-125226.9766 0 -45398.41783)
(-166627.8921 0 -40411.81719)
(-202615.9666 0 -34434.97603)
(-231735.2756 0 -28015.62502)
(-252864.1613 0 -21603.37083)
(-265533.0373 0 -15696.97692)
(-269825.2856 0 -10661.68367)
(-266255.0246 0 -6641.154665)
(-255893.2249 0 -3638.176232)
(-240237.9346 0 -1559.570411)
(-220956.3539 0 -241.2971977)
(-199662.6209 -2.218936483e-10 513.3607307)
(-177759.0002 0 884.9879221)
(-156340.1695 1.021184976e-10 1015.544236)
(-136166.4199 0 1006.545302)
(-117697.7665 0 923.193955)
(-101159.6453 0 810.4277424)
(-86599.28223 0 692.92459)
(-73938.65547 0 581.7439149)
(-63033.2551 0 482.6927986)
(-53706.79193 0 397.5861637)
(-45769.52431 0 325.537357)
(-39038.40932 0 265.6869723)
(-33343.32666 0 216.3463598)
(-28529.75412 0 175.7014405)
(-24463.34496 0 142.5937643)
(-21027.37418 0 115.6051661)
(-18121.38574 -9.841595743e-12 93.54197579)
(-15660.91708 0 75.64389644)
(-13574.58883 0 61.09897157)
(-11801.98628 0 49.25272946)
(-10292.90096 0 39.60504135)
(-9005.393068 0 31.77802993)
(-7904.192089 0 25.40927361)
(-6959.958121 0 20.22262588)
(-6148.175746 0 15.98998505)
(-5448.469197 0 12.53015257)
(-4843.829367 0 9.715731639)
(-4319.925523 0 7.417963305)
(-3864.719093 0 5.537327286)
(-3468.152762 0 3.995423461)
(-3121.792369 0 2.728353697)
(-2818.525465 0 1.684551356)
(-2552.337223 -1.227877028e-12 0.8215246756)
(-2318.216999 0 0.1058435638)
(-2112.143266 0 -0.4897525124)
(-1931.348028 0 -0.9892831625)
(-1774.962108 0 -1.409303768)
(-38415.28691 0 -52107.62267)
(-85672.42955 0 -50172.116)
(-133297.2851 0 -46291.27986)
(-176810.3261 0 -40970.42582)
(-214208.2101 0 -34660.73489)
(-243861.3132 0 -27945.1617)
(-264649.1558 0 -21342.4079)
(-276124.8623 0 -15299.65729)
(-278669.0625 0 -10213.20152)
(-273162.9933 0 -6231.639493)
(-260930.5762 0 -3320.06123)
(-243640.1481 0 -1341.208274)
(-223055.9171 0 -104.7305075)
(-200812.6714 -2.218936483e-10 590.1212509)
(-178269.1855 0 920.865571)
(-156450.8492 1.021184976e-10 1025.012797)
(-136046.55 0 998.3505006)
(-117463.8132 0 906.3340141)
(-100886.8388 0 790.6739146)
(-86325.33119 0 672.8967892)
(-73683.38771 0 562.3181586)
(-62806.7265 0 465.0237344)
(-53510.17597 0 381.9469581)
(-45601.77609 0 311.853679)
(-38897.31198 0 253.9763661)
(-33224.99981 0 206.4062616)
(-28431.06699 0 167.339628)
(-24381.51173 0 135.6002733)
(-20959.39919 0 109.7909863)
(-18065.02204 -9.841595743e-12 88.74066109)
(-15614.32939 0 71.69914247)
(-13535.98741 0 57.86962121)
(-11769.99284 0 46.60799183)
(-10266.43685 0 37.48290276)
(-8983.48971 0 30.07975948)
(-7886.032828 0 24.06111664)
(-6944.88118 0 19.16405202)
(-6135.639702 0 15.16762087)
(-5438.061113 0 11.91634126)
(-4835.191847 0 9.271976625)
(-4312.734945 0 7.115062437)
(-3858.719623 0 5.351611269)
(-3463.136171 0 3.90708838)
(-3117.586279 0 2.720506929)
(-2814.986481 0 1.742523803)
(-2549.347569 -1.227877028e-12 0.9323810675)
(-2315.681248 0 0.2580444575)
(-2109.978861 0 -0.3065097039)
(-1929.489748 0 -0.7840028514)
(-1773.360943 0 -1.18931689)
(-41024.49099 0 -52390.44175)
(-91214.79582 0 -50222.41212)
(-141706.178 0 -46356.69774)
(-187544.8098 0 -40776.97377)
(-226325.2461 0 -34248.20139)
(-256352.3601 0 -27331.56361)
(-276626.837 0 -20652.81215)
(-286799.4852 0 -14607.6754)
(-287457.2472 0 -9563.705981)
(-279897.91 0 -5685.462336)
(-265746.1229 0 -2907.587458)
(-246831.9356 0 -1057.619876)
(-224987.2192 0 74.04833047)
(-201839.5741 -2.218936483e-10 692.6106697)
(-178695.4431 0 972.0682555)
(-156504.6784 1.021184976e-10 1042.130234)
(-135893.0869 0 994.1198501)
(-117216.08 0 892.4172579)
(-100609.4709 0 772.8508298)
(-86051.46218 0 653.4467766)
(-73430.92806 0 543.6023989)
(-62584.51683 0 447.8115921)
(-53318.56666 0 366.4068087)
(-45439.10676 0 298.3559589)
(-38761.00763 0 242.3641427)
(-33111.10057 0 196.4202177)
(-28336.39147 0 158.966466)
(-24303.21264 0 128.5873572)
(-20894.51523 0 103.9033876)
(-18011.35077 -9.841595743e-12 83.88615305)
(-15570.05266 0 67.70008619)
(-13499.33829 0 54.58646574)
(-11739.69158 0 43.92074217)
(-10241.4413 0 35.30867706)
(-8962.81463 0 28.32851968)
(-7868.909133 0 22.66140761)
(-6930.667676 0 18.05686887)
(-6123.855187 0 14.30167489)
(-5428.311894 0 11.26138227)
(-4827.103206 0 8.79112132)
(-4306.009929 0 6.779966587)
(-3853.116902 0 5.139295715)
(-3458.456965 0 3.79832716)
(-3113.664935 0 2.698821287)
(-2811.684409 0 1.793415506)
(-2546.550402 -1.227877028e-12 1.042767739)
(-2313.296127 0 0.4158845682)
(-2107.925794 0 -0.1123352479)
(-1927.707484 0 -0.56346267)
(-1771.809194 0 -0.9505516313)
(-43954.89237 0 -51272.97751)
(-96866.9857 5.72803201e-09 -48871.57368)
(-150268.7392 0 -45208.98948)
(-198572.4886 0 -39498.01584)
(-238677.7654 0 -32939.34647)
(-268975.4208 8.72492374e-10 -26009.21576)
(-288551.551 -7.590816911e-10 -19383.54656)
(-297309.9934 0 -13517.58445)
(-296010.5407 0 -8666.129725)
(-286331.2359 0 -4977.350354)
(-270250.9366 -2.625550867e-10 -2388.666998)
(-249752.7079 2.464598854e-10 -705.6505432)
(-226707.2649 0 296.0089478)
(-202717.4777 0 822.1682559)
(-179020.0488 0 1038.33561)
(-156492.6481 1.021184976e-10 1066.44584)
(-135703.4755 9.861157192e-11 995.822667)
(-116951.0314 9.557346841e-11 882.7183706)
(-100323.7575 0 757.5765429)
(-85775.50128 0 635.421951)
(-73181.17688 0 525.7983935)
(-62365.91159 0 431.2473329)
(-53131.40228 0 351.2377179)
(-45281.51201 0 285.0856902)
(-38629.15294 0 230.8972582)
(-33001.47187 0 186.5264426)
(-28245.82646 0 150.6377101)
(-24228.29673 0 121.5865687)
(-20832.66643 0 98.00398675)
(-17960.44354 0 79.00883334)
(-15528.09125 0 63.66578148)
(-13464.67182 0 51.25576751)
(-11711.08835 0 41.19664882)
(-10217.89178 0 33.08949744)
(-8943.368736 4.818700871e-12 26.53026019)
(-7852.832033 0 21.21350374)
(-6917.34881 0 16.8983834)
(-6112.83748 -4.807336091e-12 13.39580697)
(-5419.220585 0 10.5652576)
(-4819.580207 0 8.271527406)
(-4299.77276 1.206414697e-12 6.410129302)
(-3847.936183 0 4.897305184)
(-3454.142977 1.213068337e-12 3.665956376)
(-3110.058352 0 2.660509606)
(-2808.650673 -1.222328066e-12 1.835338326)
(-2543.977534 0 1.152039135)
(-2311.092978 0 0.5799305639)
(-2106.014892 -6.203589913e-13 0.09390657075)
(-1926.032838 0 -0.3273973987)
(-1770.338455 -6.278896109e-13 -0.6956612452)
(-47160.39872 0 -48016.71613)
(-102316.5572 0 -45478.5841)
(-158630.5689 -3.532174906e-09 -42380.49144)
(-209576.2922 0 -36787.47807)
(-250871.2157 0 -30431.84749)
(-281385.0659 0 -23749.07222)
(-300078.0609 0 -17378.26097)
(-307269.9714 0 -11873.64972)
(-304052.1393 0 -7413.104042)
(-292311.902 0 -4049.947288)
(-274345.4275 0 -1727.947373)
(-252333.1834 0 -259.975937)
(-228172.6521 0 580.1735925)
(-203412.1605 -2.218936483e-10 990.1986176)
(-179217.5423 0 1126.029726)
(-156403.8336 1.021184976e-10 1105.378443)
(-135473.4788 0 1008.135801)
(-116664.3777 0 880.3395846)
(-100026.9335 0 746.5352472)
(-85495.72669 0 620.6764877)
(-72932.34636 0 510.1245999)
(-62150.27707 0 415.9921858)
(-52948.18419 0 337.0883229)
(-45128.41547 0 272.4287706)
(-38501.73645 0 219.7976208)
(-32895.99999 0 176.943511)
(-28159.05459 0 142.4529346)
(-24156.7587 0 114.6501788)
(-20773.8101 0 92.16428592)
(-17912.16082 -9.841595743e-12 74.12902504)
(-15488.36788 0 59.59818409)
(-13431.95405 0 47.85895009)
(-11684.18427 0 38.4094794)
(-10195.7794 0 30.80332004)
(-8925.140867 0 24.66227029)
(-7837.776535 0 19.69496125)
(-6904.921422 0 15.66759377)
(-6102.604714 0 12.42238876)
(-5410.792386 0 9.804791534)
(-4812.628583 0 7.691219315)
(-4294.033429 -1.206414697e-12 5.984279056)
(-3843.192586 0 4.605316875)
(-3450.214576 0 3.491096907)
(-3106.791599 0 2.588845039)
(-2805.913281 0 1.854664695)
(-2541.656353 0 1.250848677)
(-2309.092804 0 0.7464988801)
(-2104.252955 0 0.3157644047)
(-1924.450799 0 -0.06313873983)
(-1768.916178 0 -0.4005619846)
(-50440.15893 0 -42190.67812)
(-106980.7433 0 -39474.32604)
(-166101.6785 0 -37266.69535)
(-220016.3779 0 -32153.19794)
(-262399.5266 0 -26370.15128)
(-293078.4092 0 -20316.41132)
(-310830.3845 7.590816911e-10 -14522.64944)
(-316333.8657 0 -9564.202912)
(-311210.245 0 -5670.451614)
(-297570.2206 0 -2810.579355)
(-277876.5841 0 -874.247008)
(-254479.2799 0 309.8204816)
(-229310.9713 0 942.7243309)
(-203870.7708 -2.218936483e-10 1207.322579)
(-179261.875 0 1248.486917)
(-156225.2354 1.021184976e-10 1170.95554)
(-135190.8136 0 1039.372154)
(-116345.6717 0 890.786045)
(-99712.36551 4.646490293e-11 744.1388087)
(-85208.80093 4.531075074e-11 612.1707772)
(-72681.4232 0 498.9296879)
(-61935.50845 0 403.6458562)
(-52767.63804 2.131899682e-11 325.1396426)
(-44978.71414 0 261.358456)
(-38377.98228 -2.067999104e-11 209.7063489)
(-32794.19325 0 168.1313919)
(-28075.72344 0 134.8244426)
(-24088.37276 0 108.07337)
(-20717.79597 0 86.60265564)
(-17866.37462 0 69.4422651)
(-15450.7721 4.890584352e-12 55.66423851)
(-13401.13129 0 44.55919104)
(-11658.97517 0 35.67920218)
(-10175.09235 4.830039681e-12 28.54683385)
(-8908.130709 0 22.80432762)
(-7823.75926 0 18.17317773)
(-6893.399192 0 14.42824006)
(-6093.16544 0 11.427607)
(-5403.045528 0 9.015899593)
(-4806.271715 0 7.078018018)
(-4288.82011 0 5.523031408)
(-3838.920056 0 4.277530559)
(-3446.712906 0 3.282524816)
(-3103.91449 0 2.488447402)
(-2803.531993 0 1.853327173)
(-2539.65756 -1.227877028e-12 1.339794253)
(-2307.378316 0 0.9154124638)
(-2102.737173 0 0.5509922866)
(-1923.077876 -6.239889687e-13 0.2206470169)
(-1767.669611 0 -0.08764713726)
(-54101.0413 0 -31265.13454)
(-110818.3364 0 -29296.28805)
(-172157.7888 -3.532174906e-09 -28600.22255)
(-229127.3914 0 -24432.11003)
(-272402.9783 0 -19725.14525)
(-303263.909 0 -14802.10538)
(-320244.1813 0 -10094.24189)
(-324155.8392 0 -6083.522151)
(-317165.2316 0 -3043.028066)
(-301789.7982 5.645090647e-10 -928.4044561)
(-280620.068 0 419.5574105)
(-256049.8256 0 1173.463427)
(-230037.7216 0 1503.117126)
(-204053.53 -2.218936483e-10 1562.715536)
(-179130.4046 0 1470.781784)
(-155934.5879 1.021184976e-10 1306.884278)
(-134836.4925 0 1119.265825)
(-115981.7026 0 933.8264143)
(-99371.27153 0 764.9722937)
(-84908.09634 0 619.9865291)
(-72423.28371 0 499.1480118)
(-61718.08009 0 399.3515557)
(-52587.68592 0 318.8300489)
(-44830.42824 0 254.2578363)
(-38256.534 0 202.4182039)
(-32695.33042 0 161.2771725)
(-27995.06111 0 128.5547504)
(-24022.59504 0 102.4180521)
(-20664.30107 0 81.67218123)
(-17822.79629 0 65.169943)
(-15415.13248 -9.781168704e-12 51.99163464)
(-13372.02644 0 41.43299405)
(-11635.25966 0 33.0332607)
(-10155.69674 -4.830039681e-12 26.31817615)
(-8892.234256 0 20.93415013)
(-7810.703741 0 16.60512396)
(-6882.708272 0 13.13522643)
(-6084.444649 0 10.36508139)
(-5395.922433 0 8.150351124)
(-4800.462002 0 6.382835097)
(-4284.094415 0 4.977230044)
(-3835.090881 0 3.865216495)
(-3443.623049 0 2.992467352)
(-3101.426438 0 2.313555628)
(-2801.519482 0 1.78978255)
(-2538.000342 0 1.385629353)
(-2305.959137 0 1.068308398)
(-2101.439704 0 0.8055430632)
(-1921.815472 0 0.5665901859)
(-1766.440149 0 0.3365033606)
(-55470.82484 0 -24248.03105)
(-111248.2357 0 -21556.1397)
(-175453.4058 0 -21678.68519)
(-235939.3097 2.593832687e-09 -17749.11397)
(-279916.432 0 -13507.62094)
(-310863.3765 0 -9221.384759)
(-327180.2341 -7.590816911e-10 -5353.425844)
(-329772.4381 0 -2201.904466)
(-321207.4798 0 25.70280886)
(-304404.4944 -5.645090647e-10 1396.69617)
(-282096.3766 0 2110.373258)
(-256688.7469 0 2365.221798)
(-230112.1988 0 2327.685032)
(-203791.2815 0 2126.634185)
(-178697.832 0 1852.459974)
(-155440.6148 1.021184976e-10 1562.735802)