/*--------------------------------*- C++ -*----------------------------------*\
  =========                 |
  \\      /  F ield         | OpenFOAM: The Open Source CFD Toolbox
   \\    /   O peration     | Website:  https://openfoam.org
    \\  /    A nd           | Version:  7
     \\/     M anipulation  |
\*---------------------------------------------------------------------------*/
FoamFile
{
    version     2.0;
    format      ascii;
    class       volScalarField;
    location    "0.0027";
    object      p;
}
// * * * * * * * * * * * * * * * * * * * * * * * * * * * * * * * * * * * * * //

dimensions      [1 -1 -2 0 0 0 0];

internalField   nonuniform List<scalar> 
1167
(
340151.911
341553.7829
341524.2292
341752.6269
342167.5042
342691.53
343314.4005
344034.7789
344851.3364
345754.5053
346722.0113
347728.9656
348747.029
349747.374
350703.1881
351593.6169
352405.7706
329855.8157
331179.9829
331151.9152
331365.3027
331764.7278
332262.7446
332864.8718
333559.4296
334347.0899
335218.8448
336155.3383
337132.2968
338121.341
339093.1997
340021.8542
340887.2072
341676.3031
342387.3547
343020.2725
343578.352
344069.469
344500.3623
344877.3442
345207.7531
345496.5555
345749.082
345969.4975
346161.1651
346327.573
346471.2
346594.5099
346699.5555
346788.0813
346861.8577
346922.3428
346970.831
347008.4732
347036.4144
347055.6391
347067.029
347071.379
347069.4028
347061.7372
347048.9524
347031.5888
347010.1833
346985.1186
346956.0237
346921.9654
346888.0485
319578.0943
320818.4829
320789.2892
320995.4937
321376.7189
321850.0972
322423.8969
323094.3197
323853.4757
324694.6784
325599.7847
326544.8883
327502.2608
328443.4646
329342.9616
330180.663
330946.5
331636.7391
332250.5971
332791.8135
333268.2405
333685.5156
334050.657
334370.217
334649.1041
334892.8945
335105.3359
335290.0852
335450.3519
335588.5897
335707.3636
335808.584
335893.9589
335965.2333
336023.7967
336070.8754
336107.6246
336135.1111
336154.2679
336165.93
336170.8482
336169.6936
336163.0596
336151.4851
336135.4859
336115.5726
336092.1013
336064.7095
336032.5052
336000.3505
309318.1276
310466.6127
310439.2418
310639.3345
310997.4716
311449.7466
311993.8257
312638.2108
313369.4933
314179.3848
315051.8535
315963.8882
316888.3495
317797.2548
318665.2169
319474.5623
320216.0176
320883.563
321476.776
322000.8849
322461.7635
322864.8731
323217.9408
323526.5106
323795.6692
324030.7415
324235.3512
324413.4124
324567.7872
324700.9312
324815.3766
324912.9763
324995.4147
325064.3676
325121.1635
325166.9591
325202.9215
325230.0366
325249.1877
325261.1654
325266.6784
325266.356
325260.7537
325250.3901
325235.7506
325217.3129
325195.4142
325169.7059
325139.3354
325108.9245
299067.77
300126.2868
300108.531
300297.6774
300630.1517
301062.7068
301579.3987
302191.4217
302894.5739
303673.6104
304512.44
305389.9623
306279.6744
307153.5853
307989.0735
308769.9478
309484.5893
310127.8226
310699.6017
311205.5916
311650.1613
312039.0002
312379.4709
312676.6883
312936.2123
313162.6696
313359.6764
313531.1195
313679.704
313807.9945
313918.3062
314012.4249
314092.108
314158.8869
314214.0414
314258.6814
314293.9367
314320.742
314339.9345
314352.2619
314358.3897
314358.9033
314354.3417
314345.1957
314331.9173
314314.9499
314294.6154
314270.5815
314242.0365
314213.3622
288835.7403
289803.9554
289793.6528
289969.5516
290279.8259
290687.2349
291177.1156
291756.5088
292426.8903
293173.9474
293979.1537
294820.7351
295673.522
296512.137
297315.1219
298065.3376
298751.5161
299368.8816
299919.2277
300405.9033
300833.1689
301207.6662
301535.2841
301821.0535
302070.8202
302288.5885
302478.1494
302643.0824
302785.9907
302909.5819
303015.9073
303106.6913
303183.7403
303248.4511
303302.0458
303345.6154
303380.2286
303406.7741
303426.0455
303438.7483
303445.5052
303446.8679
303443.3584
303435.4363
303423.5222
303408.0311
303389.2647
303366.9067
303340.1893
303313.2553
278631.071
279499.4152
279492.3013
279650.9345
279942.5697
280320.272
280785.6402
281334.4989
281969.5701
282681.0394
283450.6037
284255.4664
285071.1878
285874.2968
286642.8235
287360.4038
288016.574
288607.4801
289135.3846
289601.942
290011.4276
290371.041
290685.4135
290959.7863
291199.5659
291408.5203
291590.7033
291749.2065
291886.5811
292005.5171
292107.9439
292195.5256
292270.0088
292332.7169
292384.7948
292427.3522
292461.3701
292487.6909
292507.0667
292520.1604
292527.5517
292529.7811
292527.3373
292520.6485
292510.1072
292496.1016
292478.9135
292458.2432
292433.3677
292408.1884
268446.6189
269209.2272
269204.1138
269348.0745
269619.8053
269967.1566
270404.5138
270923.1683
271524.1217
272198.5352
272929.9684
273696.7431
274474.5085
275239.5362
275971.474
276654.9029
277279.5997
277844.0523
278348.068
278793.3663
279185.1363
279529.1666
279829.7672
280092.6717
280322.3817
280522.5494
280697.2693
280849.3138
280981.2436
281095.5657
281194.1083
281278.5649
281350.5404
281411.2946
281461.9075
281503.4838
281536.9306
281563.0451
281582.5379
281596.0308
281604.068
281607.1743
281605.8065
281600.3628
281591.2083
281578.7044
281563.1126
281544.1511
281521.1427
281497.7433
258284.3622
258933.6574
258928.0787
259064.3712
259311.6754
259630.0552
260032.3003
260521.5778
261087.7927
261724.6267
262416.9757
263143.6282
263880.9764
264606.3557
265300.2758
265947.6398
266540.9656
267077.8679
267557.0646
267980.3718
268353.9628
268682.007
268968.6321
269219.7481
269439.1534
269630.5671
269797.7229
269943.2127
270069.7467
270179.4792
270274.1372
270355.5038
270424.9954
270483.8154
270532.9982
270573.5995
270606.4793
270632.3903
270651.9982
270665.8793
270674.572
270678.5653
270678.2839
270674.0986
270666.3491
270655.3693
270641.3989
270624.1763
270603.0716
270581.4884
248137.4089
248665.6029
248667.9244
248794.5408
249012.1669
249305.1752
249672.421
250127.7075
250659.9483
251258.1559
251909.6771
252594.5941
253290.1404
253974.4165
254628.3831
255239.1903
255800.8626
256308.7318
256761.9948
257163.4156
257517.978
257829.3416
258102.0081
258340.9684
258549.7575
258732.3613
258891.8884
259030.8009
259151.8749
259256.9954
259347.7977
259426.052
259493.0422
259549.887
259597.6421
259637.2651
259669.5695
259695.2661
259714.978
259729.2407
259738.5863
259743.4685
259744.2815
259741.3691
259735.0459
259725.6189
259713.3057
259697.8643
259678.7116
259658.9917
238003.9898
238412.9245
238428.2754
238540.4671
238727.5868
238994.2549
239328.1986
239743.793
240239.309
240799.488
241408.9167
242050.3101
242702.1111
243342.7949
243955.9734
244530.4912
245058.7202
245536.4303
245962.8788
246342.1095
246677.0452
246971.1824
247229.6569
247456.2272
247654.2701
247827.8434
247979.6064
248111.9225
248227.4161
248327.8432
248414.7731
248489.8639
248554.311
248609.1436
248655.4398
248694.0542
248725.7529
248751.2024
248770.9817
248785.618
248795.6071
248801.3731
248803.2829
248801.6559
248796.782
248788.9416
248778.3309
248764.7245
248747.5858
248729.7904
227894.2207
228181.8793
228203.218
228297.1726
228459.5504
228692.5288
228995.059
229372.279
229825.5308
230344.5352
230911.6248
231508.1628
232114.2552
232711.1247
233283.7483
233820.5044
234314.0031
234760.4791
235160.2347
235516.4168
235831.1364
236107.8785
236351.5928
236565.3563
236752.6011
236916.8715
237060.5888
237186.2694
237296.0939
237391.6899
237474.7043
237546.5725
237608.4205
237661.2182
237705.9932
237743.5434
237774.5867
237799.7428
237819.5463
237834.5255
237845.1373
237851.7756
237854.7821
237854.4531
237851.0548
237844.8409
237835.9855
237824.2792
237809.2317
237793.4371
217809.0785
217964.7695
217990.8959
218064.7354
218203.7282
218400.3814
218672.2964
219011.8552
219422.0473
219895.7069
220417.7194
220968.1434
221528.12
222080.9642
222611.5501
223108.9459
223566.7086
223981.0677
224353.859
224686.1353
224979.8243
225239.113
225467.6307
225668.1578
225844.4461
225999.2215
226134.7227
226253.6078
226357.632
226448.2946
226527.2867
226595.8309
226654.9669
226705.6592
226748.8383
226785.25
226815.5648
226840.3579
226860.1381
226875.411
226886.6044
226894.0865
226898.1768
226899.1503
226897.2512
226892.7067
226885.6679
226875.9415
226863.0837
226849.3884
207743.2976
207759.9447
207788.4735
207849.4748
207962.5633
208123.6497
208358.4254
208660.8732
209028.5972
209456.3615
209930.3343
210432.7569
210945.4633
211451.9216
211938.618
212395.4685
212816.0744
213198.6968
213543.5888
213851.2614
214123.465
214364.8056
214577.7308
214764.7799
214929.7302
215074.7536
215201.9291
215313.7443
215411.7844
215497.4205
215572.2285
215637.315
215693.6108
215742.1029
215783.5945
215818.7795
215848.2788
215872.6174
215892.3086
215907.8169
215919.5426
215927.8326
215932.9874
215935.2648
215934.889
215932.062
215926.9118
215919.2604
215908.7096
215897.2329
197695.5709
197564.208
197596.8905
197648.8185
197731.3326
197860.2203
198053.6791
198318.7114
198642.7173
199023.1428
199447.9782
199900.5175
200363.7789
200822.5509
201264.3303
201679.3565
202062.5197
202413.0309
202729.0591
203011.2367
203262.1303
203484.8452
203681.5636
203855.0345
204008.2459
204143.1021
204261.8154
204366.3551
204458.1473
204538.6207
204609.0896
204670.5678
204723.9019
204770.0471
204809.714
204843.5418
204872.1009
204895.8715
204915.3642
204931.007
204943.1764
204952.2014
204958.3691
204961.9245
204963.0773
204962.008
204958.8233
204953.364
204945.2786
204936.1841
187654.9918
187375.3815
187422.1139
187460.8395
187508.9816
187608.6974
187761.7032
187982.2252
188263.8267
188595.7486
188969.4326
189370.3589
189782.8483
190192.7347
190588.1046
190960.4965
191306.6783
191623.7247
191910.0528
192166.1173
192395.2737
192598.8755
192778.8935
192938.4827
193079.6399
193204.0412
193314.0509
193411.0928
193496.4287
193571.5705
193637.538
193695.2482
193745.5095
193789.1797
193826.9038
193859.2595
193886.7605
193909.8779
193929.0799
193944.7685
193957.3006
193966.9924
193974.1224
193978.9304
193981.6187
193982.3526
193981.2219
193978.0876
193972.644
193966.1205
177629.2885
177203.7191
177265.1372
177288.2934
177304.0718
177371.1191
177483.7961
177655.6453
177890.5301
178174.6369
178495.8295
178843.3571
179203.387
179562.3518
179910.0379
180240.182
180548.3315
180830.9748
181086.7204
181316.8165
181523.3998
181707.3106
181870.3552
182015.48
182144.1591
182257.849
182358.703
182447.907
182526.5548
182596.044
182657.2237
182710.8764
182757.8339
182798.7979
182834.3504
182865.0083
182891.2246
182913.4773
182932.1838
182947.7194
182960.4253
182970.6099
182978.5517
182984.4956
182988.6499
182991.1792
182992.1719
182991.5291
182989.0026
182985.3531
167633.2472
167056.8821
167126.2093
167127.4334
167117.3191
167143.8625
167218.7168
167343.6481
167524.4754
167755.6839
168023.7426
168316.5247
168622.0962
168929.3747
169229.6158
169516.7831
169785.533
170032.9375
170257.3757
170461.1048
170644.4548
170807.9833
170953.9747
171084.245
171199.9855
171302.8561
171394.3596
171475.4998
171547.3758
171611.1039
171667.4081
171716.9499
171760.5455
171798.7579
171832.1003
171861.0287
171885.9431
171907.2978
171925.4686
171940.8036
171953.627
171964.2412
171972.9299
171979.9535
171985.5421
171989.8796
171993.0725
171995.0779
171995.715
171995.2438
157685.9281
156950.7173
157023.9528
157000.162
156961.0317
156942.7959
156976.657
157052.7288
157178.8679
157351.9878
157563.2229
157799.3439
158049.5053
158304.5859
158556.2075
158798.178
159025.994
159236.557
159429.4969
159605.5266
159764.5011
159906.695
160034.6782
160149.195
160251.157
160342.4172
160423.8058
160496.1314
160560.5648
160617.8667
160668.6503
160713.498
160753.1216
160787.9996
160818.5646
160845.1986
160868.2962
160888.2452
160905.385
160920.0376
160932.5117
160943.1067
160952.1181
160959.8357
160966.5349
160972.4566
160977.7857
160982.6305
160986.9602
160990.3249
147770.549
146910.6004
146983.6585
146940.009
146857.074
146784.5811
146758.1994
146777.7882
146842.4838
146952.3161
147099.6311
147274.2159
147465.996
147665.93
147866.3774
148061.9252
148247.9495
148421.4955
148583.0794
148731.2937
148865.9042
148987.5941
149097.8137
149197.0112
149285.9222
149366.0306
149437.8881
149502.0868
149559.6843
149611.1894
149657.0577
149697.8839
149734.183
149766.3519
149794.743
149819.6591
149841.4842
149860.5288
149877.086
149891.4417
149903.8792
149914.6854
149924.1616
149932.6274
149940.417
149947.8585
149955.2616
149962.9482
149971.1266
149978.7324
138379.846
137149.8227
137148.6247
137058.0887
136916.5638
136791.7289
136703.5679
136664.8429
136664.4803
136704.633
136780.5763
136884.0104
137006.4645
137140.3446
137279.1116
137417.7788
137551.6966
137679.7836
137800.6453
137912.5914
138015.071
138109.2872
138195.2066
138272.9628
138343.4815
138407.4206
138465.0659
138516.963
138563.7956
138605.8805
138643.4942
138677.198
138707.2956
138734.081
138757.8144
138778.735
138797.154
138813.319
138827.4687
138839.8432
138850.6887
138860.2671
138868.8718
138876.842
138884.5722
138892.5159
138901.2527
138911.6748
138924.663
138938.0081
127151.5247
126630.0567
126820.3961
126720.0544
126515.6744
126329.5915
126176.1099
126075.1561
126024.5982
126016.1042
126046.7731
126108.9864
126194.188
126294.619
126403.3693
126514.7791
126625.9557
126734.787
126838.5834
126935.655
127025.7542
127109.5317
127186.4267
127256.403
127320.6136
127379.1434
127432.1477
127480.3725
127524.1605
127563.7786
127599.4615
127631.7095
127660.7682
127686.869
127710.2051
127731.0323
127749.5811
127766.0531
127780.6431
127793.5474
127804.9694
127815.1305
127824.2919
127832.7789
127841.0049
127849.4979
127859.0416
127871.0675
127887.4168
127905.8343
126120.2749
123664.5785
123046.4652
122391.7146
121662.923
120953.6182
120281.4981
119666.7742
119123.2572
118647.8049
118237.8865
117891.5748
117604.0481
117368.1703
117176.8448
117024.4615
116905.8343
116814.3078
116744.7568
116692.3275
116654.9564
116629.3634
116612.4749
116602.5007
116598.2239
116598.022
116600.5596
116605.4808
116611.9191
116619.2085
116627.0277
116635.1156
116643.2025
116651.0799
116658.556
116665.6328
116672.2481
116678.3769
116684.0216
116689.2101
116693.9956
116698.4618
116702.7406
116707.0326
116711.6238
116716.9371
116723.9453
116735.3288
116755.3445
116780.6518
102768.9138
102972.4318
103367.5422
103474.5428
103523.5708
103592.5737
103684.7048
103796.004
103922.8207
104059.0951
104195.4883
104328.7717
104456.5631
104576.3084
104686.8301
104788.912
104882.0761
104966.347
105042.2811
105110.1604
105171.6631
105227.0614
105276.7056
105321.5169
105362.0622
105398.7014
105431.7291
105461.762
105489.0015
105513.6285
105536.0022
105556.2893
105574.6549
105591.2389
105606.1411
105619.5241
105631.4862
105642.121
105651.5169
105659.7598
105666.9353
105673.133
105678.4571
105683.0397
105687.0447
105690.6803
105694.4916
105700.538
105713.5022
105734.2652
)
;

boundaryField
{
    front_top
    {
        type            wedge;
    }
    front_middle
    {
        type            wedge;
    }
    front_bottom
    {
        type            wedge;
    }
    back_top
    {
        type            wedge;
    }
    back_middle
    {
        type            wedge;
    }
    back_bottom
    {
        type            wedge;
    }
    axis_top
    {
        type            symmetryPlane;
    }
    axis_middle
    {
        type            symmetryPlane;
    }
    axis_bottom
    {
        type            symmetryPlane;
    }
    wall_top
    {
        type            fixedFluxPressure;
        gradient        nonuniform 0();
        value           nonuniform 0();
    }
    wall_middle
    {
        type            fixedFluxPressure;
        gradient        nonuniform 0();
        value           nonuniform 0();
    }
    wall_bottom
    {
        type            fixedFluxPressure;
        gradient        uniform 0;
        value           nonuniform List<scalar> 
23
(
346888.0485
336000.3505
325108.9245
314213.3622
303313.2553
292408.1884
281497.7433
270581.4884
259658.9917
248729.7904
237793.4371
226849.3884
215897.2329
204936.1841
193966.1205
182985.3531
171995.2438
160990.3249
149978.7324
138938.0081
127905.8343
116780.6518
105734.2652
)
;
    }
    inlet
    {
        type            zeroGradient;
    }
    outlet
    {
        type            fixedValue;
        value           uniform 100000;
    }
    procBoundary0to1
    {
        type            processor;
        value           nonuniform List<scalar> 
51
(
350468.0712
351940.1416
351908.6231
352151.4197
352582.4943
353131.3941
353774.8987
354521.8765
355369.8963
356301.7613
357298.4426
358334.7386
359381.2848
360407.7283
361387.8747
362301.1374
363134.2708
353135.6551
353135.6551
353786.1149
354360.4662
354865.2706
355308.9956
355697.8556
356038.9922
356337.8313
356599.1868
356827.6985
357026.6432
357199.5176
357348.8685
357476.9929
357586.1444
357678.1184
357754.6107
357817.201
357867.233
357905.9026
357934.4046
357953.7749
357964.9464
357968.7617
357965.9792
357957.2778
357943.2683
357924.5202
357901.5983
357874.9132
357844.0846
357808.1385
357772.4275
)
;
    }
}


// ************************************************************************* //
