/*--------------------------------*- C++ -*----------------------------------*\
  =========                 |
  \\      /  F ield         | OpenFOAM: The Open Source CFD Toolbox
   \\    /   O peration     | Website:  https://openfoam.org
    \\  /    A nd           | Version:  7
     \\/     M anipulation  |
\*---------------------------------------------------------------------------*/
FoamFile
{
    version     2.0;
    format      ascii;
    class       surfaceScalarField;
    location    "0.0027";
    object      phi;
}
// * * * * * * * * * * * * * * * * * * * * * * * * * * * * * * * * * * * * * //

dimensions      [1 0 -1 0 0 0 0];

internalField   nonuniform List<scalar> 
2260
(
-7.893146664e-15
5.791596599e-11
-3.105979118e-14
1.694591468e-10
-6.886361826e-14
2.747485833e-10
-1.208324002e-13
3.740226444e-10
-1.866146266e-13
4.675143095e-10
-2.659301026e-13
5.554503912e-10
-3.585782636e-13
6.38051337e-10
-4.644249835e-13
7.155303467e-10
-5.833198228e-13
7.880930484e-10
-7.150613018e-13
8.559368171e-10
-8.594592674e-13
9.192499227e-10
-1.016259396e-12
9.782107425e-10
-1.185125046e-12
1.032986665e-09
-1.365595115e-12
1.083732951e-09
-1.5570912e-12
1.130591578e-09
-1.758914335e-12
1.173690055e-09
1.213140275e-09
-7.342406371e-15
5.792330839e-11
-2.890174256e-14
1.694807061e-10
-6.411582109e-14
2.747837974e-10
-1.126131875e-13
3.740711418e-10
-1.740786914e-13
4.67575775e-10
-2.483786206e-13
5.555246911e-10
-3.353297826e-13
6.381382882e-10
-4.349119492e-13
7.156299289e-10
-5.470506966e-13
7.882051872e-10
-6.716327374e-13
8.560613991e-10
-8.085122186e-13
9.193868021e-10
-9.574625517e-13
9.783596929e-10
-1.118154976e-12
1.033147358e-09
-1.290145019e-12
1.083904941e-09
-1.472860527e-12
1.130774293e-09
-1.665585631e-12
1.173882781e-09
-1.867533057e-12
1.213342222e-09
-2.077528724e-12
1.249247406e-09
-2.294189206e-12
1.281674835e-09
-2.515942762e-12
1.310681786e-09
-2.740696987e-12
1.33630497e-09
-2.965985818e-12
1.358558842e-09
-3.189044259e-12
1.377435446e-09
-3.406446127e-12
1.392902734e-09
-3.614564109e-12
1.4049045e-09
-3.809263041e-12
1.413359771e-09
-3.986132767e-12
1.418162807e-09
-4.140709044e-12
1.419184118e-09
-4.268265149e-12
1.416270612e-09
-4.364328782e-12
1.409247796e-09
-4.424586443e-12
1.397921348e-09
-4.445163624e-12
1.382079328e-09
-4.422883918e-12
1.361495465e-09
-4.355221089e-12
1.335932142e-09
-4.240644086e-12
1.305143832e-09
-4.078730051e-12
1.268880939e-09
-3.870364917e-12
1.226894586e-09
-3.617694576e-12
1.178939401e-09
-3.324345649e-12
1.12477857e-09
-2.99546305e-12
1.064187611e-09
-2.637759965e-12
9.969579182e-10
-2.259544227e-12
9.229006011e-10
-1.870722103e-12
8.418497861e-10
-1.482778967e-12
7.53665107e-10
-1.108714921e-12
6.582343039e-10
-7.629866366e-13
5.554747153e-10
-4.614525464e-13
4.453347328e-10
-2.212923205e-13
3.277938513e-10
-6.093129394e-14
2.028612997e-10
7.056968847e-11
-6.774616393e-15
5.793008301e-11
-2.667692105e-14
1.695006084e-10
-5.923457316e-14
2.74816355e-10
-1.041336084e-13
3.741160408e-10
-1.611478319e-13
4.676327892e-10
-2.30235158e-13
5.555937784e-10
-3.113214923e-13
6.382193745e-10
-4.044095449e-13
7.15723017e-10
-5.09535686e-13
7.883103133e-10
-6.266553668e-13
8.561785188e-10
-7.556785905e-13
9.195158254e-10
-8.964220967e-13
9.785004364e-10
-1.048586981e-12
1.033299522e-09
-1.211746702e-12
1.0840681e-09
-1.385333968e-12
1.130947881e-09
-1.568688192e-12
1.174066135e-09
-1.760922287e-12
1.213534456e-09
-1.96087225e-12
1.249447356e-09
-2.167203323e-12
1.281881166e-09
-2.378370583e-12
1.310892953e-09
-2.592278084e-12
1.336518877e-09
-2.806633412e-12
1.358773197e-09
-3.01869416e-12
1.377647506e-09
-3.225229908e-12
1.39310927e-09
-3.422836301e-12
1.405102106e-09
-3.607523813e-12
1.413544458e-09
-3.775216713e-12
1.4183305e-09
-3.921630508e-12
1.419330532e-09
-4.042359288e-12
1.416391341e-09
-4.133241562e-12
1.409338679e-09
-4.190172247e-12
1.397978278e-09
-4.209545916e-12
1.382098702e-09
-4.188395336e-12
1.361474315e-09
-4.124337591e-12
1.335868085e-09
-4.015938323e-12
1.305035432e-09
-3.862832374e-12
1.268727833e-09
-3.66580511e-12
1.226697559e-09
-3.426879744e-12
1.178700475e-09
-3.149455992e-12
1.124501146e-09
-2.838366483e-12
1.063876522e-09
-2.499926094e-12
9.966194778e-10
-2.141961607e-12
9.225426366e-10
-1.773831284e-12
8.414816558e-10
-1.406392891e-12
7.532976686e-10
-1.051947189e-12
6.578798582e-10
-7.241861005e-13
5.551469542e-10
-4.381632824e-13
4.4504871e-10
-2.102202639e-13
3.275659082e-10
-5.791794739e-14
2.027089974e-10
7.051177052e-11
-6.191606008e-15
5.793627462e-11
-2.439744865e-14
1.695188143e-10
-5.422727607e-14
2.748461849e-10
-9.542041611e-14
3.741572339e-10
-1.478754533e-13
4.676852442e-10
-2.115865014e-13
5.556574895e-10
-2.866265172e-13
6.382944145e-10
-3.730247129e-13
7.158094152e-10
-4.708976235e-13
7.884081862e-10
-5.802863279e-13
8.562879075e-10
-7.011591264e-13
9.196366982e-10
-8.333797632e-13
9.78632657e-10
-9.766847979e-13
1.033442827e-09
-1.130671933e-12
1.084222087e-09
-1.294825018e-12
1.131112034e-09
-1.468472943e-12
1.174239783e-09
-1.650664528e-12
1.213716648e-09
-1.840303787e-12
1.249636995e-09
-2.036137448e-12
1.282077e-09
-2.236539974e-12
1.311093356e-09
-2.439534448e-12
1.336721872e-09
-2.642977712e-12
1.358976641e-09
-2.844137757e-12
1.377848666e-09
-3.040012106e-12
1.393305144e-09
-3.227342853e-12
1.405289437e-09
-3.402366133e-12
1.413719482e-09
-3.56129778e-12
1.418489432e-09
-3.700009889e-12
1.419469244e-09
-3.814413027e-12
1.416505744e-09
-3.900603149e-12
1.409424869e-09
-3.954722535e-12
1.398032398e-09
-3.973399933e-12
1.382117379e-09
-3.953839658e-12
1.361454754e-09
-3.893803188e-12
1.335808048e-09
-3.791936697e-12
1.304933566e-09
-3.647928197e-12
1.268583824e-09
-3.462449549e-12
1.22651208e-09
-3.237401766e-12
1.178475427e-09
-2.975959542e-12
1.124239704e-09
-2.682648747e-12
1.063583211e-09
-2.363394876e-12
9.963002239e-10
-2.025559124e-12
9.222048008e-10
-1.677966081e-12
8.411340627e-10
-1.330844495e-12
7.52950547e-10
-9.958106118e-13
6.575448243e-10
-6.858218445e-13
5.548369654e-10
-4.151384077e-13
4.447780265e-10
-1.992747144e-13
3.273500445e-10
-5.493907933e-14
2.025646617e-10
7.045683143e-11
-5.598689525e-15
5.794187331e-11
-2.207515787e-14
1.695352907e-10
-4.910326717e-14
2.74873213e-10
-8.650682562e-14
3.741946375e-10
-1.342997234e-13
4.677330371e-10
-1.925030454e-13
5.557156928e-10
-2.613065435e-13
6.38363218e-10
-3.408515702e-13
7.158889602e-10
-4.312668737e-13
7.884986015e-10
-5.326811984e-13
8.563893219e-10
-6.451344386e-13
9.197491514e-10
-7.685394278e-13
9.78756062e-10
-9.026707629e-13
1.033576959e-09
-1.047189825e-12
1.084366607e-09
-1.201592316e-12
1.131266436e-09
-1.36515224e-12
1.174403343e-09
-1.536995242e-12
1.213888491e-09
-1.716060588e-12
1.249816061e-09
-1.901148283e-12
1.282262087e-09
-2.090604342e-12
1.311282812e-09
-2.282588164e-12
1.336913855e-09
-2.475029466e-12
1.359169082e-09
-2.665312774e-12
1.37803895e-09
-2.85066196e-12
1.393490494e-09
-3.027886633e-12
1.405466661e-09
-3.193491043e-12
1.413885086e-09
-3.343922624e-12
1.418639863e-09
-3.475279794e-12
1.419600601e-09
-3.583771617e-12
1.416614236e-09
-3.665671181e-12
1.409506768e-09
-3.71738763e-12
1.398084114e-09
-3.735800989e-12
1.382135792e-09
-3.718218029e-12
1.361437172e-09
-3.662561488e-12
1.335752392e-09
-3.567550796e-12
1.304838555e-09
-3.432888463e-12
1.268449162e-09
-3.259173154e-12
1.226338365e-09
-3.048165118e-12
1.178264419e-09
-2.802815797e-12
1.123994354e-09
-2.527347164e-12
1.063307742e-09
-2.227301315e-12
9.960001781e-10
-1.909596843e-12
9.218870964e-10
-1.582504964e-12
8.408069708e-10
-1.255638929e-12
7.52623681e-10
-9.399388635e-13
6.572291242e-10
-6.476416549e-13
5.545446682e-10
-3.922243271e-13
4.445226092e-10
-1.883814767e-13
3.271462017e-10
-5.197420847e-14
2.024282545e-10
7.040485722e-11
-4.995911249e-15
5.794686922e-11
-1.970769952e-14
1.695500025e-10
-4.38805735e-14
2.748973859e-10
-7.743096602e-14
3.742281879e-10
-1.204492388e-13
4.677760554e-10
-1.730410471e-13
5.557682846e-10
-2.354630744e-13
6.3842564e-10
-3.07970329e-13
7.159614674e-10
-3.907546805e-13
7.885813859e-10
-4.839913094e-13
8.564825585e-10
-5.877816144e-13
9.198529417e-10
-7.021047357e-13
9.788703851e-10
-8.267963548e-13
1.03370165e-09
-9.615395017e-13
1.08450135e-09
-1.105821555e-12
1.131410718e-09
-1.258963107e-12
1.174556484e-09
-1.4201369e-12
1.214049665e-09
-1.588378656e-12
1.249984303e-09
-1.762412437e-12
1.282436121e-09
-1.940703758e-12
1.311461103e-09
-2.121554816e-12
1.337094707e-09
-2.302870526e-12
1.359350398e-09
-2.482233161e-12
1.378218312e-09
-2.65706115e-12
1.393665322e-09
-2.824259865e-12
1.40563386e-09
-2.98061558e-12
1.414041442e-09
-3.122735027e-12
1.418781983e-09
-3.246980134e-12
1.419724846e-09
-3.349848717e-12
1.416717104e-09
-3.42776277e-12
1.409584682e-09
-3.477397547e-12
1.398133749e-09
-3.495864767e-12
1.38215426e-09
-3.48057631e-12
1.361421883e-09
-3.429601302e-12
1.335701416e-09
-3.341739649e-12
1.304750693e-09
-3.216676297e-12
1.268324099e-09
-3.054948996e-12
1.226176638e-09
-2.858173443e-12
1.178067644e-09
-2.629079306e-12
1.12376526e-09
-2.371587784e-12
1.063050251e-09
-2.090867506e-12
9.957194578e-10
-1.79338811e-12
9.21589617e-10
-1.486868219e-12
8.405004509e-10
-1.180313371e-12
7.523171261e-10
-8.839913494e-13
6.569328022e-10
-6.094130102e-13
5.542700899e-10
-3.692805813e-13
4.442824767e-10
-1.774731675e-13
3.269543943e-10
-4.900484825e-14
2.022997861e-10
7.035585237e-11
-4.381943543e-15
5.795125116e-11
-1.729959078e-14
1.695629202e-10
-3.857404997e-14
2.749186603e-10
-6.822483091e-14
3.742578387e-10
-1.063770689e-13
4.678142076e-10
-1.532769531e-13
5.558151845e-10
-2.091961506e-13
6.384815592e-10
-2.744979872e-13
7.160267693e-10
-3.494690077e-13
7.886563569e-10
-4.343397561e-13
8.565674292e-10
-5.292590037e-13
9.199478609e-10
-6.342605349e-13
9.789753866e-10
-7.49230457e-13
1.03381662e-09
-8.738599269e-13
1.084625979e-09
-1.00768828e-12
1.131544547e-09
-1.150090027e-12
1.174698886e-09
-1.300300473e-12
1.214199875e-09
-1.457401393e-12
1.250141403e-09
-1.620100054e-12
1.28259882e-09
-1.786984724e-12
1.311627988e-09
-1.956486262e-12
1.337264208e-09
-2.126518823e-12
1.35952043e-09
-2.294879848e-12
1.378386673e-09
-2.459098824e-12
1.393829541e-09
-2.616277318e-12
1.405791039e-09
-2.763463138e-12
1.414188628e-09
-2.897377327e-12
1.418915897e-09
-3.014665852e-12
1.419842135e-09
-3.11206869e-12
1.416814507e-09
-3.186216423e-12
1.40965883e-09
-3.234012219e-12
1.398181545e-09
-3.252757455e-12
1.382173005e-09
-3.240018014e-12
1.361409144e-09
-3.193975627e-12
1.335655374e-09
-3.113529642e-12
1.304670248e-09
-2.998308535e-12
1.268208878e-09
-2.84880085e-12
1.22602713e-09
-2.666477183e-12
1.17788532e-09
-2.453846916e-12
1.12355263e-09
-2.214532829e-12
1.062810936e-09
-1.953346193e-12
9.954582711e-10
-1.676274382e-12
9.213125452e-10
-1.390500876e-12
8.402146774e-10
-1.104419958e-12
7.520310452e-10
-8.276261068e-13
6.566560083e-10
-5.709005151e-13
5.540133643e-10
-3.461667968e-13
4.44057743e-10
-1.664840905e-13
3.267747116e-10
-4.601357007e-14
2.021793156e-10
7.030983879e-11
-3.761147396e-15
5.795501231e-11
-1.48648616e-14
1.695740239e-10
-3.321407081e-14
2.749370095e-10
-5.891360713e-14
3.742835382e-10
-9.21380184e-14
4.678474321e-10
-1.33257364e-13
5.558563038e-10
-1.825854897e-13
6.385308874e-10
-2.405609136e-13
7.160847447e-10
-3.075512626e-13
7.887233473e-10
-3.838627158e-13
8.566437407e-10
-4.696996711e-13
9.200336979e-10
-5.651336716e-13
9.790708206e-10
-6.700830398e-13
1.03392157e-09
-7.843004363e-13
1.084740197e-09
-9.073739439e-13
1.13166762e-09
-1.038723229e-12
1.174830235e-09
-1.177687807e-12
1.21433884e-09
-1.323286762e-12
1.250287002e-09
-1.474351704e-12
1.282749885e-09
-1.629600242e-12
1.311783237e-09
-1.787462842e-12
1.337422071e-09
-1.946009729e-12
1.359678977e-09
-2.103237755e-12
1.378543901e-09
-2.256727076e-12
1.39398303e-09
-2.403818468e-12
1.40593813e-09
-2.541783156e-12
1.414326592e-09
-2.667510823e-12
1.419041625e-09
-2.777918817e-12
1.419952543e-09
-2.869939478e-12
1.416906528e-09
-2.940442506e-12
1.409729333e-09
-2.986573083e-12
1.398227675e-09
-3.005766863e-12
1.382192199e-09
-2.995765058e-12
1.361399142e-09
-2.954858728e-12
1.335614468e-09
-2.88203103e-12
1.30459742e-09
-2.776871616e-12
1.268103718e-09
-2.639811748e-12
1.22589007e-09
-2.472177922e-12
1.177717686e-09
-2.276260516e-12
1.123356712e-09
-2.055387663e-12
1.062590064e-09
-1.814002725e-12
9.952168862e-10
-1.557612564e-12
9.21056155e-10
-1.292859732e-12
8.399499246e-10
-1.027522009e-12
7.517657075e-10
-7.705129224e-13
6.563989992e-10
-5.318747475e-13
5.537747261e-10
-3.227442077e-13
4.438486125e-10
-1.55348301e-13
3.266073157e-10
-4.298249263e-14
2.020669498e-10
7.02668563e-11
-3.135848162e-15
5.795814816e-11
-1.241264348e-14
1.695833007e-10
-2.782500932e-14
2.749524219e-10
-4.95232498e-14
3.743052364e-10
-7.778202287e-14
4.678756908e-10
-1.130350219e-13
5.558915568e-10
-1.557147506e-13
6.385735671e-10
-2.062573049e-13
7.161352873e-10
-2.651356685e-13
7.887822256e-10
-3.32716866e-13
8.567113219e-10
-4.092597739e-13
9.201102408e-10
-4.948854616e-13
9.791564463e-10
-5.895605366e-13
1.034016245e-09
-6.930876213e-13
1.084843724e-09
-8.051031257e-13
1.131779636e-09
-9.251291746e-13
1.174950261e-09
-1.052493593e-12
1.214466204e-09
-1.186259945e-12
1.250420769e-09
-1.325370513e-12
1.282888995e-09
-1.46868588e-12
1.311926552e-09
-1.614624547e-12
1.337568009e-09
-1.761437049e-12
1.35982579e-09
-1.907294491e-12
1.378689759e-09
-2.04987079e-12
1.394125606e-09
-2.186754015e-12
1.406075013e-09
-2.315369451e-12
1.414455208e-09
-2.432841448e-12
1.419159097e-09
-2.53636606e-12
1.420056067e-09
-2.623007373e-12
1.416993169e-09
-2.689900334e-12
1.409796226e-09
-2.734445995e-12
1.398272221e-09
-2.754182439e-12
1.382211935e-09
-2.747040003e-12
1.361391999e-09
-2.711421228e-12
1.335578849e-09
-2.646367255e-12
1.304532366e-09
-2.551464684e-12
1.268008816e-09
-2.427074719e-12
1.22576568e-09
-2.274381494e-12
1.177564993e-09
-2.095457042e-12
1.123177788e-09
-1.893355353e-12
1.062387962e-09
-1.672107976e-12
9.949956388e-10
-1.436758059e-12
9.208208051e-10
-1.193396351e-12
8.397065629e-10
-9.491752507e-13
7.515214864e-10
-7.123140595e-13
6.561621381e-10
-4.921003142e-13
5.535545124e-10
-2.988702982e-13
4.436553825e-10
-1.439983324e-13
3.264524437e-10
-3.989362197e-14
2.019628451e-10
7.022696268e-11
-2.50881554e-15
5.796065697e-11
-9.95910906e-15
1.69590751e-10
-2.241428656e-14
2.749648771e-10
-4.008527324e-14
3.743229074e-10
-6.3362888e-14
4.678989684e-10
-9.269725336e-14
5.559208912e-10
-1.286489969e-13
6.386095188e-10
-1.71692886e-13
7.161783311e-10
-2.223408028e-13
7.888328735e-10
-2.810436674e-13
8.567700247e-10
-3.48112735e-13
9.201773099e-10
-4.237185695e-13
9.792320522e-10
-5.078768678e-13
1.034100403e-09
-6.004402722e-13
1.084936287e-09
-7.011281272e-13
1.131880323e-09
-8.095165615e-13
1.17505865e-09
-9.249107913e-13
1.214581598e-09
-1.046503929e-12
1.250542362e-09
-1.173358321e-12
1.28301585e-09
-1.304360674e-12
1.312057554e-09
-1.438054661e-12
1.337701703e-09
-1.57287179e-12
1.359960607e-09
-1.707048522e-12
1.378823936e-09
-1.83846399e-12
1.394257022e-09
-1.964949111e-12
1.406201498e-09
-2.084030447e-12
1.414574289e-09
-2.193100076e-12
1.419268166e-09
-2.289612307e-12
1.420152579e-09
-2.370795735e-12
1.417074353e-09
-2.434036575e-12
1.409859467e-09
-2.476961366e-12
1.398315146e-09
-2.497258683e-12
1.382232232e-09
-2.493024189e-12
1.361387765e-09
-2.462808762e-12
1.335548634e-09
-2.405658879e-12
1.304475216e-09
-2.32118377e-12
1.267924341e-09
-2.209677583e-12
1.225654174e-09
-2.072186635e-12
1.177427502e-09
-1.910568212e-12
1.12301617e-09
-1.727598201e-12
1.062204992e-09
-1.526893837e-12
9.947949345e-10
-1.313026914e-12
9.206069382e-10
-1.091526502e-12
8.394850625e-10
-8.689053383e-13
7.512988652e-10
-6.526698828e-13
6.559459026e-10
-4.513304208e-13
5.533531729e-10
-2.743956323e-13
4.434784477e-10
-1.323617253e-13
3.263104098e-10
-3.672659212e-14
2.0186721e-10
7.019023608e-11
-1.884120909e-15
5.796254109e-11
-7.508777989e-15
1.695963756e-10
-1.69947581e-14
2.74974363e-10
-3.063484467e-14
3.743365475e-10
-4.891296947e-14
4.679172466e-10
-7.2304782e-14
5.55944283e-10
-1.01456897e-13
6.38638671e-10
-1.369420614e-13
7.162138163e-10
-1.792838736e-13
7.888752154e-10
-2.289779864e-13
8.568197189e-10
-2.864104842e-13
9.202347424e-10
-3.51799273e-13
9.79297441e-10
-4.252077215e-13
1.034173812e-09
-5.065690493e-13
1.085017648e-09
-5.956524845e-13
1.131969407e-09
-6.920313835e-13
1.175155029e-09
-7.951152174e-13
1.214684682e-09
-9.041809636e-13
1.250651428e-09
-1.018437623e-12
1.283130106e-09
-1.13674818e-12
1.312175865e-09
-1.257838009e-12
1.337822793e-09
-1.380330965e-12
1.3600831e-09
-1.502493642e-12
1.378946098e-09
-1.622442084e-12
1.39437697e-09
-1.738224794e-12
1.406317281e-09
-1.847515684e-12
1.41468358e-09
-1.947962848e-12
1.419368613e-09
-2.037236854e-12
1.420241853e-09
-2.112796997e-12
1.417149913e-09
-2.172263358e-12
1.409918933e-09
-2.213456344e-12
1.398356339e-09
-2.234256066e-12
1.382253032e-09
-2.232912644e-12
1.361386421e-09
-2.208131983e-12
1.335523853e-09
-2.158966166e-12
1.30442605e-09
-2.085053946e-12
1.267850428e-09
-1.986628151e-12
1.225555748e-09
-1.864603172e-12
1.177305477e-09
-1.720644246e-12
1.122872211e-09
-1.557203456e-12
1.062041551e-09
-1.377511725e-12
9.946152427e-10
-1.185655407e-12
9.204150818e-10
-9.865902849e-13
8.392859974e-10
-7.861703984e-13
7.510984453e-10
-5.911642977e-13
6.557508965e-10
-4.092743687e-13
5.53171283e-10
-2.491429107e-13
4.433183162e-10
-1.20353592e-13
3.261816205e-10
-3.34586135e-14
2.01780315e-10
7.015677747e-11
-1.261300848e-15
5.796380239e-11
-5.058606831e-15
1.696001729e-10
-1.158245986e-14
2.749808869e-10
-2.121018168e-14
3.743461752e-10
-3.446444873e-14
4.679305008e-10
-5.191968673e-14
5.559617382e-10
-7.42382104e-14
6.386609895e-10
-1.020827144e-13
7.162416608e-10
-1.360464214e-13
7.889091791e-10
-1.766424247e-13
8.568603149e-10
-2.242964661e-13
9.202823964e-10
-2.792899189e-13
9.793524344e-10
-3.417515221e-13
1.034236273e-09
-4.116567406e-13
1.085087554e-09
-4.888012086e-13
1.132046551e-09
-5.72831467e-13
1.175239059e-09
-6.632495769e-13
1.2147751e-09
-7.594520575e-13
1.25074763e-09
-8.606879724e-13
1.283231342e-09
-9.659156182e-13
1.312281093e-09
-1.074018339e-12
1.337930896e-09
-1.183760529e-12
1.360192842e-09
-1.293528107e-12
1.379055866e-09
-1.401666178e-12
1.394485108e-09
-1.506362861e-12
1.406421978e-09
-1.605524555e-12
1.414782742e-09
-1.697076291e-12
1.419460165e-09
-1.778820798e-12
1.420323598e-09
-1.848494679e-12
1.417219587e-09
-1.903989727e-12
1.409974428e-09
-1.943262057e-12
1.398395611e-09
-1.964420592e-12
1.382274191e-09
-1.965878372e-12
1.361387879e-09
-1.946466943e-12
1.335504441e-09
-1.905305028e-12
1.304384888e-09
-1.842046855e-12
1.26778717e-09
-1.756873389e-12
1.225470575e-09
-1.650574333e-12
1.177199178e-09
-1.524633059e-12
1.122746269e-09
-1.381169009e-12
1.061898087e-09
-1.223026609e-12
9.944571003e-10
-1.05379897e-12
9.202458542e-10
-8.778537998e-13
8.391100522e-10
-7.003630779e-13
7.509209546e-10
-5.273253657e-13
6.555778588e-10
-3.655951968e-13
5.530095528e-10
-2.229026628e-13
4.431756237e-10
-1.078708987e-13
3.260665887e-10
-3.00600083e-14
2.017025041e-10
7.012671746e-11
-6.40581503e-16
5.796444297e-11
-2.620921558e-15
1.696021533e-10
-6.198155142e-15
2.749844641e-10
-1.183484979e-14
3.743518119e-10
-2.007097638e-14
4.67938737e-10
-3.159827982e-14
5.559732655e-10
-4.706659738e-14
6.386764578e-10
-6.722155225e-14
7.162618158e-10
-9.27171383e-14
7.889346747e-10
-1.24118351e-13
8.568917161e-10
-1.618696928e-13
9.203201478e-10
-2.063021974e-13
9.793968669e-10
-2.575974395e-13
1.034287568e-09
-3.157572791e-13
1.085145713e-09
-3.806459918e-13
1.13211144e-09
-4.519984389e-13
1.175310411e-09
-5.293916688e-13
1.214852493e-09
-6.123615563e-13
1.2508306e-09
-7.001435605e-13
1.283319124e-09
-7.918621218e-13
1.312372811e-09
-8.86584582e-13
1.338025618e-09
-9.831132822e-13
1.360289371e-09
-1.080045231e-12
1.379152798e-09
-1.175962509e-12
1.394581025e-09
-1.269142348e-12
1.406515158e-09
-1.357760514e-12
1.41487136e-09
-1.440016611e-12
1.419542421e-09
-1.513856647e-12
1.420397438e-09
-1.577296485e-12
1.417283026e-09
-1.628496715e-12
1.410025629e-09
-1.66556767e-12
1.398432682e-09
-1.686847362e-12
1.38229547e-09
-1.69094268e-12
1.361391975e-09
-1.67677934e-12
1.335490278e-09
-1.643574726e-12
1.304351684e-09
-1.591007909e-12
1.267734603e-09
-1.519221238e-12
1.225398788e-09
-1.42889873e-12
1.177108856e-09
-1.321322758e-12
1.122638693e-09
-1.198310754e-12
1.061775075e-09
-1.062313175e-12
9.943211028e-10
-9.164234158e-13
9.200999644e-10
-7.644041541e-13
8.389580329e-10
-6.107173189e-13
7.507672678e-10
-4.605517851e-13
6.554276933e-10
-3.19863301e-13
5.528688643e-10
-1.954097078e-13
4.430511701e-10
-9.478802971e-14
3.25965967e-10
-2.64990004e-14
2.016342151e-10
7.010021846e-11
-2.5488378e-17
5.796446846e-11
-2.047203742e-16
1.696023325e-10
-8.691818966e-16
2.749851286e-10
-2.528679009e-15
3.743534714e-10
-5.773485082e-15
4.679419818e-10
-1.136711465e-14
5.559788592e-10
-2.00021814e-14
6.386850929e-10
-3.244182115e-14
7.162742554e-10
-4.940285916e-14
7.889516357e-10
-7.149198676e-14
8.569138052e-10
-9.920060442e-14
9.203478564e-10
-1.328882799e-13
9.794305546e-10
-1.727703574e-13
1.03432745e-09
-2.189165445e-13
1.08519186e-09
-2.712561659e-13
1.13216378e-09
-3.295938991e-13
1.175368749e-09
-3.936413081e-13
1.214916541e-09
-4.629364293e-13
1.250899895e-09
-5.368339604e-13
1.283393022e-09
-6.145928682e-13
1.31245057e-09
-6.954564945e-13
1.338106482e-09
-7.782865468e-13
1.360372201e-09
-8.618940086e-13
1.379236405e-09
-9.450717721e-13
1.394664203e-09
-1.026242261e-12
1.406596328e-09
-1.103834856e-12
1.414948952e-09
-1.176277597e-12
1.419614864e-09
-1.241754283e-12
1.420462915e-09
-1.298527001e-12
1.417339799e-09
-1.344993717e-12
1.410072095e-09
-1.379489746e-12
1.398467178e-09
-1.400561245e-12
1.382316542e-09
-1.407035718e-12
1.361398449e-09
-1.397918255e-12
1.335481161e-09
-1.372549967e-12
1.304326315e-09
-1.330649027e-12
1.267692702e-09
-1.272334292e-12
1.225340473e-09
-1.198218735e-12
1.17703474e-09
-1.109361777e-12
1.122549836e-09
-1.007305365e-12
1.061673019e-09
-8.941072335e-13
9.942079046e-10
-7.723572528e-13
9.199782145e-10
-6.451967491e-13
8.388308724e-10
-5.163464291e-13
7.506384174e-10
-3.90137886e-13
6.553014847e-10
-2.715642341e-13
5.527502907e-10
-1.663337875e-13
4.429459397e-10
-8.093281385e-14
3.25880566e-10
-2.272034419e-14
2.015760026e-10
7.007749812e-11
5.826467866e-16
5.796388582e-11
2.18162581e-15
1.696007335e-10
4.397153528e-15
2.749829131e-10
6.691779757e-15
3.743511768e-10
8.393718743e-15
4.679402798e-10
8.728023121e-15
5.559785249e-10
6.90963142e-15
6.386869113e-10
2.205069456e-15
7.1627896e-10
-6.169228369e-15
7.8896001e-10
-1.885352167e-14
8.569264895e-10
-3.637404258e-14
9.203653769e-10
-5.912864136e-14
9.794533092e-10
-8.737850508e-14
1.0343557e-09
-1.212488681e-13
1.08522573e-09
-1.607317411e-13
1.132203263e-09
-2.057292696e-13
1.175413747e-09
-2.560386583e-13
1.21496685e-09
-3.112080626e-13
1.250955065e-09
-3.707554705e-13
1.283452569e-09
-4.341082463e-13
1.312513923e-09
-5.005449563e-13
1.338172919e-09
-5.691308225e-13
1.360440786e-09
-6.388887151e-13
1.379306163e-09
-7.087237256e-13
1.394734038e-09
-7.773012539e-13
1.406664906e-09
-8.433229573e-13
1.415014974e-09
-9.053637444e-13
1.419676905e-09
-9.618977037e-13
1.420519449e-09
-1.011477705e-12
1.417389379e-09
-1.052676005e-12
1.410113294e-09
-1.084099272e-12
1.398498601e-09
-1.104513339e-12
1.382336956e-09
-1.112956029e-12
1.361406892e-09
-1.108561898e-12
1.335476767e-09
-1.090796726e-12
1.30430855e-09
-1.059437908e-12
1.267661344e-09
-1.01460175e-12
1.225295637e-09
-9.568424167e-13
1.176976981e-09
-8.870226036e-13
1.122480017e-09
-8.064226073e-13
1.061592419e-09
-7.167191482e-13
9.941182012e-10
-6.200004816e-13
9.198814958e-10
-5.187743461e-13
8.387296463e-10
-4.159891787e-13
7.505356323e-10
-3.150653975e-13
6.552005609e-10
-2.199545838e-13
5.526551798e-10
-1.352126495e-13
4.428611977e-10
-6.60930521e-14
3.258114464e-10
-1.867815857e-14
2.015285877e-10
7.005881996e-11
1.180656141e-15
5.796270516e-11
4.529574408e-15
1.695973846e-10
9.601639109e-15
2.74977841e-10
1.581238727e-14
3.743449661e-10
2.241287771e-14
4.679336793e-10
2.864894444e-14
5.559722888e-10
3.365778196e-14
6.386819024e-10
3.666964294e-14
7.162759481e-10
3.693191958e-14
7.889597477e-10
3.373948801e-14
8.569296819e-10
2.65363126e-14
9.203725801e-10
1.488880833e-14
9.794649567e-10
-1.508241146e-15
1.034372097e-09
-2.283350088e-14
1.085247055e-09
-4.915794482e-14
1.132229587e-09
-8.047696692e-14
1.175445066e-09
-1.165845026e-13
1.215002958e-09
-1.571753784e-13
1.250995655e-09
-2.018782081e-13
1.283497272e-09
-2.502981691e-13
1.312562343e-09
-3.01732824e-13
1.338224353e-09
-3.554708131e-13
1.360494524e-09
-4.107659585e-13
1.379361458e-09
-4.66607147e-13
1.394789879e-09
-5.219271612e-13
1.406720226e-09
-5.757050352e-13
1.415068752e-09
-6.266634255e-13
1.419727863e-09
-6.735767457e-13
1.420566362e-09
-7.153033025e-13
1.417431106e-09
-7.505869193e-13
1.410148577e-09
-7.783224878e-13
1.398526337e-09
-7.975223651e-13
1.382356156e-09
-8.074112436e-13
1.361416781e-09
-8.073060004e-13
1.335476661e-09
-7.968037852e-13
1.304298048e-09
-7.757637433e-13
1.267640304e-09
-7.44343065e-13
1.225264216e-09
-7.030149906e-13
1.176935653e-09
-6.525061575e-13
1.122429508e-09
-5.938504276e-13
1.061533763e-09
-5.283641223e-13
9.940527149e-10
-4.576437956e-13
9.198107755e-10
-3.83557622e-13
8.386555601e-10
-3.082526647e-13
7.504603273e-10
-2.341785739e-13
6.551264868e-10
-1.641503643e-13
5.525851516e-10
-1.014419454e-13
4.427984893e-10
-4.99206342e-14
3.257599251e-10
-1.424138943e-14
2.014929085e-10
7.004457857e-11
1.768568533e-15
5.796093659e-11
6.844332669e-15
1.695923088e-10
1.473918073e-14
2.749699461e-10
2.481733174e-14
3.743348879e-10
3.628286356e-14
4.679222138e-10
4.83789457e-14
5.559601927e-10
6.020888575e-14
6.386700725e-10
7.094337929e-14
7.162652136e-10
7.985280336e-14
7.889508383e-10
8.623266013e-14
8.569233021e-10
8.946972605e-14
9.20369343e-10
8.909997957e-14
9.794653264e-10
8.477827396e-14
1.034376419e-09
7.625642223e-14
1.085255577e-09
6.338538391e-14
1.132242458e-09
4.615638751e-14
1.175462295e-09
2.46900998e-14
1.215024424e-09
-8.335206403e-16
1.251021179e-09
-3.019605013e-14
1.283526635e-09
-6.305562767e-14
1.312595202e-09
-9.886827983e-14
1.338260166e-09
-1.371043386e-13
1.360532761e-09
-1.772019342e-13
1.379401556e-09
-2.183185531e-13
1.394830996e-09
-2.5962611e-13
1.406761533e-09
-3.003374199e-13
1.415109463e-09
-3.394171127e-13
1.419766943e-09
-3.759062636e-13
1.420602851e-09
-4.089360699e-13
1.417464136e-09
-4.375012751e-13
1.410177143e-09
-4.607618193e-13
1.398549597e-09
-4.780193601e-13
1.382373413e-09
-4.886559778e-13
1.361427417e-09
-4.922113883e-13
1.335480217e-09
-4.884364658e-13
1.304294273e-09
-4.772985698e-13
1.267629166e-09
-4.590360455e-13
1.225245954e-09
-4.34058128e-13
1.176910675e-09
-4.029976433e-13
1.122398447e-09
-3.666809355e-13
1.061497446e-09
-3.261017724e-13
9.940121357e-10
-2.823956102e-13
9.197670693e-10
-2.368061575e-13
8.386099707e-10
-1.90667343e-13
7.504141885e-10
-1.454053891e-13
6.550812249e-10
-1.025905037e-13
5.525423367e-10
-6.403941017e-14
4.427599382e-10
-3.198741837e-14
3.257278731e-10
-9.345638109e-15
2.014702667e-10
7.003523293e-11
2.348673997e-15
5.795858792e-11
9.129612197e-15
1.695855279e-10
1.98079312e-14
2.749592678e-10
3.368598511e-14
3.743210098e-10
4.998313769e-14
4.679059167e-10
6.787000959e-14
5.559423058e-10
8.649150424e-14
6.38651451e-10
1.049768033e-13
7.162467283e-10
1.22552971e-13
7.889332621e-10
1.385392972e-13
8.569073157e-10
1.523174655e-13
9.203555648e-10
1.633794348e-13
9.794542645e-10
1.713274186e-13
1.034368471e-09
1.758665055e-13
1.085251038e-09
1.768053366e-13
1.132241519e-09
1.740892805e-13
1.175465011e-09
1.677171887e-13
1.215030796e-09
1.577736785e-13
1.251031123e-09
1.443115411e-13
1.283540097e-09
1.276538507e-13
1.31261186e-09
1.081475877e-13
1.338279672e-09
8.610340833e-14
1.360554805e-09
6.200550918e-14
1.379425654e-09
3.644252357e-14
1.394856559e-09
9.966645636e-15
1.406788009e-09
-1.677669821e-14
1.415136207e-09
-4.305701524e-14
1.419793223e-09
-6.821428205e-14
1.420628008e-09
-9.159948862e-14
1.417487521e-09
-1.125121272e-13
1.410198055e-09
-1.30384065e-13
1.398567469e-09
-1.4480826e-13
1.382387837e-09
-1.553611977e-13
1.36143797e-09
-1.618171888e-13
1.335486673e-09
-1.641061775e-13
1.304296562e-09
-1.623328908e-13
1.267627392e-09
-1.568272511e-13
1.225240448e-09
-1.479949463e-13
1.176901842e-09
-1.364065449e-13
1.122386859e-09
-1.227270321e-13
1.061483767e-09
-1.07675375e-13
9.93997084e-10
-9.197126677e-14
9.197513652e-10
-7.626775935e-14
8.385942672e-10
-6.109300154e-14
7.503990137e-10
-4.68100505e-14
6.550669419e-10
-3.363440309e-14
5.525291611e-10
-2.172890654e-14
4.427480327e-10
-1.142110329e-14
3.257175653e-10
-3.589909534e-15
2.014624355e-10
7.003164302e-11
2.919382244e-15
5.795566854e-11
1.137312252e-14
1.695770742e-10
2.478134897e-14
2.749458596e-10
4.23913151e-14
3.743033999e-10
6.344516067e-14
4.678848628e-10
8.704395259e-14
5.55918707e-10
1.123876049e-13
6.386261073e-10
1.385774779e-13
7.162205384e-10
1.648324638e-13
7.889070071e-10
1.904475252e-13
8.568817007e-10
2.148245677e-13
9.203311878e-10
2.374295276e-13
9.794316595e-10
2.578269965e-13
1.034348074e-09
2.756940167e-13
1.085233171e-09
2.907913031e-13
1.132226422e-09
3.029675399e-13
1.175452834e-09
3.121416816e-13
1.215021622e-09
3.18250043e-13
1.251025014e-09
3.213218577e-13
1.283537025e-09
3.215282072e-13
1.312611654e-09
3.19058663e-13
1.338282142e-09
3.140138368e-13
1.36055985e-09
3.0678787e-13
1.37943288e-09
2.977163157e-13
1.394865631e-09
2.870730372e-13
1.406798652e-09
2.753598399e-13
1.41514792e-09
2.629964019e-13
1.419805587e-09
2.503232948e-13
1.420640682e-09
2.377889695e-13
1.417500055e-09
2.257632594e-13
1.410210081e-09
2.145225089e-13
1.39857871e-09
2.042049342e-13
1.382398155e-09
1.949710233e-13
1.361447204e-09
1.868094649e-13
1.335494834e-09
1.795822827e-13
1.304303789e-09
1.729867237e-13
1.267633988e-09
1.666111688e-13
1.225246824e-09
1.59972249e-13
1.176908481e-09
1.525056354e-13
1.122394326e-09
1.436329604e-13