/*--------------------------------*- C++ -*----------------------------------*\
  =========                 |
  \\      /  F ield         | OpenFOAM: The Open Source CFD Toolbox
   \\    /   O peration     | Website:  https://openfoam.org
    \\  /    A nd           | Version:  7
     \\/     M anipulation  |
\*---------------------------------------------------------------------------*/
FoamFile
{
    version     2.0;
    format      ascii;
    class       volScalarField;
    location    "0.0027";
    object      rho;
}
// * * * * * * * * * * * * * * * * * * * * * * * * * * * * * * * * * * * * * //

dimensions      [1 -3 0 0 0 0 0];

internalField   nonuniform List<scalar> 
1167
(
933.9265883
933.8540231
933.698508
933.4688115
933.1702833
932.8071853
932.3841368
931.9050371
931.373947
930.7947892
930.1713094
929.5072315
928.8061585
928.0715747
927.3068645
926.5153232
925.7001717
933.8082599
933.7357459
933.5803433
933.3509243
933.0526615
932.689987
932.2673456
931.7888486
931.2584651
930.6801132
930.0575709
929.394571
928.6947254
927.9615292
927.198377
926.408574
925.5954166
924.7621519
923.9116955
923.0470407
922.1712558
921.2869129
920.3967955
919.5034798
918.609307
917.7167887
916.8278593
915.9447138
915.0691897
914.2029528
913.3477856
912.5049733
911.675858
910.8616745
910.0632679
909.281507
908.5172642
907.7710139
907.0432065
906.334181
905.6441635
904.9732454
904.3214661
903.6887217
903.0748349
902.4794616
901.9023043
901.3428673
900.8007079
900.2752354
933.6900544
933.6175953
933.4623132
933.2332092
932.935202
932.5729862
932.1507571
931.6728887
931.1432402
930.565726
929.9441559
929.2822707
928.5836898
927.8519195
927.0903641
926.3023399
925.4912493
924.6601326
923.8120135
922.9499793
922.0768973
921.1954365
920.3084344
919.4182949
918.5275122
917.6384073
916.7529898
915.8734941
915.0016017
914.1390886
913.287594
912.4484596
911.6230495
910.8124828
910.0176478
909.2394048
908.4786524
907.7357815
907.0112759
906.305472
905.6185914
904.950724
904.3019102
903.6720544
903.0609572
902.4682816
901.8937481
901.3368525
900.7971561
900.2740696
933.5719766
933.4995762
933.3445336
933.1156456
932.81791
932.4561715
932.0344867
931.557163
931.0282786
930.4516337
929.8310701
929.1703355
928.4730566
927.7427497
926.9828287
926.196722
925.3876297
924.5586925
923.7129595
922.8535456
921.983183
921.1046863
920.2207398
919.3337761
918.4463771
917.5606751
916.6788119
915.8028843
914.9346006
914.0757843
913.2279329
912.392445
911.5707071
910.7637244
909.9724278
909.1977062
908.4403755
907.7008526
906.9796188
906.2770075
905.593236
904.9283928
904.2825315
903.6555335
903.0472005
902.4571949
901.885263
901.3308876
900.7936339
900.2729135
933.4540316
933.3817636
933.2269172
932.9982395
932.7008903
932.339548
931.9184431
931.4417274
930.9135856
930.3378419
929.7183188
929.0587706
928.3628304
927.6340248
926.8758468
926.0916173
925.2845571
924.4578292
923.6145796
922.757735
921.8901076
921.0146002
920.1337025
919.2499373
918.3658923
917.4835822
916.6052656
915.7328756
914.8681774
914.0130313
913.1687948
912.3369325
911.5188249
910.7153941
909.9276039
909.1563774
908.4024312
907.6662259
906.9482342
906.248787
905.5680972
904.9062553
904.2633236
903.6391521
903.0335598
902.4462132
901.8768494
901.324973
900.7901413
900.2717672
933.336344
933.2641519
933.1094508
932.8809959
932.5840771
932.2231216
931.8026199
931.3266137
930.7992035
930.2243559
929.6059071
928.9475804
928.2530153
927.5258166
926.7693791
925.9870263
925.1820302
924.3575594
923.5167985
922.6625438
921.7976869
920.9251567
920.0473135
919.1668051
918.2860486
917.4071193
916.5323329
915.6634613
914.8023722
913.9508212
913.1101731
912.2819472
911.4673966
910.6674873
909.8831724
909.1154097
908.3648175
907.6319
906.9171214
906.22081
905.5431748
904.8843264
904.2442802
903.6229108
903.0200356
902.4353252
901.8685075
901.3191089
900.7866785
900.2706306
933.2188086
933.1466869
932.9921397
932.7639504
932.4674469
932.1069314
931.6870222
931.211751
930.6851778
930.1112594
929.4938855
928.8368237
928.1437158
927.4180957
926.6633938
925.8829501
925.0800484
924.257942
923.4196138
922.5679699
921.7059681
920.8363464
919.9615634
919.0843109
918.206837
917.3313192
916.4600055
915.5946332
914.7371429
913.8891476
913.0520608
912.227442
911.4164181
910.6200001
909.8391454
909.0748009
908.327533
907.5978738
906.8862798
906.1930765
905.518475
904.8625876
904.2254017
903.60681
903.0066283
902.4245314
901.8602378
901.3132955
900.7832457
900.2695039
933.1014212
933.029374
932.8749894
932.6471751
932.3510045
931.9910368
931.571655
931.0971443
930.5714368
929.9985186
929.3822851
928.7265103
928.0348435
927.310825
926.5578922
925.7793895
924.9786504
924.1588937
923.3230214
922.4740066
921.6148707
920.7481641
919.8764746
919.0024464
918.1282489
917.2561638
916.3882752
915.5263833
914.6724688
913.8280045
912.9944524
912.1734121
911.365886
910.5729297
909.7955327
909.0345492
908.2905762
907.5641468
906.855709
906.1655864
905.4940092
904.8410393
904.2066886
903.5908501
902.9933385
902.413832
901.8520405
901.307533
900.779843
900.2683871
932.9841871
932.9122184
932.7580419
932.5305772
932.2347554
931.8753551
931.4565571
930.9827987
930.4579854
929.8860982
929.2710374
928.6165823
927.9263896
927.2040062
926.4528753
925.6763449
924.877855
924.0604102
923.2270147
922.3807187
921.5243904
920.6606048
919.7920604
918.9212042
918.0502765
917.1816125
916.3171342
915.4587275
914.6083436
913.7673862
912.9373788
912.1198533
911.3157968
910.5262735
909.7523047
908.9946532
908.2539465
907.5307183
906.8254091
906.1383424
905.4697603
904.8196821
904.1881415
903.5750319
902.9801666
902.4032277
901.8439185
901.3018217
900.7764705
900.2672802
932.8671117
932.7952256
932.6413561
932.4141616
932.1187263
931.7598921
931.3417919
930.8687185
930.3448279
929.7740021
929.1601458
928.5070426
927.8183567
927.0976408
926.3483432
925.5739054
924.7775993
923.9624888
923.1315898
922.2880456
921.4345206
920.5736624
919.7082641
918.8405772
917.9729436
917.1076582
916.2465754
915.3916782
914.5447613
913.7072875
912.8808214
912.066762
911.2661475
910.4800291
909.7094599
908.9551119
908.2176432
907.4975884
906.7953801
906.1113671
905.4457288
904.7985167
904.1697611
903.559356
902.9671132
902.392719
901.835875
901.296162
900.7731285
900.2661833
932.7502462
932.6785249
932.5248456
932.2979334
932.0030009
931.6446523
931.2272719
930.7549898
930.2319687
929.6622341
929.0496133
928.3978939
927.7107466
926.9917297
926.2443561
925.4719936
924.6778813
923.8651282
923.0368042
922.195965
921.3452558
920.4873884
919.6250778
918.7605582
917.8962526
917.0342938
916.1765923
915.3251864
914.4817162
913.6477036
912.8247538
912.0141348
911.2169357
910.4342357
909.6669969
908.9159246
908.181666
907.4647571
906.7656226
906.0846362
905.4219156
904.7775438
904.1515482
903.5438233
902.9541793
902.3823064
901.8279052
901.2905542
900.7698171
900.2650965
932.633632
932.5620003
932.4085154
932.1818979
931.8874839
931.5296403
931.1130017
930.6415682
930.1194816
929.5507977
928.939443
928.2891386
927.6035619
926.8863367
926.1408944
925.3705925
924.5786991
923.7683256
922.9426302
922.1044721
921.2565899
920.4017483
919.5424949
918.6811401
917.8201555
916.9615129
916.1071836
915.2592467
914.4192035
913.5886397
912.7691726
911.961969
911.1681591
910.3888538
909.6249151
908.8770911
908.1460156
907.4322255
906.7361591
906.0581502
905.3983215
904.7567645
904.1335039
903.5284346
902.9413656
902.3719909
901.8200097
901.2849987
900.7665367
900.2640198
932.5171914
932.4456529
932.2923705
932.0661364
931.7721806
931.4149399
930.9989853
930.5284254
930.0073482
929.4397987
928.8296996
928.1808419
927.4969017
926.7814401
926.0379147
925.2697001
924.48005
923.672137
922.8490264
922.0135623
921.1685275
920.3167059
919.4605108
918.6023533
917.7446452
916.889309
916.038401
915.1938537
914.3572186
913.5301274
912.7140746
911.9102621
911.1198161
910.3438792
909.5832139
908.8386115
908.1106923
907.3999943
906.7069767
906.0319106
905.3749478
904.7361803
904.1156296
903.5131914
902.9286734
902.3617732
901.8121893
901.2794962
900.7632876
900.2629534
932.4009292
932.3294877
932.1764161
931.9506223
931.657096
931.3005226
930.885227
930.4155655
929.8955249
929.3291529
928.7203762
928.0729905
927.3906759
926.6769982
925.9354165
925.1693148
924.381931
923.5765286
922.755988
921.9232294
921.0811203
920.2322574
919.3791211
918.5241965
917.6697158
916.8176763
915.9701762
915.1290028
914.2957575
913.472118
912.6594576
911.859013
911.0719321
910.2993105
909.5418931
908.8004862
908.0756969
907.3680717
906.6780689
906.0059195
905.3517968
904.715793
904.0979271
903.4980953
902.916104
902.3516548
901.804445
901.2740472
900.7600701
900.2618975
932.2848503
932.2135096
932.0607391
931.8353155
931.5422343
931.1863465
930.771796
930.3029926
929.7840149
929.2188482
928.611422
927.9655369
927.2848766
926.5730106
925.8333991
925.0694348
924.2844306
923.4814659
922.6635107
921.8334699
920.9942951
920.1483963
919.2983194
918.4466233
917.5953627
916.7466102
915.9025048
915.0646899
914.2348169
913.414609
912.6053196
911.8082203
911.0244994
910.2551477
909.5009531
908.7627161
908.0410307
907.3364756
906.649438
905.9801793
905.3288707
904.6956052
904.0803988
903.4831485
902.9036594
902.3416372
901.7967781
901.2686528
900.7568849
900.2608521
932.1689596
932.0977668
931.9453013
931.7202211
931.4276652
931.0724157
930.6586804
930.1907104
929.6728213
929.1088871
928.5028391
927.8584826
927.1795046
926.4694775
925.7318624
924.9701065
924.1874591
923.3869464
922.5715939
921.7443556
920.908044
920.0651159
919.2181541
918.3696291
917.521583
916.6761684
915.8353812
915.0009108
914.1744435
913.357598
912.551659
911.7578828
910.9774979
910.2113918
909.4603952
908.7253029
908.0066961
907.3051851
906.6210868
905.954693
905.3061729
904.67562
904.0630477
903.4683537
902.8913421
902.3317225
901.7891902
901.2633141
900.7537326
900.2598175
932.0533519
931.9822988
931.8300685
931.6053438
931.3133879
930.9587341
930.5458352
930.0788346
929.5619471
928.9992717
928.3946292
927.7518287
927.0745604
926.3663989
925.6308376
924.8713299
924.0910084
923.2929669
922.4802328
921.6558219
920.8223633
919.9824108
919.1385896
918.293209
917.4483716
916.6062881
915.7688028
914.9376628
914.1145933
913.3010832
912.4984745
911.7080146
910.9309284
910.1680444
909.4202217
908.6882493
907.9727175
907.2742036
906.5930193
905.9294647
905.2837075
904.6558416
904.0458778
903.4537147
902.8791555
902.3219135
901.7816835
901.2580327
900.7506143
900.2587941
931.9379734
931.8670324
931.7150454
931.490688
931.1993464
930.8453061
930.4332643
929.9672605
929.4514845
928.8900044
928.2867938
927.6455764
926.9700442
926.2638152
925.5303634
924.7730524
923.9950761
923.1995223
922.389485
921.5678495
920.73725
919.9002844
919.0595968
918.2173581
917.3757238
916.536962
915.7027671
914.8749437
914.0552558
913.2450635
912.445766
911.6586353
910.8847921
910.1251076
909.3804354
908.6515589
907.9390902
907.2435356
906.5652401
905.9044995
905.2614796
904.6362749
904.028894
903.4392361
902.8671035
902.3122138
901.7742609
901.2528108
900.7475311
900.2577822
931.8227978
931.7519726
931.6002372
931.3763794
931.0855446
930.7322399
930.3209713
929.8559871
929.3413735
928.7811999
928.1793986
927.5397823
926.8660392
926.1617433
925.4303643
924.6752715
923.899659
923.1066091
922.2993052
921.4804341
920.6527004
919.8187943
918.9811713
918.1420723
917.3037047
916.4681874
915.6372726
914.81279
913.996429
913.1895384
912.3935339
911.6097123
910.8390913
910.0825847
909.3410404
908.6152365
907.9058067
907.2131872
906.5377559
905.8798042
905.2394963
904.6169272
904.0121031
903.4249243
902.8551921
902.3026283
901.7669264
901.2476511
900.7444847
900.2567825
931.7078298
931.6371243
931.4856501
931.2623043
930.9719866
930.6194438
930.2089598
929.7450174
929.2315899
928.672748
928.0724267
927.4344406
926.762481
926.0601211
925.3308378
924.5779845
923.8047553
923.0143078
922.2096649
921.3935696
920.568709
919.7378659
918.9033084
918.0673469
917.2322424
916.3999605
915.5723161
914.7511804
913.9381114
913.1345068
912.3417829
911.5612462
910.7938278
910.0404784
909.3020406
908.5793175
907.8728709
907.1831633
906.5105722
905.8553849
905.2177639
904.5978049
903.9955117
903.4107855
902.843427
902.2931622
901.7596843
901.2425569
900.7414772
900.2557955
931.5930745
931.5224925
931.3714097
931.1484629
930.8586763
930.5069123
930.0973254
929.6343532
929.1221348
928.564648
927.9658309
927.3294996
926.6593471
925.958946
925.2317804
924.4811868
923.7103831
922.9225395
922.1205583
921.3072498
920.4853287
919.6574905
918.8260001
917.9931869
917.1613284
916.3322749
915.5078916
914.6900903
913.8803
913.0799669
912.2905485
911.5132349
910.749001
909.9987893
909.2634376
908.5437749
907.8402873
907.1534688
906.4836945
905.8312476
905.1962889
904.5789146
903.9791263
903.3968262
902.8318141
902.2838205
901.7525385
901.237531
900.7385102
900.2548218
931.4785462
931.4081677
931.2573963
931.0348585
930.7457074
930.3946476
929.9860001
929.5240089
929.0130073
928.4568984
927.8596085
927.2249549
926.556632
925.8582115
925.133184
924.3848688
923.6165719
922.831281
922.0319728
921.2214602
920.4025087
919.5776518
918.7492292
917.9196187
917.0909441
916.2651117
915.4440171
914.6295004
913.8229749
913.0258978
912.2397669
911.4656577
910.7045888
909.9574945
909.2252158
908.5085823
907.8080307
907.1240778
906.4570964
905.807366
905.1750457
904.5602324
903.9629255
903.383028
902.8203392
902.2745933
901.7454829
901.2325744
900.7355826
900.2538613
931.3643126
931.2940635
931.1435713
930.9214527
930.6329725
930.2826106
929.8749204
929.4140313
928.9041668
928.3494576
927.7537174
927.1207637
926.4542919
925.7578722
925.0350013
924.2890679
923.5232041
922.7404762
921.9438477
921.136175
920.3201531
919.4982722
918.6729087
917.8464882
917.0209812
916.1983498
915.3805449
914.5692613
913.7659709
912.9721184
912.1892407
911.4183015
910.6603631
909.9163526
909.1871454
908.4734823
907.7758422
907.0947354
906.4305338
905.7835133
905.1538315
904.5415856
903.9467713
903.36929
902.8089369
902.2654466
901.7385078
901.2276886
900.7327023
900.2529175
931.2221741
931.1520883
931.0019494
930.7804174
930.4927281
930.1432945
929.736768
929.2772705
928.7689654
928.2159192
927.6221035
926.9912888
926.3271445
925.6332696
924.9131815
924.1701416
923.4073255
922.6278187
921.8345597
921.0305074
920.2181324
919.4000064
918.578567
917.7561221
916.9346355
916.1160761
915.3024638
914.4953149
913.696174
912.9065358
912.1277858
911.3609486
910.607072
909.8670721
909.1418621
908.4320728
907.7382283
907.0608254
906.4002267
905.7566953
905.1303766
904.521356
903.9296126
903.3550333
902.7973976
902.2564306
901.7318121
901.2231143
900.7300616
900.2520636
)
;

boundaryField
{
    front_top
    {
        type            wedge;
    }
    front_middle
    {
        type            wedge;
    }
    front_bottom
    {
        type            wedge;
    }
    back_top
    {
        type            wedge;
    }
    back_middle
    {
        type            wedge;
    }
    back_bottom
    {
        type            wedge;
    }
    axis_top
    {
        type            symmetryPlane;
    }
    axis_middle
    {
        type            symmetryPlane;
    }
    axis_bottom
    {
        type            symmetryPlane;
    }
    wall_top
    {
        type            calculated;
        value           nonuniform 0();
    }
    wall_middle
    {
        type            calculated;
        value           nonuniform 0();
    }
    wall_bottom
    {
        type            calculated;
        value           uniform 900.0184441;
    }
    inlet
    {
        type            calculated;
        value           nonuniform 0();
    }
    outlet
    {
        type            calculated;
        value           nonuniform List<scalar> 
50
(
931.2221741
931.1520883
931.0019494
930.7804174
930.4927281
930.1432945
929.736768
929.2772705
928.7689654
928.2159192
927.6221035
926.9912888
926.3271445
925.6332696
924.9131815
924.1701416
923.4073255
922.6278187
921.8345597
921.0305074
920.2181324
919.4000064
918.578567
917.7561221
916.9346355
916.1160761
915.3024638
914.4953149
913.696174
912.9065358
912.1277858
911.3609486
910.607072
909.8670721
909.1418621
908.4320728
907.7382283
907.0608254
906.4002267
905.7566953
905.1303766
904.521356
903.9296126
903.3550333
902.7973976
902.2564306
901.7318121
901.2231143
900.7300616
900.2520636
)
;
    }
    procBoundary0to1
    {
        type            processor;
        value           nonuniform List<scalar> 
51
(
934.0450347
933.9724219
933.8168022
933.5869438
933.2880621
932.9246704
932.5011246
932.0214482
931.4896823
930.9098208
930.2854686
929.6203335
928.9180143
928.1820511
927.415823
926.6225828
925.8055431
924.8647519
924.8647519
924.0119879
923.1447861
922.2662656
921.3790554
920.4858302
919.5893404
918.6918222
917.7958272
916.9033711
916.0165554
915.1373755
914.267427
913.4085166
912.5619939
911.7291456
910.911305
910.1092927
909.32398
908.5562133
907.8065517
907.0754117
906.3631351
905.6699526
904.9959569
904.3411864
903.7055391
903.0888364
902.4907345
901.9109316
901.348932
900.8042892
900.2764109
)
;
    }
}


// ************************************************************************* //
