/*--------------------------------*- C++ -*----------------------------------*\
  =========                 |
  \\      /  F ield         | OpenFOAM: The Open Source CFD Toolbox
   \\    /   O peration     | Website:  https://openfoam.org
    \\  /    A nd           | Version:  7
     \\/     M anipulation  |
\*---------------------------------------------------------------------------*/
FoamFile
{
    version     2.0;
    format      ascii;
    class       volScalarField;
    location    "0.0027";
    object      thermo:mu;
}
// * * * * * * * * * * * * * * * * * * * * * * * * * * * * * * * * * * * * * //

dimensions      [1 -1 -1 0 0 0 0];

internalField   nonuniform List<scalar> 
1167
(
45946.25898
45575.814
44793.5334
43666.45816
42250.52832
40599.68852
38770.0426
36812.69447
34775.98451
32702.91246
30630.34968
28589.33054
26604.77097
24695.85179
22876.6096
21156.5872
19541.52025
45343.97741
44979.41981
44209.55502
43100.82353
41707.3526
40082.94297
38281.95261
36355.49683
34350.67104
32309.72062
30269.00165
28259.0465
26304.37928
24423.89547
22631.4333
20936.41314
19344.63637
17858.79191
16478.61081
15202.18253
14026.31651
12946.2058
11956.7596
11052.31853
10226.91371
9474.819539
8790.030674
8167.078611
7600.591278
7085.506828
6617.252692
6191.400629
5803.98557
5451.387507
5130.202734
4837.408636
4570.311687
4326.383053
4103.375863
3899.267024
3712.234349
3540.630542
3382.985316
3237.963958
3104.368767
2981.104301
2867.20868
2761.790421
2664.066918
2573.315603
44751.45881
44392.69703
43635.05502
42544.49424
41173.01231
39574.68397
37801.82806
35905.77809
33932.33395
31923.00051
29913.6256
27934.24534
26008.996
24156.49347
22390.38144
20719.96399
19151.16177
17686.24623
16325.19632
15066.29241
13906.13691
12840.17912
11863.49803
10970.37201
10155.11592
9411.955254
8735.081468
8119.164804
7558.834453
7049.202742
6585.705089
6164.033061
5780.305246
5430.916201
5112.544037
4822.215753
4557.292567
4315.257673
4093.91207
3891.26265
3705.512705
3535.037676
3378.387441
3234.246306
3101.426349
2978.846714
2865.560139
2760.682712
2663.440631
2573.118463
44168.54269
43815.4867
43070.40426
41997.19583
40647.36122
39074.69843
37329.98064
35463.41522
33520.85833
31542.64496
29564.12068
27614.83215
25718.53312
23893.56424
22153.37758
20507.36668
18960.95415
17516.61899
16174.4098
14932.6955
13787.97726
12736.00521
11771.78829
10889.77559
10084.486
9350.099287
8681.041316
8071.990532
7517.709196
7013.435173
6554.61223
6137.049503
5756.947743
5410.715781
5095.111916
4807.22477
4544.430188
4304.262019
4084.555184
3883.34593
3698.862481
3529.502546
3373.838677
3230.566382
3098.512901
2976.610007
2863.926433
2759.584742
2662.819728
2572.922982
43595.07152
43247.96694
42514.99367
41458.78247
40130.69333
38582.84873
36865.87611
35028.47314
33116.12874
31168.54673
29220.3867
27300.71351
25432.90441
23635.02943
21920.50496
20298.33753
18773.94675
17349.84873
16026.26853
14801.34113
13671.79303
12633.57867
11681.59308
10810.51853
10014.99617
9289.227377
8627.852475
8025.538941
7477.201021
6978.192114
6523.964394
6110.446649
5733.906693
5390.781323
5077.902625
4792.42176
4531.722495
4293.394625
4075.304187
3875.516173
3692.283222
3524.02572
3369.337267
3226.922522
3095.627278
2974.396482
2862.307593
2758.496536
2662.204227
2572.729166
43031.45925
42689.91865
41968.58445
40929.10784
39622.54067
38099.00226
36409.33926
34600.9209
32718.15888
30800.59913
28882.32415
26991.79675
25152.02345
23380.96902
21691.59408
20092.80661
18590.07429
17185.9064
15880.60812
14672.18147
13557.56647
12532.84334
11592.87599
10732.60227
9946.619415
9229.316338
8575.488869
7979.794954
7437.325481
6943.461918
6493.752591
6084.232015
5711.175788
5371.108057
5060.912583
4777.80194
4519.167555
4282.654113
4066.158117
3867.772724
3685.774484
3518.610581
3364.881559
3223.314706
3092.769493
2972.203806
2860.703652
2757.418126
2661.594148
2572.537022
42477.0111
42140.90416
41431.02942
40408.16236
39122.63725
37623.16439
35960.24286
34180.34965
32326.96896
30438.94701
28549.96994
26688.13788
24876.05766
23131.22273
21466.49808
19890.70614
18409.27356
17024.83092
15737.37732
14545.17222
13445.31832
12433.75781
11505.6014
10655.93984
9879.329562
9170.376346
8523.931925
7934.742827
7398.048196
6909.234144
6463.967778
6058.378526
5688.749881
5351.691803
5044.144236
4763.362875
4506.763582
4272.039204
4057.116085
3860.114985
3679.337506
3513.252278
3360.471439
3219.742901
3089.939559
2970.032009
2859.114648
2756.349542
2660.989512
2572.346558
41931.53317
41600.77624
40902.1848
39896.08938
38630.84525
37155.41496
35518.46196
33766.64231
31942.17918
30083.35511
28223.29832
26389.65625
24604.68557
22885.61882
21245.14358
19691.9701
18231.55172
16866.43231
15596.52336
14420.26356
13334.91394
12336.28679
11419.76633
10580.50224
9813.101552
9112.377661
8473.163559
7890.367254
7359.34864
6875.498921
6434.601785
6032.879736
5666.624001
5332.528688
5027.599207
4749.102334
4494.508938
4261.54873
4048.177286
3852.542423
3672.974829
3507.950629
3356.106823
3216.207087
3087.137491
2967.881125
2857.540618
2755.290818
2660.390342
2572.157783
41394.87921
41069.38992
40382.06995
39392.31086
38147.03145
36695.26331
35083.99978
33359.68235
31563.6805
29733.59249
27901.99659
26096.0924
24337.79414
22644.07904
21027.45858
19496.53282
18056.88002
16710.65199
15457.99141
14297.50105
13226.31415
12240.39573
11335.35865
10506.26201
9747.911493
9055.274495
8423.166444
7846.668717
7321.215007
6842.246709
6405.665087
6007.729585
5644.793417
5313.615066
5011.264169
4735.018248
4482.402117
4251.181628
4039.340996
3845.055292
3666.681604
3502.705484
3351.787653
3212.707261
3084.363318
2965.751198
2855.982079
2754.241992
2659.796663
2571.970704
40866.9058
40546.60312
39870.77044
38896.68906
37671.15158
36242.58527
34656.946
32959.35324
31191.36396
29389.55647
27585.96779
25807.35656
24075.30055
22406.52602
20813.37083
19304.49554
17885.09019
16557.43557
15321.73195
14176.76514
13119.47847
12146.04994
11252.29727
10433.19267
9683.762217
8999.047313
8373.92407
7803.645384
7283.636051
6809.468397
6377.142968
5982.922326
5623.253649
5294.947503
4995.136535
4721.108702
4470.441742
4240.936938
4030.606575
3837.659193
3660.457608
3497.516741
3347.513905
3209.243448
3081.617092
2963.642286
2854.439616
2753.203107
2659.208503
2571.785333
40347.6735
40032.8169
39367.73802
38409.08959
37203.38721
35797.25418
34236.83031
32565.82255
30825.12227
29051.14557
27275.1166
25523.35998
23817.12238
22172.88312
20602.9306
19115.64666
17716.12351
16406.73189
15187.78308
14057.98936
13014.36834
12053.27722
11170.55131
10361.26812
9620.638752
8943.677345
8325.42068
7761.256417
7246.601045
6777.155312
6349.017229
5958.452497
5602.000455
5276.539208
4979.213904
4707.371944
4458.626569
4230.813813
4021.973478
3830.34698
3654.302675
3492.384344
3343.285596
3205.815707
3078.898888
2961.554467
2852.912282
2752.174219
2658.625896
2571.60168
39837.1914
39527.34695
38872.83625
37929.37976
36743.19568
35359.14566
33823.53487
32178.80046
30465.0716
28718.25994
26969.34957
25244.01598
23563.18059
21943.2115
20396.02585
18929.89262
17549.9221
16258.48885
15056.06181
13941.13156
12910.94553
11962.01265
11090.09194
10290.46333
9558.485407
8889.146539
8277.644477
7719.489329
7210.099763
6745.304277
6321.281299
5934.31494
5581.029861
5258.371811
4963.494068
4693.806417
4446.955578
4220.811682
4013.447552
3823.118271
3648.216635
3487.30826
3339.102771
3202.424125
3076.208811
2959.487846
2851.400166
2751.155394
2658.048884
2571.41976
39334.95076
39030.03925
38385.93103
37457.73859
36290.4525
34928.43269
33416.94186
31798.06385
30111.02875
28391.1012
26668.74315
24969.39654
23313.62224
21717.38476
20192.50052
18747.17026
17386.42843
16112.74425
14926.469
13826.1509
12809.18521
11872.19164
11010.89291
10220.78653
9497.281123
8835.437334
8230.620108
7678.332175
7174.122459
6713.926361
6293.928984
5910.504818
5560.338162
5240.441157
4947.975004
4680.410699
4435.427799
4210.929884
4005.024334
3815.972985
3642.199499
3482.288571
3334.965561
3199.068856
3073.547017
2957.442563
2849.903385
2750.14672
2657.477521
2571.23959
38840.81486
38540.75886
37906.89028
36993.89724
35845.03316
34504.86115
33016.9367
31423.50412
29762.73785
28069.30745
26373.17367
24699.37359
23068.15063
21495.23793
19992.28846
18567.41807
17225.58608
15969.39945
14798.95859
13713.0056
12709.11661
11783.78529
10932.92879
10152.21803
9437.006138
8782.533036
8184.290177
7637.773557
7138.659917
6682.989668
6266.954598
5887.017911
5539.933188
5222.744435
4932.654749
4667.183452
4424.04235
4201.170043
3996.701335
3808.911179
3636.251418
3477.325489
3330.874206
3195.750142
3070.913732
2955.418817
2848.4221
2749.148312
2656.911876
2571.061194
38354.64994
38059.37313
37435.91558
36537.54457
35406.81346
34088.13743
32623.62975
31055.01424
29420.0971
27752.73908
26082.40588
24433.73808
22826.66782
21276.69895
19795.32409
18390.57582
17067.48756
15828.35811
14673.48674
13601.65812
12610.62651
11696.76262
10856.173
10084.69943
9377.642451
8730.418102
8138.641626
7597.802712
7103.703433
6652.487287
6240.352736
5863.850028
5519.808663
5205.279316
4917.531634
4654.123564
4412.798564
4191.536774
3988.478524
3801.933018
3630.372676
3472.419357
3326.82907
3192.468339
3068.30928
2953.416883
2846.956528
2748.160327
2656.352041
2570.884601
37876.32427
37585.92743
36972.6924
36088.55678
34975.91512
33678.14389
32236.8465
30692.4883
29083.00575
27441.30059
25796.35102
24172.40796
22589.09751
21061.698
19601.54464
18216.66891
16911.93571
15689.57384
14550.01519
13492.16425
12513.67843
11611.0929
10780.65072
10018.20991
9319.173598
8679.122737
8093.661067
7558.409036
7069.273098
6622.41259
6214.118178
5840.997047
5499.953201
5188.043963
4902.604375
4641.230234
4401.696046
4182.022754
3980.356059
3795.038832
3624.563711
3467.570666
3322.830653
3189.223922
3065.734089
2951.437125
2845.506955
2747.182969
2655.798137
2570.709852
37406.07118
37120.42364
36516.9346
35646.81112
34552.18841
33274.76524
31856.30635
30336.17681
28751.36458
27134.89847
25514.92188
23915.30238
22355.36509
20850.16671
19410.94753
18045.64027
16758.87013
15552.99998
14428.501
13384.41136
12418.24131
11526.74784
10706.30822
9952.728772
9261.581694
8628.589249
8049.337265
7519.582975
7035.336958
6592.759412
6188.246146
5818.461887
5480.364312
5171.03677
4887.872017
4628.503012
4390.74165
4172.628236
3972.334413
3788.229242
3618.82523
3462.78016
3318.879688
3186.017577
3063.188768
2949.480051
2844.073781
2746.216518
2655.250328
2570.536998
36943.51353
36662.41429
36068.51775
35212.18514
34135.2878
32877.88914
31481.90125
29985.62512
28425.33821
26833.44106
25238.03271
23662.3417
22125.39696
20642.11984
19223.54274
17877.34478
16608.24032
15418.58865
14308.98454
13278.34563
12324.28591
11443.70845
10633.09907
9888.236044
9204.849756
8578.80118
8005.659292
7481.315579
7001.882789
6563.522053
6162.732291
5796.249873
5461.039823
5154.25638
4873.333854
4615.941703
4379.932639
4163.353718
3964.414296
3781.5051
3613.158167
3458.048795
3314.977109
3182.850176
3060.674091
2947.546317
2842.65752
2745.261344
2654.708832
2570.366111
36488.39819
36211.77578
35627.32126
34785.00873
33725.09558
32487.76092
31113.5251
29640.71843
28104.63893
26537.14284
24965.76043
23413.57846
21899.30018
20437.52301
19039.12919
17711.72652
16459.99642
15286.29537
14191.37012
13173.93202
12231.78255
11362.01048
10561.00097
9824.712648
9149.015037
8529.745698
7962.617171
7443.621415
6968.903349
6534.69512
6137.572689
5774.342889
5441.978016
5137.701898
4858.989663
4603.546614
4369.26558
4154.200219
3956.596948
3774.867788
3607.563972
3453.378026
3311.124316
3179.72301
3058.191197
2945.636871
2841.25891
2744.317961
2654.173945
2570.197284
36040.60201
35768.38562
35193.22992
34364.71321
33321.49812
32103.9334
30751.07273
29301.35649
27789.09321
26245.60373
24697.971
23168.91585
21676.85973
20236.18617
18857.64599
17548.73115
16314.09146
15156.19444
14075.58652
13071.13441
12140.70069
11281.55703
10489.99152
9762.139534
9094.008483
8481.409532
7920.199895
7406.479872
6936.391702
6506.273146
6112.765612
5752.737875
5423.176879
5121.372224
4844.839157
4591.328367
4358.740611
4145.168334
3948.883274
3768.318414
3602.043869
3448.769128
3307.322574
3176.637281
3055.74118
2943.752658
2839.878712
2743.386924
2653.646002
2570.030627
35600.00435
35332.12462
34766.57438
33951.16632
32924.38239
31726.26613
30394.73366
28967.43843
27478.60435
25958.73042
24434.46042
22928.15527
21457.95789
20038.0425
18679.03133
17388.30223
16170.50976
15028.13531
13961.59415
12969.91759
12051.07261
11202.31903
10420.04621
9700.505986
9039.811154
8433.7778
7878.394898
7369.869046
6904.340347
6478.250361
6088.323857
5731.430718
5404.633588
5105.265506
4830.881165
4579.276389
4348.358097
4136.258717
3941.274195
3761.8581
3596.59912
3444.223426
3303.573206
3173.59425
3053.325179
2941.894644
2838.51768
2742.468752
2653.125293
2569.86623
35166.52166
34903.19419
34346.76329
33544.25159
32533.94547
31354.6484
30044.17077
28638.9012
27173.07294
25676.42862
24175.13947
22691.21224
21242.51584
19843.01889
18503.21715
17230.37646
16029.25261
14902.04907
13849.34554
12870.23754
11962.81941
11124.26075
10351.13263
9639.819324
8986.397074
8386.827199
7837.205478
7333.770379
6872.732598
6450.611353
6064.21311
5710.409128
5386.336521
5089.370808
4817.108411
4567.380441
4338.108985
4127.462786
3933.761624
3755.479337
3591.222893
3439.734894
3299.87111
3170.589827
3050.940148
2940.060775
2837.174609
2741.563614
2652.611618
2569.704054
34740.26792
34481.12848
33933.52747
33143.70734
32149.6893
30988.83715
29699.0762
28315.77805
26872.29195
25398.50447
23919.82733
22457.91853
21030.37758
19650.97063
18330.06878
17074.96819
15890.10249
14777.82452
13738.73431
12772.0383
11875.81706
11047.28811
10283.15745
9579.938988
8933.673356
8340.464407
7796.528712
7298.088999
6841.472643
6423.259772
6040.336577
5689.576518
5368.189815
5073.593834
4803.436941
4555.552664
4327.910361
4118.703802
3926.276203
3749.121237
3585.863649
3435.261886
3296.184626
3167.601883
3048.572443
2938.244294
2835.847594
2740.671736
2652.10636
2569.544722
34218.26728
33964.24641
33427.43994
32653.33083
31679.03146
30540.88105
29276.31048
27919.88539
26504.06525
25057.96128
23606.88181
22171.91634
20770.26703
19415.51017
18117.87375
16884.33255
15719.37531
14625.3957
13603.00371
12651.59402
11769.07437
10952.87266
10199.86043
9506.553628
8869.108542
8283.747269
7746.83334
7254.570403
6803.427478
6390.092042
6011.446658
5664.467648
5346.420363
5054.772825
4787.235695
4541.645921
4316.029205
4108.609112
3917.756486
3741.988184
3579.949532
3430.417114
3292.274358
3164.50475
3046.178535
2936.455079
2834.574465
2739.837063
2651.643227
2569.400583
)
;

boundaryField
{
    front_top
    {
        type            wedge;
    }
    front_middle
    {
        type            wedge;
    }
    front_bottom
    {
        type            wedge;
    }
    back_top
    {
        type            wedge;
    }
    back_middle
    {
        type            wedge;
    }
    back_bottom
    {
        type            wedge;
    }
    axis_top
    {
        type            symmetryPlane;
    }
    axis_middle
    {
        type            symmetryPlane;
    }
    axis_bottom
    {
        type            symmetryPlane;
    }
    wall_top
    {
        type            calculated;
        value           nonuniform 0();
    }
    wall_middle
    {
        type            calculated;
        value           nonuniform 0();
    }
    wall_bottom
    {
        type            calculated;
        value           uniform 2530.329233;
    }
    inlet
    {
        type            calculated;
        value           nonuniform 0();
    }
    outlet
    {
        type            calculated;
        value           nonuniform List<scalar> 
50
(
34218.26728
33964.24641
33427.43994
32653.33083
31679.03146
30540.88105
29276.31048
27919.88539
26504.06525
25057.96128
23606.88181
22171.91634
20770.26703
19415.51017
18117.87375
16884.33255
15719.37531
14625.3957
13603.00371
12651.59402
11769.07437
10952.87266
10199.86043
9506.553628
8869.108542
8283.747269
7746.83334
7254.570403
6803.427478
6390.092042
6011.446658
5664.467648
5346.420363
5054.772825
4787.235695
4541.645921
4316.029205
4108.609112
3917.756486
3741.988184
3579.949532
3430.417114
3292.274358
3164.50475
3046.178535
2936.455079
2834.574465
2739.837063
2651.643227
2569.400583
)
;
    }
    procBoundary0to1
    {
        type            processor;
        value           nonuniform List<scalar> 
51
(
46558.46691
46182.04124
45387.14825
44241.94083
42802.68762
41125.49259
39266.22981
37277.49675
35208.40047
33102.94029
30998.10674
28925.45328
26910.34274
24972.44348
23125.98726
21380.55279
19741.9389
18034.31777
18034.31777
16634.6788
15340.49079
14148.56443
13054.05042
12051.60926
11135.64841
10299.9535
9538.715377
8845.867246
8215.75145
7642.995621
7122.383702
6649.265605
6219.160685
5827.998191
5472.134958
5148.092057
4852.79345
4583.489772
4337.639753
4112.94767
3907.359788
3719.027874
3546.28139
3387.629457
3241.720313
3107.340862
2983.38274
2868.872073
2762.907873
2664.698587
2573.5144
)
;
    }
}


// ************************************************************************* //
