/*--------------------------------*- C++ -*----------------------------------*\
  =========                 |
  \\      /  F ield         | OpenFOAM: The Open Source CFD Toolbox
   \\    /   O peration     | Website:  https://openfoam.org
    \\  /    A nd           | Version:  7
     \\/     M anipulation  |
\*---------------------------------------------------------------------------*/
FoamFile
{
    version     2.0;
    format      ascii;
    class       volVectorField;
    location    "0.0027";
    object      U;
}
// * * * * * * * * * * * * * * * * * * * * * * * * * * * * * * * * * * * * * //

dimensions      [0 1 -1 0 0 0 0];

internalField   nonuniform List<vector> 
1167
(
(-1.231654768e-06 8.991471562e-18 -0.05026108461)
(-3.216284802e-06 -4.466583265e-18 -0.05025999309)
(-5.09877083e-06 -1.1039464e-17 -0.05025760242)
(-7.059106567e-06 -9.581592999e-18 -0.05025398395)
(-9.033149088e-06 -1.02486845e-17 -0.05024910454)
(-1.101240108e-05 -1.176567027e-17 -0.05024289072)
(-1.300236321e-05 -1.389861968e-17 -0.05023522134)
(-1.500848701e-05 -1.335492393e-17 -0.05022592307)
(-1.70340818e-05 -1.377939729e-17 -0.05021475565)
(-1.908007642e-05 -1.559501023e-17 -0.05020139478)
(-2.114651997e-05 -1.559215443e-17 -0.05018541083)
(-2.323292208e-05 -1.573573965e-17 -0.05016624202)
(-2.533732789e-05 -1.534132564e-17 -0.05014316429)
(-2.745598675e-05 -1.607231037e-17 -0.05011525914)
(-2.958344585e-05 -1.796030195e-17 -0.05008138053)
(-3.171306727e-05 -1.97435179e-17 -0.05004012076)
(-3.383738172e-05 -2.032084514e-17 -0.04998977509)
(-1.145766408e-06 -2.213241251e-18 -0.05027406955)
(-2.992346123e-06 -3.282701859e-18 -0.05027299739)
(-4.745993007e-06 -1.824165914e-18 -0.05027064707)
(-6.576050559e-06 -4.583824549e-18 -0.05026708692)
(-8.422849473e-06 -9.476232561e-18 -0.05026228265)
(-1.027973207e-05 -1.18331044e-17 -0.05025615831)
(-1.215245751e-05 -1.394138676e-17 -0.05024859026)
(-1.404596609e-05 -1.259372252e-17 -0.05023940142)
(-1.596436438e-05 -1.132853629e-17 -0.05022834852)
(-1.790889859e-05 -1.528082397e-17 -0.05021510379)
(-1.987937664e-05 -1.715736647e-17 -0.05019923313)
(-2.187444445e-05 -1.764980999e-17 -0.05018017001)
(-2.389111843e-05 -1.675952188e-17 -0.05015718574)
(-2.592480503e-05 -1.593805578e-17 -0.05012935734)
(-2.796944282e-05 -1.670041507e-17 -0.050095534)
(-3.001778234e-05 -1.707559345e-17 -0.05005430272)
(-3.206195892e-05 -1.684243714e-17 -0.05000395265)
(-3.409156657e-05 -1.863699493e-17 -0.04994243849)
(-3.609293055e-05 -1.994085899e-17 -0.04986734078)
(-3.805122065e-05 -2.083086378e-17 -0.04977582195)
(-3.994844328e-05 -2.139605534e-17 -0.04966458272)
(-4.176234532e-05 -2.17695608e-17 -0.04952981807)
(-4.346841079e-05 -2.206220602e-17 -0.04936717185)
(-4.503847541e-05 -2.220758097e-17 -0.04917169652)
(-4.644153926e-05 -2.229798026e-17 -0.0489378158)
(-4.764494299e-05 -2.242468781e-17 -0.04865929398)
(-4.861427754e-05 -2.256937628e-17 -0.0483292135)
(-4.931591357e-05 -2.225665609e-17 -0.04793996002)
(-4.971695013e-05 -2.186437591e-17 -0.04748322047)
(-4.978685049e-05 -2.092764449e-17 -0.04694998965)
(-4.949912433e-05 -2.047839328e-17 -0.04633059149)
(-4.883217887e-05 -2.030641676e-17 -0.04561471213)
(-4.777141665e-05 -1.987063606e-17 -0.04479144214)
(-4.630945016e-05 -1.92269331e-17 -0.04384933457)
(-4.444717981e-05 -1.874445062e-17 -0.04277646942)
(-4.219515658e-05 -1.81107382e-17 -0.04156052736)
(-3.95744674e-05 -1.732237202e-17 -0.04018887814)
(-3.661630098e-05 -1.637442381e-17 -0.03864866976)
(-3.336241907e-05 -1.525318789e-17 -0.03692691824)
(-2.986532522e-05 -1.456105389e-17 -0.03501060485)
(-2.618810042e-05 -1.374874438e-17 -0.03288677326)
(-2.240410635e-05 -1.249078628e-17 -0.03054262413)
(-1.859659475e-05 -1.122133406e-17 -0.02796560666)
(-1.48582008e-05 -9.730344412e-18 -0.02514350423)
(-1.128991557e-05 -8.117587278e-18 -0.02206451045)
(-7.999267357e-06 -6.819812722e-18 -0.01871729362)
(-5.099261582e-06 -5.422792367e-18 -0.01509105107)
(-2.718892648e-06 -3.938447537e-18 -0.01117553865)
(-1.030894564e-06 -2.42096806e-18 -0.006961042734)
(-1.859399772e-07 -8.308756727e-19 -0.00243819606)
(-1.057162545e-06 -1.524824577e-17 -0.05028656534)
(-2.76145989e-06 -9.283622191e-18 -0.05028551362)
(-4.382882146e-06 -7.973910528e-18 -0.05028320599)
(-6.078313461e-06 -8.681202353e-18 -0.0502797078)
(-7.79311202e-06 -9.628183407e-18 -0.05027498367)
(-9.52284037e-06 -1.048584673e-17 -0.05026895448)
(-1.127414561e-05 -1.122956432e-17 -0.05026149455)
(-1.305131832e-05 -1.187848521e-17 -0.0502524227)
(-1.485811343e-05 -1.237842792e-17 -0.05024149196)
(-1.669638192e-05 -1.230263839e-17 -0.0502283706)
(-1.856576002e-05 -1.398140445e-17 -0.05021262002)
(-2.046439008e-05 -1.539814653e-17 -0.0501936688)
(-2.238867429e-05 -1.689209918e-17 -0.05017078313)
(-2.43333294e-05 -1.679551518e-17 -0.05014303496)
(-2.629166733e-05 -1.692164246e-17 -0.05010926841)
(-2.82562325e-05 -1.691260323e-17 -0.05006806506)
(-3.021811266e-05 -1.804109126e-17 -0.05001770845)
(-3.216558027e-05 -1.884161322e-17 -0.04995614727)
(-3.408516846e-05 -1.945595488e-17 -0.04988095367)
(-3.596245028e-05 -1.987107472e-17 -0.04978928053)
(-3.777935815e-05 -2.005121893e-17 -0.04967781853)
(-3.951454058e-05 -1.992890114e-17 -0.04954275083)
(-4.114455657e-05 -2.05108135e-17 -0.04937970915)
(-4.264236069e-05 -2.086003254e-17 -0.04918373436)
(-4.397917219e-05 -2.103430537e-17 -0.04894923915)
(-4.512414354e-05 -2.106816752e-17 -0.04866997867)
(-4.604509416e-05 -2.096598716e-17 -0.04833902774)
(-4.671057284e-05 -2.082271136e-17 -0.0479487679)
(-4.708975483e-05 -2.053224062e-17 -0.04749088579)
(-4.715464628e-05 -2.035454819e-17 -0.04695637985)
(-4.688051162e-05 -2.009181309e-17 -0.04633558241)
(-4.624720978e-05 -1.975581694e-17 -0.04561819214)
(-4.524145371e-05 -1.932912727e-17 -0.0447933183)
(-4.385649006e-05 -1.881368524e-17 -0.04384953738)
(-4.209329255e-05 -1.822228545e-17 -0.04277495677)
(-3.996208729e-05 -1.753879756e-17 -0.04155729007)
(-3.748261226e-05 -1.675468874e-17 -0.04018394509)
(-3.46841481e-05 -1.587070108e-17 -0.03864211149)
(-3.160595368e-05 -1.489426073e-17 -0.03691884949)
(-2.829739484e-05 -1.410202733e-17 -0.0350011884)
(-2.481782246e-05 -1.323518592e-17 -0.03287622275)
(-2.123634485e-05 -1.22582329e-17 -0.0305312063)
(-1.763157352e-05 -1.084991412e-17 -0.02795364304)
(-1.409106612e-05 -9.48728242e-18 -0.02513137256)
(-1.071037373e-05 -8.072652965e-18 -0.02205264481)
(-7.591309069e-06 -6.711642035e-18 -0.01870618399)
(-4.841104678e-06 -5.306937036e-18 -0.0150812441)
(-2.582410371e-06 -3.859543326e-18 -0.01116763802)
(-9.797926838e-07 -2.362850079e-18 -0.006955708863)
(-1.769094577e-07 -8.094333037e-19 -0.002436147342)
(-9.662074081e-07 -3.183714334e-18 -0.05029855748)
(-2.524717586e-06 -5.448871795e-18 -0.050297527)
(-4.010470022e-06 -7.109548189e-18 -0.05029526422)
(-5.567107824e-06 -9.625851896e-18 -0.05029183202)
(-7.146291093e-06 -8.005130226e-18 -0.05028719271)
(-8.745159853e-06 -8.060123365e-18 -0.05028126408)
(-1.037081592e-05 -7.933605932e-18 -0.05027391819)
(-1.20277933e-05 -1.058844764e-17 -0.05026497059)
(-1.371901012e-05 -1.278238861e-17 -0.05025416949)
(-1.544663776e-05 -1.222893363e-17 -0.05024117881)
(-1.721046256e-05 -1.159297108e-17 -0.05022555514)
(-1.900824723e-05 -1.242708395e-17 -0.05020672182)
(-2.083583605e-05 -1.445262697e-17 -0.05018393972)
(-2.268740978e-05 -1.584470259e-17 -0.05015627546)
(-2.455608263e-05 -1.702430697e-17 -0.05012256776)
(-2.643387269e-05 -1.830792174e-17 -0.05008139305)
(-2.831043112e-05 -2.008700569e-17 -0.05003103002)
(-3.017356544e-05 -1.970498648e-17 -0.04996942092)
(-3.201067494e-05 -1.965288242e-17 -0.0498941302)
(-3.38069921e-05 -1.973982398e-17 -0.0498023022)
(-3.55443027e-05 -1.98637352e-17 -0.04969061825)
(-3.720281372e-05 -1.998359179e-17 -0.04955525092)
(-3.875987592e-05 -2.012323156e-17 -0.04939182131)
(-4.018950516e-05 -2.020465682e-17 -0.04919535926)
(-4.146476726e-05 -2.018140206e-17 -0.04896026743)
(-4.255661746e-05 -2.00179535e-17 -0.04868029279)
(-4.343528216e-05 -1.968632714e-17 -0.04834850369)
(-4.407109221e-05 -1.963324053e-17 -0.04795727822)
(-4.443504771e-05 -1.941775804e-17 -0.0474983023)
(-4.450134919e-05 -1.942778387e-17 -0.04696257816)
(-4.424702095e-05 -1.927402758e-17 -0.04634044622)
(-4.365338049e-05 -1.90187028e-17 -0.04562161697)
(-4.270809189e-05 -1.866294274e-17 -0.0447952171)
(-4.140488175e-05 -1.82130223e-17 -0.04384984496)
(-3.974475365e-05 -1.767331672e-17 -0.04277363363)
(-3.773757297e-05 -1.70469354e-17 -0.04155432812)
(-3.540167102e-05 -1.633533526e-17 -0.04017937173)
(-3.276441881e-05 -1.554010195e-17 -0.03863599236)
(-2.986262114e-05 -1.466764874e-17 -0.03691129231)
(-2.674258216e-05 -1.372748675e-17 -0.03499234629)
(-2.346002752e-05 -1.270818323e-17 -0.03286629697)
(-2.007996885e-05 -1.159901523e-17 -0.03052044843)
(-1.667652236e-05 -1.027489977e-17 -0.02794235714)
(-1.333219655e-05 -8.962360712e-18 -0.0251199162)
(-1.013723774e-05 -7.558614863e-18 -0.02204142892)
(-7.187944927e-06 -6.067167772e-18 -0.01869567309)
(-4.585863037e-06 -4.861520291e-18 -0.01507195733)
(-2.447480859e-06 -3.58790055e-18 -0.0111601499)
(-9.292756957e-07 -2.204056903e-18 -0.006950649042)
(-1.679829795e-07 -7.56516384e-19 -0.002434201868)
(-8.737363933e-07 -1.409810961e-18 -0.05031003271)
(-2.28366473e-06 -1.807256898e-18 -0.0503090244)
(-3.62990757e-06 -3.655235272e-18 -0.05030680903)
(-5.043960423e-06 -5.355288326e-18 -0.05030344634)
(-6.484519216e-06 -6.389218428e-18 -0.05029889598)
(-7.949325563e-06 -7.448851968e-18 -0.05029307335)
(-9.445231772e-06 -8.844231554e-18 -0.05028584723)
(-1.097821379e-05 -1.015369976e-17 -0.05027703025)
(-1.255064353e-05 -1.125730125e-17 -0.0502663659)
(-1.416388149e-05 -1.201622939e-17 -0.05025351287)
(-1.581803082e-05 -1.282534327e-17 -0.05023802259)
(-1.751077388e-05 -1.350473002e-17 -0.05021931301)
(-1.923754435e-05 -1.431008943e-17 -0.05019663941)
(-2.099239521e-05 -1.512148012e-17 -0.05016906277)
(-2.276807169e-05 -1.593536844e-17 -0.0501354166)
(-2.455523825e-05 -1.669820796e-17 -0.05009427271)
(-2.63429624e-05 -1.733784581e-17 -0.05004390473)
(-2.811959021e-05 -1.782045275e-17 -0.04998224854)
(-2.987275869e-05 -1.829026731e-17 -0.04990686157)
(-3.158732582e-05 -1.870782783e-17 -0.04981488091)
(-3.324537805e-05 -1.905290063e-17 -0.04970297881)
(-3.482818996e-05 -1.931937833e-17 -0.04956731816)
(-3.63140104e-05 -1.951184809e-17 -0.04940351074)
(-3.767856716e-05 -1.962217525e-17 -0.04920657638)
(-3.889618902e-05 -1.964455168e-17 -0.04897090873)
(-3.993923181e-05 -1.957882432e-17 -0.04869024708)
(-4.078016775e-05 -1.943136307e-17 -0.04835765406)
(-4.139125918e-05 -1.922059075e-17 -0.04796550494)
(-4.174557623e-05 -1.891651821e-17 -0.04750548504)
(-4.181889527e-05 -1.849674959e-17 -0.04696860023)
(-4.158968416e-05 -1.843328931e-17 -0.04634519855)
(-4.104092607e-05 -1.82419226e-17 -0.04562500173)
(-4.016094905e-05 -1.79377179e-17 -0.04479715279)
(-3.894378033e-05 -1.753109233e-17 -0.04385027033)
(-3.739046992e-05 -1.703364269e-17 -0.04277251153)
(-3.55103219e-05 -1.646857855e-17 -0.04155165092)
(-3.332040489e-05 -1.582180336e-17 -0.04017516498)
(-3.084622198e-05 -1.508376352e-17 -0.03863031722)
(-2.812212488e-05 -1.423755635e-17 -0.03690424958)
(-2.519138846e-05 -1.329418533e-17 -0.03498407955)
(-2.210619538e-05 -1.225652793e-17 -0.03285699528)
(-1.892764186e-05 -1.112474905e-17 -0.03051034864)
(-1.572526977e-05 -9.897022889e-18 -0.027931746)
(-1.257665428e-05 -8.572516624e-18 -0.02510913104)
(-9.566764325e-06 -7.143568304e-18 -0.02203085787)
(-6.786512093e-06 -5.598292828e-18 -0.0186857562)
(-4.331853161e-06 -4.499075581e-18 -0.01506318691)
(-2.313199566e-06 -3.309555312e-18 -0.0111530712)
(-8.789965884e-07 -2.040593694e-18 -0.006945861175)
(-1.590973782e-07 -7.01810154e-19 -0.002432358844)
(-7.796615847e-07 2.780859235e-18 -0.05032098021)
(-2.038092539e-06 1.119690826e-17 -0.05031999557)
(-3.241928195e-06 9.337245791e-19 -0.05031783033)
(-4.510925302e-06 -2.973991948e-18 -0.05031454032)
(-5.809805405e-06 -4.679886982e-18 -0.05031008273)
(-7.137443662e-06 -5.334777036e-18 -0.05030437097)
(-8.500635291e-06 -9.582027292e-18 -0.05029726978)
(-9.905936372e-06 -1.007645955e-17 -0.05028858865)
(-1.135612828e-05 -1.072397215e-17 -0.05027806708)
(-1.285189485e-05 -1.129355041e-17 -0.05026535813)
(-1.439286308e-05 -1.443694138e-17 -0.05025000735)
(-1.597674972e-05 -1.388820135e-17 -0.05023142692)
(-1.759911326e-05 -1.395330407e-17 -0.05020886635)
(-1.925361208e-05 -1.431149195e-17 -0.0501813811)
(-2.093197639e-05 -1.482160973e-17 -0.05014779998)
(-2.262428836e-05 -1.51864297e-17 -0.05010669008)
(-2.431987459e-05 -1.500988204e-17 -0.05005631958)
(-2.600768335e-05 -1.55349988e-17 -0.04999461855)
(-2.767485636e-05 -1.675333646e-17 -0.04991913823)
(-2.930596512e-05 -1.759216847e-17 -0.04982700901)
(-3.088451846e-05 -1.818206769e-17 -0.04971489486)
(-3.239215748e-05 -1.859272845e-17 -0.04957894996)
(-3.380769799e-05 -1.886304459e-17 -0.04941477729)
(-3.510886289e-05 -1.901848321e-17 -0.04921738792)
(-3.627125794e-05 -1.90753731e-17 -0.04898116766)
(-3.726880944e-05 -1.904306232e-17 -0.0486998484)
(-3.807578646e-05 -1.892421444e-17 -0.04836648763)
(-3.866614594e-05 -1.871621671e-17 -0.04797345808)
(-3.901515929e-05 -1.840711611e-17 -0.04751244508)
(-3.909997208e-05 -1.796822587e-17 -0.04697445804)
(-3.890031356e-05 -1.78797878e-17 -0.04634985153)
(-3.840071081e-05 -1.765887201e-17 -0.04562835853)
(-3.759010465e-05 -1.731521007e-17 -0.04479913726)
(-3.646276967e-05 -1.683217271e-17 -0.04385082458)
(-3.501980111e-05 -1.615250131e-17 -0.04277160055)
(-3.326978571e-05 -1.581831266e-17 -0.04154926731)
(-3.122851099e-05 -1.536506796e-17 -0.04017133223)
(-2.891964355e-05 -1.487423524e-17 -0.03862509206)
(-2.637510857e-05 -1.390899974e-17 -0.0368977259)
(-2.363519899e-05 -1.291157032e-17 -0.03497639148)
(-2.074864442e-05 -1.184693142e-17 -0.03284831986)
(-1.77726195e-05 -1.069258189e-17 -0.03050090852)
(-1.477211145e-05 -9.531155919e-18 -0.02792181069)
(-1.18198156e-05 -8.254094435e-18 -0.02509901737)
(-8.995453772e-06 -6.863023732e-18 -0.02202093153)
(-6.384540268e-06 -5.36173149e-18 -0.01867643265)
(-4.077529928e-06 -4.313080366e-18 -0.01505493177)
(-2.178744143e-06 -3.173630185e-18 -0.01114640104)
(-8.286426252e-07 -1.955636666e-18 -0.006941344745)
(-1.50196157e-07 -6.710145119e-19 -0.002430618106)
(-6.837936499e-07 -1.768788525e-18 -0.05033139219)
(-1.788057012e-06 -4.141801467e-18 -0.05033043223)
(-2.847479566e-06 -7.738726585e-18 -0.05032831897)
(-3.969761293e-06 -5.881150423e-18 -0.05032510427)
(-5.124650947e-06 -5.943321352e-18 -0.05032074311)
(-6.312680987e-06 -6.940345665e-18 -0.05031514636)
(-7.540767341e-06 -8.02896329e-18 -0.05030817499)
(-8.814971541e-06 -9.016525094e-18 -0.05029963451)
(-1.01391406e-05 -9.67960059e-18 -0.05028926041)
(-1.151405298e-05 -9.517917556e-18 -0.0502767006)
(-1.293872384e-05 -1.090885239e-17 -0.05026149451)
(-1.441047537e-05 -1.186913702e-17 -0.05024304805)
(-1.592466543e-05 -1.266035769e-17 -0.0502206049)
(-1.747437844e-05 -1.356893499e-17 -0.0501932154)
(-1.905089152e-05 -1.473628554e-17 -0.05015970337)
(-2.064446177e-05 -1.614376396e-17 -0.05011863089)
(-2.224479335e-05 -1.643758729e-17 -0.05006826101)
(-2.384096685e-05 -1.684701913e-17 -0.05000651854)
(-2.541957933e-05 -1.7251707e-17 -0.04993094956)
(-2.696541342e-05 -1.764323986e-17 -0.04983867765)
(-2.846328157e-05 -1.79977261e-17 -0.0497263594)
(-2.989523514e-05 -1.828646549e-17 -0.04959014158)
(-3.12409209e-05 -1.845172382e-17 -0.04942561873)
(-3.247954132e-05 -1.85385515e-17 -0.0492277939)
(-3.358803794e-05 -1.856560072e-17 -0.04899104591)
(-3.454237566e-05 -1.8542474e-17 -0.04870910023)
(-3.531820078e-05 -1.847946431e-17 -0.04837500982)
(-3.589089858e-05 -1.839865163e-17 -0.04798114476)
(-3.623775708e-05 -1.833035447e-17 -0.04751919074)
(-3.633744557e-05 -1.833037656e-17 -0.04698016064)
(-3.617099675e-05 -1.810307078e-17 -0.04635441501)
(-3.572404815e-05 -1.765922771e-17 -0.04563169734)
(-3.498622377e-05 -1.730902305e-17 -0.04480118002)
(-3.395209324e-05 -1.707733542e-17 -0.04385151688)
(-3.262279537e-05 -1.642325255e-17 -0.0427709095)
(-3.100601798e-05 -1.561581967e-17 -0.04154718565)
(-2.911621246e-05 -1.48021117e-17 -0.04016788111)
(-2.697524388e-05 -1.393139755e-17 -0.03862032377)
(-2.461264147e-05 -1.325669108e-17 -0.03689172752)
(-2.206576508e-05 -1.249871147e-17 -0.03496928781)
(-1.938000408e-05 -1.167636126e-17 -0.03284027616)
(-1.660843461e-05 -1.080861252e-17 -0.03049213288)
(-1.381158506e-05 -9.527071549e-18 -0.02791255511)
(-1.105722129e-05 -8.166848232e-18 -0.02508957868)
(-8.419847525e-06 -6.707972226e-18 -0.02201165304)
(-5.979569907e-06 -5.589877864e-18 -0.01866770523)
(-3.821318566e-06 -4.42836852e-18 -0.01504719425)
(-2.043292292e-06 -3.20822497e-18 -0.01114014128)
(-7.779146614e-07 -1.923137061e-18 -0.006937100975)
(-1.412290488e-07 -5.695265356e-19 -0.002428980113)
(-5.86816625e-07 6.415226069e-18 -0.050341262)
(-1.535193443e-06 -1.292390176e-17 -0.0503403273)
(-2.448862529e-06 -7.400558948e-18 -0.05033826739)
(-3.42264235e-06 -5.621352932e-18 -0.05033513)
(-4.431370366e-06 -4.428499293e-18 -0.05033086859)
(-5.477465763e-06 -7.804192875e-18 -0.05032539054)
(-6.568252951e-06 -6.33613693e-18 -0.05031855366)
(-7.709086463e-06 -7.760980698e-18 -0.05031015849)
(-8.904122303e-06 -8.335386686e-18 -0.05029993611)
(-1.015454045e-05 -1.094892325e-17 -0.0502875294)
(-1.145927734e-05 -8.782591862e-18 -0.05027247199)
(-1.281513596e-05 -1.039622344e-17 -0.05025416364)
(-1.421687618e-05 -1.129821205e-17 -0.05023184213)
(-1.565740992e-05 -1.376280862e-17 -0.05020455238)
(-1.712812996e-05 -1.500140196e-17 -0.05017111311)
(-1.861939549e-05 -1.675560454e-17 -0.05013008152)
(-2.012133789e-05 -1.77067065e-17 -0.05007971583)
(-2.162256422e-05 -1.803096585e-17 -0.05001793641)
(-2.310941318e-05 -1.76527463e-17 -0.04994228443)
(-2.456799219e-05 -1.763621536e-17 -0.0498498772)
(-2.59834738e-05 -1.787592061e-17 -0.04973736456)
(-2.733828589e-05 -1.837555257e-17 -0.04960088663)
(-2.861380786e-05 -1.811089344e-17 -0.04943603038)
(-2.979020285e-05 -1.797511606e-17 -0.04923779174)
(-3.084546031e-05 -1.788879241e-17 -0.04900054284)
(-3.175757632e-05 -1.78097997e-17 -0.04871800358)
(-3.250372137e-05 -1.771455437e-17 -0.04838322315)
(-3.306089641e-05 -1.75966677e-17 -0.04798856901)
(-3.340798091e-05 -1.747320626e-17 -0.04752572725)
(-3.352505806e-05 -1.738610143e-17 -0.04698571408)
(-3.339469943e-05 -1.683821303e-17 -0.04635889572)
(-3.300338656e-05 -1.645199819e-17 -0.04563502541)
(-3.23412787e-05 -1.604990765e-17 -0.04480328859)
(-3.140329676e-05 -1.56248569e-17 -0.04385235482)
(-3.019054253e-05 -1.540609909e-17 -0.04277044609)
(-2.870985488e-05 -1.46615593e-17 -0.04154541378)
(-2.697436078e-05 -1.3892785e-17 -0.04016481936)
(-2.500411396e-05 -1.304405134e-17 -0.03861602)
(-2.28262616e-05 -1.259013949e-17 -0.03688626203)
(-2.047526155e-05 -1.183152311e-17 -0.03496277612)
(-1.799311311e-05 -1.101853548e-17 -0.032832872)
(-1.542879324e-05 -1.017523716e-17 -0.03048402973)
(-1.283832489e-05 -9.176694258e-18 -0.02790398703)
(-1.028451307e-05 -8.049628922e-18 -0.02508082239)
(-7.836593827e-06 -6.918846606e-18 -0.02200302937)
(-5.569201931e-06 -5.717150176e-18 -0.01865958022)
(-3.561685683e-06 -4.502166847e-18 -0.01503997976)
(-1.906026259e-06 -3.26366579e-18 -0.01113429621)
(-7.265074072e-07 -1.992169152e-18 -0.006933132716)
(-1.321423893e-07 -6.80157358e-19 -0.00242744594)
(-4.890929375e-07 -3.692749213e-18 -0.05035058445)
(-1.280514808e-06 -7.496549243e-18 -0.05034967557)
(-2.047785877e-06 -8.469898513e-18 -0.05034767013)
(-2.871481076e-06 -8.047431707e-18 -0.05034461226)
(-3.7321789e-06 -8.435875302e-18 -0.05034045337)
(-4.634321756e-06 -8.823422709e-18 -0.05033509699)
(-5.58590146e-06 -8.808429355e-18 -0.05032839804)
(-6.591595285e-06 -8.906599244e-18 -0.05032015224)
(-7.654910819e-06 -9.121501672e-18 -0.05031008547)
(-8.777672538e-06 -9.945186774e-18 -0.0502978354)
(-9.958749403e-06 -1.058893345e-17 -0.05028292995)
(-1.119466257e-05 -1.146850789e-17 -0.0502647629)
(-1.247993454e-05 -1.235928289e-17 -0.05024256616)
(-1.380735285e-05 -1.312764951e-17 -0.05021537916)
(-1.51683555e-05 -1.353492797e-17 -0.05018201566)
(-1.655380822e-05 -1.357714651e-17 -0.05014102814)
(-1.795374093e-05 -1.44738546e-17 -0.05009067056)
(-1.935611779e-05 -1.512969117e-17 -0.05002885947)
(-2.074786834e-05 -1.556017215e-17 -0.0499531309)
(-2.211643192e-05 -1.587435556e-17 -0.04986059658)
(-2.344720924e-05 -1.611531969e-17 -0.04974790079)
(-2.47230352e-05 -1.62956672e-17 -0.04961117701)
(-2.592697317e-05 -1.647700291e-17 -0.04944600555)
(-2.70402449e-05 -1.660065099e-17 -0.04924737631)
(-2.804215336e-05 -1.666557867e-17 -0.04900965508)
(-2.891226505e-05 -1.666429935e-17 -0.04872655671)
(-2.962923813e-05 -1.657559998e-17 -0.04839112701)
(-3.017209108e-05 -1.634502202e-17 -0.04799573136)
(-3.052094458e-05 -1.595709012e-17 -0.04753205633)
(-3.065707922e-05 -1.535013012e-17 -0.04699112096)
(-3.056479392e-05 -1.501197854e-17 -0.04636329719)
(-3.023130713e-05 -1.481138547e-17 -0.0456383473)
(-2.96472349e-05 -1.44289713e-17 -0.04480546832)
(-2.880788878e-05 -1.383961586e-17 -0.04385334457)
(-2.771419651e-05 -1.359525927e-17 -0.04277021691)
(-2.637226166e-05 -1.316294547e-17 -0.0415439585)
(-2.479392816e-05 -1.259504911e-17 -0.04016215442)
(-2.299741115e-05 -1.191643906e-17 -0.0386121889)
(-2.10074907e-05 -1.114082978e-17 -0.03688133833)
(-1.885584177e-05 -1.055659787e-17 -0.03495686615)
(-1.658083528e-05 -9.876274183e-18 -0.0328261175)
(-1.422739431e-05 -8.928976495e-18 -0.03047660925)
(-1.184694199e-05 -7.860462323e-18 -0.02789611693)
(-9.497276091e-06 -6.852383236e-18 -0.02507275907)
(-7.242271675e-06 -5.698597634e-18 -0.02199507078)
(-5.150976093e-06 -4.695625599e-18 -0.01865206713)
(-3.297056127e-06 -3.794298788e-18 -0.01503329668)
(-1.766106576e-06 -2.798333924e-18 -0.01112887253)
(-6.741093103e-07 -1.727303185e-18 -0.006929444408)
(-1.22882875e-07 -5.939789482e-19 -0.00242601723)
(-3.911648525e-07 -1.537723986e-17 -0.05035935555)
(-1.02551401e-06 -9.80015906e-18 -0.05035847273)
(-1.645537911e-06 -8.267079692e-18 -0.05035652279)
(-2.317686779e-06 -6.947559745e-18 -0.05035354652)
(-3.029603552e-06 -1.175967907e-17 -0.05034949224)
(-3.786707475e-06 -1.097858749e-17 -0.05034425996)
(-4.596970689e-06 -1.075037328e-17 -0.05033770128)
(-5.465589629e-06 -1.037899862e-17 -0.05032960795)
(-6.395107674e-06 -1.029684141e-17 -0.05031969991)
(-7.387303277e-06 -1.08992953e-17 -0.05030760919)
(-8.441381931e-06 -1.148399511e-17 -0.05029285809)
(-9.553726545e-06 -1.220229672e-17 -0.05027483449)
(-1.071866058e-05 -1.309621619e-17 -0.05025276461)
(-1.192893465e-05 -1.210313066e-17 -0.05022568257)
(-1.317637859e-05 -1.215119486e-17 -0.05019239716)
(-1.445215681e-05 -1.149856745e-17 -0.05015145662)
(-1.574563936e-05 -1.138917074e-17 -0.05010111147)
(-1.704486901e-05 -1.288330994e-17 -0.05003927423)
(-1.833813566e-05 -1.374162969e-17 -0.0499634761)
(-1.961330503e-05 -1.421681253e-17 -0.04987082384)
(-2.085605247e-05 -1.43945718e-17 -0.04975795696)
(-2.205059826e-05 -1.425074666e-17 -0.04962100286)
(-2.318092852e-05 -1.481336156e-17 -0.04945553578)
(-2.42292252e-05 -1.517454489e-17 -0.04925654021)
(-2.517677967e-05 -1.541907134e-17 -0.04901837641)
(-2.600436715e-05 -1.562240893e-17 -0.04873475483)
(-2.669190033e-05 -1.588494777e-17 -0.0483987179)
(-2.722045385e-05 -1.551189768e-17 -0.04800262954)
(-2.757150295e-05 -1.51697992e-17 -0.047538177)
(-2.77275589e-05 -1.434353201e-17 -0.04699638146)
(-2.767437092e-05 -1.417479271e-17 -0.04636762059)
(-2.74000005e-05 -1.391513343e-17 -0.04564166507)
(-2.689561612e-05 -1.357901162e-17 -0.0448077222)
(-2.615702878e-05 -1.31761849e-17 -0.04385449011)
(-2.518477814e-05 -1.272516847e-17 -0.04277022702)
(-2.398417185e-05 -1.220528336e-17 -0.04154282593)
(-2.256585523e-05 -1.1606345e-17 -0.04015989354)
(-2.094625328e-05 -1.092127051e-17 -0.03860883888)
(-1.914780632e-05 -1.014206429e-17 -0.03687696604)
(-1.719938613e-05 -9.517327815e-18 -0.03495156911)
(-1.513570294e-05 -8.785711989e-18 -0.03282002546)
(-1.299755838e-05 -8.082567714e-18 -0.03046988509)
(-1.083169589e-05 -7.281210595e-18 -0.02788895904)
(-8.690796759e-06 -6.519143829e-18 -0.02506540315)
(-6.633233728e-06 -5.706564687e-18 -0.02198779143)
(-4.722295524e-06 -4.736013415e-18 -0.01864517926)
(-3.025764685e-06 -3.751899447e-18 -0.01502715681)
(-1.62265323e-06 -2.735331292e-18 -0.01112387981)
(-6.203829558e-07 -1.677710869e-18 -0.006926042435)
(-1.133874665e-07 -5.753090689e-19 -0.002424696393)
(-2.935978774e-07 -2.456498027e-18 -0.05036757289)
(-7.710458505e-07 -3.119322844e-18 -0.05036671659)
(-1.243015141e-06 -1.436081338e-18 -0.05036482358)
(-1.763000866e-06 -5.594437121e-18 -0.05036193024)
(-2.325695614e-06 -7.645624411e-18 -0.05035798178)
(-2.936913519e-06 -8.575843256e-18 -0.05035287552)
(-3.604150861e-06 -9.262204449e-18 -0.05034645866)
(-4.33370201e-06 -1.003412818e-17 -0.05033851923)
(-5.1277902e-06 -1.101568919e-17 -0.05032877186)
(-5.987142434e-06 -1.231080042e-17 -0.05031684227)
(-6.911081774e-06 -1.196016985e-17 -0.05030224682)
(-7.896281807e-06 -1.206368051e-17 -0.05028436776)
(-8.937024914e-06 -1.233139947e-17 -0.05026242577)
(-1.002637279e-05 -1.253178723e-17 -0.05023544975)
(-1.115642827e-05 -1.275570817e-17 -0.05020224403)
(-1.231782851e-05 -1.30128782e-17 -0.05016135332)
(-1.349991936e-05 -1.332593944e-17 -0.05011102476)
(-1.469171421e-05 -1.356652654e-17 -0.05004916673)
(-1.58826186e-05 -1.376535572e-17 -0.04997330619)
(-1.706057383e-05 -1.390912982e-17 -0.04988054585)
(-1.821158719e-05 -1.399986237e-17 -0.0497675205)
(-1.932174901e-05 -1.405594756e-17 -0.0496303523)
(-2.037577278e-05 -1.413221609e-17 -0.04946461037)
(-2.135667862e-05 -1.417779849e-17 -0.04926527386)
(-2.224775466e-05 -1.416993374e-17 -0.04902669835)
(-2.303112825e-05 -1.409717541e-17 -0.04874259066)
(-2.368811034e-05 -1.395256254e-17 -0.04840598994)
(-2.420146532e-05 -1.384311049e-17 -0.04800925886)
(-2.455416061e-05 -1.368459321e-17 -0.04754408549)
(-2.473016521e-05 -1.365151862e-17 -0.04700149308)
(-2.471638108e-05 -1.331520304e-17 -0.04637186451)
(-2.450174956e-05 -1.298597446e-17 -0.04564497814)
(-2.407810548e-05 -1.263868514e-17 -0.04481005067)
(-2.344174645e-05 -1.225727742e-17 -0.04385579339)
(-2.259281632e-05 -1.1832757e-17 -0.04277048018)
(-2.153584376e-05 -1.135935534e-17 -0.04154202132)
(-2.028031175e-05 -1.083504245e-17 -0.04015804362)
(-1.884091514e-05 -1.026208102e-17 -0.03860597878)
(-1.723788229e-05 -9.647037175e-18 -0.03687315612)
(-1.549703665e-05 -9.002215152e-18 -0.03494689759)
(-1.364950465e-05 -8.326129078e-18 -0.03281460983)
(-1.173187709e-05 -7.623143195e-18 -0.03046387288)
(-9.786141992e-06 -6.890702779e-18 -0.02788253033)
(-7.859718874e-06 -6.131756692e-18 -0.02505877239)
(-6.005282109e-06 -5.349580664e-18 -0.0219812091)
(-4.28012341e-06 -4.454687027e-18 -0.01863893351)
(-2.745848017e-06 -3.533127414e-18 -0.01502157499)
(-1.474619304e-06 -2.576132645e-18 -0.01111932975)
(-5.649343847e-07 -1.579738066e-18 -0.006922934561)
(-1.035881526e-07 -5.417074787e-19 -0.002423486312)
(-1.962259894e-07 -2.262466205e-18 -0.05037523781)
(-5.167695673e-07 -4.007403439e-18 -0.05037440857)
(-8.408192445e-07 -5.574009017e-18 -0.05037257315)
(-1.209405098e-06 -8.551989118e-18 -0.05036976326)
(-1.62258655e-06 -6.751696175e-18 -0.05036592117)
(-2.087295427e-06 -6.80786619e-18 -0.0503609416)
(-2.610819082e-06 -7.406350262e-18 -0.05035466703)
(-3.19923961e-06 -8.757430619e-18 -0.05034688134)
(-3.855575392e-06 -1.038578294e-17 -0.05033729454)
(-4.580109517e-06 -9.348374998e-18 -0.05032552629)
(-5.371396107e-06 -1.036313516e-17 -0.05031108657)
(-6.226189553e-06 -1.11627923e-17 -0.05029335185)
(-7.139263942e-06 -1.200891111e-17 -0.05027153746)
(-8.103827005e-06 -1.3175005e-17 -0.05024466757)
(-9.111668658e-06 -1.321967112e-17 -0.05021154277)
(-1.015345629e-05 -1.37506206e-17 -0.05017070441)
(-1.121930677e-05 -1.485548045e-17 -0.05012039602)
(-1.22993236e-05 -1.406567291e-17 -0.0500585223)
(-1.338334798e-05 -1.368689078e-17 -0.0499826066)
(-1.445943147e-05 -1.349340094e-17 -0.04988974832)
(-1.551464983e-05 -1.338225337e-17 -0.0497765777)
(-1.653643627e-05 -1.330213584e-17 -0.04963921222)
(-1.751041096e-05 -1.322201922e-17 -0.0494732168)
(-1.842094605e-05 -1.311144193e-17 -0.04927356568)
(-1.925271854e-05 -1.29370398e-17 -0.04903461027)
(-1.99892215e-05 -1.265262553e-17 -0.04875005427)
(-2.061378638e-05 -1.217501757e-17 -0.04841293407)
(-2.111043575e-05 -1.221995933e-17 -0.04801561134)
(-2.146339249e-05 -1.211095764e-17 -0.04754977484)
(-2.165852029e-05 -1.236227711e-17 -0.04700644996)
(-2.168372326e-05 -1.211075213e-17 -0.04637602445)
(-2.152872992e-05 -1.184964792e-17 -0.0456482835)
(-2.118619631e-05 -1.155837321e-17 -0.04481245246)
(-2.065277319e-05 -1.12294708e-17 -0.04385725463)
(-1.992843117e-05 -1.085893793e-17 -0.04277097807)
(-1.90170386e-05 -1.044424522e-17 -0.04154154849)
(-1.792691081e-05 -9.984102822e-18 -0.04015661081)
(-1.667104791e-05 -9.478648082e-18 -0.03860361723)
(-1.526752803e-05 -8.928720712e-18 -0.03686992018)
(-1.373907287e-05 -8.334999708e-18 -0.03494286634)
(-1.211318395e-05 -7.698364682e-18 -0.03280988786)
(-1.042216654e-05 -7.01883115e-18 -0.03045859215)
(-8.703134988e-06 -6.295987403e-18 -0.02787685221)
(-6.998064902e-06 -5.527873647e-18 -0.02505288943)
(-5.353682524e-06 -4.71171892e-18 -0.02197534678)
(-3.820974459e-06 -3.844176809e-18 -0.01863335206)
(-2.455018837e-06 -3.063766161e-18 -0.01501657121)
(-1.320743953e-06 -2.240894584e-18 -0.01111523868)
(-5.072709266e-07 -1.376731986e-18 -0.006920131911)
(-9.338912138e-08 -4.724148352e-19 -0.002422391295)
(-9.91674752e-08 -1.947288363e-18 -0.0503823535)
(-2.63562138e-07 -3.171083398e-18 -0.05038155127)
(-4.406536158e-07 -4.091182662e-18 -0.05037977301)
(-6.586539379e-07 -5.010739769e-18 -0.05037704594)
(-9.225265621e-07 -5.440391565e-18 -0.05037331003)
(-1.240520129e-06 -6.003576403e-18 -0.05036845653)
(-1.619762638e-06 -6.723090227e-18 -0.05036232384)
(-2.06553554e-06 -7.563343719e-18 -0.05035469076)
(-2.581698408e-06 -8.341336853e-18 -0.05034526251)
(-3.16874112e-06 -8.834757045e-18 -0.05033365347)
(-3.824735374e-06 -9.392644264e-18 -0.05031936763)