/*--------------------------------*- C++ -*----------------------------------*\
  =========                 |
  \\      /  F ield         | OpenFOAM: The Open Source CFD Toolbox
   \\    /   O peration     | Website:  https://openfoam.org
    \\  /    A nd           | Version:  7
     \\/     M anipulation  |
\*---------------------------------------------------------------------------*/
FoamFile
{
    version     2.0;
    format      ascii;
    class       volScalarField;
    location    "0.0012";
    object      generalizedNewtonian:nu;
}
// * * * * * * * * * * * * * * * * * * * * * * * * * * * * * * * * * * * * * //

dimensions      [0 2 -1 0 0 0 0];

internalField   nonuniform List<scalar> 
14000
(
28076.64183
27714.68234
27470.84798
26796.28693
26025.28859
25177.98216
24279.39434
23361.04217
22447.83716
21557.22187
20701.0208
19886.79929
19118.90415
18399.32644
17728.38819
17105.24507
16528.26337
15995.492
15504.9481
15054.46445
14641.6021
14263.84398
13918.89058
13604.5231
13318.30531
13057.75111
12820.26916
12603.00823
12402.86403
12216.31126
12039.47505
11868.13763
11697.5337
11522.4415
11337.43576
11137.02463
10915.85173
10669.09322
10392.86725
10084.60316
9743.512377
9370.917327
8970.275533
8546.895594
8107.559386
7661.05735
7216.855962
6771.21484
6305.774654
5963.923989
13606.9609
13518.68008
13589.54934
13530.96374
13480.16752
13427.99439
13369.99632
13308.17691
13244.88635
13182.03002
13121.28418
13064.1271
13011.80695
12965.26554
12925.29934
12892.64244
12867.60685
12850.11353
12839.91813
12836.39256
12838.45772
12844.6226
12852.86175
12860.66892
12865.10279
12862.7221
12849.73316
12822.2134
12776.34257
12708.69855
12616.6804
12498.95382
12355.70227
12188.78576
12001.85931
11800.169
11590.06076
11378.53158
11172.78662
10979.75065
10805.5979
10655.7225
10534.90436
10447.45377
10397.42278
10388.54108
10425.59635
10519.11861
10679.76213
10870.76629
11610.59955
11562.84778
11660.94254
11671.17713
11702.63555
11746.62994
11797.80213
11856.02578
11921.59947
11994.37185
12073.95457
12159.94771
12251.92141
12349.18335
12450.79797
12555.63276
12662.28695
12769.03672
12873.76815
12974.12041
13067.65246
13151.8301
13224.1305
13282.30579
13324.62634
13350.0678
13358.44335
13350.47714
13327.96481
13293.62163
13250.80742
13203.47526
13155.84216
13112.0402
13076.043
13051.52453
13041.90669
13050.19601
13078.92295
13130.52322
13207.31607
13311.37893
13444.30932
13607.23765
13800.73411
14024.08027
14275.74858
14556.8154
14867.90553
15137.24626
12072.43538
12030.68179
12130.07057
12158.22917
12212.12634
12282.60719
12364.19688
12456.01827
12557.57398
12667.87072
12785.66166
12909.66718
13038.53128
13170.75458
13304.63356
13438.34713
13570.05421
13697.9019
13820.12896
13935.15288
14041.66957
14138.794
14226.11542
14303.70771
14372.23237
14432.8396
14486.97429
14536.51251
14583.68723
14630.75663
14679.96795
14733.67706
14794.25528
14863.71497
14943.90606
15036.68699
15143.5473
15265.70641
15404.12311
15559.35827
15731.50898
15920.10885
16124.2194
16342.38027
16572.30246
16810.82528
17055.0689
17304.83813
17560.93448
17760.76691
13291.1891
13261.90598
13356.94143
13390.40554
13448.0871
13521.86904
13606.80381
13701.70151
13805.47156
13916.74128
14034.17099
14156.27006
14281.46844
14408.31309
14535.31359
14661.06848
14784.40886
14904.32899
15020.05426
15131.08213
15237.23819
15338.69665
15435.87236
15529.3891
15620.12746
15709.15787
15797.64362
15886.8675
15978.09923
16072.48588
16171.22076
16275.39778
16385.88088
16503.46762
16628.65878
16761.79133
16903.05371
17052.27576
17209.04958
17372.77235
17542.61238
17717.36431
17895.49025
18075.41491
18255.69137
18434.28993
18606.78097
18768.1639
18919.83569
19032.13475
14686.91326
14662.83029
14740.1047
14771.95476
14824.74775
14891.13514
14967.01232
15051.10977
15142.24297
15239.056
15340.32497
15444.76681
15551.1011
15658.3145
15765.52624
15871.90574
15976.84246
16079.95056
16180.98858
16279.92531
16376.93082
16472.27099
16566.30305
16659.52061
16752.4416
16845.63379
16939.75208
17035.31242
17132.76343
17232.52881
17334.94992
17440.18726
17548.27201
17659.25454
17772.86585
17888.67662
18006.34505
18125.19124
18244.26915
18362.75906
18479.71756
18593.75645
18703.34841
18807.76339
18908.55477
19007.03485
19065.32238
18932.33864
18238.49322
17316.64741
15880.28413
15867.23773
15925.39722
15951.67815
15993.22561
16044.81641
16103.53074
16168.17532
16237.82026
16311.44335
16388.0055
16466.65709
16546.5919
16627.07955
16707.5875
16787.70018
16867.08969
16945.55865
17023.02485
17099.50248
17175.06929
17249.81092
17323.89528
17397.56491
17470.98068
17544.27137
17617.58084
17690.98368
17764.45807
17837.94134
17911.23069
17984.06641
18056.11344
18126.84458
18195.73779
18262.15499
18325.2749
18384.28044
18438.2698
18486.2167
18527.20597
18560.71184
18584.39865
18594.28006
18590.31671
18505.30398
18053.70747
17200.58871
16190.81182
15443.90506
16777.10862
16768.55995
16807.82601
16828.24762
16859.88797
16898.87068
16943.14634
16991.83884
17044.21389
17099.55462
17157.10568
17216.20717
17276.3627
17337.10316
17398.0326
17458.85591
17519.36107
17579.39945
17638.87043
17697.7151
17755.90415
17813.43231
17870.31887
17926.54916
17982.09054
18036.88812
18090.81407
18143.71009
18195.34128
18245.42713
18293.59347
18339.41412
18382.3919
18421.91735
18457.37093
18488.05431
18513.20676
18532.13625
18544.41925
18549.1736
18540.34456
18514.80656
18515.53332
18498.62241
18127.62328
17333.90909
16463.72481
16065.73671
16386.73612
16857.58489
17286.53737
17283.34533
17311.57142
17328.22796
17352.98733
17383.37171
17417.99745
17456.28761
17497.6754
17541.60372
17587.60846
17635.23026
17684.06601
17733.78907
17784.12345
17834.83556
17885.72554
17936.63921
17987.46045
18038.08408
18088.40681
18138.34664
18187.79973
18236.63753
18284.71774
18331.85942
18377.85095
18422.43036
18465.29775
18506.0986
18544.43768
18579.87321
18611.91933
18640.06018
18663.74667
18682.57672
18696.51387
18704.36146
18697.61017
18675.31716
18705.78473
18738.42227
18379.78084
17568.25978
16763.52856
16515.63139
16858.03194
17377.75512
17842.54634
18169.00155
17557.29611
17555.1655
17575.62885
17589.18616
17609.12974
17633.58183
17661.53101
17692.53254
17726.20318
17762.13206
17799.91892
17839.23001
17879.75561
17921.20752
17963.34093
18005.94867
18048.8419
18091.83829
18134.76799
18177.48454
18219.84079
18261.6776
18302.82957
18343.11959
18382.36245
18420.34199
18456.83934
18491.59877
18524.36497
18554.85274
18582.77353
18607.81245
18629.68188
18648.30848
18664.05097
18675.40298
18672.17099
18656.65898
18713.59266
18780.07745
18424.42392
17594.53337
16811.6552
16629.67393
16985.45784
17464.38218
17879.55372
18241.60687
18619.09185
18843.78054
17655.77644
17654.59698
17670.64892
17681.16978
17696.49657
17715.26187
17736.75175
17760.56633
17786.37185
17813.87204
17842.74675
17872.67744
17903.38887
17934.62935
17966.16422
17997.76949
18029.23229
18060.36086
18090.9758
18120.89465
18149.94453
18177.96044
18204.7766
18230.22697
18254.15117
18276.39384
18296.80515
18315.24553
18331.58097
18345.67815
18357.43564
18367.08379
18375.27429
18380.28414
18370.73695
18351.42625
18418.52942
18505.08617
18170.13287
17365.06121
16614.96691
16455.71389
16786.91747
17214.6757
17586.97721
17917.97135
18265.48161
18500.43127
17663.00443
16012.80201
17673.89566
17671.95027
17684.64867
17692.10261
17703.2994
17717.03871
17732.68268
17749.94538
17768.55655
17788.20249
17808.61554
17829.56079
17850.8039
17872.10702
17893.23803
17913.98184
17934.15427
17953.59617
17972.14773
17989.64148
18005.94097
18020.92432
18034.45406
18046.44323
18056.81578
18065.49483
18072.41545
18077.5113
18080.76917
18082.53263
18083.60517
18082.10003
18065.87876
18040.423
18107.5981
18202.90595
17889.77188
17117.56874
16402.09007
16260.52554
16572.72737
16963.44963
17302.96137
17607.00344
17932.26637
18151.92422
17315.87584
15664.67901
14168.09697
12911.12867
17615.85692
17613.44324
17624.44417
17629.45619
17637.44972
17647.33264
17658.51847
17670.76792
17683.9075
17697.73148
17711.99532
17726.49123
17741.02541
17755.41249
17769.47908
17783.07472
17796.08582
17808.38047
17819.78182
17830.18396
17839.54612
17847.75195
17854.72292
17860.43702
17864.81487
17867.80564
17869.40165
17869.93853
17870.23408
17868.32754
17851.77455
17825.32775
17891.35889
17993.18948
17703.60013
16960.47965
16273.65242
16151.63204
16460.00256
16834.66964
17160.57001
17453.5042
17768.02388
17988.13916
17177.16049
15538.14261
14053.68412
12790.05713
11679.80069
10707.73544
17532.4102
17528.90495
17539.09973
17542.53353
17548.62589
17556.25102
17564.91002
17574.40396
17584.55355
17595.23225
17606.30169
17617.58376
17628.91377
17640.15808
17651.21125
17661.97737
17672.33469
17682.12309
17691.24371
17699.68898
17707.37688
17714.18991
17720.09917
17725.01464
17728.86221
17731.98695
17735.17372
17736.48276
17723.43473
17699.38203
17763.95919
17873.21523
17612.47372
16897.17351
16229.86622
16119.81879
16428.73414
16798.19354
17119.76026
17408.26218
17715.45734
17958.80271
17246.03005
15626.47913
14129.33045
12858.21722
11746.3807
10761.20485
9885.498742
9115.183304
17435.13778
17431.00173
17441.47766
17444.01059
17449.0815
17455.54917
17462.92733
17471.06928
17479.82944
17489.07998
17498.72665
17508.64297
17518.70604
17528.80279
17538.82433
17548.66634
17558.22582
17567.39182
17576.08198
17584.24261
17591.77963
17598.56157
17604.51593
17609.95111
17615.62331
17619.68939
17609.80841
17587.59439
17647.96063
17764.10992
17540.437
16861.71277
16210.32345
16097.80556
16399.14143
16762.6967
17078.55936
17359.27092
17653.67792
17924.07047
17373.69165
15799.75514
14278.30039
12989.39279
11864.68498
10868.12323
9982.656785
9196.603189
8497.883969
7879.257829
17358.48643
17353.41521
17364.3272
17366.16121
17370.58801
17376.37604
17382.97991
17390.2672
17398.14608
17406.51086
17415.2643
17424.29338
17433.48349
17442.72707
17451.9189
17460.95267
17469.72825
17478.16653
17486.16126
17493.55641
17500.29541
17506.66956
17513.35746
17518.68509
17510.45065
17488.37434
17541.54109
17660.80049
17474.6118
16837.39753
16199.19106
16070.41265
16355.00509
16711.43472
17021.32487
17292.00848
17568.48511
17855.52579
17504.57031
16021.24301
14469.17951
13154.30349
12011.39367
10999.11027
10098.45539
9297.541526
8585.71624
7951.827424
7384.208166
6876.552758
17306.12432
17300.27994
17311.7443
17312.79999
17316.43766
17321.32741
17326.88421
17332.99529
17339.60119
17346.61836
17353.94596
17361.48201
17369.12403
17376.76631
17384.30416
17391.63123
17398.64165
17405.25844
17411.41313
17417.26502
17423.52899
17428.71944
17420.41247
17396.69365
17440.73584
17557.54438
17401.93637
16806.34137
16180.8537
16028.59782
16290.72851
16638.84771
16943.08844
17204.43516
17461.90097
17749.67319
17601.04778
16272.45924
14692.94593
13345.31295
12180.01393
11149.15654
10230.99184
9413.119781
8685.162484
8036.611043
7456.758333
6936.090413
6466.551944
6043.536011
17296.1748
17289.27936
17300.97154
17300.96082
17303.46808
17307.03736
17311.04003
17315.39201
17320.0769
17325.0375
17330.16511
17335.36368
17340.54891
17345.63059
17350.50055
17355.03457
17359.16848
17363.19805
17367.91662
17371.66266
17361.12017
17333.47358
17367.40803
17475.12304
17334.9329
16772.44693
16159.14111
15983.29338
16221.14169
16559.67698
16858.63826
17112.44133
17352.87936
17627.62035
17650.75448
16547.94716
14955.80931
13568.26016
12375.92748
11323.39929
10385.22018
9548.122463
8801.903895
8136.542881
7541.772071
7008.089667
6527.506521
6093.449592
5700.346671
5343.878628
17332.85457
17325.10864
17336.91029
17335.62889
17336.69373
17338.56453
17340.5603
17342.6285
17344.8325
17347.09352
17349.24782
17351.23314
17353.01697
17354.53562
17355.7442
17356.91219
17358.81353
17359.50109
17343.89069
17309.30175
17332.64293
17423.34692
17276.40737
16731.54035
16129.48611
15936.75129
16153.82028
16481.41912
16774.12988
17021.56554
17247.67849
17501.63206
17642.4232
16821.44995
15253.8453
13820.20669
12595.65049
11518.81841
10558.66867
9700.219378
8933.545435
8249.277308
7637.642594
7089.125006
6595.540684
6150.120521
5747.15883
5381.692179
5049.522251
4746.347143
17431.09093
17422.44588
17434.14637
17431.56472
17431.09944
17431.16585
17431.05994
17430.77664
17430.30914
17429.50994
17428.35839
17426.85141
17424.94547
17422.95428
17421.54287
17416.79557
17391.46104
17344.7248
17356.17648
17419.19942
17236.01735
16687.21753
16095.89571
15898.32488
16102.27185
16420.67907
16706.75954
16947.62704
17162.16238
17394.0084
17596.95485
17071.51402
15590.0225
14109.1222
12846.15015
11741.33591
10757.09762
9875.833469
9086.988772
8381.66578
7750.88521
7185.521115
6677.131132
6218.669563
5804.239674
5428.717191
5087.619288
4777.119708
4494.07813
4234.075114
17594.28469
17584.95096
17596.35234
17592.5402
17590.49047
17588.59499
17586.24173
17583.39999
17580.03698
17576.06718
17571.4707
17566.75382
17561.87287
17547.27078
17505.72284
17439.47696
17434.88152
17452.72656
17196.8949
16622.68843
16047.73556
15865.90737
16067.40131
16377.96303
16658.89442
16894.58737
17099.64271
17311.53176
17535.22681
17270.00068
15951.4126
14433.95537
13127.70993
11991.90561
10981.8072
10076.35359
9264.196572
8536.641642
7885.252309
7301.279327
6776.404856
6303.384504
5876.092756
5489.248927
5138.203247
4818.921197
4527.848252
4262.012667
4019.023727
3794.21415
17826.55351
17816.23889
17826.41785
17820.56314
17816.05922
17811.21332
17805.19294
17797.87257
17789.67281
17780.68289
17764.16316
17726.629
17656.92709
17572.47386
17545.83946
17473.24673
17111.13082
16504.95619
15965.43464
15831.10619
16045.14454
16348.52548
16624.07316
16855.53553
17053.39194
17249.26339
17471.33944
17402.30966
16314.23006
14788.29815
13437.37441
12269.58464
11233.96335
10304.81544
9469.368523
8719.154534
8046.398994
7442.985271
6900.690203
6412.129426
5970.966006
5571.761744
5209.735218
4880.700634
4580.994038
4307.402276
4057.087073
3827.643786
3617.222925
3421.016002
18095.85084
18085.62244
18094.9667
18087.31202
18080.48049
18072.76676
18059.25879
18031.64575
17980.5928
17896.29876
17776.34309
17672.19407
17594.27633
17368.03719
16896.97826
16283.51839
15819.16883
15776.14711
16021.8284
16319.19384
16588.63557
16816.57171
17010.09845
17195.52501
17407.96688
17464.51228
16639.5857
15154.70263
13765.6528
12567.77385
11509.12373
10559.11996
9702.91358
8931.64928
8238.114911
7615.067682
7054.803489
6550.001527
6094.218442
5681.816805
5307.924241
4968.223338
4658.94691
4376.780058
4118.806898
3882.39428
3665.172776
3465.187539
3281.019427
3107.904956
18511.63328
18488.83902
18470.6025
18419.55968
18348.7669
18252.98288
18125.3874
17959.2639
17789.82139
17644.87648
17419.30334
17024.707
16501.46615
15965.13369
15657.29771
15728.6891
16002.09855
16295.07456
16559.24011
16784.32325
16976.03708
17156.67432
17360.77865
17488.0422
16909.79421
15522.17086
14110.55691
12887.20455
11809.28758
10841.74538
9967.405918
9177.059148
8463.954895
7821.644201
7243.188351
6721.534648
6250.217559
5823.5832
5436.701624
5085.186576
4765.181318
4473.283755
4206.509123
3962.187808
3737.890093
3531.403913
3340.750521
3164.371631
3001.217348
2846.663025
18134.70104
18082.13332
18005.554
17860.14663
17688.91498
17523.02411
17334.01286
17071.77863
16724.55507
16311.87409
15881.73672
15559.15338
15508.35502
15698.69506
15984.20845
16276.05832
16539.83474
16765.61718
16959.85513
17142.31146
17344.15013
17508.68015
17125.39546
15876.38769
14466.24381
13225.08508
12132.65041
11151.47621
10262.12566
9454.823098
8723.258471
8062.028804
7465.195226
6926.113906
6438.461364
5996.58411
5595.555511
5231.001232
4899.012448
4596.141643
4319.332251
4065.874031
3833.309447
3619.39551
3422.093179
3239.558835
3070.176472
2912.702541
2766.343741
2626.734984
16337.83936
16305.02097
16252.06561
16157.18851
16020.27518
15843.37148
15644.07732
15438.70894
15281.94599
15282.91087
15454.54653
15717.35429
16009.25295
16294.98574
16554.71569
16779.73915
16977.13459
17164.47655
17368.48415
17550.54419
17296.15358
16195.06357
14813.48782
13565.79649
12465.5662
11476.09082
10576.28318
9755.724188
9008.48836
8329.887375
7715.00759
7158.186531
6653.557397
6195.613386
5779.461578
5400.775456
5055.657293
4740.646955
4452.65161
4188.93142
3947.006618
3724.598817
3519.62985
3330.213258
3154.668267
2991.48317
2839.313986
2697.17297
2564.481169
2437.142298
15256.7854
15242.47584
15220.29224
15185.41214
15160.74015
15197.5262
15318.93278
15503.80678
15734.80147
15995.68043
16263.58947
16520.15066
16753.17371
16960.30536
17147.79795
17330.40637
17529.82346
17707.61375
17507.25161
16515.97578
15176.38368
13930.83885
12825.97224
11829.66505
10920.34824
10087.10951
9324.359309
8628.192014
7994.722171
7419.28646
6896.527716
6421.203788
5988.531259
5594.27104
5234.596981
4906.040695
4605.501271
4330.197184
4077.634297
3845.523466
3631.751529
3434.383823
3251.673274
3082.066542
2924.169265
2776.713921
2638.602785
2509.043038
2387.648601
2270.557163
15800.82844
15819.49947
15901.25928
15995.66014
16128.47051
16293.21206
16480.80395
16681.47671
16884.40267
17078.15251
17257.38535
17424.14819
17583.70781
17746.42616
17926.61874
18069.13342
17838.44594
16884.94472
15581.22024
14341.45891
13231.48089
12226.3465
11305.51186
10457.87543
9678.2647
8963.365859
8310.045337
7714.500014
7172.005232
6677.663849
6226.844649
5815.389059
5439.548366
5095.880904
4781.288838
4492.963618
4228.386207
3985.249915
3761.412197
3554.899303
3363.904169
3186.808947
3022.164977
2868.661921
2725.138041
2590.543512
2463.965855
2344.777808
2232.68756
2124.129918
17162.30524
17169.54693
17265.65958
17345.49021
17451.07208
17568.6285
17690.98834
17816.06541
17942.22985
18068.76429
18198.93805
18341.76822
18495.31234
18564.62397
18219.00456
17235.94648
15965.77743
14746.42721
13641.43442
12633.65282
11705.50067
10847.28764
10054.09747
9323.106661
8651.853765
8037.350833
7475.717303
6962.526479
6493.412346
6064.342914
5671.690709
5312.124378
4982.571574
4680.244098
4402.60302
4147.344309
3912.326608
3695.551156
3495.173617
3309.513191
3137.066466
2976.482008
2826.534369
2686.155317
2554.373113
2430.31126
2313.187792
2202.498173
2098.061972
1996.598548
18314.5888
18304.93229
18392.15507
18441.94606
18513.87917
18599.98503
18695.47337
18798.76078
18913.47693
19038.62931
19140.40722
19059.62868
18511.71223
17464.4127
16242.88008
15071.26969
13993.95817
13000.75807
12079.19694
11221.67824
10424.29819
9685.078051
9002.404605
8374.233852
7797.632139
7268.793191
6783.733367
6338.674886
5930.246977
5555.333615
5211.001809
4894.561937
4603.529515
4335.6353
4088.770692
3860.951638
3650.328015
3455.189324
3273.990874
3105.343958
2947.986724
2800.788491
2662.741744
2532.949019
2410.608359
2294.977605
2185.43274
2081.595839
1983.31794
1887.613328
19334.57608
19319.89068
19403.93015
19447.50784
19512.80757
19590.80537
19673.90838
19729.29825
19659.25514
19285.34918
18498.38837
17426.58819
16293.88874
15209.44596
14194.77659
13245.97439
12355.96192
11520.38536
10737.0494
10005.18162
9324.458293
8694.022608
8111.793726
7574.779678
7079.713634
6623.411375
6202.904167
5815.442267
5458.413894
5129.337548
4825.906692
4545.964822
4287.512543
4048.649077
3827.567704
3622.583155
3432.140374
3254.846173
3089.426571
2934.709448
2789.663352
2653.347331
2524.935412
2403.680911
2288.918046
2180.055285
2076.587078
1978.197688
1884.825011
1793.775277
20243.38108
20219.48975
20263.80575
20236.90944
20157.99301
19950.54907
19529.8679
18854.25021
17974.30073
17003.02064
16023.15927
15074.19057
14166.25453
13301.04542
12476.20909
11691.53439
10947.25079
10244.3456
9584.182838
8967.060797
8392.209108
7857.919699
7361.904833
6901.771809
6475.197489
6080.059384
5714.178494
5375.470416
5061.94925
4771.705459
4502.925469
4253.868411
4022.852397
3808.276765
3608.639016
3422.558333
3248.779465
3086.153212
2933.627802
2790.264217
2655.208845
2527.720602
2407.101872
2292.736952
2184.096556
2080.697491
1982.120008
1888.117277
1798.645175
1711.372858
19501.62448
19373.95422
19154.98675
18767.0226
18251.76346
17627.07622
16922.4842
16172.84126
15405.50186
14637.28897
13878.35377
13134.6892
12409.1792
11705.02563
11025.85358
10374.72896
9754.869989
9168.165226
8615.384308
8096.347464
7610.183808
7155.29967
6730.230474
6333.583897
5963.925467
5619.749466
5299.506379
5001.667687
4724.712265
4467.1583
4227.528738
4004.37169
3796.271341
3601.915699
3420.102757
3249.72201
3089.743519
2939.240247
2797.366384
2663.359718
2536.535455
2416.273961
2302.034146
2193.351505
2089.776417
1990.906881
1896.401791
1806.06124
1719.863548
1635.792472
16562.99966
16443.30518
16220.26538
15883.58749
15466.93269
14987.13008
14460.78712
13902.08522
13322.37555
12729.36227
12131.40789
11534.09044
10944.28041
10367.07737
9807.479139
9269.058101
8754.169951
8264.499242
7800.199044
7360.973552
6946.438947
6556.094787
6189.322495
5845.403199
5523.26496
5221.86888
4940.112122
4676.841732
4430.860379
4200.934758
3985.840576
3784.398752
3595.495269
3418.097268
3251.244516
3094.046456
2945.677759
2805.378167
2672.478825
2546.364422
2426.488612
2312.371912
2203.590549
2099.759372
2000.546578
1905.623495
1814.699352
1727.616954
1644.369954
1563.243351
14110.71494
14027.24443
13863.14681
13620.06436
13314.66254
12956.54231
12555.90289
12122.22165
11663.3699
11188.18717
10703.66744
10216.70519
9733.295814
9258.360831
8795.524478
8348.077653
7917.301544
7504.209565
7109.548163
6733.928288
6377.416459
6039.978303
5721.329649
5420.993491
5138.374007
4872.737841
4623.294491
4389.082369
4169.084395
3962.301383
3767.763542
3584.557213
3411.815383
3248.712259
3094.476968
2948.408993
2809.854446
2678.241456
2553.019132
2433.699664
2319.868814
2211.149539
2107.203058
2007.732098
1912.463408
1821.165249
1733.591794
1649.616557
1569.250298
1491.038693
12315.94359
12251.76174
12121.71899
11930.01244
11686.51754
11398.96207
11074.81593
10721.26526
10345.76115
9955.163407
9555.503373
9152.652667
8750.849585
8354.355958
7965.635032
7586.729397
7219.604968
6865.498338
6525.37967
6199.990063
5889.77307
5594.956033
5315.353426
5050.709207
4800.603667
4564.464953
4341.592199
4131.216264
3932.554535
3744.854094
3567.345681
3399.304743
3240.032174
3088.886544
2945.264258
2808.610105
2678.418526
2554.223807
2435.621542
2322.269086
2213.803899
2109.939172
2010.415193
1914.997106
1823.474946
1735.662718
1651.387996
1570.541394
1493.137823
1417.926985
10953.93402
10901.01601
10792.38756
10632.79925
10429.93203
10189.76539
9918.589163
9622.450166
9307.38272
8978.954234
8642.02129
8300.904262
7959.211428
7619.616356
7285.063841
6957.378641
6638.309812
6329.379228
6031.725025
5745.93141
5472.457975
5211.531469
4963.172964
4727.276601
4503.398206
4291.028562
4089.599179
3898.517339
3717.185271
3545.008697
3381.402396
3225.801687
3077.658121
2936.447276
2801.70608
2672.997357
2549.926383
2432.147217
2319.353685
2211.264396
2107.640519
2008.231431
1912.840346
1821.287165
1733.408692
1649.057364
1568.116908
1490.480031
1416.169566
1344.104672
9890.704419
9845.679165
9752.839425
9616.471531
9442.951181
9237.656034
9005.488754
8751.553394
8481.104744
8197.928769
7906.6939
7610.228196
7312.114594
7014.86941
6720.774354
6432.145864
6150.404218
5876.802466
5612.311641
5357.771178
5113.49368
4879.698454
4656.38833
4443.373693
4240.357186
4046.954438
3862.693755
3687.131321
3519.803185
3360.234549
3207.958035
3062.534372
2923.541108
2790.596664
2663.301958
2541.331938
2424.395908
2312.225529
2204.57652
2101.241099
2002.04805
1906.802593
1815.344761
1727.538183
1643.254311
1562.381677
1484.815345
1410.474096
1339.389739
1270.592801
9039.258236
9000.110227
8919.399504
8800.637498
8649.663203
8470.45032
8267.375516
8045.127857
7807.252581
7557.81706
7300.115884
7037.490991
6772.502077
6508.058159
6245.936071
5987.936854
5735.718366
5490.245633
5252.398671
5022.795984
4801.933944
4589.878657
4386.576723
4191.873358
4005.541032
3827.298946
3656.871835
3493.861349
3337.890973
3188.59917
3045.623582
2908.614855
2777.249673
2651.22515
2530.271905
2414.127437
2302.561793
2195.370766
2092.374447
1993.408606
1898.349813
1807.052102
1719.385713
1635.243246
1554.520061
1477.116501
1402.953117
1331.96539
1264.176641
1198.696375
8338.515913
8303.814522
8232.566294
8127.381927
7993.189177
7833.714994
7652.975096
7454.526103
7241.800455
7018.530518
6787.430409
6551.707793
6313.62528
6075.437646
5839.13743
5606.13404
5377.767043
5155.190533
4939.046677
4729.849918
4527.891738
4333.363518
4146.198796
3966.300486
3793.526098
3627.675379
3468.507149
3315.774528
3169.168076
3028.396171
2893.18544
2763.266702
2638.386792
2518.323267
2402.903449
2291.902161
2185.147434
2082.486217
1983.780038
1888.905885
1797.772552
1710.267883
1626.286804
1545.735579
1468.517913
1394.569988
1323.808423
1256.174552
1191.686582
1129.529339
7744.67098
7713.43461
7649.45427
7554.671865
7433.81277
7290.238014
7127.354387
6948.1924
6756.264107
6554.386121
6345.458726
6131.881
5916.048108
5699.710229
5484.750245
5272.510448
5064.080724
4860.418853
4662.188419
4469.738553
4283.331911
4103.123448
3929.223934
3761.546749
3600.000145
3444.435755
3294.672123
3150.528046
3011.806218
2878.267535
2749.697002
2625.899163
2506.696001
2391.923843
2281.439146
2175.098972
2072.758048
1974.302845
1879.629516
1788.64375
1701.283171
1617.451331
1537.05415
1460.008812
1386.241828
1315.709287
1248.301074
1183.972714
1122.737361
1063.830721
7228.935933
7200.478526
7142.633579
7056.681849
6947.114777
6817.043186
6669.135056
6506.431357
6332.049524
6148.321128
5958.09493
5763.291502
5566.206309
5368.437087
5171.499763
4976.785016
4785.141887
4597.324598
4413.984694
4235.462765
4062.023851
3893.851272
3731.061098
3573.679482
3421.608405
3274.763543
3133.026819
2996.255046
2864.334654
2737.082017
2614.344731
2495.988933
2381.882765
2271.896939
2165.94626
2063.920197
1965.709547
1871.227857
1780.396856
1693.143772
1609.437486
1529.163615
1452.252779
1378.637178
1308.260103
1241.055047
1176.925891
1115.81792
1057.742673
1001.977682
6774.346824
6748.311239
6695.854519
6617.561993
6517.862718
6399.189617
6264.196653
6115.742098
5956.300919
5788.265083
5613.988317
5435.414742
5254.395613
5072.557106
4891.112649
4711.257221
4533.797774
4359.388844
4188.604706
4021.892914
3859.493672
3701.601072
3548.33005
3399.768865
3255.870155
3116.581834
2981.83406
2851.540232
2725.616301
2603.972195
2486.493173
2373.079584
2263.637416
2158.086503
2056.370157
1958.406575
1864.113498
1773.428759
1686.289905
1602.657554
1522.471868
1445.652516
1372.138294
1301.864351
1234.789481
1170.819958
1109.862402
1051.85799
996.841944
944.0790655
6369.553362
6345.612167
6297.847868
6226.225297
6134.933937
6026.186607
5902.425864
5766.294909
5619.869219
5465.503739
5305.129718
5140.658239
4973.590411
4805.471169
4637.300398
4470.112625
4304.767176
4141.841349
3981.87221
3825.352386
3672.499594
3523.51463
3378.531134
3237.671616
3100.941966
2968.323153
2839.782707
2715.275649
2594.775187
2478.240609
2365.577709
2256.727108
2151.633701
2050.242185
1952.538294
1858.439982
1767.898003
1680.864434
1597.294541
1517.161086
1440.392611
1366.93313
1296.71901
1229.698872
1165.818956
1104.971306
1047.065027
992.0629761
939.9550667
890.0519747
6006.064246
5983.954455
5940.321191
5874.508087
5790.563014
5690.570507
5576.768453
5451.395089
5316.408675
5174.001714
5025.779467
4873.545631
4718.546995
4562.180172
4405.407762
4249.15321
4094.285549
3941.336943
3790.813114
3643.169837
3498.662608
3357.498661
3219.835559
3085.800869
2955.464426
2828.818986
2705.878077
2586.642462
2471.126313
2359.29834
2251.110737
2146.533843
2045.53629
1948.101616
1854.218998
1763.829391
1676.900396
1593.395064
1513.281313
1436.533802
1363.088754
1292.888083
1225.872012
1162.0174
1101.210692
1043.364106
988.3952116
936.2625354
886.918548
839.7259294
5677.67718
5657.185993
5617.222265
5556.486391
5479.067718
5386.809134
5281.775446
5165.886755
5040.970097
4908.963421
4771.280099
4629.586783
4485.005512
4338.803661
4191.940597
4045.246866
3899.548032
3755.348381
3613.124819
3473.305718
3336.194766
3201.985502
3070.851876
2942.954272
2818.376965
2697.159059
2579.347871
2464.972719
2354.071297
2246.636548
2142.651387
2042.110761
1945.008667
1851.36314
1761.146304
1674.330934
1590.890102
1510.790347
1434.043874
1360.583298
1290.359076
1223.314951
1159.423956
1098.59777
1040.747991
985.7830774
933.6401983
884.2277877
837.5074294
792.8900063
5379.66982
5360.606935
5323.826859
5267.603338
5195.951888
5110.494324
5013.121234
4905.495657
4789.325443
4666.297324
4537.760803
4405.197989
4269.701141
4132.415865
3994.271217
3856.008115
3718.397452
3581.929916
3447.064122
3314.2333
3183.728097
3055.758555
2930.514895
2808.178949
2688.864258
2572.638774
2459.568389
2349.699716
2243.125572
2139.822007
2039.812327
1943.111925
1849.742739
1759.731944
1673.049485
1589.682114
1509.6088
1432.840646
1359.345464
1289.070227
1221.965673
1157.998988
1097.105184
1039.195821
984.1837909
931.9971437
882.5345428
835.7069552
791.4777258
749.304428
5108.037277
5090.214483
5056.237843
5003.967914
4937.337946
4857.783407
4767.029227
4666.549085
4557.946914
4442.738904
4322.197505
4197.666278
4070.187497
3940.793176
3810.355192
3679.559245
3549.130795
3419.559248
3291.280837
3164.718488
3040.167367
2917.841622
2797.95295
2680.725495
2566.263784
2454.657623
2345.993118
2240.370446
2137.852866
2038.461487
1942.235235
1849.20951
1759.440648
1672.922226
1589.648213
1509.611975
1432.824826
1359.285429
1288.940848
1221.751255
1157.679968
1096.682514
1038.671012
983.5627708
931.2841301
881.7451711
834.8292292
790.4530459
748.6042218
708.7241201
4859.101084
4842.36927
4810.814273
4761.967418
4699.68647
4625.263665
4540.254203
4446.026644
4344.066226
4235.756513
4122.287968
4004.888488
3884.515631
3762.128495
3638.533323
3514.386955
3390.402403
3267.015488
3144.659896
3023.774225
2904.619594
2787.445801
2672.484613
2559.978679
2450.007826
2342.700607
2238.172291
2136.551535
2037.878132
1942.211003
1849.607228
1760.129595
1673.819108
1590.669444
1510.690711
1433.897067
1360.315776
1289.894989
1222.605236
1158.409606
1097.281831
1039.135582
983.892779
931.4793215
881.8195809
834.7938128
790.2960414
748.2737699
708.6508927
670.9287878
4629.59828
4613.824093
4584.366638
4538.516023
4480.050515
4410.141144
4330.218114
4241.545146
4145.489113
4043.325922