/*--------------------------------*- C++ -*----------------------------------*\
  =========                 |
  \\      /  F ield         | OpenFOAM: The Open Source CFD Toolbox
   \\    /   O peration     | Website:  https://openfoam.org
    \\  /    A nd           | Version:  7
     \\/     M anipulation  |
\*---------------------------------------------------------------------------*/
FoamFile
{
    version     2.0;
    format      ascii;
    class       volVectorField;
    location    "0.0012";
    object      grad(generalizedNewtonian:nu);
}
// * * * * * * * * * * * * * * * * * * * * * * * * * * * * * * * * * * * * * //

dimensions      [0 1 -1 0 0 0 0];

internalField   nonuniform List<vector> 
14000
(
(-10930102.98 0 124222101.6)
(-12141809.5 0 118428380.8)
(-20239322.42 0 117988063.4)
(-30668745.95 0 110102927.9)
(-34857314.75 0 101695234.2)
(-38233793.49 0 92786423.34)
(-40478559.46 0 83606858.36)
(-41536686.51 0 74547031.59)
(-41657662.61 0 65887139.87)
(-41089247.56 0 57787516.1)
(-40025707.59 0 50324932.05)
(-38620299.53 0 43519118.99)
(-36992321.5 0 37352721.23)
(-35232013.84 0 31786849.52)
(-33406508.82 0 26771424.22)
(-31565312.38 0 22251808.69)
(-29738998.58 0 18174221.88)
(-27939928.39 0 14489295.25)
(-26177939.49 0 11152926)
(-24470248.1 0 8125876.05)
(-22831975.5 0 5373539.591)
(-21264760.33 0 2866397.148)
(-19765699.42 0 580810.0084)
(-18344859.56 0 -1501861.38)
(-17016630.48 0 -3396451.695)
(-15792867.67 0 -5113740.586)
(-14692931.87 0 -6660941.05)
(-13742145.49 0 -8042762.154)
(-12972961.47 0 -9262013.28)
(-12423077 0 -10320517.2)
(-12129943.13 0 -11220297.1)
(-12140505.81 0 -11964656.43)
(-12508608.28 0 -12558934.53)
(-13278727.82 0 -13011035.5)
(-14483375.65 0 -13331980.53)
(-16143660.75 0 -13535771.55)
(-18257908.5 0 -13638755.22)
(-20791345.99 0 -13659460.37)
(-23674172.41 0 -13618629.84)
(-26795785 0 -13539121.51)
(-30003049.02 0 -13445650.08)
(-33115920.89 0 -13365253)
(-35952189.76 0 -13327351.66)
(-38345628.68 0 -13362781.99)
(-40110402.83 0 -13502194.84)
(-41085660.95 0 -13772874.59)
(-41823055.16 0 -14199474.44)
(-43641473.86 0 -14824230.08)
(-39306102.99 0 -15704757.45)
(-27403320.56 0 -16593399.45)
(-2665819.083 0 45421438.25)
(266958.2797 0 44554594.56)
(-106880.3882 0 43611996.14)
(-2288867.613 0 41723602.25)
(-2211956.354 -4.214602094e-07 39510676.82)
(-2416429.613 0 37052541.07)
(-2672558.371 0 34432892.53)
(-2839378.297 0 31738945.98)
(-2914454.93 0 29038556.05)
(-2907730.792 0 26380252.05)
(-2824551.539 0 23797748.1)
(-2670990.41 0 21313055.45)
(-2456504.178 0 18939397.53)
(-2189082.404 0 16684232.66)
(-1871246.248 0 14551097.55)
(-1513446.469 0 12540865.68)
(-1135514.058 0 10652969.18)
(-751715.7413 0 8886852.796)
(-377558.6396 0 7242957.545)
(-37707.54612 0 5721890.805)
(240599.1501 0 4323716.743)
(425580.7698 0 3048527.232)
(481250.0776 -6.93073162e-08 1896958.442)
(372135.7586 0 869079.3789)
(59698.89544 0 -37107.442)
(-494397.9473 0 -825730.2223)
(-1318920.51 6.564482471e-08 -1503564.019)
(-2429324.61 0 -2080652.117)
(-3823951.243 -6.445692042e-08 -2570726.234)
(-5475776.78 0 -2991231.733)
(-7324900.17 6.359647769e-08 -3362343.333)
(-9281787.42 0 -3706784.564)
(-11235001.42 0 -4049459.276)
(-13054319.51 0 -4416218.757)
(-14603153.69 0 -4832954.547)
(-15761702.14 0 -5324835.452)
(-16438340.64 0 -5915905.257)
(-16570797.61 0 -6627552.183)
(-16130866.33 0 -7477230.714)
(-15128893.29 3.131678596e-08 -8478532.383)
(-13597934.05 0 -9639848.639)
(-11568770.29 0 -10963116.01)
(-9062089.487 0 -12443076.91)
(-6085306.536 0 -14068091.22)
(-2640877.63 0 -15820907.03)
(1329269.358 0 -17675152.92)
(6173819.885 6.418771434e-08 -19600288.35)
(12215154.74 0 -21609169.8)
(17177079.77 0 -23753636.16)
(17713312.46 0 -25439784.04)
(-1441961.95 0 4270685.343)
(1624586.122 0 4140326.025)
(2000109.97 3.644315315e-07 4060524.19)
(923375.036 0 3817191.993)
(1640544.303 0 3523474.201)
(2090445.54 1.800384978e-07 3179359.237)
(2444647.846 0 2787723.313)
(2816350.467 0 2356654.216)
(3204354.331 -1.266262926e-07 1894148.867)
(3593297.596 0 1408349.098)
(3977072.373 0 907465.7961)
(4353912.129 0 399248.7913)
(4715535.919 -9.620349965e-08 -108979.9084)
(5047907.454 0 -610359.1877)
(5337680.894 8.764841734e-08 -1097865.119)
(5569821.029 0 -1564323.082)
(5724896.91 -8.139385419e-08 -2003693.448)
(5778807.428 0 -2411010.587)
(5708071.469 0 -2782048.383)
(5496445.818 0 -3114172.004)
(5131038.963 0 -3406801.856)
(4601059.707 0 -3661704.15)
(3906365.429 0 -3883485.836)
(3062610.754 0 -4079462.547)
(2100324.604 6.827694449e-08 -4259812.516)
(1062732.001 0 -4437468.893)
(3163.644515 0 -4627150.743)
(-1013126.968 0 -4845122.168)
(-1915845.279 0 -5108328.13)
(-2644175.97 0 -5432631.766)
(-3144202.831 0 -5831540.961)
(-3372014.312 0 -6315304.59)
(-3305420.401 0 -6889959.841)
(-2936535.945 0 -7555840.394)
(-2265618.6 0 -8307806.448)
(-1297049.838 0 -9136306.533)
(-40821.50575 0 -10027677.22)
(1482872.903 0 -10965685.59)
(3264977.953 0 -11932797.26)
(5309778.956 0 -12911136.02)
(7615130.541 6.372947379e-08 -13883612.41)
(10162587.81 6.388731818e-08 -14833728.64)
(12922150.73 0 -15745384.64)
(15857460.36 0 -16602331.95)
(18891429.25 0 -17386715.28)
(21930165.8 0 -18079161.67)
(25057395.13 0 -18658172.5)
(28376017.64 0 -19093702.96)
(28291728.9 -3.296253651e-08 -19358210.65)
(22734985.59 0 -19379869.17)
(-1260834.736 0 -4826299.548)
(1757762.727 -6.001925364e-07 -4879296.8)
(2444900.57 0 -4870416.7)
(1783540.019 0 -4936616.611)
(2697337.325 0 -5011250.31)
(3339883.564 0 -5095984.551)
(3873976.659 0 -5192008.713)
(4397263.955 0 -5296288.7)
(4904504.952 0 -5404853.539)
(5376823.824 0 -5514218.142)
(5804994.612 0 -5621676.959)
(6183251.728 1.032978751e-07 -5724123.341)
(6502767.124 0 -5818309.92)
(6750958.346 0 -5902078.602)
(6915226.809 0 -5973863.16)
(6987030.248 0 -6032918.366)
(6960130.764 0 -6079932.439)
(6831143.159 0 -6116981.935)
(6601926.931 0 -6147913.809)
(6280001.119 0 -6178052.804)
(5880631.341 0 -6213885.515)
(5426132.748 7.278532544e-08 -6263149.826)
(4942601.642 0 -6334224.487)
(4461738.051 -7.034064057e-08 -6435288.505)
(4017680.417 6.93402634e-08 -6573763.808)
(3637781.117 6.846622634e-08 -6755595.506)
(3349723.062 0 -6984605.062)
(3185043.483 0 -7262352.62)
(3163673.778 0 -7587302.088)
(3294395.302 0 -7954951.112)
(3589345.979 0 -8359100.78)
(4062054.456 0 -8791576.05)
(4709640.574 -6.498922023e-08 -9242788.519)
(5522442.499 6.478072627e-08 -9703215.346)
(6503481.775 0 -10162934.96)
(7647429.471 6.452931717e-08 -10612403.97)
(8937659.64 0 -11042382.67)
(10360208.93 6.447622666e-08 -11443788.74)
(11894514.49 0 -11808217.62)
(13509883.24 0 -12126989.29)
(15166128.34 -6.472197213e-08 -12391114.86)
(16819661.04 0 -12591239.46)
(18425279.11 0 -12718432.91)
(19918408.53 0 -12765006.71)
(21214085.31 0 -12725270.08)
(22273165.29 0 -12595549.41)
(23221933.46 0 -12367535.02)
(24228276.38 0 -12023757.68)
(22207631.22 0 -11566436.37)
(15962032.17 0 -11116611.16)
(-884263.6037 0 -7602691.307)
(1860182.064 0 -7653885.956)
(2491609.165 0 -7589311.663)
(1971911.281 0 -7599885.105)
(2848558.304 0 -7596481.169)
(3485210.114 0 -7584343.745)
(4016602.861 0 -7567462.377)
(4516275.322 0 -7544701.921)
(4976852.359 0 -7514076.432)
(5389927.086 1.201427254e-07 -7474540.871)
(5749197.261 0 -7426166.622)
(6045575.005 0 -7368953.052)
(6276192.568 0 -7303131.103)
(6438877.509 0 -7230122.27)
(6530973.63 9.039968085e-08 -7152326.724)
(6556884.946 8.693426157e-08 -7072626.611)
(6523329.696 8.394878842e-08 -6994595.829)
(6437750.92 0 -6922493.188)
(6311293.123 -7.911185696e-08 -6860725.553)
(6158815.23 0 -6813787.961)
(5998571.1 0 -6785947.281)
(5847586.426 0 -6780526.801)
(5720054.392 -7.259610334e-08 -6799738.714)
(5631762.624 0 -6844787.657)
(5598968.239 0 -6915243.299)
(5633851.496 0 -7009403.391)
(5747198.485 -6.875981844e-08 -7124966.773)
(5946874.06 0 -7257976.547)
(6233063.437 0 -7403249.798)
(6607986.932 0 -7555463.559)
(7074461.056 6.661427277e-08 -7709083.119)
(7625542.936 0 -7857735.214)
(8254956.838 6.600133733e-08 -7994633.579)
(8953073.788 0 -8114086.462)
(9705956.865 0 -8209948.401)
(10504080.38 -6.553427191e-08 -8275587.156)
(11329366.99 0 -8305697.46)
(12158964.67 -6.548035459e-08 -8294778.892)
(12974829.4 0 -8237313.899)
(13757881.41 6.560567497e-08 -8129311.112)
(14480073.43 0 -7967764.86)
(15107015.83 -6.58927263e-08 -7750008.428)
(15616695.78 0 -7474344.154)
(16006048.14 0 -7142916.101)
(16246783.69 0 -6766940.305)
(16191425.52 0 -6359466.643)
(15684667.9 0 -5818050.655)
(14984716.78 0 -4700991.975)
(12853137.73 0 -1923439.214)
(8475101.801 0 1357863.594)
(-727234.0573 0 -7637520.082)
(1507940.836 0 -7685578.51)
(2135091.059 0 -7576702.257)
(1827972.643 0 -7555409.709)
(2580695.874 0 -7507642.329)
(3123205.974 0 -7441972.73)
(3572253.203 0 -7364393.983)
(3982578.148 0 -7274899.649)
(4348884.974 0 -7173971.952)
(4667488.281 0 -7062652.661)
(4936730.894 1.134980504e-07 -6941830.507)
(5152107.928 0 -6813402.695)
(5317186.179 1.007685705e-07 -6679628.072)
(5438869.374 9.592080917e-08 -6542636.053)
(5519174.114 0 -6405248.011)
(5562878.69 0 -6270370.448)
(5579759.406 0 -6140479.36)
(5578288.719 8.262953467e-08 -6017951.022)
(5567349.398 0 -5904820.502)
(5558095.041 7.834823327e-08 -5802603.401)
(5559172.846 7.660141045e-08 -5712033.984)
(5576717.359 0 -5632844.674)
(5618554.621 0 -5564303.586)
(5690914.383 0 -5505282.608)
(5797842.609 -7.151683797e-08 -5453657.544)
(5945626.013 0 -5406650.423)
(6134683.605 0 -5361252.122)
(6360487.928 0 -5313903.882)
(6621890.374 0 -5260801.556)
(6917004.508 0 -5198379.741)
(7238273.968 0 -5122524.679)
(7575933.081 -6.730675541e-08 -5029252.611)
(7926724.34 0 -4915035.08)
(8279808.763 0 -4775965.78)
(8617083.184 0 -4609037.464)
(8934699.454 0 -4411384.809)
(9221207.558 0 -4180028.627)
(9450616.554 0 -3913067.954)
(9614036.778 0 -3609058.187)
(9707498.311 0 -3266749.623)
(9702848.529 0 -2885899.092)
(9569703.195 0 -2468536.356)
(9330154.505 6.712173975e-08 -2012288.003)
(9116204.057 -6.736057449e-08 -1509943.821)
(9020418.799 6.763410031e-08 -965553.7434)
(7205567.351 0 -185104.5273)
(-3635152.898 0 1666015.42)
(-39962014.42 0 4670192.412)
(-78980931.76 0 8086319.093)
(-77197700.57 3.474251253e-08 10594829.89)
(-393962.8082 0 -6258765.265)
(1220564.245 0 -6305179.912)
(1661265.099 0 -6191250.043)
(1461647.789 0 -6156985.049)
(2015796.096 0 -6093608.251)
(2421243.637 0 -6011509.843)
(2754098.152 0 -5916843.251)
(3051633.72 0 -5810793.359)
(3314708.008 1.347005998e-07 -5694708.43)
(3538449.706 0 -5570503.46)
(3724604.206 0 -5439585.243)
(3876286.745 0 -5303816.146)
(3994317.355 1.023379018e-07 -5165542.631)
(4083651.992 0 -5026395.561)
(4150594.115 0 -4887823.322)
(4199147.805 0 -4751424.301)
(4234095.122 -8.658392149e-08 -4618389.246)
(4261327.399 0 -4489425.918)
(4286264.169 0 -4364952.433)
(4313282.423 0 -4244883.021)
(4344524.888 7.779437162e-08 -4128619.676)
(4382933.365 0 -4015351.611)
(4433606.591 -7.487487825e-08 -3904066.824)
(4496908.773 0 -3793241.49)
(4570023.103 0 -3681228.993)
(4652957.521 0 -3566168.747)
(4744414.736 -1.418363465e-07 -3445719.962)
(4839347.569 0 -3317866.326)
(4933316.1 0 -3180564.842)
(5019947.346 0 -3031710.783)
(5091946.666 0 -2869167.888)
(5143719.825 0 -2691183.328)
(5164333.735 0 -2496178.09)
(5145237.058 0 -2282185.672)
(5079953.994 1.353908524e-07 -2048158.881)
(4954436.9 0 -1793294.802)
(4758521.216 6.753916323e-08 -1516350.109)
(4485134.192 0 -1217294.51)
(4121641.986 6.75785135e-08 -897704.3576)
(3662864.618 0 -557400.6694)
(3125023.083 6.779317443e-08 -180941.7831)
(2441964.007 0 236960.4757)
(1455281.388 0 561840.2436)
(254168.6562 0 923961.4527)
(-4080260.977 0 2344290.032)
(-24989822.85 0 5030923.626)
(-61582207.93 6.934401098e-08 7812024.652)
(-89310331.64 3.486040442e-08 8579188.78)
(-85535007.64 0 5498918.369)
(-58390243.01 0 1299981.023)
(-258144.2476 0 -4271964.875)
(828432.9729 0 -4301984.872)
(1184586.121 0 -4211042.874)
(1120842.913 0 -4181792.496)
(1528032.054 0 -4130755.442)
(1827434.143 0 -4066290.753)
(2075530.541 0 -3993070.142)
(2296595.426 3.015809248e-07 -3912969.553)
(2492129.892 1.367983755e-07 -3827093.674)
(2659795.869 0 -3736855.042)
(2799248.057 0 -3644004.241)
(2915045.529 0 -3549729.626)
(3010296.273 0 -3455253.299)
(3086292.553 0 -3361801.561)
(3146356.666 0 -3270155.009)
(3194334.584 -9.105948692e-08 -3180866.342)
(3233398.905 0 -3094322.839)
(3266038.674 0 -3010654.757)
(3294357.935 0 -2929758.939)
(3320109.046 0 -2851272.626)
(3344681.087 0 -2774645.451)
(3369431.349 0 -2699367.374)
(3394044.81 -7.604095099e-08 -2624611.691)
(3416933.34 0 -2549252.116)
(3436740.298 0 -2472367.651)
(3450237.732 0 -2393016.743)
(3453755.502 0 -2310121.653)
(3443181.581 7.132180875e-08 -2222660.816)
(3413656.793 0 -2129791.128)
(3359351.419 0 -2030627.526)
(3273867.97 0 -1924587.669)
(3151144.468 6.941949927e-08 -1811120.912)
(2982533.243 0 -1689772.208)
(2761143.779 -6.891146e-08 -1560580.187)
(2480808.614 0 -1423466.491)
(2133056.451 -1.372880397e-07 -1279157.962)
(1714715.133 0 -1130059.446)
(1235689.855 0 -975000.5651)
(684854.5442 0 -790620.2045)
(-176444.3849 0 -577167.581)
(-1454254.292 0 -547232.4195)
(-1045558.355 0 -547346.2345)
(-716975.3585 6.922867601e-08 624494.3425)
(-17462281.07 0 3143162.775)
(-53002512.31 6.975711945e-08 5582520.968)
(-76803127.29 0 6048883.251)
(-59296132.73 0 3593337.414)
(-3214872.205 0 -596906.3749)
(38733681.24 0 -5058035.015)
(38600292.21 -3.583307216e-08 -8293645.665)
(-96390.15209 -3.794787188e-06 -2406424.171)
(645299.5672 1.296813824e-06 -2426164.403)
(898021.5459 0 -2368109.88)
(889914.151 0 -2346903.272)
(1192930.217 0 -2310789.404)
(1427061.71 0 -2265928.372)
(1628115.917 0 -2215522.419)
(1810774.713 3.062776283e-07 -2160901.164)
(1974088.519 0 -2103150.401)
(2119181.818 2.556072167e-07 -2043215.8)
(2247044.974 1.188837867e-07 -1982189.823)
(2358060.885 0 -1921079.046)
(2454440.14 1.055502645e-07 -1860460.58)
(2538427.085 0 -1800891.292)
(2611615.009 0 -1742836.304)
(2675304.592 -9.24776118e-08 -1686566.703)
(2731027.442 0 -1632154.11)
(2780557.326 -8.655049082e-08 -1579493.805)
(2824842.095 0 -1528370.842)
(2863906.051 -1.641320642e-07 -1478514.602)
(2898105.492 0 -1429561.536)
(2927095.732 0 -1381035.907)
(2949166.549 1.544503661e-07 -1332368.154)
(2962745.951 0 -1283057.592)
(2965701.742 7.491047182e-08 -1232634.163)
(2955243.611 0 -1180601.406)
(2927996.978 0 -1126679.709)
(2880142.804 0 -1070570.443)
(2807447.218 -7.182066412e-08 -1012213.113)
(2705323.831 0 -951596.679)
(2569159.997 0 -888988.8591)
(2393940.341 0 -824737.1917)
(2174946.236 0 -759493.9984)
(1907572.408 0 -694925.157)
(1593711.986 0 -634075.1857)
(1250775.945 0 -574412.4158)
(845544.1826 -6.965920166e-08 -486513.2797)
(34568.86147 0 -379736.331)
(-1185024.516 -6.969978713e-08 -519760.0541)
(369809.9927 0 -713380.5364)
(2652528.083 0 369068.3016)
(-14200134.51 -1.401887323e-07 2877900.058)
(-51320022.29 0 5302141.119)
(-71815143.04 0 5778472.362)
(-47300429.74 0 3493374.153)
(4740392.647 0 -445598.9353)
(40634744.56 3.576035158e-08 -4392337.841)
(47108883.22 0 -6716487.426)
(38513528.86 0 -6885604.685)
(29211387.8 -3.639112243e-08 -6125563.537)
(-64338.2764 0 -1155184.916)
(470924.0132 1.317009914e-06 -1161501.488)
(685896.9078 8.121304784e-07 -1123357.495)
(719488.2985 0 -1104093.761)
(960381.4123 0 -1074481.444)
(1150393.912 0 -1038004.931)
(1316406.162 0 -996765.2487)
(1469928.477 0 -951316.1961)
(1610624.733 0 -902386.2538)
(1737188.783 0 -850793.5668)
(1850533.212 0 -796990.5688)
(1951917.835 0 -741416.7546)
(2041665.58 0 -684472.1499)
(2120668.841 0 -626392.1009)
(2190311.662 0 -567305.8151)
(2251442.575 0 -507242.4055)
(2304170.464 0 -446160.1999)
(2348488.116 0 -383941.5953)
(2384880.821 -8.546703297e-08 -320389.0352)
(2413492.718 0 -255259.9861)
(2433484.402 -8.14858888e-08 -188336.3388)
(2443818.394 0 -119359.2464)
(2443399.433 0 -48135.69772)
(2431020.74 0 25450.55516)
(2404790.533 0 101454.6207)
(2362904.139 0 179793.9286)
(2303218.329 0 260272.5305)
(2223608.583 0 342503.4905)
(2122018.82 0 425964.0525)
(1996184.808 0 509957.6977)
(1843807.538 0 593559.9263)
(1663599.17 0 674650.265)
(1463010.711 0 749638.8714)
(1265041.322 0 822366.8401)
(1014834.79 0 927137.255)
(301787.2453 0 1047456.937)
(-738255.0637 0 878399.3623)
(1689838.443 0 628219.4483)
(5000659.803 0 1669785.213)
(-12185510.23 0 4150910.685)
(-50103005.04 0 6601979.211)
(-69004882.27 0 7167295.936)
(-41700594.57 0 4963948.179)
(8065060.527 0 1073246.514)
(37869815.73 7.194677937e-08 -2594734.948)
(41202481.32 3.613669669e-08 -4391159.189)
(36494574.32 0 -4403796.053)
(35424008.03 3.651460869e-08 -3510384.366)
(29279047.17 0 605774.0098)
(-16395377.94 0 6855249.059)
(-35616.22174 0 -369829.633)
(377696.0689 2.675041024e-06 -370377.9881)
(535356.9158 8.247782813e-07 -345643.3699)
(554866.4977 0 -326180.3437)
(737450.5821 0 -298300.7878)
(883799.4075 0 -264156.4489)
(1011649.99 0 -224933.0152)
(1127745.977 0 -181138.641)
(1233528.065 0 -133133.9208)
(1328488.548 0 -81225.47851)
(1411371.412 0 -25835.41496)
(1482509.826 0 32719.38887)
(1542783.803 0 94198.35743)
(1592521.562 0 158441.5522)
(1631774.009 0 225408.6524)
(1660472.233 1.907609255e-07 295124.3094)
(1678853.643 0 367572.3773)
(1687218.29 0 442677.8703)
(1685235.923 0 520408.0545)
(1672514.536 0 600828.6721)
(1648960.747 0 683904.1071)
(1614188.409 0 769514.3106)
(1567567.119 0 857569.535)
(1508642.222 0 947780.574)
(1437108.198 0 1039797.943)
(1352659.545 0 1133177.013)
(1255164.483 -7.544026007e-08 1227426.584)
(1144500.971 0 1321943.76)
(1020243.353 0 1415956.525)
(882881.9619 0 1507451.927)
(744669.0442 0 1592929.954)
(632492.5189 0 1677468.585)
(475602.1339 0 1799195.66)
(-176094.6878 0 1940179.468)
(-1089681.594 0 1773659.06)
(1881450.722 0 1502363.331)
(6002326.513 0 2501672.508)
(-10125632.36 0 4938263.034)
(-46427278.3 0 7401031.656)
(-64091393.49 0 8026632.282)
(-37834889.71 0 5861100.513)
(7668144.554 0 1971814.85)
(33161374.82 -3.625686558e-08 -1579988.489)
(35516025.12 0 -3111735.908)
(31814841.02 0 -3012845.441)
(31309305.58 3.669947549e-08 -2187004.776)
(27302052.4 0 1830347.003)
(-29554275.62 0 8293486.762)
(-121910159.3 0 14255770.24)
(-158505779.5 -3.753343139e-08 18924556.55)
(-58744.83496 0 131182.4167)
(281721.2839 0 135171.9151)
(403073.5708 8.3762306e-07 151487.8095)
(400950.5116 0 169312.2319)
(539443.1418 0 193037.317)
(644985.5312 0 221773.0509)
(734717.8231 0 255107.3002)
(815222.7547 0 292521.7315)
(885103.4486 0 333496.4751)
(943796.2544 0 377735.1525)
(992436.6044 0 424993.6085)
(1031161.751 0 474914.6761)
(1059276.684 0 527234.6198)
(1076201.74 0 581737.6681)
(1081870.846 0 638223.9583)
(1076901.744 0 696454.0887)
(1062183.236 0 756105.3696)
(1037819.503 0 816984.2075)
(1003049.155 0 879083.2456)
(958004.2717 0 942153.3839)
(903450.9768 0 1005765.336)
(838854.0478 0 1069762.466)
(764800.4933 0 1133861.474)
(682679.3554 0 1197596.268)
(592424.0942 0 1260706.798)
(494027.6384 0 1322855.737)
(387461.8017 0 1383583.537)
(274110.7437 0 1441343.037)
(167650.9824 0 1493034.062)
(96578.77659 0 1544644.259)
(-16643.31574 0 1636499.589)
(-638336.2453 -7.384602309e-08 1753735.741)
(-1513317.649 -1.470830393e-07 1563753.632)
(1594061.871 0 1246258.685)
(6119044.641 0 2164003.797)
(-8584097.214 0 4531861.978)
(-42592943.98 0 6973252.783)
(-59056644.88 0 7610959.143)
(-34330225.31 0 5492456.245)
(7317627.437 0 1675634.243)
(29580261.02 0 -1782666.188)
(31225445.39 0 -3230836.575)
(28044726.78 0 -3175973.586)
(27977166.02 0 -2504531.027)
(24603320.87 -7.420517157e-08 1354699.114)
(-29114896.69 -3.727101896e-08 7778177.167)
(-117429647.9 0 13697498.1)
(-150634594.5 0 18493647.6)
(-134187783.1 0 19351028.22)
(-117854387.3 0 17157635.85)
(-72886.04706 0 465972.7912)
(231782.5723 0 471118.8344)
(315193.3235 0 479330.28)
(280373.4057 0 492530.0266)
(386835.5066 0 509284.7318)
(462384.136 0 529352.8503)
(523133.2973 0 552276.4197)
(576884.0742 0 577769.4766)
(623772.3895 0 605535.433)
(661658.2759 0 634959.5083)
(689995.3772 0 665614.3361)
(709405.4176 0 697313.0374)
(719900.2727 0 729826.8741)
(721472.2601 0 762813.1199)
(714513.5945 0 795854.842)
(700124.2892 0 828560.413)
(678347.9019 0 860726.5043)
(647038.573 0 892357.6407)
(606491.281 0 923251.0277)
(560070.414 0 952879.8101)
(507091.3781 8.535257652e-08 981068.4682)
(446202.9459 0 1007802.75)
(379857.8415 0 1032725.784)
(307713.6396 0 1055851.114)
(228675.1159 0 1077172.052)
(144714.8589 0 1095291.489)
(68320.10682 0 1107395.919)
(27278.75464 0 1119714.772)
(-55425.60175 0 1173606.547)
(-640295.0135 0 1258982.019)
(-1504490.477 0 1047614.094)
(1461678.411 0 679252.7463)
(6094311.471 0 1493841.906)
(-7158616.747 0 3786649.448)
(-39058839.59 0 6202798.317)
(-54679404.8 0 6840791.285)
(-31186781.44 0 4760152.204)
(7666576.675 0 1009406.532)
(27683560.42 0 -2375617.306)
(28856843.81 0 -3774741.492)
(25977929.55 0 -3757451.781)
(26015543.78 0 -3273973.299)
(23257254.25 0 212322.6667)
(-26911228.55 0 6583384.842)
(-111452616.2 0 12565620.81)
(-143982674.9 0 17411990.01)
(-129014828.3 0 18293074.75)
(-113576279.1 0 16105391.84)
(-101505513.8 0 14067269.1)
(-91795493.22 0 12468844.64)
(-105848.25 0 603974.7639)
(193412.0025 -1.400988854e-06 609715.7142)
(263614.0343 0 611441.2445)
(206364.2156 0 619704.1041)
(296979.8183 0 629443.2212)
(357417.6213 0 640822.0612)
(405232.5138 0 653507.8622)
(446298.414 0 667191.0444)
(481840.2754 0 681777.3995)
(512364.5335 0 697008.7535)
(536279.9784 0 712384.8207)
(552584.8614 -1.205606226e-07 727633.3765)
(561937.8666 1.14029278e-07 742517.247)
(565422.8895 1.085435723e-07 756795.8551)
(563655.0823 0 770255.5361)
(555878.14 0 782743.8173)
(540028.5927 -9.647551764e-08 794224.6553)
(516357.9101 0 804625.989)
(488705.2456 0 813633.8466)
(457234.1341 0 821077.5648)
(418614.3213 0 827134.3534)
(374124.6147 0 831855.143)
(324199.55 -8.342879964e-08 835222.1222)
(267251.9767 0 836119.7289)
(216745.0846 -8.092814413e-08 831735.6874)
(200359.7092 0 828123.2601)
(144227.1268 0 866835.7199)
(-395581.122 0 943452.7285)
(-1252180.169 0 740572.2794)
(1440057.082 0 342065.5309)
(6084979.14 0 1043397.291)
(-5603482.266 0 3245899.824)
(-35585476.06 7.58499712e-08 5643796.251)
(-50931751.59 0 6323094.501)
(-28853328.9 0 4314605.471)
(7865125.336 0 622325.9179)
(26483426.44 0 -2701228.695)
(27418481.31 0 -4031414.762)
(24669136.07 7.52988772e-08 -3983733.878)
(24574496.19 0 -3637204.043)
(23089489.52 0 -688704.6522)
(-20693861.27 0 5592429.001)
(-102291724.8 0 11719104.52)
(-138415192 -3.811246719e-08 16703364.08)
(-125186652.3 0 17723926.96)
(-109819970.3 0 15580475.76)
(-98476025.36 3.86330351e-08 13583563.65)
(-89039252.89 0 11990473.46)
(-80240034.76 0 10617388.27)
(-72913007.94 -1.965723836e-08 9438162.232)
(-124896.2731 0 589427.4009)
(189740.8395 0 594747.3049)
(247467.759 0 592310.3577)
(165596.7093 0 597731.7318)
(249990.5231 5.152344577e-07 603371.6092)
(303945.5924 0 609590.7202)
(346523.0632 0 616548.6751)
(384075.4366 -1.680171976e-07 624020.8286)
(416692.7357 -1.524266145e-07 631709.9971)
(445254.6606 -1.402205198e-07 639544.8312)
(469451.0958 0 647387.0677)
(488338.3145 0 655016.8982)
(501924.8045 -1.158051258e-07 662265.3649)
(510239.1172 1.102339878e-07 669044.3141)
(513194.464 0 675352.8959)
(510632.1324 0 681226.1786)
(502054.1522 -9.797798999e-08 686591.2192)
(487714.2848 0 691173.7711)
(468890.5467 0 694999.8289)
(444966.7532 0 698574.5748)
(413432.6851 8.803177349e-08 701810.283)
(374586.361 0 703308.8653)
(341451.6288 0 700649.6103)
(339752.7345 0 699267.9299)
(302356.0781 0 740663.7094)
(-193211.3883 0 826858.2208)
(-1045484.812 0 655325.8744)
(1307685.809 0 250901.2722)
(5959637.67 7.879848606e-08 846598.9733)
(-3884672.362 0 2949927.938)
(-31723839.2 0 5337154.26)
(-47210329.74 -7.735018209e-08 6109525.84)
(-27307561.43 0 4224924.949)
(7211304.139 0 593011.5489)
(25007308.39 0 -2696582.096)
(25967295.64 0 -3973215.026)
(23235819.36 0 -3861965.098)
(22852441.38 0 -3584883.962)
(22842679.44 0 -1287414.63)
(-12054258.91 0 4768307.341)
(-89885427.92 3.835723106e-08 11078886.69)
(-132464944.6 -3.845223379e-08 16310118.57)
(-122420655.8 0 17738072.61)
(-107146502.6 0 15679572.7)
(-95957157.44 0 13660091.78)
(-86744125.7 0 12067193.75)
(-78495846.96 0 10711695.29)
(-71043235.25 -1.972394122e-08 9521323.217)
(-64220588.59 0 8477462.675)
(-58787262.26 -1.996337258e-08 7587559.254)
(-153135.8117 0 443796.2093)
(184775.1554 0 449677.02)
(238849.8799 8.910339773e-07 446268.8154)
(137407.0866 0 451359.9618)
(221523.6806 0 456301.2157)
(272029.9119 0 461742.8532)
(310152.494 1.914875664e-07 468024.5975)
(344671.3895 0 475029.3617)
(375856.7296 0 482461.0638)
(403367.2034 0 490167.1818)
(426753.2924 -1.32465413e-07 498170.3934)
(445338.583 0 506386.3843)
(458967.3697 0 514744.7269)
(467571.6585 1.119507301e-07 523220.0984)
(470881.5739 0 531798.2202)
(468729.0963 0 540485.9122)
(461542.7488 0 549293.3841)
(448839.2841 0 558104.3607)
(428160.5146 0 566869.3373)
(400584.3094 -9.144149208e-08 574843.4989)
(378831.5799 0 579220.4604)
(384918.116 0 584723.6971)
(359699.9806 -8.604761049e-08 634271.6751)
(-97431.64533 0 735475.5672)
(-952873.678 0 601531.878)
(1033456.862 8.241633638e-08 208748.9299)
(5616628.345 0 718004.1578)
(-2392520.645 0 2716056.872)
(-27916868.71 0 5083908.245)
(-43623833.17 0 5975584.776)
(-26418351.89 0 4267024.829)
(5783529.854 0 731562.1573)
(23233230.69 -7.823088437e-08 -2536128.856)
(24531289.95 0 -3809054.252)
(21779044.44 0 -3656301.696)
(20939414.42 0 -3398161.013)
(21975107.35 7.761726959e-08 -1787763.755)
(-2931035.975 7.761336748e-08 3799340.576)
(-74932956.52 0 10270394.32)
(-125203563.1 0 15794092.25)
(-120297971 0 17875493.88)
(-105097323.9 0 16003958.27)
(-93911325.71 0 13929758.1)
(-84931948.56 0 12309260.42)
(-76973643 -3.946842698e-08 10943848.36)
(-69723443.79 0 9746128.233)
(-63197119.54 -3.984571719e-08 8694418.449)
(-57492506.82 0 7781219.115)
(-52423224.53 0 6992585.622)
(-48414291.34 -2.027427456e-08 6319422.393)
(-176483.1248 0 216855.9159)
(185421.3243 0 223245.59)
(230450.3211 0 220524.8463)
(104349.7469 0 226986.5532)
(185127.5415 2.657037731e-07 233711.4699)
(229295.1592 0 241485.3398)
(260487.456 0 250599.5674)
(289008.6432 0 260884.7384)
(315223.5015 0 272076.7315)
(337999.841 -1.44622009e-07 284005.7105)
(356684.8102 1.345283774e-07 296711.9046)
(370979.1284 0 310136.0908)
(380516.9343 0 324172.0101)
(384960.1604 0 338758.7119)
(383991.8886 0 353906.5867)
(377272.508 0 369678.6671)
(365286.4341 0 385947.9708)
(348749.304 9.794016005e-08 401392.9241)
(334146.1094 0 412843.9265)
(344032.9333 0 425625.8359)
(330416.7934 0 486528.0658)
(-100510.6994 0 606408.1306)
(-970875.9077 0 509536.563)
(664132.659 0 146987.6568)
(5056204.795 0 615039.0126)
(-1400450.105 0 2527824.507)
(-24563493.42 0 4866263.267)
(-40250505.63 0 5868049.247)
(-25819422.89 0 4349307.296)
(4010519.04 0 935408.4864)
(21318518.96 0 -2320008.415)
(23135992.06 0 -3643060.354)
(20434585.83 0 -3486326.633)
(19120330.77 0 -3203464.477)
(20494396.71 0 -2195307.28)
(5057612.056 0 2648017.639)
(-58311840.22 -7.882605049e-08 9213051.08)
(-115665670.6 0 15029662.73)
(-118318784.9 0 17929613.84)
(-103504759.9 3.948647112e-08 16418118.02)
(-92181114.62 0 14274707.92)
(-83356948.63 0 12605600.62)
(-75649933.11 0 11219170.54)
(-68632979.18 0 10006566.32)
(-62269766.56 0 8937473.476)
(-56620552.94 2.013252822e-08 8003555.498)
(-51685361.36 -2.023312938e-08 7195419.644)
(-47383948 0 6497010.468)
(-43517155.35 0 5887035.647)
(-40443469.67 0 5358583.115)
(-208221.6441 0 -96254.52739)
(173343.7957 0 -89503.73298)
(209454.0146 0 -90698.88054)
(57916.11162 0 -82389.45888)
(132209.6649 -2.698417427e-07 -73239.44377)
(166126.6822 0 -62502.51308)
(186458.2714 0 -49837.47224)
(205352.3038 0 -35458.42904)
(223170.1804 0 -19802.83494)
(237654.345 0 -2886.249586)
(247731.2827 0 15516.06751)
(253724.8582 0 35262.23472)
(255519.247 -1.213003381e-07 56102.69877)
(252255.432 1.154648371e-07 77887.91952)
(242770.9396 0 100403.5283)
(227932.5101 0 122302.877)
(218920.9899 0 140438.1172)
(239583.3532 9.946544286e-08 161525.7976)
(235056.2211 -9.671412354e-08 239377.351)
(-202361.1967 0 384060.9912)
(-1115171.353 0 321992.9023)
(224980.8106 0 14006.80171)
(4297747.057 8.874862475e-08 512703.1894)
(-1149332.655 0 2385902.463)
(-22153297.68 0 4689149.47)
(-37350007.8 0 5760178.617)
(-25249848.9 0 4400669.708)
(2296520.664 0 1118200.579)
(19410485.73 0 -2122026.485)
(21780191.05 0 -3526183.214)
(19235478.37 0 -3395198.648)
(17540376.22 0 -3063215.11)
(18657929.65 -8.068653343e-08 -2481483.414)
(10826203.8 0 1394522.71)
(-41232207.68 0 7916361.656)
(-103414978.2 0 14003559.33)
(-116037301.5 0 17776695.08)
(-102354260.5 0 16872038.17)
(-90763468.58 4.00501495e-08 14675651.91)
(-82013603.85 0 12940322.07)
(-74519921.82 4.017736749e-08 11525506.5)
(-67716642.5 0 10295174.62)
(-61511749.81 0 9207078.192)
(-55950070.97 0 8251022.393)
(-51050930.9 2.035366581e-08 7419157.568)
(-46752650.39 0 6698148.586)
(-42957313.12 0 6070236.921)
(-39582900.3 0 5519290.843)
(-36547503.31 0 5031636.549)
(-34166742.41 0 4606197.735)
(-233903.9733 0 -488548.0134)
(161716.5349 0 -482233.3375)
(181530.3983 0 -482257.4803)
(375.0859275 0 -472979.7071)
(64372.15669 0 -462251.1479)
(84691.3806 0 -449608.4274)
(90574.7088 0 -434780.3805)
(97056.04325 0 -418052.5203)
(103234.3677 0 -399455.3248)
(103839.5748 0 -378661.5624)
(99131.94278 0 -355994.5866)
(91928.52017 0 -331790.4488)
(82000.64423 0 -306194.5822)
(68931.72338 0 -280674.3148)
(61386.55497 0 -258037.6604)
(81353.31744 0 -224475.8012)
(68585.21807 -1.042255431e-07 -117444.7033)
(-419201.0641 -1.010144801e-07 66967.80244)
(-1410825.356 0 41350.77788)
(-280496.8915 0 -176334.5207)
(3340945.561 0 453321.4071)
(-1809832.378 0 2354981.942)
(-21013888.95 0 4618505.403)
(-35102678.34 0 5692222.278)
(-24502845.15 0 4415087.772)
(1026563.184 0 1232527.985)
(17681507.66 0 -1991592.775)
(20416532.92 0 -3478814.614)
(18104841.76 0 -3390982.817)
(16183796.67 0 -3008110.199)
(16746474.12 -8.270409717e-08 -2663035.152)
(13947016.04 0 170525.2564)
(-25190729.01 0 6426393.45)
(-88493749.36 0 12749304.69)
(-112627406.6 0 17337249.61)
(-101582246.3 0 17326099.63)
(-89628767.63 0 15136101.18)