/*--------------------------------*- C++ -*----------------------------------*\
  =========                 |
  \\      /  F ield         | OpenFOAM: The Open Source CFD Toolbox
   \\    /   O peration     | Website:  https://openfoam.org
    \\  /    A nd           | Version:  7
     \\/     M anipulation  |
\*---------------------------------------------------------------------------*/
FoamFile
{
    version     2.0;
    format      ascii;
    class       volScalarField;
    location    "0.0012";
    object      p;
}
// * * * * * * * * * * * * * * * * * * * * * * * * * * * * * * * * * * * * * //

dimensions      [1 -1 -2 0 0 0 0];

internalField   nonuniform List<scalar> 
14000
(
1117219.219
1146785.41
1145170.021
1147229.333
1152776.555
1159759.436
1167846.122
1177090.281
1187495.476
1199047.889
1211748.64
1225612.028
1240659.978
1256919.954
1274424.503
1293207.068
1313288.148
1334692.551
1357489.205
1381733.45
1407474.861
1434744.821
1463602.185
1494157.643
1526473.327
1560633.357
1596775.777
1634983.564
1675430.188
1718232.121
1763528.752
1811530.496
1862403.098
1916268.327
1973213.403
2033339.114
2096605.108
2162895.588
2231903.308
2303262.473
2376366.465
2450477.426
2524733.55
2598209.919
2670020.706
2739224.764
2804654.448
2865885.737
2926861.672
2990497.989
1263383.048
1299206.178
1297300.587
1299935.972
1306827.738
1315414.772
1325227.922
1336284.252
1348529.049
1361926.144
1376446.845
1392081.148
1408835.463
1426713.795
1445722.101
1465947.002
1487443.716
1510222.99
1534394.907
1560019.225
1587160.468
1615897.608
1646292.691
1678363.865
1712172.094
1747706.582
1784902.108
1823649.282
1863805.535
1905164.276
1947414.924
1990176.119
2033042.644
2075589.247
2117360.272
2157914.634
2196883.346
2233949.307
2268862.468
2301416.051
2331483.679
2358959.558
2383712.624
2405594.468
2424375.553
2439779.424
2451472.677
2458685.735
2459783.832
2454729.312
1291082.272
1328331.784
1325861.972
1327216.263
1332496.8
1339255.961
1347082.444
1356081.96
1366310.192
1377769.64
1390446.247
1404331.356
1419480.72
1435890.709
1453571.192
1472549.467
1492823.277
1514416.719
1537292.872
1561356.929
1586583.26
1612906.774
1640202.435
1668272.099
1696948.095
1726032.015
1755265.762
1784456.635
1813324.452
1841641.405
1869217.202
1895859.779
1921384.206
1945697.509
1968657.012
1990186.672
2010173.646
2028503.455
2045115.812
2059859.428
2072616.962
2083214.196
2091513.166
2097360.871
2100580.908
2101043.545
2098668.645
2093221.254
2084009.276
2071869.322
1487342.873
1520697.596
1518331.057
1519847.215
1525101.593
1531829.724
1539654.684
1548633.695
1558825.308
1570213.87
1582730.357
1596393.294
1611155.312
1627031.658
1643960.265
1661893.551
1680761.275
1700504.636
1720990.284
1742128.262
1763794.817
1785833.052
1808086.933
1830425.454
1852628.817
1874539.097
1896036.655
1916973.297
1937161.784
1956498.486
1974847.873
1992113.907
2008134.261
2022835.913
2036149.422
2047934.995
2058151.5
2066701.401
2073528.636
2078567.426
2081771.73
2083111.016
2082562.568
2080103.662
2075750.021
2069563.131
2061612.473
2051763.302
2039516.744
2025812.158
1544791.352
1574861.419
1573345.006
1574964.86
1579811.64
1585984.962
1593132.915
1601316.603
1610527.625
1620676.026
1631779.767
1643782.792
1656590.403
1670181.047
1684468.833
1699323.264
1714700.669
1730478.126
1746531.923
1762798.146
1779105.596
1795309.543
1811298.047
1826975.584
1842221.428
1856888.156
1870894.709
1884123.615
1896474.08
1907882.709
1918269.802
1927532.114
1935664.252
1942549.145
1948196.892
1952546.397
1955563.339
1957238.892
1957558.219
1956519.146
1954115.4
1950367.984
1945321.278
1939009.942
1931458.032
1922708.747
1912956.917
1902342.181
1890667.925
1878415.106
1681470.846
1705537.281
1704480.213
1706330.242
1710929.127
1716706.862
1723372.086
1730908.904
1739311.439
1748422.944
1758278.632
1768746.643
1779730.635
1791139.647
1802949.863
1815002.853
1827200.353
1839479.531
1851729.854
1863832.943
1875668.347
1887159.228
1898225.576
1908763.57
1918702.781
1927985.03
1936478.209
1944163.107
1950976.233
1956860.988
1961785.391
1965688.16
1968596.854
1970420.507
1971178.006
1970887.189
1969496.366
1967022.132
1963518.777
1958983.606
1953410.002
1946883.19
1939528.205
1931436.467
1922032.804
1909258.327
1896396.812
1915571.955
2007499.74
2107778.411
1710341.494
1730116.596
1729691.272
1731406.341
1735265.99
1740055.591
1745577.508
1751722.962
1758476.833
1765785.014
1773502.886
1781608.613
1790005.899
1798578.535
1807256.614
1815984.332
1824649.139
1833168.486
1841469.129
1849465.951
1857062.816
1864242.294
1870934.302
1877023.733
1882493.192
1887300.412
1891394.49
1894717.665
1897275.301
1899002.82
1899911.455
1899987.126
1899186.801
1897563.872
1895086.233
1891753.446
1887621.378
1882695.295
1876992.546
1870596.065
1863639.976
1856188.061
1847144.436
1834645.108
1827731.998
1868918.953
1957571.057
2043799.451
2116564.906
2180354.706
1782302.226
1797070.377
1796711.033
1798162.192
1801318.272
1805246.13
1809681.198
1814631.052
1819960.879
1825692.046
1831673.13
1837817.517
1844098.051
1850418.356
1856696.683
1862855.202
1868823.567
1874547.062
1879967.295
1885022.724
1889647.428
1893805.469
1897432.874
1900483.871
1902954.132
1904751.495
1905927.32
1906385.026
1906178.756
1905240.001
1903596.787
1901249.467
1898158.384
1894406.212
1889961.165
1884847.656
1879137.652
1872847.242
1866182.052
1859137.089
1850436.42
1838102.392
1833578.71
1885387.994
1975539.372
2063589.611
2137509.397
2175347.198
2145733.876
2101778.584
1787601.483
1799617.138
1799447.034
1800510.041
1802839.21
1805757.012
1808975.854
1812572.561
1816413.566
1820435.687
1824609.487
1828844.083
1833073.757
1837241.86
1841292.068
1845169.575
1848814.693
1852149.529
1855133.628
1857746.292
1859957.766
1861681.758
1862911.232
1863618.91
1863776.136
1863371.575
1862379.065
1860798.514
1858617.452
1855836.223
1852469.278
1848496.563
1843982.727
1838900.914
1833300.361
1827260.096
1820921.694
1814339.365
1806008.309
1793874.711
1790727.24
1848735.667
1941635.926
2031812.579
2103380.919
2123293.039
2094622.461
2058077.488
2022571.747
1988568.03
1816980.393
1826392.347
1826013.637
1826705.862
1828438.154
1830551.137
1832918.836
1835464.104
1838195.321
1841026.094
1843896.112
1846761.186
1849566.685
1852249.045
1854759.856
1857067.757
1859140.221
1860926.986
1862368.41
1863421.117
1864122.958
1864399.307
1864224.992
1863628.984
1862528.314
1860997.846
1858952.562
1856468.365
1853476.564
1850057.605
1846160.148
1841845.578
1837116.774
1832049.958
1826826.671
1821444.372
1814296.473
1803286.256
1802000.178
1865105.706
1960871.048
2053376.82
2125072.026
2137313.985
2110288.794
2078534.155
2049394.15
2022711.225
1998856.05
1979701.681
1805809.019
1814161.784
1813697.031
1814012.326
1815070.705
1816367.689
1817820.338
1819363.205
1820942.559
1822567.661
1824173.037
1825711.248
1827145.045
1828438.971
1829559.99
1830473.871
1831143.768
1831546.81
1831676.139
1831500.154
1830988.901
1830158.815
1828984.316
1827458.814
1825590.525
1823368.908
1820810.023
1817924.697
1814714.308
1811214.787
1807410.931
1803403.007
1799359.502
1795261.169
1789470.961
1779764.458
1780297.905
1846879.743
1944065.598
2037775.804
2110071.308
2120027.719
2095518.157
2067661.99
2042377.759
2019375.392
1999451.156
1986109.333
1983233.272
1988787.847
1808323.096
1815753.891
1815065.941
1815032.884
1815603.412
1816368.127
1817143.781
1817981.463
1818824.912
1819626.612
1820353.213
1820999.661
1821541.242
1821948.704
1822191.949
1822232.641
1822062.522
1821673.955
1821064.153
1820207.347
1819089.824
1817733.482
1816102.658
1814211.693
1812097.699
1809712.693
1807131.347
1804281.004
1801261.855
1798043.793
1794915.372
1791751.011
1786956.884
1778243.542
1779904.292
1848013.373
1945627.958
2039897.999
2112534.113
2120955.392
2097717.085
2071841.676
2048371.867
2027007.532
2008577.037
1996349.86
1993836.491
2000117.257
2010752.662
2022195.879
1788390.73
1795833.383
1794965.616
1794613.777
1794817.444
1795092.288
1795363.822
1795569.189
1795767.542
1795914.296
1795974.609
1795929.779
1795762.295
1795455.556
1794995.037
1794369.78
1793581.068
1792636.755
1791481.245
1790111.162
1788573.483
1786833.138
1784872.188
1782759.153
1780422.947
1777924.068
1775242.905
1772431.78
1769699.756
1766967.082
1762618.779
1754407.155
1756271.92
1823623.499
1921009.124
2015662.05
2088516.575
2095265.713
2072173.718
2046913.44
2023766.973
2002438.954
1983806.942
1971259.762
1968579.151
1974823.466
1984886.535
1995230.875
2005014.78
2013917.557
1776647.771
1784053.523
1782960.874
1782425.944
1782399.94
1782387.386
1782351.315
1782255.735
1782072.216
1781822.774
1781504.251
1781081.216
1780536.332
1779859.849
1779048.209
1778109.826
1777025.204
1775770.567
1774314.987
1772721.739
1770972.661
1769025.497
1766927.951
1764667.084
1762214.249
1759659.324
1757164.635
1754681.896
1750621.016
1742780.435
1744337.349
1809131.273
1905970.673
2001167.381
2074633.85
2080705.505
2057608.133
2032523.162
2009391.668
1987749.024
1968501.853
1955016.213
1951461.979
1957350.375
1967487.617
1977932.376
1987421.345
1995530.841
2002222.943
2007752.115
1752318.353
1760169.793
1758970.674
1758275.578
1758037.438
1757821.835
1757508.863
1757158.026
1756691.904
1756132.933
1755482.937
1754730.046
1753864.584
1752879.211
1751764.639
1750513.297
1749120.101
1747574.257
1745865.342
1744017.75
1742020.047
1739860.442
1737534.687
1735101.786
1732746.168
1730384.965
1726554.919
1719051.112
1720004.098
1780863.814
1876635.851
1972245.616
2046717.574
2053910.21
2031209.983
2006262.271
1983243.792
1961559.127
1941838.435
1927298.181
1922649.055
1928119.012
1938532.545
1949465.859
1959481.272
1968141.72
1975155.983
1980560.207
1984899.924
1988694.185
1732026.75
1740223.216
1738873.59
1738040.694
1737681.767
1737343.321
1736886.098
1736350.676
1735714.038
1734974.76
1734133.743
1733182.53
1732113.499
1730921.061
1729600.113
1728143.966
1726547.343
1724813.031
1722944.431
1720908.662
1718720.579
1716459.148
1714239.309
1712021.837
1708474.624
1701369.677
1701702.695
1758147.796
1852488.651
1948210.043
2023816.292
2033953.814
2012190.305
1987462.447
1964506.419
1942977.169
1923148.376
1907609.054
1901430.884
1906149.574
1916828.377
1928406.324
1939093.795
1948450.281
1956204.019
1962299.262
1967018.908
1970878.564
1974462.198
1977975.526
1704063.697
1712736.953
1711271.563
1710318.326
1709861.603
1709387.104
1708788.774
1708078.687
1707263.143
1706342.099
1705309.521
1704160.691
1702890.268
1701491.783
1699961.385
1698296.008
1696492.028
1694556.485
1692514.36
1690360.347
1688238.499
1686159.219
1682846.936
1676108.971
1675946.218
1728385.094
1820954.512
1916252.611
1992821.108
2006952.693
1986478.524
1962036.877
1939129.247
1917693.67
1897787.785
1881434.123
1873484.553
1876899.282
1887627.128
1899908.162
1911369.462
1921506.141
1930058.354
1936928.421
1942335.423
1946713.573
1950504.48
1954027.994
1957503.156
1960909.039
1677697.965
1686691.463
1685095.797
1684044.753
1683526.401
1682954.455
1682260.6
1681425.065
1680491.884
1679454.214
1678297.011
1677015.946
1675608.962
1674073.588
1672405.281
1670597.89
1668656.263
1666641.578
1664714.99
1662822.049
1659710.8
1653299.211
1652999.467
1702953.282
1793684.34
1887991.01
1965093.047
1983278.145
1964398.527
1940418.593
1917717.819
1896287.068
1876309.392
1859216.798
1849460.463
1851072.575
1861351.161
1874227.204
1886505.83
1897492.821
1906920.071
1914633.344
1920775.898
1925759.693
1930040.482
1933931.084
1937547.42
1940944.84
1944255.615
1947475.799
1646443.302
1655805.938
1654120.46
1652971.07
1652373.324
1651710.849
1650908.548
1649933.371
1648885.504
1647721.882
1646408.282
1644959.372
1643390.999
1641704.48
1639911.286
1638068.597
1636292.644
1634498.869
1631465.996
1625263.691
1625317.858
1675350.938
1764287.923
1856871.333
1933743.346
1955090.875
1937467.491
1914229.989
1891937.102
1870488.813
1850387.221
1832628.98
1821014.603
1820435.889
1829859.558
1843117.606
1856135.207
1867941.576
1878266.487
1886897.34
1893868.878
1899523.708
1904332.07
1908662.147
1912682.676
1916423.528
1919875.573
1923076.236
1926174.172
1929176.31
1616178.607
1625720.521
1623987.948
1622770.657
1622076.141
1621362.874
1620440.872
1619403.903
1618256.464
1616938.406
1615493.11
1613937.873
1612290.005
1610605.238
1608981.554
1607298.564
1604269.608
1598055.252
1599172.985
1653100.3
1740517.168
1830506.795
1906029.785
1928661.916
1911900.062
1889227.396
1867478.01
1846369.598
1826080.18
1807708.242
1794278.268
1791123.092
1799118.078
1812510.763
1826227.629
1838806.117
1849977.501
1859517.098
1867354.092
1873737.905
1879120.388
1883914.348
1888346.521
1892476.247
1896305.584
1899832.344
1903065.231
1906051.236
1908949.723
1911785.16
1582996.369
1592620.001
1590829.495
1589575.86
1588801.081
1587966.525
1586947.896
1585800.196
1584489.262
1583064.723
1581568.141
1580005.986
1578443.534
1576749.207
1573477.285
1566897.522
1570105.877
1633145.714
1719412.36
1805657.371
1878256.371
1899131.46
1882696.798
1860650.371
1839322.882
1818450.904
1798199.384
1779299.785
1764319.529
1758550.284
1764606.074
1777751.019
1792069.697
1805390.202
1817380.443
1827816.297
1836548.016
1843712.548
1849703.06
1854956.659
1859775.704
1864273.602
1868456.169
1872321.432
1875882.054
1879150.177
1882141.921
1884923.01
1887663.401
1890378.659
1551056.923
1560614.427
1558742.886
1557393.206
1556562.008
1555639.332
1554557.652
1553328.694
1551976.812
1550501.012
1548914.683
1546868.992
1542920.425
1537841.33
1552350.79
1623381.798
1706569.393
1787770.313
1855634.27
1870518.898
1853638.999
1832401.328
1811620.815
1791022.674
1770894.824
1751818.317
1735535.918
1727053.289
1730628.542
1743110.595
1757925.127
1771923.499
1784620.629
1795859.725
1805452.665
1813417.781
1820065.831
1825823.011
1831034.212
1835870.881
1840371.954
1844541.026
1848387.516
1851928.729
1855183.644
1858180.084
1860950.147
1863562.372
1866173.467
1868783.424
1516413.233
1526050.06
1524268.346
1522979.915
1522171.139
1521205.912
1519949.954
1518434.889
1516645.656
1513767.355
1508390.334
1509225.534
1552533.421
1624013.091
1699845.95
1774701.983
1835858.683
1839330.459
1821081.888
1800997.812
1781055.927
1760915.815
1741064.089
1722047.392
1705047.982
1694378.343
1695269.928
1706452.92
1721405.716
1735976.934
1749330.959
1761325.694
1771748.682
1780511.392
1787820.833
1794084.969
1799694.456
1804877.612
1809700.441
1814171.672
1818299.038
1822099.534
1825590.839
1828799.8
1831765.121
1834525.802
1837110.687
1839568.121
1842034.539
1844505.604
1490545.486
1498729.571
1496005.121
1493520.762
1491182.404
1488686.391
1485390.775
1480279.859
1479817.926
1512210.075
1572251.328
1637941.285
1704442.212
1769771.92
1814723.336
1807219.374
1788482.493
1769759.626
1750780.357
1731292.872
1711924.606
1693186.796
1675862.004
1663508.69
1661808.059
1671346.468
1686129.795
1701121.768
1715003.841
1727640.441
1738831.87
1748394.919
1756403.817
1763198.732
1769187.585
1774669.485
1779764.408
1784496.256
1788873.622
1792906.739
1796613.62
1800015.467
1803146.741
1806050.316
1808766.93
1811321.936
1813725.957
1816016.75
1818324.122
1820645.337
1426707.52
1437543.289
1435823.968
1433677.314
1434901.342
1456051.278
1498401.16
1547602.537
1599973.227
1655081.716
1713186.407
1765266.745
1778746.859
1766821.875
1750777.235
1734142.495
1716586.986
1698351.786
1680080.823
1662199.086
1645206.76
1631988.14
1628371.146
1636360.863
1650819.242
1666149.795
1680484.804
1693646.823
1705474.27
1715756.958
1724466.994
1731842.429
1738260.332
1744060.592
1749427.738
1754413.046
1759026.1
1763278.329
1767188.471
1770774.482
1774064.581
1777099.043
1779922.112
1782570.123
1785065.094
1787418.548
1789637.73
1791757.716
1793900.073
1796059.505
1499859.443
1516270.979
1531143.463
1553266.163
1582065.512
1615957.953
1654819.009
1698508.769
1740432.291
1754897.401
1745928.205
1732703.442
1718859.962
1703548.254
1686886.929
1669532.543
1652075.609
1634806.235
1618011.947
1604255.947
1599074.59
1605361.055
1619008.762
1634257.675
1648737.172
1662158.991
1674385.539
1685192.175
1694456.576
1702303.433
1709061.662
1715103.752
1720678.711
1725866.023
1730676.057
1735116.177
1739203.497
1742956.89
1746397.471
1749559.475
1752485.662
1755216.846
1757782.232
1760199.914
1762483.794
1764644.438
1766687.81
1768645.575
1770628.072
1772634.339
1673058.375
1676378.222
1690362.571
1710985.571
1733974.327
1743431.222
1737298.487
1727634.298
1717273.009
1705753.059
1692528.353
1677892.917
1661931.799
1645114.902
1628201.436
1611394.617
1594848.746
1580785.488
1574429.583
1579005.72
1591326.045
1605901.554
1619975.616
1633181.238
1645414.779
1656431.951
1666034.091
1674232.562
1681270.749
1687489.473
1693173.531
1698460.364
1703382.2
1707944.134
1712156.137
1716034.275
1719593.431
1722859.56
1725871.001
1728670.731
1731293.868
1733761.859
1736089.242
1738289.633
1740375.697
1742356.222
1744234.717
1746040.764
1747880.195
1749747.399
1727580.056
1713477.109
1712637.15
1709699.363
1704499.759
1697938.201
1689846.847
1680036.472
1668469.226
1655061.822
1640425.068
1624827.043
1608347.366
1592101.074
1576260.133
1562563.492
1555800.287
1559002.033
1569647.619
1582800.472
1595841.367
1608294.328
1620042.843
1630835.455
1640419.82
1648702.485
1655818.144
1662056.059
1667716.502
1672987.423
1677922.429
1682522.637
1686789.557
1690733.83
1694368.094
1697707.884
1700782.521
1703631.171
1706292.242
1708793.369
1711150.848
1713377.098
1715484.938
1717484.676
1719386.551
1721197.03
1722921.42
1724585.777
1726289.097
1728023.528
1708841.972
1689977.332
1688434.36
1683828.402
1676106.933
1666172.132
1654566.902
1641306.384
1626897.581
1611516.268
1595964.313
1579612.37
1563853.268
1550989.88
1544473.618
1546533.517
1554998.089
1565979.212
1577229.92
1588278.081
1598976.117
1609043.105
1618171.642
1626170.776
1633078.132
1639113.584
1644561.934
1649642.253
1654433.17
1658937.643
1663147.695
1667064.284
1670694.21
1674043.702
1677130.869
1679987.195
1682650.546
1685152.542
1687512.233
1689741.627
1691851.576
1693853.153
1695756.325
1697569.56
1699301.71
1700959.2
1702542.765
1704073.781
1705645.454
1707252.271
1664490.682
1643415.601
1640950.169
1635254.081
1626852.263
1616267.42
1604282.459
1591643.908
1577717.502
1563693.725
1549953.302
1539186.575
1534688.408
1536781.54
1543426.227
1552211.742
1561562.36
1571061.299
1580535.223
1589677.212
1598129.377
1605670.152
1612262.73
1618041.774
1623235.865
1628061.653
1632636.998
1636981.389
1641079.766
1644921.668
1648505.816
1651833.938
1654911.2
1657757.753
1660405.706
1662888.794
1665231.335
1667445.263
1669540.016
1671526.68
1673414.158
1675211.15
1676924.208
1678563.531
1680136.495
1681646.193
1683093.039
1684500.172
1685950.746
1687438.112
1617173.235
1596547.395
1594254.211
1588615.877
1580386.845
1570717.407
1559642.095
1548441.13
1538203.385
1531219.45
1528744.832
1531004.893
1535971.727
1542391.309
1549710.343
1557488.765
1565513.852
1573469.479
1580999.094
1587875.355
1593990.262
1599379.256
1604206.58
1608681.009
1612950.195
1617046.471
1620955.113
1624652.068
1628127.136
1631376.703
1634397.231
1637197.241
1639799.591
1642235.622
1644532.81
1646707.568
1648768.794
1650723.966
1652582.073
1654350.728
1656036.546
1657644.28
1659182.197
1660657.407
1662075.08
1663438.834
1664753.039
1666041.021
1667377.373
1668750.322
1567530.017
1548507.101
1546748.062
1542343.602
1535918.24
1529605.964
1524617.742
1521785.587
1521772.681
1523768.528
1527557.662
1532389.014
1538138.274
1544552.951
1551367.281
1558295.405
1564998.449
1571264.381
1576942.537
1581985.521
1586494.324
1590679.558
1594687.003
1598560.014
1602285.675
1605839.07
1609203.718
1612370.399
1615332.571
1618086.379
1620642.49
1623024.991
1625265.991
1627388.227
1629401.937
1631313.156
1633129.006
1634857.752
1636505.846
1638077.324
1639579.203
1641018.034
1642398.646
1643723.245
1644998.903
1646232.039
1647425.758
1648599.221
1649824.003
1651087.319
1522222.757
1508363.478
1509142.552
1509256.844
1508963.044
1509235.328
1510626.971
1513084.141
1516406.93
1520730.675
1525766.759
1531463.053
1537535.307
1543781.502
1549890.601
1555700.131
1561051.598
1565837.099
1570157.085
1574162.183
1577974.739
1581663.554
1585231.541
1588647.121
1591900.358
1594985.267
1597886.19
1600592.748
1603107.915
1605448.72
1607641.872
1609712.665
1611677.103
1613542.731
1615314.07
1616996.609
1618597.556
1620123.649
1621579.128
1622970.872
1624304.188
1625585.081
1626817.409
1628006.824
1629157.806
1630274.141
1631359.219
1632430.49
1633549.997
1634706.75
1498564.152
1490871.264
1492906.442
1494942.432
1497127.179
1500042.19
1503640.068
1507871.609
1512759.231
1518100.482
1523747.221
1529539.815
1535256.876
1540734.454
1545856.624
1550488.059
1554714.647
1558634.164
1562337.857
1565895.569
1569361.108
1572707.32
1575903.194
1578935.037
1581794.836
1584474.03
1586961.794
1589268.866
1591419.624
1593442.289
1595359.315
1597182.127
1598913.607
1600558.147
1602122.821
1603613.096
1605033.194
1606386.194
1607678.656
1608916.492
1610103.377
1611243.964
1612345.582
1613416.789
1614461.113
1615477.283
1616467.681
1617448.056
1618473.483
1619530.755
1490246.241
1486245.366
1488478.519
1491151.941
1494258.597
1497945.178
1502167.783
1506849.832
1511862.727
1517004.202
1522194.327
1527213.542
1532002.848
1536425.381
1540524.42
1544351.059
1547951.952
1551440.126
1554839.541
1558123.718
1561266.667
1564244.079
1567061.773
1569723.264
1572210.29
1574519.699
1576664.939
1578670.265
1580559.425
1582346.288
1584041.326
1585650.48
1587179.758
1588634.529
1590020.491
1591342.824
1592606.06
1593814.656
1594971.51
1596076.752
1597139.185
1598166.082
1599163.333
1600135.799
1601088.947
1602021.998
1602932.167
1603833.867
1604777.685
1605750.651
1489872.074
1487649.841
1489701.125
1492264.968
1495279.665
1498776.41
1502688.101
1506911.943
1511252.471
1515610.939
1519862.807
1523921.748
1527764.873
1531419.733
1534883.134
1538275.088
1541587.176
1544784.052
1547848.547
1550797.628
1553607.408
1556261.078
1558746.868
1561050.899
1563187.222
1565177.013
1567049.197
1568821.874
1570503.506
1572099.11
1573612.25
1575047.501
1576411.229
1577709.711
1578946.485
1580127.367
1581257.106
1582341.157
1583381.758
1584382.277
1585347.266
1586284.85
1587199.92
1588096.202
1588976.088
1589840.511
1590684.345
1591521.373
1592396.708
1593296.707
1491722.759
1490251.531
1492025.066
1494257.691
1496857.835
1499833.178
1503123.339
1506587.633
1510086.525
1513589.919
1516978.903
1520311.024
1523538.288
1526735.771
1529883.868
1532930.472
1535904.759
1538784.118
1541534.237
1544128.408
1546577.756
1548885.66
1551037.697
1553037.855
1554902.204
1556652.746
1558311.406
1559886.568
1561382.884
1562807.473
1564163.963
1565455.069
1566682.521
1567849.219
1568963.883
1570030.853
1571052.567
1572032.599
1572978.636
1573898.007
1574789.572
1575659.37
1576512.058
1577349.576
1578172.961
1578981.392
1579772.797
1580557.19
1581374.112
1582211.064
1493782.008
1492528.533
1493986.676
1495798.859
1497869.073
1500240.96
1502854.487
1505568.935
1508368.877
1511207.249
1514065.189
1516933.317
1519815.807
1522635.936
1525439.566
1528173.64
1530787.129
1533301.018
1535714.455
1537993.666
1540113.187
1542085.677
1543930.808
1545675.366
1547328.763
1548897.516
1550381.571
1551790.506
1553131.471
1554408.705
1555626.829
1556790.92
1557903.776
1558966.555
1559981.771
1560953.923
1561888.324
1562791.111
1563668.036
1564523.822
1565360.931
1566180.754
1566986.214
1567778.426
1568557.676
1569322.801
1570071.484
1570810.517
1571577.736
1572362.791
1495073.078
1493822.426
1494976.831
1496375.974
1497991.872
1499882.452
1501952.834
1504162.28
1506524.7
1508937.05
1511452.253
1513964.251
1516498.239
1519001.166
1521434.187
1523825.231
1526129.256
1528308.191
1530370.302
1532325.747
1534159.276
1535870.829
1537486.703
1539025.475
1540496.688
1541903.371
1543241.482
1544511.67
1545722.328
1546878.524
1547982.501
1549039.234
1550054.438
1551031.178
1551964.084
1552861.266
1553730.27
1554576.055
1555402.211
1556212.264
1557008.139
1557789.958
1558558.876
1559315.954
1560060.749
1560789.396
1561499.991
1562200.283
1562925.605
1563664.509
1495377.947
1494059.97
1495007.023
1496154.361
1497505.106
1499061.588
1500786.629
1502709.808
1504736.543
1506859.408
1509033.963
1511241.463
1513427.05
1515619.112
1517744.013
1519794.624
1521782.986
1523664.753
1525427.627
1527092.071
1528683.946
1530202.259
1531643.452
1533019.373
1534334.372
1535592.8
1536803.09
1537959.91
1539061.297
1540114.621
1541125.612
1542097.222
1543031.692
1543931.588
1544800.412
1545642.012
1546462.566
1547266.091
1548055.369
1548831.409
1549594.553
1550345.805
1551085.961
1551814.536
1552528.567
1553223.123
1553900.486
1554567.189
1555255.3
1555953.767
1495048.829
1493697.034
1494554.928
1495577.566
1496731.809
1498043.802
1499559.216
1501231.69
1502982.637
1504841.746
1506719.522
1508645.074
1510547.396
1512428.168
1514273.339
1516030.707
1517712.235
1519327.653
1520854.795
1522309.299
1523708.814
1525063.958
1526362.239
1527599.576
1528786.045
1529925.556
1531021.412
1532077.474
1533087.86
1534057.603
1534991.74
1535891.494
1536758.97
1537599.832
1538419.292
1539218.811
1540003.134
1540775.058
1541535.489
1542284.221
1543019.92
1543746.315
1544461.595
1545162.393
1545845.293
1546510.654
1547158.174
1547793.578
1548447.531
1549111.329
1494473.793
1493098.766
1493880.322
1494777.882
1495759.618
1496911.098
1498244.815
1499683.493
1501222.037
1502828.444
1504468.599
1506123.608
1507774.978
1509381.363
1510954.496
1512461.01
1513901.185
1515296.225
1516647.145
1517943.671
1519194.121
1520403.398
1521575.226
1522697.637
1523776.528
1524815.97
1525817.224
1526784.223
1527718.839
1528618.629
1529486.081
1530325.331
1531141.477
1531938.289
1532718.176
1533485.187
1534241.46
1534987.672
1535723.365
1536446.718
1537160.46
1537864.08
1538553.572
1539226.193
1539879.714
1540517.831
1541137.134
1541743.173
1542363.576
1542995.088
1493742.889
1492329.254
1493038.592
1493820.953
1494672.772
1495701.44
1496865.073
1498106.554
1499451.341
1500832.751
1502258.453
1503673.571
1505089.897
1506459.467
1507794.799
1509102.647
1510364.147
1511594.185
1512802.225
1513966.289
1515090.584
1516180.728
1517240.932
1518265.96
1519253.082
1520206.323
1521129.037
1522023.622
1522891.605
1523728.637
1524540.585
1525332.917
1526109.006
1526870.744
1527619.612
1528360.478
1529093.026
1529816.482
1530529.379
1531229.777
1531922.191
1532601.008
1533263.641
1533908.197
1534534.935
1535146.079
1535737.673
1536313.28
1536903.479
1537504.624
1492896.874
1491446.821
1492088.589
1492777.791
1493539.742
1494434.583
1495434.757
1496520.485
1497680.255
1498863.758
1500080.103
1501285.138
1502487.979
1503668.251
1504828.745
1505981.812
1507105.147
1508204.484
1509283.691
1510333.853
1511352.935
1512344.229
1513309.215
1514248.269
1515155.703
1516036.484
1516893.151
1517725.393
1518531.752
1519316.725
1520085.157
1520840.061
1521583.428
1522316.056
1523040.007
1523758.178
1524468.71
1525170.33
1525861.067
1526540.216
1527207.831
1527860.763
1528496.729
1529112.249
1529713.759
1530298.481
1530861.259
1531407.358
1531970.16
1532540.85
1491966.956
1490481.952
1491060.595
1491681.874
1492349.816
1493117.052
1493965.607
1494902.811
1495889.856
1496899.279
1497933.256
1498965.965
1500002.4
1501042.273
1502072.098
1503097.638
1504105.251
1505092.659
1506062.528
1507017.277
1507946.671
1508853.094
1509737.155
1510599.579
1511439.066
1512257.905
1513055.516
1513831.17
1514587.324
1515330.995
1516064.069
1516788.44
1517504.687
1518211.017
1518913.589
1519610.454
1520300.15
1520980.769
1521646.924
1522302.527
1522945.081
1523571.607
1524178.151
1524768.627
1525344.763
1525901.519
1526434.841
1526955.698
1527490.142
1528029.016
1490956.619
1489446.036
1489977.696
1490533.514
1491104.381
1491754.149
1492473.907
1493266.823
1494098.879
1494965.494
1495854.631
1496759.566
1497673.214
1498598.519
1499518.273
1500433.882
1501340.618
1502234.32
1503115.821
1503984.368
1504834.087
1505665.918
1506480.479
1507277.359
1508057.745
1508819.819
1509564.596
1510294.599
1511010
1511719.353
1512423.266
1513121.702
1513812.879
1514496.539
1515178.085
1515854.54
1516523.136
1517178.257
1517820.367
1518451.671
1519068.261
1519665.723
1520245.251
1520811.842
1521360.684
1521888.029
1522395.351
1522891.39
1523396.891
1523904.101
1489861.164
1488345.294
1488835.704
1489320.633
1489801.163
1490347.222
1490958.005
1491632.902
1492346.999
1493101.857
1493880.675
1494684.728
1495499.208
1496324.376
1497148.097
1497970.83
1498792.186
1499605.626
1500409.904
1501202.212
1501982.058
1502749.873
1503505.006
1504244.028
1504969.259
1505681.663
1506383.205
1507073.192
1507756.658
1508438.473
1509117.597
1509791.989
1510458.272
1511122.403
1511784.264
1512439.931
1513083.213
1513711.469
1514330.984
1514937.156
1515525.423
1516094.986
1516650.948
1517190.733
1517710.831
1518211.138
1518694.835
1519164.613
1519640.269
1520120.61
1488693.615
1487185.148
1487630.697
1488054.442
1488461.48
1488924.917
1489453.457
1490039.21
1490666.164
1491331.935
1492023.533
1492738.586
1493466.319
1494204.067
1494947.951
1495694.703
1496440.127
1497182.382
1497918.31
1498644.082
1499363.971
1500076.66
1500777.856
1501462.509
1502140.631
1502813.024
1503478.05
1504133.102
1504791.197
1505449.515
1506105.328
1506755.155
1507400.156
1508046.101
1508687.849
1509318.765
1509933.866
1510539.741
1511134.591
1511713.141
1512272.585
1512817.839
1513348.391
1513860.419
1514352.97
1514829.678
1515288.2
1515729.721
1516179.746
1516635.598
1487475.29
1485982.931
1486392.222
1486768.772
1487120.555
1487522.979
1487989.184
1488505.659
1489062.082
1489653.209
1490270.429
1490907.828
1491562.278
1492228.419
1492904.262
1493584.386
1494262.622
1494942.217
1495618.714
1496287.379
1496955.354
1497616.273
1498263.871
1498905.764
1499546.733
1500184.604
1500816.613
1501446.939
1502082.286
1502718.428
1503351.046
1503976.879
1504604.984
1505231.564
1505848.975
1506450.517
1507042.386
1507625.336
1508193.402
1508742.548
1509277.086
1509798.31
1510301.982
1510786.011
1511254.678
1511707.266
1512138.352
1512555.671
1512982.677
1513410.348
1486243.037
1484777.982
1485158.813
1485499.422
1485810.092
1486167.199
1486579.791
1487037.985
1487534.434
1488060.599
1488614.841
1489189.446