/*--------------------------------*- C++ -*----------------------------------*\
  =========                 |
  \\      /  F ield         | OpenFOAM: The Open Source CFD Toolbox
   \\    /   O peration     | Website:  https://openfoam.org
    \\  /    A nd           | Version:  7
     \\/     M anipulation  |
\*---------------------------------------------------------------------------*/
FoamFile
{
    version     2.0;
    format      ascii;
    class       volVectorField;
    location    "0.0012";
    object      U;
}
// * * * * * * * * * * * * * * * * * * * * * * * * * * * * * * * * * * * * * //

dimensions      [0 1 -1 0 0 0 0];

internalField   nonuniform List<vector> 
14000
(
(-6.072857287e-08 3.311363411e-20 -0.002000023234)
(-1.593329718e-07 3.447787937e-20 -0.002000029053)
(-2.538642442e-07 2.054312647e-20 -0.002000043687)
(-3.535454692e-07 3.305321257e-21 -0.002000064794)
(-4.564175866e-07 -1.617186616e-20 -0.002000092261)
(-5.622497074e-07 -3.504354569e-21 -0.002000125866)
(-6.716293484e-07 3.600856198e-21 -0.002000165327)
(-7.850704082e-07 7.725328268e-21 -0.002000210398)
(-9.029116717e-07 1.019183571e-20 -0.002000260876)
(-1.025365741e-06 1.190128862e-20 -0.002000316596)
(-1.152536065e-06 1.32134208e-20 -0.002000377422)
(-1.284419551e-06 1.40837676e-20 -0.002000443246)
(-1.420909862e-06 1.473524364e-20 -0.002000513985)
(-1.561801311e-06 1.552407522e-20 -0.00200058958)
(-1.706791631e-06 1.635862695e-20 -0.002000669989)
(-1.855484822e-06 1.706708556e-20 -0.002000755185)
(-2.007401868e-06 1.764472615e-20 -0.002000845157)
(-2.161989568e-06 1.841557973e-20 -0.002000939908)
(-2.318599111e-06 1.942269242e-20 -0.002001039457)
(-2.47647557e-06 2.015126579e-20 -0.002001143839)
(-2.634773801e-06 2.045751541e-20 -0.002001253102)
(-2.792577437e-06 2.020664632e-20 -0.002001367306)
(-2.94890025e-06 1.89284283e-20 -0.002001486529)
(-3.102650816e-06 2.697944064e-20 -0.00200161086)
(-3.252643012e-06 3.383644278e-20 -0.002001740398)
(-3.397621912e-06 4.000683044e-20 -0.002001875247)
(-3.536233256e-06 4.582836402e-20 -0.002002015504)
(-3.667040521e-06 4.664487684e-20 -0.002002161248)
(-3.788517546e-06 4.746926111e-20 -0.002002312521)
(-3.89904364e-06 5.311766775e-20 -0.002002469309)
(-3.996932082e-06 5.877048425e-20 -0.002002631517)
(-4.080383767e-06 5.998815101e-20 -0.002002798949)
(-4.147473229e-06 6.163991994e-20 -0.002002971274)
(-4.196179449e-06 6.376225702e-20 -0.002003147999)
(-4.224393119e-06 6.599246044e-20 -0.002003328458)
(-4.22987461e-06 6.841221221e-20 -0.002003511797)
(-4.210246664e-06 7.102205308e-20 -0.002003696967)
(-4.16300037e-06 7.383682558e-20 -0.002003882733)
(-4.085502771e-06 7.691704321e-20 -0.002004067679)
(-3.974973123e-06 8.012422211e-20 -0.002004250228)
(-3.828473731e-06 8.025530804e-20 -0.002004428647)
(-3.642940846e-06 8.076559022e-20 -0.002004601057)
(-3.415180257e-06 8.157879125e-20 -0.002004765422)
(-3.141879169e-06 8.263554037e-20 -0.002004919522)
(-2.819588058e-06 8.404623994e-20 -0.002005060904)
(-2.444767409e-06 8.579832873e-20 -0.002005186806)
(-2.014141157e-06 8.790929618e-20 -0.002005294064)
(-1.524655394e-06 8.696721215e-20 -0.002005379056)
(-9.694577785e-07 8.63058026e-20 -0.002005437458)
(-3.356165018e-07 8.598328784e-20 -0.002005463288)
(-1.560978314e-07 7.330416091e-20 -0.002003016379)
(-4.09047741e-07 1.477176121e-19 -0.002003034829)
(-6.478374434e-07 2.110410498e-19 -0.002003075767)
(-8.924965013e-07 1.808920787e-19 -0.002003135542)
(-1.135692004e-06 1.684019608e-19 -0.002003212665)
(-1.374942347e-06 1.629079909e-19 -0.002003305557)
(-1.610069208e-06 1.142064501e-19 -0.002003412684)
(-1.840975232e-06 7.421131865e-20 -0.002003532591)
(-2.067393174e-06 3.908434359e-20 -0.002003663907)
(-2.288958992e-06 3.94322076e-20 -0.002003805342)
(-2.505219656e-06 3.819559576e-20 -0.002003955692)
(-2.715641448e-06 3.544233423e-20 -0.002004113837)
(-2.919611235e-06 3.144419397e-20 -0.002004278734)
(-3.116452397e-06 3.763046526e-20 -0.002004449416)
(-3.305448979e-06 4.151827763e-20 -0.002004624985)
(-3.485809917e-06 3.380733862e-20 -0.002004804611)
(-3.656662402e-06 3.492713952e-20 -0.002004987527)
(-3.817124664e-06 4.380932772e-20 -0.00200517303)
(-3.966282311e-06 5.099460969e-20 -0.002005360481)
(-4.103176458e-06 5.66179958e-20 -0.0020055493)
(-4.226846233e-06 6.15406516e-20 -0.002005738968)
(-4.336324453e-06 6.600133302e-20 -0.002005929026)
(-4.430644079e-06 7.635264972e-20 -0.002006119074)
(-4.508872722e-06 8.558645085e-20 -0.00200630878)
(-4.570101546e-06 9.441124037e-20 -0.002006497864)
(-4.613445685e-06 9.589790402e-20 -0.002006686108)
(-4.638085462e-06 9.732985884e-20 -0.00200687335)
(-4.643278822e-06 9.900804018e-20 -0.002007059479)
(-4.628356357e-06 1.004780496e-19 -0.002007244431)
(-4.592720521e-06 1.018428967e-19 -0.002007428179)
(-4.53587548e-06 1.035649668e-19 -0.002007610718)
(-4.4574602e-06 1.054315034e-19 -0.002007792044)
(-4.357253527e-06 1.072839025e-19 -0.002007972121)
(-4.235174468e-06 1.095131324e-19 -0.002008150845)
(-4.091308475e-06 1.119816163e-19 -0.002008328)
(-3.92594265e-06 1.144112068e-19 -0.002008503206)
(-3.739577214e-06 1.167767964e-19 -0.002008675879)
(-3.532939975e-06 1.191824305e-19 -0.002008845188)
(-3.307012023e-06 1.216487632e-19 -0.002009010034)
(-3.063057134e-06 1.243165048e-19 -0.002009169063)
(-2.802632322e-06 1.274870788e-19 -0.002009320687)
(-2.527588012e-06 1.2717256e-19 -0.002009463159)
(-2.240094664e-06 1.234985324e-19 -0.002009594654)
(-1.942658525e-06 1.201788895e-19 -0.002009713385)
(-1.638137232e-06 1.171711185e-19 -0.00200981772)
(-1.329738921e-06 1.14449981e-19 -0.002009906317)
(-1.02097757e-06 1.12048213e-19 -0.002009978241)
(-7.158033763e-07 1.102338675e-19 -0.002010033064)
(-4.190608222e-07 1.08854966e-19 -0.002010070993)
(-1.35773509e-07 1.079733443e-19 -0.002010093035)
(-1.856253296e-07 8.168633937e-21 -0.002007843484)
(-4.853707669e-07 -3.76267313e-20 -0.002007861589)
(-7.653812218e-07 6.709387243e-20 -0.002007900069)
(-1.049036326e-06 1.445979859e-19 -0.002007956403)
(-1.326676449e-06 2.09094925e-19 -0.002008029114)
(-1.59450868e-06 1.927326376e-19 -0.002008116572)
(-1.851629906e-06 1.871452221e-19 -0.002008217216)
(-2.09740777e-06 1.860069211e-19 -0.002008329542)
(-2.331122314e-06 1.871891121e-19 -0.002008452095)
(-2.552067804e-06 1.893305068e-19 -0.002008583488)
(-2.759601839e-06 1.935838671e-19 -0.002008722415)
(-2.953147908e-06 1.987032133e-19 -0.00200886765)
(-3.132140677e-06 1.902099392e-19 -0.002009018064)
(-3.296032916e-06 1.833900154e-19 -0.002009172618)
(-3.444330657e-06 1.78351085e-19 -0.002009330377)
(-3.576569417e-06 1.748256619e-19 -0.002009490505)
(-3.692323972e-06 1.714585936e-19 -0.002009652265)
(-3.791205094e-06 1.693165145e-19 -0.002009815017)
(-3.872872695e-06 1.687520625e-19 -0.00200997822)
(-3.937093012e-06 1.696363014e-19 -0.002010141422)
(-3.98370607e-06 1.720591579e-19 -0.002010304258)
(-4.012589816e-06 1.757367135e-19 -0.002010466436)
(-4.02369339e-06 1.72861867e-19 -0.002010627731)
(-4.017079061e-06 1.617784938e-19 -0.002010787966)
(-3.992911968e-06 1.605641687e-19 -0.002010946996)
(-3.951434408e-06 1.549565976e-19 -0.002011104688)
(-3.892996089e-06 1.446345259e-19 -0.002011260892)
(-3.818035608e-06 1.408411655e-19 -0.002011415426)
(-3.727089711e-06 1.379767803e-19 -0.002011568051)
(-3.620815728e-06 1.314641533e-19 -0.002011718447)
(-3.499961708e-06 1.25689534e-19 -0.002011866207)
(-3.365371369e-06 1.244356163e-19 -0.002012010825)
(-3.2180052e-06 1.237132971e-19 -0.002012151707)
(-3.058914737e-06 1.288282466e-19 -0.002012288185)
(-2.889243945e-06 1.299385127e-19 -0.002012419537)
(-2.710232676e-06 1.313650569e-19 -0.002012545021)
(-2.523207105e-06 1.289639557e-19 -0.002012663904)
(-2.329594627e-06 1.229156692e-19 -0.002012775494)
(-2.130888097e-06 1.13363082e-19 -0.002012879171)
(-1.928646594e-06 1.044672023e-19 -0.002012974407)
(-1.724495651e-06 9.878712313e-20 -0.002013060788)
(-1.520109274e-06 9.776521709e-20 -0.00201313802)
(-1.317187061e-06 9.712276625e-20 -0.002013205943)
(-1.117412356e-06 9.657641683e-20 -0.002013264534)
(-9.224350634e-07 9.610070338e-20 -0.002013313906)
(-7.338309613e-07 9.573536868e-20 -0.002013354305)
(-5.530405962e-07 9.55192661e-20 -0.002013386094)
(-3.81386744e-07 9.731043884e-20 -0.002013409737)
(-2.202628703e-07 9.684998916e-20 -0.00201342577)
(-7.092423278e-08 9.664082974e-20 -0.002013434824)
(-1.650641779e-07 2.128149265e-20 -0.002012663517)
(-4.318960904e-07 -1.080771498e-21 -0.002012676406)
(-6.810497934e-07 -4.703683219e-20 -0.00201270282)
(-9.319673538e-07 1.104741477e-20 -0.002012741648)
(-1.175405718e-06 4.765294193e-20 -0.00201279188)
(-1.407662182e-06 7.294211332e-20 -0.002012852396)
(-1.627622323e-06 1.466904619e-19 -0.002012922149)
(-1.834499389e-06 2.108375521e-19 -0.002013000136)
(-2.027514638e-06 2.717575256e-19 -0.002013085385)
(-2.205966885e-06 2.98123147e-19 -0.002013176964)
(-2.369315147e-06 2.930443498e-19 -0.00201327399)
(-2.517129038e-06 2.962823158e-19 -0.002013375642)
(-2.649068999e-06 3.058001128e-19 -0.002013481162)
(-2.764875627e-06 2.93378085e-19 -0.002013589855)
(-2.864370498e-06 2.862604458e-19 -0.002013701096)
(-2.947479391e-06 2.809741725e-19 -0.002013814322)
(-3.014217406e-06 2.588073109e-19 -0.002013929032)
(-3.064675537e-06 2.219130158e-19 -0.002014044781)
(-3.099039597e-06 1.895414471e-19 -0.002014161167)
(-3.117584517e-06 1.697707754e-19 -0.002014277831)
(-3.120649764e-06 1.519120485e-19 -0.002014394443)
(-3.108658564e-06 1.355358694e-19 -0.002014510692)
(-3.082117779e-06 1.141311949e-19 -0.00201462627)
(-3.041590875e-06 1.008523734e-19 -0.002014740866)
(-2.987723361e-06 8.829953525e-20 -0.002014854157)
(-2.921249125e-06 8.319503884e-20 -0.002014965806)
(-2.842942298e-06 7.858566067e-20 -0.002015075456)
(-2.753617613e-06 8.004523163e-20 -0.002015182732)
(-2.654164701e-06 8.144769651e-20 -0.002015287245)
(-2.545528281e-06 8.275297503e-20 -0.002015388598)
(-2.428691145e-06 8.397570424e-20 -0.002015486396)
(-2.304672808e-06 8.018289762e-20 -0.002015580253)
(-2.174541707e-06 7.655407427e-20 -0.002015669803)
(-2.039403786e-06 6.818523881e-20 -0.002015754707)
(-1.900361743e-06 6.001316751e-20 -0.002015834665)
(-1.758540738e-06 5.133406846e-20 -0.002015909418)
(-1.615068811e-06 5.002250969e-20 -0.002015978757)
(-1.471055532e-06 4.803544284e-20 -0.002016042525)
(-1.327591186e-06 4.956433554e-20 -0.002016100623)
(-1.185727909e-06 5.06251532e-20 -0.002016153009)
(-1.046470535e-06 4.78146668e-20 -0.002016199701)
(-9.107594313e-07 4.735031614e-20 -0.002016240774)
(-7.794599794e-07 5.25072116e-20 -0.002016276362)
(-6.533597018e-07 5.724557012e-20 -0.00201630665)
(-5.3315875e-07 6.159342967e-20 -0.00201633187)
(-4.194514295e-07 6.549632067e-20 -0.002016352294)
(-3.127190261e-07 6.892451801e-20 -0.002016368226)
(-2.133857737e-07 7.184985575e-20 -0.002016379991)
(-1.219654183e-07 7.299234896e-20 -0.002016387937)
(-3.906625474e-08 7.377682565e-20 -0.002016392439)
(-1.297574825e-07 9.580055342e-20 -0.002017095916)
(-3.389072839e-07 2.111114017e-19 -0.002017104173)
(-5.330740862e-07 1.665274988e-19 -0.002017120456)
(-7.278670555e-07 1.485922703e-19 -0.0020171445)
(-9.158076646e-07 1.430668036e-19 -0.002017175697)
(-1.093814235e-06 1.445996635e-19 -0.002017213381)
(-1.260843747e-06 1.504779807e-19 -0.002017256946)
(-1.416149196e-06 1.585768035e-19 -0.002017305815)
(-1.55905079e-06 1.680522578e-19 -0.00201735943)
(-1.689036993e-06 1.782859585e-19 -0.002017417255)
(-1.805717677e-06 1.904539861e-19 -0.002017478775)
(-1.90879271e-06 1.860861711e-19 -0.002017543507)
(-1.998110166e-06 1.972784761e-19 -0.002017610995)
(-2.073619144e-06 1.952602771e-19 -0.00201768081)
(-2.13535041e-06 1.801941149e-19 -0.002017752544)
(-2.18346493e-06 1.688397758e-19 -0.002017825816)
(-2.218205436e-06 1.607044447e-19 -0.002017900262)
(-2.239880187e-06 1.554719511e-19 -0.00201797553)
(-2.248893694e-06 1.423034937e-19 -0.00201805128)
(-2.245698506e-06 1.31067798e-19 -0.002018127178)
(-2.230811499e-06 1.12556888e-19 -0.002018202895)
(-2.204840823e-06 8.639936983e-20 -0.002018278101)
(-2.168447439e-06 6.927673147e-20 -0.002018352464)
(-2.122320792e-06 5.287769531e-20 -0.002018425658)
(-2.06718118e-06 3.060364002e-20 -0.002018497356)
(-2.003800681e-06 2.586070142e-20 -0.002018567238)
(-1.932981409e-06 2.507316169e-20 -0.002018634996)
(-1.855543269e-06 2.352426265e-20 -0.002018700333)
(-1.77233289e-06 2.168463975e-20 -0.002018762969)
(-1.684200495e-06 1.949867593e-20 -0.002018822647)
(-1.591991747e-06 1.712993961e-20 -0.002018879137)
(-1.496564239e-06 1.466144864e-20 -0.002018932238)
(-1.398755129e-06 1.660312515e-20 -0.00201898178)
(-1.299388914e-06 1.39046612e-20 -0.002019027634)
(-1.199269282e-06 1.435448842e-20 -0.002019069704)
(-1.099158963e-06 1.437317202e-20 -0.002019107933)
(-9.997959511e-07 1.720727317e-20 -0.002019142303)
(-9.018742344e-07 2.280761021e-20 -0.002019172833)
(-8.060393944e-07 3.085189327e-20 -0.002019199579)
(-7.128878237e-07 3.841740316e-20 -0.002019222629)
(-6.229662224e-07 4.55953591e-20 -0.002019242103)
(-5.36768004e-07 4.914616312e-20 -0.00201925815)
(-4.547232079e-07 5.23243926e-20 -0.002019270941)
(-3.772006045e-07 5.223366864e-20 -0.002019280669)
(-3.045183863e-07 5.514290504e-20 -0.002019287546)
(-2.369491645e-07 5.497329761e-20 -0.002019291788)
(-1.746874433e-07 5.47185854e-20 -0.002019293577)
(-1.178394774e-07 5.429781634e-20 -0.002019293094)
(-6.652918582e-08 5.570286185e-20 -0.002019290983)
(-2.113236429e-08 5.689313773e-20 -0.002019288919)
(-9.660022981e-08 4.42908467e-20 -0.002020972138)
(-2.524761677e-07 6.38348803e-20 -0.002020977243)
(-3.973239373e-07 6.619223974e-20 -0.002020986913)
(-5.42123452e-07 6.501289308e-20 -0.002021001238)
(-6.810464233e-07 6.152683928e-20 -0.002021019873)
(-8.117742786e-07 5.617089239e-20 -0.00202104243)
(-9.334605996e-07 4.817794548e-20 -0.002021068564)
(-1.045512322e-06 3.612555064e-20 -0.002021097946)
(-1.147413838e-06 1.834893589e-20 -0.00202113025)
(-1.238815146e-06 -6.820182719e-21 -0.002021165157)
(-1.3194747e-06 -6.15444853e-21 -0.002021202359)
(-1.389240323e-06 -1.154722185e-20 -0.002021241549)
(-1.448107382e-06 -2.094916435e-20 -0.00202128243)
(-1.496176803e-06 -3.477889026e-20 -0.002021324709)
(-1.533602201e-06 -4.973991616e-20 -0.002021368096)
(-1.560620777e-06 -5.550423541e-20 -0.002021412302)
(-1.577576164e-06 -5.328921238e-20 -0.002021457044)
(-1.584856385e-06 -3.303366675e-20 -0.00202150204)
(-1.582896585e-06 -1.509461232e-20 -0.002021547009)
(-1.572196547e-06 -7.199728413e-21 -0.002021591675)
(-1.553316503e-06 -6.953628296e-23 -0.002021635762)
(-1.526852964e-06 -2.051659707e-21 -0.002021679001)
(-1.49341885e-06 -5.028319917e-21 -0.002021721132)
(-1.453654527e-06 -1.52874009e-21 -0.002021761908)
(-1.408220947e-06 7.507436064e-22 -0.002021801092)
(-1.357777867e-06 2.208515163e-21 -0.002021838464)
(-1.303010165e-06 3.699429132e-21 -0.002021873823)
(-1.24460847e-06 6.104956003e-21 -0.002021906987)
(-1.18324384e-06 8.489019025e-21 -0.002021937798)
(-1.119584063e-06 1.107135081e-20 -0.002021966123)
(-1.054279724e-06 1.394399084e-20 -0.002021991853)
(-9.879686669e-07 2.142865299e-20 -0.002022014907)
(-9.212536561e-07 2.899228627e-20 -0.002022035231)
(-8.547157083e-07 4.103020373e-20 -0.002022052796)
(-7.889174279e-07 5.355904092e-20 -0.002022067599)
(-7.243678909e-07 6.258615379e-20 -0.002022079664)
(-6.615500102e-07 6.5988379e-20 -0.002022089033)
(-6.009215987e-07 6.630540149e-20 -0.002022095776)
(-5.428859204e-07 6.444443388e-20 -0.002022099977)
(-4.87802626e-07 6.014710066e-20 -0.00202210174)
(-4.360086924e-07 6.008050655e-20 -0.002022101185)
(-3.877977916e-07 5.743350567e-20 -0.002022098443)
(-3.433931293e-07 5.257846566e-20 -0.002022093662)
(-3.029439449e-07 4.84202823e-20 -0.002022086981)
(-2.666661601e-07 4.449453213e-20 -0.002022078498)
(-2.353820826e-07 4.342466393e-20 -0.002022068365)
(-2.101123564e-07 4.260874485e-20 -0.002022057426)
(-1.850610573e-07 4.09504197e-20 -0.002022047114)
(-1.387579743e-07 3.982004759e-20 -0.002022038563)
(-5.224054067e-08 3.908327496e-20 -0.002022032839)
(-7.042479517e-08 4.500389798e-20 -0.002024520416)
(-1.837449668e-07 6.7114811e-20 -0.002024523569)
(-2.885340872e-07 7.227218575e-20 -0.002024529305)
(-3.930359682e-07 7.406880508e-20 -0.002024537805)
(-4.92935458e-07 7.377441521e-20 -0.00202454886)
(-5.865261952e-07 7.086416929e-20 -0.002024562239)
(-6.731332062e-07 6.481372208e-20 -0.002024577731)
(-7.523104148e-07 5.433408184e-20 -0.002024595128)
(-8.237247647e-07 3.831022998e-20 -0.002024614225)
(-8.871178022e-07 -3.552436571e-21 -0.00202463481)
(-9.423705658e-07 -4.594641078e-20 -0.002024656678)
(-9.894624538e-07 -7.362854035e-20 -0.002024679617)
(-1.028438429e-06 -1.030740891e-19 -0.002024703414)
(-1.059449938e-06 -1.201762916e-19 -0.002024727857)
(-1.082727055e-06 -1.258497376e-19 -0.002024752737)
(-1.0985413e-06 -1.337964369e-19 -0.00202477784)
(-1.107223154e-06 -1.322137644e-19 -0.002024802954)
(-1.109165521e-06 -1.337622824e-19 -0.002024827873)
(-1.104798569e-06 -1.28564944e-19 -0.002024852392)
(-1.094587393e-06 -1.258878315e-19 -0.002024876312)
(-1.079039683e-06 -1.171629195e-19 -0.002024899442)
(-1.058672367e-06 -1.017314454e-19 -0.002024921603)
(-1.034000139e-06 -8.845071298e-20 -0.002024942625)
(-1.00557552e-06 -6.96816678e-20 -0.002024962354)
(-9.739618118e-07 -5.19616836e-20 -0.002024980647)
(-9.397058891e-07 -4.611410575e-20 -0.002024997379)
(-9.033526195e-07 -4.013671594e-20 -0.002025012439)
(-8.654501595e-07 -3.44980559e-20 -0.002025025738)
(-8.265275331e-07 -3.486663398e-20 -0.002025037202)
(-7.871003651e-07 -3.506197762e-20 -0.002025046776)
(-7.47669241e-07 -3.511153627e-20 -0.002025054426)
(-7.087026281e-07 -3.500269642e-20 -0.002025060133)
(-6.706594313e-07 -4.414366783e-20 -0.002025063898)
(-6.339657622e-07 -5.281317312e-20 -0.002025065735)
(-5.990152016e-07 -5.664678435e-20 -0.002025065675)
(-5.661890078e-07 -6.027490476e-20 -0.002025063765)
(-5.358295915e-07 -5.973434244e-20 -0.002025060063)
(-5.08243916e-07 -5.91726343e-20 -0.002025054638)
(-4.83718872e-07 -5.871936683e-20 -0.002025047571)
(-4.625030656e-07 -5.82410964e-20 -0.002025038952)
(-4.44781123e-07 -5.786395823e-20 -0.002025028882)
(-4.306639331e-07 -5.748723954e-20 -0.002025017452)
(-4.204828827e-07 -5.724491759e-20 -0.002025004696)
(-4.153994824e-07 -5.720462353e-20 -0.002024990706)
(-4.155457148e-07 -6.023871045e-20 -0.002024976493)
(-4.091693036e-07 -6.028138653e-20 -0.002024963657)
(-3.756344552e-07 -6.280455677e-20 -0.0020249536)
(-3.063821173e-07 -6.523791881e-20 -0.002024947508)
(-2.046718605e-07 -6.770822322e-20 -0.002024945824)
(-7.229043214e-08 -7.03198358e-20 -0.002024946534)
(-5.149985739e-08 -8.67146094e-21 -0.002027764183)
(-1.344898399e-07 1.883277706e-19 -0.002027766095)
(-2.114191755e-07 1.602711177e-19 -0.002027769439)
(-2.880350707e-07 1.473838444e-19 -0.002027774371)
(-3.610755958e-07 1.42860217e-19 -0.002027780765)
(-4.292780221e-07 1.438032598e-19 -0.00202778847)
(-4.921697997e-07 1.491651488e-19 -0.002027797347)
(-5.494317606e-07 1.589853553e-19 -0.002027807249)
(-6.008434246e-07 1.486022061e-19 -0.002027818035)
(-6.462582633e-07 1.477803671e-19 -0.002027829558)
(-6.856107914e-07 1.135469418e-19 -0.002027841669)
(-7.189590318e-07 6.999941526e-20 -0.00202785422)
(-7.464074296e-07 3.43586986e-20 -0.00202786706)
(-7.68112783e-07 2.844586122e-21 -0.002027880041)
(-7.843029167e-07 -2.436134093e-20 -0.002027893015)
(-7.952592139e-07 -4.860077434e-20 -0.00202790584)
(-8.013074464e-07 -5.925294563e-20 -0.002027918376)
(-8.028039156e-07 -7.884695708e-20 -0.002027930488)
(-8.001279041e-07 -8.640566786e-20 -0.002027942048)
(-7.936819169e-07 -9.344866667e-20 -0.002027952936)
(-7.838925863e-07 -8.185774861e-20 -0.002027963039)
(-7.711970511e-07 -6.282654577e-20 -0.002027972259)
(-7.560415281e-07 -4.409996342e-20 -0.002027980505)
(-7.388851162e-07 -4.645779403e-20 -0.002027987698)
(-7.201736269e-07 -4.784865497e-20 -0.002027993771)
(-7.003616736e-07 -5.598759208e-20 -0.002027998669)
(-6.798877154e-07 -6.385691704e-20 -0.002028002352)
(-6.591805489e-07 -7.753944072e-20 -0.00202800479)
(-6.38656824e-07 -9.118943663e-20 -0.002028005968)
(-6.187133544e-07 -9.93937901e-20 -0.002028005879)
(-5.997381387e-07 -1.083138343e-19 -0.00202800453)
(-5.820865913e-07 -1.180207604e-19 -0.00202800194)
(-5.661095501e-07 -1.284107479e-19 -0.002027998134)
(-5.521253201e-07 -1.397143203e-19 -0.002027993149)
(-5.404219839e-07 -1.520070926e-19 -0.002027987027)
(-5.312791157e-07 -1.607652841e-19 -0.00202797982)
(-5.249365211e-07 -1.704104092e-19 -0.002027971584)
(-5.216059709e-07 -1.722846847e-19 -0.002027962383)
(-5.214344266e-07 -1.753523214e-19 -0.002027952289)
(-5.244914719e-07 -1.723214108e-19 -0.002027941358)
(-5.311537229e-07 -1.708464031e-19 -0.002027929574)
(-5.427932427e-07 -1.673716806e-19 -0.002027916981)
(-5.59136372e-07 -1.617407145e-19 -0.002027904756)
(-5.649777439e-07 -1.571641165e-19 -0.002027894722)
(-5.39402353e-07 -1.533353525e-19 -0.002027888532)
(-4.76369059e-07 -1.525773102e-19 -0.002027887517)
(-3.790770435e-07 -1.52167996e-19 -0.002027891604)
(-2.574522264e-07 -1.523872734e-19 -0.002027898684)
(-1.383472719e-07 -1.519695156e-19 -0.002027905881)
(-4.224012332e-08 -1.524055569e-19 -0.002027910893)
(-3.919446316e-08 1.449420336e-19 -0.00203086639)
(-1.022054401e-07 3.392704664e-19 -0.002030867346)
(-1.604188437e-07 3.303878888e-19 -0.002030868898)
(-2.184225324e-07 2.147539054e-19 -0.002030871162)
(-2.737708281e-07 1.388319403e-19 -0.002030874068)
(-3.255052254e-07 8.328124242e-20 -0.002030877522)
(-3.732908968e-07 4.03217647e-20 -0.002030881427)
(-4.169082977e-07 6.914612794e-21 -0.00203088569)
(-4.561904401e-07 -1.769224403e-20 -0.002030890208)
(-4.910841965e-07 -1.669501977e-20 -0.002030894882)
(-5.215827522e-07 -1.434834124e-20 -0.002030899611)
(-5.477399042e-07 -1.174239273e-20 -0.002030904292)
(-5.696789738e-07 -9.577958345e-21 -0.002030908827)
(-5.875694149e-07 -7.355389988e-21 -0.002030913119)
(-6.016195919e-07 -5.793649071e-21 -0.002030917072)
(-6.120721698e-07 -4.776801906e-21 -0.002030920598)
(-6.192013499e-07 -1.605084307e-20 -0.002030923613)
(-6.233198675e-07 -2.719709038e-20 -0.00203092604)
(-6.247670768e-07 -3.879971179e-20 -0.002030927812)
(-6.238840025e-07 -4.057437946e-20 -0.002030928866)
(-6.210085779e-07 -4.37089364e-20 -0.002030929147)
(-6.165026808e-07 -3.850449022e-20 -0.002030928613)
(-6.107390122e-07 -3.407542205e-20 -0.002030927228)
(-6.040782505e-07 -3.741885392e-20 -0.002030924966)
(-5.968796942e-07 -4.106459426e-20 -0.002030921812)
(-5.894942904e-07 -4.469310094e-20 -0.00203091776)
(-5.822650523e-07 -4.854479012e-20 -0.002030912814)
(-5.755235253e-07 -5.257358842e-20 -0.002030906984)
(-5.695863003e-07 -5.105268326e-20 -0.002030900291)
(-5.647567816e-07 -5.016513799e-20 -0.002030892763)
(-5.61316646e-07 -4.948179852e-20 -0.002030884435)
(-5.59536401e-07 -4.895086758e-20 -0.002030875346)
(-5.59658929e-07 -4.362684088e-20 -0.002030865543)
(-5.619057653e-07 -3.845522853e-20 -0.002030855075)
(-5.664848535e-07 -3.779687502e-20 -0.002030843997)
(-5.735617442e-07 -3.688085259e-20 -0.002030832368)
(-5.83237997e-07 -3.989554415e-20 -0.002030820255)
(-5.955344224e-07 -4.264473859e-20 -0.002030807706)
(-6.108415957e-07 -4.503513525e-20 -0.002030794678)
(-6.306801082e-07 -4.723569436e-20 -0.002030781193)
(-6.545232106e-07 -4.908674685e-20 -0.002030768568)
(-6.650697817e-07 -5.063438499e-20 -0.002030758778)
(-6.408700147e-07 -5.200969493e-20 -0.002030753587)
(-5.77026321e-07 -4.968280446e-20 -0.002030754429)
(-4.777048344e-07 -4.70160936e-20 -0.002030760957)
(-3.589926849e-07 -4.579152504e-20 -0.002030770858)
(-2.471416372e-07 -4.326780745e-20 -0.00203078103)
(-1.549168021e-07 -4.075947393e-20 -0.002030789084)
(-8.128171853e-08 -3.977020046e-20 -0.002030794113)
(-2.464460518e-08 -3.865633722e-20 -0.002030796636)
(-3.163982224e-08 1.943426105e-19 -0.002033843396)
(-8.262217875e-08 2.206558879e-19 -0.002033843545)
(-1.299867828e-07 2.427219164e-19 -0.002033843541)
(-1.773373076e-07 1.416167479e-19 -0.002033843493)
(-2.226812009e-07 7.029404322e-20 -0.002033843377)
(-2.653161819e-07 1.363540414e-20 -0.002033843145)
(-3.050072334e-07 -3.496921012e-20 -0.002033842739)
(-3.416296279e-07 -7.903955056e-20 -0.002033842107)
(-3.750983505e-07 -9.513354965e-20 -0.002033841186)
(-4.053754631e-07 -1.128187845e-19 -0.002033839915)
(-4.324959783e-07 -9.328033298e-20 -0.002033838232)
(-4.565387887e-07 -6.154518788e-20 -0.002033836078)
(-4.776214291e-07 -3.534041882e-20 -0.002033833392)
(-4.959055525e-07 1.830166762e-21 -0.002033830121)
(-5.115897864e-07 3.54128613e-20 -0.002033826212)
(-5.248927832e-07 6.667767524e-20 -0.002033821619)
(-5.360453228e-07 7.232446621e-20 -0.002033816301)
(-5.45296889e-07 7.84605391e-20 -0.002033810223)
(-5.529239461e-07 7.470514733e-20 -0.002033803357)
(-5.592259687e-07 7.18291634e-20 -0.002033795684)
(-5.644827849e-07 5.200633e-20 -0.002033787192)
(-5.689715714e-07 3.379940043e-20 -0.002033777875)
(-5.729913998e-07 1.70738898e-20 -0.002033767738)
(-5.768180907e-07 9.113574407e-21 -0.002033756791)
(-5.8073319e-07 1.630618333e-21 -0.002033745054)
(-5.850022869e-07 1.421196558e-21 -0.002033732554)
(-5.89880845e-07 1.2407385e-21 -0.002033719324)
(-5.956121367e-07 7.777294081e-21 -0.002033705404)
(-6.02424927e-07 1.430155635e-20 -0.002033690839)
(-6.105316403e-07 1.517103496e-20 -0.00203367568)
(-6.201253722e-07 1.648219534e-20 -0.002033659983)
(-6.313876216e-07 1.82811573e-20 -0.002033643806)
(-6.444726123e-07 2.064000456e-20 -0.002033627212)
(-6.59508936e-07 2.351250673e-20 -0.002033610268)
(-6.765451282e-07 2.682427593e-20 -0.002033593053)
(-6.955509548e-07 3.049526351e-20 -0.00203357562)
(-7.169332868e-07 3.443983504e-20 -0.002033557921)
(-7.42318236e-07 3.439621652e-20 -0.002033539964)
(-7.709802223e-07 3.48083879e-20 -0.002033523223)
(-7.838585354e-07 3.188272141e-20 -0.002033509825)
(-7.587737487e-07 2.960200997e-20 -0.002033501595)
(-6.915380446e-07 2.791729168e-20 -0.002033499966)
(-5.868660834e-07 2.316410339e-20 -0.00203350435)
(-4.644094212e-07 1.966246568e-20 -0.002033512252)
(-3.508055394e-07 1.699577705e-20 -0.002033520452)
(-2.55713111e-07 1.504244102e-20 -0.002033526587)
(-1.77352836e-07 1.206043273e-20 -0.002033530067)
(-1.131638184e-07 1.098101616e-20 -0.002033531386)
(-6.095138255e-08 1.034166102e-20 -0.002033531196)
(-1.86185247e-08 1.00392618e-20 -0.00203353055)
(-2.74559897e-08 -2.984047488e-20 -0.002036768464)
(-7.165125983e-08 -1.467593187e-19 -0.002036767922)
(-1.127396733e-07 -7.933907954e-20 -0.002036766589)
(-1.540261228e-07 -5.014840641e-20 -0.002036764584)
(-1.938883485e-07 -3.495745191e-20 -0.002036761923)
(-2.318013221e-07 -2.513319239e-20 -0.002036758593)
(-2.675985115e-07 -1.78826553e-20 -0.002036754582)
(-3.011984458e-07 -1.159758331e-20 -0.002036749867)
(-3.325871198e-07 -4.965475624e-21 -0.002036744429)
(-3.61772423e-07 2.390665067e-21 -0.002036738242)
(-3.887924412e-07 1.078062099e-20 -0.002036731282)
(-4.137371685e-07 2.006501948e-20 -0.002036723524)
(-4.367285719e-07 2.990523084e-20 -0.002036714945)
(-4.57913535e-07 4.005674188e-20 -0.002036705526)
(-4.774600932e-07 5.024476319e-20 -0.002036695252)
(-4.955548554e-07 6.027542631e-20 -0.002036684113)
(-5.124030606e-07 7.035042429e-20 -0.002036672103)
(-5.282224146e-07 8.001240954e-20 -0.00203665922)
(-5.432294102e-07 8.934769517e-20 -0.002036645468)
(-5.576434194e-07 8.843647847e-20 -0.002036630859)
(-5.716960389e-07 8.781708512e-20 -0.002036615411)
(-5.856096504e-07 7.862818032e-20 -0.002036599147)
(-5.995979858e-07 7.024111567e-20 -0.002036582096)
(-6.138756023e-07 6.262621349e-20 -0.002036564293)
(-6.286439969e-07 5.557098527e-20 -0.002036545778)
(-6.440952979e-07 4.889705177e-20 -0.002036526597)
(-6.604098865e-07 4.243322874e-20 -0.002036506799)
(-6.777495349e-07 3.581260498e-20 -0.00203648644)
(-6.962648764e-07 2.913283941e-20 -0.002036465575)
(-7.160862122e-07 2.22212453e-20 -0.002036444265)
(-7.373329689e-07 1.504231155e-20 -0.002036422573)
(-7.600951572e-07 7.577385841e-21 -0.002036400567)
(-7.843746751e-07 5.197975683e-21 -0.002036378328)
(-8.101010177e-07 7.471828243e-21 -0.002036355909)
(-8.376833622e-07 9.01824148e-21 -0.002036333247)
(-8.688711924e-07 9.880082455e-21 -0.002036310336)
(-9.027737131e-07 1.000252882e-20 -0.002036288822)
(-9.186325876e-07 9.415001577e-21 -0.002036271051)
(-8.933977449e-07 8.178878941e-21 -0.002036258982)
(-8.234625233e-07 6.211353357e-21 -0.002036254085)
(-7.13975776e-07 3.513779694e-21 -0.002036255475)
(-5.867236515e-07 1.288108373e-22 -0.002036260356)
(-4.689849343e-07 -3.82100623e-21 -0.002036265267)
(-3.691114443e-07 -8.27578231e-21 -0.002036267736)
(-2.851570625e-07 -1.316590254e-20 -0.002036267321)
(-2.146520418e-07 -1.521089005e-20 -0.002036264541)
(-1.554262917e-07 -1.455202603e-20 -0.002036260048)
(-1.046329485e-07 -1.452260789e-20 -0.002036254917)
(-5.952936986e-08 -1.356079556e-20 -0.002036250344)
(-1.828992139e-08 -1.308774935e-20 -0.002036247391)
(-2.55898722e-08 -8.531709543e-20 -0.002039631884)
(-6.688423402e-08 -3.02460644e-19 -0.002039630799)
(-1.055258934e-07 -3.356450772e-19 -0.002039628401)
(-1.446014641e-07 -2.627611182e-19 -0.002039624826)
(-1.82686113e-07 -2.39683115e-19 -0.002039620121)
(-2.19338148e-07 -1.606535227e-19 -0.002039614319)
(-2.54475787e-07 -1.107816251e-19 -0.002039607443)
(-2.88079805e-07 -7.652149442e-20 -0.002039599513)
(-3.201393412e-07 -5.160463341e-20 -0.002039590539)
(-3.506983781e-07 -3.257730761e-20 -0.002039580536)
(-3.798367297e-07 -1.758463926e-20 -0.002039569517)
(-4.076476732e-07 -5.574502536e-21 -0.002039557491)
(-4.342346166e-07 4.242513845e-21 -0.002039544472)
(-4.597210641e-07 1.192257358e-20 -0.002039530475)
(-4.84249608e-07 1.772981912e-20 -0.002039515516)
(-5.079844454e-07 2.209873039e-20 -0.002039499614)
(-5.310996475e-07 3.806072929e-20 -0.002039482792)
(-5.537662606e-07 5.262498234e-20 -0.002039465076)
(-5.761506713e-07 6.614513761e-20 -0.002039446497)
(-5.984224174e-07 7.874546618e-20 -0.002039427091)
(-6.207581491e-07 9.058989924e-20 -0.002039406892)
(-6.43320305e-07 9.228576847e-20 -0.002039385942)
(-6.662688752e-07 9.422003121e-20 -0.002039364285)
(-6.897642903e-07 9.664039992e-20 -0.002039341967)
(-7.139376796e-07 9.963849487e-20 -0.002039319038)