/*--------------------------------*- C++ -*----------------------------------*\
  =========                 |
  \\      /  F ield         | OpenFOAM: The Open Source CFD Toolbox
   \\    /   O peration     | Website:  https://openfoam.org
    \\  /    A nd           | Version:  7
     \\/     M anipulation  |
\*---------------------------------------------------------------------------*/
FoamFile
{
    version     2.0;
    format      ascii;
    class       volScalarField;
    location    "0.0012";
    object      wallHeatFlux;
}
// * * * * * * * * * * * * * * * * * * * * * * * * * * * * * * * * * * * * * //

dimensions      [1 0 -3 0 0 0 0];

internalField   uniform 0;

boundaryField
{
    front_top
    {
        type            wedge;
    }
    front_middle
    {
        type            wedge;
    }
    front_bottom
    {
        type            wedge;
    }
    back_top
    {
        type            wedge;
    }
    back_middle
    {
        type            wedge;
    }
    back_bottom
    {
        type            wedge;
    }
    axis_top
    {
        type            symmetryPlane;
    }
    axis_middle
    {
        type            symmetryPlane;
    }
    axis_bottom
    {
        type            symmetryPlane;
    }
    wall_top
    {
        type            calculated;
        value           nonuniform List<scalar> 
150
(
47280.05984
42093.23135
39140.91194
36908.99737
35208.27061
33924.89638
32400.48822
30670.41094
29114.02131
27909.14043
27281.51111
26968.45286
26649.17421
26185.72053
25694.76976
25238.21678
24812.59453
24412.48241
24034.09036
23674.58282
23331.6739
23002.84597
22686.46624
22381.05809
22085.48132
21799.14358
21521.6627
21252.9159
20992.62175
20740.47304
20496.1413
20259.3191
20029.67757
19806.88177
19590.62233
19380.62447
19176.65816
18978.4986
18785.93499
18598.7662
18416.79524
18239.83369
18067.71735
17900.25713
17737.27955
17578.61613
17424.11256
17273.66148
17127.07775
16984.21863
16844.99417
16709.2696
16576.89635
16447.81782
16321.89825
16199.00683
16079.1305
15962.07978
15847.83522
15736.27592
15627.32718
15520.92626
15416.96248
15315.40838
15216.14428
15119.15196
15024.3245
14931.62915
14840.99136
14752.34529
14665.66732
14580.84201
14497.91471
14416.74082
14337.32999
14259.62003
14183.53324
14109.10802
14036.22193
13964.85908
13895.01561
13826.59994
13759.60633
13694.01224
13629.74443
13566.79125
13505.14212
13444.72544
13385.51654
13327.53549
13270.70123
13214.98826
13160.3988
13106.89917
13054.44387
13003.00894
12952.60913
12903.1917
12854.72671
12807.19354
12760.60086
12714.90598
12670.08005
12626.10343
12582.97056
12540.67119
12499.1637
12458.43016
12418.45296
12379.23176
12340.74252
12302.95408
12265.84882
12229.40807
12193.62265
12158.48247
12123.94855
12090.00019
12056.61497
12023.76851
11991.44606
11959.61417
11928.22521
11897.23581
11866.59229
11836.22672
11806.05567
11775.97488
11745.81064
11715.3495
11684.29639
11652.2398
11618.60403
11582.60358
11543.07944
11498.42824
11446.39807
11383.85356
11306.3774
11207.81034
11079.67424
10910.2073
10683.28403
10376.85797
9960.81895
9393.906515
8618.804647
7552.875355
6065.97481
3910.00041
)
;
    }
    wall_middle
    {
        type            calculated;
        value           nonuniform List<scalar> 
65
(
297738.4651
182540.4835
143215.4935
123560.0572
111262.0591
102568.9117
95974.39143
90739.59906
86449.99848
82851.93007
79779.98587
77120.9013
74794.39664
72741.86194
70919.39924
69293.38973
67837.49188
66531.21724
65358.21267
64305.22521
63361.419
62517.88073
61767.22417
61103.28474
60520.92484
60015.71235
59583.97795
59222.61688
58928.92817
58700.60915
58535.68086
58432.43106
58389.38855
58405.28669
58479.02667
58609.64586
58796.2997
59038.26424
59334.91284
59685.70053
60090.18776
60547.936
61058.61575
61621.94762
62237.72643
62905.88497
63626.52454
64400.01874
65227.19563
66109.58754
67049.96425
68052.70267
69125.41481
70279.34
71534.42065
72918.54184
74483.06518
76298.32383
78495.35587
81270.86847
84958.21207
90258.94597
98075.64233
111453.2009
160867.9633
)
;
    }
    wall_bottom
    {
        type            calculated;
        value           nonuniform List<scalar> 
65
(
156431.4804
131914.6869
122884.092
117900.0398
114680.6787
112343.8584
110532.2658
109060.1034
107819.291
106746.2281
105797.4873
104944.3166
104165.5239
103445.732
102773.1344
102138.7017
101535.3344
100957.451
100400.6111
99861.27526
99336.60646
98824.32635
98322.6013
97829.95401
97345.19417
96867.36443
96395.69607
95929.57243
95468.49948
95012.08214
94560.00747
94112.03012
93667.95884
93227.64557
92790.9768
92357.86666
91928.25142
91502.08513
91079.33593
90659.98271
90244.01269
89831.41938
89422.20068
89016.35521
88613.88726
88214.81065
87819.14178
87426.89752
87038.09525
86652.75393
86270.89514
85892.54396
85517.73047
85146.49217
84778.87742
84414.9491
84054.78957
83698.50848
83346.25236
82998.21673
82654.6268
82315.66991
81981.26821
81652.70444
81355.45632
)
;
    }
    inlet
    {
        type            calculated;
        value           nonuniform List<scalar> 
50
(
-21.89813937
-22.49963345
-23.81949981
-25.85111025
-28.6480752
-32.29820465
-36.92235332
-42.67666097
-49.7565501
-58.40218553
-68.90537264
-81.61796916
-96.96194131
-115.4412351
-137.6556668
-164.3170656
-196.2679277
-234.5028046
-280.1927383
-334.7133649
-399.6766643
-476.9668608
-568.7809674
-677.6742554
-806.6108313
-959.0198841
-1138.858113
-1350.679338
-1599.710744
-1891.934585
-2234.177129
-2634.211382
-3100.866389
-3644.143706
-4275.351026
-5007.235813
-5854.115298
-6832.038063
-7958.964642
-9254.958552
-10742.37333
-12446.06276
-14393.5324
-16615.20648
-19144.73208
-22019.23698
-25279.43555
-28970.00104
-33139.88222
-37842.55969
)
;
    }
    outlet
    {
        type            calculated;
        value           uniform 0;
    }
}


// ************************************************************************* //
