/*--------------------------------*- C++ -*----------------------------------*\
  =========                 |
  \\      /  F ield         | OpenFOAM: The Open Source CFD Toolbox
   \\    /   O peration     | Website:  https://openfoam.org
    \\  /    A nd           | Version:  7
     \\/     M anipulation  |
\*---------------------------------------------------------------------------*/
FoamFile
{
    version     2.0;
    format      ascii;
    class       volScalarField;
    location    "0.0018";
    object      rho;
}
// * * * * * * * * * * * * * * * * * * * * * * * * * * * * * * * * * * * * * //

dimensions      [1 -3 0 0 0 0 0];

internalField   nonuniform List<scalar> 
1166
(
1004.250766
1004.219925
1004.15382
1004.056158
1003.929197
1003.774981
1003.595109
1003.391561
1003.165868
1002.919599
1002.654464
1002.37203
1001.826108
1001.132887
1000.414744
999.6785302
998.931403
998.1800334
997.4299649
996.6852076
995.9480908
995.2193849
994.4985105
993.7834457
993.0708914
992.3567773
991.6372996
990.9095315
990.1716053
989.4229634
988.6644577
987.8983849
987.1279461
986.356464
1003.442668
1003.412234
1003.347003
1003.25075
1003.12566
1002.973427
1002.796198
1002.595332
1002.37291
1001.951871
1001.372446
1000.757119
1000.112543
999.4448958
998.7606625
998.0661323
997.366704
996.6666094
995.9686556
995.2742995
994.5837817
993.8960078
993.2086895
992.5184981
991.8219823
991.1162831
990.3993779
989.6705488
988.9302061
988.1801538
987.4232126
986.662894
985.9020787
985.1420906
984.383566
983.6270186
982.8731304
982.1226077
981.3761452
980.6345524
979.8986776
979.1693447
978.4471736
977.7325774
977.0258627
976.3272989
975.637166
974.9556971
974.2830739
973.6195307
1002.657098
1002.627019
1002.562717
1002.467772
1002.344208
1002.093488
1001.7051
1001.266304
1000.780895
1000.255715
999.6953365
999.1056786
998.4929423
997.8644747
997.2248464
996.5780443
995.9272067
995.2744234
994.6207053
993.9658779
993.3087158
992.6470778
991.9770004
991.2963573
990.6035183
989.8976393
989.1788326
988.4484186
987.7088183
986.9631839
986.2146023
985.4650602
984.7155481
983.9666721
983.2191052
982.4736137
981.7309169
980.9918363
980.2572402
979.5280528
978.8050562
978.0887925
977.3796612
976.6779747
975.9840635
975.2982351
974.6207081
973.9517529
973.291587
972.6404366
1001.42135
1001.355699
1001.215046
1001.007406
1000.737685
1000.412028
1000.033407
999.6096576
999.144019
998.6436277
998.1147628
997.5616934
996.9896242
996.4051875
995.8104183
995.2073946
994.5978196
993.982407
993.3614712
992.7327288
992.0933936
991.4418963
990.7768784
990.097485
989.4036213
988.6961909
987.9772369
987.2496197
986.5165259
985.7804842
985.0428114
984.3042707
983.5655335
982.8274069
982.0907069
981.3562409
980.6249192
979.8976858
979.1754602
978.4589624
977.7487068
977.0450971
976.3484923
975.6592578
974.9777104
974.3041043
973.6387492
972.9818701
972.3338264
971.6947237
999.7706495
999.707081
999.5710702
999.3707462
999.1127618
998.8019734
998.4430403
998.0436466
997.6072944
997.1402746
996.6486575
996.1346627
995.6034986
995.0594635
994.5023513
993.933696
993.3548047
992.7649052
992.16148
991.5437198
990.9107037
990.2617034
989.5965161
988.915695
988.2211196
987.5153641
986.8014844
986.0823024
985.3595345
984.6341866
983.9070053
983.178826
982.450545
981.7229995
980.9971245
980.2738923
979.5543249
978.8393115
978.1295088
977.4254266
976.727481
976.0360939
975.3516622
974.674496
974.0049355
973.3432807
972.6898226
972.0448146
971.4084691
970.7810326
998.197067
998.1373024
998.0095453
997.8216638
997.5813372
997.2919793
996.9584319
996.5886427
996.1840567
995.7522438
995.2953628
994.8161792
994.3207992
993.807142
993.2770713
992.7323711
992.1706678
991.5917831
990.9954123
990.381048
989.7484365
989.0984436
988.4325601
987.7529595
987.0624104
986.3638036
985.6593519
984.9503828
984.2378107
983.5224828
982.8053464
982.0873437
981.3694028
980.6525433
979.9378104
979.2262369
978.5186667
977.8157357
977.1179627
976.4258061
975.7397292
975.0601523
974.3874027
973.7219126
973.0640068
972.4139987
971.7721219
971.1386566
970.5138772
969.8979734
996.7310507
996.6760003
996.5583158
996.3852321
996.1632107
995.8969571
995.5886821
995.2468406
994.8713374
994.4694117
994.0400584
993.5902195
993.1172322
992.6236861
992.1101276
991.5758097
991.0212388
990.4462171
989.850877
989.2360999
988.6031493
987.9538988
987.2908385
986.6168663
985.9345907
985.2456783
984.5511992
983.852006
983.1491163
982.4435709
981.7363411
981.0284838
980.3210841
979.6152673
978.9120457
978.2122137
977.5164101
976.8251727
976.1390246
975.4584648
974.7839138
974.1157836
973.4544743
972.8003445
972.1537437
971.514941
970.8842863
970.2621624
969.6486408
969.0438777
995.3837035
995.3331907
995.2251247
995.0659765
994.8597268
994.6128449
994.3273372
994.0056971
993.6543642
993.2719066
992.863735
992.4287111
991.969269
991.485555
990.9782682
990.4478414
989.8946116
989.3196668
988.7241571
988.1097074
987.4787316
986.8341387
986.1784734
985.5135855
984.8408161
984.1612547
983.4759529
982.7860184
982.0925378
981.3965732
980.6992652
980.0017671
979.3052381
978.610665
977.918822
977.2303617
976.5458531
975.8659069
975.191052
974.5216924
973.8583234
973.2013444
972.5511787
971.9081638
971.2726357
970.6449404
970.025367
969.4140912
968.8114093
968.2173554
994.1476483
994.1000393
993.9988255
993.8505793
993.657933
993.4238697
993.1526719
992.8467214
992.5073733
992.1378673
991.7386055
991.3114662
990.8570834
990.376687
989.8705908
989.3402937
988.786947
988.2120712
987.6180817
987.0074778
986.3827612
985.7460918
985.0990679
984.4429631
983.778901
983.1081617
982.4318172
981.7509859
981.0668581
980.3806408
979.6935694
979.0067904
978.3212521
977.6377394
976.9569285
976.2794555
975.6059346
974.9369152
974.2728856
973.6143635
972.9617797
972.3156529
971.676328
971.0441597
970.4195247
969.8026878
969.1938639
968.5932269
968.0008655
967.4169686
993.0020081
992.9568322
992.8599977
992.716931
992.5308978
992.3052963
992.0417046
991.7424259
991.409617
991.0446833
990.6488889
990.223752
989.7702034
989.2895144
988.7832336
988.2527959
987.7005154
987.1286359
986.5395609
985.935634
985.3189065
984.6905676
984.0518281
983.4039642
982.7482549
982.0859402
981.4182283
980.7463879
980.0716858
979.3954135
978.7187219
978.0425806
977.3677326
976.6948786
976.0247222
975.3579175
974.6950224
974.0366086
973.3831989
972.7352897
972.0933401
971.4577452
970.8289307
970.2073851
969.5933535
968.9870358
968.38859
967.7981258
967.21571
966.6413827
991.9184339
991.8741936
991.779382
991.6392533
991.456589
991.2338106
990.972971
990.6759757
990.3447812
989.9803023
989.5847249
989.1588013
988.7046276
988.2235842
987.7178897
987.1896396
986.6410816
986.0749478
985.4929533
984.8965451
984.2871659
983.6661635
983.0349037
982.3949061
981.7472759
981.0933269
980.4343926
979.7718221
979.1068993
978.4407329
977.774265
977.1083236
976.4436691
975.7810419
975.1211359
974.4645996
973.8120246
973.1639303
972.5208769
971.8833211
971.2517229
970.6265416
970.0081707
969.396891
968.7930641
968.1968717
967.608356
967.0275867
966.4546154
965.8894519
990.8769995
990.8330527
990.7387609
990.5992189
990.4171801
990.1946097
989.9337087
989.6365175
989.3041729
988.9389093
988.5421229
988.1156962
987.6616752
987.1821649
986.6792083
986.1557156
985.613184
985.0533032
984.4776863
983.8880473
983.285598
982.671742
982.0478713
981.4153492
980.7755757
980.1299334
979.4799324
978.8268013
978.1715876
977.5152481
976.8586386
976.2025881
975.5478802
974.8952221
974.2452677
973.5986781
972.9560284
972.3179737
971.6849922
971.0575517
970.4361453
969.821154
969.2128988
968.6116589
968.0176188
967.43108
966.8520189
966.2804626
965.7164468
965.1599861
989.8644278
989.8203765
989.7258423
989.5858285
989.4028061
989.1792956
988.917348
988.6186863
988.2853412
987.91931
987.5223956
987.0970682
986.6451057
986.1693243
985.6713335
985.1528688
984.615985
984.0620825
983.4925765
982.9090129
982.3129043
981.705886
981.0892115
980.4643287
979.8327016
979.1957469
978.5547314
977.9107584
977.2648166
976.6178891
975.9707867
975.3243203
974.6792111
974.0361945
973.3959428
972.7590961
972.1262543
971.4979407
970.8747227
970.2572472
969.6457751
969.0406685
968.4422008
967.8505815
967.2659751
966.6885781
966.1185048
965.5556962
965.0001548
964.4518762
988.8736721
988.8293086
988.7341093
988.5931892
988.4092931
988.1847259
987.9218134
987.6225349
987.2890977
986.9237932
986.5286975
986.1061091
985.6581466
985.186373
984.6931805
984.1798321
983.6479425
983.0992894
982.5355963
981.9581345
981.3684356
980.768033
980.1584447
979.5413758
978.91807
978.2897685
977.6575929
977.0225615
976.3856387
975.7477456
975.10975
974.4724858
973.8367062
973.2030698
972.5722804
971.9449435
971.3216457
970.7029731
970.0894608
969.4815561
968.8797364
968.2841657
967.6950791
967.1126511
966.5370237
965.9683389
965.4068084
964.852251
964.3047168
963.7642836
987.9019906
987.8574495
987.7618854
987.6204659
987.4359938
987.2113335
986.9485517
986.6498778
986.3181566
985.9548474
985.5629736
985.1436911
984.6995592
984.2320798
983.7429006
983.2342326
982.7073853
982.163966
981.6055866
981.0341269
980.4508928
979.8574707
979.2554048
978.6461132
978.0309236
977.4110218
976.7873523
976.160949
975.5327775
974.9037232
974.2746124
973.6462713
973.0194712
972.3950179
971.7734433
971.1553969
970.5415015
969.9322893
969.3281984
968.7296488
968.1370909
967.5506662
966.9705336
966.3968579
965.8297571
965.2693959
964.7158989
964.169176
963.6293245
963.0964027
986.9501562
986.9055987
986.8100325
986.6687413
986.4850476
986.2612062
985.9995868
985.7031125
985.3734729
985.013162
984.6240535
984.20833
983.7674843
983.3040293
982.8191807
982.3147358
981.7927866
981.2546328
980.701944
980.1363618
979.5597841
978.9735568
978.3790574
977.7775752
977.1702994
976.5583415
975.9429257
975.3249147
974.7052127
974.0847282
973.4643041
972.844733
972.2267812
971.6111711
970.998635
970.3897524
969.7850561
969.1850266
968.590088
968.0005685
967.4168809
966.8391777
966.2675751
965.7022196
965.1432251
964.5907164
964.044884
963.5056837
962.9731811
962.447435
986.0201469
985.9757814
985.8808536
985.7406098
985.5579505
985.3354407
985.0758549
984.7814321
984.4541314
984.0966348
983.7103769
983.2979223
982.8607688
982.4009049
981.9203158
981.420453
980.9031532
980.3703984
979.823617
979.2644822
978.6945607
978.1154833
977.52839
976.9344757
976.334926
975.7308565
975.1233272
974.5134224
973.9019856
973.2898712
972.6779372
972.0669624
971.4576684
970.8507819
970.2471518
969.6472101
969.0514598
968.4603314
967.8741837
967.2933238
966.7181248
966.1487326
965.5852468
965.027782
964.4764253
963.9314731
963.3930041
962.8609923
962.3355314
961.8168259
985.1136389
985.0696686
984.975395
984.8360503
984.6545779
984.4336888
984.1760662
983.8835868
983.55888
983.2038479
982.8207057
982.4112927
981.9778009
981.5217294
981.0453131
980.5501799
980.0380112
979.5107481
978.9701228
978.4175239
977.8544158
977.2821798
976.7022747
976.1157403
975.5237431
974.9273666
974.3276266
973.7255695
973.1221974
972.5183021
971.9146768
971.3121073
970.7113608
970.1131512
969.5181611
968.9269335
968.3398388
967.7572673
967.1795451
966.6069533
966.0398743
965.4783999
964.9225953
964.3725961
963.8285753
963.2909126
962.7594752
962.2343735
961.715705
961.2037204
984.2300824
984.1863922
984.0927205
983.9542693
983.7739672
983.5548664
983.2989441
983.0085163
982.6862924
982.333792
981.9537389
981.5475208
981.1176496
980.6656857
980.1935384
979.7033789
979.1966833
978.6751698
978.1406876
977.5945469
977.0380984
976.4726984
975.8997154
975.3204142
974.7357751
974.1469006
973.5548255
972.9605119
972.3650494
971.7691857
971.1737222
970.5794672
969.9871446
969.3973691
968.8108502
968.2280412
967.6492772
967.0749055
966.5052362
965.9405238
965.3812231
964.8272284
964.2787226
963.7359015
963.1990143
962.6682497
962.1435932
961.6251375
961.1130254
960.6075107
983.3682946
983.3248822
983.2318088
983.0942484
982.9154084
982.6977588
982.4435667
982.1554154
981.8354607
981.4857552
981.1086376
980.7059329
980.2797357
979.8320945
979.3646797
978.8796343
978.3785179
977.8628782
977.3343716
976.7945444
976.2446287
975.6859603
975.119813
974.5475387
973.9701284
973.3886297
972.8040757
972.217442
971.6296986
971.0417605
970.4543842
969.8683064
969.284189
968.702655
968.1243401
967.5496416
966.9788579
966.4123296
965.8503373
965.2932377
964.7412215
964.1943621
963.6528792
963.1169485
962.5869269
962.062815
961.5446617
961.0325585
960.5269074
960.0275218
982.5273551
982.4842237
982.3917578
982.2552378
982.0776824
981.8615012
981.6090685
981.323192
981.0056334
980.6588699
980.2848678
979.8858742
979.4636706
979.020606
978.5581517
978.0782482
977.582686
977.0728293
976.5502302
976.0166204
975.4731405
974.9210815
974.3616816
973.7963041
973.2259898
972.6517629
972.0746209
971.4955063
970.915438
970.3353649
969.7559253
969.1778295
968.6017191
968.0281362
967.4577649
966.8908331
966.3276889
965.7686468
965.213993
964.6641052
964.1190643
963.5790763
963.0443333
962.5151067
961.991654
961.4739072
960.9619956
960.4562104
959.9566117
959.4631254
981.7063878
981.6635428
981.5717431
981.43629
981.2599719
981.0453431
980.7949392
980.5112977
980.1963141
979.8526719
979.4820753
979.0870337
978.6691151
978.2306577
977.7731775
977.2984128
976.8083093
976.3041603
975.787488
975.2599594
974.7227854
974.1772157
973.6244985
973.0659146
972.5026304
971.9355551
971.3657012
970.7940462
970.2216321
969.6492614
969.0775859
968.5072688
967.9388917
967.3730335
966.810246
966.2507562
965.6949136
965.1430209
964.5953887
964.0523598
963.514043
962.9806486
962.4523772
961.9297144
961.4124929
960.9008782
960.3950684
959.8953399
959.4015366
958.9137462
980.9047012
980.8621842
980.7711742
980.6367205
980.4617382
980.2487896
980.0005588
979.7193424
979.4072378
979.0668937
978.6999314
978.3089348
977.8953973
977.4615243
977.008961
976.539329
976.054617
975.5561145
975.0452996
974.5237456
973.9928092
973.4536515
972.9075128
972.355705
971.7993191
971.2393069
970.6766946
970.1124439
969.5475411
968.9827216
968.4186018
967.8558048
967.2948872
966.7364914
966.1809527
965.6285836
965.079706
964.5345806
963.9937731
963.4573237
962.9254581
962.3983999
961.8765919
961.360031
960.8488339
960.3431573
959.8433611
959.349327
958.8611208
958.3789446
974.3228915
973.8073084
973.2825193
972.7497058
972.2100898
971.6649578
971.1154143
970.5624297
970.0069897
969.4499713
968.8924794
968.3349973
967.7781891
967.222645
966.6689464
966.1176846
965.5690904
965.0235078
964.4812429
963.9428106
963.4084464
962.8783097
962.3526565
961.8318735
961.316125
960.8054822
960.3001099
959.800323
959.3061575
958.8176242
958.3348702
957.8581785
)
;

boundaryField
{
    front_top
    {
        type            wedge;
    }
    front_middle
    {
        type            wedge;
    }
    front_bottom
    {
        type            wedge;
    }
    back_top
    {
        type            wedge;
    }
    back_middle
    {
        type            wedge;
    }
    back_bottom
    {
        type            wedge;
    }
    axis_top
    {
        type            symmetryPlane;
    }
    axis_middle
    {
        type            symmetryPlane;
    }
    axis_bottom
    {
        type            symmetryPlane;
    }
    wall_top
    {
        type            calculated;
        value           nonuniform List<scalar> 
23
(
973.2898491
972.3167809
971.3772249
970.4695213
969.5920687
968.7434141
967.9222498
967.1269624
966.3561932
965.608734
964.8834723
964.1793949
963.4956832
962.8315182
962.1861548
961.5588889
960.9489954
960.3558725
959.7789976
959.2176251
958.6711662
958.1390559
957.6208075
)
;
    }
    wall_middle
    {
        type            calculated;
        value           nonuniform 0();
    }
    wall_bottom
    {
        type            calculated;
        value           nonuniform 0();
    }
    inlet
    {
        type            calculated;
        value           nonuniform 0();
    }
    outlet
    {
        type            calculated;
        value           nonuniform 0();
    }
    procBoundary10to9
    {
        type            processor;
        value           nonuniform List<scalar> 
51
(
980.1218929
980.0797701
979.9894934
979.8561458
979.6826452
979.4715661
979.2256796
978.9470959
978.6380904
978.301113
977.9379273
977.5509468
977.1417668
976.712455
976.2647789
975.8002725
975.3208987
974.8279568
974.8279568
973.6196501
973.1099718
972.5912946
972.0647508
971.5315501
970.9930858
970.4503571
969.9043148
969.3558923
968.8060868
968.255719
967.7053432
967.1555855
966.6070212
966.0603398
965.5158505
964.9738696
964.4347487
963.898964
963.3669254
962.8387388
962.3146929
961.7951329
961.2803665
960.770431
960.2655025
959.7658643
959.2716805
958.7829211
958.2996934
957.8224078
957.3507926
)
;
    }
    procBoundary10to11
    {
        type            processor;
        value           nonuniform List<scalar> 
51
(
1005.085145
1005.05368
1004.986292
1004.887102
1004.758008
1004.601124
1004.418499
1004.211753
1003.982546
1003.732786
1003.463744
1003.176948
1002.873869
1002.555945
1002.161279
1001.399293
1000.616925
999.8214027
999.0204443
998.2209941
997.4285844
996.6468876
995.8776515
995.1209389
994.3753335
993.6379077
992.9044093
992.1701584
991.4311397
990.6844329
989.9284027
989.162843
988.389114
987.6099074
985.5862085
985.5862085
984.8181812
984.0528777
983.2908257
982.5326774
981.7790538
981.0306685
980.288295
979.5527642
978.8247721
978.1047741
977.3930803
976.6899167
975.9955301
975.31015
974.6339228
)
;
    }
}


// ************************************************************************* //
