/*--------------------------------*- C++ -*----------------------------------*\
  =========                 |
  \\      /  F ield         | OpenFOAM: The Open Source CFD Toolbox
   \\    /   O peration     | Website:  https://openfoam.org
    \\  /    A nd           | Version:  7
     \\/     M anipulation  |
\*---------------------------------------------------------------------------*/
FoamFile
{
    version     2.0;
    format      ascii;
    class       volScalarField;
    location    "0.0018";
    object      thermo:alpha;
}
// * * * * * * * * * * * * * * * * * * * * * * * * * * * * * * * * * * * * * //

dimensions      [1 -1 -1 0 0 0 0];

internalField   nonuniform List<scalar> 
1166
(
0.0001200099089
0.0001200071325
0.0001200011815
0.0001199923897
0.000119982342
0.0001199730062
0.0001199621172
0.0001199497951
0.0001199399586
0.000119931253
0.0001199151999
0.0001199053015
0.0001198724007
0.0001199923247
0.000120501182
0.000121457351
0.0001227523886
0.000124252898
0.0001258065243
0.0001272710781
0.0001285064881
0.000129394991
0.0001298206973
0.0001297338861
0.00012922091
0.0001284002661
0.0001273383499
0.0001260987686
0.0001247699265
0.0001234276094
0.0001221751662
0.0001211123902
0.0001203506883
0.0001198889944
0.0001199528889
0.0001199510465
0.0001199470976
0.0001199425925
0.0001199387109
0.000119933987
0.0001199237814
0.0001199122285
0.0001199053288
0.0001198807601
0.0001199062901
0.0001201366978
0.0001208228983
0.0001218243305
0.00012308203
0.0001244895162
0.000125937098
0.0001273054902
0.000128476411
0.0001293455359
0.0001298089858
0.0001297968608
0.0001293645276
0.0001286274153
0.0001276473576
0.0001264665954
0.0001251834804
0.0001238574813
0.0001225833383
0.0001214497573
0.0001205607941
0.0001200296961
0.0001196803568
0.000119332534
0.0001189960501
0.0001186749801
0.0001183914741
0.000118159201
0.0001179789172
0.000117872191
0.0001178446475
0.0001178901314
0.0001179639648
0.0001180431942
0.0001181283433
0.0001182248383
0.0001183229809
0.0001184287815
0.0001185418729
0.000118663012
0.0001199153593
0.0001199135382
0.0001199112168
0.0001199082715
0.0001199044385
0.0001198901733
0.0001198643574
0.0001199444096
0.0001201187377
0.0001206704813
0.0001214309526
0.0001224159221
0.0001236028614
0.0001249084396
0.000126229899
0.000127469361
0.0001285370322
0.0001293454243
0.0001298039146
0.0001298359507
0.000129468291
0.0001287791978
0.0001278668401
0.000126767892
0.0001255497373
0.0001242710227
0.0001230093251
0.0001218515746
0.0001208923348
0.0001202349977
0.0001198238565
0.0001194796934
0.0001191424478
0.0001188159044
0.0001185152846
0.0001182621335
0.0001180536396
0.0001179118512
0.0001178422138
0.0001178605333
0.0001179255631
0.0001180036996
0.0001180823231
0.0001181763983
0.0001182722506
0.000118374425
0.0001184842033
0.0001186012171
0.000118730724
0.0001188699823
0.0001198887272
0.0001199123048
0.0001199628185
0.0001200373896
0.0001201573867
0.0001205040739
0.0001209071446
0.0001215655322
0.0001223419
0.000123307984
0.0001243884911
0.0001255346303
0.0001267078202
0.0001277891955
0.0001287078412
0.0001294057893
0.0001298070578
0.0001298451981
0.0001294978058
0.000128868466
0.0001280303234
0.0001270114049
0.00012586077
0.0001246349502
0.0001233944695
0.0001222226974
0.0001212039242
0.0001204361236
0.0001199624891
0.0001196245249
0.0001192882908
0.0001189617855
0.000118650909
0.0001183766715
0.0001181506037
0.0001179754437
0.0001178714257
0.00011784469
0.0001178895366
0.0001179626577
0.0001180414059
0.0001181256864
0.0001182219108
0.0001183196277
0.0001184251395
0.000118538106
0.0001186590439
0.0001187948107
0.0001189374869
0.0001190942796
0.0001213126552
0.000121412505
0.0001216261429
0.0001219408004
0.0001224022469
0.0001230022729
0.0001237065277
0.000124536228
0.0001254405076
0.0001264044594
0.0001273387064
0.0001282336172
0.0001290104718
0.0001295390137
0.0001298201698
0.000129817946
0.0001294940762
0.0001289020013
0.0001281259559
0.0001271817741
0.0001261008716
0.0001249339989
0.0001237249678
0.0001225584755
0.0001215111175
0.0001206677667
0.0001201214575
0.0001197631091
0.0001194312398
0.0001191061895
0.0001187901215
0.0001184995156
0.0001182546652
0.0001180515058
0.000117912774
0.0001178435368
0.0001178594072
0.0001179222314
0.0001179991853
0.000118077249
0.0001181695598
0.0001182650634
0.0001183663157
0.0001184753044
0.0001185916913
0.0001187200506
0.0001188591092
0.0001190076094
0.0001191718966
0.0001193564684
0.0001242175125
0.0001243416675
0.0001246070699
0.0001249973748
0.0001254940845
0.0001260913334
0.0001267655349
0.0001274497508
0.000128161376
0.0001287929244
0.0001293265666
0.0001297581116
0.0001298451048
0.0001297471434
0.0001294357973
0.0001288680932
0.000128138861
0.0001272621927
0.000126252851
0.000125150594
0.0001239993181
0.0001228715898
0.0001218278211
0.0001209435755
0.0001203046713
0.0001198923644
0.0001195689053
0.0001192471005
0.0001189330672
0.000118634055
0.0001183695296
0.0001181496973
0.0001179777406
0.0001178736204
0.0001178429702
0.0001178845979
0.0001179560381
0.0001180339742
0.0001181156212
0.0001182112312
0.0001183074135
0.0001184115
0.0001185231861
0.0001186423847
0.0001187777134
0.0001189198358
0.0001190751185
0.0001192497902
0.0001194445911
0.0001196477506
0.0001271862552
0.0001272881143
0.0001275058643
0.0001278261187
0.0001281918642
0.0001285812738
0.0001290321417
0.0001293702649
0.000129708437
0.0001298246938
0.0001298774521
0.0001296257827
0.0001292692078
0.0001287548182
0.0001280538275
0.0001272354663
0.0001262991874
0.0001252675168
0.0001241858667
0.0001231074448
0.0001220833361
0.0001211768326
0.0001204650661
0.0001200085618
0.0001196952851
0.0001193789611
0.0001190692066
0.0001187663556
0.0001184878844
0.0001182524074
0.0001180551014
0.0001179182466
0.0001178472861
0.0001178567951
0.000117915157
0.0001179900155
0.0001180671614
0.0001181560653
0.0001182508453
0.0001183501048
0.0001184572019
0.0001185718369
0.0001186970919
0.0001188347762
0.0001189806424
0.0001191411586
0.0001193232257
0.0001195276207
0.0001197299944
0.0001199350769
0.0001292470084
0.0001292924994
0.0001293898219
0.0001295331481
0.0001297188933
0.0001298049942
0.0001298442068
0.0001298582282
0.0001296616695
0.0001294304145
0.0001290050049
0.0001285013026
0.0001278559809
0.0001270844539
0.0001262220919
0.000125270431
0.0001242655092
0.0001232506251
0.0001222645862
0.0001213577004
0.0001206252424
0.0001201443863
0.0001198072674
0.0001195019745
0.0001191982727
0.0001188999863
0.0001186158388
0.0001183632723
0.0001181510971
0.0001179824821
0.0001178773324
0.0001178402289
0.000117876914
0.000117945838
0.0001180225447
0.0001181000952
0.0001181946487
0.0001182885719
0.0001183906937
0.0001185005848
0.0001186179516
0.0001187493568
0.0001188896337
0.0001190414393
0.000119211111
0.0001194013592
0.0001196057291
0.000119807873
0.0001200149521
0.0001202117945
0.0001298688859
0.0001298754247
0.0001298543837
0.000129771445
0.0001296636661
0.0001295327157
0.0001293061442
0.0001289872728
0.0001286117897
0.0001280927901
0.000127507853
0.000126793172
0.0001260046692
0.0001251427698
0.0001242217663
0.0001232859664
0.0001223586353
0.0001214975645
0.0001207870048
0.0001202660994
0.0001199010691
0.0001196087331
0.0001193133612
0.0001190217164
0.0001187347659
0.0001184718509
0.0001182486022
0.0001180590482
0.0001179249433
0.0001178520179
0.0001178534389
0.0001179059419
0.0001179779261
0.0001180537092
0.0001181378654
0.0001182314471
0.0001183277213
0.0001184318888
0.0001185436977
0.0001186640789
0.0001187992339
0.0001189414881
0.0001190988337
0.000119277071
0.0001194757139
0.0001196791811
0.0001198835422
0.0001200878149
0.0001202820649
0.0001204585919
0.0001291491176
0.0001291020337
0.0001290011098
0.000128852001
0.0001286448317
0.0001283279569
0.0001279577222
0.0001275142453
0.0001269573959
0.00012634125
0.0001256311388
0.0001248648878
0.0001240389566
0.0001231989631
0.0001223530733
0.0001215585634
0.0001208826966
0.0001203511727
0.0001199730659
0.0001196957642
0.0001194125848
0.0001191313153
0.0001188527015
0.0001185876557
0.0001183510466
0.0001181493191
0.0001179862611
0.0001178810763
0.000117837232
0.0001178681433
0.0001179339603
0.0001180088233
0.0001180836457
0.0001181740633
0.0001182666342
0.0001183653662
0.0001184719084
0.0001185860182
0.0001187118085
0.000118849099
0.0001189955962
0.0001191576708
0.0001193406689
0.0001195456893
0.0001197482313
0.0001199546075
0.0001201553135
0.0001203433583
0.0001205177368
0.000120683462
0.000127784579
0.00012772244
0.0001275760794
0.0001273416188
0.0001270359885
0.00012666324
0.0001262125881
0.0001256797362
0.0001250852872
0.0001244215555
0.0001237047653
0.0001229750044
0.0001222353342
0.0001215148091
0.0001209028653
0.0001203940075
0.0001200196807
0.0001197597321
0.0001194925009
0.000119223108
0.0001189543943
0.000118690305
0.000118443847
0.0001182366525
0.0001180580484
0.0001179295624
0.0001178562884
0.0001178500848
0.000117896205
0.0001179646789
0.0001180385722
0.0001181169527
0.0001182087637
0.0001183011429
0.0001184014106
0.0001185100305
0.0001186262444
0.0001187570818
0.000118896305
0.0001190475895
0.0001192171485
0.0001194074281
0.0001196114014
0.0001198137829
0.0001200212554
0.000120218551
0.0001204007306
0.0001205720208
0.0001207272886
0.0001208572803
0.0001260404016
0.0001259615547
0.0001257923818
0.0001255420236
0.0001252154203
0.0001248118185
0.0001243367066
0.0001237955088
0.0001232240784
0.00012259825
0.0001219919284
0.0001213646525
0.0001208376096
0.000120388759
0.0001200371871
0.0001197968178
0.0001195477066
0.0001192929664
0.0001190367208
0.0001187819295
0.0001185413161
0.0001183262761
0.0001181390594
0.0001179857587
0.0001178833952
0.0001178347354
0.0001178625958
0.0001179234482
0.0001179945199
0.0001180672902
0.0001181514426
0.000118242065
0.000118336533
0.0001184387867
0.0001185486445
0.0001186673176
0.0001188005002
0.0001189409771
0.0001190966888
0.0001192732048
0.0001194702314
0.00011967309
0.0001198770019
0.0001200817351
0.000120277
0.0001204543256
0.0001206226818
0.0001207679419
0.0001208905083
0.0001209931702
0.0001242105432
0.0001241303239
0.0001239581732
0.0001237066561
0.0001233930726
0.0001230101184
0.0001225613077
0.000122106608
0.000121607311
0.0001211366808
0.0001206759292
0.0001203290069
0.0001200215284
0.0001198030665
0.0001195744068
0.0001193373372
0.000119098078
0.0001188571326
0.0001186223468
0.0001184030908
0.0001182104863
0.0001180468937
0.0001179288442
0.0001178586668
0.0001178474754
0.0001178875635
0.0001179520395
0.0001180234388
0.0001180953358
0.0001181846981
0.0001182740845
0.0001183704657
0.0001184745243
0.0001185860924
0.0001187091772
0.0001188438577
0.0001189874478
0.0001191460665
0.0001193259867
0.0001195292421
0.0001197309397
0.0001199361796
0.0001201376302
0.0001203274996
0.0001205032326
0.0001206698435
0.0001208057484
0.0001209213827
0.0001210150453
0.0001210900845
0.0001224885356
0.0001224220862
0.000122279493
0.0001220684175
0.0001217929709
0.0001214566055
0.0001211395868
0.0001207921741
0.0001204638437
0.0001202073387
0.0001199680779
0.0001197740403
0.0001195683518
0.0001193522682
0.0001191324798
0.0001189080139
0.0001186831716
0.0001184683775
0.0001182821999
0.0001181148752
0.0001179775718
0.000117882796
0.0001178343645
0.0001178599622
0.0001179145711
0.0001179814168
0.000118051508
0.0001181287993
0.0001182167796
0.0001183061967
0.0001184032944
0.0001185087257
0.0001186218235
0.0001187490005
0.0001188849878
0.000119032334
0.0001191969621
0.0001193822167
0.0001195845874
0.0001197851083
0.0001199914752
0.0001201897574
0.000120374512
0.000120547475
0.0001207080516
0.0001208408024
0.0001209499787
0.0001210352879
0.0001211102253
0.0001211821124
0.0001211165758
0.000121064871
0.0001209539369
0.0001207897724
0.000120575631
0.0001204092403
0.0001202247234
0.0001200237195
0.000119871405
0.0001197045863
0.0001195246518
0.0001193332472
0.0001191353224
0.0001189305908
0.0001187203471
0.0001185212069
0.0001183378154
0.0001181703472
0.0001180198628
0.0001179192313
0.0001178575994
0.0001178464137
0.000117881761
0.0001179419078
0.0001180101157
0.0001180788461
0.0001181612896
0.0001182478168
0.0001183388253
0.0001184373802
0.0001185433884
0.0001186574908
0.0001187869089
0.0001189240147
0.0001190747914
0.0001192449573
0.0001194354791
0.0001196364313
0.0001198373854
0.0001200428166
0.0001202382694
0.0001204181717
0.0001205884838
0.0001207407712
0.0001208687455
0.0001209763707
0.0001210539495
0.0001211287758
0.000121196853
0.0001212544219
0.00012022585
0.0001201945632
0.0001201274597
0.000120032381
0.0001199480354
0.0001198452554
0.000119725129
0.0001195889986
0.0001194376398
0.0001192750777
0.0001191016737
0.0001189203282
0.0001187299715
0.0001185485318
0.0001183740083
0.0001182109799
0.0001180703136
0.000117957712
0.0001178775452
0.0001178344599
0.0001178591732
0.0001179091743
0.000117971517
0.0001180382052
0.0001181083918
0.0001181929236
0.0001182779331
0.0001183703755
0.0001184702225
0.0001185773993
0.0001186950623
0.0001188250034
0.0001189625609
0.0001191149643
0.0001192902138
0.0001194855344
0.0001196849971
0.0001198865787
0.0001200888502
0.0001202821547
0.0001204586184
0.0001206263872
0.0001207709503
0.0001208932408
0.0001209954642
0.0001210710824
0.0001211457869
0.0001212103574
0.0001212661763
0.0001213163287
0.0001197345695
0.0001197141984
0.000119670611
0.000119606216
0.0001195223453
0.0001194201768
0.0001193030164
0.0001191718086
0.0001190265424
0.0001188720631
0.0001187076143
0.000118546141
0.0001183874722
0.0001182385946
0.000118104683
0.0001179866494
0.000117896375
0.0001178512041
0.0001178478648
0.0001178808781
0.0001179365362
0.0001180007403
0.0001180658331
0.0001181409669
0.0001182237847
0.0001183087602
0.0001184010481
0.000118501953
0.0001186101311
0.0001187310783
0.0001188617259
0.0001190021264
0.000119157693
0.0001193334611
0.0001195325721
0.0001197304664
0.0001199324717
0.0001201316499
0.0001203203641
0.0001204953409
0.0001206613177
0.0001207986922
0.0001209157071
0.0001210112641
0.0001210867247
0.0001211613087
0.0001212226646
0.0001212768783
0.0001213254654
0.0001213677672
0.0001193198547
0.0001193002595
0.000119258247
0.0001191961489
0.0001191152767
0.0001190177089
0.0001189063865
0.0001187800021
0.0001186483042
0.0001185093115
0.000118374502
0.0001182419576
0.0001181201753
0.0001180043232
0.0001179211835
0.0001178654877
0.0001178386754
0.000117861275
0.0001179095083
0.0001179672521
0.0001180296857
0.0001180931312
0.0001181730416
0.0001182540616
0.0001183401966
0.0001184334686
0.0001185338929
0.0001186417297
0.0001187656986
0.0001188968719
0.0001190398269
0.0001191997158
0.00011937945
0.000119576773
0.0001197730339
0.0001199752585
0.0001201713939
0.0001203557109
0.0001205281724
0.0001206917277
0.0001208241035
0.0001209362286
0.0001210256603
0.0001211009351
0.0001211750902
0.0001212338154
0.0001212865623
0.0001213337151
0.0001213755145
0.0001214101771
0.0001189297277
0.0001189108485
0.0001188703717
0.000118810545
0.0001187326339
0.0001186467329
0.000118546541
0.0001184353043
0.0001183309867
0.0001182168673
0.0001181136906
0.0001180088241
0.000117933807
0.0001178746645
0.0001178371527
0.0001178530184
0.0001178874724
0.0001179386862
0.0001179979458
0.0001180584981
0.0001181266532
0.0001182047538
0.0001182839019
0.0001183710586
0.0001184651662
0.0001185662634
0.000118676372
0.000118799513
0.0001189306127
0.0001190758454
0.0001192396669
0.0001194229559
0.000119618337
0.0001198136186
0.0001200151442
0.0001202082698
0.000120388359
0.0001205583667
0.0001207154719
0.0001208472954
0.0001209548928
0.0001210387126
0.0001211137829
0.0001211852123
0.0001212438528
0.0001212952646
0.0001213411185
0.0001213816461
0.0001214163174
0.0001214442999
0.0001185736913
0.0001185566956
0.000118520258
0.0001184664039
0.0001184051613
0.0001183346989
0.000118252406
0.0001181680428
0.0001180818144
0.0001179980453
0.0001179322343
0.0001178778621
0.000117844001
0.0001178475014
0.0001178711326
0.0001179183095
0.0001179715769
0.0001180287474
0.0001180873445
0.0001181602961
0.0001182362578
0.0001183155747
0.0001184016295
0.0001184963087
0.0001185979258
0.0001187106872
0.0001188339547
0.0001189648729
0.0001191103775
0.0001192777636
0.0001194642152
0.0001196575365
0.0001198525069
0.0001200517205
0.0001202424752
0.0001204184814
0.0001205860817
0.0001207371595
0.0001208647928
0.0001209717916
0.0001210504838
0.0001211253288
0.0001211942803
0.0001212524619
0.0001213030222
0.0001213477062
0.0001213870945
0.0001214214143
0.0001214486398
0.0001214708473
0.0001182795319
0.0001182655684
0.0001182356333
0.0001181949451
0.0001181470936
0.0001180888323
0.0001180208012
0.0001179696763
0.0001179142589
0.000117874123
0.0001178444088
0.0001178451963
0.0001178632929
0.0001179045982
0.0001179516603
0.0001180048687
0.0001180598131
0.0001181218557
0.000118194044
0.0001182677534
0.0001183478773
0.0001184345084
0.0001185277931
0.0001186290601
0.0001187442681
0.0001188674886
0.0001190002304
0.0001191467693
0.0001193142323
0.0001195034745
0.000119694606
0.0001198890516
0.0001200850137
0.0001202738203
0.0001204462581
0.0001206114818
0.0001207569176
0.0001208804826
0.0001209857786
0.0001210610382
0.0001211356343
0.0001212023413
0.0001212593889
0.0001213098733
0.0001213535095
0.0001213918848
0.0001214252136
0.0001214524463
0.0001214736817
0.0001214934074
0.000118047029
0.0001180354821
0.0001180130511
0.0001179894131
0.0001179586437
0.0001179211887
0.0001178849337
0.0001178623985
0.0001178373732
0.0001178466194
0.000117862504
0.0001178981372
0.0001179393575
0.0001179879706
0.0001180386928
0.0001180913314
0.0001181583947
0.0001182280345
0.0001183001645
0.0001183802346
0.0001184673152
0.0001185608335
0.0001186619863
0.0001187773195
0.0001189003223
0.0001190346582
0.0001191842435
0.0001193521757
0.0001195409899
0.0001197297897
0.0001199234949
0.0001201161678
0.0001203008012
0.0001204718746
0.0001206347356
0.0001207748764
0.0001208946441
0.0001209954921
0.0001210704429
0.0001211447637
0.0001212094444
0.000121265464
0.0001213158573
0.0001213585609
0.0001213960427
0.0001214285043
0.0001214557383
0.0001214761309
0.0001214958693
0.0001215134662
0.0001178966452
0.0001178902762
0.0001178830455
0.0001178723633
0.000117858461
0.0001178415424
0.0001178402807
0.0001178523342
0.0001178669932
0.0001179000961
0.0001179359408
0.0001179792917
0.0001180251419
0.0001180732467
0.000118130678
0.0001181955499
0.0001182625048
0.0001183352832
0.0001184139573
0.0001185002451
0.0001185938633
0.0001186972618
0.0001188111816
0.00011893267
0.0001190683854
0.0001192207329
0.0001193908849
0.0001195770063
0.0001197633428
0.0001199560899
0.0001201454142
0.0001203259205
0.0001204948898
0.0001206560179
0.0001207911709
0.0001209073837
0.0001210041576
0.0001210787653
0.0001211527821
0.0001212156394
0.0001212707288
0.0001213203383
0.0001213628932
0.0001213995945
0.0001214313065
0.0001214582307
0.0001214782086
0.0001214979562
0.0001215141078
0.0001215199864
0.000118534741
0.0001186270891
0.0001187325962
0.0001188459251
0.0001189666931
0.0001191016486
0.0001192565001
0.0001194285758
0.0001196117909
0.0001197955448
0.0001199870968
0.0001201729908
0.0001203493857
0.0001205157357
0.0001206755084
0.0001208059399
0.0001209188102
0.0001210118491
0.0001210860653
0.000121159757
0.000121220978
0.0001212752264
0.0001213240688
0.0001213665401
0.000121402567
0.0001214336407
0.0001214599514
0.0001214799289
0.0001214996818
0.0001215146381
0.0001215205237
0.0001215203015
)
;

boundaryField
{
    front_top
    {
        type            wedge;
    }
    front_middle
    {
        type            wedge;
    }
    front_bottom
    {
        type            wedge;
    }
    back_top
    {
        type            wedge;
    }
    back_middle
    {
        type            wedge;
    }
    back_bottom
    {
        type            wedge;
    }
    axis_top
    {
        type            symmetryPlane;
    }
    axis_middle
    {
        type            symmetryPlane;
    }
    axis_bottom
    {
        type            symmetryPlane;
    }
    wall_top
    {
        type            calculated;
        value           nonuniform List<scalar> 
23
(
0.0001187310828
0.0001189412397
0.0001191809166
0.0001194592222
0.0001197486551
0.0001200382762
0.0001203058324
0.0001205433454
0.0001207502637
0.0001209111961
0.0001210310148
0.0001211273772
0.0001212114497
0.0001212796899
0.0001213376475
0.0001213861313
0.0001214259136
0.0001214577224
0.0001214807813
0.0001215032206
0.0001215164237
0.0001215207813
0.0001215198959
)
;
    }
    wall_middle
    {
        type            calculated;
        value           nonuniform 0();
    }
    wall_bottom
    {
        type            calculated;
        value           nonuniform 0();
    }
    inlet
    {
        type            calculated;
        value           nonuniform 0();
    }
    outlet
    {
        type            calculated;
        value           nonuniform 0();
    }
    procBoundary10to9
    {
        type            processor;
        value           nonuniform List<scalar> 
51
(
0.00011783508
0.0001178368855
0.000117840755
0.0001178464705
0.0001178539071
0.0001178629544
0.0001178846521
0.000117911748
0.0001179427973
0.000117980159
0.0001180204265
0.0001180633322
0.0001181123331
0.0001181716354
0.0001182334744
0.000118298224
0.0001183709851
0.0001184499153
0.0001184499153
0.0001186629874
0.0001187682229
0.0001188808016
0.0001190026739
0.0001191363637
0.0001192918158
0.0001194655436
0.0001196456589
0.0001198278699
0.0001200167809
0.0001201991405
0.0001203714088
0.000120535086
0.0001206917118
0.0001208193262
0.0001209290357
0.0001210186428
0.0001210924287
0.000121165758
0.000121225513
0.0001212790011
0.0001213271649
0.0001213695364
0.000121404988
0.0001214355279
0.0001214613347
0.0001214813063
0.0001215010599
0.0001215150612
0.0001215209526
0.0001215202404
0.0001215194347
)
;
    }
    procBoundary10to11
    {
        type            processor;
        value           nonuniform List<scalar> 
51
(
0.0001200875732
0.0001200838137
0.0001200761236
0.0001200671942
0.0001200555727
0.0001200414494
0.0001200250088
0.0001200063969
0.0001199857628
0.0001199704518
0.0001199541648
0.0001199403024
0.0001199284842
0.0001199110067
0.0001198946793
0.0001198966485
0.0001202859451
0.0001212329351
0.0001225804803
0.0001241678064
0.0001258093738
0.0001273419811
0.0001286095092
0.0001294836499
0.0001298376148
0.0001296524626
0.000129047397
0.0001281381454
0.0001269934073
0.0001256949097
0.0001243270443
0.0001229819293
0.0001217627459
0.0001207775158
0.0001195353204
0.0001195353204
0.0001191881856
0.000118853155
0.0001185433627
0.000118281255
0.0001180666126
0.0001179186278
0.000117844681
0.0001178594741
0.0001179236455
0.0001180019277
0.0001180808353
0.0001181747487
0.0001182706666
0.0001183726165
0.000118482017
)
;
    }
}


// ************************************************************************* //
