/*--------------------------------*- C++ -*----------------------------------*\
  =========                 |
  \\      /  F ield         | OpenFOAM: The Open Source CFD Toolbox
   \\    /   O peration     | Website:  https://openfoam.org
    \\  /    A nd           | Version:  7
     \\/     M anipulation  |
\*---------------------------------------------------------------------------*/
FoamFile
{
    version     2.0;
    format      ascii;
    class       volVectorField;
    location    "0.0024";
    object      grad(generalizedNewtonian:nu);
}
// * * * * * * * * * * * * * * * * * * * * * * * * * * * * * * * * * * * * * //

dimensions      [0 1 -1 0 0 0 0];

internalField   nonuniform List<vector> 
1167
(
(-99250.7404 -2.2053486e-07 584149.872)
(-215957.851 0 582233.828)
(-348384.5411 2.323668784e-08 578139.4477)
(-479640.947 0 572406.3719)
(-599666.334 0 565265.5252)
(-713470.0434 0 556548.611)
(-818499.4181 1.997471216e-08 546556.8433)
(-913709.8357 0 534953.5362)
(-999471.2169 -8.073877753e-09 522263.0803)
(-1076011.616 -7.42733373e-09 508710.4626)
(-1142534.815 0 494261.5038)
(-1199380.17 0 479020.2061)
(-1247303.642 0 463450.4178)
(-1285573.698 0 447119.2872)
(-1315460.032 0 430606.073)
(-1337205.323 0 413900.9808)
(-1351320.892 0 397009.1173)
(-1358514.19 0 380311.6901)
(-1359178.889 2.445383862e-09 363473.8212)
(-1354030.228 0 347042.1454)
(-1343708.948 4.662950627e-09 330659.3353)
(-1328754.344 0 314799.9924)
(-1309885 2.243978923e-09 299191.2941)
(-1287515.362 0 284137.7169)
(-1262245.674 0 269519.9054)
(-1234548.466 0 255394.5407)
(-1204841.01 0 241886.0185)
(-1173843.179 0 228826.6169)
(-1141515.184 0 216476.03)
(-1108549.573 0 204512.4523)
(-1074913.723 2.05907779e-09 193287.2605)
(-1041190.931 0 182495.5799)
(-1007318.609 0 172337.3008)
(-973715.1099 0 162692.0925)
(-940604.0058 0 153557.6828)
(-907916.6484 0 144990.9667)
(-96972.10033 0 566064.4044)
(-210506.6415 0 564459.3762)
(-339741.5259 0 560792.4999)
(-468539.6806 -1.732947444e-08 555375.1002)
(-585728.075 0 548451.5649)
(-695871.8032 0 539871.5431)
(-797361.4229 2.028579069e-08 529734.8098)
(-890194.4278 -9.03829501e-09 518599.3549)
(-974061.1303 0 506478.3121)
(-1047856.107 0 493232.4244)
(-1112176.517 0 479161.6468)
(-1167631.255 0 464643.1902)
(-1213320.049 0 449323.3117)
(-1250361.152 -5.929912631e-09 433620.2687)
(-1279161.909 0 417745.0701)
(-1299757.576 0 401407.9001)
(-1313158.553 0 385258.3258)
(-1319566.812 0 368789.9392)
(-1319819.53 -4.96693467e-09 352702.349)
(-1314441.023 2.421779914e-09 336507.5683)
(-1304063.466 0 320852.7499)
(-1289341.839 2.320449444e-09 305258.4973)
(-1270744.398 0 290309.7811)
(-1248954.086 0 275561.0811)
(-1224219.022 0 261485.3434)
(-1197312.314 0 247729.105)
(-1168469.823 0 234656.5679)
(-1138280.762 0 222043.8582)
(-1106954.963 2.119437694e-09 209998.8327)
(-1074812.462 1.052031978e-09 198539.8273)
(-1042372.662 0 187543.2072)
(-1009556.49 0 177212.8117)
(-976925.7005 0 167256.9884)
(-944397.7652 0 157987.6009)
(-912399.1749 -1.030204365e-09 149114.5889)
(-880789.1332 0 140807.1116)
(-849845.6914 0 132931.6837)
(-819653.7428 1.027774647e-09 125507.771)
(-790206.972 1.028425161e-09 118550.3692)
(-761717.5532 0 111942.8291)
(-734043.0492 0 105811.5952)
(-707376.882 0 99950.23941)
(-681570.5181 0 94536.76325)
(-656780.9825 0 89366.52358)
(-632916.3171 -5.226502846e-10 84586.34135)
(-610048.192 5.250229399e-10 80040.66852)
(-588047.9186 0 75814.69235)
(-566856.0908 -5.305135488e-10 71812.84105)
(-547091.3198 0 68080.49433)
(-531750.3088 -2.684767592e-10 64545.68888)
(-95097.45932 0 549961.0071)
(-205857.5601 0 548324.6865)
(-331836.5014 0 544692.8701)
(-457100.9647 0 539349.5791)
(-570942.9956 0 532238.6598)
(-678247.3268 0 523861.1635)
(-777822.9729 0 514291.5808)
(-868431.0178 0 503611.5971)
(-949174.1077 8.327315098e-09 491561.4518)
(-1020868.298 0 478727.2986)
(-1083769.908 -7.125827112e-09 465331.6584)
(-1136879.697 0 451041.2002)
(-1181128.281 0 436182.9136)
(-1216961.565 0 421091.9751)
(-1244138.047 0 405324.6195)
(-1263960.123 0 389666.6233)
(-1276364.49 0 373676.6257)
(-1282329.698 0 357869.4167)
(-1282181.102 0 342057.5385)
(-1276668.519 0 326530.3159)
(-1266346.088 0 311188.5465)
(-1251746.487 0 296258.1693)
(-1233570.921 0 281616.3268)
(-1212074.922 0 267495.8159)
(-1188008.657 2.245045712e-09 253668.6165)
(-1161658.337 0 240520.9172)
(-1133729.296 0 227675.1219)
(-1104294.429 0 215557.9093)
(-1073971.047 1.076222523e-09 203796.0754)
(-1042793.526 0 192720.5443)
(-1011297.041 0 182083.0158)
(-979521.5169 0 172010.9153)
(-947790.9158 0 162474.0049)
(-916465.0841 0 153395.0736)
(-885377.0934 0 144898.6614)
(-854908.2411 0 136750.0674)
(-824937.1246 0 129185.0171)
(-795784.4385 0 121950.3917)
(-767314.1863 0 115222.3035)
(-739762.2883 0 108835.7236)
(-713019.2685 1.047759115e-09 102859.2533)
(-687171.9817 0 97232.15822)
(-662282.8937 0 91929.49133)
(-638274.72 0 86977.05855)
(-615260.9792 -5.307898504e-10 82287.92928)
(-593117.5456 0 77930.5308)
(-571877.0847 0 73783.76001)
(-551363.8197 5.387755742e-10 69946.13533)
(-532260.9682 0 66283.20334)
(-517536.2194 0 62896.26382)
(-92809.10629 0 534542.9946)
(-200600.7701 7.89408287e-08 532848.8751)
(-323654.9851 0 529147.6702)
(-446091.7578 0 524093.4258)
(-557511.8507 0 517553.6013)
(-662636.5254 0 509566.0574)
(-759221.3642 0 500228.47)
(-846593.2842 0 489416.2879)
(-925500.3888 8.457001282e-09 477881.5805)
(-995731.9301 0 465650.2863)
(-1056113.798 0 452364.1355)
(-1107523.767 6.793169998e-09 438391.1704)
(-1150425.822 0 424104.0159)
(-1184315.403 0 408996.5989)
(-1210682.595 0 393876.0471)
(-1229467.942 -2.81469058e-09 378520.4697)
(-1241235.721 0 363033.0272)
(-1246687.759 -2.634290035e-09 347688.1753)
(-1246239.697 0 332256.5037)
(-1240592.272 0 317215.757)
(-1230289.298 0 302216.1997)
(-1215906.389 -2.393287803e-09 287737.9225)
(-1197986.422 0 273455.0152)
(-1176909.982 0 259687.6508)
(-1153392.038 0 246300.7472)
(-1127753.775 2.251269517e-09 233445.0082)
(-1100433.047 -1.113126228e-09 221107.6271)
(-1071950.063 0 209224.7847)
(-1042340.258 -1.092983171e-09 197956.7024)
(-1012206.962 0 187068.1495)
(-981541.3472 0 176857.1691)
(-950869.8282 0 166993.7653)
(-920155.8187 0 157801.3462)
(-889798.2222 1.065042446e-09 148997.2514)
(-859702.1079 1.062542236e-09 140725.7123)
(-830116.3715 1.060909097e-09 132894.6402)
(-801206.835 1.060089545e-09 125490.8118)
(-772910.493 0 118560.0083)
(-745466.1384 5.303535917e-10 111960.8413)
(-718749.7727 1.062065013e-09 105844.2562)
(-692951.2269 1.064076485e-09 99983.22432)
(-667939.8473 0 94575.23491)
(-643872.1395 0 89405.77555)
(-620664.9238 0 84621.22208)
(-598394.5871 0 80073.00403)
(-576977.6829 0 75839.54992)
(-556419.0184 5.442091485e-10 71832.19889)
(-536576.3362 0 68089.14458)
(-518100.0368 -2.751839761e-10 64559.09658)
(-503783.7519 2.769041812e-10 61252.91381)
(-90847.72647 0 521322.4581)
(-195871.3081 0 519804.4056)
(-316448.1156 0 516301.8897)
(-436543.5631 0 511294.1552)
(-544850.2953 0 504723.3638)
(-646649.4549 0 496528.992)
(-740422.3171 0 487118.0107)
(-826269.5809 0 476928.9675)
(-903507.2603 0 465872.6753)
(-970907.5263 7.900936665e-09 453553.7255)
(-1029431.057 -7.34950508e-09 440481.7567)
(-1079515.074 0 426972.4415)
(-1120311.676 -6.52521447e-09 412623.3114)
(-1153292.507 0 398085.8834)
(-1178724.129 0 383380.9617)
(-1196518.219 0 368228.9311)
(-1207691.658 0 353298.3447)
(-1212476.49 0 338049.5921)
(-1211741.095 2.601313435e-09 323222.2483)
(-1205898.481 0 308275.3432)
(-1195617.48 0 293873.3173)
(-1181418.248 2.430559979e-09 279525.5742)
(-1163704.453 0 265783.6447)
(-1143156.352 0 252187.5579)
(-1120155.355 0 239307.023)
(-1095288.824 0 226678.6937)
(-1068714.82 2.260923284e-09 214754.6909)
(-1040987.637 0 203173.3236)
(-1012227.414 1.110004885e-09 192198.6326)
(-982903.3493 -1.101953257e-09 181688.0417)
(-953224.3743 0 171688.2243)
(-923373.9289 0 162238.1946)
(-893750.0808 0 153206.2659)
(-864230.582 0 144766.0682)
(-835185.2087 -1.079089874e-09 136646.6342)
(-806524.4337 0 129116.2094)
(-778557.1696 -5.382994928e-10 121906.1536)
(-751174.8894 0 115192.664)
(-724607.3104 0 108820.3682)
(-698764.1511 0 102850.2079)
(-673730.5437 0 97230.07556)
(-649587.8678 0 91928.52391)
(-626255.1528 0 86978.7022)
(-603850.9204 0 82287.29249)
(-582263.587 0 77929.55163)
(-561564.0135 0 73778.43162)
(-541643.9604 5.526844597e-10 69938.76052)
(-522454.9801 -2.778438038e-10 66269.15146)
(-504576.9506 -2.794695892e-10 62887.48443)
(-490721.4311 2.812165841e-10 59641.21546)
(-89060.32202 0 510138.681)
(-191414.5285 4.070938219e-08 508511.7597)
(-308893.4302 0 504935.4647)
(-425882.7583 1.843448608e-08 499677.1194)
(-531389.5989 0 492914.0558)
(-631032.6377 0 485123.8773)
(-723451.8777 0 476278.9886)
(-807109.8388 0 466326.4527)
(-881238.3358 0 454919.6287)
(-946801.6248 0 442768.0572)
(-1003953.932 -7.463963473e-09 430076.0494)
(-1051812.052 0 416474.514)
(-1091611.715 0 402461.4521)
(-1123658.13 0 388350.5476)
(-1147571.896 -3.018765746e-09 373537.9231)
(-1164720.997 0 358856.1121)
(-1175026.334 0 343887.9013)
(-1179500.969 0 329116.8634)
(-1178442.588 -2.641825299e-09 314389.976)
(-1172538.742 0 299915.3734)
(-1162340.577 0 285693.1721)
(-1148294.872 0 271795.8916)
(-1130917.702 0 258232.4666)
(-1110759.543 0 245145.7366)
(-1088432.437 0 232448.2047)
(-1064075.353 0 220310.4371)
(-1038301.618 -1.148067021e-09 208528.9839)
(-1011217.22 0 197393.1477)
(-983391.7434 0 186576.8097)
(-954874.0305 0 176452.4992)
(-926149.8125 -1.112243334e-09 166663.3425)
(-897234.6899 0 157515.7053)
(-868504.9799 0 148761.5367)
(-839907.736 -1.0984739e-09 140520.8252)
(-811678.2702 0 132723.9037)
(-784016.4599 0 125341.1092)
(-756850.3477 0 118432.5991)
(-730428.8409 0 111847.292)
(-704645.709 -1.094002554e-09 105744.9474)
(-679691.4923 -5.477015032e-10 99892.62257)
(-655450.2224 -1.097477618e-09 94496.10097)
(-632079.0922 0 89330.33492)
(-609504.849 0 84552.47099)
(-587804.4696 0 80006.44479)
(-566906.8674 5.559770105e-10 75777.59672)
(-546855.4018 0 71772.20807)
(-527570.7174 0 68033.26586)
(-508983.2558 -2.821708373e-10 64504.33637)
(-491666.6751 0 61203.28822)
(-478235.415 -2.855961441e-10 58078.90063)
(-86896.0341 0 499963.3867)
(-186536.422 0 498266.5719)
(-301329.3544 0 494757.7382)
(-415889.3872 0 489953.8131)
(-519558.0289 1.497147957e-08 483767.2616)
(-617244.9078 0 476241.5757)
(-706618.7573 0 467270.2262)
(-787144.2927 0 456771.4217)
(-859619.9081 -8.858304839e-09 445570.4612)
(-923778.5079 0 433701.7909)
(-978600.1385 0 420796.246)
(-1025161.244 0 407341.072)
(-1063936.534 0 393701.7584)
(-1094191.785 3.203135722e-09 379273.4907)
(-1117369.402 0 364829.5842)
(-1133654.148 2.948253921e-09 350219.1842)
(-1143475.555 -2.847005773e-09 335467.7144)
(-1147572.239 2.759292968e-09 320973.6037)
(-1146288.176 0 306352.3501)
(-1140363.21 0 292241.3197)
(-1130193.546 -2.557992539e-09 278111.7151)
(-1116322.065 0 264567.4516)
(-1099344.768 0 251148.2975)
(-1079707.651 0 238410.6434)
(-1057898.696 0 225925.2223)
(-1034186.313 -2.358097272e-09 214056.7058)
(-1009082.705 0 202573.4132)
(-982772.3691 0 191639.6993)
(-955666.9167 0 181199.2162)
(-928084.6023 1.136543292e-09 171231.7048)
(-900127.2595 -1.129564957e-09 161829.1745)
(-872219.8219 1.123805535e-09 152823.1279)
(-844278.1732 0 144416.8826)
(-816661.0813 0 136319.0236)
(-789309.3346 0 128816.2554)
(-762522.8869 0 121623.292)
(-736219.7227 1.110393156e-09 114929.7486)
(-710624.916 0 108570.7826)
(-685667.798 0 102616.8849)
(-661443.985 0 97007.74599)
(-638016.2149 5.572846427e-10 91719.78341)
(-615339.6904 0 86779.00358)
(-593528.2112 0 82098.84734)
(-572474.8863 0 77748.7494)
(-552260.831 5.646355692e-10 73607.179)
(-532816.6507 5.671988235e-10 69774.36085)
(-514153.7126 0 66112.7707)
(-496135.0147 0 62736.30192)
(-479346.5404 -2.88242069e-10 59501.63047)
(-466430.7058 0 56512.77455)
(-84997.0242 0 493419.2526)
(-182254.0226 0 491825.7422)
(-294940.4222 0 488547.116)
(-407282.182 1.901314063e-08 483706.908)
(-507884.5405 0 477204.5853)
(-602295.9897 0 469008.681)
(-688944.5884 0 459541.6405)
(-768028.2588 0 449335.2196)
(-838923.3982 -8.996261031e-09 438280.0845)
(-900496.7045 0 425998.1933)
(-953797.4816 0 413059.4785)
(-999316.3946 7.22633573e-09 399836.1666)
(-1036175.819 -6.834850621e-09 385821.2338)
(-1065604.23 0 371546.9371)
(-1088042.162 0 357245.695)
(-1103429.788 0 342502.3154)
(-1112849.386 0 328076.2505)
(-1116413.357 2.802265247e-09 313401.6636)
(-1115044.584 -2.724751627e-09 299154.2399)
(-1109022.529 0 284932.02)
(-1098956.023 2.597829835e-09 271166.2718)
(-1085348.177 0 257586.4049)
(-1068730.571 0 244576.1778)
(-1049639.562 -2.460384997e-09 231848.5735)
(-1028323.471 2.425393661e-09 219744.7413)
(-1005340.696 -1.197410734e-09 207942.4042)
(-980862.9165 0 196830.6614)
(-955414.1911 0 186004.2608)
(-929104.7195 0 175894.125)
(-902381.2694 -1.154243426e-09 166115.1083)
(-875312.7899 0 156971.63)
(-848253.0278 0 148227.8006)
(-821188.0258 0 139996.9503)
(-794352.6304 1.132954759e-09 132212.5509)
(-767942.3922 0 124844.3594)
(-741919.3782 0 117949.8562)
(-716527.2635 -5.638430184e-10 111382.6143)
(-691677.3916 0 105295.3114)
(-667564.9315 -5.641715297e-10 99462.893)
(-644085.996 0 94087.72004)
(-621400.1231 0 88933.05465)
(-599443.9326 0 84178.20877)
(-578299.8304 0 79643.72299)
(-557901.1789 0 75435.75043)
(-538301.0993 -5.734290093e-10 71441.23867)
(-519457.6211 -2.880160914e-10 67720.31953)
(-501362.1676 2.894552923e-10 64199.87204)
(-483893.0893 0 60912.81778)
(-467607.6112 0 57806.37139)
(-455044.9091 0 54899.58885)
(-83140.20126 -1.247781462e-07 490102.4534)
(-178100.86 0 488237.5172)
(-287860.235 -2.629453531e-08 484716.3899)
(-396972.7527 0 479219.9639)
(-494727.52 0 472117.4942)
(-586973.9466 0 463916.0522)
(-672351.1031 0 454676.8543)
(-749427.101 0 444361.0271)
(-817438.9515 0 432619.2042)
(-877389.0463 0 420169.7958)
(-929603.1073 0 407332.6551)
(-973164.0734 -3.669437852e-09 393646.6065)
(-1008949.228 3.470646884e-09 379471.4297)
(-1037616.711 0 365302.2103)
(-1058762.064 3.162012896e-09 350531.5129)
(-1073726.879 0 335947.0128)
(-1082532.014 0 321254.0116)
(-1085895.493 0 306709.2723)
(-1084409.673 0 292411.1457)
(-1078405.981 0 278255.2316)
(-1068501.985 0 264543.6308)
(-1055222.256 0 251078.3877)
(-1039072.57 0 238184.1387)
(-1020478.241 0 225632.3996)
(-999784.0172 0 213640.6477)
(-977451.9674 1.216058715e-09 202096.3738)
(-953719.9529 -1.202545355e-09 191072.2005)
(-928962.43 0 180583.764)
(-903565.8965 0 170557.1504)
(-877596.0134 0 161120.6693)
(-851489.2297 0 152082.7215)
(-825198.7515 -1.159081546e-09 143658.6379)
(-799074.6861 0 135551.1964)
(-773084.0123 -1.15059893e-09 128051.7142)
(-747521.4498 -1.147897874e-09 120856.118)
(-722330.5252 -5.730667712e-10 114180.7158)
(-697732.9814 -5.726240772e-10 107830.2832)
(-673678.4411 0 101902.6847)
(-650284.0564 0 96310.3848)
(-627561.8414 5.736911578e-10 91052.78662)
(-605537.9427 0 86133.10063)
(-584311.3388 0 81484.79487)
(-563781.3446 0 77157.99154)
(-544033.5943 0 73047.9502)
(-525007.0677 0 69238.35838)
(-506751.6002 0 65606.28572)
(-489190.1195 2.939631497e-10 62251.08027)
(-472245.006 0 59041.85741)
(-456454.7165 0 56081.42839)
(-444248.7263 2.991483164e-10 53242.70916)
(-80673.9423 0 488205.6455)
(-173141.7788 8.661042e-08 486099.65)
(-280157.0262 0 482512.4966)
(-386617.2695 0 477056.2711)
(-482495.5924 -1.568191012e-08 470295.7474)
(-572876.383 0 462168.3595)
(-655383.105 0 452477.5408)
(-729465.3502 -1.022769557e-08 441230.093)
(-795908.6333 0 429275.243)
(-854717.3899 0 416798.8038)
(-904855.4877 0 403350.771)
(-946964.7807 0 389215.7489)
(-981945.2706 0 374991.0833)
(-1009159.904 0 360182.3931)
(-1029751.635 0 345318.4693)
(-1044181.587 0 330540.3347)
(-1052579.056 0 315544.87)
(-1055840.306 0 301046.8026)
(-1054156.164 0 286420.1504)
(-1048279.14 0 272385.6792)
(-1038590.237 -2.679375067e-09 258439.4535)
(-1025709.056 0 245175.4432)
(-1010060.878 0 232138.5991)
(-991993.5637 0 219810.3571)
(-971995.1668 0 207761.7224)
(-950312.7569 0 196463.323)
(-927420.1854 0 185455.9065)
(-903484.0091 0 175207.3013)
(-878914.8845 0 165304.7958)
(-853832.6316 0 156064.8587)
(-828570.0935 0 147241.2507)
(-803152.1923 -1.177132648e-09 138958.8614)
(-777821.236 0 131132.0159)
(-752735.2836 0 123746.2766)
(-727928.725 0 116838.9498)
(-703625.9129 0 110281.394)
(-679756.5485 -1.163083821e-09 104202.731)
(-656522.4394 0 98398.51327)
(-633830.2969 0 93052.92117)
(-611846.2899 0 87925.0197)
(-590515.6103 0 83217.67989)
(-569929.9136 0 78714.23817)
(-550027.5831 0 74556.49905)
(-530866.1352 0 70596.55511)
(-512412.7091 0 66925.53304)
(-494696.7323 0 63440.56771)
(-477654.7556 2.985412219e-10 60201.55094)
(-461196.5223 0 57128.37791)
(-445865.6559 0 54270.87029)
(-434006.5983 0 51546.75942)
(-78327.02775 2.573898035e-07 490381.0957)
(-168687.04 0 488262.8183)
(-273274.3976 0 484963.6886)
(-377274.0684 0 479381.6775)
(-470374.9597 0 472111.1542)
(-557343.6338 0 463044.3703)
(-636936.0577 0 452408.5272)
(-709542.6888 -1.038697754e-08 441046.4262)
(-774676.177 0 428941.2109)
(-831142.6647 -4.334280688e-09 415656.3981)
(-879499.7324 0 401488.6506)
(-920719.627 3.784620612e-09 387142.5579)
(-954222.961 0 372209.1299)
(-980660.9073 -3.407383208e-09 356913.5805)
(-1000800.277 0 341836.1163)
(-1014395.827 0 326364.4806)
(-1022687.802 3.028544685e-09 311276.226)
(-1025653.183 2.935238885e-09 296209.2738)
(-1024043.557 0 281518.2943)
(-1018335.425 0 267125.2384)
(-1009012.025 0 253155.9779)
(-996613.0051 0 239680.2554)
(-981505.3367 0 226675.0858)
(-964088.9884 0 214210.1595)
(-944780.5899 0 202288.2234)
(-923888.0604 0 190899.8755)
(-901736.6899 0 180116.5462)
(-878732.3749 0 169824.2669)
(-854964.9281 -1.217848703e-09 160172.0945)
(-830857.7933 0 150957.0837)
(-806399.9332 0 142390.2177)
(-781931.7883 0 134179.5618)
(-757444.4952 -1.190535344e-09 126607.9337)
(-733234.5938 0 119349.3073)
(-709266.7114 0 112659.3422)
(-685759.7251 0 106289.1045)
(-662684.1897 0 100382.7004)
(-640180.8072 -1.181137832e-09 94803.61249)
(-618213.7904 -5.909427072e-10 89590.53874)
(-596887.9448 0 84705.11493)
(-576259.9143 0 80114.93775)
(-556268.0502 0 75835.21664)
(-536995.2793 0 71789.81943)
(-518383.247 0 68032.95994)
(-500494.8921 -3.003197373e-10 64467.04724)
(-483287.926 0 61165.69156)
(-466744.3284 0 58020.56809)
(-450760.6044 0 55110.83146)
(-435849.7324 0 52340.10886)
(-424366.0117 -3.085385091e-10 49759.20598)
(-75908.40576 0 497666.7221)
(-164391.0468 0 495097.7633)
(-265968.8394 0 491452.2754)
(-366183.2086 0 484971.2885)
(-456161.3994 1.617416143e-08 476632.3902)
(-540629.1999 1.360658571e-08 466895.5066)
(-618818.3751 0 456265.2181)
(-689740.9843 0 444574.7533)
(-752112.0392 0 431400.8306)
(-806507.5446 8.803562297e-09 417161.0731)
(-853888.9527 4.094566794e-09 402628.7938)
(-893624.0622 0 387479.2864)
(-925853.4557 -3.635336829e-09 371671.6185)
(-951772.5036 -3.460448515e-09 356003.5722)
(-970912.6953 0 339982.2387)
(-984251.5641 -3.185091669e-09 324085.9005)
(-992308.9165 0 308464.2309)
(-995258.9855 2.980951193e-09 292841.3359)
(-993825.2265 -2.898494931e-09 277857.9396)
(-988341.4482 2.826498544e-09 262942.5805)
(-979499.7297 0 248833.1676)
(-967617.578 -2.708234112e-09 234944.1178)
(-953135.6636 0 221881.9669)
(-936460.9396 0 209128.4497)
(-917912.1091 0 197224.7005)
(-897904.0096 0 185668.9436)
(-876656.5083 0 174948.816)
(-854546.1564 0 164630.0404)
(-831737.1936 -1.236815022e-09 155050.9468)
(-808540.3986 -1.227843553e-09 145931.4737)
(-785016.3736 0 137427.182)
(-761422.7811 0 129408.9558)
(-737854.7844 -1.209076294e-09 121896.3913)
(-714448.0152 0 114885.1748)
(-691392.603 0 108276.826)
(-668640.9784 -1.200520138e-09 102159.6098)
(-646402.7245 -1.199592737e-09 96361.3406)
(-624593.101 0 91025.59812)
(-603387.9178 0 85936.46056)
(-582741.4023 0 81286.97412)
(-562758.586 6.020521707e-10 76833.65819)
(-543382.7655 0 72757.28205)
(-524681.4901 0 68859.87281)
(-506624.505 0 65277.41537)
(-489254.0513 6.099936083e-10 61861.09368)
(-472542.142 0 58710.6228)
(-456457.6251 0 55704.79281)
(-440930.607 0 52928.2059)
(-426415.404 0 50283.7849)
(-415258.666 -3.13343572e-10 47825.76061)
(-72642.09803 0 507859.4135)
(-158894.1224 -4.53601398e-08 504881.929)
(-257303.9912 0 500970.1386)
(-354079.71 0 494008.5253)
(-441743.143 1.64260521e-08 485669.5206)
(-524583.1871 0 475879.6295)
(-600378.462 0 464620.4107)
(-668055.7931 -1.071302278e-08 451544.6063)
(-728130.0335 4.859472174e-09 437248.4752)
(-781430.6183 0 422487.8927)
(-827236.3086 -4.158334128e-09 407024.428)
(-865188.5968 0 390619.8523)
(-896745.0847 7.383904556e-09 374236.0855)
(-921677.2054 0 357575.9996)
(-940296.16 0 340654.629)
(-953529.8484 0 324178.5142)
(-961198.6087 0 307559.4712)
(-964315.7705 0 291488.1056)
(-962965.9129 0 275612.0274)
(-957959.1967 0 260365.9088)
(-949643.8095 0 245576.6602)
(-938415.3195 0 231427.6018)
(-924683.4439 0 217844.9565)
(-908817.8037 0 204945.0309)
(-891178.9142 0 192645.7504)
(-872053.1518 0 181064.9355)
(-851837.0678 0 170062.1314)
(-830664.0118 0 159793.7923)
(-808929.2445 0 150055.9745)
(-786657.0471 0 141041.2389)
(-764173.6794 0 132473.0622)
(-741492.4206 1.232990245e-09 124605.0583)
(-718913.7182 0 117113.5097)
(-696416.4136 0 110272.7452)
(-674221.1032 0 103767.3763)
(-652318.1763 0 97806.6266)
(-630853.5875 0 92179.33652)
(-609805.596 -6.091067611e-10 86981.64752)
(-589312.0677 6.094922858e-10 82110.56376)
(-569352.9827 0 77583.54842)
(-549980.3578 0 73360.74998)
(-531229.0609 0 69407.63525)
(-513070.6921 0 65732.12291)
(-495568.5429 3.084940388e-10 62272.87408)
(-478689.436 -3.097467164e-10 59063.70094)
(-462454.5497 0 56028.86559)
(-446811.2042 -3.127076756e-10 53211.08532)
(-431716.5176 0 50542.89117)
(-417589.2758 0 48069.67503)
(-406619.0605 3.182234739e-10 45706.61562)
(-69412.71702 0 522933.1897)
(-153762.2714 0 519984.7256)
(-249067.9602 0 516458.094)
(-342672.5887 0 509462.9367)
(-427873.9787 0 500735.8385)
(-507248.9523 0 489936.8317)
(-579527.9732 0 477067.6394)
(-644801.0904 0 462863.0361)
(-703576.1355 -9.870303036e-09 447946.095)
(-755066.1385 0 432105.827)
(-798624.7604 0 415079.9744)
(-835751.858 0 397825.3821)
(-866415.7701 0 380394.3377)
(-890232.6958 0 362374.0811)
(-908594.0407 0 344687.2332)
(-921304.0918 0 326932.2071)
(-928991.7893 0 309441.4427)
(-932196.6227 0 292433.9225)
(-931252.2458 0 275668.4946)
(-926805.8451 0 259755.4295)
(-919101.753 0 244137.1965)
(-908642.3067 0 229475.7967)
(-895759.6097 0 215201.0851)
(-880831.4835 0 201920.3096)
(-864205.5073 0 189094.1091)
(-846148.2591 0 177238.8177)
(-826996.5177 -1.299147631e-09 165890.8404)
(-806948.9169 0 155427.9677)
(-786290.0506 0 145515.1119)
(-765111.6738 0 136360.4449)
(-743665.9421 0 127766.5021)
(-722037.8291 1.252192309e-09 119808.394)
(-700423.2728 0 112413.2801)
(-678921.1511 0 105530.4623)
(-657591.8012 0 99186.48657)
(-636619.249 0 93253.13816)
(-615929.8675 0 87815.36305)
(-595709.8374 0 82697.41775)
(-575921.1265 0 78037.39729)
(-556685.2218 0 73622.12082)
(-537950.642 0 69616.44897)
(-519799.5301 0 65797.63875)
(-502206.1808 0 62331.71122)
(-485223.8635 0 59017.50285)
(-468834.1475 -3.145705795e-10 56003.84917)
(-453043.4189 0 53113.27492)
(-437832.6651 0 50476.33418)
(-423148.4796 -3.193032882e-10 47945.79976)
(-409369.4397 0 45641.75053)
(-398637.2125 0 43391.89012)
(-66307.67673 0 546233.6157)
(-149140.5845 -4.678398293e-08 542960.3066)
(-241098.7626 -2.884921217e-08 539059.7709)
(-330257.5 2.118525597e-08 531144.0956)
(-411703.2116 0 521003.7598)
(-487588.8312 0 508722.6164)
(-557388.2652 0 494968.3262)
(-621015.762 5.524650904e-09 480118.8651)
(-677516.2992 0 464013.1289)
(-726328.7264 0 446449.9384)
(-768744.8372 -4.288863168e-09 428314.3156)
(-804897.1609 0 409914.647)
(-833944.3538 0 390728.8556)
(-857280.4172 0 371605.2413)
(-875152.401 0 352611.3257)
(-887541.2809 0 333467.7254)
(-895401.5905 0 314947.7656)
(-898675.4143 0 296554.1396)
(-898283.54 0 278937.5106)
(-894344.5878 0 261755.8616)
(-887432.0678 0 245384.8689)
(-877816.5738 0 229637.968)
(-865914.6004 -2.785983291e-09 214742.9603)
(-852063.9662 0 200560.5475)
(-836534.8334 0 187252.6529)
(-819692.7785 0 174668.9267)
(-801707.008 0 162967.4831)
(-782934.917 0 151957.1258)
(-763431.3945 0 141804.8528)
(-743499.1858 0 132261.8078)
(-723169.7897 0 123536.8395)
(-702737.906 0 115337.5411)
(-682191.5958 0 107908.0034)
(-661757.5669 0 100909.3617)
(-641437.6209 0 94596.91001)
(-621386.0887 -6.287437551e-10 88667.40956)
(-601590.1877 0 83292.6122)
(-582193.4581 0 78277.23274)
(-563191.5031 0 73706.32363)
(-544666.1048 0 69458.96847)
(-526599.8666 0 65557.35021)
(-509058.1347 0 61940.08854)
(-492037.6173 0 58594.92873)
(-475574.8792 0 55496.17771)
(-459674.6418 3.194695862e-10 52612.1156)
(-444323.096 -3.2091987e-10 49933.06753)
(-429534.5142 0 47429.35862)
(-415253.4315 0 45099.81716)
(-401781.8004 0 42925.50713)
(-391237.1624 0 40851.29078)
(-62494.76405 0 575742.6831)
(-143140.5492 0 571962.6801)
(-231142.3727 0 567104.343)
(-315706.7784 0 558096.2627)
(-393929.4163 -8.602752406e-09 547017.1417)
(-467246.1976 0 534223.3715)
(-534826.001 6.296390977e-09 519809.1785)
(-595534.6352 -5.610689771e-09 503655.4659)
(-648994.1868 -5.09006494e-09 485747.7731)
(-696172.9778 0 466929.6454)
(-737242.8347 -4.355656334e-09 447613.8603)
(-771394.5769 0 427335.0208)
(-799629.5105 -3.867143627e-09 406656.2494)
(-822532.109 0 386165.7319)
(-839568.7733 0 365342.8827)
(-851889.8505 3.388188641e-09 344950.6557)
(-859653.6994 0 324798.533)
(-863309.2947 0 305067.6095)
(-863412.3184 0 286103.7123)
(-860177.0216 0 267574.777)
(-854110.803 0 250067.6248)
(-845478.5111 0 233066.2426)
(-834684.1393 0 217203.1869)
(-822008.0436 0 201922.0982)
(-807751.4223 1.372282462e-09 187789.3569)
(-792205.6994 0 174301.3458)
(-775589.0893 0 161905.0918)
(-758152.6239 -1.326889435e-09 150195.4539)
(-740010.0434 0 139463.3863)
(-721385.6339 1.306136844e-09 129423.3878)
(-702379.957 0 120234.6659)
(-683203.9493 0 111732.4228)
(-663882.6648 0 103943.9064)
(-644585.0235 0 96807.30628)
(-625405.5806 0 90258.27882)
(-606345.184 0 84301.22287)
(-587570.9235 0 78812.1524)
(-569055.3119 0 73856.4756)
(-550934.5095 -6.384140508e-10 69268.38951)
(-533160.6137 0 65143.57868)
(-515832.891 0 61295.29945)
(-498931.8955 0 57846.32273)
(-482527.1434 3.219870625e-10 54602.05394)
(-466606.9522 3.231327673e-10 51698.17993)
(-451196.3971 0 48940.91833)
(-436300.2609 0 46463.58103)
(-421924.1352 0 44098.75481)
(-408043.7264 -3.293261548e-10 41967.95811)
(-394849.8739 0 39930.5349)
(-384562.7572 -3.333238857e-10 38040.6823)
(-58437.03453 0 610559.4792)
(-136451.2237 0 606794.1075)
(-220481.4738 0 601419.7296)
(-300761.8437 0 592239.0651)
(-376168.9847 0 580882.9491)
(-446415.8089 0 567319.2247)
(-510310.8328 0 551440.9195)
(-567612.2115 5.698068511e-09 533498.9324)
(-618932.3335 0 514284.0072)
(-664391.7147 -4.75538302e-09 494247.1001)
(-703206.75 4.423489663e-09 473068.7984)
(-735862.1104 0 451056.9911)
(-763280.4819 0 429027.6721)
(-785009.8773 0 406572.2317)
(-801731.721 0 384099.1763)
(-813944.0311 -3.440954997e-09 362101.789)
(-821648.2243 0 340135.1744)
(-825785.9903 0 318993.7516)
(-826311.4447 0 298243.4136)
(-823890.8817 0 278402.8586)
(-818669.8591 0 259216.9667)
(-811123.4739 0 241008.1374)
(-801497.096 0 223614.987)
(-790102.8124 0 207239.0656)
(-777232.9426 0 191748.6247)
(-763090.6433 0 177295.5749)
(-747983.6223 -1.360795138e-09 163726.4422)
(-731990.1967 0 151181.9303)
(-715376.6786 0 139462.8357)
(-698183.3917 0 128732.1056)
(-680685.6717 0 118752.5793)
(-662880.5667 0 109711.3211)
(-644984.68 0 101314.7214)
(-626994.8862 0 93794.80729)
(-609072.8808 0 86819.66493)
(-591200.6001 0 80610.99162)
(-573529.3562 0 74870.38052)
(-556062.6673 0 69772.37967)
(-538890.0583 0 65087.19886)
(-522000.71 -6.4918644e-10 60911.47252)
(-505469.7229 0 57085.86952)
(-489303.0925 0 53661.42106)
(-473554.9531 -3.270015661e-10 50524.65348)
(-458226.9598 0 47699.45669)
(-443336.8717 -3.294976681e-10 45098.14425)
(-428917.8478 -3.309934759e-10 42739.30556)
(-414967.2406 -3.326474324e-10 40552.50691)
(-401486.1776 0 38560.23133)
(-388568.0463 0 36701.65208)
(-378433.883 0 34955.92384)
(-54769.94047 0 653296.3712)
(-129789.0566 0 649849.3204)
(-209930.8017 0 643874.699)
(-286000.6162 0 634326.0835)
(-357365.3424 0 622018.0652)
(-423333.6652 0 606880.4572)
(-483527.3563 0 589378.7204)
(-538212.1716 -5.786807937e-09 570240.557)
(-587350.9506 5.249840822e-09 549855.8011)
(-630223.074 0 528069.3509)
(-666859.9415 -4.492379311e-09 505008.3582)
(-698323.5699 -4.21698661e-09 481603.0609)
(-724413.4048 0 457784.9245)
(-745156.1973 0 433464.3209)
(-761563.8705 -3.633844359e-09 409468.279)
(-773299.4248 -3.494543046e-09 385431.8057)
(-781177.3881 0 361897.1644)
(-785590.0302 0 338941.9241)
(-786709.2179 0 316484.8697)
(-785028.9285 0 295010.0271)
(-780760.8774 0 274106.9516)
(-774321.8893 0 254396.9207)
(-765927.41 -1.459092212e-09 235360.511)
(-755897.1054 0 217590.9753)
(-744465.8891 0 200579.1575)
(-731858.5635 0 184838.1921)
(-718299.1561 -1.381987613e-09 169898.3794)
(-703910.4902 0 156164.0228)
(-688884.7491 0 143249.8526)
(-673323.825 1.347136157e-09 131438.5613)
(-657415.8336 0 120460.4008)
(-641193.5179 0 110461.9374)
(-624825.2058 -6.632727712e-10 101271.9567)
(-608332.6454 0 92935.55265)
(-591820.7126 0 85358.30854)
(-575320.0269 0 78503.26145)
(-558906.4924 0 72347.47304)
(-542685.3666 0 66792.51778)
(-526604.3478 0 61848.50793)
(-510769.9883 0 57383.73505)
(-495164.1596 3.302726334e-10 53440.45056)
(-479869.4116 0 49870.58553)
(-464879.8987 0 46732.68381)
(-450237.8875 0 43871.88025)
(-435952.4092 -3.346291321e-10 41353.48173)
(-422063.5796 0 39039.24325)
(-408589.3689 0 36989.0518)
(-395521.8586 -3.396636215e-10 35085.61625)
(-382907.4727 0 33387.82622)
(-372884.9759 0 31749.27222)
(-51473.56073 0 702759.6745)
(-122672.8913 0 699460.8281)
(-198305.6834 0 692165.9012)
(-269583.1101 0 681707.3575)
(-336478.3089 0 668080.2806)
(-398495.2125 0 651735.783)
(-455628.7105 0 633373.0333)
(-507580.4766 0 613258.3548)
(-553687.2236 0 591345.3263)
(-593726.3061 0 567779.3037)
(-628675.1166 0 543387.7595)
(-658689.768 0 518428.8306)
(-683129.9552 0 492658.3005)
(-703090.9991 0 466866.7274)
(-718743.8898 0 441102.0717)