/*--------------------------------*- C++ -*----------------------------------*\
  =========                 |
  \\      /  F ield         | OpenFOAM: The Open Source CFD Toolbox
   \\    /   O peration     | Website:  https://openfoam.org
    \\  /    A nd           | Version:  7
     \\/     M anipulation  |
\*---------------------------------------------------------------------------*/
FoamFile
{
    version     2.0;
    format      ascii;
    class       volScalarField;
    location    "0.0024";
    object      p;
}
// * * * * * * * * * * * * * * * * * * * * * * * * * * * * * * * * * * * * * //

dimensions      [1 -1 -2 0 0 0 0];

internalField   nonuniform List<scalar> 
1167
(
1464193.263
1463920.212
1463983.886
1464024.788
1464056.734
1464096.185
1464148.171
1464202.008
1464260.835
1464327.878
1464399.478
1464473.77
1464556.424
1464639.674
1464726.886
1464817.228
1464908.012
1465003.297
1465097.025
1465194.312
1465289.349
1465386.695
1465481.878
1465577.798
1465671.879
1465764.265
1465855.688
1465944.329
1466032.574
1466116.471
1466200.077
1466279.873
1466358.248
1466433.87
1466506.948
1466578.202
1464136.692
1463865.162
1463927.946
1463967.838
1464002.07
1464039.991
1464081.867
1464130.089
1464187.264
1464247.723
1464311.244
1464383.196
1464457.014
1464533.885
1464616.625
1464698.787
1464786.706
1464873.039
1464963.626
1465051.929
1465143.649
1465232.591
1465324.181
1465412.697
1465502.577
1465589.092
1465676.345
1465761.146
1465844.448
1465926.018
1466004.575
1466082.266
1466155.788
1466229.046
1466298.84
1466367.212
1466432.77
1466496.045
1466557.417
1466615.874
1466673.095
1466726.955
1466779.834
1466829.702
1466878.549
1466924.768
1466969.481
1467012.325
1467056.062
1467099.624
1464104.105
1463833.389
1463897.042
1463934.162
1463959.684
1463989.887
1464027.657
1464075.429
1464124.08
1464176.453
1464237.505
1464301.15
1464367.446
1464441.201
1464513.798
1464592.037
1464670.339
1464751.776
1464833.969
1464917.769
1465001.928
1465087.053
1465171.664
1465256.797
1465339.52
1465423.374
1465503.833
1465585.24
1465663.065
1465741.035
1465816.037
1465889.581
1465961.255
1466030.458
1466098.553
1466162.958
1466226.683
1466287.074
1466346.425
1466403.047
1466458
1466510.796
1466561.474
1466610.583
1466657.433
1466702.945
1466745.908
1466788.141
1466830.297
1466873.574
1464088.411
1463814.108
1463873.229
1463905.925
1463928.068
1463957.249
1463993.878
1464030.284
1464071.464
1464121.628
1464174.366
1464229.737
1464293.011
1464354.923
1464421.694
1464491.685
1464562.754
1464637.963
1464712.333
1464790.811
1464867.605
1464947.685
1465025.948
1465105.388
1465183.306
1465261.497
1465338.834
1465414.557
1465489.875
1465562.129
1465634.487
1465703.188
1465772.225
1465838.309
1465903.129
1465965.702
1466026.201
1466085.262
1466141.566
1466197.035
1466249.255
1466300.837
1466349.576
1466397.426
1466442.9
1466487.074
1466529.068
1466570.042
1466611.465
1466653.295
1464081.922
1463807.097
1463865.206
1463897.698
1463919.805
1463942.5
1463967.76
1463998.292
1464037.89
1464079.006
1464122.594
1464173.855
1464225.254
1464280.059
1464340.951
1464401.507
1464468.257
1464533.428
1464603.706
1464672.334
1464745.112
1464816.24
1464890.293
1464961.351
1465035.278
1465106.513
1465179.791
1465250.367
1465321.108
1465389.972
1465457.64
1465524.32
1465588.789
1465652.865
1465713.482
1465774.031
1465831.595
1465888.398
1465942.819
1465995.831
1466046.973
1466096.202
1466144.1
1466189.9
1466234.63
1466277.025
1466318.435
1466357.92
1466398.851
1466439.008
1464104.144
1463828.78
1463886.247
1463912.391
1463924.432
1463939.032
1463959.721
1463988.948
1464017.844
1464049.283
1464088.211
1464128.149
1464170.242
1464220.84
1464269.993
1464324.675
1464380.286
1464439.125
1464500.053
1464562.639
1464627.371
1464692.822
1464758.965
1464825.789
1464892.74
1464960.504
1465026.783
1465094.047
1465158.44
1465224.056
1465286.733
1465350.128
1465411.26
1465471.563
1465530.183
1465587.12
1465643.081
1465696.613
1465749.697
1465799.816
1465849.649
1465896.805
1465943.348
1465987.679
1466030.999
1466072.366
1466112.453
1466151.208
1466190.86
1466230.533
1464143.585
1463865.077
1463917.503
1463938.571
1463946.304
1463959.311
1463977.394
1463993.625
1464012.901
1464039.49
1464067.372
1464096.684
1464134.095
1464171.202
1464212.394
1464257.604
1464303.706
1464355.604
1464406.575
1464463.367
1464518.668
1464578.228
1464635.75
1464697.399
1464757.466
1464819.694
1464880.615
1464942.126
1465002.897
1465062.965
1465122.968
1465181.247
1465239.888
1465295.539
1465351.775
1465405.405
1465458.77
1465510.091
1465560.442
1465609.202
1465656.41
1465702.519
1465746.823
1465790.253
1465831.65
1465872.31
1465910.782
1465948.971
1465987.156
1466026.554
1464199.129
1463921.093
1463971.502
1463991.611
1463998.122
1464003.5
1464008.594
1464016.507
1464031.177
1464046.371
1464062.212
1464085.365
1464109.882
1464136.634
1464170.527
1464203.69
1464243.549
1464283.183
1464327.842
1464373.601
1464422.669
1464472.105
1464524.508
1464577.122
1464632.345
1464686.428
1464743.009
1464797.191
1464853.817
1464908.293
1464964.152
1465018.477
1465072.658
1465125.75
1465177.77
1465229.301
1465278.936
1465328.522
1465375.631
1465422.836
1465467.551
1465512.115
1465554.616
1465596.484
1465636.576
1465675.788
1465713.335
1465750.22
1465787.653
1465825.76
1464288.585
1464012.814
1464061.638
1464075.33
1464070.897
1464065.675
1464063.218
1464066.828
1464069.07
1464071.228
1464079.848
1464090.95
1464102.785
1464122.487
1464141.736
1464166.047
1464193.732
1464223.925
1464258.988
1464295.035
1464335.414
1464375.992
1464420.81
1464465.894
1464513.666
1464561.648
1464610.926
1464660.694
1464710.536
1464761.317
1464811.138
1464862.144
1464910.911
1464960.994
1465008.917
1465057.33
1465104.054
1465150.469
1465195.587
1465239.706
1465282.965
1465324.891
1465366.14
1465405.75
1465444.84
1465482.158
1465518.934
1465554.213
1465590.998
1465627.46
1464405.164
1464130.499
1464172.564
1464178.378
1464167.335
1464157.296
1464149.79
1464139.078
1464127.903
1464122.22
1464119.313
1464115.719
1464118.757
1464123.68
1464131.316
1464145.651
1464160.122
1464182.448
1464204.427
1464232.482
1464260.661
1464294.262
1464328.302
1464366.894
1464404.927
1464447.046
1464487.633
1464531.986
1464575.077
1464620.539
1464665.273
1464710.846
1464755.987
1464800.934
1464845.938
1464889.831
1464934.113
1464976.638
1465019.668
1465060.547
1465101.919
1465141.384
1465180.764
1465218.502
1465255.884
1465291.793
1465327.05
1465361.204
1465396.667
1465432.196
1464543.756
1464275.39
1464312.812
1464314.28
1464299.988
1464282.546
1464259.583
1464236.093
1464216.974
1464199.759
1464180.335
1464166.19
1464155.711
1464145.734
1464144.009
1464142.433
1464146.792
1464154.755
1464166.442
1464182.148
1464200.55
1464223.526
1464248.734
1464277.406
1464307.926
1464340.752
1464375.418
1464411.252
1464449.143
1464487.152
1464527.278
1464566.24
1464607.374
1464646.896
1464687.972
1464727.767
1464768.181
1464807.633
1464846.879
1464885.537
1464923.55
1464961.12
1464997.629
1465033.813
1465068.775
1465103.437
1465136.624
1465169.744
1465203.426
1465238.264
1464719.097
1464461.657
1464495.244
1464490.781
1464464.88
1464432.686
1464398.979
1464368.078
1464336.888
1464301.809
1464270.415
1464243.936
1464215.958
1464194.627
1464176.397
1464161.341
1464153.369
1464146.547
1464147.866
1464149.202
1464158.329
1464168.232
1464184.743
1464201.514
1464224.115
1464246.37
1464273.789
1464301.017
1464331.974
1464363.124
1464396.431
1464430.058
1464464.689
1464500.017
1464535.313
1464571.515
1464606.926
1464643.245
1464678.212
1464714.316
1464748.793
1464783.946
1464817.611
1464851.598
1464884.299
1464917.024
1464948.363
1464979.847
1465011.933
1465045.404
1464935.429
1464689.465
1464712.663
1464696.636
1464660.153
1464618.668
1464578.402
1464534.395
1464484.643
1464436.549
1464393.356
1464347.219
1464305.589
1464269.455
1464233.781
1464206.877
1464181.595
1464162.68
1464147.46
1464137.374
1464132.264
1464131.408
1464134.984
1464142.153
1464152.911
1464166.988
1464183.638
1464203.595
1464225.091
1464249.767
1464274.664
1464302.618
1464330.009
1464360.24
1464389.635
1464420.895
1464451.614
1464483.206
1464514.543
1464546.192
1464577.69
1464608.949
1464640.125
1464670.794
1464701.426
1464731.295
1464760.923
1464790.051
1464820.667
1464851.747
1465176.168
1464950.111
1464964.628
1464940.527
1464898.125
1464849.739
1464794.51
1464732.047
1464668.775
1464608.736
1464545.064
1464482.837
1464427.8
1464371.526
1464321.791
1464276.979
1464235.83
1464202.086
1464170.337
1464147.913
1464127.137
1464114.918
1464103.907
1464100.594
1464098.265
1464102.713
1464108.178
1464119.087
1464131.224
1464147.198
1464164.355
1464184.071
1464205.225
1464227.777
1464251.848
1464276.417
1464302.432
1464328.216
1464355.539
1464382.156
1464410.184
1464437.184
1464465.319
1464492.386
1464520.331
1464547.133
1464574.462
1464601.012
1464629.616
1464658.11
1465454.933
1465256.88
1465263.604
1465233.207
1465181.534
1465117.564
1465045.31
1464969.671
1464894.368
1464813.927
1464731.719
1464655.831
1464579.468
1464506.181
1464440.564
1464375.832
1464319.913
1464266.873
1464221.303
1464181.043
1464146.985
1464118.406
1464095.17
1464076.994
1464063.677
1464054.604
1464050.175
1464049.022
1464052.219
1464057.343
1464066.501
1464076.689
1464090.805
1464105.017
1464122.631
1464140.187
1464160.025
1464180.037
1464201.63
1464223.454
1464246.155
1464269.092
1464292.5
1464316.157
1464339.978
1464363.881
1464387.722
1464411.813
1464437.288
1464463.68
1465782.07
1465617.428
1465610.989
1465567.742
1465501.22
1465423.302
1465339.215
1465251.316
1465155.863
1465055.776
1464959.232
1464862.642
1464765.407
1464676.486
1464589.072
1464507.504
1464432.169
1464361.011
1464299.191
1464240.713
1464192.077
1464146.033
1464109.499
1464075.286
1464049.663
1464026.289
1464010.348
1463996.724
1463988.936
1463983.266
1463982.045
1463983.088
1463987.305
1463993.729
1464002.293
1464012.927
1464024.771
1464038.705
1464053.24
1464069.656
1464086.121
1464104.319
1464122.268
1464141.807
1464160.848
1464181.154
1464200.892
1464221.869
1464243.576
1464267.276
1466140.949
1466018.193
1465994.773
1465938.749
1465861.575
1465774.143
1465677.515
1465569.78
1465454.31
1465339.149
1465223.486
1465103.967
1464989.955
1464879.344
1464771.049
1464671.994
1464574.616
1464486.881
1464404.467
1464330.045
1464262.042
1464201.015
1464146.566
1464098.435
1464056.373
1464020.256
1463989.365
1463964.002
1463942.537
1463926.136
1463912.633
1463903.941
1463897.024
1463894.738
1463893.439
1463896.019
1463899.216
1463905.577
1463912.644
1463922.004
1463932.012
1463943.767
1463956.137
1463969.843
1463984.003
1463999.204
1464014.713
1464031.253
1464049.047
1464068.657
1466527.674
1466458.858
1466418.511
1466352.462
1466267.529
1466167.082
1466051.033
1465923.969
1465793.353
1465660.253
1465520.266
1465382.215
1465248.881
1465114.487
1464987.842
1464865.545
1464749.156
1464641.695
1464539.117
1464447.121
1464359.128
1464282.03
1464208.764
1464145.744
1464086.45
1464036.538
1463990
1463951.458
1463915.913
1463886.931
1463861.016
1463840.301
1463822.462
1463808.682
1463797.587
1463789.433
1463783.929
1463780.616
1463779.737
1463780.338
1463783.184
1463787.08
1463793.037
1463799.683
1463808.112
1463817.088
1463827.564
1463838.592
1463851.713
1463865.889
1466945.462
1466943.085
1466884.79
1466806.912
1466709.272
1466590.413
1466456.89
1466315.369
1466167.543
1466010.304
1465850.172
1465693.951
1465535.981
1465381.749
1465234.075
1465088.215
1464953.377
1464823.257
1464702.574
1464588.995
1464483.804
1464386.609
1464297.012
1464215.334
1464140.722
1464073.401
1464012.625
1463957.866
1463909.068
1463865.192
1463826.96
1463792.442
1463763.225
1463736.713
1463715
1463695.185
1463679.929
1463666.087
1463656.012
1463647.022
1463641.262
1463636.51
1463634.507
1463633.344
1463634.531
1463636.492
1463640.52
1463645.178
1463652.285
1463660.15
1467387.833
1467462.442
1467380.688
1467286.247
1467173.189
1467040.366
1466894.121
1466736.377
1466565.714
1466387.328
1466210.197
1466030.41
1465849.487
1465675.902
1465503.679
1465338.555
1465181.336
1465030.11
1464889.784
1464754.582
1464631.425
1464513.533
1464407.136
1464306.185
1464215.852
1464130.635
1464055.089
1463983.777
1463920.977
1463861.926
1463810.157
1463761.756
1463719.43
1463680.249
1463645.844
1463614.472
1463587.015
1463562.389
1463540.82
1463521.89
1463505.473
1463491.531
1463479.664
1463469.999
1463462.178
1463456.364
1463452.187
1463449.724
1463449.047
1463450.115
1467834.8
1467998.787
1467889.286
1467780.176
1467656.246
1467513.31
1467351.898
1467173.015
1466981.818
1466787.191
1466588.706
1466384.806
1466185.005
1465987.748
1465792.911
1465608.189
1465427.367
1465257.045
1465094.108
1464940.598
1464796.284
1464660.592
1464534.588
1464416.586
1464307.943
1464206.683
1464113.642
1464027.242
1463947.89
1463874.777
1463807.399
1463745.781
1463688.758
1463636.943
1463588.685
1463545.345
1463504.804
1463468.718
1463434.759
1463404.945
1463376.897
1463352.595
1463329.774
1463310.283
1463292.237
1463277.233
1463263.52
1463252.491
1463242.49
1463235.283
1468274.099
1468542.6
1468404.404
1468283.243
1468151.145
1467994.198
1467813.583
1467615.737
1467409.174
1467195.781
1466973.469
1466750.539
1466530.572
1466309.124
1466095.466
1465887.789
1465686.638
1465496.088
1465311.358
1465139.373
1464973.856
1464820.743
1464674.782
1464540.303
1464412.937
1464296.013
1464185.293
1464084.027
1463988.143
1463900.936
1463818.06
1463742.886
1463671.298
1463606.183
1463544.18
1463487.75
1463434.241
1463385.283
1463339.011
1463296.626
1463256.781
1463220.326
1463186.18
1463155.099
1463126.233
1463100.251
1463076.277
1463054.905
1463034.563
1463017.03
1468697.792
1469085.518
1468916.617
1468781.083
1468637.696
1468464.235
1468267.357
1468055.884
1467833.031
1467597.925
1467356.379
1467115.95
1466873.114
1466632.808
1466400.031
1466169.867
1465950.582
1465738.355
1465536.033
1465343.668
1465160.548
1464988.6
1464825.304
1464673.278
1464529.283
1464395.649
1464269.189
1464151.915
1464041.287
1463938.474
1463841.626
1463751.315
1463666.328
1463586.588
1463511.77
1463441.26
1463375.178
1463312.531
1463253.937
1463198.228
1463146.286
1463096.798
1463050.753
1463007.019
1462966.509
1462928.236
1462892.996
1462859.791
1462827.971
1462797.904
1465547.928
1465349.158
1465158.96
1464980.709
1464811.4
1464653.04
1464502.934
1464362.7
1464229.866
1464105.999
1463988.277
1463878.671
1463774.026
1463676.521
1463582.952
1463495.831
1463411.911
1463333.418
1463257.57
1463186.463
1463117.654
1463053.071
1462990.475
1462931.69
1462874.865
1462821.607
1462770.287
1462722.511
1462676.431
1462631.652
1462587.563
)
;

boundaryField
{
    front_top
    {
        type            wedge;
    }
    front_middle
    {
        type            wedge;
    }
    front_bottom
    {
        type            wedge;
    }
    back_top
    {
        type            wedge;
    }
    back_middle
    {
        type            wedge;
    }
    back_bottom
    {
        type            wedge;
    }
    axis_top
    {
        type            symmetryPlane;
    }
    axis_middle
    {
        type            symmetryPlane;
    }
    axis_bottom
    {
        type            symmetryPlane;
    }
    wall_top
    {
        type            fixedFluxPressure;
        gradient        uniform 0;
        value           nonuniform List<scalar> 
23
(
1467099.624
1466873.574
1466653.295
1466439.008
1466230.533
1466026.554
1465825.76
1465627.46
1465432.196
1465238.264
1465045.404
1464851.747
1464658.11
1464463.68
1464267.276
1464068.657
1463865.889
1463660.15
1463450.115
1463235.283
1463017.03
1462797.904
1462587.563
)
;
    }
    wall_middle
    {
        type            fixedFluxPressure;
        gradient        nonuniform 0();
        value           nonuniform 0();
    }
    wall_bottom
    {
        type            fixedFluxPressure;
        gradient        nonuniform 0();
        value           nonuniform 0();
    }
    inlet
    {
        type            zeroGradient;
    }
    outlet
    {
        type            fixedValue;
        value           nonuniform 0();
    }
    procBoundary7to6
    {
        type            processor;
        value           nonuniform List<scalar> 
51
(
1469088.725
1469608.522
1469403.957
1469252.019
1469096.127
1468910.628
1468702.773
1468477.744
1468236.385
1467983.027
1467726.896
1467467.085
1467204.117
1466947.816
1466694.47
1466447.417
1466209.883
1465978.294
1465759.488
1465759.488
1465748.629
1465535.07
1465330.425
1465138.578
1464955.104
1464783.858
1464620.09
1464467.437
1464321.648
1464185.589
1464055.497
1463933.745
1463817.164
1463707.372
1463602.123
1463502.49
1463406.782
1463315.54
1463227.706
1463143.556
1463062.45
1462984.456
1462909.164
1462836.707
1462766.826
1462699.676
1462635.031
1462573.432
1462513.953
1462454.669
1462395.812
)
;
    }
    procBoundary7to8
    {
        type            processor;
        value           nonuniform List<scalar> 
51
(
1464249.232
1463978.52
1464047.78
1464095.196
1464130.385
1464171.71
1464221.926
1464282.369
1464348.772
1464418.668
1464495.793
1464577.75
1464662.2
1464754.73
1464847.191
1464944.294
1465041.753
1465141.657
1465242.726
1465344.511
1465446.295
1465548.343
1465649.03
1465750.152
1465848.341
1465946.633
1466040.55
1466134.976
1466225.757
1466315.488
1466402.173
1466486.029
1466567.962
1466645.794
1466722.539
1466795.314
1466645.737
1466645.737
1466711.995
1466774.573
1466836.014
1466894.347
1466950.903
1467004.988
1467056.88
1467106.925
1467154.602
1467200.608
1467244.548
1467289.6
1467333.967
)
;
    }
}


// ************************************************************************* //
