/*--------------------------------*- C++ -*----------------------------------*\
  =========                 |
  \\      /  F ield         | OpenFOAM: The Open Source CFD Toolbox
   \\    /   O peration     | Website:  https://openfoam.org
    \\  /    A nd           | Version:  7
     \\/     M anipulation  |
\*---------------------------------------------------------------------------*/
FoamFile
{
    version     2.0;
    format      ascii;
    class       surfaceScalarField;
    location    "0.0024";
    object      phi;
}
// * * * * * * * * * * * * * * * * * * * * * * * * * * * * * * * * * * * * * //

dimensions      [1 0 -1 0 0 0 0];

internalField   nonuniform List<scalar> 
2260
(
2.235064355e-15
4.56071144e-11
8.747880672e-15
1.334536173e-10
1.921792748e-14
2.164052434e-10
3.32917079e-14
2.946659245e-10
5.05914498e-14
3.684326418e-10
7.071861279e-14
4.378954988e-10
9.332370306e-14
5.032379377e-10
1.179607644e-13
5.646369388e-10
1.442254893e-13
6.222630966e-10
1.717582586e-13
6.76280793e-10
2.001758761e-13
7.268484514e-10
2.290624209e-13
7.741186729e-10
2.581662196e-13
8.182382268e-10
2.870751943e-13
8.593485283e-10
3.155095664e-13
8.975855525e-10
3.431976005e-13
9.330800002e-10
3.697980043e-13
9.659577441e-10
3.951791429e-13
9.963394722e-10
4.189813893e-13
1.024341462e-09
4.411457832e-13
1.050075091e-09
4.613456977e-13
1.073647626e-09
4.795602228e-13
1.095161737e-09
4.955351527e-13
1.11471627e-09
5.092480955e-13
1.132405739e-09
5.205517065e-13
1.148321135e-09
5.293484105e-13
1.16254946e-09
5.356309941e-13
1.175174338e-09
5.392551366e-13
1.186275801e-09
5.403447333e-13
1.195930495e-09
5.386726754e-13
1.204212114e-09
5.344345047e-13
1.211190897e-09
5.274664714e-13
1.216934521e-09
5.178971066e-13
1.221507375e-09
5.057089172e-13
1.224971509e-09
4.909190998e-13
1.22738594e-09
1.228807378e-09
2.247110442e-15
4.560486729e-11
8.796365342e-15
1.33447068e-10
1.932405814e-14
2.163947157e-10
3.347072308e-14
2.946517778e-10
5.087976259e-14
3.684152327e-10
7.115184246e-14
4.378752267e-10
9.386923758e-14
5.032152203e-10
1.186229026e-13
5.646121851e-10
1.450500305e-13
6.222366695e-10
1.727355471e-13
6.762531075e-10
2.01260678e-13
7.268199263e-10
2.303338173e-13
7.740895998e-10
2.595560204e-13
8.182090046e-10
2.885762701e-13
8.59319508e-10
3.171645082e-13
8.975569643e-10
3.449066298e-13
9.330522581e-10
3.716754822e-13
9.659309753e-10
3.970737532e-13
9.96314074e-10
4.21027961e-13
1.024317508e-09
4.431706854e-13
1.050052949e-09
4.634916155e-13
1.073627305e-09
4.816537007e-13
1.095143575e-09
4.977045211e-13
1.114700219e-09
5.113463083e-13
1.132392098e-09
5.226523712e-13
1.148309829e-09
5.313646526e-13
1.162540747e-09
5.375772294e-13
1.175168125e-09
5.411564685e-13
1.186272222e-09
5.420981872e-13
1.195929553e-09
5.404125788e-13
1.204213799e-09
5.359925594e-13
1.211195317e-09
5.290016881e-13
1.216941511e-09
5.192334124e-13
1.221517144e-09
5.069475935e-13
1.224983794e-09
4.920075872e-13
1.22740088e-09
4.745828969e-13
1.228824803e-09
4.546520616e-13
1.229310018e-09
4.322744649e-13
1.228908151e-09
4.075743388e-13
1.227668937e-09
3.804967922e-13
1.225639733e-09
3.512906691e-13
1.222865827e-09
3.198061156e-13
1.219390706e-09
2.863434288e-13
1.215255551e-09
2.507662218e-13
1.21050022e-09
2.133543645e-13
1.20516222e-09
1.740292073e-13
1.199277938e-09
1.329961739e-13
1.192881561e-09
9.022983363e-14
1.186006318e-09
4.589442393e-14
1.17868334e-09
1.170942874e-09
2.263942192e-15
4.560260334e-11
8.863112382e-15
1.334404689e-10
1.947736252e-14
2.163841015e-10
3.374683436e-14
2.946375084e-10
5.128560475e-14
3.68397694e-10
7.169453671e-14
4.378548178e-10
9.455912986e-14
5.031923557e-10
1.195224283e-13
5.645872218e-10
1.46132216e-13
6.222100597e-10
1.739729848e-13
6.762252667e-10
2.027217627e-13
7.267911775e-10
2.319775293e-13
7.74060344e-10
2.613466911e-13
8.181796354e-10
2.906020853e-13
8.592902526e-10
3.192944814e-13
8.975282719e-10
3.472447864e-13
9.330243078e-10
3.740904153e-13
9.659041297e-10
3.996426001e-13
9.962885218e-10
4.236345966e-13
1.024293516e-09
4.458919715e-13
1.050030691e-09
4.662078119e-13
1.073606989e-09
4.844594346e-13
1.095125323e-09
5.004663066e-13
1.114684212e-09
5.141836168e-13
1.13237838e-09
5.253846018e-13
1.148298628e-09
5.341543115e-13
1.162531978e-09
5.402380514e-13
1.175162041e-09
5.43795758e-13
1.186268664e-09
5.445947693e-13
1.195928754e-09
5.427942968e-13
1.2042156e-09
5.382645387e-13
1.211199847e-09
5.310670526e-13
1.216948709e-09
5.212320996e-13
1.221526979e-09
5.08723978e-13
1.224996303e-09
4.937203167e-13
1.227415884e-09
4.760584076e-13
1.228842464e-09
4.560062546e-13
1.229330071e-09
4.334240832e-13
1.228930733e-09
4.085479219e-13
1.227693813e-09
3.813268594e-13
1.225666954e-09
3.519051977e-13
1.222895249e-09
3.203333467e-13
1.219422278e-09
2.86662134e-13
1.215289222e-09
2.510403345e-13
1.210535842e-09
2.134564887e-13
1.205199804e-09
1.741179309e-13
1.199317277e-09
1.329539729e-13
1.192922725e-09
9.02175109e-14
1.186049054e-09
4.580621167e-14
1.178727751e-09
1.17098868e-09
2.285663316e-15
4.560031768e-11
8.94614414e-15
1.334338084e-10
1.965234333e-14
2.163733953e-10
3.404091723e-14
2.946231198e-10
5.172167792e-14
3.683800132e-10
7.230205933e-14
4.378342374e-10
9.539659309e-14
5.031692612e-10
1.205465322e-13
5.645620719e-10
1.473378998e-13
6.221832683e-10
1.75425306e-13
6.761971793e-10
2.043924981e-13
7.267622103e-10
2.33825581e-13
7.740309109e-10
2.634719451e-13
8.18149989e-10
2.928705719e-13
8.59260854e-10
3.217637926e-13
8.974993787e-10
3.498626229e-13
9.32996209e-10
3.768375844e-13
9.658771547e-10
4.025311425e-13
9.962628282e-10
4.2659122e-13
1.024269456e-09
4.489591022e-13
1.050008323e-09
4.693000913e-13
1.073586648e-09
4.876128304e-13
1.095107011e-09
5.036250378e-13
1.1146682e-09
5.173177082e-13
1.132364688e-09
5.285069851e-13
1.148287439e-09
5.371740178e-13
1.162523311e-09
5.432565787e-13
1.175155959e-09
5.466619874e-13
1.186265259e-09
5.474559905e-13
1.19592796e-09
5.454626239e-13
1.204217593e-09
5.408704951e-13
1.211204439e-09
5.334610664e-13
1.216956118e-09
5.2348567e-13
1.221536954e-09
5.10818676e-13
1.22500897e-09
4.955919955e-13
1.22743111e-09
4.778107085e-13
1.228860246e-09
4.575081411e-13
1.229350373e-09
4.348288668e-13
1.228953412e-09
4.096984819e-13
1.227718943e-09
3.823845802e-13
1.225694268e-09
3.527229847e-13
1.22292491e-09
3.21029213e-13
1.219453972e-09
2.871718903e-13
1.21532308e-09
2.514227765e-13
1.210571591e-09
2.137200897e-13
1.205237507e-09
1.742632536e-13
1.199356734e-09
1.330451186e-13
1.192963943e-09
9.022438741e-14
1.186091875e-09
4.583163965e-14
1.178772144e-09
1.171034512e-09
2.305554804e-15
4.559801213e-11
9.024866878e-15
1.334270891e-10
1.982329329e-14
2.163625969e-10
3.433892454e-14
2.946086042e-10
5.219340557e-14
3.683621587e-10
7.296883847e-14
4.378134619e-10
9.623592227e-14
5.031459941e-10
1.21568849e-13
5.64536739e-10
1.486103049e-13
6.221562269e-10
1.769201149e-13
6.761688695e-10
2.060732708e-13
7.267330572e-10
2.35771293e-13
7.740012129e-10
2.65577971e-13
8.181201824e-10
2.951469474e-13
8.59231285e-10
3.242413052e-13
8.974702843e-10
3.524374834e-13
9.329680128e-10
3.796127938e-13
9.658499794e-10
4.053472815e-13
9.962370937e-10
4.295802127e-13
1.024245223e-09
4.519374504e-13
1.049985966e-09
4.724091355e-13
1.073566176e-09
4.906726682e-13
1.095088747e-09
5.06767113e-13
1.114652106e-09
5.203577361e-13
1.132351097e-09
5.315677937e-13
1.148276229e-09
5.401114542e-13
1.162514767e-09
5.46140445e-13
1.17514993e-09
5.494358121e-13
1.186261964e-09
5.500860487e-13
1.19592731e-09
5.480042713e-13
1.204219675e-09
5.431999648e-13
1.211209244e-09
5.357328233e-13
1.216963586e-09
5.255297249e-13
1.221547157e-09
5.12788371e-13
1.225021711e-09
4.97320131e-13
1.227446578e-09
4.794049939e-13
1.228878161e-09
4.5890226e-13
1.229370876e-09
4.360344419e-13
1.22897628e-09
4.107605927e-13
1.227744217e-09
3.832176198e-13
1.225721811e-09
3.534639211e-13
1.222954664e-09
3.215480031e-13
1.219485888e-09
2.876262999e-13
1.215357001e-09
2.516872698e-13
1.21060753e-09
2.139472236e-13
1.205275247e-09
1.743372692e-13
1.199396344e-09
1.331213575e-13
1.193005159e-09
9.019955314e-14
1.186134797e-09
4.586653546e-14
1.178816477e-09
1.171080378e-09
2.32503286e-15
4.559568709e-11
9.101635848e-15
1.334203125e-10
1.999871823e-14
2.163516998e-10
3.464214278e-14
2.945939607e-10
5.263168349e-14
3.683441692e-10
7.35517742e-14
4.377925419e-10
9.697600379e-14
5.031225699e-10
1.225347378e-13
5.645111802e-10
1.497643356e-13
6.221289973e-10
1.782357153e-13
6.761403981e-10
2.076138065e-13
7.267036791e-10
2.374718912e-13
7.739713548e-10
2.673980834e-13
8.180902562e-10
2.971820662e-13
8.592015011e-10
3.263541531e-13
8.974411122e-10
3.547213559e-13
9.329396456e-10
3.819325624e-13
9.658227682e-10
4.077733395e-13
9.96211253e-10
4.320079029e-13
1.024220989e-09
4.544215387e-13
1.049963553e-09
4.748618485e-13
1.073545736e-09
4.93148812e-13
1.09507046e-09
5.091419372e-13
1.114636113e-09
5.22736414e-13
1.132337503e-09
5.338135185e-13
1.148265152e-09
5.423652766e-13
1.162506215e-09
5.482252022e-13
1.17514407e-09
5.514994475e-13
1.186258689e-09
5.519555332e-13
1.195926854e-09
5.497982813e-13
1.204221832e-09
5.44810698e-13
1.211214231e-09
5.372073172e-13
1.216971189e-09
5.268786779e-13
1.221557486e-09
5.139337617e-13
1.225034656e-09
4.983857885e-13
1.227462126e-09
4.802561759e-13
1.22889629e-09
4.596915864e-13
1.229391441e-09
4.366132674e-13
1.228999358e-09
4.112879248e-13
1.227769542e-09
3.835527697e-13
1.225749546e-09
3.537277975e-13
1.222984489e-09
3.216760664e-13
1.21951794e-09
2.876767763e-13
1.215391001e-09
2.51666146e-13
1.21064354e-09
2.138532636e-13
1.20531306e-09
1.742305379e-13
1.199435966e-09
1.329671322e-13
1.193046422e-09
9.009564029e-14
1.186177668e-09
4.576018437e-14
1.178860812e-09
1.171126139e-09
2.340995342e-15
4.55933461e-11
9.162447485e-15
1.33413491e-10
2.012412292e-14
2.163407381e-10
3.48492527e-14
2.945792356e-10
5.293197959e-14
3.683260865e-10
7.397026352e-14
4.377715036e-10
9.756195557e-14
5.030989782e-10
1.232378037e-13
5.644855044e-10
1.505693541e-13
6.221016657e-10
1.791945849e-13
6.761117729e-10
2.086825541e-13
7.266741911e-10
2.385962056e-13
7.739414411e-10
2.686778222e-13
8.180601746e-10
2.984824085e-13
8.591716965e-10
3.277173384e-13
8.974118773e-10
3.56112317e-13
9.329112506e-10
3.83301484e-13
9.65795579e-10
4.091704742e-13
9.96185384e-10
4.333224394e-13
1.024196837e-09
4.557481292e-13
1.049941127e-09
4.760745032e-13
1.07352541e-09
4.943336047e-13
1.095052201e-09
5.101757216e-13
1.114620271e-09
5.237048491e-13
1.132323973e-09
5.346493745e-13
1.148254207e-09
5.430859059e-13
1.162497779e-09
5.488381142e-13
1.175138318e-09
5.519367071e-13
1.186255591e-09
5.523223867e-13
1.195926468e-09
5.499662763e-13
1.204224188e-09
5.44941854e-13
1.211219256e-09
5.371511725e-13
1.21697898e-09
5.267954717e-13
1.221567841e-09
5.136745499e-13
1.225047777e-09
4.980698637e-13
1.227477731e-09
4.798299649e-13
1.22891453e-09
4.591776749e-13
1.229412093e-09
4.360622537e-13
1.229022474e-09
4.106277886e-13
1.227794977e-09
3.829209297e-13
1.225777253e-09
3.530010862e-13
1.223014409e-09
3.21012381e-13
1.219549928e-09
2.869570606e-13
1.215425056e-09
2.510404886e-13
1.210679457e-09
2.132090306e-13
1.205350891e-09
1.737176391e-13
1.199475458e-09
1.324819258e-13
1.193087658e-09
8.979008283e-14
1.18622036e-09
4.553367079e-14
1.178905069e-09
1.171171672e-09
2.346180149e-15
4.559099992e-11
9.183291989e-15
1.334066539e-10
2.01666965e-14
2.163297547e-10
3.492484232e-14
2.945644775e-10
5.306378713e-14
3.683079475e-10
7.416078262e-14
4.377504066e-10
9.777035612e-14
5.030753686e-10
1.23454649e-13
5.644598201e-10
1.508364091e-13
6.22074284e-10
1.794717251e-13
6.760831376e-10
2.089098992e-13
7.266447529e-10
2.388417575e-13
7.739115093e-10
2.688557181e-13
8.180301606e-10
2.985642756e-13
8.591419879e-10
3.277592593e-13
8.973826823e-10
3.559898264e-13
9.328830201e-10
3.831325913e-13
9.657684362e-10
4.087955553e-13
9.96159721e-10
4.328689207e-13
1.024172763e-09
4.550680215e-13
1.049918928e-09
4.752920029e-13
1.073505186e-09
4.932949367e-13
1.095034198e-09
5.090378148e-13
1.114604528e-09
5.223174321e-13
1.132310694e-09
5.331698798e-13
1.148243355e-09
5.413656456e-13
1.162489583e-09
5.47039852e-13
1.175132643e-09
5.499178457e-13
1.186252713e-09
5.502133536e-13
1.195926173e-09
5.477036009e-13
1.204226698e-09
5.425795182e-13
1.21122438e-09
5.34731808e-13
1.216986827e-09
5.242599901e-13
1.221578313e-09
5.111680652e-13
1.225060869e-09
4.954776384e-13
1.227493422e-09
4.773194517e-13
1.228932689e-09
4.566231766e-13
1.229432789e-09
4.336346306e-13
1.229045462e-09
4.08205371e-13
1.227820406e-09
3.806477829e-13
1.225804811e-09
3.508072254e-13
1.22304425e-09
3.189827393e-13
1.219581753e-09
2.850880582e-13
1.215458951e-09
2.493543745e-13
1.210715191e-09
2.117530487e-13
1.205388492e-09
1.72476385e-13
1.199514734e-09
1.31538488e-13
1.193128596e-09
8.910729156e-14
1.186262791e-09
4.520692508e-14
1.178948969e-09
1.171216879e-09
2.339460036e-15
4.558866046e-11
9.157744185e-15
1.333998356e-10
2.01163455e-14
2.163187961e-10
3.483937148e-14
2.945497544e-10
5.291419027e-14
3.682898727e-10
7.391683018e-14
4.377294039e-10
9.740786762e-14
5.030518776e-10
1.230038718e-13
5.644342241e-10
1.502442779e-13
6.220470436e-10
1.786751187e-13
6.760547067e-10
2.079478149e-13
7.266154802e-10
2.376678196e-13
7.738817893e-10
2.67396043e-13
8.180004324e-10
2.969118062e-13
8.591124722e-10
3.257713498e-13
8.973538228e-10
3.53741357e-13
9.328550501e-10
3.805425956e-13
9.65741635e-10
4.058903795e-13
9.961343732e-10
4.296445646e-13
1.024149009e-09
4.515075418e-13
1.049897065e-09
4.714159004e-13
1.073485277e-09
4.890879652e-13
1.095016526e-09
5.045354284e-13
1.11458908e-09
5.1753937e-13
1.13229769e-09
5.281103336e-13
1.148232784e-09
5.361050551e-13
1.162481588e-09
5.415103632e-13
1.175127238e-09
5.442823084e-13
1.186249941e-09
5.443666839e-13
1.195926088e-09
5.418370284e-13
1.204229228e-09
5.36583619e-13
1.211229633e-09
5.287957681e-13
1.216994615e-09
5.182742528e-13
1.221588835e-09
5.052917827e-13
1.225073851e-09
4.896762515e-13
1.227509037e-09
4.716622764e-13
1.228950703e-09
4.511694245e-13
1.229453282e-09
4.283607578e-13
1.229068271e-09
4.032506e-13
1.227845516e-09
3.759199985e-13
1.225832142e-09
3.464795623e-13
1.22307369e-09
3.149562707e-13
1.219613276e-09
2.815235002e-13
1.215492383e-09
2.461538922e-13
1.21075056e-09
2.090724955e-13
1.205425574e-09
1.702220364e-13
1.199553585e-09
1.298641852e-13
1.193168954e-09
8.79188829e-14
1.186304737e-09
4.465297141e-14
1.178992235e-09
1.171261532e-09
2.316400001e-15
4.558634406e-11
9.06599207e-15
1.33393086e-10
1.99075739e-14
2.163079545e-10
3.44620018e-14
2.945352e-10
5.232100856e-14
3.682720137e-10
7.307133642e-14
4.377086536e-10
9.630573613e-14
5.030286432e-10
1.215638135e-13
5.64408966e-10
1.483975597e-13
6.220202098e-10
1.76431694e-13
6.760266726e-10
2.0527626e-13
7.265866357e-10
2.344711995e-13
7.738525943e-10
2.637354077e-13
8.179711682e-10
2.926868086e-13
8.590835208e-10
3.209733102e-13
8.973255363e-10
3.484103914e-13
9.32827613e-10
3.745777309e-13
9.657154677e-10
3.994245999e-13
9.961095263e-10
4.225497658e-13
1.024125884e-09
4.439307853e-13
1.049875684e-09
4.63230676e-13
1.073465977e-09
4.804734043e-13
1.094999283e-09
4.953840998e-13
1.11457417e-09
5.080382722e-13
1.132285036e-09
5.18159556e-13
1.148222662e-09
5.259004506e-13
1.162473847e-09
5.309652291e-13
1.175122173e-09
5.335689183e-13
1.186247337e-09
5.334785175e-13
1.195926179e-09
5.308745084e-13
1.204231832e-09
5.256344013e-13
1.211234873e-09
5.178609169e-13
1.217002389e-09
5.075331245e-13
1.221599163e-09
4.946831626e-13
1.225086701e-09
4.794084048e-13
1.227524312e-09
4.616572895e-13
1.228968454e-09
4.416343898e-13
1.229473305e-09
4.19215679e-13
1.22909069e-09
3.946849896e-13
1.227870047e-09
3.678699783e-13
1.225858957e-09
3.390907386e-13
1.223102469e-09
3.082160918e-13
1.219644151e-09
2.755079103e-13
1.215525092e-09
2.408934778e-13
1.210785175e-09
2.045970504e-13
1.20546187e-09
1.665912582e-13
1.199591591e-09
1.27077735e-13
1.193208467e-09
8.604362832e-14
1.186345771e-09
4.368362854e-14
1.179034595e-09
1.171305216e-09
2.266569529e-15
4.558407749e-11
8.871243598e-15
1.333864814e-10
1.947562378e-14
2.162973501e-10
3.370651327e-14
2.945209691e-10
5.117482541e-14
3.682545454e-10
7.147387986e-14
4.376883546e-10
9.414513332e-14
5.030059719e-10
1.187560837e-13
5.643843551e-10
1.449189686e-13
6.219940469e-10
1.722402863e-13
6.759993513e-10
2.002525758e-13
7.265586234e-10
2.28629245e-13
7.738242177e-10
2.570310661e-13
8.179427663e-10
2.850313503e-13
8.590555205e-10
3.124654068e-13
8.972981022e-10
3.389171574e-13
9.328011612e-10
3.642149104e-13
9.656901699e-10
3.881019977e-13
9.960856393e-10
4.103707358e-13
1.024103615e-09
4.308618685e-13
1.049855193e-09
4.49370441e-13
1.073447469e-09
4.658337966e-13
1.09498282e-09
4.800833345e-13
1.11455992e-09
4.920809112e-13
1.132273038e-09
5.017123534e-13
1.148213031e-09
5.089372239e-13
1.162466622e-09
5.137203569e-13
1.17511739e-09
5.159969858e-13
1.18624506e-09
5.158314699e-13
1.195926344e-09
5.131160076e-13
1.204234547e-09
5.080157273e-13
1.211239973e-09
5.003445954e-13
1.21701006e-09
4.90357762e-13
1.221609149e-09
4.778532937e-13
1.225099206e-09
4.630870445e-13
1.227539078e-09
4.459290316e-13
1.228985612e-09
4.265698648e-13
1.229492664e-09
4.049693728e-13
1.22911229e-09
3.8123829e-13
1.227893778e-09
3.554293149e-13
1.225884765e-09
3.276007197e-13
1.223130298e-09
2.978692357e-13
1.219673882e-09
2.662391299e-13
1.215556722e-09
2.328801047e-13
1.210818534e-09
1.977672119e-13
1.205496983e-09
1.611098528e-13
1.199628248e-09
1.228618777e-13
1.193246715e-09
8.324216931e-14
1.18638539e-09
4.221577359e-14
1.179075621e-09
1.171347432e-09
2.184767779e-15
4.558189272e-11
8.55210883e-15
1.33380114e-10
1.877622163e-14
2.16287126e-10
3.249799611e-14
2.945072473e-10
4.932057731e-14
3.682377228e-10
6.8825479e-14
4.376688496e-10
9.05873903e-14
5.0298421e-10
1.142219231e-13
5.643607205e-10
1.393286965e-13
6.219689402e-10
1.65446281e-13
6.759732337e-10
1.922171818e-13
7.265318525e-10
2.193325728e-13
7.737971023e-10
2.463403502e-13
8.179157586e-10
2.730106154e-13
8.590288502e-10
2.990225917e-13
8.972720902e-10
3.240676069e-13
9.327761162e-10
3.480158149e-13
9.656662217e-10
3.704978091e-13
9.960631573e-10
3.915190477e-13
1.024082594e-09
4.106922844e-13
1.049836019e-09
4.280984084e-13
1.073430063e-09
4.434134053e-13
1.094967505e-09
4.567539547e-13
1.114546579e-09
4.678170756e-13
1.132261975e-09
4.76772971e-13
1.148204075e-09
4.833245798e-13
1.162460071e-09
4.876847215e-13
1.17511303e-09
4.896142154e-13
1.186243131e-09
4.892981938e-13
1.19592666e-09
4.865923535e-13
1.204237253e-09
4.81615935e-13
1.21124495e-09
4.743101864e-13
1.217017366e-09
4.647293231e-13
1.22161873e-09
4.529210645e-13
1.225111014e-09
4.388610499e-13
1.227553138e-09
4.226925274e-13
1.22900178e-09
4.043231263e-13
1.229511033e-09
3.839699371e-13
1.229132643e-09
3.614767592e-13
1.227916271e-09
3.371455784e-13
1.225909097e-09
3.107945348e-13
1.223156649e-09
2.827127294e-13
1.219701964e-09
2.527561422e-13
1.215586678e-09
2.211833824e-13
1.210850107e-09
1.878973503e-13
1.205530269e-09
1.531362213e-13
1.199663009e-09
1.168218e-13
1.193283029e-09
7.918336011e-14
1.186423029e-09
4.016327226e-14
1.179114641e-09
1.171387595e-09
2.06525545e-15
4.557982746e-11
8.082309237e-15
1.33374097e-10
1.773571015e-14
2.162774726e-10
3.067207478e-14
2.94494311e-10
4.651017523e-14
3.682218847e-10
6.484631062e-14
4.376505135e-10
8.531402535e-14
5.029637423e-10
1.075090299e-13
5.643385255e-10
1.309896498e-13
6.219454595e-10
1.553835854e-13
6.759488398e-10
1.803958886e-13
7.265068402e-10
2.05580904e-13
7.737719173e-10
2.306523797e-13
8.178906871e-10
2.553663261e-13
8.590041363e-10
2.793281923e-13
8.972481284e-10
3.024467805e-13
9.327529976e-10
3.243768976e-13
9.656442916e-10
3.450093725e-13
9.960425248e-10
3.641221794e-13
1.024063481e-09
3.815933878e-13
1.049818548e-09
3.973135252e-13
1.073414343e-09
4.111718016e-13
1.094953647e-09
4.231056225e-13
1.114534646e-09
4.330357239e-13
1.132252045e-09
4.409164891e-13
1.148196194e-09
4.467242858e-13
1.162454263e-09
4.504029578e-13
1.175109351e-09
4.520062325e-13
1.186241528e-09
4.514455288e-13
1.195927221e-09
4.488556796e-13
1.204239843e-09
4.440785021e-13
1.211249727e-09
4.3732919e-13
1.217024115e-09
4.28402296e-13
1.221627657e-09
4.175663014e-13
1.22512185e-09
4.046239689e-13
1.22756608e-09
3.898001278e-13
1.229016604e-09
3.729778894e-13
1.229527856e-09
3.543012019e-13
1.22915132e-09
3.337376286e-13
1.227936835e-09
3.113800898e-13
1.225931454e-09
2.872592592e-13
1.22318077e-09
2.614118529e-13
1.219727812e-09
2.339217746e-13
1.215614168e-09
2.047954889e-13
1.210879233e-09
1.741595054e-13
1.205560905e-09
1.420012658e-13
1.199695167e-09
1.084617896e-13
1.193316569e-09
7.353825602e-14
1.186457952e-09
3.738052566e-14
1.179150799e-09
1.171424975e-09
1.892439918e-15
4.557793503e-11
7.40573704e-15
1.333685837e-10
1.624315211e-14
2.162686352e-10
2.806817446e-14
2.94482486e-10
4.253145792e-14
3.682074214e-10
5.927111811e-14
4.376337739e-10
7.790408577e-14
5.029451093e-10
9.80215388e-14
5.643184081e-10
1.192549341e-13
6.219242262e-10
1.413079724e-13
6.759267867e-10
1.637739494e-13
7.264843742e-10
1.863179137e-13
7.737493733e-10
2.087534958e-13
8.178682515e-10
2.306803175e-13
8.589822094e-10
2.519342113e-13
8.972268745e-10
2.723003807e-13
9.327326314e-10
2.915316157e-13
9.656250604e-10
3.095741156e-13
9.960244823e-10
3.26120953e-13
1.024046934e-09
3.412699352e-13
1.049803399e-09
3.547108997e-13
1.073400902e-09
3.666034279e-13
1.094941754e-09
3.766477057e-13
1.114524601e-09
3.850466556e-13
1.132243646e-09
3.915200164e-13
1.148189721e-09
3.962960122e-13
1.162449487e-09
3.99138192e-13
1.175106509e-09
4.002575152e-13
1.186240408e-09
3.994879018e-13
1.195927991e-09
3.96982774e-13
1.204242348e-09
3.926393989e-13
1.21125407e-09
3.865481011e-13
1.217030206e-09
3.786940834e-13
1.221635511e-09
3.690908764e-13
1.225131453e-09
3.578020334e-13
1.227577369e-09
3.447719651e-13
1.229029634e-09
3.301277152e-13
1.2295425e-09
3.137458111e-13
1.229167702e-09
2.958295966e-13
1.227954751e-09
2.762049296e-13
1.225951079e-09
2.551215854e-13
1.223201853e-09
2.32377493e-13
1.219750556e-09
2.082363975e-13
1.21563831e-09
1.8250559e-13
1.210904964e-09
1.554507591e-13
1.20558796e-09
1.268939906e-13
1.199723724e-09
9.709431556e-14
1.193346369e-09
6.590322297e-14
1.186489143e-09
3.358689971e-14
1.179183115e-09
1.171458562e-09
1.656657428e-15
4.557627837e-11
6.483411602e-15
1.333637569e-10
1.421420853e-14
2.162609044e-10
2.454814527e-14
2.94472152e-10
3.716518457e-14
3.681948044e-10
5.170953878e-14
4.376192295e-10
6.782019348e-14
5.029289987e-10
8.515152942e-14
5.643010767e-10
1.034128545e-13
6.219059648e-10
1.222382038e-13
6.759079614e-10
1.412834392e-13
7.26465329e-10
1.603654161e-13
7.737302913e-10
1.791573329e-13
8.178494596e-10
1.974119941e-13
8.589639548e-10
2.150335543e-13
8.972092529e-10
2.316976456e-13
9.327159674e-10
2.474022364e-13
9.656093558e-10
2.61897372e-13
9.960099872e-10
2.751689134e-13
1.024033663e-09
2.870998674e-13
1.049791468e-09
2.976594148e-13
1.073390342e-09
3.067975324e-13
1.094932616e-09
3.144899715e-13
1.114516909e-09
3.207188152e-13
1.132237417e-09
3.25488612e-13
1.148184951e-09
3.287811662e-13
1.162446195e-09
3.306506293e-13
1.17510464e-09
3.310532241e-13
1.186240006e-09
3.300982056e-13
1.195928946e-09
3.276761377e-13
1.20424477e-09
3.239516711e-13
1.211257795e-09
3.187570967e-13
1.217035401e-09
3.12325583e-13
1.221641943e-09
3.044253726e-13
1.225139353e-09
2.95306863e-13
1.227586488e-09
2.847565115e-13
1.229040184e-09
2.72952918e-13
1.229554304e-09
2.597515963e-13
1.229180903e-09
2.452759757e-13
1.227969227e-09
2.294373465e-13
1.225966918e-09
2.122993137e-13
1.223218991e-09
1.938212503e-13
1.219769034e-09
1.74033254e-13
1.215658098e-09
1.529372875e-13
1.21092606e-09
1.305447343e-13
1.205610352e-09
1.068761676e-13
1.199747393e-09
8.195006532e-14
1.193371295e-09
5.580548391e-14
1.186515288e-09
2.847916093e-14
1.179210442e-09
1.171487042e-09
1.348617e-15
4.557492975e-11
5.276279422e-15
1.333598293e-10
1.155506889e-14
2.162546256e-10
1.991921204e-14
2.944637879e-10
3.007264485e-14
3.681846509e-10
4.170681445e-14
4.376075953e-10
5.451967307e-14
5.029161858e-10
6.823752765e-14
5.642873589e-10
8.253917664e-14
6.218916632e-10
9.71095357e-14
6.75893391e-10
1.117579876e-13
7.264506805e-10
1.262391347e-13
7.737158102e-10
1.4026701e-13
8.178354317e-10
1.537926723e-13
8.589504291e-10
1.665678277e-13
8.971964777e-10
1.785008323e-13
9.327040344e-10
1.895197617e-13
9.655983368e-10
1.99460318e-13
9.960000466e-10
2.084214459e-13
1.024024702e-09
2.161989737e-13
1.049783691e-09
2.229917929e-13
1.073383549e-09
2.285695861e-13
1.094927038e-09
2.331916788e-13
1.114512287e-09
2.366268047e-13
1.132233982e-09
2.391554648e-13
1.148182423e-09
2.405654352e-13
1.162444785e-09
2.411266155e-13
1.175104079e-09
2.40665795e-13
1.186240467e-09
2.393983439e-13
1.195930213e-09
2.37184049e-13
1.204246984e-09
2.341704822e-13
1.211260808e-09
2.302775176e-13
1.217039294e-09
2.255721463e-13
1.221646648e-09
2.200250445e-13
1.2251449e-09
2.136272862e-13
1.227592886e-09
2.063951957e-13
1.229047417e-09
1.982376796e-13
1.229562461e-09
1.89230788e-13
1.22918991e-09
1.792256042e-13
1.227979232e-09
1.683356046e-13
1.225977808e-09
1.563586803e-13
1.223230968e-09
1.434478644e-13
1.219781945e-09
1.293730363e-13
1.215672172e-09
1.143223438e-13
1.21094111e-09
9.805195689e-14
1.205626623e-09
8.075660535e-14
1.199764688e-09
6.222081661e-14
1.193389831e-09
4.26474922e-14
1.186534861e-09
2.184138178e-14
1.179231248e-09
1.171508883e-09
9.50870906e-16
4.557397888e-11
3.717232674e-15
1.333570629e-10
8.113425534e-15
2.162502294e-10
1.392157589e-14
2.944579797e-10
2.089749134e-14
3.68177675e-10
2.880514825e-14
4.375996877e-10
3.740453721e-14
5.029075864e-10
4.642806726e-14
5.642783354e-10
5.561046992e-14
6.218824808e-10
6.477699698e-14
6.758842245e-10
7.375515548e-14
7.264417024e-10
8.228410968e-14
7.737072812e-10
9.030066317e-14
8.178274152e-10
9.768954949e-14
8.589430402e-10
1.042851233e-13
8.971898822e-10
1.101747777e-13
9.326981447e-10
1.15152344e-13
9.655933593e-10
1.193530776e-13
9.959958459e-10
1.227023028e-13
1.024021353e-09
1.252924385e-13
1.049781101e-09
1.27136576e-13
1.073381705e-09
1.28305337e-13
1.09492587e-09
1.288583605e-13
1.114511734e-09
1.28863363e-13
1.132233977e-09
1.283869304e-13
1.148182899e-09
1.275127937e-13
1.162445659e-09
1.262824941e-13
1.175105309e-09
1.248019139e-13
1.186241947e-09
1.230442585e-13
1.195931971e-09
1.211364838e-13
1.204248892e-09
1.18982711e-13
1.211262962e-09
1.167480102e-13
1.217041528e-09
1.142411448e-13
1.221649155e-09
1.11670961e-13
1.225147471e-09
1.087772088e-13
1.227595779e-09
1.05752056e-13
1.229050442e-09
1.02315991e-13
1.229565897e-09
9.861852067e-14
1.229193608e-09
9.441877404e-14
1.227983431e-09
8.979319209e-14
1.225982433e-09
8.45347323e-14
1.223236226e-09
7.867796204e-14
1.219787801e-09
7.205005388e-14
1.2156788e-09
6.466410084e-14
1.210948496e-09
5.636486648e-14
1.205634922e-09
4.716649095e-14
1.199773887e-09
3.694038147e-14
1.193400057e-09
2.572190073e-14
1.18654608e-09
1.338185607e-14
1.179243588e-09
1.171522265e-09
4.440590526e-16
4.557353482e-11
1.731930192e-15
1.33355775e-10
3.736097352e-15
2.162482253e-10
6.306160192e-15
2.944554097e-10
9.278708843e-15
3.681747025e-10
1.247886309e-14
4.375964875e-10
1.570492541e-14
5.029043604e-10
1.876287126e-14
5.642752774e-10
2.151860394e-14
6.21879725e-10
2.386791594e-14
6.758818752e-10
2.561091861e-14
7.264399594e-10
2.668808989e-14
7.737062041e-10
2.711033037e-14
8.178269929e-10
2.672102603e-14
8.589434295e-10
2.562233305e-14
8.971909809e-10
2.378911247e-14
9.326999779e-10
2.124951606e-14
9.655958989e-10
1.816484471e-14
9.959989305e-10
1.449717666e-14
1.02402502e-09
1.05290619e-14
1.049785069e-09
6.168772687e-15
1.073386065e-09
1.767888974e-15
1.09493027e-09
-2.786338206e-15
1.114516288e-09
-7.124671366e-15
1.132238315e-09
-1.137011569e-14
1.148187144e-09
-1.515709158e-14
1.162449446e-09
-1.862457278e-14
1.175108776e-09
-2.145327351e-14
1.186244776e-09
-2.37944129e-14
1.195934312e-09
-2.540679448e-14
1.204250505e-09
-2.642042281e-14
1.211263976e-09
-2.668829521e-14
1.217041796e-09
-2.633109972e-14
1.221648798e-09
-2.529291036e-14
1.225146432e-09
-2.36807668e-14
1.227594167e-09
-2.154344776e-14
1.229048304e-09
-1.895736508e-14
1.229563311e-09
-1.60502885e-14
1.229190701e-09
-1.288092011e-14
1.227980262e-09
-9.650556861e-15
1.225979203e-09
-6.395505783e-15
1.223232971e-09
-3.359402374e-15
1.219784765e-09
-5.538275137e-16
1.215675995e-09
1.752815525e-15
1.21094619e-09
3.560076082e-15
1.205633115e-09
4.61591611e-15
1.199772831e-09
4.935052121e-15
1.193399737e-09
4.292706569e-15
1.186546722e-09
2.703865389e-15
1.179245177e-09
1.171524969e-09
-1.904173767e-16
4.557372524e-11
-7.526211582e-16
1.333563372e-10
-1.733778792e-15
2.162492064e-10
-3.201838987e-15
2.944568777e-10
-5.236357863e-15
3.68176737e-10
-7.954602552e-15
4.375992058e-10
-1.145744459e-14
5.029078632e-10
-1.580969552e-14
5.642796297e-10
-2.104929528e-14
6.218849646e-10
-2.72745876e-14
6.758881005e-10
-3.451746383e-14
7.264472022e-10
-4.267801878e-14
7.737143646e-10
-5.17972693e-14
8.178361122e-10
-6.179255006e-14
8.589534248e-10
-7.249265671e-14
8.97201681e-10
-8.3921013e-14
9.327114063e-10
-9.575465883e-14
9.656077325e-10
-1.079527172e-13
9.960111286e-10
-1.202360121e-13
1.024037303e-09
-1.324589796e-13
1.049797292e-09
-1.443935778e-13
1.073398e-09
-1.558351089e-13
1.094941712e-09
-1.66594639e-13
1.114527048e-09
-1.764548662e-13
1.132248176e-09
-1.852519594e-13
1.148195942e-09
-1.927961497e-13
1.16245699e-09
-1.989424827e-13
1.175114923e-09
-2.035799621e-13
1.186249413e-09
-2.065855173e-13
1.195937317e-09
-2.079391693e-13
1.204251858e-09
-2.075213603e-13
1.211263558e-09
-2.05428176e-13
1.217039703e-09
-2.015420818e-13
1.221644912e-09
-1.960704847e-13
1.225140961e-09
-1.88910967e-13
1.227587008e-09
-1.803736841e-13
1.229039767e-09
-1.703547096e-13
1.229553292e-09
-1.59226496e-13
1.229179572e-09
-1.469394774e-13
1.227967975e-09
-1.338968717e-13
1.22596616e-09
-1.200888192e-13
1.223219163e-09
-1.059151985e-13
1.219770592e-09
-9.139675031e-14
1.215661476e-09
-7.692765177e-14
1.21093172e-09
-6.254276301e-14