/*--------------------------------*- C++ -*----------------------------------*\
  =========                 |
  \\      /  F ield         | OpenFOAM: The Open Source CFD Toolbox
   \\    /   O peration     | Website:  https://openfoam.org
    \\  /    A nd           | Version:  7
     \\/     M anipulation  |
\*---------------------------------------------------------------------------*/
FoamFile
{
    version     2.0;
    format      ascii;
    class       volScalarField;
    location    "0.0018";
    object      generalizedNewtonian:nu;
}
// * * * * * * * * * * * * * * * * * * * * * * * * * * * * * * * * * * * * * //

dimensions      [0 2 -1 0 0 0 0];

internalField   nonuniform List<scalar> 
1167
(
412.9166343
411.5923126
409.3882896
405.5585611
400.7824897
395.0945719
388.5931064
381.3961273
373.6157154
365.3632914
356.7304012
347.7992738
338.6578214
329.3729346
320.0007836
310.6092621
301.2310058
291.9149829
282.6900567
384.422925
383.146656
381.2905601
377.7779152
373.4509342
368.2961489
362.4063119
355.8901977
348.8533788
341.3899183
333.5786988
325.5008735
317.2345973
308.8313647
300.3525777
291.8438907
283.3419894
274.892005
266.5115909
258.2370194
250.0790639
242.0627942
234.1953512
226.4929935
218.959394
211.6055993
204.4327197
197.4479789
190.6493225
184.0421212
177.6217804
171.3922807
165.3476167
159.4911421
153.8150768
148.3223552
143.0050121
137.8662857
132.897986
128.103623
123.4754762
119.0176812
114.7234631
110.5965552
106.6310701
102.8299875
99.18809806
95.71151874
92.40430253
89.20372859
355.922054
354.6901803
353.1600393
349.9452722
346.0388487
341.3951681
336.0909215
330.2281797
323.9013054
317.1872244
310.1610595
302.9041146
295.4701465
287.912462
280.2888399
272.6297725
264.9778142
257.3597608
249.8014015
242.3273479
234.9494621
227.6899845
220.551579
213.5532555
206.6923155
199.9850479
193.426326
187.0285473
180.7851524
174.7058641
168.7836776
163.025517
157.4252908
151.9874998
146.7064601
141.5851356
136.6191389
131.8105066
127.155742
122.6564967
118.3102095
114.118649
110.0795238
106.1944013
102.4609054
98.87998361
95.44839293
92.17182614
89.0558149
86.03017521
327.7538702
326.567902
325.3338612
322.4034442
318.8978793
314.7371291
309.986093
304.7396856
299.0755563
293.0664171
286.786883
280.2989168
273.6517867
266.9001754
260.0827912
253.2328622
246.3888989
239.567361
232.7985197
226.0935395
219.4721166
212.943333
206.5185611
200.204766
194.0084389
187.9351444
181.9883997
176.1715334
170.4865568
164.9351427
159.5184795
154.2371003
149.0922924
144.0831931
139.2111404
134.474913
129.8765805
125.4146192
121.0913808
116.905392
112.8594201
108.9522141
105.1858937
101.5591427
98.07340744
94.72657458
91.51857196
88.45264161
85.53792758
82.69614213
300.246532
299.113528
298.1462371
295.4868635
292.3550957
288.6437243
284.407782
279.7287139
274.6793324
269.3287119
263.7432857
257.9711362
252.0614192
246.0619159
240.0015928
233.9170987
227.8319703
221.767391
215.7456331
209.7748799
203.8760641
198.0500363
192.312947
186.6632457
181.1131328
175.6604616
170.3142861
165.0713246
159.9394393
154.914415
150.0032501
145.2016619
140.5164509
135.9427
131.487216
127.1454408
122.9245559
118.82036
114.8395062
110.9785201
107.2436916
103.6318217
100.1481286
96.78909995
93.5592028
90.45364901
87.47520049
84.62496241
81.91535602
79.26211585
273.7034249
272.6282901
271.8911527
269.4832942
266.6952208
263.3960871
259.6288643
255.4703484
250.9868096
246.2460081
241.2964508
236.1840444
230.9587257
225.652672
220.2962529
214.9220765
209.5453801
204.1907499
198.868887
193.5941254
188.3758552
183.2205464
178.1363597
173.1249978
168.1939881
163.3425429
158.5767699
153.8947218
149.3018146
144.795787
140.3813437
136.0570161
131.8267625
127.6896789
123.6494859
119.7063943
115.8639686
112.1230459
108.4870091
104.9569842
101.5361445
98.22513159
95.02638449
91.93980601
88.96706633
86.10611211
83.35773677
80.72502265
78.22056681
75.75755946
248.3640082
247.348926
246.8037035
244.6293257
242.1515496
239.2243882
235.8832724
232.1986342
228.2361885
224.0466416
219.6757778
215.1693406
210.5666015
205.8953623
201.187783
196.4643802
191.7429322
187.0428045
182.3703086
177.7424088
173.1599496
168.6334219
164.1631071
159.7554839
155.4106323
151.1324815
146.9204862
142.7776334
138.703205
134.6998692
130.7672483
126.9084937
123.1231718
119.4149144
115.7838603
112.2344885
108.767224
105.3868572
102.0939184
98.8932551
95.78531693
92.77395662
89.85910948
87.04362561
84.32682138
81.70928297
79.189502
76.77338902
74.47199855
72.19912871
224.4062443
223.4549682
223.0659756
221.1047281
218.9073764
216.3162787
213.3600288
210.1072988
206.6119858
202.9192655
199.0716384
195.1134053
191.0728651
186.9783634
182.8577686
178.7257441
174.6025525
170.4982843
166.4232589
162.3864731
158.3905981
154.4432895
150.5425731
146.6957716
142.8985124
139.157298
135.4667165
131.8329467
128.2506452
124.7258454
121.2542712
117.8420913
114.485876
111.19189
107.9582573
104.7915079
101.6907338
98.66239481
95.70606572
92.82800212
90.02767547
87.31035239
84.67483052
82.12567152
79.66057353
77.2822435
74.98729953
72.78413006
70.68223877
68.59663995
201.9585816
201.073464
200.8103375
199.0464923
197.1020013
194.8124467
192.2038018
189.3365018
186.2578328
183.0093163
179.6335931
176.1634669
172.6259037
169.0500357
165.4542316
161.8544673
158.2677985
154.7001866
151.1642733
147.6619464
144.199358
140.7777072
137.3989282
134.063959
130.7722833
127.524485
124.319066
121.1568396
118.0361862
114.9584497
111.9229042
108.9313575
105.9839817
103.0833745
100.2310017
97.43011442
94.68295358
91.99304506
89.36296904
86.79626619
84.29503505
81.86218006
79.49898998
77.20782013
74.98861801
72.84216628
70.76688661
68.77070523
66.86345495
64.96088102
181.110187
180.2928205
180.1289488
178.5460754
176.8272973
174.8080458
172.5081507
169.9821132
167.2732427
164.4214784
161.4630429
158.4255469
155.3359146
152.2183793
149.0877727
145.9617394
142.850214
139.7614492
136.7039054
133.6784184
130.6920665
127.7416801
124.8317686
121.9585655
119.1242045
116.3248671
113.5618496
110.8316963
108.135587
105.4710458
102.839933
100.2405595
97.67566089
95.14479387
92.65185369
90.19730629
87.78572766
85.4180939
83.0992562
80.83037941
78.61562574
76.45579849
74.35419517
72.31124695
70.32889098
68.40613257
66.54329504
64.74693822
63.02844683
61.30326744
161.9059992
161.1559309
161.0673444
159.6486472
158.1317987
156.3511275
154.3233788
152.0988915
149.7174726
147.2165496
144.6246131
141.9676317
139.2727215
136.5568346
133.8354203
131.1240806
128.4293424
125.7614252
123.123511
120.5194395
117.9512812
115.4184917
112.9225355
110.4602435
108.0325172
105.6348856
103.26846
100.9284381
98.61633682
96.32819248
94.06618834
91.82732641
89.61466295
87.42671892
85.26752378
83.13674079
81.03900718
78.97467066
76.94869108
74.96152884
73.0176945
71.11717979
69.2640681
67.45758303
65.70105321
63.99202979
62.33241684
60.72749757
59.1898216
57.63596883
144.347627
143.6628551
143.630139
142.3612417
141.0215538
139.4507832
137.6630466
135.7044137
133.6129808
131.4181414
129.1465839
126.823984
124.4717889
122.1053353
119.7409359
117.3887852
115.0566683
112.7530355
110.4792358
108.2408631
106.0363167
103.8675214
101.7324193
99.63034721
97.55880896
95.51588559
93.49920736
91.50645837
89.53590611
87.58578703
85.65512244
83.7429933
81.84957216
79.97523873
78.12127653
76.28906808
74.4806857
72.69815415
70.94403731
69.22030194
67.52936366
65.87274363
64.25262479
62.66972904
61.12563275
59.61929139
58.15183858
56.7288477
55.36266228
53.97291868
128.403201
127.781631
127.7883379
126.6537272
125.4708262
124.085121
122.5087644
120.785284
118.9464044
117.0185809
115.0263496
112.9943348
110.9388165
108.8751592
106.8180423
104.7750446
102.7554931
100.7639791
98.80383658
96.8782351
94.98611742
93.12962291
91.30505568
89.51341051
87.74984879
86.01436142
84.30212988
82.61268889
80.94191632
79.28965592
77.65253666
76.0311241
74.42329336
72.83071473
71.25240212
69.69091433
68.14613802
66.62124125
65.11670005
63.63553955
62.17831399
60.74765416
59.34404364
57.96939602
56.62377358
55.3074102
54.02017413
52.76870153
51.56352903
50.329969
114.013374
113.4517782
113.4860115
112.4729749
111.428738
110.2059754
108.8162625
107.2981293
105.6792488
103.9837541
102.2355157
100.4536733
98.65378491
96.85138107
95.05694313
93.27862813
91.52518901
89.79927863
88.10586106
86.44546751
84.81929262
83.22698757
81.66705085
80.13837087
78.63783244
77.16407482
75.71316137
74.28383178
72.87228278
71.47767838
70.0966879
68.72925357
67.3731014
66.02917338
64.69620032
63.37598558
62.06805191
60.77489675
59.49644373
58.23530363
56.99134774
55.76720995
54.56238787
53.37936812
52.21702011
51.07653789
49.95668674
48.86483245
47.80972526
46.72308792
101.1015079
100.5963538
100.6489224
99.7455133
98.82356202
97.74459146
96.5185286
95.17931282
93.75205374
92.25920466
90.72171571
89.1557087
87.57622189
85.99704273
84.42670485
82.87436015
81.34580803
79.84485505
78.3757553
76.938402
75.53542163
74.16473069
72.82665199
71.51843417
70.23890257
68.98497008
67.75461505
66.5448708
65.35359914
64.1781548
63.01669709
61.86734493
60.72905118
59.60083583
58.48244505
57.37371831
56.2750801
55.18706527
54.11034191
53.04570253
51.99378926
50.95554682
49.93127717
48.92187049
47.92704036
46.94711017
45.98112606
45.03603814
44.1192917
43.16936314
89.57625373
89.12353931
89.1873467
88.38229903
87.56857022
86.61593506
85.5327215
84.34987746
83.08980913
81.77362407
80.41794973
79.03794077
77.64832293
76.25951839
74.88014434
73.51912723
72.18040384
70.86907582
69.5874479
68.3370721
67.11922257
65.93286914
64.77830008
63.65274503
62.55597871
61.48414205
60.43664819
59.40944212
58.40171989
57.40963993
56.43255024
55.46727471
54.51371737
53.56944795
52.63496597
51.70855263
50.79125702
49.88198125
48.9818894
48.0902119
47.20809906
46.33499978
45.47177555
44.61794304
43.77392689
42.93894281
42.11279898
41.30102715
40.51083168
39.68654763
79.33600753
78.93146455
79.00139991
78.28491957
77.56636032
76.72423481
75.76634573
74.72043957
73.60723231
72.44388393
71.24560459
70.02663705
68.79961202
67.57353542
66.35744175
65.1578389
63.97921646
62.82666641
61.70145096
60.60641576
59.54151373
58.5073229
57.50298857
56.52752062
55.5795117
54.65692346
53.75808133
52.88050856
52.02244849
51.18129908
50.35554641
49.54292967
48.74240689
47.95217272
47.17169976
46.39964518
45.63601018
44.87974852
44.13110424
43.38912505
42.65429164
41.92557712
41.20356417
40.48700742
39.77664609
39.07077115
38.36976545
37.67780873
37.00170282
36.29202623
70.27418233
69.91370938
69.98648918
69.34871399
68.71384386
67.96903245
67.12135509
66.19599077
65.21084177
64.18054271
63.11891339
62.03949961
60.95214374
59.8655758
58.78850644
57.72574587
56.68264959
55.66269674
54.66812534
53.70138533
52.76239749
51.85267933
50.97068185
50.11680286
49.28889471
48.4864143
47.70698404
46.94954301
46.21158101
45.49183308
44.78796898
44.09887562
43.42253845
42.75809601
42.1038914
41.45935235
40.82320026
40.19494515
39.5735061
38.95841213
38.34879233
37.74407097
37.14349735
36.54634793
35.95219045
35.35981299
34.76897466
34.18336361
33.60868803
33.00247615
62.28301123
61.96235909
62.03536335
61.46804832
60.90718639
60.24824859
59.49783189
58.67860256
57.80524848
56.8910935
55.94900377
54.99013145
54.02335344
53.05731255
52.09863229
51.15225482
50.22363505
49.31504383
48.4296853
47.56891824
46.73392263
45.92526134
45.14269203
44.38619265
43.65449877
42.94716753
42.26238335
41.59941184
40.95610513
40.33162376
39.72382965
39.13196905
38.55402035
37.98937369
37.43615382
36.89394828
36.36098267
35.83686907
35.31980274
34.80948864
34.30406601
33.8032675
33.30521103
32.80957963
32.31493007
31.82053774
31.32530779
30.83293537
30.34716531
29.83346979
55.25661576
54.97189358
55.04373582
54.53942633
54.04405868
53.46104543
52.79688959
52.07059542
51.29539843
50.483109
49.64550713
48.79148508
47.92940098
47.06731831
46.21038713
45.36399504
44.53215369
43.71763364
42.92354184
42.15077198
41.40132719
40.67508409
39.97292593
39.29421083
38.63895265
38.00617653
37.39537114
36.80528708
36.23509198
35.68345242
35.14946444
34.63180349
34.12956203
33.64144579
33.16656457
32.70367566
32.25177788
31.80954839
31.37582807
30.94926945
30.52852755
30.11223163
29.69888024
29.28739068
28.87634294
28.46471926
28.0511925
27.63905515
27.23037986
26.79826036
49.0938457
48.84137541
48.91128754
48.46319378
48.02584623
47.51041257
46.92198557
46.27764648
45.58894338
44.86670681
44.12031253
43.35797083
42.5875968
41.81541644
41.04645166
40.28601907
39.53694725
38.80262809
38.08515293
37.38621041
36.70718915
36.04857259
35.41122197
34.7947649
34.19964379
33.62500617
33.07096843
32.53635835
32.02107185
31.52385247
31.0444961
30.58171831
30.13523129
29.70371561
29.28680929
28.88309293
28.49197117
28.11178957
27.74174766
27.37992329
27.02533525
26.67579945
26.33026749
25.98676484
25.64430372
25.30105498
24.95625925
24.61178132
24.26921166
23.90785898
43.69923567
43.47557176
43.54317983
43.14522162
42.75959379
42.303615
41.7821653
41.21030697
40.59826495
39.95527085
39.28920199
38.60756978
37.91743862
37.22382858
36.53186395
35.84555537
35.16790944
34.50219466
33.84987603
33.21319777
32.59285676
31.99015553
31.40532627
30.83897412
30.29101461
29.76164261
29.25050592
28.75755226
28.28228997
27.8245964
27.38389454
26.96001904
26.55229318
26.16049553
25.78381482
25.42180939
25.07337133
24.73773484
24.41346506
24.09939517
23.79374592
23.49499224
23.20132356
22.91117061
22.62293984
22.33500216
22.04635446
21.75817045
21.47123462
21.17071504
38.98408574
38.78605455
38.85134952
38.49824551
38.15809894
37.75476733
37.2927158
36.78515915
36.24120312
35.66812358
35.07307172
34.46298564
33.84332301
33.21882941
32.59436061
31.97285092
31.35764435
30.75103308
30.15496668
29.57112736
29.00048085
28.44424529
27.90271532
27.37673829
26.86625946
26.37183555
25.8932142
25.43075484
24.98419904
24.55379451
24.13932718
23.74093352
23.35841671
22.99178928
22.64075759
22.30502634
21.98402745
21.6770648
21.38314645
21.10106947
20.82933524
20.56639397
20.31048057
20.05999122
19.81312459
19.56841115
19.32444002
19.0822501
18.84115079
18.59252576
34.75495896
34.44150156
34.14168022
33.78508618
33.37580575
32.92565071
32.44182474
31.9307882
31.39893542
30.85213133
30.29492834
29.73194032
29.16681049
28.60250508
28.04208833
27.48723418
26.94020869
26.40199062
25.87409633
25.35708288
24.85193208
24.35891985
23.87874207
23.41144418
22.95760262
22.51715654
22.09072731
21.67820835
21.28028785
20.89688041
20.52861451
20.17547963
19.83787102
19.51565594
19.20887223
18.91706705
18.63972865
18.37587256
18.12442111
17.88393284
17.65292992
17.42968237
17.21262562
16.99994361
16.79064105
16.58464392
16.38101304
16.17554117
)
;

boundaryField
{
    front_top
    {
        type            wedge;
    }
    front_middle
    {
        type            wedge;
    }
    front_bottom
    {
        type            wedge;
    }
    back_top
    {
        type            wedge;
    }
    back_middle
    {
        type            wedge;
    }
    back_bottom
    {
        type            wedge;
    }
    axis_top
    {
        type            symmetryPlane;
    }
    axis_middle
    {
        type            symmetryPlane;
    }
    axis_bottom
    {
        type            symmetryPlane;
    }
    wall_top
    {
        type            calculated;
        value           nonuniform List<scalar> 
23
(
87.61483731
84.52352791
81.27672094
77.93287396
74.51966835
71.05133608
67.53788107
63.98966647
60.41773454
56.83393851
53.25202298
49.68628658
46.152523
42.66755781
39.24883701
35.91353208
32.67844287
29.55845368
26.56695822
23.71518716
21.01206334
18.46315114
16.07123481
)
;
    }
    wall_middle
    {
        type            calculated;
        value           nonuniform 0();
    }
    wall_bottom
    {
        type            calculated;
        value           nonuniform 0();
    }
    inlet
    {
        type            calculated;
        value           nonuniform 0();
    }
    outlet
    {
        type            calculated;
        value           nonuniform 0();
    }
    procBoundary6to5
    {
        type            processor;
        value           nonuniform List<scalar> 
51
(
34.86719265
34.69197023
34.69197023
31.18041798
30.90220361
30.63817033
30.32310094
29.96088045
29.56159631
29.13122337
28.67542801
28.19999505
27.70940778
27.20790318
26.69962906
26.18734623
25.67413903
25.16215291
24.65337056
24.14940367
23.65144339
23.16066725
22.67774453
22.20350679
21.73839249
21.28295717
20.83755054
20.40256829
19.97846071
19.56555647
19.1644845
18.77553296
18.39956033
18.03686606
17.6883079
17.35421577
17.03522751
16.73158181
16.44346286
16.17073161
15.91298965
15.66960768
15.43956213
15.22170387
15.0145354
14.81654404
14.62610407
14.44204518
14.26395135
14.08974201
13.91997815
)
;
    }
    procBoundary6to7
    {
        type            processor;
        value           nonuniform List<scalar> 
51
(
441.0456942
439.6678073
437.1057482
432.940803
427.698402
421.4481165
414.3122146
406.4135269
397.8703793
388.7989194
379.3168178
369.5086787
359.4616147
349.2699491
338.987444
328.6830181
318.4084693
308.2025262
298.1162227
273.5868148
273.5868148
264.6303587
255.8365671
247.226654
238.8063693
230.5920384
222.5838793
214.7939742
207.2196927
199.8680256
192.7348119
185.8232253
179.1284169
172.6504423
166.3848326
160.3287306
154.4778365
148.8280516
143.3757817
138.1160978
133.046015
128.1606103
123.4580112
118.9341137
114.587349
110.4144175
106.4139551
102.5836324
98.92495016
95.44309422
92.08423964
)
;
    }
}


// ************************************************************************* //
