/*--------------------------------*- C++ -*----------------------------------*\
  =========                 |
  \\      /  F ield         | OpenFOAM: The Open Source CFD Toolbox
   \\    /   O peration     | Website:  https://openfoam.org
    \\  /    A nd           | Version:  7
     \\/     M anipulation  |
\*---------------------------------------------------------------------------*/
FoamFile
{
    version     2.0;
    format      ascii;
    class       volTensorField;
    location    "0.0018";
    object      grad(U);
}
// * * * * * * * * * * * * * * * * * * * * * * * * * * * * * * * * * * * * * //

dimensions      [0 0 -1 0 0 0 0];

internalField   nonuniform List<tensor> 
1167
(
(-0.003605423789 -1.108305027e-15 -8.112718741e-05 -2.619122743e-15 -0.00592925791 0 0.0007860511044 -8.310127236e-16 0.02181202132)
(-0.004786840367 -6.133854915e-15 -0.0003421436124 1.001451688e-16 -0.005168507558 0 0.002041563844 -2.565478649e-15 0.0217810662)
(-0.004722740284 -1.035469013e-16 -0.0006133737117 3.64350005e-15 -0.00493432939 0 0.003216846186 -5.59717101e-15 0.02175562423)
(-0.004817152022 7.865605306e-15 -0.0008136689345 7.142447951e-16 -0.004897170473 0 0.004422400299 -3.269337841e-15 0.02170897651)
(-0.004800664919 2.448354281e-15 -0.0009958842898 -1.305543405e-15 -0.004878006996 0 0.005600174256 -1.094553835e-16 0.02164208524)
(-0.004760687487 1.140198282e-15 -0.001156179782 -5.7965529e-16 -0.004860198086 0 0.006738433092 -1.549874574e-15 0.02155471767)
(-0.00470544634 3.093830198e-15 -0.001291595397 -1.181144656e-15 -0.004841264672 0 0.007833114762 -1.882766403e-15 0.02144570572)
(-0.004632279456 7.392401077e-16 -0.001399191284 -1.229903367e-15 -0.004819425228 0 0.008881791486 -1.535187329e-16 0.02131215089)
(-0.004541555283 2.587687471e-15 -0.001475485659 -1.094321394e-15 -0.004793788969 0 0.009883135777 1.048148332e-16 0.02114995474)
(-0.004429985047 2.553185722e-15 -0.001520417266 -1.480426144e-15 -0.004763955187 0 0.01083305967 1.5240532e-15 0.02095706118)
(-0.004293022397 9.713413855e-16 -0.001536279621 -1.358741113e-15 -0.00472909446 0 0.01172615366 1.45548725e-15 0.02073323534)
(-0.004132246335 2.465372176e-15 -0.001521577161 -1.387479837e-15 -0.004688530292 0 0.01256157445 5.126801471e-16 0.02047534692)
(-0.00394655546 2.055424919e-16 -0.00147647324 -1.516088807e-15 -0.004642213772 0 0.01333708368 5.427288064e-16 0.02018112825)
(-0.003731761644 -1.945101475e-15 -0.001404676676 -1.241421938e-15 -0.004589675671 0 0.01404779897 7.343462471e-16 0.01985157853)
(-0.003489148321 -1.532126266e-15 -0.001306097471 -1.091647035e-15 -0.00453052194 0 0.01469339934 4.098576552e-16 0.01948433226)
(-0.003218108488 7.597320447e-16 -0.001183520082 -9.212525169e-16 -0.004464715442 0 0.01527111582 -1.756117333e-16 0.01907935453)
(-0.002918443265 1.216445757e-15 -0.001040073836 -1.048228656e-15 -0.004391996887 0 0.01577869566 6.840676348e-16 0.01863737481)
(-0.002591259429 -6.238365276e-16 -0.0008773492583 -9.624637882e-16 -0.004312411032 0 0.01621579735 1.03087528e-15 0.01815759612)
(-0.002236372621 -2.660780979e-16 -0.0006993163183 -9.098454381e-16 -0.004225924365 0 0.01658046184 1.46146357e-15 0.01764261748)
(-0.004881818202 3.914030227e-15 -4.816418577e-05 -8.165744628e-15 -0.008030664805 0 0.0009836126187 -1.451414332e-15 0.0252394135)
(-0.006479180635 6.498306212e-15 -0.0002995888491 -6.178566772e-15 -0.006999045196 0 0.002554233105 -5.139945975e-15 0.02519732139)
(-0.006387075583 -3.221543612e-17 -0.0005549816843 -6.553820129e-15 -0.006680157412 6.422116567e-14 0.004024433168 -1.469225873e-14 0.02515731828)
(-0.006505809251 -6.255604051e-15 -0.0007239248895 -3.16628999e-15 -0.006627190153 4.716045017e-14 0.005532372625 -1.093729009e-14 0.02508776237)
(-0.006469713564 -3.591452551e-16 -0.0008748763424 -1.049651507e-15 -0.006597342207 -3.77137945e-14 0.00700346039 -1.959921104e-15 0.024990894)
(-0.006398758284 4.34743495e-15 -0.001001403692 -1.750556409e-15 -0.006567937269 3.172689845e-14 0.008423625772 -4.570003289e-15 0.02486667678)
(-0.006307860734 3.482686844e-16 -0.00109725818 -2.035173736e-15 -0.006536065326 0 0.009790284321 -2.167680331e-15 0.02471167296)
(-0.006194611657 -8.122580354e-16 -0.001158152292 -1.429210084e-15 -0.006500062097 0 0.01110105492 1.079978559e-15 0.02452166106)
(-0.006055374399 -6.10522434e-16 -0.001182959539 -1.361965763e-15 -0.006458939113 0 0.01235113442 2.428730214e-15 0.0242939388)
(-0.005885029302 -3.436865666e-16 -0.001173526435 -1.042414121e-15 -0.006411640048 -2.05275396e-14 0.01353390719 4.936488096e-15 0.02402791981)
(-0.005683767012 2.141546526e-15 -0.001128950858 -1.062897319e-15 -0.006357148826 0 0.0146466701 4.081232988e-15 0.02372092182)
(-0.005452291447 1.946196923e-15 -0.001047832367 -1.22529398e-15 -0.006295239533 0 0.01568772031 4.269266792e-15 0.02336910745)
(-0.005185610271 1.883558534e-16 -0.0009340077288 -1.225137609e-15 -0.006225572857 -1.695325556e-14 0.01665098141 5.233206664e-15 0.02297286357)
(-0.004883529877 3.086942631e-16 -0.0007889880795 -1.087401628e-15 -0.006147510568 0 0.01753384986 2.802342243e-15 0.02253102821)
(-0.004546949328 1.470935454e-15 -0.0006135880019 -1.10110623e-15 -0.006061003895 0 0.01833484592 8.972302418e-16 0.022041512)
(-0.004173589816 -1.963190167e-16 -0.000412319189 -1.116917659e-15 -0.005965829742 1.485355432e-14 0.01904978418 -4.612905834e-16 0.02150626201)
(-0.003765094254 -1.618702933e-15 -0.0001869478034 -9.524952264e-16 -0.005861825002 -1.434345753e-14 0.01967813386 1.643728408e-15 0.02092403116)
(-0.003322095928 -1.270325567e-15 5.821963684e-05 -8.68847059e-16 -0.005749088579 0 0.02021735836 9.513251719e-16 0.02029642564)
(-0.002845464905 -5.016468844e-16 0.0003195197153 -7.65612534e-16 -0.005627616961 0 0.02066646694 2.341838098e-16 0.01962483714)
(-0.002336907248 1.316271461e-15 0.0005932085681 -7.33722974e-16 -0.005497614779 0 0.02102486012 -1.253323144e-16 0.01891065182)
(-0.001798104842 1.756477851e-15 0.0008746378244 -7.928761789e-16 -0.005359248776 0 0.02129185184 -1.829818788e-16 0.01815703853)
(-0.001231405565 1.182593437e-15 0.001159911866 -8.016929353e-16 -0.005212829231 0 0.02146789538 -4.991436901e-16 0.01736565528)
(-0.0006391146339 4.633352052e-16 0.001444291706 -8.236860019e-16 -0.005058662657 1.240374215e-14 0.02155321622 -1.460370403e-15 0.01654081787)
(-2.432678731e-05 -1.962639623e-16 0.001723644418 -8.105244187e-16 -0.004897150904 0 0.02154896302 -1.035260111e-16 0.01568477486)
(0.0006096372441 -6.385712692e-16 0.001993591075 -7.519973891e-16 -0.004728726387 0 0.02145645576 7.118852534e-16 0.01480255956)
(0.001258995705 1.665160118e-16 0.002250006211 -7.193147281e-16 -0.004553895716 -1.188029486e-14 0.02127751952 1.490070789e-15 0.01389707175)
(0.001920279379 5.604479423e-16 0.002488827113 -7.113213978e-16 -0.004373199926 0 0.02101425119 1.067030212e-15 0.01297387679)
(0.002589655837 6.884785398e-16 0.002706188156 -6.930385881e-16 -0.004187207974 0 0.02066901661 6.503991627e-16 0.01203653702)
(0.00326301206 1.319603743e-15 0.002898769185 -7.209799991e-16 -0.003996525268 0 0.02024475827 3.609922943e-16 0.01109084693)
(0.003936090321 1.1211338e-15 0.003063329797 -7.38117431e-16 -0.003801782728 0 0.0197444287 4.06798614e-16 0.01014084692)
(0.004604711561 1.165385272e-15 0.003197353339 -7.447003471e-16 -0.003603637519 0 0.01917157145 2.742558703e-16 0.009192468537)
(0.005264282566 7.579550187e-16 0.003298556163 -7.409032716e-16 -0.003402754043 0 0.01852974859 -4.681174557e-17 0.008250094858)
(0.005910381276 1.642112233e-16 0.003365418528 -7.433544929e-16 -0.003199829207 5.638481487e-15 0.01782305194 -2.379569373e-16 0.007319545652)
(0.006538839195 1.407971097e-16 0.003396662784 -7.190150557e-16 -0.002995548786 0 0.0170554368 -1.094225878e-16 0.0064054396)
(0.007145467895 2.699174421e-16 0.003391926299 -7.118513728e-16 -0.002790609244 0 0.01623139606 -1.231990767e-16 0.00551334599)
(0.00772590126 2.824662073e-16 0.003351357173 -7.052898858e-16 -0.002585692438 0 0.01535547423 -2.25604821e-16 0.00464786708)
(0.00827587467 7.236633055e-16 0.003275771329 -6.992819096e-16 -0.002381491739 0 0.01443249183 -4.055645049e-16 0.003814171461)
(0.008791502601 9.740544841e-16 0.003166541272 -7.047096193e-16 -0.002178678557 5.593974032e-15 0.01346730214 -8.073059834e-16 0.003016701732)
(0.009269091385 6.751442604e-16 0.003025738698 -6.996893314e-16 -0.001977917143 1.11950293e-14 0.01246498776 -8.431030791e-16 0.002260119423)
(0.0097051918 -2.048379484e-16 0.002856043723 -7.00585016e-16 -0.001779843198 0 0.01143069048 -5.58720295e-16 0.001548524757)
(0.01009634553 -6.863390588e-16 0.002660822513 -6.717515959e-16 -0.001585076602 0 0.01036976529 -3.27693785e-16 0.0008859765849)
(0.01043953537 -2.523589787e-16 0.00244402997 -6.624208453e-16 -0.001394211285 0 0.009287625478 -4.712775355e-16 0.0002760569529)
(0.01073212914 -1.885182577e-17 0.002210105429 -6.478867972e-16 -0.001207812718 0 0.008189651848 -6.178427555e-16 -0.0002778427293)
(0.01097185128 7.216851631e-17 0.001964189689 -6.363582539e-16 -0.001026412146 0 0.007081363869 -8.231326476e-16 -0.0007728253368)
(0.01115657048 3.300568688e-16 0.001711942591 -6.264412198e-16 -0.0008505064141 1.137872832e-14 0.005968267082 -1.146235139e-15 -0.00120626917)
(0.01128525707 3.343553745e-16 0.001459632173 -6.264944297e-16 -0.0006805596321 5.715191947e-15 0.004855904567 -1.217254322e-15 -0.001576142756)
(0.01135665627 -1.50690627e-17 0.001213696935 -6.226135744e-16 -0.000516977155 0 0.003749449002 -9.7533445e-16 -0.001880696063)
(0.01136244719 2.342833843e-16 0.0009809882631 -6.133075771e-16 -0.0003601453723 0 0.002654184581 -9.376583181e-16 -0.002118868169)
(0.01128280496 4.271955688e-16 0.00077007078 -6.115782359e-16 -0.0002105803342 0 0.001576885923 -9.669226509e-16 -0.002289773362)
(0.01124977915 1.396981777e-16 0.0003346078814 -6.077310594e-16 -6.905054625e-05 0 0.000526769164 -9.147129747e-16 -0.002393591371)
(-0.006452378394 5.606297424e-15 -4.924889446e-06 -9.577463199e-15 -0.01061747367 0 0.001227513646 1.035715441e-15 0.02946135606)
(-0.008560882721 1.185855402e-14 -0.0002402213651 -8.159805605e-15 -0.009251827816 0 0.003186805839 3.127296397e-15 0.02940664977)
(-0.008433238636 4.849631154e-15 -0.0004723192401 -1.063667666e-14 -0.008828129095 -1.304425976e-13 0.005019702092 7.562546335e-15 0.02935025711)
(-0.008579826648 -8.981708266e-15 -0.0005999846527 -6.922308652e-15 -0.008755144393 0 0.006899012612 2.64430821e-15 0.02925399268)
(-0.008518322578 -4.55248066e-15 -0.0007087066807 -2.375118366e-15 -0.008711214605 3.830112137e-14 0.008731581248 -1.914340121e-15 0.02912063146)
(-0.00841095668 1.027309543e-15 -0.0007876936008 -2.64312807e-15 -0.008666956914 0 0.01050143019 2.329474954e-15 0.02894857876)
(-0.008278189433 -4.503629306e-15 -0.0008284815268 -2.053180165e-15 -0.008619223509 -2.803275319e-14 0.01220603974 6.544445343e-15 0.02873364988)
(-0.008113513277 -5.363792938e-15 -0.0008286499724 -8.538044409e-16 -0.008565956773 0 0.01383974832 5.238073256e-15 0.02847269078)
(-0.007910745722 -2.841281268e-15 -0.0007891513713 -3.762238761e-16 -0.008505363512 -2.266195583e-14 0.01539459498 6.508834125e-15 0.02816454929)
(-0.0076688006 3.859587569e-16 -0.0007093548847 -1.425102956e-16 -0.008435971404 0 0.01686564136 4.882422228e-15 0.02780676272)
(-0.007389091735 1.88509848e-15 -0.0005865725448 -3.598166998e-16 -0.008357190103 0 0.01825098182 4.985674126e-15 0.02739472501)
(-0.007067443881 7.4058415e-16 -0.0004234169127 -4.444199306e-16 -0.008268707642 -1.820344036e-14 0.01954425562 6.554642975e-15 0.02692719363)
(-0.00670093766 2.545574455e-15 -0.0002233411348 -4.371573243e-16 -0.00816977618 -1.721727308e-14 0.02073965682 6.42955447e-15 0.02640407989)
(-0.006291311559 4.614325892e-15 1.388664706e-05 -6.722045341e-16 -0.008060070808 0 0.02183604005 4.492993874e-15 0.025822267)
(-0.005836647895 3.512046538e-15 0.0002837541361 -9.497500131e-16 -0.007939495126 0 0.02282834221 3.614270512e-15 0.02518244525)
(-0.005337354102 -5.767945131e-16 0.0005826336466 -1.045923786e-15 -0.00780774108 -1.508487263e-14 0.02371365375 2.927209697e-15 0.02448508391)
(-0.004794960266 -9.653004517e-16 0.000907790519 -7.823982017e-16 -0.007664922908 0 0.02449057136 1.823380145e-15 0.02372970357)
(-0.004209419787 1.661540529e-15 0.001253566147 -7.996549205e-16 -0.007511051069 0 0.02515593141 6.394014406e-16 0.02291949073)
(-0.003583114669 1.501369544e-15 0.00161624267 -8.31158766e-16 -0.007346279571 1.372752543e-14 0.02570934911 -1.185256242e-15 0.02205467112)
(-0.002917748726 8.530255443e-16 0.001990089777 -8.497318122e-16 -0.007170874902 1.338654424e-14 0.02614912374 -2.115555649e-15 0.02113920436)
(-0.002215895435 9.154129008e-16 0.00237055081 -8.691305033e-16 -0.006985122902 0 0.02647566024 -4.727273768e-16 0.02017508981)
(-0.001480451752 2.180127715e-15 0.002752017408 -8.642811668e-16 -0.006789445372 0 0.02668877061 3.811843425e-16 0.0191665151)
(-0.0007144889562 -1.313539522e-16 0.003129322611 -9.595301695e-16 -0.006584275344 0 0.02678948847 9.256384046e-16 0.01811705025)
(7.807483883e-05 -2.474027486e-15 0.003497079908 -8.110418273e-16 -0.006370147137 0 0.02677895958 8.421614183e-16 0.0170312331)
(0.0008931719321 -1.594073567e-15 0.003850131655 -7.279096095e-16 -0.006147637852 0 0.02665918424 6.49892861e-16 0.01591367521)
(0.001726389239 -1.352919702e-16 0.004183301881 -6.480391021e-16 -0.00591739534 1.206530983e-14 0.02643234999 9.48888091e-17 0.01476944329)
(0.002573502947 1.271275673e-15 0.004491518784 -6.990958002e-16 -0.005680103269 0 0.02610113756 4.510406566e-16 0.0136038817)
(0.00342972933 1.076355986e-15 0.00477015019 -6.807550194e-16 -0.005436476149 0 0.02566864216 1.011509901e-17 0.01242259212)
(0.004290191711 8.376774263e-16 0.005014855165 -6.8644501e-16 -0.0051872748 0 0.02513844917 4.671488301e-16 0.01123129136)
(0.005149857823 1.00072536e-15 0.005221714446 -6.928235156e-16 -0.004933275637 0 0.02451439131 7.091201506e-16 0.01003606063)
(0.006003543109 1.372222744e-15 0.005387187694 -7.22433683e-16 -0.004675289352 0 0.02380066749 9.072449732e-16 0.008842794297)
(0.006845808088 1.170491448e-15 0.005508504597 -7.524415536e-16 -0.004414134836 -1.150000225e-14 0.02300193078 1.178548747e-15 0.007657890873)
(0.007671489523 4.125579675e-16 0.005583162552 -7.269705429e-16 -0.004150661164 0 0.02212294506 8.128559983e-16 0.006487264903)
(0.008475525734 3.255320099e-16 0.005609512288 -7.134900439e-16 -0.00388570155 0 0.02116882681 4.980996724e-16 0.005337505573)
(0.009252665778 6.979450563e-16 0.005586424171 -7.118151108e-16 -0.003620103738 0 0.02014488886 2.651152477e-16 0.004214353194)
(0.009997590708 1.016521091e-15 0.005513718536 -7.162735511e-16 -0.003354702262 0 0.01905685421 5.811671291e-17 0.00312434826)
(0.01070514565 1.064445289e-15 0.005391668086 -7.157202299e-16 -0.003090340644 5.681376089e-15 0.01791052359 -1.593041078e-16 0.002072992303)
(0.01137052022 5.1435471e-16 0.005221492023 -7.267801278e-16 -0.002827838343 0 0.01671202933 1.214583586e-16 0.00106659859)
(0.01198904485 -3.929928821e-16 0.005004912646 -7.27240132e-16 -0.002568005943 0 0.01546752692 1.230401591e-16 0.0001102869021)
(0.01255620758 -9.349016699e-16 0.004744594815 -6.948197375e-16 -0.00231162459 -5.69196329e-15 0.01418348264 1.317666089e-16 -0.0007900590353)
(0.01306750029 -1.672683499e-16 0.004443811949 -6.571520763e-16 -0.002059460072 5.702743442e-15 0.01286646439 -3.976771619e-16 -0.001629849265)
(0.01351908039 5.428041181e-16 0.004106636637 -6.643625815e-16 -0.001812249926 0 0.01152318815 -4.538132095e-16 -0.002403805777)
(0.0139073971 8.978163839e-16 0.003737792789 -6.579765091e-16 -0.001570695792 0 0.01016039657 -5.09197142e-16 -0.003107980208)
(0.01422913186 1.490418148e-15 0.003342771452 -6.743670561e-16 -0.001335465675 0 0.008784888568 -4.976791695e-16 -0.003737959906)
(0.01448129272 1.194610543e-15 0.00292788972 -6.799266782e-16 -0.001107189582 5.777966128e-15 0.007403605856 -5.121653453e-16 -0.004290644168)
(0.01466243875 1.618054956e-16 0.002500083196 -6.872644352e-16 -0.0008864594851 0 0.006023327495 -2.183770364e-16 -0.004762678532)
(0.01477084902 -3.700489269e-17 0.002066799826 -6.693368443e-16 -0.0006737929723 0 0.004650610217 -1.234040834e-16 -0.005151971923)
(0.01479469428 4.817199631e-16 0.001635738302 -6.658145555e-16 -0.0004696862779 5.864895525e-15 0.003291873721 -2.025607547e-16 -0.005456399978)
(0.01470700294 2.505486155e-16 0.001217110301 -6.661099329e-16 -0.0002748290782 0 0.001955695147 5.19892191e-17 -0.005674906356)
(0.01468739823 -4.071197788e-17 0.0005046717306 -6.563249164e-16 -9.024427811e-05 0 0.0006529575592 1.994440749e-16 -0.005806915735)
(-0.008378873132 2.333259408e-16 4.937190427e-05 -3.376500269e-15 -0.01379174187 0 0.001527331592 1.660869789e-15 0.03465348093)
(-0.0111133775 -1.932251288e-15 -0.000162685789 -1.337440574e-15 -0.0120155627 0 0.003964415301 5.253515351e-15 0.03458363182)
(-0.01094118368 2.15701752e-15 -0.0003616283245 5.498193251e-16 -0.01146250021 0 0.006243665489 1.235609179e-14 0.0345071842)
(-0.0111221564 5.369375188e-15 -0.0004336546412 -1.448774095e-15 -0.01136446465 -4.864080896e-14 0.008580993455 1.290578067e-14 0.03437674355)
(-0.01103086386 -9.083244601e-16 -0.0004841292556 -2.032248927e-15 -0.01130316577 0 0.01086092759 4.909961769e-15 0.03419545867)
(-0.01088006932 -6.543180773e-15 -0.0004984821403 -7.349847788e-16 -0.01124095241 0 0.01306374904 7.183764682e-15 0.03396166023)
(-0.01069413378 -3.111905967e-15 -0.0004683651566 4.448333786e-16 -0.01117404658 -2.846933623e-14 0.01518430582 9.423890471e-15 0.0336721441)
(-0.01046251694 -1.009118543e-15 -0.0003929817033 2.72517652e-16 -0.01109930074 0 0.01721374162 4.673709302e-15 0.03332498549)
(-0.01018161297 1.428861229e-17 -0.0002715109024 5.394115756e-16 -0.01101418987 0 0.01914461511 2.841165346e-15 0.03291746223)
(-0.00985345912 1.670812959e-15 -0.0001005720779 2.687838322e-16 -0.01091748845 0 0.02097346639 1.808079409e-15 0.03244441901)
(-0.009475068512 -2.934858496e-16 0.0001194170262 1.53861262e-16 -0.01080877148 0 0.02269400486 2.790595733e-15 0.03190282869)
(-0.009040886563 -5.655871186e-17 0.0003840854274 2.888584586e-16 -0.01068717748 0 0.02429764519 3.241726764e-15 0.03129286964)
(-0.008552523055 3.320737492e-15 0.0006928219777 1.024536063e-16 -0.01055199175 -3.497083094e-14 0.02578122457 3.651247407e-15 0.03061150711)
(-0.008009648884 4.51296561e-15 0.00104308724 -1.950495629e-16 -0.01040317752 0 0.02714033626 4.002407555e-15 0.02985721297)
(-0.007409929802 3.866157062e-15 0.00142916451 -4.667136057e-16 -0.01024039209 -1.593049107e-14 0.02836889948 4.972673763e-15 0.02903183021)
(-0.006755754762 2.5806412e-15 0.001848485249 -6.283513748e-16 -0.01006352712 0 0.02946528059 4.056063269e-15 0.02813401171)
(-0.006047524276 1.993455995e-15 0.002294995059 -6.356666381e-16 -0.009872734808 0 0.03042522405 2.218726216e-15 0.02716617029)
(-0.005286941202 3.62287587e-15 0.00276347998 -7.841050223e-16 -0.009668067696 0 0.03124671751 1.968646542e-15 0.02613031984)
(-0.004476441918 3.992392504e-15 0.003248630863 -9.257906729e-16 -0.009449878577 0 0.03192837745 1.92152188e-15 0.02502853927)
(-0.003618623194 2.320775781e-17 0.003743769798 -1.035558677e-15 -0.009218461847 0 0.03246874407 1.926439548e-15 0.02386532106)
(-0.002717134359 -2.458439817e-15 0.004243338492 -8.307448197e-16 -0.008974330658 0 0.0328681422 1.504099731e-15 0.02264309874)
(-0.001775116077 -1.205627457e-15 0.004740413647 -7.378117047e-16 -0.008717997725 0 0.03312646543 2.280486343e-15 0.02136797084)
(-0.0007968700134 -3.335357591e-16 0.005229003059 -7.495953267e-16 -0.008450085288 -1.279309358e-14 0.03324520493 3.784600434e-15 0.02004337768)
(0.0002129290299 2.671222699e-16 0.005702492793 -6.884431212e-16 -0.008171271698 0 0.03322587758 2.110716883e-15 0.01867619942)
(0.001249168248 7.25091732e-16 0.006154751445 -6.786521557e-16 -0.007882322624 0 0.03307109184 1.203911842e-15 0.01727083161)
(0.002306766648 4.988339021e-16 0.006579434305 -6.940297768e-16 -0.00758405162 0 0.03278364108 4.966523115e-16 0.01583477113)
(0.003380435756 7.608518286e-16 0.006970492489 -6.863174236e-16 -0.007277320186 0 0.03236698609 5.680407264e-16 0.01437325531)
(0.004464382371 6.30982383e-16 0.0073222816 -6.91357121e-16 -0.006963022756 0 0.03182512653 6.919622009e-16 0.01289415881)
(0.005552731336 -5.616572025e-17 0.007629378203 -6.738978701e-16 -0.006642104341 0 0.03116246162 7.264825208e-16 0.01140330543)
(0.006639571663 2.381048875e-16 0.007886962757 -6.459403287e-16 -0.006315524458 0 0.03038392032 8.539285338e-16 0.009908926902)
(0.007718532365 2.066175586e-16 0.008090529446 -6.419742783e-16 -0.005984272919 0 0.02949471225 1.095678089e-15 0.008417246518)
(0.008783227179 9.834351148e-16 0.008236393423 -6.501063569e-16 -0.005649360286 -5.839551837e-15 0.02850065392 1.583747538e-15 0.006936610411)
(0.009827519886 1.609634955e-15 0.008321131752 -6.701423383e-16 -0.005311810445 0 0.02740758022 1.062779565e-15 0.005473578379)
(0.01084524869 1.324585566e-15 0.008342372029 -6.679924335e-16 -0.004972642834 0 0.02622194589 7.609512109e-16 0.004036496891)
(0.0118299645 1.244471503e-15 0.008298232319 -6.890149616e-16 -0.004632880744 0 0.02495030414 5.667404988e-16 0.002632007135)
(0.01277518808 1.246402496e-15 0.008187848942 -6.99233904e-16 -0.00429354691 0 0.02359977256 4.218019117e-16 0.001268274032)
(0.01367457575 5.661919708e-16 0.008010844984 -7.099629999e-16 -0.003955660306 0 0.02217747267 2.651849944e-16 -4.80860317e-05)
(0.01452219215 3.194188682e-16 0.007767882785 -6.873899326e-16 -0.003620226933 0 0.02069099163 4.110773407e-16 -0.001309195466)
(0.01531220826 6.340226076e-16 0.007460297601 -6.934629153e-16 -0.003288228856 0 0.01914797663 2.577367018e-16 -0.00250862309)
(0.01603875279 1.062640042e-15 0.007090441097 -6.999957564e-16 -0.002960629005 0 0.01755646845 -1.944525948e-16 -0.003639028504)
(0.01669620469 7.469712421e-16 0.00666142604 -6.956656775e-16 -0.002638366989 1.158311632e-14 0.0159246005 -5.428613235e-16 -0.004694427237)
(0.01727947412 3.975523073e-17 0.00617724521 -6.973886938e-16 -0.002322354076 0 0.01426063364 -3.695183078e-16 -0.00566819077)
(0.01778398658 1.049375813e-16 0.005642873891 -6.824413863e-16 -0.002013461999 5.82349983e-15 0.01257296479 -3.168340393e-16 -0.006555036723)
(0.01820513398 1.02641275e-16 0.005064184889 -6.763088004e-16 -0.001712521148 0 0.0108700105 9.298538198e-17 -0.007349323452)
(0.01853894194 -4.097727567e-16 0.004448122445 -6.704594013e-16 -0.00142032811 0 0.009160322873 5.322411055e-16 -0.008046836469)
(0.01878345382 -7.123730595e-16 0.003802383645 -6.504773143e-16 -0.001137624849 -5.894590884e-15 0.007452154161 8.507913295e-16 -0.008643140166)
(0.01893641395 -5.234646482e-17 0.003135502718 -6.305869102e-16 -0.0008650701336 0 0.005753606555 7.978152655e-16 -0.009135329579)
(0.018981685 -2.672784157e-16 0.002456179978 -6.296508831e-16 -0.0006032878693 0 0.004072450107 1.064158389e-15 -0.009520402347)
(0.018884156 -7.215381254e-16 0.001776431667 -6.099325573e-16 -0.0003531842989 -5.99108814e-15 0.002419279808 1.513524788e-15 -0.009796796712)
(0.01887900059 -2.871466282e-16 0.0007168653476 -5.946117654e-16 -0.0001160726165 -1.205707817e-14 0.0008070916063 1.50939298e-15 -0.00996328394)
(-0.01073556412 -7.450889285e-16 0.0001176986938 -1.870409143e-15 -0.01767583647 0 0.001895913644 2.628474463e-16 0.04102155223)
(-0.014235942 -2.013163411e-15 -6.170168221e-05 0 -0.01539678738 0 0.004920251608 6.955258609e-16 0.0409320747)
(-0.01401006633 -3.300861504e-15 -0.0002142968948 1.083917634e-15 -0.01468539695 0 0.007748923246 -1.616146016e-16 0.04082888767)
(-0.01423423343 1.333210036e-15 -0.0002119056332 1.833140245e-15 -0.01455705966 0 0.01065138082 2.969190214e-15 0.04065396963)
(-0.01410719081 1.57892845e-15 -0.0001857653418 2.314651619e-16 -0.01447491742 0 0.01348283832 4.589111519e-15 0.04041185787)
(-0.01390164685 -4.784643602e-15 -0.0001181415277 5.517097936e-16 -0.01439107354 0 0.01621738612 2.679538839e-15 0.04010252884)
(-0.01364716419 -7.423834354e-16 -2.064287397e-07 1.468222893e-15 -0.01430044051 0 0.0188474182 3.255170454e-16 0.03972327063)
(-0.0133331267 3.129932417e-15 0.0001704164921 6.793240345e-16 -0.01419877064 0 0.0213638469 4.02441632e-16 0.03927071248)
(-0.01295919229 9.770383572e-16 0.0003976559942 4.793354817e-16 -0.01408341782 0 0.02376056752 -7.952988681e-16 0.03873922451)
(-0.01252434525 3.608974082e-16 0.0006830520139 3.359626782e-16 -0.01395338843 0 0.02603037129 1.546030224e-16 0.03812393483)
(-0.01202187192 -1.062443404e-16 0.001022630959 3.125147707e-16 -0.01380767617 0 0.0281624091 1.235689292e-15 0.03742424978)
(-0.01145093978 -4.843683883e-16 0.001414528215 3.300265464e-16 -0.01364512668 0 0.03015020351 -1.943142379e-17 0.03663793924)
(-0.01081309914 1.466239405e-15 0.001857969995 3.468304807e-16 -0.01346546201 0 0.03198951957 3.61784192e-16 0.03576130763)
(-0.01010482558 2.648834935e-15 0.002346514518 9.904356145e-17 -0.01326842646 0 0.0336719057 1.840521884e-15 0.03479562212)
(-0.009327390491 3.51946963e-15 0.002875868976 0 -0.01305363233 0 0.03519297916 2.941087017e-15 0.0337407682)
(-0.008482661812 3.697181704e-15 0.003441439756 -3.950371051e-16 -0.01282126994 -1.555838445e-14 0.03654895768 4.627979241e-15 0.03259677386)
(-0.007570874974 2.24796139e-15 0.004035570477 -4.108147578e-16 -0.01257139385 0 0.03773466588 3.222800845e-15 0.03136757689)
(-0.0065955072 2.152264235e-15 0.004652973777 -5.119174952e-16 -0.01230428155 0 0.03874863547 3.184776428e-15 0.03005417171)
(-0.005559063016 1.605261943e-15 0.005285709377 -5.530636844e-16 -0.01202037416 0 0.03958775433 4.316531235e-15 0.0286617002)
(-0.004465421047 1.540476243e-15 0.005927275903 -6.202249085e-16 -0.01172014142 -1.380674579e-14 0.04025187098 5.891149706e-15 0.02719371175)
(-0.003318770687 2.272184975e-16 0.006569796833 -6.854918162e-16 -0.01140426196 0 0.04074019412 3.816355715e-15 0.02565564359)
(-0.002123612794 -1.777497597e-15 0.007205601288 -5.942738791e-16 -0.01107341675 0 0.04105341034 2.663392168e-15 0.02405326994)
(-0.0008854310204 2.764556227e-16 0.007827232595 -4.567613874e-16 -0.01072844604 0 0.0411930165 2.018654017e-15 0.02239245743)
(0.0003900406263 2.095932666e-15 0.008427019732 -5.743136419e-16 -0.01037022636 0 0.04116140009 1.653727632e-15 0.02068044043)
(0.001696553118 1.337456986e-15 0.008997548435 -5.661458139e-16 -0.009999750066 0 0.0409616644 1.313521469e-15 0.01892370839)
(0.003028068111 1.01182812e-15 0.00953124862 -6.076190446e-16 -0.009618041738 0 0.04059756351 1.215067078e-15 0.01713050682)
(0.004377966044 8.968642983e-16 0.01002099515 -6.008669241e-16 -0.00922618453 0 0.04007348149 8.269659626e-16 0.01530798727)
(0.005739396528 7.712251811e-16 0.0104599496 -6.188209885e-16 -0.008825300466 0 0.03939461595 8.754438272e-16 0.01346491972)
(0.007105272863 5.067031634e-16 0.01084154932 -6.135934241e-16 -0.008416552746 0 0.03856645174 3.722743681e-16 0.01160904685)
(0.008468445651 2.558380657e-16 0.01115978181 -6.325711716e-16 -0.008001130759 0 0.03759525858 4.180991295e-16 0.009749496126)
(0.009821286211 -1.228814261e-16 0.01140916885 -6.05402496e-16 -0.007580245 0 0.03648765605 4.179387761e-16 0.007894490703)
(0.01115631951 1.270396505e-15 0.01158475388 -5.559836972e-16 -0.007155135835 0 0.03525085387 3.442767605e-16 0.006053298602)
(0.01246614567 2.141858146e-15 0.01168217331 -6.229024911e-16 -0.006727039368 0 0.03389221489 6.462870646e-16 0.004234571)
(0.01374319371 1.392700019e-15 0.01169793013 -6.553988123e-16 -0.006297202182 0 0.03241976556 6.671662795e-16 0.002447550101)
(0.01497962899 1.439998148e-15 0.0116293003 -6.653314821e-16 -0.005866863497 0 0.03084176782 6.998180906e-16 0.0007011123648)
(0.0161676379 1.68668816e-15 0.01147434576 -6.757624611e-16 -0.005437272282 0 0.02916700556 7.663748409e-16 -0.0009956240985)
(0.0172996095 1.070218536e-15 0.01123189832 -6.98129941e-16 -0.005009660021 0 0.02740437694 8.754188075e-16 -0.002633692474)
(0.01836804349 5.3904983e-16 0.01090167366 -6.866506657e-16 -0.004585250735 5.859419014e-15 0.02556317074 4.859547257e-16 -0.004204236776)
(0.01936556993 1.048397738e-15 0.01048449447 -6.985366917e-16 -0.004165241866 0 0.02365298005 5.070528552e-16 -0.005698470507)
(0.02028477263 9.981984357e-16 0.009982094999 -6.994309008e-16 -0.003750813915 0 0.02168370383 3.585066266e-16 -0.007108000295)
(0.02111871919 2.52664206e-16 0.009397316671 -7.064994687e-16 -0.003343120155 0 0.01966542478 5.81918868e-16 -0.008424534094)
(0.02186091921 -1.917500456e-17 0.008733975275 -6.96733069e-16 -0.002943278566 0 0.01760830716 5.451486598e-16 -0.009640396241)
(0.02250532608 -2.920670902e-16 0.007997184205 -6.872936551e-16 -0.002552366273 0 0.01552265818 5.374067162e-16 -0.01074820808)
(0.0230460022 -7.10512437e-16 0.007193275622 -6.665546945e-16 -0.002171414077 0 0.01341891982 5.01792433e-16 -0.01174136634)
(0.02347808096 -8.066201599e-16 0.006329784955 -6.401630027e-16 -0.001801412709 0 0.01130744498 4.864374708e-16 -0.01261381769)
(0.02379893643 -5.451643635e-16 0.005415441261 -6.255308771e-16 -0.001443281041 0 0.009198373087 2.420537202e-16 -0.01336037263)
(0.02400576155 -6.283152343e-16 0.004459904204 -6.110307345e-16 -0.001097843776 6.016302617e-15 0.007101497116 6.077853041e-17 -0.01397672239)
(0.02407723784 -1.515721221e-15 0.003473190377 -5.877684295e-16 -0.0007658731091 0 0.005026319491 1.963732036e-16 -0.01445934042)
(0.02396866652 -1.00141726e-15 0.002469187029 -5.562997257e-16 -0.0004485326625 0 0.002985620209 7.582696274e-17 -0.01480568792)
(0.02397851815 -3.285460543e-17 0.0009793886863 -5.493140905e-16 -0.0001474753775 0 0.000995190106 3.34556867e-17 -0.01501422666)
(-0.01361269379 -5.252794123e-16 0.0002040428463 -2.176555069e-15 -0.02241916359 0 0.002348923684 -1.641325007e-16 0.04880488976)
(-0.01804827318 -1.141858925e-15 6.99447021e-05 -2.704750264e-16 -0.01952520221 0 0.006094876349 -5.036925252e-16 0.04869092482)
(-0.01775853892 -1.239310557e-15 -2.022818667e-05 4.002904038e-16 -0.01862045082 0 0.00959871266 -1.291187692e-15 0.04855404956)
(-0.01803644468 -2.053925176e-16 7.750185011e-05 5.87901993e-16 -0.01845585624 0 0.01319527121 -2.634611871e-15 0.04832449782)