/*--------------------------------*- C++ -*----------------------------------*\
  =========                 |
  \\      /  F ield         | OpenFOAM: The Open Source CFD Toolbox
   \\    /   O peration     | Website:  https://openfoam.org
    \\  /    A nd           | Version:  7
     \\/     M anipulation  |
\*---------------------------------------------------------------------------*/
FoamFile
{
    version     2.0;
    format      ascii;
    class       volVectorField;
    location    "0.0018";
    object      grad(generalizedNewtonian:nu);
}
// * * * * * * * * * * * * * * * * * * * * * * * * * * * * * * * * * * * * * //

dimensions      [0 1 -1 0 0 0 0];

internalField   nonuniform List<vector> 
1167
(
(-39990.58743 0 929064.5465)
(-76917.42512 0 927397.9854)
(-129607.5571 0 915816.4232)
(-183362.7859 0 905116.3309)
(-226102.8086 0 890099.0819)
(-267600.3474 0 872128.7521)
(-305877.2534 0 851687.27)
(-340380.0912 0 829005.8202)
(-370970.4217 0 804293.6829)
(-397876.2612 0 777914.8083)
(-421533.2907 0 750503.885)
(-441798.6827 0 722117.3696)
(-458858.2895 0 692903.5742)
(-473302.4118 0 663563.6681)
(-484921.3286 0 633971.9475)
(-494196.866 0 604512.8004)
(-501453.1049 0 575431.2332)
(-506698.4358 0 546623.982)
(-510309.2172 0 518637.3349)
(-38539.53862 0 949682.75)
(-67489.68351 0 948142.7909)
(-115909.3172 -1.683519325e-08 936916.9472)
(-166937.4757 -1.236282905e-08 926672.5215)
(-204881.8711 0 912185.5392)
(-242465.7324 0 894788.5965)
(-277012.1175 0 874843.0867)
(-307999.1814 0 852614.6723)
(-335509.6108 0 828399.1866)
(-359927.6512 2.690585671e-09 802771.3832)
(-381331.333 0 776003.7662)
(-399543.1322 0 748111.5915)
(-415115.0742 2.222097113e-09 719665.8654)
(-428270.0525 0 690890.7131)
(-439027.2917 0 661760.4735)
(-447882.3144 -1.946885071e-09 632897.4391)
(-454718.5724 1.880025665e-09 604136.108)
(-459960.5816 0 575847.7953)
(-463726.1923 0 548081.2344)
(-466155.0829 0 520938.2332)
(-467466.1868 0 494637.4121)
(-467725.3417 0 469074.3136)
(-467120.5674 -1.625783291e-09 444556.7991)
(-465725.9719 0 420864.9194)
(-463649.7124 0 398314.8526)
(-460950.2054 1.557174008e-09 376639.5379)
(-457710.7047 0 356125.1086)
(-454020.5656 0 336521.7639)
(-449912.3983 0 318054.7016)
(-445467.3094 0 300493.2464)
(-440710.4067 0 284006.3104)
(-435693.4782 0 268398.4828)
(-430420.4314 0 253771.4177)
(-424963.2691 0 239976.5212)
(-419322.1867 0 227059.9832)
(-413516.101 0 214901.7044)
(-407518.8368 0 203505.5349)
(-401351.7435 -3.666066822e-10 192778.6827)
(-394988.7855 -3.668387202e-10 182696.2607)
(-388423.3911 0 173182.0881)
(-381612.6011 0 164195.7837)
(-374526.2935 0 155677.7581)
(-367162.5139 0 147596.8857)
(-359489.2863 0 139901.871)
(-351521.5303 -3.728581696e-10 132576.5409)
(-343233.1564 -3.745508194e-10 125583.1996)
(-334456.6162 0 118936.4446)
(-324740.9692 0 112567.0751)
(-317446.1288 0 106468.9933)
(-315894.0739 0 100914.5997)
(-37198.9328 0 958919.6715)
(-58667.81686 0 957391.3894)
(-103056.8907 1.709737216e-08 946868.7735)
(-151537.9157 0 937017.9851)
(-184734.7988 -1.004040916e-08 923120.421)
(-218387.4949 0 906302.8768)
(-249340.6698 3.674309026e-09 887036.131)
(-277012.1097 0 865554.7856)
(-301747.228 5.940695749e-09 842332.0754)
(-323770.0187 0 817727.6175)
(-342781.3786 0 791813.2064)
(-359136.3495 2.385961335e-09 764916.1335)
(-373332.4443 2.256702417e-09 737522.6185)
(-385124.0851 0 709578.7705)
(-394975.0163 0 681470.633)
(-403132.7431 3.954408852e-09 653406.1482)
(-409613.0341 0 625355.7294)
(-414760.6591 0 597803.517)
(-418556.3962 -1.799294213e-09 570536.4683)
(-421323.4038 -1.754601127e-09 543979.6957)
(-423054.3632 0 517981.3215)
(-423981.2731 0 492813.2466)
(-424132.2294 0 468402.1397)
(-423653.9837 0 444907.2041)
(-422571.634 0 422278.7089)
(-420957.384 -7.907121449e-10 400611.5144)
(-418885.8602 0 379862.9409)
(-416406.0819 -7.743168816e-10 360100.7641)
(-413567.3659 0 341254.4773)
(-410390.8474 0 323388.2749)
(-406941.4396 0 306402.9114)
(-403194.3024 0 290357.9473)
(-399211.8629 0 275128.9979)
(-394985.4957 0 260788.2645)
(-390554.2582 0 247180.8034)
(-385874.1681 0 234377.4921)
(-380966.0006 -3.723346634e-10 222208.1418)
(-375796.6239 0 210753.6402)
(-370367.9057 0 199835.4541)
(-364640.6108 3.730285062e-10 189538.0733)
(-358595.8018 -3.737349942e-10 179683.9985)
(-352217.9281 0 170364.4722)
(-345500.707 0 161428.9841)
(-338442.9624 0 152963.0771)
(-331058.276 -3.786647882e-10 144842.608)
(-323382.9062 0 137153.8965)
(-315178.9014 0 129809.8544)
(-306012.7185 -1.921808966e-10 122859.3951)
(-299592.8758 0 116216.0883)
(-299088.3468 0 110143.4435)
(-35812.72308 0 956735.414)
(-50559.94633 0 955035.3294)
(-91058.10553 0 945366.2513)
(-136851.6081 6.375448112e-09 935823.1894)
(-165629.5054 0 922513.7769)
(-195638.8786 0 906495.8406)
(-223220.7264 7.463065678e-09 888141.338)
(-247947.3368 0 867805.5757)
(-270099.4364 0 845857.3345)
(-289557.2203 0 822431.4664)
(-306410.1093 0 797678.3276)
(-321103.378 0 772168.1291)
(-333659.673 2.291848377e-09 745979.3618)
(-344227.8587 0 719208.0825)
(-353226.9034 2.088041326e-09 692348.2156)
(-360554.6021 0 665293.8657)
(-366578.2115 0 638373.3139)
(-371416.0088 0 611681.0175)
(-375167.5674 0 585279.0721)
(-378048.4437 0 559448.4198)
(-380081.0234 0 534034.0527)
(-381452.65 0 509402.9158)
(-382194.0964 8.384081805e-10 485323.752)
(-382417.1704 0 462149.442)
(-382138.1083 0 439624.396)
(-381425.7866 0 418065.0414)
(-380329.5545 0 397228.0925)
(-378881.2643 0 377382.6732)
(-377119.614 0 358281.303)
(-375059.1591 0 340163.2291)
(-372727.1895 0 322788.1116)
(-370108.6521 7.654017384e-10 306348.3399)
(-367244.6025 0 290622.6019)
(-364121.8384 0 275772.5789)
(-360747.689 0 261583.8148)
(-357082.069 0 248185.4674)
(-353130.6116 0 235378.8948)
(-348867.5759 0 223271.1841)
(-344284.7502 0 211688.1095)
(-339348.7008 0 200717.6152)
(-334042.595 -3.795555556e-10 190207.8284)
(-328376.0355 0 180243.9771)
(-322343.7816 -3.816488848e-10 170697.1796)
(-315959.3247 0 161654.6438)
(-309251.574 0 152998.871)
(-302277.5609 0 144828.3815)
(-294779.0126 0 137040.0212)
(-286292.7935 0 129712.5899)
(-280812.7866 1.963159762e-10 122727.7296)
(-281346.8207 1.975431688e-10 116327.1579)
(-34213.35823 0 943231.3341)
(-43060.02641 0 941296.2579)
(-79898.71521 0 932628.5633)
(-123045.0333 0 923510.8003)
(-147835.9889 0 910992.2305)
(-174463.3199 0 895959.145)
(-199054.1694 0 878794.5599)
(-221081.357 0 859813.5175)
(-240631.7895 0 839214.8537)
(-257679.6968 0 817084.6786)
(-272574.2029 0 793879.9804)
(-285573.975 0 769879.4145)
(-296564.6225 0 745071.1916)
(-305944.0498 0 719849.2782)
(-313874.9299 0 694357.7117)
(-320425.5539 2.039268566e-09 668608.3165)
(-325916.4884 0 643006.3903)
(-330314.3553 0 617410.2758)
(-333925.6556 0 592162.0185)
(-336722.0794 9.048388921e-10 567205.068)
(-338890.1277 0 542721.0251)
(-340509.9363 0 518753.6085)
(-341644.4031 0 495360.5943)
(-342366.3833 0 472632.2449)
(-342690.4316 0 450551.8728)
(-342678.7705 0 429229.1237)
(-342366.0554 0 408619.9305)
(-341761.818 0 388815.3033)
(-340898.1732 0 369756.9361)
(-339778.2084 0 351512.4357)
(-338407.0871 0 334021.5253)
(-336767.0659 0 317318.1087)
(-334883.8548 0 301356.6969)
(-332732.8097 0 286136.9236)
(-330303.9945 0 271618.3585)
(-327557.4147 0 257774.9093)
(-324480.5029 0 244581.6671)
(-321066.6984 -3.840028845e-10 231996.3848)
(-317286.2376 0 220002.0856)
(-313126.5404 0 208552.5149)
(-308573.0186 0 197641.4809)
(-303644.3484 0 187235.1684)
(-298350.9516 0 177328.7998)
(-292702.0558 0 167900.342)
(-286754.2094 0 158946.6728)
(-280566.1256 0 150466.0148)
(-273861.6938 -1.971422041e-10 142443.9087)
(-266149.1119 0 134882.5869)
(-261617.3262 0 127722.2012)
(-263079.8399 0 121111.0268)
(-32465.88212 0 919461.3214)
(-36383.84923 0 917370.8404)
(-69855.01585 0 909894.846)
(-110306.712 0 901300.6859)
(-131497.4693 0 889713.1514)
(-155126.5375 0 875818.4154)
(-176962.3356 0 859963.3072)
(-196388.2547 0 842343.2653)
(-213419.3073 0 823083.2802)
(-228328.9555 0 802511.083)
(-241478.0369 0 780990.5987)
(-252707.592 0 758563.0074)
(-262254.4094 0 735405.0773)
(-270492.102 0 711869.4106)
(-277322.5585 0 687899.3475)
(-283071.3826 1.035514108e-09 663781.9369)
(-287865.5565 0 639617.766)
(-291787.4435 0 615440.2318)
(-295056.4874 0 591531.2625)
(-297676.4978 0 567735.6967)
(-299834.6656 8.984427509e-10 544409.1892)
(-301536.9438 0 521381.0813)
(-302905.498 0 498932.6448)
(-303932.7849 0 476921.3453)
(-304686.732 0 455562.4045)
(-305187.9548 0 434747.6667)
(-305470.3939 0 414647.7834)
(-305536.1002 0 395151.1529)
(-305394.5797 -8.04208819e-10 376410.3639)
(-305051.1579 0 358303.0022)
(-304477.2197 0 340960.1912)
(-303681.3351 -3.947137927e-10 324249.9122)
(-302639.6155 3.930861937e-10 308300.6048)
(-301343.8456 0 292960.6652)
(-299746.0169 0 278348.3549)
(-297834.1162 0 264303.5552)
(-295573.485 3.900029677e-10 250945.9625)
(-292952.3188 0 238116.3474)
(-289945.9619 0 225923.1759)
(-286543.289 3.907297353e-10 214219.0662)
(-282750.2926 0 203107.4818)
(-278579.1022 0 192463.5171)
(-274049.2826 0 182380.7729)
(-269178.244 0 172746.5394)
(-264045.4955 0 163652.0513)
(-258679.3832 0 155002.0614)
(-252833.0358 0 146872.3071)
(-245916.8358 0 139177.4954)
(-242336.3477 -4.049566111e-10 131942.0874)
(-244612.92 0 125199.9745)
(-30652.47153 0 887216.5362)
(-30617.96977 0 884986.409)
(-60921.32791 0 878724.3461)
(-98684.66832 0 870687.6405)
(-116751.3933 0 860058.0907)
(-137604.5945 0 847317.5828)
(-156863.6185 0 832724.8304)
(-173766.584 0 816425.4269)
(-188608.6269 0 798643.6768)
(-201701.5573 0 779784.52)
(-213039.8168 -2.703854218e-09 759956.1631)
(-222672.7398 0 739187.6864)
(-230940.3914 0 717868.642)
(-237921.3113 0 696067.3218)
(-243735.3851 0 673829.597)
(-248680.6573 0 651477.6256)
(-252730.3792 0 628920.9554)
(-256153.6114 0 606421.087)
(-258961.5796 0 583983.7259)
(-261291.157 0 561706.4222)
(-263282.8703 0 539708.6806)
(-264946.8374 0 517970.1151)
(-266373.3326 0 496672.3801)
(-267563.3223 0 475714.8574)
(-268576.2894 0 455311.3454)
(-269427.8971 0 435330.9095)
(-270135.0099 0 415980.6658)
(-270700.6114 0 397114.5794)
(-271123.9312 4.083664625e-10 378926.1247)
(-271390.5226 0 361266.2005)
(-271471.904 0 344296.3098)
(-271365.5479 0 327879.1925)
(-271040.3937 0 312147.6507)
(-270469.6179 0 296972.9019)
(-269604.7675 0 282455.4725)
(-268425.9194 0 268481.9209)
(-266900.6152 0 255132.5023)
(-265013.5429 0 242306.3237)
(-262739.9187 0 230071.6675)
(-260070.5094 3.968146482e-10 218336.5185)
(-257023.9128 0 207167.27)
(-253610.0857 0 196480.9182)
(-249852.5495 0 186342.8211)
(-245768.8833 0 176669.2858)
(-241445.6768 0 167531.7114)
(-236915.6532 0 158844.4789)
(-231916.892 0 150682.6902)
(-225829.3653 0 142950.8772)
(-223160.4383 0 135704.7256)
(-226275.9357 0 128911.3157)
(-28725.71823 0 848149.7846)
(-25672.67118 0 845773.4978)
(-53106.32311 0 840620.6343)
(-88141.14572 0 833117.6847)
(-103427.2222 0 823372.3005)
(-121776.6285 0 811720.7353)
(-138618.4796 0 798335.2969)
(-153334.5144 0 783399.6536)
(-166302.9958 0 767249.979)
(-177662.0127 2.951992148e-09 750053.9177)
(-187319.2535 0 731868.4562)
(-195527.1238 2.577629631e-09 712931.5746)
(-202573.5914 -2.437987127e-09 693466.874)
(-208395.5664 0 673449.9989)
(-213279.8109 0 653133.8115)
(-217352.633 0 632600.3105)
(-220698.4319 0 611863.5075)
(-223536.3619 0 591167.727)
(-225866.905 0 570397.4804)
(-227879.8644 0 549828.2673)
(-229587.0495 9.266443475e-10 529362.8216)
(-231117.0388 0 509171.527)
(-232456.7547 0 489223.292)
(-233682.4163 -8.776178562e-10 469620.4368)
(-234798.4368 0 450372.6831)
(-235846.5231 0 431542.3897)
(-236818.5814 0 413145.7355)
(-237723.1977 0 395223.6691)
(-238547.4636 0 377791.4902)
(-239264.6235 0 360874.5469)
(-239851.5694 0 344478.1531)
(-240284.2683 0 328627.9135)
(-240539.4268 -4.054249412e-10 313311.8238)
(-240562.0268 4.041242847e-10 298549.6782)
(-240319.9272 0 284316.4602)
(-239772.6274 4.025559089e-10 270635.3696)
(-238898.1537 0 257472.5792)
(-237669.9701 0 244851.8519)
(-236070.2827 -4.024792941e-10 232735.1572)
(-234093.7616 0 221146.9649)
(-231755.8946 -2.018788782e-10 210056.6232)
(-229076.6006 0 199482.0014)
(-226063.4754 0 189397.8436)
(-222759.0542 0 179813.7483)
(-219227.8085 4.09083569e-10 170717.6316)
(-215519.0392 0 162106.4727)
(-211349.184 4.129941182e-10 153981.0308)
(-206087.7576 4.15238224e-10 146304.8719)
(-204297.9178 2.08833982e-10 139100.0647)
(-208186.0321 -2.101394261e-10 132331.0816)
(-26727.92557 0 803616.429)
(-21439.77225 0 801129.9981)
(-46205.84064 0 796954.1639)
(-78534.93134 0 789931.5284)
(-91447.19404 0 781050.1019)
(-107521.5405 0 770437.5372)
(-122249.5167 0 758257.0566)
(-135106.4065 0 744771.4329)
(-146382.232 0 730176.8563)
(-156068.4869 0 714570.2563)
(-164279.2525 -1.394364071e-09 698069.1274)
(-171296.4093 0 680982.4423)
(-177126.8081 -1.237977866e-09 663335.5351)
(-181924.3743 0 645205.5745)
(-185956.9481 0 626833.7448)
(-189208.5432 0 608164.6481)
(-191908.9607 0 589390.5957)
(-194131.7223 1.015133334e-09 570544.7872)
(-195973.9028 0 551662.6753)
(-197585.9737 0 532894.9052)
(-198980.4402 0 514160.0205)
(-200264.7191 0 495658.7048)
(-201441.3556 0 477270.7774)
(-202579.3334 0 459201.8783)
(-203685.876 -4.393049439e-10 441331.3843)
(-204792.5157 0 423850.7006)
(-205889.1897 0 406635.4425)
(-206982.5199 0 389864.3262)
(-208051.2907 4.211850768e-10 373416.3719)
(-209066.941 0 357449.448)
(-210007.6517 0 341849.7535)
(-210840.2238 0 326763.0623)
(-211527.8238 0 312075.0536)
(-212017.317 0 297910.1779)
(-212271.8032 0 284161.4197)
(-212250.9744 0 270941.2931)
(-211928.2374 0 258148.0979)
(-211275.8683 0 245883.5905)
(-210275.1668 0 234049.9134)
(-208929.8992 -2.046353256e-10 222741.5344)
(-207248.3278 0 211871.4444)
(-205250.4597 0 201522.4733)
(-202943.7969 0 191611.1441)
(-200376.2116 0 182214.1044)
(-197605.8402 -2.077272674e-10 173252.6887)
(-194697.7721 -4.173405576e-10 164795.6019)
(-191305.0005 -2.097129929e-10 156774.0376)
(-186863.2554 0 149222.0756)
(-185879.193 0 142104.6175)
(-190453.3492 0 135413.7842)
(-24682.04228 0 754968.0782)
(-17839.14758 0 752421.7356)
(-40169.10181 0 749134.2056)
(-69869.70433 0 742628.7467)
(-80727.09097 0 734568.8385)
(-94809.55854 0 724978.2592)
(-107735.7971 0 714030.5584)
(-118945.6896 -3.648212775e-09 701915.8524)
(-128641.0503 -3.309689307e-09 688775.0896)
(-136884.7639 0 674685.6)
(-143880.5452 0 659914.3859)
(-149766.0314 0 644589.8043)
(-154556.0072 0 628708.9934)
(-158493.7299 2.393546901e-09 612501.9607)
(-161685.8976 0 596023.147)
(-164223.7287 0 579280.1433)
(-166314.3286 0 562470.9343)
(-167969.3825 0 545515.2762)
(-169374.8395 0 528591.6987)
(-170545.1589 0 511662.805)
(-171593.6586 0 494806.4209)
(-172576.6501 0 478054.3987)
(-173518.9965 0 461416.4201)
(-174481.6652 4.525830169e-10 444969.1464)
(-175475.2991 0 428686.4155)
(-176521.1768 0 412662.991)
(-177616.9493 -4.356274582e-10 396850.1058)
(-178763.3514 0 381353.218)
(-179935.6415 0 366113.5466)
(-181106.9414 0 351230.8284)
(-182254.6785 0 336650.5401)
(-183341.4216 0 322462.9772)
(-184323.4002 0 308614.0854)
(-185147.3144 -4.168096322e-10 295180.4402)
(-185775.121 0 282114.0378)
(-186165.3055 0 269482.2404)
(-186289.9372 4.148712898e-10 257240.1944)
(-186119.1729 4.148504327e-10 245447.5464)
(-185634.5363 0 234059.7418)
(-184843.8463 0 223134.6166)
(-183750.7684 0 212626.9415)
(-182373.5255 0 202591.4487)
(-180718.1091 0 192975.6224)
(-178829.0717 0 183838.4081)
(-176763.6084 0 175116.1405)
(-174586.5978 0 166869.7039)
(-171936.8989 0 159033.4829)
(-168262.6219 0 151657.2996)
(-168021.9982 2.15389222e-10 144689.984)
(-173183.1104 0 138115.5896)
(-22649.83806 0 703724.6508)
(-14839.84355 0 701185.8862)
(-34957.31042 0 698677.2528)
(-62074.40444 0 692667.0356)
(-71211.64814 2.84042204e-09 685411.4823)
(-83598.04788 4.779035513e-09 676827.7422)
(-94925.17758 0 667025.1468)
(-104649.2263 -3.70502977e-09 656165.1679)
(-112943.0075 1.680617081e-09 644347.3675)
(-119982.2446 0 631774.502)
(-125951.1378 1.438133014e-09 618628.263)
(-130810.2794 0 604945.5064)
(-134723.9517 -1.276837862e-09 590831.979)
(-137920.9061 0 576457.202)
(-140390.1722 0 561792.7792)
(-142329.3763 0 546981.8735)
(-143840.831 0 532064.9534)
(-144998.281 0 517038.7906)
(-145952.6995 0 502039.0482)
(-146725.4496 0 486974.7994)
(-147433.2986 4.853079718e-10 472012.04)
(-148087.3753 0 457053.2455)
(-148767.9612 0 442224.2356)
(-149488.2713 0 427465.3085)
(-150297.4988 0 412865.4401)
(-151187.1585 4.47383402e-10 398387.7821)
(-152180.0092 0 384103.0228)
(-153260.8032 0 369988.7707)
(-154413.7988 0 356101.325)
(-155612.8485 0 342426.4952)
(-156833.8252 4.286070971e-10 329019.1654)
(-158039.703 0 315864.0859)
(-159181.0633 0 303010.8096)
(-160211.8768 0 290443.151)
(-161089.0171 -4.223072865e-10 278211.5473)
(-161774.6493 0 266298.0737)
(-162237.2029 2.106662323e-10 254751.0616)
(-162445.9791 -2.106556413e-10 243550.0888)
(-162388.3888 0 232739.3264)
(-162063.3121 0 222303.091)
(-161481.8913 2.114585368e-10 212275.1898)
(-160643.815 0 202641.5298)
(-159575.5107 0 193423.8517)
(-158293.6423 0 184616.188)
(-156870.4791 0 176225.9123)
(-155359.5071 0 168253.5561)
(-153395.6622 0 160683.9506)
(-150443.7072 -2.17471159e-10 153535.754)
(-150847.1804 0 146790.8085)
(-156428.4205 0 140368.599)
(-20678.0788 0 651295.5025)
(-12355.16528 0 648796.8743)
(-30431.8755 0 646946.1504)
(-55125.98612 -3.607213864e-09 641423.7735)
(-62849.83247 0 634932.4684)
(-73720.74068 0 627255.1898)
(-83629.30969 0 618481.1466)
(-92014.20811 0 608742.5414)
(-99152.57448 1.706789959e-09 598197.2573)
(-105220.4489 0 587057.9078)
(-110234.3721 0 575401.4444)
(-114257.7208 0 563254.1318)
(-117486.7691 -1.296722535e-09 550826.6198)
(-119995.9566 -1.234339975e-09 538149.5429)
(-121879.7778 0 525238.2436)
(-123321.6552 5.68060174e-10 512248.3331)
(-124339.4892 1.097104007e-09 499125.3143)
(-125089.7819 0 485978.9572)
(-125628.215 0 472805.7291)
(-126034.4269 0 459619.2908)
(-126399.6567 0 446479.8359)
(-126740.5165 0 433335.5124)
(-127130.0373 0 420286.3892)
(-127586.9702 0 407251.6204)
(-128153.0598 4.601508931e-10 394342.6763)
(-128831.504 4.543506709e-10 381472.8806)
(-129641.4123 0 368757.3981)
(-130569.0413 0 356111.9798)
(-131602.9109 0 343646.1626)
(-132722.6306 4.379710822e-10 331285.9905)
(-133903.8707 0 319139.3634)
(-135108.297 0 307137.0698)
(-136290.4401 0 295379.7802)
(-137407.2805 2.149466095e-10 283806.3341)
(-138417.6193 0 272514.1989)
(-139284.6035 0 261447.1461)
(-139975.3892 0 250697.5038)
(-140460.1119 -2.139362603e-10 240210.5044)
(-140730.36 2.140716679e-10 230073.2993)
(-140779.8552 0 220236.0794)
(-140616.3185 0 210775.7489)
(-140237.5385 0 201641.0483)
(-139668.6608 -2.159360604e-10 192901.9539)
(-138925.7135 0 184506.1989)
(-138082.608 0 176517.2691)
(-137152.6732 0 168883.0114)
(-135820.3615 0 161643.0918)
(-133526.5669 -2.208579186e-10 154771.0826)
(-134478.0721 0 148306.3716)
(-140264.5509 0 142078.7428)
(-18769.56813 0 598868.3934)
(-10313.17355 0 596436.1435)
(-26566.31272 0 595115.6981)
(-48944.13191 0 590064.3539)
(-55465.77165 0 584231.9219)
(-65017.56475 0 577362.0932)
(-73657.12614 0 569504.8459)
(-80932.31077 0 560809.4648)
(-87131.57139 0 551481.4577)
(-92346.74402 0 541624.6253)
(-96555.16023 -1.483275554e-09 531294.3942)
(-99902.27226 0 520620.5255)
(-102557.3155 0 509718.6575)
(-104517.8469 0 498584.9378)
(-105947.914 0 487334.9288)
(-106949.3595 0 476008.3816)
(-107581.8706 0 464586.5056)
(-107984.984 0 453183.5075)
(-108184.4097 0 441728.0419)
(-108296.1349 -5.119560143e-10 430320.1332)
(-108340.2689 0 418904.3126)
(-108397.3375 0 407525.8917)
(-108495.9951 0 396173.3037)
(-108681.1118 0 384855.9736)
(-108982.4798 0 373585.5093)
(-109412.8 0 362351.3834)
(-109988.6481 4.562990568e-10 351184.0333)
(-110700.7017 0 340063.0152)
(-111541.5995 0 329028.8136)
(-112497.461 0 318063.458)
(-113545.0089 0 307213.0294)
(-114649.0874 2.199034796e-10 296460.8389)
(-115768.5287 0 285854.8787)
(-116865.8612 0 275384.3513)
(-117902.1717 0 265099.3701)
(-118844.1185 0 254991.9183)
(-119658.5534 0 245112.0723)
(-120318.3958 0 235450.7734)
(-120817.2892 0 226059.9324)
(-121146.1744 -2.176838762e-10 216927.0546)
(-121309.3618 0 208102.2109)
(-121303.6545 0 199563.5941)
(-121149.0949 0 191364.1307)
(-120858.9137 0 183469.0615)
(-120501.1194 0 175931.8006)
(-120082.3085 0 168708.1838)
(-119294.6656 0 161844.9617)
(-117609.7108 0 155306.7848)
(-119005.1723 0 149164.6182)
(-124881.6081 0 143179.6415)
(-16958.52949 0 547380.5737)
(-8620.260655 8.215958827e-09 545046.0859)
(-23213.12686 0 544127.6288)
(-43423.53195 0 539492.105)
(-48952.164 0 534260.5872)
(-57342.36526 0 528111.158)
(-64905.75938 0 521088.6296)
(-71267.97915 0 513385.2556)
(-76666.56795 0 505133.4843)
(-81122.05592 0 496413.4906)
(-84697.2961 0 487297.5504)
(-87537.90039 0 477955.8185)
(-89684.41654 0 468413.1746)
(-91227.23469 0 458701.5419)
(-92317.87095 0 448943.845)
(-92972.52389 0 439108.4663)
(-93318.28578 0 429266.5291)
(-93434.58385 0 419433.2946)
(-93372.48915 -5.331726182e-10 409590.6694)
(-93225.53976 0 399804.0607)
(-93016.53291 0 389999.7082)
(-92821.76746 0 380262.196)
(-92664.71851 0 370510.9757)
(-92599.21682 0 360821.114)
(-92636.53373 -4.745949963e-10 351119.0863)
(-92812.02872 0 341466.6893)
(-93127.49539 -2.317026412e-10 331807.6638)
(-93590.22295 -2.294480559e-10 322192.323)
(-94191.11343 2.27509766e-10 312580.6653)
(-94925.40574 -2.258594814e-10 303022.7898)
(-95769.91277 2.244727123e-10 293487.7768)
(-96696.66116 2.233281717e-10 284024.8861)
(-97670.49365 0 274612.2875)
(-98660.10118 -2.216937681e-10 265303.325)
(-99630.34405 -2.211733372e-10 256083.11)
(-100552.7848 0 247006.3729)
(-101393.9938 0 238062.1306)
(-102136.6258 0 229303.3989)
(-102766.9656 0 220726.125)
(-103284.1368 2.21074001e-10 212375.3075)
(-103677.268 0 204248.9578)
(-103959.2377 0 196381.1578)
(-104126.5017 0 188775.2722)
(-104205.1433 2.235067469e-10 181452.1649)
(-104245.2947 0 174418.514)
(-104253.3152 2.254330883e-10 167672.8081)
(-103930.744 0 161231.3221)
(-102786.321 -2.277906327e-10 155087.9368)
(-104517.1334 0 149304.5827)
(-110362.5243 2.305558114e-10 143617.1658)
(-15254.15611 0 497568.0044)
(-7214.551193 0 495350.7099)
(-20305.78077 0 494749.4007)
(-38509.22555 0 490514.4217)
(-43205.70599 0 485821.1656)
(-50593.87857 0 480321.394)
(-57259.16668 0 474081.2502)
(-62849.00124 0 467254.9295)
(-67544.56286 0 459949.7395)
(-71382.22007 0 452227.2585)
(-74461.30417 0 444235.2492)
(-76874.17813 0 436054.5639)
(-78637.61731 0 427702.1224)
(-79880.20224 0 419282.2393)
(-80685.35567 0 410832.5675)
(-81102.28561 0 402337.6261)
(-81250.59562 0 393895.3488)
(-81155.42523 0 385455.8315)
(-80915.59545 0 377073.4402)
(-80564.61411 0 368727.0192)
(-80159.1904 0 360415.3873)
(-79760.0674 0 352151.985)
(-79392.25801 0 343900.6466)
(-79101.15966 0 335694.9063)
(-78904.77063 0 327476.0526)
(-78834.23072 0 319294.826)
(-78894.80271 0 311083.0677)
(-79097.22452 0 302897.6079)
(-79440.0553 2.310528521e-10 294677.4025)
(-79920.56307 0 286483.5789)
(-80520.62255 0 278261.6195)
(-81218.31387 0 270074.9625)
(-81986.95838 2.258709033e-10 261879.2841)
(-82800.72903 0 253743.2039)
(-83631.53736 0 245630.734)
(-84453.77571 0 237613.5575)
(-85239.8238 0 229660.6259)
(-85977.6269 0 221845.125)
(-86653.76054 0 214141.8257)
(-87265.75831 0 206619.5455)
(-87803.16122 0 199252.2722)
(-88276.83413 0 192104.8538)
(-88684.76466 0 185149.5463)
(-89050.59331 0 178446.8131)
(-89396.58215 0 171964.9946)
(-89753.83284 0 165744.4275)
(-89805.75684 0 159763.7917)
(-89138.10213 0 154060.6049)
(-91097.51453 -1.163458765e-10 148666.1891)
(-96780.2602 0 143323.7714)
(-13670.63285 0 450064.5199)
(-6052.082814 0 447983.827)
(-17790.69647 0 447625.3723)
(-34134.62912 0 443759.8818)
(-38141.42271 0 439554.3316)
(-44686.42634 0 434657.1716)
(-50579.8892 0 429112.1755)
(-55497.68381 0 423047.4911)
(-59589.0761 0 416553.8495)
(-62938.07399 0 409741.171)
(-65635.74562 0 402727.7357)
(-67686.24177 0 395552.4075)
(-69170.69137 0 388265.2773)
(-70207.13 0 380964.9499)
(-70805.58254 0 373641.0109)
(-71067.57302 0 366348.5079)
(-71071.42015 0 359114.1519)
(-70850.10152 0 351911.5587)
(-70488.4889 0 344802.478)
(-70008.17962 -2.68124719e-10 337725.8902)
(-69479.24336 0 330737.0991)
(-68926.43479 0 323780.9558)
(-68404.52462 0 316881.9972)
(-67928.29895 0 310003.5003)
(-67539.28044 -2.447461964e-10 303150.62)
(-67250.37736 0 296301.245)
(-67078.7812 0 289448.5989)
(-67034.76784 0 282582.1202)
(-67123.01615 2.346512302e-10 275694.2814)
(-67342.39658 0 268783.7987)
(-67681.09989 0 261844.2402)
(-68122.85662 0 254883.1081)
(-68650.01089 0 247900.5986)
(-69242.14993 0 240913.454)
(-69879.35924 0 233927.6184)
(-70539.87581 0 226967.2414)
(-71203.69048 0 220041.3469)
(-71863.41226 0 213182.3742)
(-72507.93778 0 206399.322)
(-73134.3036 0 199728.0652)
(-73734.40574 0 193172.1319)
(-74316.93955 0 186772.1461)
(-74879.57953 0 180522.4346)
(-75439.01847 0 174467.0786)
(-76009.97475 0 168584.9237)
(-76620.25334 0 162917.9859)
(-76971.80021 0 157438.6424)
(-76698.42206 0 152204.1935)
(-78793.43345 0 147227.9772)
(-84207.22414 0 142259.5716)
(-12215.99801 0 405335.5491)
(-5088.161203 8.605822934e-09 403398.2678)
(-15597.64032 5.306756633e-09 403210.2949)
(-30248.40307 0 399697.5849)
(-33701.57914 0 395941.7175)
(-39510.37234 0 391577.5868)
(-44725.91599 -1.140447995e-09 386631.5423)
(-49049.2935 0 381224.6842)
(-52657.6079 1.84389895e-09 375451.8191)
(-55630.31118 0 369448.7097)
(-57994.93379 0 363274.3387)
(-59776.65365 7.405650426e-10 356962.4731)
(-61071.42357 -1.400890197e-09 350615.8217)
(-61937.52952 0 344269.7515)
(-62415.96472 6.38156663e-10 337922.4192)
(-62603.06945 0 331660.1876)
(-62518.03651 0 325453.1995)
(-62236.95131 0 319335.8032)
(-61807.70294 0 313309.0724)
(-61262.85323 0 307354.4171)
(-60659.73754 -2.662292528e-10 301500.0611)
(-60021.2002 0 295692.5877)
(-59392.42072 0 289970.5242)
(-58792.10342 0 284267.3726)
(-58255.69613 0 278623.449)
(-57795.68794 -2.4542467e-10 272969.1399)
(-57432.28636 -2.42697407e-10 267342.0044)
(-57173.57815 -2.40335837e-10 261679.1653)
(-57031.46201 0 256016.4371)
(-57003.68805 -2.365769773e-10 250299.6712)
(-57086.53402 -2.351244032e-10 244564.119)
(-57268.69682 0 238766.3996)
(-57540.86546 2.329609617e-10 232946.8262)
(-57888.09188 0 227072.3863)
(-58298.66728 2.31668466e-10 221188.4024)
(-58754.62284 0 215270.7224)
(-59248.42018 1.155668501e-10 209368.2876)
(-59770.99275 0 203468.2438)
(-60321.60577 -1.156341827e-10 197617.8234)
(-60890.26382 0 191810.6454)
(-61482.80615 -1.160014908e-10 186089.2853)
(-62094.02372 0 180454.1099)
(-62736.48837 0 174939.1619)
(-63402.3047 0 169549.2795)
(-64116.40117 1.175316217e-10 164302.7069)
(-64894.67678 0 159208.1977)
(-65462.59404 0 154266.9774)
(-65501.30683 0 149517.6392)
(-67634.90499 0 144991.7292)
(-72663.42282 0 140411.9512)
(-10885.21399 0 363678.054)
(-4274.715006 4.369923512e-09 361888.8014)
(-13695.43953 0 361823.753)
(-26815.38807 0 358642.4179)
(-29794.18369 0 355279.2744)
(-34955.82656 0 351372.5403)
(-39575.10974 0 346947.9006)
(-43402.02985 0 342113.7418)
(-46618.88634 0 336998.7492)
(-49277.6732 0 331684.5729)
(-51367.72103 0 326221.1543)
(-52953.52751 0 320674.7166)
(-54121.16884 0 315125.053)
(-54872.9522 0 309579.8801)
(-55288.44182 0 304090.9307)
(-55432.59795 3.116253718e-10 298691.3112)
(-55327.3795 0 293360.5509)
(-55043.39145 0 288158.7772)
(-54598.51367 0 283044.5567)
(-54051.87016 0 278049.7292)
(-53422.58311 0 273147.9001)
(-52753.32271 0 268339.7058)
(-52073.05779 2.602286749e-10 263611.7501)
(-51403.48885 0 258943.6761)
(-50772.87466 0 254332.1662)
(-50193.99876 0 249743.4082)
(-49685.52275 -2.46477092e-10 245180.2023)
(-49258.51866 0 240605.5514)
(-48923.62079 -2.420168592e-10 236027.6193)
(-48682.13945 0 231408.9484)
(-48533.33026 0 226762.6898)
(-48473.15203 0 222056.8178)
(-48496.72585 1.182945073e-10 217312.0757)
(-48597.22638 0 212503.0699)
(-48767.27856 0 207658.4087)
(-48997.69131 0 202758.3415)
(-49287.88183 1.17366648e-10 197840.6247)
(-49634.33572 0 192891.2872)
(-50038.73052 0 187953.9435)
(-50496.29066 -1.175853598e-10 183014.6206)
(-51013.88474 0 178123.2178)
(-51589.91611 0 173263.5526)
(-52233.79457 0 168488.1813)
(-52934.77083 0 163777.314)
(-53718.54024 0 159177.4904)
(-54579.41873 0 154667.7081)
(-55289.08481 0 150279.534)
(-55554.87037 0 146023.2257)
(-57636.67727 1.21866765e-10 141964.1528)
(-62141.77275 0 137784.3698)
(-9682.743637 0 325253.8843)
(-3597.800572 4.43798042e-09 323613.0935)
(-12034.1559 0 323633.6416)
(-23763.19114 0 320742.8236)
(-26343.03483 0 317721.3717)
(-30936.59196 0 314217.0357)
(-35035.27286 0 310242.1527)
(-38452.54413 0 305930.7146)
(-41347.27411 0 301383.5512)
(-43726.01568 0 296661.8945)
(-45608.62184 0 291809.9674)
(-47061.5605 0 286928.5845)
(-48118.68413 0 282049.8336)
(-48814.55185 0 277188.2398)
(-49222.78129 0 272420.8549)
(-49355.48353 -3.164786053e-10 267735.1153)
(-49271.20906 0 263160.3987)
(-49016.13687 0 258711.7736)
(-48608.34945 0 254370.5889)
(-48095.94125 0 250170.4623)
(-47497.01693 0 246066.3447)
(-46849.50787 0 242093.747)
(-46168.46452 0 238199.9954)
(-45485.17966 0 234407.6527)
(-44812.31481 2.563600117e-10 230669.8148)
(-44170.3953 2.531285825e-10 226995.9432)
(-43570.04399 2.503157103e-10 223345.4739)
(-43027.12964 0 219722.6315)
(-42547.64586 0 216090.9005)
(-42137.36388 0 212451.9173)
(-41796.33484 0 208774.602)
(-41526.73259 0 205063.6921)
(-41326.3702 0 201295.0123)
(-41196.01903 0 197478.0979)
(-41131.01985 0 193596.1336)
(-41133.40229 0 189663.8132)
(-41204.64738 -1.191945086e-10 185674.9128)
(-41351.89576 2.383770325e-10 181647.6532)
(-41574.04677 0 177583.4994)
(-41879.72047 1.194166266e-10 173501.6498)
(-42270.5108 0 169412.1253)
(-42754.1567 0 165332.3889)
(-43335.89734 0 161278.4556)
(-44003.3011 0 157258.3039)
(-44778.13271 0 153293.1651)
(-45650.70215 0 149378.962)
(-46414.91906 0 145539.1285)
(-46835.4713 0 141782.3068)
(-48782.66752 0 138187.2267)
(-52701.56617 0 134416.6532)
(-8597.765462 0 290099.808)
(-3020.824872 0 288599.9931)
(-10573.07592 0 288668.1707)
(-21049.76742 0 286045.6886)
(-23290.53207 0 283328.8471)
(-27376.75468 0 280172.2501)
(-31037.03741 0 276609.2234)
(-34112.28074 0 272762.3776)
(-36721.40475 0 268700.849)
(-38865.58987 0 264479.4155)