/*--------------------------------*- C++ -*----------------------------------*\
  =========                 |
  \\      /  F ield         | OpenFOAM: The Open Source CFD Toolbox
   \\    /   O peration     | Website:  https://openfoam.org
    \\  /    A nd           | Version:  7
     \\/     M anipulation  |
\*---------------------------------------------------------------------------*/
FoamFile
{
    version     2.0;
    format      ascii;
    class       volScalarField;
    location    "0.0018";
    object      p;
}
// * * * * * * * * * * * * * * * * * * * * * * * * * * * * * * * * * * * * * //

dimensions      [1 -1 -2 0 0 0 0];

internalField   nonuniform List<scalar> 
1167
(
1469085.999
1469605.796
1469401.231
1469249.294
1469093.402
1468907.902
1468700.047
1468475.018
1468233.659
1467980.301
1467724.171
1467464.359
1467201.392
1466945.09
1466691.745
1466444.691
1466207.157
1465975.568
1465756.763
1469421.806
1470086.69
1469842.029
1469674.894
1469511.344
1469318.445
1469099.729
1468859.689
1468602.424
1468336.935
1468065.85
1467787.711
1467511.435
1467238.928
1466967.868
1466706.915
1466451.943
1466206.72
1465971.628
1465745.904
1465532.345
1465327.7
1465135.853
1464952.379
1464781.133
1464617.365
1464464.712
1464318.922
1464182.864
1464052.771
1463931.02
1463814.439
1463704.647
1463599.398
1463499.765
1463404.056
1463312.814
1463224.981
1463140.831
1463059.724
1462981.73
1462906.439
1462833.982
1462764.1
1462696.951
1462632.305
1462570.706
1462511.228
1462451.944
1462393.086
1469681.672
1470506.734
1470220.84
1470041.729
1469874.392
1469673.379
1469443.088
1469190.199
1468923.415
1468647.356
1468361.637
1468071.921
1467784.961
1467498.079
1467216.794
1466943.279
1466675.33
1466419.55
1466171.313
1465935.709
1465709.659
1465495.533
1465291.83
1465099.12
1464916.446
1464743.633
1464580.014
1464425.281
1464278.425
1464139.388
1464006.878
1463881.045
1463760.35
1463645.472
1463534.572
1463428.566
1463325.482
1463226.582
1463129.899
1463036.873
1462945.55
1462857.474
1462771.02
1462687.615
1462605.864
1462527.148
1462450.686
1462376.877
1462301.639
1462226.898
1469851.547
1470850.739
1470521.928
1470331.412
1470159.718
1469950.933
1469711.436
1469452.238
1469179.48
1468893.892
1468598.751
1468303.519
1468007.581
1467712.212
1467424.836
1467142.216
1466868.804
1466605.176
1466350.619
1466108.656
1465875.402
1465655.674
1465444.713
1465246.668
1465056.78
1464878.641
1464707.925
1464547.584
1464393.457
1464248.303
1464108.167
1463975.367
1463846.471
1463723.624
1463603.66
1463488.436
1463375.195
1463265.696
1463157.69
1463052.694
1462948.806
1462847.52
1462747.333
1462649.686
1462553.147
1462459.391
1462367.494
1462278.179
1462185.964
1462093.886
1469912.697
1471097.997
1470722.361
1470520.632
1470345.494
1470131.908
1469889.539
1469628.557
1469351.471
1469060.049
1468763.681
1468465.74
1468165.178
1467869.383
1467579.349
1467294.377
1467020.588
1466754.29
1466500.046
1466255.867
1466023.087
1465801.637
1465590.665
1465390.867
1465200.315
1465020.08
1464847.976
1464684.801
1464528.424
1464379.439
1464235.908
1464098.04
1463964.475
1463835.1
1463708.895
1463585.482
1463464.319
1463344.96
1463227.211
1463110.605
1462995.181
1462880.708
1462767.374
1462655.092
1462544.037
1462434.589
1462327.206
1462221.487
1462111.781
1462000.909
1469842.304
1471225.786
1470799.921
1470587.521
1470413.005
1470200.383
1469959.631
1469698.584
1469419.852
1469130.978
1468838.198
1468541.402
1468244.766
1467953.901
1467666.754
1467388.276
1467119.052
1466858.427
1466610.252
1466370.617
1466144.381
1465927.287
1465722.466
1465526.443
1465341.173
1465163.91
1464995.887
1464834.445
1464680.69
1464531.952
1464389.202
1464249.841
1464115.067
1463982.201
1463852.506
1463723.401
1463596.401
1463469.121
1463343.108
1463216.296
1463090.288
1462963.502
1462837.5
1462710.95
1462585.44
1462460.144
1462336.975
1462214.219
1462086.331
1461955.256
1469618.526
1471211.699
1470734.17
1470514.966
1470346.06
1470138.13
1469900.943
1469642.784
1469369.987
1469090.489
1468805.446
1468516.487
1468231.698
1467951.033
1467675.323
1467409.964
1467152.102
1466905.697
1466669.626
1466444.191
1466230.436
1466026.209
1465833.492
1465648.836
1465474.662
1465307.16
1465148.57
1464995.031
1464848.64
1464705.657
1464567.797
1464431.823
1464299.209
1464167.105
1464036.637
1463905.5
1463774.729
1463642.489
1463509.784
1463375.134
1463239.683
1463102.343
1462964.361
1462824.757
1462684.987
1462544.377
1462405.133
1462265.263
1462118.49
1461966.438
1469225.114
1471039.541
1470509.387
1470286.858
1470126.136
1469925.038
1469694.515
1469445.904
1469186.998
1468920.762
1468648.734
1468377.292
1468110.278
1467846.702
1467591.869
1467346.17
1467109.017
1466884.173
1466668.19
1466464.916
1466271.072
1466088.203
1465914.363
1465749.582
1465592.72
1465443.047
1465299.594
1465161.368
1465027.497
1464896.87
1464768.577
1464641.794
1464515.528
1464389.125
1464261.565
1464132.55
1464001.174
1463867.449
1463730.616
1463590.941
1463448.031
1463302.327
1463153.716
1463002.665
1462849.42
1462694.646
1462539.628
1462383.168
1462217.206
1462044.087
1468648.054
1470693.99
1470108.961
1469884.586
1469734.709
1469543.445
1469325.408
1469093.953
1468853.334
1468605.585
1468355.089
1468108.506
1467865.703
1467628.849
1467402.384
1467184.149
1466977.47
1466781.738
1466596.324
1466422.904
1466258.158
1466104.626
1465958.287
1465821.33
1465689.903
1465565.717
1465445.001
1465329.269
1465214.947
1465103.256
1464990.954
1464879.245
1464765.091
1464649.555
1464529.996
1464407.546
1464279.967
1464148.492
1464011.237
1463869.602
1463722.219
1463570.563
1463413.593
1463252.881
1463087.686
1462919.896
1462749.855
1462577.369
1462392.157
1462197.983
1467870.928
1470157.635
1469516.047
1469292.395
1469156.174
1468980.016
1468781.414
1468572.053
1468354.819
1468132.563
1467912.522
1467697.039
1467486.135
1467285.341
1467094.689
1466913.72
1466745.815
1466587.909
1466442.469
1466307.207
1466182.046
1466066.094
1465957.597
1465856.533
1465760.362
1465669.354
1465580.603
1465494.614
1465408.396
1465322.387
1465233.913
1465143.385
1465048.383
1464949.231
1464843.947
1464732.948
1464614.67
1464489.68
1464356.766
1464216.785
1464068.917
1463914.256
1463752.166
1463584.051
1463409.314
1463229.926
1463046.366
1462858.665
1462654.839
1462439.702
1466881.953
1469417.732
1468717.572
1468497.056
1468379.749
1468224.745
1468050.388
1467867.817
1467679.641
1467491.783
1467308.712
1467131.126
1466962.139
1466805.123
1466658.48
1466524.962
1466404.131
1466294.548
1466197.87
1466110.442
1466034.183
1465965.172
1465904.152
1465848.099
1465796.817
1465747.797
1465700.446
1465652.609
1465603.447
1465551.073
1465494.781
1465432.836
1465364.634
1465288.63
1465204.52
1465111.041
1465008.192
1464895.011
1464771.784
1464638.023
1464494.235
1464340.316
1464176.892
1464004.288
1463823.107
1463634.354
1463439.512
1463238.049
1463016.994
1462781.365
1465670.39
1468463.161
1467704.105
1467491.259
1467397.955
1467268.21
1467122.403
1466971.769
1466820.697
1466674.608
1466535.203
1466403.697
1466285.39
1466179.924
1466087.077
1466009.624
1465944.759
1465893.711
1465854.734
1465826.309
1465808.06
1465796.674
1465792.573
1465791.83
1465794.944
1465797.975
1465801.386
1465801.408
1465798.366
1465788.882
1465773.343
1465748.663
1465715.241
1465670.415
1465614.776
1465546.114
1465465.246
1465370.386
1465262.633
1465140.754
1465006.038
1464857.643
1464697.077
1464523.843
1464339.556
1464144.288
1463940.646
1463727.268
1463490.7
1463235.575
1464232.028
1467289.397
1466471.189
1466270.162
1466204.067
1466103.518
1465991.123
1465879.402
1465773.253
1465674.99
1465586.097
1465510.411
1465450.268
1465404.518
1465375.441
1465362.515
1465363.702
1465380.31
1465408.642
1465449.159
1465498.491
1465555.52
1465617.921
1465683.596
1465750.756
1465816.852
1465880.561
1465939.146
1465991.548
1466035.239
1466069.394
1466091.702
1466101.53
1466096.964
1466077.679
1466042.188
1465990.508
1465921.543
1465835.758
1465732.473
1465612.524
1465475.48
1465322.617
1465153.612
1464970.02
1464771.956
1464562.408
1464339.738
1464089.662
1463816.684
1462565.922
1465894.468
1465015.896
1464829.61
1464794.603
1464727.638
1464654.666
1464589.361
1464534.077
1464490.249
1464460.298
1464448.442
1464454.219
1464477.678
1464520.85
1464581.096
1464658.64
1464751.897
1464858.192
1464977.094
1465104.337
1465239.765
1465379.024
1465521.488
1465663.07
1465802.825
1465937.179
1466064.929
1466182.994
1466290.277
1466384.07
1466463.411
1466526.007
1466571.229
1466597.251
1466603.82
1466589.585
1466554.664
1466498.315
1466420.955
1466322.338
1466203.092
1466063.509
1465904.309
1465726.103
1465529.8
1465317.997
1465089.466
1464828.454
1464540.187
1460671.656
1464277.259
1463337.824
1463169.979
1463169.943
1463141.706
1463114.929
1463102.019
1463103.895
1463121.663
1463159.484
1463218.664
1463298.353
1463400.452
1463524.156
1463667.062
1463829.937
1464009.017
1464203.381
1464409.992
1464626.151
1464849.7
1465076.937
1465306.217
1465533.324
1465757.081
1465973.163
1466180.568
1466375.335
1466556.653
1466720.933
1466867.553
1466993.432
1467098.304
1467179.645
1467237.592
1467270.161
1467277.934
1467259.569
1467215.991
1467146.337
1467051.865
1466932.165
1466788.747
1466621.367
1466431.749
1466221.873
1465991.275
1465722.38
1465422.03
1458553.657
1462441.583
1461440.772
1461294.89
1461334.402
1461350.739
1461375.859
1461421.038
1461486.315
1461574.07
1461686.975
1461824.695
1461987.409
1462176.286
1462388.76
1462624.287
1462881.165
1463155.874
1463447.548
1463751.574
1464066.569
1464388.113
1464713.891
1465040.078
1465363.86
1465681.913
1465991.193
1466288.802
1466571.845
1466837.836
1467084.107
1467308.587
1467509.039
1467683.911
1467831.472
1467950.724
1468040.439
1468100.266
1468129.487
1468128.295
1468096.328
1468034.339
1467942.231
1467821.209
1467671.053
1467493.582
1467290.661
1467062.182
1466789.151
1466480.222
1456218.915
1460393.791
1459331.172
1459211.889
1459295.892
1459361.771
1459443.961
1459553.147
1459689.163
1459854.577
1460049.678
1460273.736
1460528.227
1460811.853
1461121.997
1461458.747
1461818.226
1462198.457
1462596.385
1463008.145
1463431.389
1463861.194
1464295.485
1464729.135
1465160.074
1465583.295
1465996.704
1466395.683
1466778.259
1467140.292
1467479.987
1467793.753
1468080.201
1468336.364
1468561.35
1468752.846
1468910.487
1469032.742
1469119.696
1469170.473
1469185.524
1469164.611
1469108.439
1469017.251
1468891.602
1468732.518
1468542.49
1468320.923
1468048.362
1467734.827
1453677.615
1458143.956
1457019.77
1456931.544
1457064.104
1457183.999
1457328.681
1457508.19
1457722.629
1457972.305
1458256.617
1458575.685
1458929.649
1459315.833
1459733.061
1460179.271
1460650.38
1461144.958
1461658.142
1462187.267
1462727.947
1463276.493
1463828.946
1464381.048
1464929.256
1465469.047
1465997.193
1466509.296
1467002.482
1467472.612
1467917.168
1468332.473
1468716.528
1469066.241
1469380.221
1469655.995
1469892.873
1470089.078
1470244.56
1470358.063
1470430.158
1470460.039
1470448.779
1470395.897
1470302.49
1470168.794
1469997.952
1469788.579
1469521.548
1469208.015
1450943.348
1455704.94
1454519.259
1454465.762
1454650.733
1454829.329
1455041.852
1455298.664
1455598.011
1455938.736
1456319.754
1456741.795
1457202.784
1457699.874
1458232.316
1458796.025
1459388.218
1460005.58
1460643.448
1461298.958
1461966.629
1462643.54
1463324.079
1464004.937
1464680.837
1465348.181
1466002.061
1466638.937
1467254.272
1467844.697
1468406.118
1468935.573
1469429.552
1469885.646
1470301.012
1470673.87
1471002.197
1471284.849
1471520.541
1471708.67
1471848.671
1471940.384
1471983.847
1471979.034
1471926.33
1471826.161
1471681.416
1471490.403
1471234.293
1470926.042
1448030.95
1453090.727
1451843.317
1451828.6
1452069.871
1452311.555
1452598.029
1452938.362
1453328.655
1453766.871
1454252.605
1454784.68
1455359.982
1455976.67
1456632.038
1457321.595
1458043.205
1458791.729
1459563.583
1460354.161
1461158.84
1461973.309
1462792.339
1463611.877
1464426.41
1465232.017
1466023.241
1466796.372
1467546.15
1468269.082
1468960.304
1469616.729
1470234.061
1470809.766
1471340.204
1471823.538
1472256.932
1472639.257
1472968.35
1473243.813
1473464.08
1473629.398
1473738.699
1473792.44
1473790.013
1473732.323
1473621.306
1473455.722
1473216.374
1472919.724
1444956.766
1450317.272
1449008.115
1449036.07
1449337.123
1449646.859
1450012.884
1450442.022
1450929.094
1451471.697
1452069.054
1452718.031
1453415.314
1454159.068
1454944.787
1455768.994
1456627.884
1457516.254
1458430.652
1459365.253
1460316.223
1461277.731
1462245.464
1463213.797
1464178.081
1465132.867
1466073.489
1466994.685
1467891.871
1468760.026
1469594.876
1470391.802
1471147.027
1471856.476
1472516.993
1473125.267
1473678.864
1474175.224
1474612.588
1474989.188
1475303.888
1475555.616
1475743.621
1475867.399
1475926.388
1475920.939
1475852.654
1475720.01
1475504.236
1475226.028
1441739.018
1447402.059
1446030.974
1446105.177
1446469.931
1446852.282
1447302.283
1447825.332
1448414.876
1449068.615
1449783.675
1450556.033
1451382.934
1452260.69
1453184.313
1454150.812
1455154.685
1456191.665
1457256.749
1458344.762
1459450.907
1460569.445
1461695.707
1462823.652
1463948.564
1465064.384
1466166.407
1467248.661
1468306.421
1469333.968
1470326.734
1471279.419
1472187.793
1473047.106
1473853.685
1474603.54
1475293.639
1475920.728
1476482.506
1476976.468
1477401.055
1477754.313
1478035.264
1478242.514
1478375.429
1478433.454
1478418.205
1478326.829
1478142.599
1477890.125
1438396.399
1444363.111
1442930.093
1443054.458
1443486.273
1443944.644
1444482.796
1445104.308
1445802.15
1446572.519
1447411
1448313.362
1449276.284
1450294.511
1451363.81
1452479.615
1453636.309
1454829.777
1456053.872
1457304.159
1458574.529
1459860.12
1461154.91
1462453.708
1463750.475
1465039.934
1466316.002
1467573.362
1468805.876
1470008.347
1471174.745
1472300.086
1473378.706
1474405.945
1475376.769
1476287.033
1477132.374
1477909.266
1478614.144
1479244.178
1479796.51
1480268.875
1480659.132
1480965.598
1481186.632
1481321.509
1481370.703
1481330.819
1481186.858
1480969.174
1439724.456
1439902.447
1440403.638
1440941.132
1441571.095
1442295.621
1443106.626
1443998.375
1444965.503
1446003.941
1447108.544
1448273.611
1449495.065
1450766.835
1452084.088
1453441.271
1454832.924
1456253.722
1457697.812
1459159.939
1460634.014
1462114.622
1463595.599
1465071.35
1466535.661
1467982.655
1469406.153
1470800.074
1472158.408
1473474.947
1474743.925
1475959.432
1477116.04
1478208.319
1479231.273
1480180.155
1481050.595
1481838.551
1482540.209
1483152.286
1483671.673
1484095.823
1484422.261
1484649.593
1484777.191
1484800.586
1484707.602
1484535.226
)
;

boundaryField
{
    front_top
    {
        type            wedge;
    }
    front_middle
    {
        type            wedge;
    }
    front_bottom
    {
        type            wedge;
    }
    back_top
    {
        type            wedge;
    }
    back_middle
    {
        type            wedge;
    }
    back_bottom
    {
        type            wedge;
    }
    axis_top
    {
        type            symmetryPlane;
    }
    axis_middle
    {
        type            symmetryPlane;
    }
    axis_bottom
    {
        type            symmetryPlane;
    }
    wall_top
    {
        type            fixedFluxPressure;
        gradient        uniform 0;
        value           nonuniform List<scalar> 
23
(
1462393.086
1462226.898
1462093.886
1462000.909
1461955.256
1461966.438
1462044.087
1462197.983
1462439.702
1462781.365
1463235.575
1463816.684
1464540.187
1465422.03
1466480.222
1467734.827
1469208.015
1470926.042
1472919.724
1475226.028
1477890.125
1480969.174
1484535.226
)
;
    }
    wall_middle
    {
        type            fixedFluxPressure;
        gradient        nonuniform 0();
        value           nonuniform 0();
    }
    wall_bottom
    {
        type            fixedFluxPressure;
        gradient        nonuniform 0();
        value           nonuniform 0();
    }
    inlet
    {
        type            zeroGradient;
    }
    outlet
    {
        type            fixedValue;
        value           nonuniform 0();
    }
    procBoundary6to5
    {
        type            processor;
        value           nonuniform List<scalar> 
51
(
1434948.474
1441219.434
1441219.434
1436432.487
1436666.846
1437239.525
1437858.744
1438583.801
1439415.397
1440343.219
1441360.323
1442461.143
1443640.41
1444891.678
1446209.716
1447588.879
1449023.094
1450507.489
1452035.566
1453602.552
1455202.044
1456829.058
1458477.259
1460141.44
1461815.215
1463493.145
1465168.777
1466836.296
1468489.108
1470121.076
1471725.48
1473295.85
1474825.45
1476307.618
1477735.754
1479103.337
1480403.858
1481631.248
1482779.349
1483842.665
1484815.475
1485692.922
1486470.135
1487143.028
1487707.585
1488160.581
1488499.443
1488722.64
1488823.746
1488794.756
1488680.595
)
;
    }
    procBoundary6to7
    {
        type            processor;
        value           nonuniform List<scalar> 
51
(
1468695.067
1469082.792
1468913.891
1468778.358
1468634.971
1468461.51
1468264.631
1468053.159
1467830.305
1467595.199
1467353.653
1467113.224
1466870.389
1466630.082
1466397.305
1466167.142
1465947.857
1465735.629
1465533.307
1465545.203
1465545.203
1465346.432
1465156.235
1464977.983
1464808.675
1464650.314
1464500.208
1464359.974
1464227.14
1464103.274
1463985.551
1463875.945
1463771.301
1463673.795
1463580.226
1463493.105
1463409.186
1463330.692
1463254.844
1463183.738
1463114.929
1463050.346
1462987.749
1462928.964
1462872.139
1462818.882
1462767.562
1462719.785
1462673.706
1462628.926
1462584.838
)
;
    }
}


// ************************************************************************* //
