/*--------------------------------*- C++ -*----------------------------------*\
  =========                 |
  \\      /  F ield         | OpenFOAM: The Open Source CFD Toolbox
   \\    /   O peration     | Website:  https://openfoam.org
    \\  /    A nd           | Version:  7
     \\/     M anipulation  |
\*---------------------------------------------------------------------------*/
FoamFile
{
    version     2.0;
    format      ascii;
    class       surfaceScalarField;
    location    "0.0018";
    object      phi;
}
// * * * * * * * * * * * * * * * * * * * * * * * * * * * * * * * * * * * * * //

dimensions      [1 0 -1 0 0 0 0];

internalField   nonuniform List<scalar> 
2260
(
-6.275885306e-15
4.559057123e-11
-2.459215789e-14
1.334055218e-10
-5.425153239e-14
2.163290368e-10
-9.452360774e-14
2.945656251e-10
-1.446715666e-13
3.683126896e-10
-2.039399862e-13
4.377606214e-10
-2.715212026e-13
5.030929021e-10
-3.465696519e-13
5.644863355e-10
-4.282393762e-13
6.221112763e-10
-5.156634546e-13
6.761318011e-10
-6.078255904e-13
7.267058009e-10
-7.037454582e-13
7.739852835e-10
-8.024928036e-13
8.181166691e-10
-9.028891906e-13
8.592406075e-10
-1.003931926e-12
8.974925048e-10
-1.104541556e-12
9.330027094e-10
-1.203545248e-12
9.658962305e-10
-1.300013287e-12
9.962936663e-10
1.024310527e-09
-8.366059292e-15
4.559893729e-11
-3.278065486e-14
1.334299364e-10
-7.229231428e-14
2.163685485e-10
-1.25892375e-13
2.946192252e-10
-1.925527245e-13
3.6837935e-10
-2.71191927e-13
4.378392606e-10
-3.60698204e-13
5.031824084e-10
-4.599323028e-13
5.645855696e-10
-5.677384615e-13
6.222190824e-10
-6.828387377e-13
6.762469014e-10
-8.039116952e-13
7.268268738e-10
-9.297220198e-13
7.741110938e-10
-1.058853733e-12
8.182458008e-10
-1.189869068e-12
8.593716228e-10
-1.321488704e-12
8.976241245e-10
-1.452153053e-12
9.331333738e-10
-1.580562679e-12
9.660246401e-10
-1.705294597e-12
9.964183983e-10
-1.824985919e-12
1.024430218e-09
-1.938399438e-12
1.050171559e-09
-2.044189085e-12
1.073749048e-09
-2.141320751e-12
1.095265659e-09
-2.228540762e-12
1.114819723e-09
-2.305030254e-12
1.132506248e-09
-2.369704948e-12
1.148415853e-09
-2.421984767e-12
1.162636155e-09
-2.461009094e-12
1.175250603e-09
-2.486424818e-12
1.186339875e-09
-2.49763087e-12
1.195980723e-09
-2.494520556e-12
1.204247373e-09
-2.47676695e-12
1.211210348e-09
-2.444499598e-12
1.216937853e-09
-2.397691273e-12
1.221494619e-09
-2.336688674e-12
1.224943239e-09
-2.261738382e-12
1.227343019e-09
-2.17339408e-12
1.228751335e-09
-2.072169633e-12
1.229222477e-09
-1.958804236e-12
1.228808964e-09
-1.834034799e-12
1.227560409e-09
-1.698757944e-12
1.225524825e-09
-1.553892166e-12
1.222747476e-09
-1.400474615e-12
1.219272225e-09
-1.239551272e-12
1.215140275e-09
-1.072257393e-12
1.210391653e-09
-8.997158417e-13
1.205063831e-09
-7.23142931e-13
1.199193274e-09
-5.436785705e-13
1.192814022e-09
-3.625800672e-13
1.185959273e-09
-1.809310098e-13
1.17865989e-09
1.170945966e-09
-1.088671433e-14
4.5609824e-11
-4.265416339e-14
1.334617038e-10
-9.404077301e-14
2.164199351e-10
-1.636962376e-13
2.946888807e-10
-2.502254506e-13
3.684658792e-10
-3.521915963e-13
4.379412267e-10
-4.681168138e-13
5.032983336e-10
-5.96496034e-13
5.647139489e-10
-7.357203115e-13
6.223583067e-10
-8.841066337e-13
6.763952877e-10
-1.040009405e-12
7.269827766e-10
-1.201710913e-12
7.742727953e-10
-1.367346245e-12
8.184114362e-10
-1.535204637e-12
8.595394812e-10
-1.703449136e-12
8.97792369e-10
-1.870221456e-12
9.333001461e-10
-2.033868001e-12
9.661882867e-10
-2.192482417e-12
9.965770127e-10
-2.344528401e-12
1.024582264e-09
-2.48824453e-12
1.050315276e-09
-2.622187185e-12
1.07388299e-09
-2.744832564e-12
1.095388304e-09
-2.854881715e-12
1.114929772e-09
-2.951079142e-12
1.132602445e-09
-3.032352466e-12
1.148497126e-09
-3.097737162e-12
1.16270154e-09
-3.146435193e-12
1.175299301e-09
-3.177768738e-12
1.186371209e-09
-3.191261947e-12
1.195994216e-09
-3.186530575e-12
1.204242642e-09
-3.163433794e-12
1.211187251e-09
-3.121885615e-12
1.216896305e-09
-3.062091361e-12
1.221434825e-09
-2.984236201e-12
1.224865384e-09
-2.888852023e-12
1.227247635e-09
-2.77639176e-12
1.228638874e-09
-2.647696968e-12
1.229093782e-09
-2.503459109e-12
1.228664726e-09
-2.344784927e-12
1.227401734e-09
-2.172573345e-12
1.225352614e-09
-1.988156587e-12
1.222563059e-09
-1.792619074e-12
1.219076688e-09
-1.587445904e-12
1.214935102e-09
-1.373864942e-12
1.210178072e-09
-1.153466792e-12
1.204843433e-09
-9.275893128e-13
1.198967396e-09
-6.978544371e-13
1.192584287e-09
-4.656537737e-13
1.185727072e-09
-2.325605848e-13
1.178426797e-09
1.170713405e-09
-1.391896861e-14
4.562374297e-11
-5.453094615e-14
1.335023158e-10
-1.201945307e-13
2.164855987e-10
-2.091486513e-13
2.947778348e-10
-3.19573496e-13
3.68576304e-10
-4.496009958e-13
4.380712542e-10
-5.973146112e-13
5.034460472e-10
-7.607039917e-13
5.648773382e-10
-9.376638299e-13
6.225352665e-10
-1.12607955e-12
6.765837034e-10
-1.323825231e-12
7.271805223e-10
-1.528578062e-12
7.744775482e-10
-1.738083268e-12
8.186209414e-10
-1.950130439e-12
8.597515284e-10
-2.16230448e-12
8.98004543e-10
-2.37243649e-12
9.335102781e-10
-2.578242266e-12
9.663940924e-10
-2.777521739e-12
9.967762922e-10
-2.968244309e-12
1.024772987e-09
-3.148263609e-12
1.050495295e-09
-3.315842551e-12
1.074050569e-09
-3.46900453e-12
1.095541466e-09
-3.606298544e-12
1.115067066e-09
-3.726028337e-12
1.132722175e-09
-3.827068866e-12
1.148598167e-09
-3.908060175e-12
1.162782531e-09
-3.96822041e-12
1.175359461e-09
-4.006551403e-12
1.18640954e-09
-4.022654061e-12
1.196010319e-09
-4.015901097e-12
1.204235889e-09
-3.986276021e-12
1.211157626e-09
-3.933547077e-12
1.216843576e-09
-3.858071631e-12
1.221359349e-09
-3.759985634e-12
1.224767298e-09
-3.640005495e-12
1.227127655e-09
-3.498631721e-12
1.228497501e-09
-3.336917248e-12
1.228932067e-09
-3.155695457e-12
1.228483504e-09
-2.956303424e-12
1.227202342e-09
-2.739870086e-12
1.22513618e-09
-2.507989772e-12
1.222331179e-09
-2.262036332e-12
1.218830734e-09
-2.003801143e-12
1.214676867e-09
-1.734832105e-12
1.209909103e-09
-1.457086322e-12
1.204565687e-09
-1.17222603e-12
1.198682536e-09
-8.822868095e-13
1.192294347e-09
-5.889681834e-13
1.185433753e-09
-2.943069992e-13
1.178132136e-09
1.170419098e-09
-1.755859828e-14
4.564130157e-11
-6.878727112e-14
1.335535445e-10
-1.515914286e-13
2.165684028e-10
-2.63717152e-13
2.948899605e-10
-4.02843592e-13
3.687154305e-10
-5.665788733e-13
4.382349895e-10
-7.524377154e-13
5.03631906e-10
-9.578261824e-13
5.650827267e-10
-1.180092596e-12
6.22757533e-10
-1.416585763e-12
6.768201966e-10
-1.664479347e-12
7.274284159e-10
-1.920892787e-12
7.747339616e-10
-2.183055955e-12
8.188831045e-10
-2.448024684e-12
8.600164971e-10
-2.712905627e-12
8.98269424e-10
-2.974964306e-12
9.337723368e-10
-3.231273492e-12
9.666504016e-10
-3.479266384e-12
9.97024285e-10
-3.716228935e-12
1.025009949e-09
-3.939743761e-12
1.05071881e-09
-4.147444446e-12
1.07425827e-09
-4.337133246e-12
1.095731155e-09
-4.506841908e-12
1.115236775e-09
-4.654694847e-12
1.132870028e-09
-4.779159339e-12
1.148722631e-09
-4.878749764e-12
1.162882121e-09
-4.952370517e-12
1.175433082e-09
-4.998979357e-12
1.186456148e-09
-5.017934941e-12
1.196029275e-09
-5.008659148e-12
1.204226613e-09
-4.97096188e-12
1.211119929e-09
-4.904753041e-12
1.216777367e-09
-4.810270691e-12
1.221264867e-09
-4.687891866e-12
1.224644919e-09
-4.538272199e-12
1.226978035e-09
-4.362244958e-12
1.228321473e-09
-4.160855789e-12
1.228730678e-09
-3.935348882e-12
1.228257997e-09
-3.687123757e-12
1.226954117e-09
-3.417787371e-12
1.224866844e-09
-3.129061995e-12
1.222042453e-09
-2.822845722e-12
1.218524518e-09
-2.501121045e-12
1.214355142e-09
-2.166005055e-12
1.209573987e-09
-1.819691274e-12
1.204219373e-09
-1.464423415e-12
1.198327268e-09
-1.102527053e-12
1.191932451e-09
-7.362605898e-13
1.185067487e-09
-3.680209554e-13
1.177763896e-09
1.170051077e-09
-2.192086146e-14
4.566322243e-11
-8.587425752e-14
1.336174979e-10
-1.892253489e-13
2.166717539e-10
-3.29138803e-13
2.95029874e-10
-5.026783699e-13
3.6888897e-10
-7.068065305e-13
4.384391177e-10
-9.38364684e-13
5.038634642e-10
-1.194101396e-12
5.653384634e-10
-1.47072353e-12
6.230341551e-10
-1.764803151e-12
6.771142762e-10
-2.072782328e-12
7.27736395e-10
-2.391155551e-12
7.750523348e-10
-2.716367456e-12
8.192083164e-10
-3.044734592e-12
8.603448643e-10
-3.372788608e-12
8.98597478e-10
-3.696953999e-12
9.340965022e-10
-4.013770346e-12
9.66967218e-10
-4.319988408e-12
9.973305031e-10
-4.612265451e-12
1.025302226e-09
-4.887738183e-12
1.050994282e-09
-5.143354435e-12
1.074513886e-09
-5.376623671e-12
1.095964424e-09
-5.584953596e-12
1.115445104e-09
-5.766288086e-12
1.133051363e-09
-5.918557436e-12
1.148874901e-09
-6.040191024e-12
1.163003755e-09
-6.12965694e-12
1.175522548e-09
-6.185931468e-12
1.186512423e-09
-6.20802616e-12
1.196051369e-09
-6.19548199e-12
1.204214069e-09
-6.147864293e-12
1.211072311e-09
-6.065286595e-12
1.216694789e-09
-5.94783696e-12
1.221147417e-09
-5.796185316e-12
1.224493267e-09
-5.610935895e-12
1.226792786e-09
-5.39329455e-12
1.228103832e-09
-5.144345198e-12
1.228481729e-09
-4.86577568e-12
1.227979428e-09
-4.559121921e-12
1.226647463e-09
-4.226500645e-12
1.224534223e-09
-3.869852376e-12
1.221685805e-09
-3.491639695e-12
1.218146305e-09
-3.09412952e-12
1.213957632e-09
-2.680065895e-12
1.209159923e-09
-2.251959742e-12
1.203791267e-09
-1.812723534e-12
1.197888032e-09
-1.365024846e-12
1.191484752e-09
-9.118096141e-13
1.184614272e-09
-4.558447187e-13
1.177307931e-09
1.169595233e-09
-2.714126832e-14
4.56903637e-11
-1.063248168e-13
1.336966814e-10
-2.342691802e-13
2.167996983e-10
-4.074372834e-13
2.952030421e-10
-6.221495131e-13
3.691036823e-10
-8.746025509e-13
4.386915707e-10
-1.160861407e-12
5.041497231e-10
-1.476899374e-12
5.656545014e-10
-1.818571575e-12
6.233758273e-10
-2.181545672e-12
6.774772503e-10
-2.561469775e-12
7.281163191e-10
-2.954014349e-12
7.754448794e-10
-3.35464446e-12
8.196089466e-10
-3.758927951e-12
8.607491477e-10
-4.162532922e-12
8.99001083e-10
-4.560994932e-12
9.344949642e-10
-4.950202735e-12
9.673564258e-10
-5.32597649e-12
9.977062769e-10
-5.684427811e-12
1.025660678e-09
-6.021860606e-12
1.051331715e-09
-6.33471854e-12
1.074826744e-09
-6.61987615e-12
1.096249582e-09
-6.874248097e-12
1.115699476e-09
-7.095343074e-12
1.133272458e-09
-7.280643521e-12
1.149060201e-09
-7.428310017e-12
1.163151421e-09
-7.536458285e-12
1.175630696e-09
-7.603926352e-12
1.186579891e-09
-7.629490506e-12
1.196076933e-09
-7.612664196e-12
1.204197243e-09
-7.552912037e-12
1.211012559e-09
-7.450403759e-12
1.216592281e-09
-7.305269477e-12
1.221002283e-09
-7.118310179e-12
1.224306308e-09
-6.890315374e-12
1.226564791e-09
-6.622689175e-12
1.227836206e-09
-6.316832061e-12
1.228175872e-09
-5.974707434e-12
1.227637303e-09
-5.598270615e-12
1.226271027e-09
-5.190000529e-12
1.224125953e-09
-4.752335322e-12
1.22124814e-09
-4.288184215e-12
1.217682154e-09
-3.800368831e-12
1.213469817e-09
-3.292159436e-12
1.208651714e-09
-2.766650949e-12
1.203265758e-09
-2.227358903e-12
1.19734874e-09
-1.677527594e-12
1.190934921e-09
-1.120768284e-12
1.184057512e-09
-5.603966607e-13
1.17674756e-09
1.169034836e-09
-3.337731775e-14
4.572374101e-11
-1.307537747e-13
1.337940579e-10
-2.880740095e-13
2.169570185e-10
-5.009558565e-13
2.954159239e-10
-7.648469583e-13
3.693675734e-10
-1.075040133e-12
4.390017639e-10
-1.426686164e-12
5.045013691e-10
-1.814789664e-12
5.660426049e-10
-2.234153697e-12
6.237951913e-10
-2.679478589e-12
6.779225752e-10
-3.145447669e-12
7.285822882e-10
-3.626598088e-12
7.759260298e-10
-4.117390614e-12
8.200997391e-10
-4.612455907e-12
8.61244213e-10
-5.106309652e-12
8.994949367e-10
-5.593614036e-12
9.349822686e-10
-6.069273825e-12
9.678320856e-10
-6.528147268e-12
9.981651503e-10
-6.965611417e-12
1.026098142e-09
-7.376982802e-12
1.051743087e-09
-7.758146408e-12
1.075207908e-09
-8.105104429e-12
1.09659654e-09
-8.414350092e-12
1.116008722e-09
-8.682655594e-12
1.133540763e-09
-8.907220781e-12
1.149284766e-09
-9.085618579e-12
1.163329819e-09
-9.215830947e-12
1.175760909e-09
-9.296251448e-12
1.186660312e-09
-9.325669798e-12
1.196106352e-09
-9.303300126e-12
1.204174873e-09
-9.228756892e-12
1.210938016e-09
-9.102041734e-12
1.216465566e-09
-8.923569875e-12
1.220823811e-09
-8.694110201e-12
1.224076848e-09
-8.414858269e-12
1.226285539e-09
-8.087309315e-12
1.227508657e-09
-7.713385541e-12
1.227801948e-09
-7.295257078e-12
1.227219175e-09
-6.835510118e-12
1.22581128e-09
-6.336936198e-12
1.223627379e-09
-5.802688158e-12
1.220713892e-09
-5.236085119e-12
1.217115551e-09
-4.640739916e-12
1.212874471e-09
-4.020405566e-12
1.208031379e-09
-3.379016669e-12
1.202624369e-09
-2.720628499e-12
1.196690352e-09
-2.049330207e-12
1.190263623e-09
-1.369357696e-12
1.18337754e-09
-6.848221854e-13
1.176063024e-09
1.168350014e-09
-4.081013228e-14
4.576455115e-11
-1.598703141e-13
1.339131181e-10
-3.522043178e-13
2.171493525e-10
-6.124318728e-13
2.956761515e-10
-9.34962032e-13
3.696901035e-10
-1.314028675e-12
4.393808305e-10
-1.743669533e-12
5.049310099e-10
-2.217696665e-12
5.66516632e-10
-2.729751186e-12
6.243072459e-10
-3.273377459e-12
6.784662015e-10
-3.842016403e-12
7.291509272e-10
-4.428908977e-12
7.765129224e-10
-5.027381989e-12
8.206982121e-10
-5.630789454e-12
8.618476205e-10
-6.23239951e-12
9.000965468e-10
-6.825816975e-12
9.35575686e-10
-7.404645647e-12
9.684109142e-10
-7.962790461e-12
9.987232951e-10
-8.494489844e-12
1.026629841e-09
-8.994127146e-12
1.052242724e-09
-9.456727057e-12
1.075670508e-09
-9.877381839e-12
1.097017194e-09
-1.025197422e-11
1.116383314e-09
-1.057647234e-11
1.133865261e-09
-1.084767983e-11
1.149555974e-09
-1.106251699e-11
1.163544656e-09
-1.121877086e-11
1.175917162e-09
-1.131434621e-11
1.186755887e-09
-1.134802114e-11
1.196140027e-09
-1.131869859e-11
1.204145551e-09
-1.122613921e-11
1.210845456e-09
-1.107020563e-11
1.216309632e-09
-1.085160813e-11
1.220605214e-09
-1.0571152e-11
1.223796392e-09
-1.02304577e-11
1.225944845e-09
-9.831216713e-12
1.227109416e-09
-9.375900198e-12
1.227346631e-09
-8.867019263e-12
1.226710294e-09
-8.30782908e-12
1.225252089e-09
-7.701584845e-12
1.223021135e-09
-7.0522107e-12
1.220064517e-09
-6.363590025e-12
1.21642693e-09
-5.640207247e-12
1.212151089e-09
-4.88644192e-12
1.207277614e-09
-4.107181656e-12
1.201845109e-09
-3.307138854e-12
1.195890309e-09
-2.491403822e-12
1.189447888e-09
-1.664912777e-12
1.182551049e-09
-8.327825571e-13
1.175230894e-09
1.167517231e-09
-4.964960679e-14
4.581420075e-11
-1.944986318e-13
1.340579671e-10
-4.284796886e-13
2.173833336e-10
-7.450292515e-13
2.95992701e-10
-1.137341678e-12
3.70082416e-10
-1.598374258e-12
4.398418631e-10
-2.120818809e-12
5.054534545e-10
-2.697130335e-12
5.670929435e-10
-3.319578478e-12
6.24929694e-10
-3.980311527e-12
6.791269345e-10
-4.671227607e-12
7.298418432e-10
-5.384154568e-12
7.772258493e-10
-6.111010999e-12
8.214250685e-10
-6.843560044e-12
8.625801695e-10
-7.573727719e-12
9.008267144e-10
-8.293686585e-12
9.362956449e-10
-8.995610734e-12
9.691128384e-10
-9.672223812e-12
9.993999082e-10
-1.031634851e-11
1.027273966e-09
-1.09213821e-11
1.052847757e-09
-1.148109269e-11
1.076230218e-09
-1.198973978e-11
1.097525842e-09
-1.244219262e-11
1.116835767e-09
-1.283373869e-11
1.134256807e-09
-1.316042354e-11
1.149882659e-09
-1.341867177e-11
1.163802905e-09
-1.360575446e-11
1.176104245e-09
-1.371927763e-11
1.18686941e-09
-1.375773253e-11
1.196178482e-09
-1.371993032e-11
1.204107748e-09
-1.360554468e-11
1.210731071e-09
-1.341455349e-11
1.216118641e-09
-1.31477685e-11
1.220338429e-09
-1.280630265e-11
1.223454926e-09
-1.239204974e-11
1.225530592e-09
-1.190718601e-11
1.226624552e-09
-1.135461542e-11
1.226794061e-09
-1.073749268e-11
1.226093171e-09
-1.005965481e-11
1.224574252e-09
-9.325127174e-12
1.222286607e-09
-8.538552916e-12
1.219277943e-09
-7.704683935e-12
1.215593062e-09
-6.828845636e-12
1.21127525e-09
-5.916345293e-12
1.206365114e-09
-4.973018203e-12
1.200901782e-09
-4.004536414e-12
1.194921827e-09
-3.017013084e-12
1.188460364e-09
-2.016331735e-12
1.181550367e-09
-1.008700282e-12
1.174223263e-09
1.166508531e-09
-6.013589578e-14
4.587433665e-11
-2.355807637e-13
1.34233412e-10
-5.189793061e-13
2.176667321e-10
-9.023797482e-13
2.963761015e-10
-1.377520771e-12
3.70557557e-10
-1.935842658e-12
4.40400185e-10
-2.568481531e-12
5.060860934e-10
-3.266300529e-12
5.677907625e-10
-4.019963553e-12
6.25683357e-10
-4.81986164e-12
6.799268326e-10
-5.656181833e-12
7.306781634e-10
-6.51909628e-12
7.780887638e-10
-7.398702575e-12
8.223046748e-10
-8.285022812e-12
8.634664898e-10
-9.168368448e-12
9.017100601e-10
-1.003908369e-11
9.371663601e-10
-1.088782167e-11
9.699615764e-10
-1.17056881e-11
1.000217775e-09
-1.248398762e-11
1.028052265e-09
-1.321481743e-11
1.053578587e-09
-1.389049084e-11
1.076905892e-09
-1.450425206e-11
1.098139603e-09
-1.504971666e-11
1.117381232e-09
-1.552141042e-11
1.134728501e-09
-1.591437764e-11
1.150275626e-09
-1.622454913e-11
1.164113076e-09
-1.644844921e-11
1.176328145e-09
-1.658345934e-11
1.18700442e-09
-1.66275911e-11
1.196222613e-09
-1.657968253e-11
1.20405984e-09
-1.643917784e-11
1.210590566e-09
-1.620632545e-11
1.215885789e-09
-1.588194946e-11
1.220014053e-09
-1.54676538e-11
1.223040631e-09
-1.496556264e-11
1.225028501e-09
-1.437854624e-11
1.226037536e-09
-1.370993611e-11
1.226125451e-09
-1.296376606e-11
1.225347001e-09
-1.214447559e-11
1.223754961e-09
-1.125711682e-11
1.221399248e-09
-1.030708935e-11
1.218327916e-09
-9.300299763e-12
1.214586272e-09
-8.242947975e-12
1.210217899e-09
-7.14158833e-12
1.205263754e-09
-6.00301385e-12
1.199763208e-09
-4.834181584e-12
1.193752995e-09
-3.64226952e-12
1.187268452e-09
-2.434412696e-12
1.180342511e-09
-1.217963088e-12
1.173006813e-09
1.165290568e-09
-7.254288582e-14
4.594687954e-11
-2.84192096e-13
1.344450612e-10
-6.260711902e-13
2.180086112e-10
-1.08858907e-12
2.968386194e-10
-1.661765171e-12
3.711307331e-10
-2.335279315e-12
4.410736991e-10
-3.098447385e-12
5.068492614e-10
-3.940279274e-12
5.686325944e-10
-4.849475553e-12
6.265925533e-10
-5.814407437e-12
6.808917645e-10
-6.823292493e-12
7.316870485e-10
-7.864296961e-12
7.791297683e-10
-8.925352587e-12
8.233657304e-10
-9.994522778e-12
8.6453566e-10
-1.106006567e-11
9.02775603e-10
-1.211026239e-11
9.382165569e-10
-1.313395032e-11
9.709852643e-10
-1.412020005e-11
1.001204024e-09
-1.505867721e-11
1.028990742e-09
-1.593967119e-11
1.054459581e-09
-1.675400767e-11
1.077720228e-09
-1.749347553e-11
1.098879071e-09
-1.81503607e-11
1.118038117e-09
-1.871810876e-11
1.135296249e-09
-1.919067619e-11
1.150748193e-09
-1.956326774e-11
1.164485668e-09
-1.983160771e-11
1.176596485e-09
-1.99926946e-11
1.187165507e-09
-2.00440512e-11
1.19627397e-09
-1.998444737e-11
1.204000236e-09
-1.981314558e-11
1.210419264e-09
-1.953062257e-11
1.215603266e-09
-1.913781806e-11
1.219621248e-09
-1.863683053e-11
1.222539643e-09
-1.803017015e-11
1.22442184e-09
-1.73214441e-11
1.22532881e-09
-1.651461055e-11
1.225318617e-09
-1.56146601e-11
1.224447051e-09
-1.462686217e-11
1.222767163e-09
-1.355741046e-11
1.220329796e-09
-1.241269972e-11
1.217183205e-09
-1.119994241e-11
1.213373515e-09
-9.926446112e-12
1.208944402e-09
-8.600203471e-12
1.203937511e-09
-7.22917447e-12
1.198392179e-09
-5.821837446e-12
1.192345658e-09
-4.386603523e-12
1.185833218e-09
-2.932149278e-12
1.178888056e-09
-1.467081399e-12
1.171541745e-09
1.163823486e-09
-8.717715221e-14
4.603405669e-11
-3.415326025e-13
1.346994166e-10
-7.524007809e-13
2.184194794e-10
-1.308259719e-12
2.973944783e-10
-1.997138898e-12
3.718196123e-10
-2.806656644e-12
4.418832169e-10
-3.724014132e-12
5.077666189e-10
-4.736021685e-12
5.69644602e-10
-5.829065117e-12
6.276855967e-10
-6.989238121e-12
6.820519375e-10
-8.202454817e-12
7.329002652e-10
-9.454391105e-12
7.803817045e-10
-1.073059531e-11
8.246419347e-10
-1.201679661e-11
8.658218613e-10
-1.329872233e-11
9.040575287e-10
-1.456238141e-11
9.39480216e-10
-1.579429613e-11
9.72217179e-10
-1.698123735e-11
1.002390966e-09
-1.811086168e-11
1.030120367e-09
-1.917127186e-11
1.055519991e-09
-2.015158492e-11
1.078700541e-09
-2.104167206e-11
1.099769158e-09
-2.18324091e-11
1.118828854e-09
-2.251567766e-11
1.135979518e-09
-2.308435742e-11
1.151316873e-09
-2.353248894e-11
1.164933799e-09
-2.385507541e-11
1.176919072e-09
-2.40483632e-11
1.187358795e-09
-2.410952322e-11
1.19633513e-09
-2.403696506e-11
1.203927678e-09
-2.382997157e-11
1.210212271e-09
-2.34890332e-11
1.215262327e-09
-2.301546216e-11
1.219147677e-09
-2.241171132e-11
1.221935892e-09
-2.168098598e-11
1.223691115e-09
-2.082755559e-11
1.224475379e-09
-1.98563587e-11
1.22434742e-09
-1.877332311e-11
1.223364015e-09
-1.758492894e-11
1.221578769e-09
-1.629854611e-11
1.219043414e-09
-1.492196068e-11
1.21580662e-09
-1.346376092e-11
1.211915315e-09
-1.193276462e-11
1.207413406e-09
-1.033849993e-11
1.202343247e-09
-8.690512439e-12
1.196744191e-09
-6.998929341e-12
1.190654075e-09
-5.27375539e-12
1.184108045e-09
-3.525400439e-12
1.177139701e-09
-1.764023491e-12
1.169780368e-09
1.162059463e-09
-1.043781309e-13
4.613843482e-11
-4.089329662e-13
1.350039715e-10
-9.009071776e-13
2.189114536e-10
-1.566531559e-12
2.980601027e-10
-2.391514275e-12
3.72644595e-10
-3.361087577e-12
4.428527902e-10
-4.459982568e-12
5.088655139e-10
-5.672414395e-12
5.708570338e-10
-6.982161996e-12
6.289953443e-10
-8.372667934e-12
6.834424434e-10
-9.827098797e-12
7.34354696e-10
-1.132827543e-11
7.818828812e-10
-1.285902017e-11
8.261726794e-10
-1.440221462e-11
8.673650557e-10
-1.594071825e-11
9.055960323e-10
-1.745788604e-11
9.409973837e-10
-1.893736629e-11
9.736966593e-10
-2.036339647e-11
1.003816996e-09
-2.172103626e-11
1.031478007e-09
-2.299595772e-11
1.056794913e-09
-2.417508465e-11
1.079879668e-09
-2.524605168e-11
1.100840125e-09
-2.619796104e-11
1.119780763e-09
-2.702079592e-11
1.136802353e-09
-2.770610623e-11
1.152002183e-09
-2.824645181e-11
1.165474145e-09
-2.863596629e-11
1.177308586e-09
-2.886987997e-11
1.187592709e-09
-2.894495774e-11
1.196410208e-09
-2.885905927e-11
1.203841779e-09
-2.861152544e-11
1.209964737e-09
-2.820275611e-11
1.214853558e-09
-2.763455774e-11
1.218579479e-09
-2.690971695e-11
1.221211052e-09
-2.603233467e-11
1.222813733e-09
-2.500739631e-11
1.223450441e-09
-2.384109419e-11
1.223181118e-09
-2.254040452e-11
1.222063325e-09
-2.111335154e-11
1.220151716e-09
-1.956863343e-11
1.217498696e-09
-1.791581894e-11
1.214153805e-09
-1.616503719e-11
1.210164533e-09
-1.432706209e-11
1.205575431e-09
-1.241310808e-11
1.200429293e-09
-1.043477108e-11
1.194765854e-09
-8.404004918e-12
1.188623309e-09
-6.332861816e-12
1.182036901e-09
-4.233674629e-12
1.175040514e-09
-2.118602671e-12
1.167665296e-09
1.15994086e-09
-1.245189618e-13
4.626295378e-11
-4.878592214e-13
1.353673117e-10
-1.074826466e-12
2.194984209e-10
-1.869043215e-12
2.988543194e-10
-2.85353601e-12
3.736290878e-10
-4.010771167e-12
4.440100253e-10
-5.322593886e-12
5.101773366e-10
-6.770276897e-12
5.723047168e-10
-8.334593726e-12
6.305596612e-10
-9.995930056e-12
6.851037798e-10
-1.173419665e-11
7.360929626e-10
-1.35290439e-11
7.836777284e-10
-1.536010207e-11
8.280037376e-10
-1.720686015e-11
8.692118138e-10
-1.904898281e-11
9.07438155e-10
-2.086659693e-11
9.428149979e-10
-2.264005854e-11
9.754701209e-10
-2.435062495e-11
1.005527562e-09
-2.598017752e-11
1.033107559e-09
-2.751165716e-11
1.058326393e-09
-2.892911363e-11
1.081297125e-09
-3.021772965e-11
1.102128741e-09
-3.136419154e-11
1.120927225e-09
-3.235638473e-11
1.137794546e-09
-3.318398001e-11
1.152829778e-09
-3.383786734e-11
1.166128032e-09
-3.431088449e-11
1.177781603e-09
-3.459710475e-11
1.187878929e-09
-3.4692572e-11
1.196505675e-09
-3.459454429e-11
1.203743752e-09
-3.430221678e-11
1.209672409e-09
-3.381594679e-11
1.214367288e-09
-3.313794326e-11
1.217901475e-09
-3.227147941e-11
1.220344588e-09
-3.12215665e-11
1.22176382e-09
-2.999415556e-11
1.22222303e-09
-2.859680487e-11
1.221783768e-09
-2.703786484e-11
1.220504385e-09
-2.532710677e-11
1.218440958e-09
-2.347493286e-11
1.215646522e-09
-2.149297487e-11
1.212171847e-09
-1.939330118e-11
1.208064859e-09
-1.718898956e-11
1.203371119e-09
-1.489333147e-11
1.198133635e-09
-1.252038286e-11
1.192392905e-09
-1.008428179e-11
1.186187208e-09
-7.59959791e-12
1.179552218e-09
-5.08088908e-12
1.172521805e-09
-2.542830243e-12
1.165127237e-09
1.15739803e-09
-1.480021373e-13
4.641095592e-11
-5.798916729e-13
1.357992013e-10
-1.277648155e-12
2.201961773e-10
-2.221888501e-12
2.997985598e-10
-3.392540896e-12
3.747997402e-10
-4.768872982e-12
4.453863574e-10
-6.329444229e-12
5.117379079e-10
-8.052170451e-12
5.74027443e-10
-9.914403792e-12
6.324218945e-10
-1.189293078e-11
6.870823068e-10
-1.396403074e-11
7.381640626e-10
-1.610373948e-11
7.858174372e-10
-1.828791265e-11
8.301879107e-10
-2.049223488e-11
8.71416136e-10
-2.269271085e-11
9.096386309e-10
-2.486556466e-11
9.449878517e-10
-2.698751376e-11
9.7759207e-10
-2.903616401e-11
1.007576212e-09
-3.09897645e-11
1.03506116e-09
-3.282795344e-11
1.060164581e-09
-3.45313374e-11
1.083000509e-09
-3.608218688e-11
1.10367959e-09
-3.746413641e-11
1.122309175e-09
-3.86626276e-11
1.138993037e-09
-3.966477882e-11
1.15383193e-09
-4.045959765e-11
1.166922851e-09
-4.103797775e-11
1.178359983e-09
-4.139272914e-11
1.18823368e-09
-4.15186247e-11
1.19663157e-09
-4.14123264e-11
1.203637453e-09
-4.10724605e-11
1.209332544e-09
-4.049946899e-11
1.213794296e-09
-3.969567972e-11
1.217097686e-09
-3.866511157e-11
1.21931402e-09
-3.7413544e-11
1.220512252e-09
-3.594828172e-11
1.220757768e-09
-3.42782395e-11
1.220113725e-09
-3.241363373e-11
1.218639779e-09
-3.036609787e-11
1.216393422e-09
-2.814831188e-11
1.213428736e-09
-2.577417691e-11
1.209797712e-09
-2.325832975e-11
1.205549012e-09
-2.061642192e-11
1.200729211e-09
-1.786448583e-11
1.195381699e-09
-1.50193879e-11
1.189547808e-09
-1.209806523e-11
1.183265885e-09
-9.118030294e-12
1.176572183e-09
-6.096621376e-12
1.169500397e-09
-3.051520019e-12
1.162082136e-09
1.15434651e-09
-1.752549475e-13
4.658621086e-11
-6.867082319e-13
1.363106545e-10
-1.513082989e-12
2.210225521e-10
-2.631531444e-12
3.009170082e-10
-4.018427866e-12
3.761866366e-10
-5.64939771e-12
4.470173273e-10
-7.49927293e-12
5.135877831e-10
-9.54215346e-12
5.760703236e-10
-1.17514639e-11
6.34631205e-10
-1.409991114e-11
6.89430754e-10
-1.655971594e-11
7.406238674e-10
-1.910278196e-11
7.883605032e-10
-2.170061274e-11
8.327857415e-10
-2.432467202e-11
8.740401953e-10
-2.694667572e-11
9.122606346e-10
-2.953841922e-11
9.475795952e-10
-3.207247075e-11
9.801261215e-10
-3.452203569e-11
1.010025777e-09
-3.686131977e-11
1.037400444e-09
-3.906584136e-11
1.062369103e-09
-4.111231725e-11
1.085046984e-09
-4.297934964e-11
1.105546623e-09
-4.464697865e-11
1.123976804e-09
-4.609752476e-11
1.140443583e-09
-4.731498835e-11
1.155049393e-09
-4.828590664e-11
1.167893769e-09
-4.899869033e-11
1.179072767e-09
-4.944440785e-11
1.188679398e-09
-4.961610371e-11
1.196803266e-09
-4.950950191e-11
1.203530851e-09
-4.912232876e-11
1.20894537e-09
-4.84549298e-11
1.213126897e-09
-4.750957804e-11
1.216152334e-09
-4.629103627e-11
1.218095478e-09
-4.480584854e-11
1.219027064e-09
-4.306285867e-11
1.219014778e-09
-4.107249533e-11
1.218123362e-09
-3.884720196e-11
1.216414486e-09
-3.640076987e-11
1.21394699e-09
-3.374867773e-11
1.210776643e-09
-3.090748678e-11
1.206956521e-09
-2.789505751e-11
1.202536583e-09
-2.473005263e-11
1.197564207e-09
-2.143201036e-11
1.192083656e-09
-1.802104854e-11
1.186136846e-09
-1.451772507e-11
1.179762561e-09
-1.094296234e-11
1.17299742e-09
-7.317704838e-12
1.165875139e-09
-3.663134566e-12
1.158427566e-09
1.150683375e-09
-2.067217642e-13
4.679293263e-11
-8.100520791e-13
1.369139849e-10
-1.78497322e-12
2.219974732e-10
-3.104674335e-12
3.022367093e-10
-4.741492413e-12
3.778234547e-10
-6.666928462e-12
4.489427633e-10
-8.851591801e-12
5.157724464e-10
-1.126527647e-11
5.784840082e-10
-1.387692159e-11
6.372428501e-10
-1.665474249e-11
6.922085749e-10
-1.95664012e-11
7.435355261e-10
-2.257904095e-11
7.91373143e-10
-2.565938031e-11
8.358660809e-10
-2.877414901e-11
8.77154964e-10
-3.189005067e-11
9.153765363e-10
-3.497404125e-11
9.506635858e-10
-3.799382245e-11
9.831459027e-10
-4.091760432e-11
1.012949559e-09
-4.371491952e-11
1.040197759e-09
-4.635638102e-11
1.065010565e-09
-4.881427309e-11
1.087504877e-09
-5.106257702e-11
1.107794927e-09
-5.307724808e-11
1.125991475e-09
-5.483647289e-11
1.142202808e-09
-5.632066255e-11
1.156533583e-09
-5.751287794e-11
1.169085985e-09
-5.839860701e-11
1.179958496e-09
-5.896624716e-11
1.189247038e-09
-5.92067428e-11
1.197043762e-09
-5.911408947e-11
1.203438198e-09
-5.868486821e-11
1.208516149e-09
-5.791872167e-11
1.212360751e-09
-5.68178071e-11
1.21505142e-09
-5.538724706e-11
1.216664918e-09
-5.363450574e-11
1.217274323e-09
-5.156983053e-11
1.216950103e-09
-4.920552977e-11
1.215759061e-09
-4.655640201e-11
1.213765358e-09
-4.363894238e-11
1.21102953e-09
-4.047180225e-11
1.207609503e-09
-3.707488131e-11
1.2035596e-09
-3.346984947e-11
1.198931551e-09
-2.967914619e-11
1.193773503e-09
-2.572655443e-11
1.188131065e-09
-2.16362396e-11
1.182046531e-09
-1.743324092e-11
1.175559563e-09
-1.314267053e-11
1.16870685e-09
-8.790040018e-12
1.161522508e-09
-4.400737493e-12
1.154038263e-09
1.146282638e-09
-2.428510171e-13
4.703578365e-11
-9.516854126e-13
1.376228192e-10
-2.097210208e-12
2.23142998e-10
-3.648122452e-12
3.037876216e-10
-5.572189726e-12
3.79747522e-10
-7.836258861e-12
4.512068324e-10
-1.040621154e-11
5.183423991e-10
-1.324695379e-11
5.813247505e-10
-1.632248528e-11
6.403183816e-10
-1.959601807e-11
6.954821077e-10
-2.303011506e-11
7.469696231e-10
-2.658660596e-11
7.949296339e-10
-3.022697141e-11
8.395064463e-10
-3.391257839e-11
8.80840571e-10
-3.760457547e-11
9.190685334e-10
-4.126456834e-11
9.543235787e-10
-4.485457879e-11
9.867359132e-10
-4.833737354e-11
1.016432354e-09
-5.167695376e-11
1.043537339e-09
-5.483840421e-11
1.068172015e-09
-5.778874018e-11
1.090455212e-09
-6.049652012e-11
1.110502707e-09
-6.29327843e-11
1.128427739e-09
-6.507064607e-11
1.14434067e-09
-6.688610042e-11
1.158349037e-09
-6.835771179e-11
1.170557596e-09
-6.946724511e-11
1.18106803e-09
-7.019939147e-11
1.189979184e-09
-7.054228428e-11
1.197386655e-09
-7.048722463e-11
1.203383138e-09
-7.002908889e-11
1.208058013e-09
-6.91660101e-11
1.211497672e-09
-6.789969853e-11
1.213785108e-09
-6.623506617e-11
1.215000285e-09