/*--------------------------------*- C++ -*----------------------------------*\
  =========                 |
  \\      /  F ield         | OpenFOAM: The Open Source CFD Toolbox
   \\    /   O peration     | Website:  https://openfoam.org
    \\  /    A nd           | Version:  7
     \\/     M anipulation  |
\*---------------------------------------------------------------------------*/
FoamFile
{
    version     2.0;
    format      ascii;
    class       surfaceScalarField;
    location    "0.0015";
    object      phi;
}
// * * * * * * * * * * * * * * * * * * * * * * * * * * * * * * * * * * * * * //

dimensions      [1 0 -1 0 0 0 0];

internalField   nonuniform List<scalar> 
2259
(
-5.076878442e-13
4.898425774e-11
1.433117112e-10
-5.795965016e-13
4.956385424e-11
-2.272216766e-12
1.450043315e-10
-5.009286101e-12
2.350770478e-10
-8.718937031e-12
3.199566435e-10
-1.332831341e-11
3.998277539e-10
-1.876350849e-11
4.748680895e-10
-2.494956043e-11
5.452476706e-10
-3.181053947e-11
6.111307182e-10
-3.926968764e-11
6.7267579e-10
-4.72495253e-11
7.300361317e-10
-5.567181883e-11
7.833602582e-10
-6.445763154e-11
8.327923627e-10
-7.352764644e-11
8.78473243e-10
-8.280200034e-11
9.205406293e-10
-9.220053971e-11
9.591295329e-10
-1.016430455e-10
9.943730845e-10
-1.110490167e-10
1.026402245e-09
-1.203383115e-10
1.055346727e-09
-1.294306773e-10
1.081334535e-09
-1.382464959e-10
1.104492709e-09
-1.467063241e-10
1.124946905e-09
-1.547316129e-10
1.142821975e-09
-1.622443293e-10
1.158241523e-09
-1.691676771e-10
1.171328497e-09
-1.754258338e-10
1.182204709e-09
-1.809447247e-10
1.190991439e-09
-1.856519875e-10
1.197809073e-09
-1.894778123e-10
1.202777606e-09
-1.923552094e-10
1.206016461e-09
-1.942210115e-10
1.207644869e-09
-1.950165539e-10
1.207781875e-09
-1.946888413e-10
1.206546494e-09
-1.931916597e-10
1.204057681e-09
-1.904869264e-10
1.200434308e-09
-1.86546074e-10
1.195794889e-09
-1.813516274e-10
1.190257333e-09
-1.748983987e-10
1.183938055e-09
-1.671950404e-10
1.176951555e-09
-1.582646889e-10
1.169408944e-09
-1.48146072e-10
1.161417444e-09
-1.368932161e-10
1.15307858e-09
-1.245755339e-10
1.144487639e-09
-1.112765851e-10
1.135732239e-09
-9.709306014e-11
1.126892031e-09
-8.213275138e-11
1.118037881e-09
-6.65129878e-11
1.10923219e-09
-5.035829227e-11
1.100528754e-09
-3.379890698e-11
1.091973812e-09
-1.696799965e-11
1.083604806e-09
1.075450231e-09
-6.581153652e-13
5.022196961e-11
-2.580172982e-12
1.469263891e-10
-5.688428782e-12
2.381853036e-10
-9.90165737e-12
3.241698721e-10
-1.513772054e-11
4.05063817e-10
-2.131351387e-11
4.810438828e-10
-2.834497076e-11
5.522791275e-10
-3.614729616e-11
6.189330436e-10
-4.463510822e-11
6.81163602e-10
-5.372252451e-11
7.39123548e-10
-6.332307296e-11
7.929608067e-10
-7.335000025e-11
8.4281929e-10
-8.371630163e-11
8.888395443e-10
-9.433459073e-11
9.311589184e-10
-1.05117572e-10
9.699125141e-10
-1.159776998e-10
1.005233212e-09
-1.268275605e-10
1.037252106e-09
-1.37579713e-10
1.06609888e-09
-1.48146839e-10
1.091901661e-09
-1.584417252e-10
1.114787595e-09
-1.683772685e-10
1.134882449e-09
-1.778665062e-10
1.152311213e-09
-1.868226259e-10
1.167197643e-09
-1.951589146e-10
1.179664786e-09
-2.027889689e-10
1.189834763e-09
-2.096266256e-10
1.197829096e-09
-2.155863347e-10
1.203768782e-09
-2.205832703e-10
1.207774542e-09
-2.245338897e-10
1.20996708e-09
-2.273565014e-10
1.210467481e-09
-2.289721058e-10
1.209397479e-09
-2.29305445e-10
1.206879833e-09
-2.282864526e-10
1.203038688e-09
-2.258517139e-10
1.19799957e-09
-2.219468274e-10
1.191890003e-09
-2.165281464e-10
1.184838652e-09
-2.095656205e-10
1.176975529e-09
-2.010450548e-10
1.168430989e-09
-1.909705822e-10
1.159334472e-09
-1.793669691e-10
1.149813831e-09
-1.66280895e-10
1.139992506e-09
-1.517821848e-10
1.129988929e-09
-1.35963418e-10
1.119913472e-09
-1.189391261e-10
1.109867739e-09
-1.00843521e-10
1.099942276e-09
-8.182784591e-11
1.090216515e-09
-6.205717161e-11
1.080758079e-09
-4.170706921e-11
1.07162371e-09
-2.095970013e-11
1.062857437e-09
1.054490531e-09
-7.431393723e-13
5.096510898e-11
-2.913641186e-12
1.490968909e-10
-6.423774532e-12
2.416954369e-10
-1.118213555e-11
3.289282331e-10
-1.709650964e-11
4.109781911e-10
-2.407378253e-11
4.880211557e-10
-3.202009101e-11
5.60225436e-10
-4.084113861e-11
6.277540912e-10
-5.044235433e-11
6.907648178e-10
-6.072889576e-11
7.494100894e-10
-7.160582931e-11
8.038377402e-10
-8.297834918e-11
8.541918099e-10
-9.475157842e-11
9.006127736e-10
-1.068308778e-10
9.432382178e-10
-1.191218264e-10
9.822034627e-10
-1.315300942e-10
1.01764148e-09
-1.439617747e-10
1.049683786e-09
-1.563228978e-10
1.078460003e-09
-1.685198865e-10
1.104098649e-09
-1.804589347e-10
1.126726643e-09
-1.92046376e-10
1.14646989e-09
-2.03188082e-10
1.163452919e-09
-2.137896405e-10
1.177799202e-09
-2.237558633e-10
1.189631009e-09
-2.329907816e-10
1.199069681e-09
-2.413974332e-10
1.206235747e-09
-2.488776642e-10
1.211249013e-09
-2.553321002e-10
1.214228978e-09
-2.606602916e-10
1.215295272e-09
-2.647608564e-10
1.214568045e-09
-2.675320393e-10
1.212168662e-09
-2.68872612e-10
1.208220406e-09
-2.686827497e-10
1.202848826e-09
-2.668661933e-10
1.196183013e-09
-2.633321303e-10
1.18835594e-09
-2.579980823e-10
1.179504604e-09
-2.507935743e-10
1.169771021e-09
-2.416639074e-10
1.159301322e-09
-2.305748481e-10
1.148245412e-09
-2.175171328e-10
1.136756116e-09
-2.025111658e-10
1.124986539e-09
-1.856105765e-10
1.113088339e-09
-1.669052669e-10
1.101208162e-09
-1.465217723e-10
1.089484244e-09
-1.246223318e-10
1.078042836e-09
-1.014012015e-10
1.066995385e-09
-7.707993311e-11
1.056436811e-09
-5.190090114e-11
1.046444678e-09
-2.612007329e-11
1.037076609e-09
1.028370458e-09
-8.344305239e-13
5.17995395e-11
-3.271679646e-12
1.5153414e-10
-7.21320437e-12
2.456369617e-10
-1.255658282e-11
3.342716115e-10
-1.919867193e-11
4.176202802e-10
-2.703554439e-11
4.958580282e-10
-3.596279616e-11
5.691526877e-10
-4.587591467e-11
6.376672096e-10
-5.667046189e-11
7.01559365e-10
-6.824218387e-11
7.609818114e-10
-8.04873666e-11
8.160829229e-10
-9.330278336e-11
8.670072267e-10
-1.065857217e-10
9.138957119e-10
-1.202343478e-10
9.568868438e-10
-1.341473036e-10
9.961164185e-10
-1.482241126e-10
1.031718289e-09
-1.623647768e-10
1.063824451e-09
-1.764699814e-10
1.092565207e-09
-1.90440644e-10
1.118069312e-09
-2.041780063e-10
1.140464006e-09
-2.175830845e-10
1.159874968e-09
-2.305566009e-10
1.176426435e-09
-2.429983492e-10
1.19024095e-09
-2.548069441e-10
1.201439603e-09
-2.658792203e-10
1.210141957e-09
-2.7610976e-10
1.216466287e-09
-2.853902462e-10
1.2205295e-09
-2.936091089e-10
1.22244784e-09
-3.006508173e-10
1.22233698e-09
-3.063955768e-10
1.220312805e-09
-3.10719333e-10
1.216492418e-09
-3.134934714e-10
1.210994544e-09
-3.145855426e-10
1.203940897e-09
-3.138603192e-10
1.19545779e-09
-3.111813768e-10
1.185676997e-09
-3.064140388e-10
1.174737266e-09
-2.994289904e-10
1.162785972e-09
-2.901076625e-10
1.149979994e-09
-2.783487495e-10
1.136486499e-09
-2.640760166e-10
1.122483383e-09
-2.472476225e-10
1.108158145e-09
-2.278655849e-10
1.093706302e-09
-2.059849677e-10
1.079327545e-09
-1.817208593e-10
1.065220136e-09
-1.552522995e-10
1.051574276e-09
-1.268208229e-10
1.038563908e-09
-9.67242078e-11
1.026340196e-09
-6.530493984e-11
1.01502541e-09
-3.293459895e-11
1.004706268e-09
9.95435859e-10
-9.316104595e-13
5.273114996e-11
-3.652790692e-12
1.542553203e-10
-8.053370956e-12
2.500375419e-10
-1.401903874e-11
3.402372793e-10
-2.143486944e-11
4.25036111e-10
-3.018528365e-11
5.046084424e-10
-4.015448048e-11
5.791218846e-10
-5.122694853e-11
6.487396777e-10
-6.32876716e-11
7.136200881e-10
-7.622251322e-11
7.73916653e-10
-8.991846183e-11
8.297788715e-10
-1.042635292e-10
8.813522941e-10
-1.191471947e-10
9.287793774e-10
-1.344602288e-10
9.721998779e-10
-1.500948063e-10
1.011750996e-09
-1.659445225e-10
1.047568006e-09
-1.819041695e-10
1.079784098e-09
-1.978697708e-10
1.108530808e-09
-2.137381767e-10
1.133937718e-09
-2.294068826e-10
1.156132712e-09
-2.447736383e-10
1.175241724e-09
-2.597359131e-10
1.19138871e-09
-2.741903995e-10
1.204695437e-09
-2.880323255e-10
1.215281529e-09
-3.011546839e-10
1.223264316e-09
-3.134472513e-10
1.228758855e-09
-3.247958469e-10
1.231878095e-09
-3.350809628e-10
1.232732956e-09
-3.441766526e-10
1.23143267e-09
-3.519495495e-10
1.228085702e-09
-3.582573666e-10
1.222800235e-09
-3.629478306e-10
1.215685008e-09
-3.658578591e-10
1.206850926e-09
-3.668128448e-10
1.196412776e-09
-3.656269623e-10
1.184491115e-09
-3.621041863e-10
1.17121449e-09
-3.560406786e-10
1.156722465e-09
-3.472293813e-10
1.141168697e-09
-3.354670199e-10
1.124724138e-09
-3.205641199e-10
1.107580483e-09
-3.023590571e-10
1.089953082e-09
-2.80735623e-10
1.072082868e-09
-2.556434603e-10
1.054235382e-09
-2.271200589e-10
1.036696735e-09
-1.953099891e-10
1.019764206e-09
-1.604775889e-10
1.003731508e-09
-1.23008147e-10
9.888707539e-10
-8.339143072e-11
9.754086938e-10
-4.21880544e-11
9.635028916e-10
9.532478046e-10
-1.03416308e-12
5.376531304e-11
-4.054934091e-12
1.572760913e-10
-8.939758022e-12
2.549223659e-10
-1.556152866e-11
3.468590499e-10
-2.379267166e-11
4.33267254e-10
-3.350501137e-11
5.143207821e-10
-4.457046337e-11
5.901873366e-10
-5.686160928e-11
6.610308236e-10
-7.025218064e-11
7.270106595e-10
-8.461750478e-11
7.882819771e-10
-9.98345883e-11
8.44995955e-10
-1.157824314e-10
8.973001371e-10
-1.323423288e-10
9.453392748e-10
-1.493975969e-10
9.89255146e-10
-1.668340911e-10
1.02918749e-09
-1.845396757e-10
1.06527359e-09
-2.024045782e-10
1.097649e-09
-2.203208272e-10
1.126447057e-09
-2.381823244e-10
1.151799215e-09
-2.558842175e-10
1.173834605e-09
-2.733226271e-10
1.192680133e-09
-2.903940204e-10
1.208460103e-09
-3.069945712e-10
1.221295987e-09
-3.230192918e-10
1.23130625e-09
-3.383610649e-10
1.238606089e-09
-3.52909608e-10
1.243307398e-09
-3.665499335e-10
1.245518421e-09
-3.791608702e-10
1.245343893e-09
-3.906133494e-10
1.242885149e-09
-4.007683064e-10
1.238240659e-09
-4.094741991e-10
1.231506128e-09
-4.165646007e-10
1.22277541e-09
-4.21855366e-10
1.212141691e-09
-4.251416225e-10
1.199699032e-09
-4.261950297e-10
1.185544522e-09
-4.247613459e-10
1.169780806e-09
-4.205588388e-10
1.152519958e-09
-4.132783735e-10
1.133888231e-09
-4.025865131e-10
1.114032278e-09
-3.881327836e-10
1.093126753e-09
-3.695633352e-10
1.071383634e-09
-3.46542928e-10
1.04906246e-09
-3.187875005e-10
1.026479955e-09
-2.861078324e-10
1.004017067e-09
-2.484628511e-10
9.82119225e-10
-2.060170684e-10
9.612857249e-10
-1.591857146e-10
9.420394001e-10
-1.086393778e-10
9.24862357e-10
-5.52488645e-11
9.101123783e-10
8.979989401e-10
-1.141426024e-12
5.490673907e-11
-4.475549e-12
1.606102142e-10
-9.866792209e-12
2.603136091e-10
-1.717427505e-11
3.541665328e-10
-2.625685141e-11
4.423498303e-10
-3.697279615e-11
5.250367268e-10
-4.918074248e-11
6.023952829e-10
-6.274050118e-11
6.745905822e-10
-7.751373262e-11
7.41783891e-10
-9.33643412e-11
8.041325857e-10
-1.101587158e-10
8.617903297e-10
-1.277663514e-10
9.149077728e-10
-1.460597128e-10
9.636326361e-10
-1.649146336e-10
1.008110067e-09
-1.842102005e-10
1.048483057e-09
-2.03828882e-10
1.084892272e-09
-2.236562547e-10
1.117476373e-09
-2.435810555e-10
1.146371858e-09
-2.634947033e-10
1.171712862e-09
-2.832910576e-10
1.193630959e-09
-3.028658888e-10
1.212254965e-09
-3.221163432e-10
1.227710557e-09
-3.409401627e-10
1.240119807e-09
-3.59234922e-10
1.249601009e-09
-3.76896934e-10
1.256268101e-09
-3.938199045e-10
1.260230368e-09
-4.098935014e-10
1.261592018e-09
-4.250016192e-10
1.260452011e-09
-4.390201661e-10
1.256903696e-09
-4.518143342e-10
1.251034827e-09
-4.632355804e-10
1.242927374e-09
-4.731178695e-10
1.232657699e-09
-4.812730847e-10
1.220296907e-09
-4.874857518e-10
1.205911699e-09
-4.915066569e-10
1.189565427e-09
-4.930457957e-10
1.171319945e-09
-4.917644459e-10
1.151238608e-09
-4.872668834e-10
1.129390668e-09
-4.790929748e-10
1.105858369e-09
-4.667128927e-10
1.080746671e-09
-4.495272244e-10
1.054197966e-09
-4.268771073e-10
1.026412343e-09
-3.980718969e-10
9.976747441e-10
-3.624438662e-10
9.683890359e-10
-3.194407433e-10
9.391161022e-10
-2.687609393e-10
9.106059208e-10
-2.105164266e-10
8.837948874e-10
-1.453738441e-10
8.597197745e-10
-7.461156636e-11
8.393501006e-10
8.233873737e-10
-1.252655699e-12
5.615939477e-11
-4.911720194e-12
1.642692787e-10
-1.082816951e-11
2.662300584e-10
-1.884620049e-11
3.621845638e-10
-2.881016873e-11
4.523137986e-10
-4.056381481e-11
5.367903729e-10
-5.395147639e-11
6.157829445e-10
-6.88192572e-11
6.89458363e-10
-8.50157231e-11
7.579803569e-10
-1.023923412e-10
8.215092039e-10
-1.208041964e-10
8.802021848e-10
-1.401103055e-10
9.342138819e-10
-1.601737714e-10
9.83696102e-10
-1.808622366e-10
1.028798532e-09
-2.020476708e-10
1.069668491e-09
-2.236066753e-10
1.106451276e-09
-2.454201523e-10
1.13928985e-09
-2.673732756e-10
1.168324981e-09
-2.893552221e-10
1.193694809e-09
-3.112587669e-10
1.215534504e-09
-3.329798772e-10
1.233976075e-09
-3.544170396e-10
1.24914772e-09
-3.754708246e-10
1.261173592e-09
-3.960428145e-10
1.270172999e-09
-4.160346538e-10
1.27625994e-09
-4.353469184e-10
1.279542633e-09
-4.538777002e-10
1.2801228e-09
-4.715207944e-10
1.278095105e-09
-4.881635522e-10
1.273546453e-09
-5.036841933e-10
1.266555468e-09
-5.179486135e-10
1.257191794e-09
-5.30806132e-10
1.245515217e-09
-5.420842181e-10
1.231574993e-09
-5.515819353e-10
1.215409417e-09
-5.590612639e-10
1.197044755e-09
-5.642361871e-10
1.176494868e-09
-5.66758971e-10
1.153761392e-09
-5.662025762e-10
1.128834273e-09
-5.620391909e-10
1.101694984e-09
-5.536145001e-10
1.07232198e-09
-5.401192519e-10
1.040702717e-09
-5.205613596e-10
1.006854451e-09
-4.937470369e-10
9.708604215e-10
-4.582849814e-10
9.329269803e-10
-4.126368545e-10
8.934679755e-10
-3.552545726e-10
8.532236389e-10
-2.848746809e-10
8.134149957e-10
-2.010454664e-10
7.7589056e-10
-1.048790544e-10
7.431836886e-10
7.185083193e-10
-1.367035709e-12
5.752643047e-11
-5.360146138e-12
1.682623892e-10
-1.181678107e-11
2.726866933e-10
-2.056459051e-11
3.709323732e-10
-3.143255958e-11
4.631817677e-10
-4.424883512e-11
5.496066485e-10
-5.884234298e-11
6.303764523e-10
-7.504427399e-11
7.05660294e-10
-9.268882314e-11
7.756249061e-10
-1.116139821e-10
8.404343628e-10
-1.316623985e-10
9.002506012e-10
-1.526815001e-10
9.552329835e-10
-1.745242415e-10
1.005538843e-09
-1.970489841e-10
1.051323275e-09
-2.201199761e-10
1.092739483e-09
-2.436070671e-10
1.129938367e-09
-2.673858773e-10
1.16306866e-09
-2.913374459e-10
1.19227655e-09
-3.153481162e-10
1.217705479e-09
-3.393090707e-10
1.239495459e-09
-3.631159669e-10
1.257782971e-09
-3.866684421e-10
1.272700195e-09
-4.098693335e-10
1.284374483e-09
-4.326239758e-10
1.292927642e-09
-4.548393997e-10
1.298475364e-09
-4.764232765e-10
1.30112651e-09
-4.972826321e-10
1.300982155e-09
-5.17322356e-10
1.298134829e-09
-5.364434291e-10
1.292667526e-09
-5.545407098e-10
1.284652749e-09
-5.715002126e-10
1.274151297e-09
-5.871954076e-10
1.261210412e-09
-6.01482724e-10
1.24586231e-09
-6.141955867e-10
1.228122279e-09
-6.251360907e-10
1.207985259e-09
-6.340643404e-10
1.185423118e-09
-6.406830163e-10
1.160380068e-09
-6.446165046e-10
1.132767762e-09
-6.453813867e-10
1.102459866e-09
-6.423451452e-10
1.069285739e-09
-6.346681293e-10
1.033025701e-09
-6.212227939e-10
9.934091155e-10
-6.004827689e-10
9.501203965e-10
-5.70376507e-10
9.028207184e-10
-5.281134502e-10
8.512049188e-10
-4.700424962e-10
7.951526849e-10
-3.917147962e-10
7.350872957e-10
-2.884832655e-10
6.726590293e-10
-1.573076828e-10
6.120081059e-10
5.612006365e-10
-1.483122066e-12
5.900955254e-11
-5.816807293e-12
1.725960744e-10
-1.282360558e-11
2.796934916e-10
-2.23134139e-11
3.804221815e-10
-3.409901485e-11
4.749673686e-10
-4.799188655e-11
5.634995202e-10
-6.380433955e-11
6.461889053e-10
-8.135139461e-11
7.23207349e-10
-1.004517121e-10
7.947252237e-10
-1.209288298e-10
8.609114805e-10
-1.426117131e-10
9.219334845e-10
-1.653354446e-10
9.77956715e-10
-1.889416841e-10
1.029145083e-09
-2.132789086e-10
1.075660499e-09
-2.382025025e-10
1.117663077e-09
-2.635749234e-10
1.155310788e-09
-2.892654694e-10
1.188759206e-09
-3.151501066e-10
1.218161187e-09
-3.411111846e-10
1.243666557e-09
-3.670370739e-10
1.265421348e-09
-3.928216522e-10
1.283567549e-09
-4.183637322e-10
1.298242275e-09
-4.435663833e-10
1.309577134e-09
-4.683363178e-10
1.317697576e-09
-4.925829768e-10
1.322722023e-09
-5.162175815e-10
1.324761115e-09
-5.391520205e-10
1.323916595e-09
-5.612976051e-10
1.320280413e-09
-5.825635222e-10
1.313933443e-09
-6.028552623e-10
1.304944489e-09
-6.220720471e-10
1.293368081e-09
-6.40104404e-10
1.279242769e-09
-6.568307148e-10
1.262588621e-09
-6.721125197e-10
1.243404084e-09
-6.857886079e-10
1.221661347e-09
-6.976668095e-10
1.19730132e-09
-7.075120939e-10
1.170225352e-09
-7.150299792e-10
1.140285647e-09
-7.198412313e-10
1.107271118e-09
-7.214437858e-10
1.070888293e-09
-7.191534415e-10
1.030735357e-09
-7.120103872e-10
9.862660612e-10
-6.986303395e-10
9.367403487e-10
-6.769694502e-10
8.811598292e-10
-6.439568013e-10
8.1819227e-10
-5.949119801e-10
7.461078637e-10
-5.225651632e-10
6.627404788e-10
-4.152457917e-10
5.653396578e-10
-2.527218202e-10
4.494841344e-10
3.084788163e-10
-7.454204387e-14
5.908409459e-11
-2.945234831e-13
1.728160558e-10
-6.340627193e-13
2.800330309e-10
-1.068071635e-12
3.808561904e-10
-1.564026509e-12
4.754633234e-10
-2.08815121e-12
5.640236449e-10
-2.605994316e-12
6.467067485e-10
-3.083592703e-12
7.236849473e-10
-3.488852478e-12
7.951304833e-10
-3.792592383e-12
8.612152204e-10
-3.968961537e-12
9.221098537e-10
-3.99637445e-12
9.779841279e-10
-3.857437995e-12
1.029006146e-09
-3.539609448e-12
1.07534267e-09
-3.034793227e-12
1.117158261e-09
-2.339642832e-12
1.154615638e-09
-1.455327176e-12
1.187874891e-09
-3.872790243e-13
1.217093139e-09
8.549675114e-13
1.24242431e-09
2.257995318e-12
1.26401832e-09
3.804771741e-12
1.282020773e-09
5.474898637e-12
1.296572148e-09
7.244756969e-12
1.307807276e-09
9.087764718e-12
1.315854568e-09
1.097437658e-11
1.320835411e-09
1.287228897e-11
1.322863202e-09
1.474627862e-11
1.322042605e-09
1.655820175e-11
1.31846849e-09
1.826692086e-11
1.312224724e-09
1.982783848e-11
1.303383571e-09
2.119277183e-11
1.292003148e-09
2.230901378e-11
1.278126527e-09
2.311878784e-11
1.261778847e-09
2.355803715e-11
1.242964835e-09
2.355481721e-11
1.221664567e-09
2.302731507e-11
1.197828822e-09
2.188037916e-11
1.171372288e-09
2.000167543e-11
1.14216435e-09
1.72563976e-11
1.110016396e-09
1.348075066e-11
1.07466394e-09
8.475280666e-12
1.035740827e-09
2.000908803e-12
9.927404329e-10
-6.216338847e-12
9.449575963e-10
-1.645454049e-11
8.913980308e-10
-2.889376134e-11
8.306314908e-10
-4.332045277e-11
7.605345552e-10
-5.837573186e-11
6.777957579e-10
-6.980392244e-11
5.767678485e-10
-6.581887006e-11
4.45499082e-10
2.426599463e-10
-1.439360029e-13
5.922803058e-11
-5.638359225e-13
1.732359557e-10
-1.226311648e-12
2.806955066e-10
-2.096773167e-12
3.817266519e-10
-3.133754529e-12
4.76500305e-10
-4.293986419e-12
5.651838769e-10
-5.533615801e-12
6.479463778e-10
-6.809492438e-12
7.249608239e-10
-8.080686987e-12
7.964016779e-10
-9.309297136e-12
8.624438306e-10
-1.046132372e-11
9.232618802e-10
-1.150726287e-11
9.790300669e-10
-1.242242412e-11
1.029921308e-09
-1.318710409e-11
1.076107351e-09
-1.378680977e-11
1.117757967e-09
-1.421190082e-11
1.155040729e-09
-1.445761143e-11
1.188120601e-09
-1.452388469e-11
1.217159412e-09
-1.441481191e-11
1.242315237e-09
-1.413861708e-11
1.263742125e-09
-1.370712926e-11
1.281589285e-09
-1.313556102e-11
1.296000579e-09
-1.244218715e-11
1.307113902e-09
-1.164816185e-11
1.315060543e-09
-1.077713154e-11
1.31996438e-09
-9.855121829e-12
1.321941192e-09
-8.910478955e-12
1.321097962e-09
-7.973774167e-12
1.317531786e-09
-7.077728585e-12
1.311328679e-09
-6.257159674e-12
1.302563002e-09
-5.549169017e-12
1.291295157e-09
-4.993348787e-12
1.277570707e-09
-4.631641615e-12
1.261417139e-09
-4.508575723e-12
1.242841769e-09
-4.67136254e-12
1.221827354e-09
-5.169808115e-12
1.198327268e-09
-6.056134339e-12
1.172258615e-09
-7.384401509e-12
1.143492618e-09
-9.209611063e-12
1.111841606e-09
-1.158579006e-11
1.077040119e-09
-1.456313759e-11
1.038718175e-09
-1.818214769e-11
9.963594431e-10
-2.246217677e-11
9.492376253e-10
-2.737481302e-11
8.96310667e-10
-3.278028562e-11
8.360369635e-10
-3.827465001e-11
7.660289196e-10
-4.278987611e-11
6.823109839e-10
-4.338972078e-11
5.773676931e-10
-3.203577275e-11
4.34145134e-10
2.106241735e-10
-2.103978127e-13
5.94384284e-11
-8.22711648e-13
1.738482696e-10
-1.796301876e-12
2.816690968e-10
-3.086688352e-12
3.830170385e-10
-4.643489959e-12
4.780571066e-10
-6.414097098e-12
5.66954484e-10
-8.345214916e-12
6.498774956e-10
-1.038452063e-11
7.270001298e-10
-1.248210631e-11
7.984992639e-10
-1.459130603e-11
8.645530305e-10
-1.666988521e-11
9.253404594e-10
-1.868027622e-11
9.810404579e-10
-2.059035305e-11
1.031831385e-09
-2.23732295e-11
1.077890227e-09
-2.400762078e-11
1.119392358e-09
-2.547760962e-11
1.156510718e-09
-2.677233719e-11
1.189415329e-09
-2.788585282e-11
1.218272928e-09
-2.881675743e-11
1.243246141e-09
-2.956781916e-11
1.264493187e-09
-3.014550464e-11
1.282166971e-09
-3.055969849e-11
1.296414774e-09
-3.082327788e-11
1.307377481e-09
-3.095186637e-11
1.315189131e-09
-3.096343132e-11
1.319975945e-09
-3.087814233e-11
1.321855904e-09
-3.071802695e-11
1.320937847e-09
-3.050713385e-11
1.317320892e-09
-3.02712103e-11
1.311092755e-09
-3.003773934e-11
1.302329531e-09
-2.983600317e-11
1.291093421e-09
-2.969724595e-11
1.277431949e-09
-2.965474655e-11
1.26137464e-09
-2.974369732e-11
1.24293072e-09
-3.000158916e-11
1.222085246e-09
-3.046800186e-11
1.19879368e-09
-3.118396352e-11
1.172974576e-09
-3.219085922e-11
1.144499514e-09
-3.352781056e-11
1.113178557e-09
-3.522648719e-11
1.078738796e-09
-3.73010285e-11
1.040792716e-09
-3.973011371e-11
9.987885285e-10
-4.242394263e-11
9.519314543e-10
-4.516489126e-11
8.990516156e-10
-4.750188632e-11
8.383739585e-10
-4.855910125e-11
7.670861345e-10
-4.667868209e-11
6.804305647e-10
-3.892386105e-11
5.69612872e-10
-2.184752797e-11
4.170688008e-10
1.887766455e-10
-2.733044062e-13
5.971173282e-11
-1.068384718e-12
1.746433499e-10
-2.3370684e-12
2.829377805e-10
-4.025527403e-12
3.847054974e-10
-6.074376802e-12
4.801059559e-10
-8.421677894e-12
5.693017851e-10
-1.100473291e-11
6.524605507e-10
-1.376194768e-11
7.297573443e-10
-1.663414628e-11
8.013714623e-10
-1.956575871e-11
8.674846428e-10
-2.25058542e-11
9.282805548e-10
-2.540855338e-11
9.839431573e-10
-2.823364843e-11
1.03465648e-09
-3.094669514e-11
1.080603273e-09
-3.35189887e-11
1.121964651e-09
-3.592753703e-11
1.158919266e-09
-3.815482247e-11
1.191642614e-09
-4.018831853e-11
1.220306424e-09
-4.202028481e-11
1.245078108e-09
-4.364719636e-11
1.266120099e-09
-4.506939064e-11
1.283589165e-09
-4.629060092e-11
1.297635984e-09
-4.731757799e-11
1.308404458e-09
-4.815958021e-11
1.316031134e-09
-4.882818005e-11
1.320644545e-09
-4.933707618e-11
1.3223648e-09
-4.970162174e-11
1.321302393e-09
-4.993877372e-11
1.317558044e-09
-5.006719015e-11
1.311221172e-09
-5.010694311e-11
1.302369284e-09
-5.007962572e-11
1.291066103e-09
-5.00083536e-11
1.277360677e-09
-4.991786316e-11
1.261284149e-09
-4.983441683e-11
1.242847274e-09
-4.97856768e-11
1.222036506e-09
-4.980022875e-11
1.198808232e-09
-4.990666489e-11
1.173081013e-09
-5.013190965e-11
1.144724758e-09
-5.049746862e-11
1.113544116e-09
-5.101331164e-11
1.079254639e-09
-5.166579283e-11
1.041445197e-09
-5.239677604e-11
9.995195115e-10
-5.306602694e-11
9.526007052e-10
-5.3386799e-11
8.993723877e-10
-5.281819145e-11
8.378053509e-10
-5.039812908e-11
7.646660722e-10
-4.455934036e-11
6.745917761e-10
-3.32963424e-11
5.583498742e-10
-1.606370156e-11
3.9983616e-10
1.72712944e-10
-3.321277842e-13
6.004386061e-11
-1.298530844e-12
1.756097529e-10
-2.843524381e-12
2.84482774e-10
-4.904539838e-12
3.867665129e-10
-7.413361599e-12
4.826147776e-10
-1.029892963e-11
5.72187353e-10
-1.34893919e-11
6.556510129e-10
-1.691396471e-11
7.331819173e-10
-2.050429095e-11
8.049617886e-10
-2.419598468e-11
8.711763365e-10
-2.792927863e-11
9.320138488e-10
-3.165002186e-11
9.876639005e-10
-3.530974313e-11
1.038316201e-09
-3.886625476e-11
1.084159785e-09
-4.228339224e-11
1.125381789e-09
-4.553091242e-11
1.162166786e-09
-4.858430423e-11
1.194696006e-09
-5.142445818e-11
1.223146579e-09
-5.40371494e-11
1.247690799e-09
-5.64125629e-11
1.268495512e-09
-5.854493832e-11
1.28572154e-09
-6.043204173e-11
1.299523087e-09
-6.207474414e-11
1.310047161e-09
-6.347658738e-11
1.317432977e-09
-6.464349756e-11
1.321811456e-09
-6.558347075e-11
1.323304773e-09
-6.630650158e-11
1.322025423e-09
-6.682409071e-11
1.318075633e-09
-6.714966167e-11
1.311546743e-09
-6.729804782e-11
1.30251767e-09
-6.728582508e-11
1.291053881e-09
-6.713089561e-11
1.277205748e-09
-6.685270879e-11
1.261005963e-09
-6.647204119e-11
1.242466606e-09
-6.601036439e-11
1.221574829e-09
-6.548905496e-11
1.198286923e-09
-6.492785041e-11
1.172519808e-09
-6.434200785e-11
1.144138916e-09
-6.37376914e-11
1.1129398e-09
-6.310370985e-11
1.078620657e-09
-6.239767439e-11
1.040739162e-09
-6.152234537e-11
9.986441825e-10
-6.028748124e-11
9.513658409e-10
-5.835075824e-11
8.974356646e-10
-5.51373293e-11
8.345919219e-10
-4.976236391e-11
7.592911068e-10
-4.107150695e-11
6.659009191e-10
-2.815557802e-11
5.454339451e-10
-1.213214129e-11
3.838127233e-10
1.605808027e-10
-3.86392819e-13
6.043025342e-11
-1.511050686e-12
1.767344108e-10
-3.311052011e-12
2.862827753e-10
-5.715720862e-12
3.891711817e-10
-8.648375807e-12
4.855474325e-10
-1.20292695e-11
5.755682467e-10
-1.577775758e-11
6.59399501e-10
-1.981410692e-11
7.372182667e-10
-2.406117476e-11
8.092088565e-10
-2.844591199e-11
8.755610739e-10
-3.290004663e-11
9.364679836e-10
-3.736118076e-11
9.921250346e-10
-4.177298092e-11
1.042728001e-09
-4.608545703e-11
1.088472261e-09
-5.025512808e-11
1.12955146e-09
-5.424473269e-11
1.166156391e-09
-5.802301809e-11
1.198474292e-09
-6.156436388e-11
1.226687924e-09
-6.484833423e-11
1.25097477e-09
-6.785924089e-11
1.271506419e-09
-7.058564567e-11
1.288447945e-09
-7.301986669e-11
1.301957308e-09
-7.515752716e-11
1.312184821e-09
-7.699726438e-11
1.319272714e-09
-7.854035528e-11
1.323354546e-09
-7.979021581e-11
1.324554633e-09
-8.075264186e-11
1.32298785e-09
-8.143518861e-11
1.31875818e-09
-8.184741209e-11
1.311958966e-09
-8.200060901e-11
1.302670867e-09
-8.190779507e-11
1.290961067e-09
-8.158344372e-11
1.276881397e-09
-8.10434395e-11
1.260465958e-09
-8.030467085e-11
1.241727837e-09
-7.938424552e-11
1.220654404e-09
-7.829837301e-11
1.19720105e-09
-7.706040008e-11
1.171281835e-09
-7.567741669e-11
1.142755932e-09
-7.414486724e-11
1.11140725e-09
-7.243684339e-11
1.076912633e-09
-7.049114078e-11
1.038793459e-09
-6.818444683e-11
9.963374885e-10
-6.529605297e-11
9.484774473e-10
-6.146066328e-11
8.936002749e-10
-5.612495711e-11
8.292562157e-10
-4.855829351e-11
7.517244432e-10
-3.803888865e-11
6.553815142e-10
-2.445768361e-11
5.3185274e-10
-9.710135669e-12
3.690651753e-10
1.50870667e-10
-4.356676735e-13
6.08659211e-11
-1.704042651e-12
1.780027858e-10
-3.735477516e-12
2.883142102e-10
-6.451834911e-12
3.918875392e-10
-9.768577399e-12
4.888641752e-10
-1.35978401e-11
5.793975096e-10
-1.785065363e-11
6.636523146e-10
-2.243885644e-11
7.418064693e-10
-2.727708644e-11
8.140470863e-10
-3.228393936e-11
8.805679268e-10
-3.738327525e-11
9.415673195e-10
-4.250468371e-11
9.97246443e-10
-4.758439192e-11
1.047807709e-09
-5.256516331e-11
1.093453033e-09
-5.739647255e-11
1.134382769e-09
-6.203440706e-11
1.170794326e-09
-6.644147016e-11
1.202881355e-09
-7.058600141e-11
1.230832455e-09
-7.44419088e-11
1.254830677e-09
-7.798814172e-11
1.275052652e-09
-8.120825731e-11
1.291668061e-09
-8.408989651e-11
1.304838947e-09
-8.662432317e-11
1.314719248e-09
-8.880606e-11
1.321454451e-09
-9.063264794e-11
1.325181135e-09
-9.210421245e-11
1.326026198e-09
-9.322326387e-11
1.324106901e-09
-9.399459451e-11
1.319529511e-09
-9.442509821e-11
1.31238947e-09
-9.452361148e-11
1.302769381e-09
-9.430073592e-11
1.290738191e-09
-9.376856253e-11
1.276349223e-09
-9.294045528e-11
1.259637851e-09
-9.183037768e-11
1.24061776e-09
-9.045200326e-11
1.219276029e-09
-8.881736206e-11
1.195566409e-09
-8.693440829e-11
1.169398881e-09
-8.48034303e-11
1.140624954e-09
-8.241050655e-11
1.109014326e-09
-7.971780616e-11
1.074219933e-09
-7.664760494e-11
1.035723258e-09
-7.305922844e-11
9.927491121e-10
-6.871816497e-11
9.441363837e-10
-6.326694944e-11
8.881490594e-10
-5.622115973e-11
8.22210426e-10
-4.704471235e-11
7.425479957e-10
-3.539777112e-11
6.43734573e-10
-2.169366328e-11
5.181486323e-10
-8.112213659e-12
3.554837258e-10
1.427584534e-10
-4.795548693e-13
6.134547599e-11
-1.875903716e-12
1.793991347e-10
-4.113309485e-12
2.90551616e-10
-7.106937216e-12
3.948811668e-10
-1.076515422e-11
4.925223921e-10
-1.499266579e-11
5.83625021e-10
-1.969283529e-11
6.683524839e-10
-2.476987321e-11
7.468835074e-10
-3.013081047e-11
8.194080237e-10
-3.568662503e-11
8.861237412e-10
-4.135380587e-11
9.472345002e-10
-4.705481539e-11
1.002947452e-09
-5.271878772e-11
1.053471682e-09
-5.828191374e-11
1.099016159e-09
-6.368730544e-11
1.139788161e-09
-6.888503497e-11
1.175992055e-09
-7.383178239e-11
1.207828102e-09
-7.849057871e-11
1.235491252e-09
-8.283030764e-11
1.259170406e-09
-8.682527036e-11
1.279047615e-09
-9.045467844e-11
1.295297469e-09
-9.370212096e-11
1.30808639e-09
-9.655533998e-11
1.317572467e-09
-9.900558493e-11
1.323904696e-09
-1.010473259e-10
1.327222875e-09
-1.026781221e-10
1.327656994e-09
-1.038980455e-10
1.325326824e-09
-1.047097851e-10
1.320341251e-09
-1.051182787e-10
1.312797963e-09
-1.051304641e-10
1.302781566e-09
-1.047551148e-10
1.290362842e-09
-1.04002575e-10
1.275596683e-09
-1.028841776e-10
1.258519454e-09
-1.014115537e-10
1.239145136e-09
-9.959567499e-11
1.217460151e-09
-9.744514824e-11
1.193415883e-09
-9.496368856e-11
1.166917422e-09
-9.214587534e-11
1.137807141e-09
-8.897040101e-11
1.105838852e-09
-8.539014313e-11
1.070639675e-09
-8.131635869e-11
1.031649473e-09
-7.659852198e-11
9.880312751e-10
-7.10023205e-11
9.385401821e-10
-6.419988959e-11
8.813466285e-10
-5.579936926e-11
8.138099057e-10
-4.545822936e-11
7.322068559e-10
-3.313937347e-11
6.31415717e-10
-1.957657064e-11
5.045858294e-10
-6.996909883e-12
3.42904065e-10
1.357615435e-10
-5.177296739e-13
6.186320566e-11
-2.025372352e-12
1.809067774e-10
-4.441852921e-12