/*--------------------------------*- C++ -*----------------------------------*\
  =========                 |
  \\      /  F ield         | OpenFOAM: The Open Source CFD Toolbox
   \\    /   O peration     | Website:  https://openfoam.org
    \\  /    A nd           | Version:  7
     \\/     M anipulation  |
\*---------------------------------------------------------------------------*/
FoamFile
{
    version     2.0;
    format      ascii;
    class       volScalarField;
    location    "0.0015";
    object      T;
}
// * * * * * * * * * * * * * * * * * * * * * * * * * * * * * * * * * * * * * //

dimensions      [0 0 0 1 0 0 0];

internalField   nonuniform List<scalar> 
1167
(
434.2476078
434.286142
434.4129573
434.4521299
434.5360407
434.6599541
434.8211466
435.0172177
435.2457833
435.5046099
435.7918453
436.1055398
436.4434205
436.8040362
437.185714
437.5864061
438.0050672
438.4398559
438.8895714
439.3528488
439.8283797
440.3151294
440.8117853
441.317528
441.831123
442.3518006
442.8785053
443.41046
443.9467995
444.4866165
445.0292625
445.573665
446.1194124
446.6651979
447.2107336
447.7547386
448.2967989
448.8357718
449.3710145
449.9015923
450.4267588
450.9457519
451.4577501
451.9621961
452.4583602
452.9459072
453.424382
453.8936288
454.3535453
454.8041605
455.2459108
455.6789099
434.5771662
434.6170832
434.7025862
434.8288571
434.9931316
435.1929174
435.4257333
435.6896462
435.9826029
436.3024324
436.6472201
437.0154357
437.4050573
437.8146398
438.2427414
438.6875844
439.1482822
439.6229623
440.1110482
440.6108105
441.1217647
441.6423181
442.1720815
442.7095548
443.2544139
443.8053891
444.3619459
444.9230974
445.488043
446.0561048
446.6261189
447.1976156
447.7692335
448.3404243
448.9099428
449.4767827
450.0399659
450.598128
451.1504838
451.6953483
452.2320961
452.75918
453.2759691
453.7812566
454.2745654
454.7550726
455.2228315
455.6774535
456.1196008
456.5493336
434.7404088
434.7811872
434.8685335
434.9975366
435.1653666
435.3693152
435.6073039
435.8771621
436.1767908
436.5038501
436.8568754
437.2340005
437.6332621
438.0535085
438.4928073
438.9500889
439.4238441
439.912961
440.4162313
440.9326459
441.4611448
442.0009085
442.5508366
443.1104371
443.6784553
444.2545973
444.837685
445.4272066
446.0223456
446.6220873
447.2258941
447.8324647
448.4410894
449.0506289
449.6596347
450.2671821
450.8715277
451.4713044
452.0649076
452.6503141
453.2261354
453.7901749
454.3409481
454.8765809
455.3957305
455.8971545
456.3800334
456.843935
457.2890412
457.71576
434.9028551
434.9446226
435.0340873
435.1662105
435.3379407
435.5469495
435.7909222
436.0676769
436.3748353
436.7106139
437.0732959
437.4607382
437.8716198
438.3043297
438.7572615
439.2293856
439.7190749
440.2256448
440.7475876
441.2843871
441.8348056
442.3982492
442.9738924
443.5609482
444.1590318
444.7669871
445.3846322
446.0111403
446.6456914
447.2878146
447.9364395
448.5907399
449.249817
449.9121776
450.5766712
451.2418337
451.9055913
452.5660887
453.221183
453.8680788
454.5042367
455.1268252
455.7324914
456.3186324
456.8821039
457.4204458
457.931587
458.4141337
458.8676226
459.2925753
435.0646688
435.1075645
435.1993768
435.3349217
435.5113596
435.7261676
435.9770134
436.2615532
436.5776044
436.9234875
437.2972026
437.6969351
438.1214446
438.5687228
439.0379467
439.5274653
440.0365249
440.5637442
441.1086456
441.6699182
442.2473371
442.8398343
443.4471271
444.0686903
444.7037656
445.3522522
446.0135241
446.6870288
447.3724959
448.0692621
448.7764872
449.4936089
450.219667
450.9532871
451.6931758
452.4376813
453.1847243
453.9316246
454.6755987
455.4132994
456.1408111
456.8534132
457.546501
458.2148782
458.8528896
459.4555836
460.0182454
460.5369799
461.0098089
461.4361437
435.2258983
435.2700101
435.364499
435.5041125
435.6858997
435.907309
436.1659727
436.4593406
436.785724
437.1432318
437.5296002
437.9436949
438.3837352
438.8483823
439.3364729
439.8467736
440.3784479
440.9305756
441.5024242
442.093557
442.7030766
443.3310222
443.9768241
444.6402096
445.3211799
446.0193983
446.7346616
447.467009
448.2162495
448.9819
449.7637008
450.5612614
451.3738812
452.2005971
453.0400026
453.8905991
454.75025
455.6162733
456.485286
457.3530421
458.2143449
459.06289
459.8913509
460.6912756
461.4532211
462.1671521
462.8227155
463.4110924
463.9252165
464.3617017
435.3866774
435.4322266
435.5297985
435.6739996
435.8618267
436.0907017
436.3579813
436.6616558
436.9998071
437.3702952
437.7714987
438.2020339
438.660051
439.1448541
439.6547431
440.1894088
440.7474854
441.3288347
441.932678
442.558698
443.2068799
443.8767518
444.5685756
445.2824817
446.0184605
446.7767356
447.557719
448.3616849
449.18887
450.0393156
450.913336
451.8109567
452.731997
453.6760794
454.6424691
455.630013
456.6370696
457.6612187
458.6991612
459.7464848
460.7972718
461.8438018
462.8762429
463.8821508
464.8463672
465.7508502
466.5752673
467.2984943
467.9009567
468.3690882
435.5472615
435.59442
435.6954446
435.8447876
436.0393926
436.2764817
436.5536735
436.8689811
437.2203518
437.6056838
438.0237763
438.4727808
438.9516911
439.4592341
439.9946737
440.5570561
441.1462084
441.7612156
442.4023494
443.0694325
443.7623826
444.4817365
445.2278499
446.0010368
446.8020124
447.6315701
448.4904891
449.3795714
450.2996583
451.2516694
452.2364132
453.254654
454.3071399
455.3943072
456.5165277
457.6737287
458.8653858
460.0903856
461.3463874
462.6302123
463.9369288
465.2591017
466.5859594
467.9027127
469.1885343
470.4152008
471.5462193
472.5361229
473.3337899
473.8910748
435.7077727
435.756724
435.8615935
436.0166667
436.2187376
436.465037
436.7534191
437.0817755
437.447808
437.8501004
438.2870856
438.7572233
439.259718
439.7933249
440.3576603
440.9520813
441.5763086
442.2304786
442.9143752
443.6285523
444.3735774
445.1500932
445.9586944
446.8006396
447.6770622
448.5892356
449.5385177
450.526403
451.554516
452.6244903
453.738073
454.8970455
456.1032272
457.3582313
458.6639012
460.0220204
461.433706
462.9002369
464.4221702
465.9994505
467.6303956
469.3118199
471.0371143
472.7947107
474.5652565
476.3167565
477.997262
479.525918
480.7830166
481.6086224
435.868316
435.9192585
436.0283873
436.1897558
436.4000197
436.6567277
436.9575647
437.3002684
437.6829167
438.1042007
438.5622187
439.0563144
439.5851299
440.1484703
440.7453025
441.3759831
442.0403418
442.738497
443.4712347
444.2392496
445.0433109
445.8846216
446.7646248
447.6848456
448.6470074
449.6529608
450.70478
451.8047069
452.9550914
454.1585254
455.41739
456.7349157
458.1141564
459.5580021
461.0703128
462.6542944
464.3142768
466.0543306
467.8788082
469.7925984
471.800866
473.9087665
476.1213016
478.4418819
480.87101
483.400092
486.0003764
488.5965659
491.008065
492.8145997
436.0230561
436.0753915
436.1875195
436.3533033
436.5696775
436.8340404
437.1441276
437.4974884
437.8928248
438.3284563
438.8030316
439.3157619
439.8657217
440.4525884
441.0762462
441.7364666
442.4339064
443.1691163
443.942656
444.7558453
445.6099904
446.5066217
447.4474628
448.4344963
449.4698524
450.5558924
451.6952195
452.8905578
454.1449455
455.4611597
456.8430599
458.2941742
459.8183763
461.4200751
463.1039509
464.8750949
466.739616
468.7040088
470.7760524
472.964941
475.2817659
477.7404744
480.3592564
483.1624383
486.1843461
489.4762351
493.1183434
497.2422201
502.0745504
508.0183781
436.1735488
436.2267125
436.340742
436.5095793
436.7300658
436.9996416
437.3158841
437.6768662
438.0811945
438.5270328
439.0136967
439.5400155
440.10581
440.7103266
441.354055
442.0370519
442.7597405
443.5231812
444.3284007
445.176664
446.0694052
447.0084907
447.995946
449.0339592
450.1248647
451.27119
452.4757149
453.7414784
455.0716618
456.4693939
457.9385455
459.4828391
461.10661
462.8139529
464.6101692
466.5006817
468.4913568
470.5890574
472.8017226
475.138583
477.6103683
480.2306914
483.0157363
485.9865131
489.1701321
492.6018231
496.329002
500.4149788
504.9462193
510.0442521
436.3262321
436.3803945
436.4966099
436.6687623
436.8937078
437.1689057
437.4918422
437.8610719
438.2749336
438.7319459
439.231495
439.772497
440.354935
440.9785342
441.6434496
442.3503397
443.099837
443.8927993
444.7306887
445.6149693
446.547359
447.5297643
448.5643464
449.6533851
450.7994166
452.0051325
453.273214
454.6066612
456.0088115
457.4827795
459.0322944
460.6608876
462.3726405
464.1717562
466.0627119
468.0503696
470.1400176
472.337455
474.6492236
477.0828206
479.6461049
482.3488375
485.2017659
488.2175775
491.4110482
494.7993143
498.4021861
502.2423518
506.3456106
510.7432679
436.4814196
436.5367066
436.655366
436.8312138
437.0611194
437.342352
437.672931
438.0512722
438.4755478
438.9449301
439.4583964
440.0155945
440.6160406
441.2601678
441.9479976
442.6802784
443.4580394
444.2824108
445.1547518
446.0765923
447.049896
448.0767153
449.1592427
450.299647
451.5006249
452.7647686
454.0949225
455.4935533
456.964074
458.5092784
460.1326892
461.837119
463.6263228
465.5038976
467.4734263
469.5386512
471.7037369
473.9728738
476.3504559
478.8411259
481.4499314
484.1819906
487.0425449
490.0372513
493.1715716
496.4506014
499.8793689
503.4616696
507.2006991
511.0991828
436.6392347
436.6957695
436.8171326
436.9970606
437.2323217
437.5203248
437.8592944
438.2474806
438.6832747
439.1661018
439.6947014
440.2692405
440.8892386
441.555116
442.2674487
443.026806
443.8342905
444.6912877
445.5992744
446.5599604
447.5752163
448.6471244
449.777831
450.9696987
452.225059
453.5462108
454.9359877
456.3967922
457.9313256
459.542207
461.2322689
463.0038724
464.8599002
466.8030872
468.8358897
470.9609715
473.1808301
475.4976995
477.9141834
480.43219
483.0536869
485.7799796
488.6124187
491.5514292
494.596523
497.7464378
500.9986708
504.3492689
507.7934127
511.3260905
436.7997937
436.8576953
436.9820167
437.1663807
437.4073925
437.7029028
438.0509939
438.4497247
438.8981217
439.3951723
439.940328
440.5332524
441.1742626
441.8632597
442.6012016
443.3889854
444.2277209
445.1186838
446.0634355
447.0637867
448.1216397
449.2388878
450.4175911
451.6600423
452.9684118
454.3448084
455.7913931
457.3105845
458.9043111
460.5748438
462.3241613
464.1541893
466.0667183
468.0633864
470.1456334
472.3146867
474.5715759
476.9171792
479.3516372
481.8749375
484.4864164
487.1850888
489.9687906
492.8349625
495.7798622
498.7988321
501.886114
505.0350588
508.2384666
511.4895449
436.9632071
437.0225904
437.150117
437.3390728
437.5865281
437.8901424
438.2479274
438.6581377
439.1200488
439.6323199
440.1950593
440.8075776
441.4704492
442.1840939
442.9489142
443.7661567
444.6370135
445.5628452
446.5452125
447.5857952
448.6864292
449.8489498
451.0753415
452.3672986
453.7268645
455.1560476
456.6562466
458.2296509
459.8775239
461.6014745
463.4027969
465.2826544
467.2418658
469.2809282
471.4003056
473.5999715
475.8796408
478.2384644
480.6750142
483.1878135
485.7740287
488.431008
491.1549132
493.9408478
496.7836348
499.6770802
502.6142627
505.5878355
508.5905339
511.6158938
437.1295789
437.1904997
437.3212926
437.5154243
437.7697887
438.0820799
438.4500906
438.8726852
439.348714
439.8774021
440.4584439
441.0919068
441.7777158
442.5167216
443.3096752
444.1575677
445.0614534
446.0228731
447.043327
448.1244415
449.2677405
450.4749182
451.7477782
453.0879261
454.4966403
455.9756363
457.5260757
459.1493632
460.8461382
462.6173871
464.463689
466.3853646
468.3822142
470.4539031
472.5997959
474.8187473
477.1093577
479.4692666
481.8962767
484.3871181
486.9382395
489.5452975
492.2036258
494.9072271
497.6502857
500.4261357
503.2277179
506.0478082
508.879787
511.7180866
437.2988059
437.3613955
437.4958565
437.6955027
437.9572201
438.2785564
438.6575976
439.0933026
439.5842094
440.1302295
440.7304943
441.3855547
442.0955663
442.860882
443.6826126
444.5617337
445.4993967
446.496916
447.5556802
448.6771777
449.8628345
451.1141529
452.4321931
453.8184846
455.2741159
456.7999167
458.3968625
460.0655592
461.8060887
463.6187565
465.5034182
467.4594512
469.4858829
471.5815958
473.7449015
475.9738262
478.2657408
480.6176338
483.0262741
485.4874015
487.9968648
490.5494645
493.1399431
495.7619681
498.4096534
501.0762658
503.7549708
506.4395111
509.1240026
511.8034156
437.4711526
437.5355391
437.673884
437.8793647
438.1488535
438.4796455
438.8704043
439.3196729
439.8264168
440.3902427
441.010885
441.6883035
442.4230834
443.2157843
444.0671002
444.9780671
445.9498719
446.9837069
448.0808427
449.2424288
450.4695993
451.7636728
453.1256396
454.556021
456.0558793
457.6253711
459.2650629
460.9747147
462.7539943
464.6024799
466.5192752
468.5029358
470.5518511
472.6640538
474.8370825
477.0682301
479.3539861
481.6908449
484.0747284
486.5008829
488.964637
491.4605517
493.9829754
496.525829
499.0831528
501.6484335
504.2158943
506.7794455
509.3343036
511.8763596
437.646734
437.7130115
437.8554422
438.0670568
438.3444411
438.6854189
439.0884452
439.5518154
440.0751453
440.657459
441.2990476
441.9997419
442.7599234
443.5803635
444.4618028
445.4051194
446.4113199
447.4814427
448.6165744
449.8176882
451.0857603
452.4212868
453.8250979
455.2975747
456.8388005
458.4488392
460.1274969
461.8737685
463.6870306
465.5661029
467.509289
469.5145482
471.579683
473.7019473
475.8783471
478.1054174
480.3791539
482.6955611
485.0501469
487.4378633
489.8537045
492.2922792
494.7476585
497.2144353
499.6864133
502.1582077
504.6238717
507.0788811
509.5185052
511.9398523
437.825631
437.8938864
438.04059
438.2584663
438.5442427
438.8958401
439.3114225
439.789657
440.3299299
440.9315969
441.5945703
442.3191183
443.1054923
443.9541636
444.8660065
445.8418103
446.8824257
447.9887244
449.1615201
450.4012323
451.7087506
453.0844508
454.5282168
456.0403113
457.6201699
459.267511
460.9812478
462.7601478
464.6028823
466.5076335
468.4720384
470.493577
472.5694173
474.6962674
476.8706636
479.0886241
481.3458486
483.637845
485.9599421
488.3070702
490.6739771
493.0554468
495.445708
497.8395802
500.2316124
502.6163349
504.9891702
507.3455729
509.6819684
511.9959111
438.007918
438.0782308
438.2292697
438.4536474
438.7482516
439.1108578
439.5393572
440.0330283
440.5906593
441.212235
441.8971887
442.6458837
443.458699
444.3360952
445.2786351
446.2869825
447.3617946
448.5037356
449.7133176
450.9909803
452.3367605
453.7506439
455.2325413
456.7816532
458.3974384
460.0787953
461.8240349
463.6316573
465.4996678
467.4255767
469.4065575
471.4396667
473.5214752
475.6483497
477.816335
480.0211801
482.2583293
484.5230158
486.8105511
489.1158783
491.4336859
493.7589143
496.0864284
498.4109099
500.7275514
503.0317312
505.318947
507.5855055
509.8285488
512.0459743
480.9060415
483.1204888
485.3558492
487.6074799
489.8704195
492.1397508
494.4101293
496.6770477
498.9357554
501.1817289
503.4106154
505.618831
507.8031345
509.9611153
512.0910987
)
;

boundaryField
{
    front_top
    {
        type            wedge;
    }
    front_middle
    {
        type            wedge;
    }
    front_bottom
    {
        type            wedge;
    }
    back_top
    {
        type            wedge;
    }
    back_middle
    {
        type            wedge;
    }
    back_bottom
    {
        type            wedge;
    }
    axis_top
    {
        type            symmetryPlane;
    }
    axis_middle
    {
        type            symmetryPlane;
    }
    axis_bottom
    {
        type            symmetryPlane;
    }
    wall_top
    {
        type            convectiveRadiativeHeatFlux;
        mode            convectiveRadiative;
        kappaMethod     fluidThermo;
        kappa           none;
        alphaAni        Anialpha;
        h               uniform 165;
        Ta              constant 513.15;
        emissivityNozzle 0.95;
        emissivityFilament 0.95;
        dNozzle         2;
        dFilament       1.65;
        refValue        uniform 513.15;
        refGradient     nonuniform List<scalar> 10(5206.232037 5139.451639 5049.772824 4927.84074 4760.506993 4530.080689 4208.884116 3755.208042 3096.316404 2078.43897);
        valueFraction   nonuniform List<scalar> 10(0.003177837955 0.003177131297 0.003176409896 0.003175628905 0.003174791866 0.003174740094 0.003175833689 0.003179898466 0.003190226213 0.003214105648);
        value           nonuniform List<scalar> 10(455.8930379 456.7601123 457.9221362 459.4928985 461.6284054 464.5430076 468.5354837 474.0371527 481.7262916 492.8910255);
    }
    wall_middle
    {
        type            fixedValue;
        value           uniform 513.15;
    }
    wall_bottom
    {
        type            fixedValue;
        value           nonuniform 0();
    }
    inlet
    {
        type            fixedValue;
        value           nonuniform 0();
    }
    outlet
    {
        type            zeroGradient;
    }
    procBoundary5to4
    {
        type            processor;
        value           nonuniform List<scalar> 
51
(
438.1936033
438.2659464
438.4214769
438.6527279
438.956448
439.3301717
439.7722098
440.2815631
440.8571676
441.4987962
442.206358
442.9796432
443.8191373
444.7252581
445.6984499
446.7392004
447.8479653
449.025135
450.2707527
451.58489
452.967495
454.4179503
455.9355991
457.519437
459.1683323
460.880383
462.6538228
464.4864767
466.3758269
468.3188207
470.3122681
472.3527695
474.4364854
476.5595041
478.7174834
478.7174834
481.7460796
483.9357459
486.1405628
488.355576
490.5761632
492.7975413
495.0149653
497.2239541
499.4200765
501.5994178
503.7582567
505.8933282
508.0018345
510.0818565
512.1320823
)
;
    }
    procBoundary5to6
    {
        type            processor;
        value           nonuniform List<scalar> 
51
(
434.0808429
434.1188882
434.3686885
434.3686885
434.4905838
434.6491421
434.8419926
435.0669119
435.3215399
435.6039365
435.9122821
436.24459
436.5988601
436.973742
437.3673326
437.778139
438.2048733
438.645694
439.0997865
439.5653652
440.041721
440.527295
441.0213874
441.5226432
442.0303997
442.5433962
443.0611151
443.5823265
444.1066439
444.6327839
445.160517
445.6885247
446.2166514
446.7436771
447.2693279
447.7925851
448.3130785
448.8299202
449.3426756
449.850614
450.3533569
450.8502961
451.341117
451.8253387
452.3028441
452.7732494
453.2367505
453.6930226
454.1425651
454.5850464
455.021258
)
;
    }
}


// ************************************************************************* //
