/*--------------------------------*- C++ -*----------------------------------*\
  =========                 |
  \\      /  F ield         | OpenFOAM: The Open Source CFD Toolbox
   \\    /   O peration     | Website:  https://openfoam.org
    \\  /    A nd           | Version:  7
     \\/     M anipulation  |
\*---------------------------------------------------------------------------*/
FoamFile
{
    version     2.0;
    format      ascii;
    class       volScalarField;
    location    "0.0015";
    object      thermo:mu;
}
// * * * * * * * * * * * * * * * * * * * * * * * * * * * * * * * * * * * * * //

dimensions      [1 -1 -1 0 0 0 0];

internalField   nonuniform List<scalar> 
1167
(
417276.4137
415589.8061
410094.3583
408413.7806
404840.4547
399629.2284
392965.3564
385031.3212
376014.2039
366095.5058
355439.1772
344207.3418
332564.5504
320636.3163
308545.6378
296415.0695
284324.753
272367.4713
260606.7154
249100.7917
237897.1559
227028.6307
216527.021
206407.1352
196686.8456
187370.1899
178462.611
169961.3372
161862.4927
154160.4849
146844.2853
139907.194
133332.9173
127115.2858
121235.5963
115685.8127
110448.4801
105513.3755
100865.4581
96492.50404
92380.90473
88517.60265
84890.41056
81485.81976
78292.17984
75296.02816
72485.56788
69848.14402
67371.83832
65045.04473
62855.16856
60792.32498
403102.2811
401423.3938
397854.2003
392649.8162
385995.9597
378077.9926
369085.9126
359189.2336
348559.6392
337366.6659
325761.7
313873.4695
301835.7136
289751.9856
277714.9025
265814.8315
254107.4018
242663.7609
231514.0099
220707.3146
210257.9248
200197.1543
190526.8905
181265.2401
172405.4216
163953.4494
155900.7181
148243.3069
140972.5354
134076.8052
127549.0821
121373.2087
115542.0441
110039.143
104854.586
99975.54227
95388.74784
91083.8343
87045.84314
83266.47255
79730.01764
76427.36881
73343.93859
70469.33317
67789.66019
65293.87981
62967.41121
60799.1287
58774.10978
56881.59072
396287.0165
394605.3178
391030.7276
385819.3356
379158.6959
371242.1289
362243.862
352343.1209
341713.5517
330530.46
318930.3179
307053.8499
295032.8381
282962.9557
270951.3152
259069.3427
247389.9765
235966.0454
224843.8879
214057.2894
203634.0416
193590.9834
183944.7712
174696.741
165857.1224
157417.4825
149380.1163
141735.2243
134475.4642
127593.9331
121076.7836
114917.313
109101.3423
103618.1608
98458.61075
93608.18824
89058.36026
84796.77737
80812.35333
77096.16149
73634.83041
70419.79718
67438.27711
64679.9646
62132.23532
59782.81857
57618.48964
55625.58302
53789.30776
52095.58945
389636.3506
387947.1874
384357.3527
379125.5409
372447.4952
364501.8268
355472.8446
345541.0778
334890.6763
323678.4356
312051.2624
300159.2874
288115.5931
276031.1766
264004.7704
252108.6601
240419.8917
228982.8581
217852.2883
207053.2532
196619.0904
186564.2321
176902.5148
167642.3465
158782.2113
150328.7589
142271.8249
134608.0916
127331.6026
120430.6573
113898.5795
107724.3839
101896.5991
96407.54351
91245.06564
86398.41015
81859.78041
77618.29254
73663.81297
69988.81671
66583.0087
63436.85996
60542.63446
57888.51743
55465.25422
53260.91828
51262.90556
49457.28625
47828.40522
46359.19181
383139.0294
381437.6129
377825.1332
372563.7154
365840.9096
357843.918
348759.0241
338773.9487
328067.2678
316794.5401
305113.8157
293166.4232
281065.7883
268935.8149
256856.0486
244917.291
233177.4256
221699.7599
210518.9494
199679.4997
189197.6019
179099.6383
169392.8884
160084.9995
151183.0187
142681.5216
134579.864
126873.7018
119553.5238
112612.49
106043.4221
99834.81786
93977.29925
88462.92037
83281.15486
78422.31811
73877.58827
69639.56052
65699.1227
62048.10121
58678.97924
55585.71887
52759.77708
50193.63061
47880.32008
45809.79499
43971.59757
42353.65982
40939.88464
39712.75506
376788.9508
375072.7731
371426.8671
366114.2769
359327.5686
351256.5634
342090.8411
332027.2756
321230.0086
309865.0262
298100.856
286060.9555
273877.7345
261659.107
249497.3511
237475.6449
225657.4999
214099.3193
202844.9861
191925.4859
181373.7171
171200.4729
161422.5331
152047.4967
143075.9623
134510.3337
126348.4431
118583.3376
111208.9553
104220.0473
97607.301
91361.06392
85472.47629
79932.62889
74733.37278
69864.80737
65318.38661
61085.74963
57159.05345
53531.18657
50195.61875
47146.57377
44378.43222
41886.05607
39664.51416
37708.43265
36012.13212
34566.1843
33358.76869
32372.7883
370577.0298
368838.6776
365146.4317
359767.3778
352897.3287
344729.3116
335465.1642
325285.9512
314367.7717
302887.8026
290998.0866
278834.2961
266534.043
254192.2877
241919.126
229779.7415
217854.4057
206187.2339
194828.2537
183810.9749
173158.0198
162894.3508
153028.7496
143568.985
134521.4313
125886.5903
117660.8168
109840.2969
102419.7845
95393.89974
88753.29333
82489.48728
76593.72206
71056.63277
65868.92527
61021.24286
56504.07629
52308.53254
48426.00126
44848.33351
41568.36231
38579.88308
35877.66204
33457.96756
31318.20703
29457.18565
27874.37465
26568.52853
25536.02121
24766.60648
364490.1125
362724.5139
358975.2527
353514.2827
346541.292
338259.2471
328864.1663
318540.9435
307474.6761
295845.4814
283797.9008
271485.9082
259028.7848
246542.2406
234117.6391
221841.2057
209772.5817
197978.1946
186493.2813
175355.7663
164595.5763
154228.176
144268.3753
134727.8089
125610.0689
116915.929
108644.5478
100793.1183
93356.87972
86329.03744
79702.29582
73468.19511
67616.96572
62139.05726
57023.5117
52259.59982
47836.28296
43742.27471
39967.44654
36500.6945
33331.85036
30452.16842
27854.52055
25533.08237
23485.20514
21711.59086
20216.28149
19007.59172
18096.12612
17490.30129
358520.7931
356722.7917
352905.7636
347347.3642
340255.1575
331835.2744
322280.4517
311785.2419
300547.6286
288732.3456
276501.4117
264005.7592
251365.8133
238702.8628
226106.5853
213663.1893
201441.5195
189494.4465
177874.077
166612.5611
155737.395
145270.6566
135230.8767
125625.0682
116459.8184
107738.1242
99460.35716
91624.10175
84224.59595
77255.81008
70709.77431
64577.23712
58847.6716
53510.32241
48552.1942
43959.56251
39719.64692
35817.57804
32238.93912
28968.89701
25993.69099
23299.33033
20873.61928
18706.21766
16789.5554
15120.60171
13703.22079
12550.6486
11689.44284
11162.49904
352662.6885
350826.9454
346931.3741
341262.0195
334034.3527
325448.2731
315708.3098
305020.0676
293576.166
281545.9433
269107.8125
256396.1004
243553.6459
230683.9054
217899.6353
205273.1776
192880.0694
180781.5282
169020.3546
157635.7351
146660.3121
136116.203
126019.3302
116381.9892
107211.9143
98513.50156
90287.35794
82531.27283
75240.89196
68409.07193
62028.53151
56086.53341
50570.76182
45468.5393
40763.03213
36439.14773
32478.22661
28862.4041
25573.12421
22591.03257
19896.78329
17471.46983
15296.6475
13355.31114
11631.87275
10114.44277
8796.776056
7683.19432
6798.852186
6216.69868
347120.5188
345268.8454
341339.8554
335624.8194
328330.986
319666.2937
309837.1383
299058.7125
287509.3406
275374.8114
262823.5158
249999.9385
237042.3379
224064.1947
211165.1949
198437.7204
185948.2525
173758.6469
161923.3168
150478.9003
139458.0529
128886.3015
118783.2259
109162.4776
100033.571
91401.5203
83267.34284
75629.31775
68481.99381
61819.58635
55629.26519
49899.05555
44614.40884
39758.20991
35312.22675
31256.98896
27571.04619
24233.05267
21220.58686
18510.93996
16081.37058
13909.12119
11971.55002
10246.41515
8711.677685
7345.243164
6124.884433
5028.261738
4033.214073
3120.344928
341826.5693
339978.6978
336053.9587
330338.3582
323042.2867
314373.0084
304543.0858
293753.2174
282188.022
270040.5007
257464.7565
244619.7563
231630.4802
218625.797
205697.7065
192939.2651
180427.4368
168220.8538
156372.8579
144927.2514
133920.12
123377.5748
113320.2851
103763.7697
94718.84937
86191.54864
78183.15652
70690.77828
63708.45717
57228.14638
51236.32099
45718.68603
40657.36899
36034.20215
31826.97187
28013.34109
24570.21658
21473.35306
18698.12542
16219.98133
14014.86392
12058.75718
10328.92041
8803.229527
7460.751535
6282.017544
5248.896346
4345.084643
3556.040904
2868.897251
336550.4558
334701.4351
330773.4124
325052.0434
317747.3177
309066.8834
299227.4977
288417.7105
276833.3446
264660.7611
252056.9197
239183.0717
226165.5375
213128.1435
200175.9019
187395.603
174866.8297
162657.284
150818.5411
139396.6233
128428.6086
117944.2205
107965.754
98510.011
89587.42934
81203.49408
73359.98519
66053.0348
59273.97252
53012.40873
47252.64549
41977.66444
37166.734
32797.54879
28846.18149
25287.39444
22095.16061
19243.08284
16704.65633
14453.65235
12465.07866
10714.2616
9178.07633
7834.605666
6663.420756
5645.681962
4764.161467
4003.237868
3348.823208
2788.010143
331283.8028
329430.5164
325493.1413
319757.5324
312433.7242
303736.5824
293868.4379
283025.6563
271411.9722
259199.9854
246562.2684
233647.0918
220597.3487
207526.9173
194549.6573
181756.0691
169224.1426
157022.8557
145210.3804
133835.5415
122935.4768
112540.826
102675.2463
93356.96754
84594.64548
76393.22063
68751.39835
61665.48089
55122.77401
49110.17937
43608.45526
38598.14379
34054.5153
29951.951
26263.68972
22961.90446
20017.93148
17403.43591
15090.49519
13051.92939
11261.52193
9694.514383
8327.649939
7139.137641
6108.965761
5218.842777
4452.022134
3793.465066
3229.533962
2747.913309
326025.2125
324164.8753
320212.4976
314454.7286
307105.5764
298377.1676
288468.6582
277584.921
265927.2599
253666.684
240986.6418
228028.3632
214940.5244
201842.9271
188844.1829
176043.9209
163523.56
151352.289
139590.3741
128287.4118
117483.8336
107210.8517
97492.37368
88343.95942
79775.23001
71789.75151
64382.28474
57545.04591
51263.90467
45520.97202
40294.06342
35559.42725
31289.35081
27454.95313
24026.72235
20974.11322
18266.78275
15875.00951
13769.43218
11922.41631
10307.50018
8900.055332
7676.938729
6617.016196
5700.999486
4911.311096
4232.120233
3649.241954
3149.923832
2722.723836
320773.7468
318903.928
314931.5372
309145.2767
301765.1906
292992.195
283033.4612
272102.8862
260388.866
248079.2555
235345.1056
222345.4745
209217.1483
196096.4858
183089.5449
170295.2846
157799.9104
145677.8197
133990.4195
122787.5761
112109.9959
101990.1872
92450.90047
83505.46514
75161.00868
67417.90933
60269.5428
53702.25854
47699.41363
42238.34165
37293.69741
32837.16551
28838.43055
25265.87092
22087.25235
19270.29366
16783.14788
14594.81839
12675.99271
10998.67018
9536.743558
8265.869811
7163.908232
6210.491202
5387.286631
4677.777395
4067.206783
3542.42296
3091.739476
2704.756063
315528.8726
313647.4807
309650.7498
303836.3687
296411.4618
287585.9483
277572.671
266584.1046
254807.4916
242444.2352
229655.2669
216613.597
203455.8774
190313.9822
177309.508
164539.1077
152091.1218
140041.2985
128452.6773
117376.9804
106854.5669
96916.33149
87582.66735
78867.1627
70772.33925
63293.53478
56421.95389
50138.59672
44423.03111
39248.62253
34586.08715
30403.61158
26668.11095
23345.73991
20402.11884
17803.67692
15517.72534
13513.14771
11760.57434
10232.22507
8902.864304
7748.895626
6749.115543
5884.447681
5137.605404
4493.250247
3937.7716
3459.121538
3046.652679
2690.968016
310290.4305
308397.413
304378.0817
298523.2685
291047.6065
282163.2826
272093.0831
261037.5687
249200.8528
236775.685
223938.9138
210852.5388
197672.515
184526.6981
171535.2478
158803.2258
146423.1203
134469.2239
123005.4931
112083.1894
101743.3333
92014.22201
82913.04189
74448.7048
66622.51336
59424.62563
52840.60107
46848.29721
41422.85891
36533.52236
32147.41615
28229.82293
24745.43396
21658.28469
18932.84746
16534.81415
14431.18923
12591.2283
10985.66901
9587.861751
8373.212415
7319.483895
6406.522652
5616.51302
4933.353578
4342.890879
3832.644141
3391.643851
3010.218469
2679.879892
305064.7864
303157.8349
299107.4849
293208.2613
285677.283
276734.3383
266598.238
255472.7648
243575.3432
231088.0953
218206.7381
205088.1879
191889.5497
178752.5922
165794.368
153122.8559
140830.7259
128995.6279
117681.4588
106938.304
96804.33392
87304.91252
78456.89958
70262.82281
62718.31614
55811.1602
49520.60521
43821.03444
38683.06698
34072.34973
29952.92105
26287.88946
23039.87762
20171.53081
17646.82509
15431.10876
13491.85353
11798.57803
10322.96721
9039.439633
7924.454699
6957.078572
6118.418604
5391.87087
4762.517202
4217.376368
3745.042151
3335.460164
2979.876888
2670.665014
299846.9306
297924.094
293840.53
287893.9947
280304.538
271302.5223
261095.8284
249904.9414
237942.188
225403.1506
212475.9114
199335.5359
186134.9705
173016.7487
160108.0398
147517.0011
135335.9714
123643.0857
112501.1634
101959.8543
92054.63612
82806.24356
74225.57882
66314.44014
59061.00185
52449.04972
46452.68416
41042.88048
36185.64851
31843.69875
27978.62116
24551.7146
21524.07372
18857.77287
16516.56885
14466.02087
12674.29338
11111.60584
9750.855174
8567.582051
7539.535878
6647.011645
5872.44612
5200.355586
4617.037453
4110.587421
3670.476121
3287.63214
2954.052236
2662.818837
294636.8003
292697.343
288579.1051
282583.4307
274940.9379
265871.3152
255593.7999
244340.3885
232313.6684
219728.7502
206767.1414
193612.0623
180424.3913
167345.8461
154505.0421
142013.3135
129964.4835
118435.9841
107488.736
97169.05042
87508.00337
78525.67401
70226.2118
62604.75999
55647.19191
49330.33962
43624.85385
38498.12588
33911.82122
29826.39941
26201.71022
22997.48111
20173.9474
17693.13944
15518.91914
13617.59675
11958.12136
10511.79317
9252.71283
8157.676621
7205.785052
6378.544611
5659.710116
5034.804995
4491.337785
4018.235019
3605.998671
3246.203273
2931.660234
2656.012595
289435.4996
287479.0289
283325.386
277283.8833
269583.844
260446.9778
250105.3871
238787.3487
226707.2702
214078.5857
201096.3669
187939.7006
174776.0612
161754.455
149002.047
136630.9649
124735.0671
113390.2826
102655.5833
92575.95529
83175.95952
74469.30547
66458.48198
59131.34347
52469.47452
46444.35597
41023.68356
36170.07086
31842.82301
28000.35384
24601.12231
21603.80246
18968.46423
16657.31535
14634.75831
12868.02105
11327.0454
9984.466537
8815.614548
7798.527374
6913.679643
6143.759884
5473.685752
4890.073647
4381.335627
3937.410552
3549.449023
3209.847412
2911.965319
2650.02121
284244.4019
282270.8613
278084.7779
271997.8032
264238.0239
255035.879
244635.3509
233255.8102
221131.5936
208468.0613
195475.4313
182334.6782
169213.9497
156264.4133
143618.0999
131386.9959
119663.9566
108522.4382
98018.38018
88189.97704
79061.09405
70639.68198
62920.16032
55888.37128
49518.49239
43779.0231
38633.92513
34041.94803
29960.51097
26346.65768
23157.68788
20351.78775
17889.32714
15732.918
13847.90891
12202.51801
10767.88705
9517.985676
8429.40149
7481.454107
6655.910833
5936.623407
5309.484699
4762.240595
4284.136147
3865.850002
3499.336206
3177.569216
2894.443949
2644.684827
11609.04852
10269.92595
9102.972613
8086.040055
7199.684457
6426.773738
5752.429593
5163.435716
4648.404532
4197.43844
3801.972655
3454.522679
3148.638423
2878.71024
2639.886324
)
;

boundaryField
{
    front_top
    {
        type            wedge;
    }
    front_middle
    {
        type            wedge;
    }
    front_bottom
    {
        type            wedge;
    }
    back_top
    {
        type            wedge;
    }
    back_middle
    {
        type            wedge;
    }
    back_bottom
    {
        type            wedge;
    }
    axis_top
    {
        type            symmetryPlane;
    }
    axis_middle
    {
        type            symmetryPlane;
    }
    axis_bottom
    {
        type            symmetryPlane;
    }
    wall_top
    {
        type            calculated;
        value           nonuniform List<scalar> 10(59801.67683 55979.60017 51299.03772 45685.11388 39173.62876 31973.42373 24499.79524 17335.53827 11089.75182 6193.439749);
    }
    wall_middle
    {
        type            calculated;
        value           uniform 2530.329233;
    }
    wall_bottom
    {
        type            calculated;
        value           nonuniform 0();
    }
    inlet
    {
        type            calculated;
        value           nonuniform 0();
    }
    outlet
    {
        type            calculated;
        value           nonuniform 0();
    }
    procBoundary5to4
    {
        type            processor;
        value           nonuniform List<scalar> 
51
(
279066.7751
277079.1268
272861.0042
266725.7101
258908.4085
249650.1379
239189.6991
227759.403
215595.8043
202914.1929
189920.1039
176808.9641
163748.7905
150891.9763
138371.3093
126298.5248
114764.7682
103840.946
93580.51977
84016.86537
75166.50329
67033.35898
59607.03969
52866.90183
46783.16424
41321.25144
36440.352
32097.31446
28247.81663
24847.88918
21854.12803
19224.8061
16920.76297
14905.33463
13144.98913
13144.98913
11077.5745
9824.447928
8731.839546
7779.057035
6947.744854
6221.904657
5587.574938
5032.562147
4546.308588
4119.604334
3744.503988
3414.123005
3122.508353
2864.472289
2635.53753
)
;
    }
    procBoundary5to6
    {
        type            processor;
        value           nonuniform List<scalar> 
51
(
424666.9373
422967.7116
412003.1609
412003.1609
406771.7418
400080.8441
392112.9367
383049.8419
373079.3832
362369.4148
351077.694
339359.9014
327361.3208
315194.1539
302977.6605
290805.883
278756.0498
266909.9589
255311.3024
244020.0469
233060.997
222471.8857
212264.6686
202459.7938
193059.0218
184071.5062
175489.7956
167315.9023
159536.1731
152148.8739
145135.8249
138492.7502
132199.6654
126249.3123
120623.1397
115310.8673
110295.5215
105565.5551
101105.4675
96902.90003
92943.07618
89213.75242
85701.13442
82393.42295
79277.13521
76341.43416
73572.75402
70961.63649
68494.78579
66164.46256
63957.81597
)
;
    }
}


// ************************************************************************* //
