/*--------------------------------*- C++ -*----------------------------------*\
  =========                 |
  \\      /  F ield         | OpenFOAM: The Open Source CFD Toolbox
   \\    /   O peration     | Website:  https://openfoam.org
    \\  /    A nd           | Version:  7
     \\/     M anipulation  |
\*---------------------------------------------------------------------------*/
FoamFile
{
    version     2.0;
    format      ascii;
    class       volVectorField;
    location    "0.0015";
    object      U;
}
// * * * * * * * * * * * * * * * * * * * * * * * * * * * * * * * * * * * * * //

dimensions      [0 1 -1 0 0 0 0];

internalField   nonuniform List<vector> 
1167
(
(-8.687533275e-06 -8.794320124e-20 -0.002320178778)
(-2.247128222e-05 -2.485794121e-19 -0.002319814615)
(-1.007679647e-05 7.646244637e-20 -0.002346257683)
(-2.605746009e-05 2.339246692e-19 -0.002345842147)
(-4.10334556e-05 1.859578688e-19 -0.002345295977)
(-5.65138655e-05 4.119100162e-19 -0.002344380199)
(-7.163780297e-05 4.854343551e-19 -0.002343134687)
(-8.632707576e-05 -2.82924328e-20 -0.002341555525)
(-0.0001005716484 -2.94057781e-19 -0.002339623646)
(-0.000114338341 -4.894607469e-19 -0.002337320362)
(-0.0001275966889 -4.765473938e-19 -0.002334626927)
(-0.0001403192729 -5.309298552e-19 -0.002331524622)
(-0.0001524791554 -4.446692384e-19 -0.002327995666)
(-0.0001640494262 -5.195684566e-19 -0.002324024334)
(-0.0001750036499 -5.911704004e-19 -0.002319597323)
(-0.0001853153998 -5.569425465e-19 -0.002314703907)
(-0.0001949583896 -5.720353261e-19 -0.002309336659)
(-0.0002039067559 -6.116618214e-19 -0.00230349117)
(-0.0002121346514 -5.627765546e-19 -0.002297166346)
(-0.0002196168225 -5.498883493e-19 -0.002290364551)
(-0.0002263281577 -5.451750002e-19 -0.002283091325)
(-0.000232244189 -4.600562249e-19 -0.002275355718)
(-0.0002373407473 -3.984244027e-19 -0.002267169919)
(-0.0002415943906 -3.442057887e-19 -0.002258549594)
(-0.0002449821599 -2.822785647e-19 -0.002249513551)
(-0.0002474819957 -1.958949795e-19 -0.002240084118)
(-0.0002490726017 -1.159029378e-19 -0.002230286929)
(-0.0002497339221 -8.040111949e-20 -0.00222015126)
(-0.0002494471862 -1.093195185e-20 -0.002209709955)
(-0.0002481954727 5.406043364e-20 -0.002198999793)
(-0.0002459639589 1.400803955e-19 -0.002188061555)
(-0.0002427406562 1.918540288e-19 -0.002176940369)
(-0.0002385169373 2.523680953e-19 -0.00216568577)
(-0.000233288427 3.130078591e-19 -0.002154351914)
(-0.0002270558238 3.333796238e-19 -0.002142997584)
(-0.0002198258849 3.75129138e-19 -0.00213168599)
(-0.0002116124235 3.787707724e-19 -0.002120484528)
(-0.0002024373771 3.986411584e-19 -0.002109464011)
(-0.0001923316594 4.313415573e-19 -0.002098697994)
(-0.0001813360349 4.738522286e-19 -0.002088261491)
(-0.0001695015206 4.931464805e-19 -0.002078229722)
(-0.0001568897438 5.350395473e-19 -0.002068676552)
(-0.000143572615 5.528588181e-19 -0.002059673126)
(-0.0001296317807 5.520772818e-19 -0.002051286429)
(-0.000115157482 5.548038685e-19 -0.002043578225)
(-0.0001002471969 5.598102217e-19 -0.002036604198)
(-8.50038559e-05 5.664033821e-19 -0.002030413502)
(-6.953390667e-05 5.732013398e-19 -0.002025048631)
(-5.39452829e-05 5.799696849e-19 -0.002020545816)
(-3.834810369e-05 5.889669934e-19 -0.002016935386)
(-2.285522463e-05 6.014935186e-19 -0.002014240955)
(-7.566148103e-06 6.209429761e-19 -0.002012479972)
(-1.162514978e-05 -1.211590944e-19 -0.002375923307)
(-3.005260186e-05 -4.415399114e-19 -0.002375451586)
(-4.732402191e-05 3.157540333e-19 -0.00237482728)
(-6.51853227e-05 6.610358823e-19 -0.002373781807)
(-8.263559662e-05 4.381865704e-19 -0.002372362403)
(-9.959092249e-05 -5.26233934e-20 -0.002370564891)
(-0.0001160413969 -3.199217851e-19 -0.002368368444)
(-0.0001319507148 -5.006392986e-19 -0.002365752891)
(-0.0001472865804 -5.406608808e-19 -0.002362697546)
(-0.0001620202285 -5.964680214e-19 -0.002359181449)
(-0.0001761234283 -4.782595708e-19 -0.002355184562)
(-0.0001895685089 -5.527718757e-19 -0.002350688968)
(-0.0002023282461 -6.567435121e-19 -0.00234567889)
(-0.0002143753123 -6.339526951e-19 -0.002340141308)
(-0.0002256828122 -6.460924474e-19 -0.0023340664)
(-0.0002362237801 -6.647182255e-19 -0.002327447293)
(-0.0002459714304 -6.440716924e-19 -0.002320280622)
(-0.0002548989971 -6.151999184e-19 -0.002312566119)
(-0.0002629797336 -6.020009452e-19 -0.002304307032)
(-0.0002701869045 -5.011584901e-19 -0.002295509711)
(-0.0002764936579 -4.226994531e-19 -0.002286183919)
(-0.000281873064 -3.764871551e-19 -0.002276342577)
(-0.0002862980281 -3.242468223e-19 -0.002266002016)
(-0.0002897412551 -2.764911984e-19 -0.002255181876)
(-0.000292175355 -1.892522089e-19 -0.002243905505)
(-0.0002935728454 -1.37001108e-19 -0.002232199877)
(-0.0002939064001 -7.738918662e-20 -0.002220096124)
(-0.0002931489959 2.712224033e-20 -0.002207629684)
(-0.0002912743694 1.213241653e-19 -0.002194840985)
(-0.0002882575131 1.924901101e-19 -0.002181775706)
(-0.0002840754213 2.702362795e-19 -0.002168485501)
(-0.0002787079389 3.576991433e-19 -0.002155028335)
(-0.0002721389685 4.228932189e-19 -0.002141468953)
(-0.0002643576748 4.257818636e-19 -0.002127879199)
(-0.0002553602672 4.217115801e-19 -0.002114337861)
(-0.0002451515122 4.342401322e-19 -0.002100930528)
(-0.0002337467085 4.612324895e-19 -0.002087748715)
(-0.0002211735077 5.009416688e-19 -0.002074888804)
(-0.0002074735342 5.185627523e-19 -0.0020624503)
(-0.0001927040113 5.469516443e-19 -0.002050533932)
(-0.0001769384802 5.504699878e-19 -0.002039239461)
(-0.0001602671952 5.552646189e-19 -0.002028663112)
(-0.0001427965212 5.565546909e-19 -0.002018895621)
(-0.0001246475746 5.67977879e-19 -0.002010020095)
(-0.0001059539287 5.768345106e-19 -0.002002110842)
(-8.685850725e-05 5.780801656e-19 -0.001995232553)
(-6.751063125e-05 5.862928597e-19 -0.001989440593)
(-4.806581472e-05 5.942340075e-19 -0.001984781197)
(-2.868169651e-05 6.029987706e-19 -0.00198128988)
(-9.496931824e-06 6.107138327e-19 -0.001978993578)
(-1.333737237e-05 -2.383006505e-19 -0.002409491256)
(-3.446854758e-05 -8.499354053e-19 -0.002408958154)
(-5.427640495e-05 -2.064575423e-19 -0.002408246958)
(-7.476930428e-05 -1.134681922e-20 -0.002407058147)
(-9.478961629e-05 5.82645269e-20 -0.002405447434)
(-0.0001142481141 -2.234608784e-19 -0.002403410573)
(-0.000133135215 -4.054214147e-19 -0.002400925503)
(-0.0001514115722 -5.710470047e-19 -0.00239797079)
(-0.0001690432333 -5.81495552e-19 -0.002394523979)
(-0.000186000227 -5.697304125e-19 -0.002390562065)
(-0.0002022537653 -4.399480025e-19 -0.002386063233)
(-0.0002177761423 -5.61341417e-19 -0.002381007292)
(-0.0002325398751 -6.210821298e-19 -0.002375376103)
(-0.0002465179106 -6.857497511e-19 -0.002369154519)
(-0.0002596835086 -7.156332519e-19 -0.002362330074)
(-0.0002720098059 -7.294167984e-19 -0.002354893467)
(-0.0002834701791 -7.112976301e-19 -0.00234683859)
(-0.0002940375904 -6.661261624e-19 -0.002338162322)
(-0.0003036849695 -5.909306098e-19 -0.002328864849)
(-0.0003123845743 -5.423987679e-19 -0.002318949225)
(-0.0003201082396 -4.38036639e-19 -0.002308421687)
(-0.0003268268251 -4.323507371e-19 -0.002297291296)
(-0.0003325103067 -3.753981662e-19 -0.002285570281)
(-0.000337127335 -3.353356397e-19 -0.002273273882)
(-0.0003406452266 -3.079933943e-19 -0.00226042075)
(-0.0003430298185 -1.921721154e-19 -0.002247033152)
(-0.0003442453318 -1.199242089e-19 -0.00223313726)
(-0.0003442543796 -2.072239299e-20 -0.002218763898)
(-0.0003430181658 6.004356847e-20 -0.002203948985)
(-0.0003404967095 1.744567774e-19 -0.0021887346)
(-0.0003366493936 2.641177757e-19 -0.002173169757)
(-0.0003314358361 3.379398918e-19 -0.002157311425)
(-0.0003248167526 4.074634202e-19 -0.00214122558)
(-0.0003167557153 4.223432312e-19 -0.002124988058)
(-0.0003072209554 4.289965832e-19 -0.002108685546)
(-0.0002961876876 4.521036666e-19 -0.002092415814)
(-0.0002836410816 4.733156898e-19 -0.002076287673)
(-0.0002695794481 4.891379818e-19 -0.002060420633)
(-0.0002540177389 5.107205338e-19 -0.002044943191)
(-0.0002369912456 5.300727079e-19 -0.002029991039)
(-0.0002185589825 5.493743834e-19 -0.002015704015)
(-0.0001988063219 5.69959318e-19 -0.002002222536)
(-0.0001778469604 5.939821054e-19 -0.00198968365)
(-0.0001558227894 5.760430127e-19 -0.00197821693)
(-0.000132902209 5.700713531e-19 -0.001967940739)
(-0.0001092759172 6.084322735e-19 -0.001958959703)
(-8.515275306e-05 6.000270842e-19 -0.001951363882)
(-6.075735091e-05 5.909512887e-19 -0.001945228281)
(-3.631657642e-05 5.720252396e-19 -0.001940609592)
(-1.203105087e-05 5.862281349e-19 -0.00193755163)
(-1.521585152e-05 -2.116832084e-19 -0.002447269112)
(-3.931092698e-05 -7.914342729e-19 -0.002446668909)
(-6.189910577e-05 -1.331150507e-18 -0.002445860646)
(-8.527714571e-05 -6.447612794e-19 -0.002444512957)
(-0.0001081130497 -6.294867188e-19 -0.002442691321)
(-0.0001303131183 -4.802393177e-19 -0.002440391892)
(-0.0001518682306 -4.887540045e-19 -0.002437591807)
(-0.0001727358191 -4.594247004e-19 -0.00243426868)
(-0.0001928802248 -6.318447626e-19 -0.002430398697)
(-0.0002122707584 -6.791323692e-19 -0.002425957498)
(-0.0002308788948 -6.020966833e-19 -0.002420921714)
(-0.0002486772828 -6.661596488e-19 -0.002415269161)
(-0.0002656392173 -6.453895666e-19 -0.002408979888)
(-0.0002817389854 -7.530480651e-19 -0.002402036599)
(-0.0002969509671 -7.984986543e-19 -0.002394424471)
(-0.0003112499557 -8.296967697e-19 -0.002386131853)
(-0.0003246106067 -8.213950982e-19 -0.002377149728)
(-0.0003370074792 -7.930592897e-19 -0.002367472169)
(-0.0003484145521 -7.137395324e-19 -0.002357095732)
(-0.0003588051517 -6.662967398e-19 -0.002346019877)
(-0.0003681514596 -5.883285502e-19 -0.002334246349)
(-0.0003764243264 -5.598226057e-19 -0.002321779542)
(-0.0003835927204 -5.057496879e-19 -0.002308626055)
(-0.0003896234516 -3.72010588e-19 -0.00229479514)
(-0.0003944806778 -2.972343049e-19 -0.002280298489)
(-0.0003981255132 -2.078898737e-19 -0.002265150802)
(-0.0004005155492 -1.288332298e-19 -0.002249370143)
(-0.0004016046235 -2.22495985e-20 -0.00223297834)
(-0.0004013423126 6.108742725e-20 -0.00221600212)
(-0.0003996738124 1.709179173e-19 -0.00219847406)
(-0.0003965401201 2.893365862e-19 -0.002180433892)
(-0.0003918780098 4.006600725e-19 -0.002161930072)
(-0.0003856207447 4.11727226e-19 -0.002143021344)
(-0.000377699211 4.387749312e-19 -0.002123778865)
(-0.0003680435437 4.767434449e-19 -0.00210428825)
(-0.0003565856144 4.743124513e-19 -0.002084650955)
(-0.0003432622777 4.982973034e-19 -0.002064986164)
(-0.0003280200172 5.332907979e-19 -0.002045431943)
(-0.0003108202372 5.24743072e-19 -0.002026145179)
(-0.0002916458178 5.269079404e-19 -0.002007301035)
(-0.0002705087047 5.439231126e-19 -0.001989090535)
(-0.0002474574257 5.602541476e-19 -0.001971716473)
(-0.0002225847206 5.80002885e-19 -0.001955387802)
(-0.0001960330198 5.697388726e-19 -0.001940312)
(-0.0001679969731 5.549490221e-19 -0.001926686516)
(-0.0001387214227 6.046225317e-19 -0.001914691512)
(-0.0001084970249 6.195318455e-19 -0.001904484438)
(-7.765442825e-05 6.245225126e-19 -0.001896195615)
(-4.653121613e-05 6.188606928e-19 -0.00188992152)
(-1.543008358e-05 6.214369257e-19 -0.001885737106)
(-1.726037054e-05 -2.243809981e-19 -0.002489549753)
(-4.457856737e-05 -7.311816982e-19 -0.002488876136)
(-7.018987017e-05 -1.4899879e-18 -0.002487958891)
(-9.670515502e-05 -8.579828334e-19 -0.002486434388)
(-0.0001225998991 -8.816000616e-19 -0.002484379603)
(-0.0001477770425 -6.633208549e-19 -0.002481791403)
(-0.0001722276511 -6.16089687e-19 -0.002478646531)
(-0.0001959055214 -5.593044047e-19 -0.002474922298)
(-0.0002187733482 -7.481794022e-19 -0.002470594263)
(-0.0002408004025 -8.203810736e-19 -0.002465637514)
(-0.000261958818 -8.541557543e-19 -0.002460027488)
(-0.0002822221772 -8.68921832e-19 -0.002453740687)
(-0.0003015657947 -8.313569864e-19 -0.002446755939)
(-0.0003199659804 -9.230372682e-19 -0.002439054048)
(-0.0003373997476 -9.622373365e-19 -0.00243061859)
(-0.0003538447507 -9.779847308e-19 -0.0024214356)
(-0.000369278674 -9.694977367e-19 -0.002411493708)
(-0.0003836792439 -9.704562518e-19 -0.002400784036)
(-0.0003970236184 -9.807659924e-19 -0.002389299861)
(-0.0004092881428 -9.256427384e-19 -0.002377036556)
(-0.0004204478702 -8.027700801e-19 -0.002363991394)
(-0.0004304760483 -7.218575925e-19 -0.002350163171)
(-0.0004393435784 -6.310655796e-19 -0.002335552311)
(-0.0004470184331 -4.869754176e-19 -0.002320160446)
(-0.000453464922 -2.712323235e-19 -0.002303990797)
(-0.0004586428949 -1.909354722e-19 -0.00228704811)
(-0.0004625071723 -4.579881318e-20 -0.002269338977)
(-0.0004650064213 3.361736994e-21 -0.002250872442)
(-0.0004660823255 9.929641436e-20 -0.002231660758)
(-0.00046566889 2.251816081e-19 -0.0022117205)
(-0.0004636914023 3.06954341e-19 -0.002191074136)
(-0.0004600657736 4.302433643e-19 -0.002169751799)
(-0.0004546980127 3.976718212e-19 -0.002147793351)
(-0.0004474839503 4.134899461e-19 -0.002125251532)
(-0.0004383099061 4.465729761e-19 -0.002102195244)
(-0.0004270538197 4.539936219e-19 -0.002078712815)
(-0.0004135874999 4.78330536e-19 -0.002054916098)
(-0.0003977808299 5.147147211e-19 -0.002030944768)
(-0.0003795078855 5.282839688e-19 -0.00200697018)
(-0.0003586553533 5.556831181e-19 -0.001983198363)
(-0.0003351341969 5.390327677e-19 -0.001959871656)
(-0.0003088944701 5.488958302e-19 -0.001937268328)
(-0.0002799424878 5.677855427e-19 -0.001915698023)
(-0.0002483592115 5.870082941e-19 -0.001895492044)
(-0.0002143168375 6.111775211e-19 -0.001876989)
(-0.0001780897873 6.641347138e-19 -0.001860515861)
(-0.000140061132 7.198498221e-19 -0.001846368832)
(-0.000100717038 7.022054092e-19 -0.001834794227)
(-6.057633016e-05 6.925459342e-19 -0.001825970004)
(-2.012240934e-05 6.854387834e-19 -0.001820032789)
(-1.946783631e-05 -1.289690075e-19 -0.002536605341)
(-5.026277767e-05 -4.304185394e-19 -0.002535851383)
(-7.913477643e-05 -6.777987744e-19 -0.002534811177)
(-0.0001090338921 -6.378312503e-19 -0.002533088823)
(-0.000138224138 -7.227520218e-19 -0.002530774927)
(-0.0001666063205 -7.626884671e-19 -0.002527867147)
(-0.0001941711751 -7.550037965e-19 -0.002524342678)
(-0.0002208682534 -8.11504704e-19 -0.002520179347)
(-0.0002466589212 -9.633302299e-19 -0.002515353352)
(-0.0002715128379 -1.079323032e-18 -0.002509839769)
(-0.0002954028371 -1.09586333e-18 -0.002503613538)
(-0.0003183043928 -1.121025068e-18 -0.002496651048)
(-0.0003401955492 -1.140693747e-18 -0.002488930354)
(-0.0003610556156 -1.147690974e-18 -0.002480431306)
(-0.0003808655853 -1.147118465e-18 -0.002471136461)
(-0.0003996071273 -1.157621982e-18 -0.002461030208)
(-0.0004172627032 -1.149808229e-18 -0.002450099498)
(-0.0004338147945 -1.13892197e-18 -0.002438332949)
(-0.0004492458175 -1.13407712e-18 -0.002425721109)
(-0.0004635373571 -1.065527889e-18 -0.002412255587)
(-0.0004766697692 -9.619235663e-19 -0.002397929247)
(-0.0004886215739 -8.597720159e-19 -0.002382735594)
(-0.0004993688119 -7.292203408e-19 -0.002366668334)
(-0.0005088841738 -6.074084243e-19 -0.002349721342)
(-0.0005171361816 -4.192804333e-19 -0.002331888244)
(-0.000524088274 -2.884648026e-19 -0.002313162421)
(-0.0005296974887 -1.181112186e-19 -0.002293537022)
(-0.0005339132617 -1.878582418e-20 -0.002273005182)
(-0.0005366760402 1.351930506e-19 -0.002251560405)
(-0.0005379156116 1.901181035e-19 -0.002229197555)
(-0.0005375491894 2.414002876e-19 -0.002205914091)
(-0.0005354795972 3.122038142e-19 -0.002181711494)
(-0.0005315930633 3.24129533e-19 -0.002156597527)
(-0.0005257569554 3.444790462e-19 -0.002130589456)
(-0.0005178178995 3.718713518e-19 -0.002103718045)
(-0.0005076001438 3.967286222e-19 -0.00207603245)
(-0.0004949045818 4.228091424e-19 -0.002047606458)
(-0.0004795092124 4.465933138e-19 -0.002018546334)
(-0.0004611720841 4.608986508e-19 -0.001989000046)
(-0.0004396375787 4.686182595e-19 -0.001959167877)
(-0.0004146478049 4.504478049e-19 -0.001929313741)
(-0.0003859608296 5.023938544e-19 -0.001899775843)
(-0.0003533777359 5.467066227e-19 -0.001870973307)
(-0.0003167790036 6.105576951e-19 -0.001843404505)
(-0.0002761689071 6.904326115e-19 -0.001817632572)
(-0.000231725309 7.10797955e-19 -0.001794255855)
(-0.0001838545586 7.62714394e-19 -0.001773864442)
(-0.0001332200987 8.112000236e-19 -0.001756976481)
(-8.062117584e-05 7.767460362e-19 -0.001743970692)
(-2.686867618e-05 7.54119796e-19 -0.00173512756)
(-2.183192796e-05 0 -0.002588680919)
(-5.634690279e-05 -1.057158406e-19 -0.002587838251)
(-8.870839633e-05 2.619014618e-20 -0.002586658653)
(-0.0001222287014 -2.345645599e-19 -0.002584713237)
(-0.0001549402497 -4.361535001e-19 -0.002582109136)
(-0.0001867436499 -9.281471691e-19 -0.002578844995)
(-0.000217628367 -8.475666222e-19 -0.002574899444)
(-0.0002475393344 -1.005776954e-18 -0.002570252312)
(-0.0002764368142 -1.220251336e-18 -0.002564881358)
(-0.0003042905256 -1.340434355e-18 -0.002558762511)
(-0.0003310743825 -1.331966264e-18 -0.002551871527)
(-0.0003567665116 -1.388466916e-18 -0.002544185542)
(-0.0003813478715 -1.465501534e-18 -0.00253568267)
(-0.0004048020357 -1.383186632e-18 -0.002526343194)
(-0.0004271145676 -1.35565515e-18 -0.002516149105)
(-0.0004482726445 -1.355460161e-18 -0.00250508454)
(-0.000468264513 -1.340040025e-18 -0.002493135144)
(-0.0004870791714 -1.321139318e-18 -0.002480288392)
(-0.000504705812 -1.275352949e-18 -0.002466532482)
(-0.0005211332733 -1.190366926e-18 -0.002451856472)
(-0.0005363494776 -1.098459824e-18 -0.002436249391)
(-0.0005503407767 -1.016504995e-18 -0.002419700028)
(-0.0005630911948 -9.495175811e-19 -0.002402196308)
(-0.0005745817305 -7.45202682e-19 -0.002383724564)
(-0.0005847892684 -6.077598187e-19 -0.002364269225)
(-0.0005936854093 -4.608603781e-19 -0.002343812349)
(-0.0006012352485 -3.410546883e-19 -0.002322333214)
(-0.0006073959168 -1.693109486e-19 -0.002299807991)
(-0.0006121146967 -1.595702484e-20 -0.002276209582)
(-0.0006153267473 9.112525766e-20 -0.002251507922)
(-0.0006169527029 2.164588522e-19 -0.002225670411)
(-0.0006168956015 2.038751997e-19 -0.002198662341)
(-0.0006150371393 2.256055414e-19 -0.002170448374)
(-0.000611233447 2.561095375e-19 -0.002140994754)
(-0.0006053099656 2.948786538e-19 -0.002110272272)
(-0.0005970558728 3.348018543e-19 -0.00207826085)
(-0.0005862177676 3.653244972e-19 -0.00204495617)
(-0.0005724931046 3.885917788e-19 -0.002010379105)
(-0.0005555243397 4.008949878e-19 -0.001974589033)
(-0.0005348946319 3.896157603e-19 -0.001937701892)
(-0.0005101276991 3.564468259e-19 -0.001899913901)
(-0.0004806954235 4.449082841e-19 -0.001861530853)
(-0.000446039112 5.017908583e-19 -0.001823001069)
(-0.0004056117079 5.608319977e-19 -0.001784948591)
(-0.0003589490407 6.369417918e-19 -0.001748199744)
(-0.0003057799519 6.996491071e-19 -0.001713789704)
(-0.0002461892925 7.706698366e-19 -0.001682915573)
(-0.0001807845453 8.637539159e-19 -0.001656774925)
(-0.0001106213684 8.167041569e-19 -0.001636316065)
(-3.710128006e-05 7.828079992e-19 -0.001622234224)
(-2.434406694e-05 0 -0.002645980085)
(-6.280811846e-05 -5.020178717e-20 -0.002645038896)
(-9.887599446e-05 -1.703294936e-19 -0.002643704383)
(-0.0001362423283 -5.047665422e-19 -0.002641507788)
(-0.0001726863343 -8.486934477e-20 -0.002638579398)
(-0.000208111496 -3.992057972e-19 -0.002634918672)
(-0.0002425050098 -8.661166993e-19 -0.002630506934)
(-0.0002758067153 -1.187682285e-18 -0.002625327527)
(-0.000307975297 -1.552787694e-18 -0.002619360536)
(-0.0003389800678 -1.616258104e-18 -0.002612583842)
(-0.0003687965007 -1.546825469e-18 -0.002604975632)
(-0.0003974052208 -1.62090265e-18 -0.00259651446)
(-0.0004247906936 -1.741305797e-18 -0.002587179997)
(-0.0004509411714 -1.613459934e-18 -0.002576953749)
(-0.0004758475225 -1.562490398e-18 -0.002565818542)
(-0.0004995031665 -1.554699389e-18 -0.002553759088)
(-0.0005219032131 -1.542576339e-18 -0.002540761108)
(-0.0005430440765 -1.521642461e-18 -0.002526811515)
(-0.0005629229765 -1.536911945e-18 -0.002511897811)
(-0.0005815373841 -1.349831985e-18 -0.002496007109)
(-0.0005988843028 -1.252216422e-18 -0.002479126092)
(-0.0006149596243 -1.144447845e-18 -0.002461240001)
(-0.0006297576764 -1.041222768e-18 -0.002442331989)
(-0.0006432700823 -8.520725512e-19 -0.002422382258)
(-0.0006554849141 -6.768422868e-19 -0.002401367379)
(-0.0006663856957 -5.931936152e-19 -0.002379259413)
(-0.000675950166 -4.883447848e-19 -0.002356025034)
(-0.0006841487038 -3.368725997e-19 -0.002331624601)
(-0.0006909424998 -1.992311166e-19 -0.002306011361)
(-0.0006962812704 -8.206730999e-20 -0.002279130661)
(-0.0007001006337 1.607214024e-20 -0.002250919118)
(-0.000702318546 5.791734347e-20 -0.00222130371)
(-0.0007028308934 9.856604568e-20 -0.002190201202)
(-0.0007015060799 1.456525902e-19 -0.002157518066)
(-0.0006981778509 2.058479833e-19 -0.002123150533)
(-0.0006926362696 2.866808072e-19 -0.002086985625)
(-0.000684616467 4.007081047e-19 -0.002048904039)
(-0.0006737840931 3.531330517e-19 -0.002008785621)
(-0.0006597177056 3.558905241e-19 -0.001966519803)
(-0.0006418875216 3.85962883e-19 -0.001922023114)
(-0.000619631382 4.21361517e-19 -0.00187526762)
(-0.0005921302741 4.146117377e-19 -0.001826326967)
(-0.0005583899057 4.351167778e-19 -0.001775447156)
(-0.0005172370759 4.357612213e-19 -0.001723148396)
(-0.0004673461564 5.588599559e-19 -0.00167035589)
(-0.0004073345317 6.599547463e-19 -0.00161853304)
(-0.000336010782 7.725042029e-19 -0.001569738272)
(-0.0002527804266 9.125702849e-19 -0.001526465039)
(-0.0001579443053 8.765138508e-19 -0.00149122406)
(-5.36390649e-05 6.919852997e-19 -0.001466284167)
(-2.699308521e-05 5.608564722e-20 -0.002708675937)
(-6.961716387e-05 3.101269746e-20 -0.002707627847)
(-0.0001095927275 -2.451687428e-19 -0.002706128544)
(-0.0001510127719 -4.64663129e-19 -0.002703647762)
(-0.0001913793972 2.349506058e-19 -0.00270035513)
(-0.0002306045251 -3.381952658e-19 -0.00269625069)
(-0.0002686716725 -9.201826538e-19 -0.002691319712)
(-0.0003055142843 -1.305265359e-18 -0.002685549954)
(-0.0003410883861 -1.595407435e-18 -0.002678924871)
(-0.0003753627887 -1.674210505e-18 -0.002671426045)
(-0.0004083143533 -1.909447995e-18 -0.002663035026)
(-0.0004399258806 -1.774608352e-18 -0.002653733155)
(-0.0004701858784 -1.869156217e-18 -0.00264350333)
(-0.0004990872118 -1.794718371e-18 -0.002632329225)
(-0.0005266267438 -1.812396739e-18 -0.002620196402)
(-0.0005528044025 -1.739249273e-18 -0.002607091177)
(-0.0005776227719 -1.677069861e-18 -0.002593001161)
(-0.0006010863084 -1.618559628e-18 -0.002577914194)
(-0.0006232008653 -1.559536476e-18 -0.002561818333)
(-0.0006439730334 -1.581392217e-18 -0.002544700912)
(-0.0006634095855 -1.442496244e-18 -0.002526547766)
(-0.0006815168336 -1.295735722e-18 -0.002507342564)
(-0.0006982997952 -1.153398035e-18 -0.002487065834)
(-0.0007137615048 -9.908504558e-19 -0.002465694092)
(-0.0007279023172 -8.222708404e-19 -0.002443198712)
(-0.0007407189176 -7.406342176e-19 -0.002419544867)
(-0.0007522032229 -6.276586906e-19 -0.002394690162)
(-0.0007623410955 -4.994277226e-19 -0.002368583309)
(-0.000771110846 -3.708662462e-19 -0.002341162662)
(-0.0007784813949 -2.397734984e-19 -0.002312354601)
(-0.0007844100374 -1.103001531e-19 -0.002282071419)
(-0.0007888392663 -1.015741809e-19 -0.002250208881)
(-0.0007916930307 -4.656496453e-20 -0.002216643562)
(-0.0007928717398 -1.929541386e-21 -0.002181229904)
(-0.0007922453928 6.43421058e-20 -0.002143796359)
(-0.0007896446372 1.348094151e-19 -0.002104140821)
(-0.0007848478825 2.10528113e-19 -0.002062026237)
(-0.0007775642365 2.294275806e-19 -0.002017176487)
(-0.0007674091422 2.458191604e-19 -0.00196927337)
(-0.0007538705704 2.729453663e-19 -0.001917957836)
(-0.0007362616677 3.178265305e-19 -0.001862840058)
(-0.0007136549323 3.397211826e-19 -0.001803526349)
(-0.0006847912709 3.792333393e-19 -0.001739674881)
(-0.0006479568652 4.274466502e-19 -0.00167109634)
(-0.0006008236092 5.146187645e-19 -0.001597920296)
(-0.0005403040115 6.110251056e-19 -0.001520878083)
(-0.0004626036074 7.119886786e-19 -0.001441794163)
(-0.0003635112595 8.588807299e-19 -0.001364325675)
(-0.0002382846528 7.751540131e-19 -0.001294912705)
(-8.430273723e-05 7.063885752e-19 -0.001243525278)
(-2.97571936e-05 7.546896481e-20 -0.002776959191)
(-7.672734814e-05 -1.264001491e-18 -0.002775799341)
(-0.0001207900776 -4.778988121e-19 -0.002774101693)
(-0.0001664484404 -4.371019344e-19 -0.002771273613)
(-0.000210898475 -9.723895024e-20 -0.002767538316)
(-0.000254072357 -5.986159271e-19 -0.002762897945)
(-0.0002959472797 -1.036029826e-18 -0.00275734224)
(-0.0003364482812 -1.456839032e-18 -0.00275086481)
(-0.0003755282776 -1.689353872e-18 -0.002743454321)
(-0.0004131557954 -1.811143354e-18 -0.002735097835)
(-0.0004493084623 -2.078766163e-18 -0.002725781164)
(-0.0004839717883 -2.028916864e-18 -0.0027154904)
(-0.0005171382567 -1.990569511e-18 -0.002704212233)
(-0.0005488059619 -1.968206036e-18 -0.002691934177)
(-0.000578977743 -1.93384042e-18 -0.002678644609)
(-0.0006076604431 -1.939369788e-18 -0.002664333006)
(-0.0006348642035 -1.860167989e-18 -0.002648988786)
(-0.0006606014737 -1.78310746e-18 -0.002632601589)
(-0.0006848865121 -1.719313321e-18 -0.002615160363)
(-0.0007077347139 -1.724224463e-18 -0.002596652531)
(-0.0007291618136 -1.622778019e-18 -0.002577063328)
(-0.0007491832504 -1.470828174e-18 -0.002556374835)
(-0.0007678134168 -1.309121294e-18 -0.002534564842)
(-0.0007850650737 -1.165536914e-18 -0.002511605929)
(-0.0008009485204 -1.042669371e-18 -0.002487464055)
(-0.0008154707536 -9.514433209e-19 -0.002462097165)
(-0.0008286345436 -8.130143301e-19 -0.00243545358)
(-0.0008404374173 -6.90176062e-19 -0.002407470165)
(-0.0008508703817 -5.660312387e-19 -0.002378070312)
(-0.0008599166818 -4.369204942e-19 -0.002347161492)
(-0.0008675496499 -2.886485922e-19 -0.002314632136)
(-0.0008737308346 -1.610911359e-19 -0.002280348041)
(-0.0008784070532 -1.958655844e-19 -0.002244147158)
(-0.000881506433 -1.982866898e-19 -0.002205834199)
(-0.0008829336594 -1.835259907e-19 -0.002165172578)
(-0.0008825630821 -4.465299715e-20 -0.002121874222)
(-0.0008802288691 4.152966119e-20 -0.002075586394)
(-0.0008757113818 9.160922691e-20 -0.002025873934)
(-0.0008687164694 1.494325354e-19 -0.001972197219)
(-0.0008588448606 7.21751589e-20 -0.001913883119)
(-0.0008455445694 1.526701687e-19 -0.001850088667)
(-0.0008280369172 2.149097384e-19 -0.001779757921)
(-0.0008051992044 2.866443335e-19 -0.001701575071)
(-0.0007753784466 3.505814534e-19 -0.00161393061)
(-0.0007360989375 4.429068064e-19 -0.001514962714)
(-0.0006836455499 5.818646344e-19 -0.001402853774)
(-0.0006125141716 5.254355097e-19 -0.001276736175)
(-0.0005139486485 5.102649625e-19 -0.00113865848)
(-0.0003703716366 4.668309299e-19 -0.0009977097619)
(-0.0001529857474 4.61044405e-19 -0.0008785747152)
(-3.236977076e-05 -2.511922205e-18 -0.002848046343)
(-8.340391683e-05 -1.698851298e-18 -0.002846862401)
(-0.0001312809903 -4.642744765e-19 -0.002844946751)
(-0.000180903276 6.56108031e-20 -0.002841783281)
(-0.0002291730685 -2.380369296e-19 -0.002837624603)
(-0.0002760415685 -8.42894332e-19 -0.002832476525)
(-0.000321478165 -1.148045251e-18 -0.002826334811)
(-0.0003653994997 -1.287689734e-18 -0.002819200741)
(-0.0004077557131 -1.773870514e-18 -0.002811071006)
(-0.0004485145365 -2.104588528e-18 -0.00280193978)
(-0.0004876538475 -2.155586114e-18 -0.002791799482)
(-0.0005251614358 -2.283352804e-18 -0.002780643061)
(-0.0005610327593 -2.264052027e-18 -0.002768462833)
(-0.0005952701963 -2.217818053e-18 -0.002755252283)
(-0.0006278814877 -2.285457627e-18 -0.00274100452)
(-0.0006588789962 -2.305486574e-18 -0.002725713509)
(-0.0006882787336 -2.194691845e-18 -0.002709372976)
(-0.0007160994833 -2.078253776e-18 -0.002691975728)
(-0.0007423618141 -1.955646745e-18 -0.002673513612)
(-0.0007670874342 -1.915078776e-18 -0.002653976555)
(-0.0007902984364 -1.681634584e-18 -0.002633351507)
(-0.0008120164148 -1.538988599e-18 -0.002611621704)
(-0.0008322617839 -1.488544316e-18 -0.002588765629)
(-0.0008510530209 -1.355340763e-18 -0.002564755785)
(-0.0008684058607 -1.164391234e-18 -0.002539557401)
(-0.0008843324412 -1.091822286e-18 -0.002513127019)
(-0.0008988405112 -1.018901386e-18 -0.002485410794)
(-0.0009119323943 -9.198933861e-19 -0.002456342478)
(-0.0009236038781 -8.095960575e-19 -0.002425841182)
(-0.000933842911 -6.987895113e-19 -0.002393808971)
(-0.0009426278985 -5.879168527e-19 -0.002360127323)
(-0.0009499262911 -4.812821647e-19 -0.002324653021)
(-0.0009556917856 -4.420308334e-19 -0.002287212886)
(-0.0009598615323 -3.872633085e-19 -0.002247597182)
(-0.0009623523723 -3.162942853e-19 -0.0022055506)
(-0.0009630556081 -2.074582842e-19 -0.002160760612)
(-0.0009618308061 -1.274973988e-19 -0.00211284158)
(-0.0009584963338 -5.852968022e-20 -0.002061312443)
(-0.0009528161174 -2.519039083e-20 -0.002005566379)
(-0.0009444802178 -4.169263813e-20 -0.001944827339)
(-0.0009330744834 -3.411364645e-20 -0.00187808746)
(-0.0009180312739 7.908083554e-20 -0.001804015202)
(-0.0008985475976 2.039925297e-19 -0.001720819031)
(-0.0008734431334 1.933806984e-19 -0.001626043173)
(-0.0008409127291 2.107632241e-19 -0.001516254223)
(-0.0007980861393 2.518091778e-19 -0.001386527258)
(-0.0007400928613 2.335258411e-19 -0.001229540834)
(-0.000657147421 1.360527537e-19 -0.001033744797)
(-0.0005245120667 -9.094043706e-20 -0.0007772700447)
(-0.0002685487256 -1.14424202e-20 -0.0004010225977)
(-3.474518381e-05 -1.386181992e-18 -0.002922341901)
(-8.947818183e-05 -1.084712657e-18 -0.002921148437)
(-0.0001408040635 -2.948999926e-19 -0.002919012085)
(-0.0001940019832 6.395721218e-19 -0.002915575012)
(-0.0002457387796 2.614075654e-20 -0.002911053028)
(-0.0002959584982 -7.95362838e-19 -0.002905472448)
(-0.0003446263919 -1.323611397e-18 -0.002898838167)
(-0.0003916524884 -1.486525996e-18 -0.002891159885)
(-0.0004369841657 -1.904647075e-18 -0.002882443729)
(-0.0004805875125 -2.227353509e-18 -0.002872692108)
(-0.0005224406192 -2.144044902e-18 -0.002861906231)
(-0.0005625325018 -2.381802643e-18 -0.002850086679)
(-0.0006008609464 -2.334775834e-18 -0.002837233527)
(-0.0006374311673 -2.21845859e-18 -0.002823346805)
(-0.0006722546183 -2.422500897e-18 -0.002808426754)
(-0.0007053477339 -2.67899918e-18 -0.00279247277)
(-0.000736730668 -2.594561536e-18 -0.002775484175)
(-0.0007664266163 -2.392980238e-18 -0.002757459168)
(-0.0007944605391 -2.360300378e-18 -0.00273839401)