/*--------------------------------*- C++ -*----------------------------------*\
  =========                 |
  \\      /  F ield         | OpenFOAM: The Open Source CFD Toolbox
   \\    /   O peration     | Website:  https://openfoam.org
    \\  /    A nd           | Version:  7
     \\/     M anipulation  |
\*---------------------------------------------------------------------------*/
FoamFile
{
    version     2.0;
    format      ascii;
    class       volScalarField;
    location    "0.0006";
    object      generalizedNewtonian:nu;
}
// * * * * * * * * * * * * * * * * * * * * * * * * * * * * * * * * * * * * * //

dimensions      [0 2 -1 0 0 0 0];

internalField   nonuniform List<scalar> 
1167
(
15.12719597
14.962041
14.6915818
14.25000491
13.69049899
13.02058818
12.2534772
11.40517825
10.49362902
9.53978556
8.567432404
7.602174933
6.669487275
5.791995618
4.986934557
4.264721005
3.629032276
15.35960717
15.18922677
14.90448966
14.44558097
13.86410627
13.1692829
12.37527986
11.49993997
10.5628407
9.58609354
8.594434038
7.61413299
6.670737447
5.786379983
4.977479662
4.253584146
3.617643159
3.067231297
2.596200424
2.196434612
1.85913837
1.575620144
1.337841955
1.138629609
0.9717391316
0.8318411235
0.7144224557
0.6157095171
0.5325532165
0.4623391615
0.40290453
0.352456166
0.3095129907
0.2728499968
0.2414517889
0.2144784436
0.1912338473
0.1711381078
0.1537089137
0.1385440733
0.1253073803
0.1137170769
0.1035366169
0.09456669366
0.08663902422
0.07961101527
0.07336172245
0.06778767776
0.06279957631
0.05831757254
15.61445197
15.43819695
15.13764011
14.65958204
14.05392436
13.33165691
12.50830009
11.60332098
10.63821284
9.636530798
8.624068567
7.627637308
6.67276155
5.781042999
4.968032479
4.242357033
3.606169113
3.056343804
2.586304884
2.187703999
1.851576306
1.569154456
1.332371847
1.134035629
0.9679080257
0.8286612626
0.7117952329
0.6135492997
0.5307833779
0.4608954161
0.401730661
0.3515055524
0.3087468782
0.2722352198
0.2409611567
0.2140895836
0.1909284184
0.1709006684
0.1535269226
0.1384072869
0.1252074115
0.1136470649
0.1034909589
0.09454082187
0.08662914322
0.07961404097
0.07337517605
0.06780952204
0.06282815518
0.05835156037
15.89289536
15.71000816
15.3921346
14.89282754
14.2604006
13.50780726
12.65258694
11.71538718
10.71976658
9.691062634
8.656203744
7.642530982
6.675473822
5.775971526
4.958638794
4.23115217
3.594697597
3.045463697
2.576447804
2.179036738
1.84409702
1.562790799
1.327006767
1.129544315
0.9641732496
0.8255696453
0.7092483869
0.6114581845
0.529072465
0.4595012321
0.4005979734
0.3505887092
0.3080080698
0.2716422454
0.2404877662
0.2137143612
0.1906332492
0.1706708627
0.1533504628
0.1382743412
0.1251099322
0.1135784776
0.1034459175
0.09451487915
0.08661867411
0.07961608857
0.07338735886
0.06782988547
0.06285510571
0.05838381919
16.19564213
16.00547811
15.66845871
15.14560202
14.48382079
13.69794728
12.8078631
11.83587191
10.80729933
9.749474091
8.69066244
7.658706726
6.678798972
5.771151311
4.949389904
4.22003672
3.583289128
3.034646411
2.566682697
2.170475162
1.836730556
1.556543783
1.321757498
1.125164828
0.9605404593
0.8225689634
0.706781238
0.6094357557
0.5274198529
0.458155794
0.3995055868
0.3497049585
0.3072958794
0.2710705058
0.2400311146
0.2133521391
0.190348
0.170448459
0.1531793645
0.1381451158
0.1250148649
0.1135112787
0.1034014293
0.09448883328
0.08660760541
0.07961717327
0.07339827801
0.06784877447
0.06288043455
0.05841435511
16.52361234
16.32542963
15.96724316
15.41832626
14.7242997
13.90199232
12.97367472
11.96416881
10.90041764
9.811523521
8.727245746
7.675988514
6.682659741
5.766651698
4.940359071
4.209063026
3.571987685
3.023946031
2.557044918
2.162047848
1.8295036
1.550431077
1.316634358
1.120904082
0.9570136371
0.8196614424
0.7043944309
0.6074818983
0.5258259189
0.456858604
0.3984528899
0.3488538752
0.3066097872
0.2705195469
0.2395908357
0.2130026225
0.1900724397
0.1702332852
0.1530135046
0.1380195257
0.1249221572
0.1134454539
0.1033574661
0.09446267003
0.08659592728
0.07961727307
0.07340792975
0.06786618801
0.06290413918
0.05844316333
16.87775204
16.67071876
16.28920944
15.7116918
14.98212181
14.11996129
13.14986164
12.09959093
10.9982612
9.876596058
8.765593862
7.69423076
6.687098762
5.762516698
4.931550843
4.198243931
3.560828001
3.013410801
2.547571498
2.153779241
1.822436378
1.54446742
1.311647564
1.116765499
0.9535950334
0.8168498192
0.7020891803
0.6055969739
0.5242897843
0.4556092749
0.3974394471
0.3480346527
0.3059493153
0.2699890169
0.2391667765
0.21266561
0.1898064088
0.1700252295
0.1528528091
0.1378975296
0.124831805
0.1133809426
0.1033140068
0.09443637882
0.08658363142
0.07961637959
0.07341630475
0.06788211517
0.06292620686
0.05847022941
17.25890614
17.04193671
16.63469587
16.02579138
15.25720899
14.35167135
13.33617218
12.2416641
11.10006496
9.943884819
8.805165659
7.7131554
6.691911736
5.758592865
4.922888395
4.187559896
3.549832155
3.003054009
2.538279565
2.14568855
1.815537895
1.538660264
1.306805255
1.112754313
0.9502874356
0.8141347088
0.6998659379
0.6037811112
0.5228111529
0.454407438
0.3964649134
0.3472469843
0.3053141981
0.2694787009
0.2387587721
0.2123409814
0.1895498255
0.1698242406
0.1526972491
0.1377791139
0.1247438108
0.113317739
0.1032710439
0.09440995096
0.08657070683
0.07961447902
0.07342338615
0.06789653607
0.06294661479
0.05849552796
17.66804553
17.4398122
17.00428678
16.36066574
15.54924209
14.5962839
13.53193752
12.38994461
11.20540027
10.0129011
8.84545903
7.732331374
6.696785075
5.754694805
4.914284776
4.176990562
3.53901603
2.992890978
2.529178652
2.137794093
1.80882124
1.533017408
1.302112433
1.108874193
0.9470933799
0.8115165423
0.6977248285
0.6020348061
0.5213899614
0.4532529575
0.395529614
0.3464908238
0.3047043778
0.268988537
0.2383666406
0.2120286946
0.1893026869
0.1696303308
0.1525468492
0.1376643193
0.1246581513
0.1132558486
0.1032285826
0.09438338421
0.08655714304
0.07961155471
0.07342915687
0.06790942293
0.06296533055
0.05851902416
18.10566048
17.8646976
17.39820294
16.71618926
15.85773135
14.85298625
13.73620341
12.54365916
11.31359828
10.08307691
8.886006166
7.751397039
6.701500242
5.750701015
4.905681835
4.166557523
3.528389995
2.982933922
2.520285624
2.130102708
1.802294425
1.527546534
1.297571756
1.105127057
0.9440155855
0.8089967172
0.6956665791
0.600358493
0.5200264379
0.4521459033
0.3946332239
0.3457661083
0.3041198491
0.2685185697
0.2379904289
0.2117288051
0.1890650559
0.169443566
0.1524016787
0.1375532467
0.1245748737
0.1131952995
0.1031866388
0.09435668216
0.08654293139
0.07960758684
0.0734335878
0.06792073861
0.06298231116
0.05854067082
18.57076853
18.31564631
17.81525433
17.09092545
16.18135803
15.12051175
13.94723381
12.70139024
11.42373155
10.15371264
8.926277147
7.769997853
6.705808657
5.746467131
4.897062471
4.156246537
3.517945125
2.973180067
2.511614881
2.122622911
1.795961958
1.522256009
1.293188332
1.101515783
0.9410555578
0.8065764821
0.6936919991
0.5987519041
0.5187207001
0.4510864002
0.3937756284
0.3450728287
0.3035606874
0.2680691702
0.237630283
0.2114414362
0.1888370635
0.1692640777
0.1522618462
0.1374459211
0.1244940451
0.1131361479
0.1031452472
0.09432985835
0.08652806635
0.07960255204
0.07343663604
0.06793043648
0.06299750455
0.05856041226
19.0614291
18.79047286
18.25362105
17.48310264
16.51806063
15.39686912
14.1630383
12.86107857
11.53433078
10.22392429
8.965711731
7.787748806
6.709495546
5.741953162
4.888419413
4.146038159
3.507667991
2.963632883
2.50316976
2.1153615
1.789830008
1.517146908
1.288964331
1.098042492
0.9382133278
0.8042560799
0.6918016937
0.5972153902
0.5174729765
0.4500748841
0.3929571408
0.3444113043
0.3030271452
0.2676402725
0.237286391
0.2111668044
0.1886189106
0.1690920644
0.1521276171
0.1373424886
0.1244157711
0.1130784732
0.103104461
0.09430293899
0.08651254827
0.07959642754
0.07343825944
0.06793845919
0.06301084189
0.05857817088
19.57496911
19.28632441
18.71047472
17.89002972
16.86511689
15.67961969
14.38157727
13.0205733
11.64330635
10.29229651
9.003516527
7.804271025
6.712459776
5.73710897
4.879684638
4.135886271
3.497537395
2.954296162
2.494948546
2.108316973
1.783901363
1.512219465
1.284899715
1.09470928
0.9354897407
0.8020359434
0.6899968941
0.5957494029
0.5162836179
0.4491119533
0.3921781104
0.3437818553
0.3025195486
0.2672321889
0.2369590501
0.2109052007
0.1884108763
0.1689277637
0.1519991151
0.1372431207
0.1243402005
0.1130223874
0.1030643538
0.09427596113
0.0864963804
0.07958918695
0.07343840757
0.06794473905
0.06302224565
0.05859386642
20.106968
19.79849935
19.18153781
18.3071689
17.2183367
15.96494054
14.59987626
13.17768466
11.74888511
10.35731505
9.038680357
7.818995116
6.714322625
5.731668125
4.870696438
4.125703849
3.487515159
2.945148549
2.486940143
2.101481939
1.778175328
1.507474102
1.280994993
1.091516015
0.9328854102
0.7999166468
0.6882767496
0.5943541493
0.5151529372
0.4481973759
0.3914387384
0.3431848292
0.3020385335
0.2668453323
0.2366486435
0.2106569988
0.1882133264
0.1687715611
0.1518766335
0.1371480751
0.12426755
0.1129680613
0.1030250485
0.0942489994
0.08647959077
0.07958081528
0.07343702766
0.06794919137
0.06303160457
0.05860736423
20.65038676
20.31964679
19.66063896
18.7287126
17.57237637
16.24792038
14.81420534
13.32985427
11.84929036
10.41775594
9.070289662
7.831259026
6.714630736
5.725346859
4.861291255
4.115401168
3.47758005
2.936171945
2.479131833
2.094852088
1.772645335
1.502907978
1.277249386
1.088460904
0.9303995562
0.7978981685
0.6866413879
0.5930297462
0.5140812073
0.4473315303
0.3907394373
0.3426206189
0.3015843343
0.266480082
0.2363555686
0.2104225853
0.188026629
0.1686238216
0.1517604808
0.1370576222
0.1241980501
0.1129156799
0.1029866792
0.09422213398
0.08646220597
0.07957128936
0.07343405482
0.0679517224
0.06303881326
0.05861856635
21.19439206
20.83855906
20.13759027
19.14549114
17.91977973
16.52255103
15.01965842
13.4736728
11.94222212
10.47208293
9.09736844
7.84043262
6.713009847
5.717927069
4.851334909
4.104921884
3.467676587
2.927328156
2.471499157
2.08842132
1.76730508
1.498515396
1.273662242
1.085542672
0.9280313043
0.7959815885
0.685090976
0.5917765171
0.5130697574
0.4465151503
0.3900809103
0.3420899212
0.3011575255
0.2661370981
0.2360804887
0.2102026049
0.1878513843
0.1684850284
0.151651166
0.1369722312
0.1241321119
0.1128655879
0.1029495184
0.09419555966
0.08644433934
0.07956064008
0.07342943938
0.06795220531
0.06304366976
0.05862719288
21.72171207
21.33831644
20.59821017
19.54480584
18.24990735
16.78051113
15.20945457
13.604522
12.02497256
10.51857704
9.118767141
7.845789408
6.708982909
5.709097359
4.840672234
4.094184364
3.457744038
2.918573327
2.464017849
2.082167988
1.762143299
1.49428981
1.270226932
1.082758267
0.9257788579
0.7941639848
0.6836245369
0.5905939417
0.5121173997
0.4457479223
0.3894631336
0.3415930359
0.3007583211
0.2658166174
0.2358236692
0.2099973675
0.1876880363
0.1683555148
0.1515490009
0.1368922033
0.1240700158
0.1128180317
0.1029137639
0.09416941279
0.08642605569
0.07954885761
0.07342310545
0.0679505238
0.06304606337
0.05863319874
22.20610871
21.79424483
21.02244024
19.91018822
18.54904235
17.01109826
15.37552445
13.71591195
12.0931374
10.55458528
9.132825639
7.846210283
6.701809147
5.698423125
4.829042537
4.082983562
3.447636716
2.909809323
2.456630898
2.076049709
1.757129643
1.490212663
1.266929995
1.080098651
0.9236369445
0.7924422062
0.6822402663
0.5894813157
0.5112240705
0.4450302173
0.3888867946
0.3411309102
0.3003877448
0.2655197309
0.2355862298
0.2098079628
0.1875375501
0.168236285
0.1514549522
0.1368184444
0.1240125955
0.1127737599
0.1028800637
0.09414422112
0.08640773995
0.07953615928
0.07341507684
0.06794648003
0.06304553872
0.05863582218
22.62030359
22.17682728
21.3832314
20.21860381
18.79914291
17.20116513
15.50873139
13.80098916
12.14136751
10.57656223
9.137383827
7.840373641
6.690699054
5.685379757
4.816023042
4.071002645
3.437130845
2.90088407
2.449225561
2.069987026
1.752206796
1.486244911
1.263741727
1.077541612
0.9215907608
0.7908041526
0.6809289067
0.5884323007
0.510384432
0.4443578555
0.3883485531
0.3407006056
0.3000436245
0.2652447458
0.235366845
0.209633373
0.187399101
0.1681267505
0.1513686143
0.1367507
0.1239597197
0.1127327352
0.1028484407
0.09412002923
0.08638941906
0.07952252416
0.07340528198
0.06794000297
0.06304215793
0.05863546429
22.88567061
22.42882961
21.63432419
20.4298235
18.96572727
17.32190516
15.58676052
13.84337666
12.15759493
10.57545953
9.125999232
7.823862192
6.672576177
5.667785734
4.800084194
4.05718329
3.425498543
2.891312351
2.441458544
2.0637385
1.747207524
1.482266478
1.260580312
1.075030829
0.9195993485
0.7892229889
0.6796726278
0.5874346679
0.5095911089
0.443726646
0.3878465125
0.3403015914
0.299726393
0.2649927423
0.2351670304
0.2094754879
0.187274571
0.1680288242
0.1512918974
0.1366908405
0.1239131913
0.1126966701
0.1028204898
0.09409827362
0.08637230417
0.07950883168
0.07339411073
0.06793077583
0.06303461398
0.05862949621
23.15420844
22.65059112
21.85206256
20.60087731
19.08874422
17.39862003
15.62428082
13.85062199
12.14467397
10.55134224
9.09717411
7.794573284
6.645285731
5.643707835
4.779617331
4.040223603
3.411712679
2.880273159
2.432692562
2.056812697
1.74175934
1.477988129
1.257221524
1.07239384
0.9175284299
0.78759371
0.6783891201
0.5864232565
0.5087925368
0.4430955532
0.3873480817
0.3399074681
0.2994147136
0.2647464369
0.2349727127
0.209322694
0.1871546335
0.1679349637
0.1512187253
0.1366340216
0.1238692119
0.112662658
0.1027940626
0.09407744164
0.08635540503
0.079494523
0.07338140708
0.06791916062
0.06302417119
0.05862077881
22.69760958
22.17826793
21.40987409
20.21943817
18.7730308
17.14159031
15.41729632
13.68431038
12.01078863
10.44398923
9.011649394
7.726862221
6.592026016
5.602080954
4.747260567
4.015198656
3.392470565
2.865517834
2.421387358
2.048151867
1.735127595
1.472901527
1.253311926
1.069385322
0.9152065883
0.7857972423
0.6769970328
0.5853419323
0.5079507778
0.4424394038
0.3868367225
0.3395084348
0.2991033144
0.2645036827
0.2347839556
0.2091764011
0.1870416099
0.1678480665
0.1511523307
0.1365836493
0.1238312603
0.1126341935
0.1027726368
0.09406095184
0.08634196716
0.0794823783
0.0733688667
0.06790467403
0.06300649879
0.05859916502
22.4261689
22.03028191
21.29535803
20.02294909
18.5082108
16.84294058
15.11718603
13.40626031
11.7669803
10.23871885
8.844276311
7.593710371
6.488061424
5.522051261
4.686323212
3.969205638
3.357945377
2.839674666
2.402065231
2.033712296
1.724325014
1.464798571
1.247215417
1.064785394
0.9117209591
0.7831449758
0.6749723226
0.5837894585
0.5067558288
0.4415167868
0.386122789
0.3389543579
0.2986724798
0.2641683977
0.2345232695
0.2089737378
0.1868843438
0.1677264246
0.151058693
0.1365120205
0.1237768812
0.112593235
0.1027419395
0.09403782319
0.08632400981
0.07946738009
0.07335476596
0.06788971587
0.06298969728
0.05858094934
24.66120479
23.55777033
22.33633391
20.70636621
18.900313
17.02242751
15.15852644
13.36860437
11.69124064
10.14995029
8.756835671
7.514932556
6.4208036
5.46664855
4.641843384
3.934121334
3.33059881
2.818533645
2.385818059
2.021287644
1.714840152
1.45756081
1.241694778
1.060570001
0.9084964823
0.7806741402
0.6730771155
0.5823320497
0.5056331397
0.4406516522
0.3854549585
0.3384384821
0.2982740396
0.2638610531
0.2342870142
0.2087925872
0.1867461455
0.1676217706
0.1509802547
0.1364540483
0.1237348403
0.112563518
0.1027216141
0.09402441251
0.08631522843
0.07946074866
0.0733469034
0.06787518513
0.06295994151
0.05852606707
)
;

boundaryField
{
    front_top
    {
        type            wedge;
    }
    front_middle
    {
        type            wedge;
    }
    front_bottom
    {
        type            wedge;
    }
    back_top
    {
        type            wedge;
    }
    back_middle
    {
        type            wedge;
    }
    back_bottom
    {
        type            wedge;
    }
    axis_top
    {
        type            symmetryPlane;
    }
    axis_middle
    {
        type            symmetryPlane;
    }
    axis_bottom
    {
        type            symmetryPlane;
    }
    wall_top
    {
        type            calculated;
        value           nonuniform 0();
    }
    wall_middle
    {
        type            calculated;
        value           nonuniform 0();
    }
    wall_bottom
    {
        type            calculated;
        value           nonuniform List<scalar> 
23
(
0.05627647025
0.0563126749
0.05634711558
0.05637979792
0.05641071599
0.05643985458
0.0564671872
0.05649267827
0.05651627895
0.05653793253
0.05655755795
0.05657507526
0.05659033969
0.05660326108
0.0566135231
0.05662112509
0.05662515468
0.05662622014
0.05662101826
0.05661332105
0.0565898947
0.05657137972
0.05650294198
)
;
    }
    inlet
    {
        type            calculated;
        value           nonuniform 0();
    }
    outlet
    {
        type            calculated;
        value           nonuniform List<scalar> 
50
(
25.02053966
23.91138954
22.6673743
20.993984
19.14108537
17.21653406
15.30990629
13.48323975
11.77590775
10.21109884
8.800077903
7.54493787
6.44127493
5.480406872
4.650966671
3.940094833
3.334465853
2.82101437
2.387397569
2.022286695
1.715468545
1.457955003
1.241942251
1.060725898
0.9085955526
0.7807382013
0.6731195718
0.5823611339
0.5056539081
0.4406671498
0.3854669903
0.3384481295
0.2982819565
0.2638676342
0.234292498
0.2087971287
0.186749855
0.1676247338
0.1509825447
0.1364557323
0.1237359833
0.1125641845
0.10272187
0.09402432689
0.08631487535
0.07946021048
0.07334627811
0.06787459942
0.06295954548
0.05852593292
)
;
    }
    procBoundary0to1
    {
        type            processor;
        value           nonuniform List<scalar> 
51
(
14.91620253
14.75571727
14.49811073
14.07237448
13.5327527
12.88562577
12.14287553
11.31890054
10.43053331
9.497783822
8.543324977
7.592008987
6.669174474
5.797944313
4.996368014
4.275682517
3.640246606
3.078057492
3.078057492
2.606070169
2.205186312
1.866754533
1.582162465
1.343400389
1.143316028
0.9756629352
0.8351072477
0.7171278185
0.6179385934
0.5343825752
0.4638339098
0.4041207267
0.3534415866
0.3103073709
0.2734874358
0.2419603409
0.2148812576
0.1915499364
0.1713835078
0.1538966757
0.1386848689
0.1254099511
0.1137885761
0.1035828927
0.09459253311
0.08664833952
0.07960700203
0.07334698305
0.06776433511
0.06276935072
0.05828183758
)
;
    }
}


// ************************************************************************* //
