/*--------------------------------*- C++ -*----------------------------------*\
  =========                 |
  \\      /  F ield         | OpenFOAM: The Open Source CFD Toolbox
   \\    /   O peration     | Website:  https://openfoam.org
    \\  /    A nd           | Version:  7
     \\/     M anipulation  |
\*---------------------------------------------------------------------------*/
FoamFile
{
    version     2.0;
    format      ascii;
    class       volTensorField;
    location    "0.0006";
    object      grad(U);
}
// * * * * * * * * * * * * * * * * * * * * * * * * * * * * * * * * * * * * * //

dimensions      [0 0 -1 0 0 0 0];

internalField   nonuniform List<tensor> 
1167
(
(-0.2678476357 -1.222421967e-12 0.1477997918 -3.689560546e-12 -0.4371129633 0 -0.008655540822 -1.734694213e-13 1.360597568)
(-0.3577292454 -8.631909894e-13 0.3434645933 -1.556862948e-13 -0.3828400085 0 -0.02257906401 -4.978913488e-13 1.362471798)
(-0.3565926907 -5.356890375e-13 0.5622029054 2.357981142e-14 -0.367265504 6.898779112e-12 -0.03558744967 -2.936623616e-13 1.366421106)
(-0.3700878784 -4.641480015e-13 0.7960262969 2.176831021e-13 -0.3663921379 0 -0.04873316563 -1.883870209e-13 1.372138386)
(-0.3782408065 -5.325120807e-13 1.050958907 2.24522669e-13 -0.367888102 0 -0.06154955324 1.153478614e-13 1.379463963)
(-0.3864659203 -6.502378662e-13 1.334817252 3.203483238e-13 -0.3701851081 0 -0.07385982117 7.06288771e-14 1.388188206)
(-0.3959375122 -1.826221298e-13 1.65801723 3.510996057e-13 -0.3730753707 0 -0.08564812662 2.496424725e-13 1.398014973)
(-0.4064653248 1.380129724e-13 2.033918617 2.909308066e-13 -0.3764644838 0 -0.09695081496 1.156799057e-13 1.408624803)
(-0.4176382863 -1.234337206e-13 2.4800718 2.434521254e-13 -0.3802597366 2.397067081e-12 -0.1076625382 -5.72478172e-15 1.419723551)
(-0.4291499284 -3.077124884e-13 3.019180765 2.541048799e-13 -0.3843628122 -2.205113534e-12 -0.117782314 2.26349559e-13 1.430937778)
(-0.4408531498 -2.049057852e-13 3.680498432 2.543983156e-13 -0.3886969089 0 -0.1273674907 2.422203271e-13 1.44179929)
(-0.4525243601 -6.52481549e-14 4.501246272 2.472646708e-13 -0.3932023938 0 -0.1364802525 1.095409132e-13 1.451834107)
(-0.4637908155 -9.404716595e-14 5.527804701 2.276445085e-13 -0.3978154584 0 -0.1452094194 1.021496681e-14 1.460588366)
(-0.4742311621 -2.98089289e-13 6.816745316 2.268505011e-13 -0.4024638536 1.733544128e-12 -0.1536630685 -1.090483075e-13 1.467627647)
(-0.4834678873 -3.870599344e-13 8.435815056 2.373766745e-13 -0.4070704413 0 -0.161940542 -9.374500222e-14 1.47248578)
(-0.4911929617 -2.421395191e-13 10.46501146 2.446381245e-13 -0.4115604251 -1.595601525e-12 -0.1701103067 -1.1883587e-13 1.474616953)
(-0.4970197212 -1.292452267e-13 12.99779178 2.369891751e-13 -0.4158638908 0 -0.1782115103 -2.018906609e-13 1.473374631)
(-0.249708797 -1.779991061e-13 0.1453218948 7.08339677e-13 -0.4074375573 -6.547496343e-11 -0.008968782913 1.382178772e-12 1.311166284)
(-0.3337273674 -1.697417521e-13 0.3378119699 3.953612487e-13 -0.3568890904 0 -0.02337745134 7.262287851e-13 1.313163724)
(-0.3332186307 -1.257718785e-13 0.5532432159 2.837998732e-13 -0.3425248458 0 -0.03679416108 7.116704914e-13 1.317361939)
(-0.3465192953 -7.002507774e-13 0.783841453 2.424198182e-13 -0.3419769275 0 -0.05040576181 3.955621729e-13 1.323451843)
(-0.3549966841 -6.467448272e-13 1.035751662 4.421217315e-13 -0.3436798086 -4.051298909e-12 -0.06372171598 3.939434738e-13 1.331312469)
(-0.3637453049 -2.808378305e-13 1.316940889 3.977311657e-13 -0.3461922022 0 -0.07653399249 1.142665526e-13 1.340648344)
(-0.3737394651 -5.327079694e-14 1.637984208 3.923628584e-13 -0.3493128857 0 -0.08878393593 -2.258003965e-14 1.351220745)
(-0.3848506915 2.168184918e-13 2.012320153 3.154438236e-13 -0.3529322895 0 -0.1005294547 5.384811917e-14 1.362622105)
(-0.3967411533 -2.900903892e-13 2.457521106 2.569122189e-13 -0.3569767895 -2.397067081e-12 -0.1117493899 1.715440519e-13 1.374500101)
(-0.4090089874 -5.297093728e-13 2.996480556 3.06863944e-13 -0.3613506043 2.205113534e-12 -0.1223979693 7.141282309e-14 1.386463668)
(-0.4213874701 -1.962320484e-13 3.658624354 3.064798605e-13 -0.3659689817 0 -0.1324965215 2.680201093e-14 1.398043548)
(-0.4335665553 5.688670292e-14 4.481246832 2.89572314e-13 -0.3707567287 0 -0.1421152097 2.769782092e-14 1.408735928)
(-0.4451680811 1.730146547e-13 5.510765163 2.543215994e-13 -0.3756365139 -1.821156068e-12 -0.1513381942 9.245781805e-14 1.418031693)
(-0.4558057988 -5.746650112e-15 6.8038252 2.285434153e-13 -0.3805288803 0 -0.160243251 3.433375182e-14 1.425428592)
(-0.4651175519 -1.266728369e-13 8.428324326 2.236039665e-13 -0.3853540347 0 -0.1688936705 -5.159978021e-14 1.43041329)
(-0.4728100346 -1.77481636e-14 10.46447942 2.165904414e-13 -0.3900349455 0 -0.1773320781 -1.425731869e-13 1.432428731)
(-0.4784011505 -1.577488585e-13 13.00597545 2.02381232e-13 -0.3945020114 0 -0.18563441 -1.121556668e-13 1.430870274)
(-0.481085454 -3.025162967e-13 16.16144132 2.100002968e-13 -0.3986687509 0 -0.1939342431 -1.079738041e-13 1.425084315)
(-0.4801882469 -2.117218038e-13 20.05639233 2.105724513e-13 -0.4024286538 0 -0.2022633756 -1.161121848e-13 1.414205177)
(-0.4749732455 -1.449468933e-13 24.83489456 2.101817051e-13 -0.4056804476 0 -0.2105561943 -1.417839213e-13 1.397213308)
(-0.4642766562 -1.047875836e-13 30.66093038 2.075234857e-13 -0.4083052008 0 -0.2188202734 -1.30286384e-13 1.373018134)
(-0.4470004331 -7.127511371e-14 37.72001942 2.040372562e-13 -0.4101597626 1.356715262e-12 -0.2269922385 -1.3317089e-13 1.340378301)
(-0.4220428643 -4.206308321e-14 46.22019739 1.977836619e-13 -0.4110992006 0 -0.2349321243 -1.371677303e-13 1.298016421)
(-0.3881673633 -3.16040299e-14 56.39252355 1.90782056e-13 -0.4109634801 0 -0.2425101901 -1.062790944e-13 1.244718071)
(-0.3443245734 -2.791029437e-14 68.49130788 1.868065597e-13 -0.4095867536 0 -0.249507245 -8.802021342e-14 1.179319731)
(-0.2895500816 -3.497662562e-14 82.79355968 1.807129714e-13 -0.4068065099 0 -0.2557316445 -8.634599998e-14 1.100862241)
(-0.2231903272 1.779104582e-14 99.59818591 1.774723619e-13 -0.4024623061 0 -0.2609617339 -1.02507639e-13 1.008582118)
(-0.1449044672 7.939510156e-14 119.2243209 1.696431911e-13 -0.396414899 0 -0.2649501459 -9.91813086e-14 0.9020720067)
(-0.05458090874 1.578494328e-13 142.0093124 1.633695363e-13 -0.3885419036 0 -0.2674665273 -1.1048496e-13 0.7813316278)
(0.04740030681 1.876759991e-13 168.3061148 1.537749335e-13 -0.3787476334 1.230199468e-12 -0.2682503425 -1.293962405e-13 0.6467624288)
(0.160234677 1.194783204e-13 198.4798986 1.456668191e-13 -0.366970795 0 -0.2671198501 -1.047740677e-13 0.4992818586)
(0.2825653301 1.216463106e-13 232.9050267 1.395785327e-13 -0.3531867921 0 -0.2639208186 -1.08673599e-13 0.3402703292)
(0.412578286 1.859846516e-13 271.9610817 1.330879628e-13 -0.3374182163 0 -0.258502516 -1.036712752e-13 0.1717110825)
(0.5481116557 1.73355225e-13 316.0289374 1.26175353e-13 -0.3197302115 0 -0.250803566 -1.215384698e-13 -0.003900118246)
(0.686425029 1.578418002e-13 365.4873094 1.211733862e-13 -0.3002338609 0 -0.2408181849 -9.575258152e-14 -0.1836530236)
(0.8242072432 2.167271467e-13 420.7076747 1.145266657e-13 -0.2790907587 0 -0.2285829228 -9.015482124e-14 -0.364071545)
(0.9578335095 2.662814178e-13 482.0501587 1.079827036e-13 -0.2565139271 0 -0.2142274499 -8.663325694e-14 -0.5411421143)
(1.083405049 4.009043753e-13 549.8613578 9.917478019e-14 -0.232760971 0 -0.1979466603 -8.63568734e-14 -0.7104852957)
(1.196637327 3.126164189e-13 624.4707231 8.925507903e-14 -0.2081336866 6.012973745e-13 -0.1800007875 -9.104968377e-14 -0.867464696)
(1.292949064 2.269430297e-13 706.1868634 8.584159574e-14 -0.1829760677 0 -0.1607153992 -7.58992729e-14 -1.007060322)
(1.367531678 4.241111832e-13 795.2954243 7.834626694e-14 -0.1576707267 -6.032073484e-13 -0.1404767282 -6.431017957e-14 -1.123967234)
(1.415383618 5.410358763e-13 892.05724 6.909185764e-14 -0.1326350419 0 -0.1197250619 -5.647198584e-14 -1.212667262)
(1.431344177 5.311272194e-13 996.7070735 5.923185239e-14 -0.1083172856 3.032670842e-13 -0.09894306426 -3.699230866e-14 -1.267477775)
(1.410223989 3.902750138e-13 1109.453659 5.067482892e-14 -0.085192615 0 -0.07865385895 -5.539583043e-14 -1.282599085)
(1.347074667 5.770662038e-13 1230.480873 4.580746049e-14 -0.06375633039 3.055820165e-13 -0.05941883487 -4.180689221e-14 -1.25221508)
(1.237221639 6.527291798e-13 1359.949307 3.305015681e-14 -0.04451363748 3.069692569e-13 -0.04182443082 -2.925866469e-14 -1.17054577)
(1.073774037 4.825453887e-13 1498.000819 2.643667186e-14 -0.02797440459 0 -0.02646440069 -1.954712102e-14 -1.031773837)
(0.8414540903 5.4097085e-13 1644.773112 1.927262736e-14 -0.01471081448 0 -0.01398927382 3.200949736e-14 -0.8300782308)
(0.5322134855 5.903079826e-13 1800.44292 1.182547453e-14 -0.005502592075 0 -0.005236626876 -4.732715911e-15 -0.5596714012)
(0.2594668596 6.386999741e-13 1965.36236 4.040717215e-15 -0.0009791071232 0 -0.0009250077411 -8.150965731e-16 -0.2146476936)
(-0.2309947947 4.479525303e-13 0.1426960673 5.606773297e-12 -0.3767933981 0 -0.009238439842 7.653236744e-14 1.260125194)
(-0.3090236153 1.020751078e-13 0.3318165435 1.482433974e-12 -0.3301059942 0 -0.02406016453 1.621674342e-13 1.2622242)
(-0.3091107652 1.149310207e-13 0.5437114808 9.937206241e-13 -0.3170326195 0 -0.03784280335 2.394639609e-13 1.266662537)
(-0.3220903266 4.620016565e-14 0.770832871 6.060495455e-13 -0.316793708 -5.066079466e-12 -0.05190501333 3.034962553e-13 1.27315656)
(-0.3308412903 1.825367136e-14 1.019521146 5.291613565e-13 -0.3186755064 4.051298909e-12 -0.06566369292 -2.066253169e-13 1.281526729)
(-0.3401551623 1.024766855e-13 1.297846798 3.927387243e-13 -0.321381791 0 -0.07892383818 -2.135843748e-13 1.291447291)
(-0.3507569243 -9.182148274e-14 1.616530841 3.40240855e-13 -0.3247322127 0 -0.09161712683 -3.125216988e-13 1.302688564)
(-0.3624116423 -2.385748023e-13 1.98919438 3.154438236e-13 -0.328590751 0 -0.103763212 -1.180957728e-13 1.31486646)
(-0.3749021426 -1.384791699e-13 2.433448445 3.160195859e-13 -0.3328753818 -2.397067081e-12 -0.1154225409 5.032802597e-14 1.327536888)
(-0.3878388656 -2.397795154e-14 2.972314379 2.826378431e-13 -0.3375037528 0 -0.1265496054 -1.653600483e-13 1.340263117)
(-0.4008469043 -1.197050022e-13 3.635366595 2.654155654e-13 -0.3423861265 2.051211615e-12 -0.1371461566 -2.801908101e-13 1.352559196)
(-0.4135674967 -2.056639911e-13 4.460019819 2.566663693e-13 -0.3474385196 1.925467854e-12 -0.147257896 -2.582570863e-13 1.363894263)
(-0.4255972098 -9.95050278e-14 5.492772239 2.552108357e-13 -0.3525756832 0 -0.1569452882 -1.043520777e-13 1.373723113)
(-0.4365422194 1.294484188e-14 6.790331798 2.35315072e-13 -0.3577112662 0 -0.1662710726 3.025215191e-14 1.381503164)
(-0.4460863042 1.16302165e-16 8.420698303 2.227938072e-13 -0.3627610256 0 -0.1752771314 1.973976239e-14 1.386688452)
(-0.4538776888 -1.14741075e-13 10.46421521 2.080203161e-13 -0.3676494787 -1.595601525e-12 -0.1840040415 4.680282091e-14 1.388730843)
(-0.459307834 -2.061826395e-13 13.01471799 2.106570445e-13 -0.3722980384 -1.540805811e-12 -0.1925783125 1.294749377e-13 1.387089972)
(-0.4617177935 -1.564691339e-13 16.18124718 2.107294645e-13 -0.3766105702 0 -0.201085148 2.814312998e-14 1.381122558)
(-0.4606134363 -1.207858669e-13 20.08983093 2.070274606e-13 -0.3804891074 0 -0.2094687316 -2.669600997e-14 1.370007815)
(-0.4552231396 -8.738485878e-14 24.88486074 2.018850588e-13 -0.3838399862 0 -0.2177292076 -5.80605943e-14 1.352827664)
(-0.4444728063 -5.887560007e-14 30.73074345 1.953559849e-13 -0.3865467238 0 -0.2258749105 -7.353081777e-14 1.328596691)
(-0.4274064462 -5.392568463e-14 37.81341402 1.901256251e-13 -0.3884782287 0 -0.233775586 -8.585474727e-14 1.296185389)
(-0.4029507206 -5.254263874e-14 46.34105454 1.867233913e-13 -0.3895001518 0 -0.2413373515 -8.963168779e-14 1.254454753)
(-0.3700424849 -3.21804674e-14 56.54475919 1.798985159e-13 -0.3894621578 0 -0.2484473708 -9.508807575e-14 1.202271078)
(-0.3277537595 -7.194823487e-15 68.67867839 1.760778046e-13 -0.3882163958 0 -0.2549005848 -1.031554138e-13 1.138590849)
(-0.2751641174 4.598882231e-14 83.01952798 1.707426005e-13 -0.385613146 0 -0.2605123606 -1.183814734e-13 1.062565097)
(-0.2116886773 3.472635943e-14 99.8656557 1.632992218e-13 -0.3815068654 6.310128422e-13 -0.2650431625 -1.430799404e-13 0.973514581)
(-0.1369886118 2.638279619e-14 119.5352767 1.580488723e-13 -0.375770323 0 -0.2682950801 -1.323943111e-13 0.8710978682)
(-0.0510475387 8.052544006e-14 142.3646861 1.536883786e-13 -0.3682914293 6.195940932e-13 -0.2700724316 -1.264209321e-13 0.7553010429)
(0.0457553485 7.718546199e-14 168.7055591 1.459660501e-13 -0.3589874818 0 -0.2701376803 -8.036016391e-14 0.626545479)
(0.1527335356 7.950996088e-14 198.9216751 1.408908578e-13 -0.3478037332 0 -0.2683125225 -6.623407366e-14 0.4857124599)
(0.2685801155 1.131767057e-13 233.3856934 1.360148255e-13 -0.3347194378 0 -0.2644492044 -6.585579944e-14 0.3340828876)
(0.3915810375 1.427218215e-13 272.4752767 1.301304525e-13 -0.3197594154 0 -0.2584401834 -6.034557937e-14 0.1735278427)
(0.5197367044 1.689020991e-13 316.5695871 1.232273307e-13 -0.3029869637 0 -0.2502317218 -4.735746484e-14 0.006383499053)
(0.6504480086 1.96393783e-13 366.0453969 1.170558439e-13 -0.2845079478 0 -0.239820208 -5.413031571e-14 -0.1646231485)
(0.7806407714 2.294020505e-13 421.2719114 1.110027683e-13 -0.2644767939 0 -0.2272427115 -5.513563081e-14 -0.3361959537)
(0.9069649749 2.66234423e-13 482.6071681 1.03874666e-13 -0.2430932941 0 -0.2126432099 -5.242582441e-14 -0.5045819865)
(1.025736102 3.063090704e-13 550.3959841 9.62406151e-14 -0.2205996303 0 -0.1962182636 -4.749854923e-14 -0.6657200701)
(1.132916323 3.048072876e-13 624.9658686 8.80806701e-14 -0.1972798375 0 -0.1782214416 -1.41996307e-14 -0.815217059)
(1.224189731 3.037781021e-13 706.6233331 8.231385893e-14 -0.1734576484 0 -0.1589690099 -4.261736212e-14 -0.9483283554)
(1.295010401 3.512960734e-13 795.6521001 7.569545339e-14 -0.1494933156 0 -0.1388353281 -4.347921835e-14 -1.060033726)
(1.340616537 3.518726374e-13 892.3111792 6.820606459e-14 -0.1257802948 -3.023506932e-13 -0.1182436869 -2.460337671e-14 -1.145095591)
(1.356093818 5.009013323e-13 996.8335459 6.248960427e-14 -0.1027422657 3.032670842e-13 -0.09765816951 -8.349779624e-15 -1.198083836)
(1.336507503 5.680264267e-13 1109.42638 5.0972042e-14 -0.0808285631 0 -0.07759416291 -1.476968178e-15 -1.213455193)
(1.277141431 4.792975373e-13 1230.272336 4.356931095e-14 -0.06050818073 0 -0.05859660917 -2.492245156e-14 -1.185676881)
(1.17351241 5.130709259e-13 1359.530567 3.589801613e-14 -0.04225986855 0 -0.04123402768 -2.155863715e-14 -1.109228409)
(1.018989557 3.733140598e-13 1497.341225 2.824430755e-14 -0.02656795 0 -0.0260869954 1.234038414e-14 -0.9785038188)
(0.7989358446 5.902096811e-13 1643.840508 2.502791097e-14 -0.01397723813 -1.550897478e-13 -0.01378808553 7.838607838e-15 -0.7878451386)
(0.505615085 8.028194797e-13 1799.20342 1.246340271e-14 -0.005231517811 0 -0.005161135065 3.032170298e-15 -0.531621704)
(0.2467243212 6.744229038e-13 1963.778902 4.294609346e-15 -0.0009318202049 0 -0.0009116797429 6.886235458e-16 -0.2040841034)
(-0.2117994366 -3.971210098e-13 0.1399586562 1.224858172e-12 -0.345304414 0 -0.009447585189 -7.54610264e-13 1.207606515)
(-0.2836646371 -4.541257032e-13 0.3255157854 7.613606084e-13 -0.3026150362 0 -0.0246096066 -5.423497226e-13 1.209800515)
(-0.2842836883 -3.707150646e-13 0.5335830992 6.113908247e-13 -0.2908603122 0 -0.0387801312 -5.104401667e-13 1.214490176)
(-0.2969291625 1.973495939e-13 0.7569999119 5.404972478e-13 -0.2909032592 0 -0.05326426138 -3.15645558e-13 1.22138283)
(-0.3059784145 2.195163838e-13 1.002316192 2.828787812e-13 -0.2929674146 0 -0.06737741503 -3.471608258e-13 1.230220701)
(-0.3157859603 -7.360275764e-14 1.277641749 2.62103174e-13 -0.2958649558 0 -0.08100522853 -2.344996841e-13 1.240715011)
(-0.3269726924 -2.64740018e-13 1.593763155 2.215185141e-13 -0.2994270455 0 -0.09413712193 -1.811097594e-13 1.252572974)
(-0.3391802415 -4.770072335e-13 1.964583195 2.586768369e-13 -0.3035185897 0 -0.1066877333 -1.542307143e-13 1.265468688)
(-0.3522059246 -1.635842559e-13 2.407859826 2.785654127e-13 -0.3080349327 0 -0.1187260931 -1.79242192e-13 1.278905957)
(-0.3657502167 1.204123433e-13 2.946672141 2.417226506e-13 -0.3129021251 0 -0.1302784318 -1.318493781e-13 1.292383678)
(-0.3793693348 -1.819352496e-14 3.610740405 2.083261797e-13 -0.3180330378 0 -0.141322595 -1.070299204e-13 1.305380458)
(-0.3926310896 -3.16259733e-13 4.437597299 2.068373672e-13 -0.3233368091 0 -0.1518826578 -1.112803575e-13 1.31734162)
(-0.4051118825 -4.333933084e-13 5.473812993 2.231983267e-13 -0.3287206009 0 -0.1620086527 -1.298122724e-13 1.327695855)
(-0.4164538784 -2.624231911e-13 6.776170973 2.361615291e-13 -0.3340928485 0 -0.171734319 -7.940594112e-14 1.335872632)
(-0.4263307084 -1.65277244e-13 8.41272115 2.292750816e-13 -0.3393699119 0 -0.1810895904 -4.865250943e-14 1.34131966)
(-0.4342461663 -2.65687582e-13 10.46381354 2.274978737e-13 -0.3444718883 0 -0.1901728674 -1.367888072e-14 1.343531675)
(-0.4396050313 -1.043124135e-13 13.02350659 2.324750955e-13 -0.3493065201 0 -0.1990842818 -3.98955498e-14 1.341992875)
(-0.4420026969 5.592303233e-14 16.20125017 2.165628061e-13 -0.353778093 0 -0.2078159411 -5.657050032e-14 1.336046752)
(-0.4409494132 -9.945360805e-15 20.12341308 2.063184624e-13 -0.3578022763 0 -0.2163156102 -6.371221266e-14 1.3249417)
(-0.4355654437 -3.339589168e-14 24.93471037 1.977367357e-13 -0.3612844193 0 -0.2246180517 -6.541351894e-14 1.307877902)
(-0.4250133364 -3.696987382e-14 30.79993309 1.913001513e-13 -0.3641093241 0 -0.2327086675 -6.345902017e-14 1.28391856)
(-0.408457127 -3.1606522e-14 37.90530311 1.861508733e-13 -0.366162914 0 -0.2404575069 -6.024854491e-14 1.252044276)
(-0.3847862863 -1.851807479e-14 46.45922676 1.795667456e-13 -0.3673183893 0 -0.247777539 -6.373990843e-14 1.211256207)
(-0.3530867703 3.531148583e-15 56.69288617 1.7477685e-13 -0.3674346631 0 -0.2545218046 -6.799937318e-14 1.160504955)
(-0.3125408605 3.387865745e-14 68.86020938 1.678734625e-13 -0.3663780504 0 -0.2605339618 -7.174861956e-14 1.098848498)
(-0.2623417333 7.275498386e-14 83.23757377 1.613953779e-13 -0.3640109793 0 -0.2656521812 -7.454843806e-14 1.025507184)
(-0.2019355932 5.430228694e-14 100.1227906 1.534396462e-13 -0.3602039713 0 -0.2696411053 -6.595973021e-14 0.9398978363)
(-0.1309345326 3.320733048e-14 119.8333736 1.488954627e-13 -0.3548390948 0 -0.2723108818 -7.794968372e-14 0.8417410293)
(-0.04941067603 7.985300613e-15 142.7046346 1.434021485e-13 -0.3478130073 0 -0.2734620945 -7.774527006e-14 0.7310085695)
(0.04223369184 1.514261678e-14 169.0869539 1.423619501e-13 -0.3390536567 1.230199468e-12 -0.2729083436 -8.821774035e-14 0.6081194943)
(0.1433795688 7.742164382e-14 199.3428413 1.361148965e-13 -0.3285129992 0 -0.2704903256 -7.406497598e-14 0.4739115965)
(0.2528176015 1.036966877e-13 233.8433973 1.306692647e-13 -0.3161746311 0 -0.2660497285 -7.074627493e-14 0.3296022053)
(0.3689664398 1.289821067e-13 272.9645217 1.24806934e-13 -0.302063571 0 -0.2595087029 -6.664139465e-14 0.1769426545)
(0.4899466474 1.549928464e-13 317.0837624 1.19689704e-13 -0.286240449 0 -0.250831073 -6.236603884e-14 0.01809999576)
(0.6132813534 1.822650066e-13 366.5759381 1.129383017e-13 -0.2688060927 0 -0.2400153525 -5.866509494e-14 -0.144363385)
(0.7361317288 2.110214613e-13 421.8081678 1.074788709e-13 -0.249907857 0 -0.2271128522 -5.390150512e-14 -0.3073229591)
(0.8554143107 2.409781296e-13 483.13679 1.003534908e-13 -0.2297325327 0 -0.2122604246 -4.817060011e-14 -0.4672760795)
(0.9676475592 2.709546733e-13 550.9047869 9.330645e-14 -0.2085072692 0 -0.1956520327 -4.155170301e-14 -0.6204658627)
(1.069028729 2.991261991e-13 625.4376294 8.690626116e-14 -0.1864989244 0 -0.1775392213 -3.432883511e-14 -0.7627307919)
(1.155495424 3.276557816e-13 707.0399096 8.025601246e-14 -0.1640116719 0 -0.1582330602 -3.875451005e-14 -0.8895908997)
(1.22274443 3.590356666e-13 795.9934986 7.363370953e-14 -0.1413842534 0 -0.1380984947 -4.225860269e-14 -0.9962991798)
(1.266250559 4.139392797e-13 892.5555476 6.613921415e-14 -0.1189873841 0 -0.117542206 -4.307487457e-14 -1.077879918)
(1.281369594 4.462853997e-13 996.9573309 5.775105608e-14 -0.09722089247 0 -0.09702680086 -5.619009615e-14 -1.129155033)
(1.263417071 4.542187811e-13 1109.404687 5.052622239e-14 -0.07650853805 0 -0.07705902371 -2.783781509e-14 -1.144875378)
(1.207874736 6.525457569e-13 1230.078951 4.312168104e-14 -0.05729375231 0 -0.05817633012 -3.389048846e-14 -1.119783701)
(1.110453463 5.056178368e-13 1359.137702 3.072690316e-14 -0.04002995401 0 -0.04093130335 -4.221017993e-14 -1.04854961)
(0.9647834245 3.677499313e-13 1496.719417 2.771708047e-14 -0.02517641072 0 -0.02589454455 -3.172206023e-14 -0.925790257)
(0.7568686948 5.787034771e-13 1642.958734 2.010562893e-14 -0.01325146635 0 -0.01368613203 -6.58477603e-14 -0.7460593967)
(0.4793000076 6.196878815e-13 1798.028922 1.213967796e-14 -0.004963313987 0 -0.005123088671 -1.391213484e-14 -0.5038715501)
(0.234116448 6.54253412e-13 1962.275855 4.11017827e-15 -0.0008850276225 0 -0.0009049773788 -5.378220274e-15 -0.193633241)
(-0.1922150733 -9.130843584e-14 0.1370901037 5.315045249e-13 -0.3132536474 0 -0.009618605882 -3.127528205e-13 1.153797482)
(-0.2576617476 -2.668569733e-13 0.3188581201 2.587943234e-13 -0.2745925283 0 -0.02509029378 -8.740792414e-13 1.156121643)
(-0.2587466731 -3.207518851e-13 0.5228765952 2.981161872e-13 -0.2640884079 0 -0.03962027177 -4.604215237e-13 1.161090868)
(-0.2711268463 -2.0447529e-13 0.7424340941 2.962221758e-13 -0.2643825623 0 -0.05444041184 -3.673616043e-13 1.168341502)
(-0.2805090775 -1.497606616e-13 0.9841793371 2.606243317e-13 -0.2666395964 0 -0.06887923183 -1.077869697e-13 1.177604338)
(-0.2906951635 -1.972412517e-13 1.256340778 2.446296291e-13 -0.2697273074 0 -0.08284394638 -1.439517667e-13 1.188645996)
(-0.302404602 -2.401197803e-13 1.569784756 2.403403487e-13 -0.2734742264 0 -0.09634975134 7.82252435e-15 1.201084334)
(-0.315239008 -2.370742368e-13 1.938603292 2.431949315e-13 -0.2777843474 0 -0.1092956416 -5.143873708e-14 1.214596616)
(-0.3287893518 -1.886224758e-13 2.380819836 2.393555752e-13 -0.2825327416 0 -0.1216874417 -1.182271894e-13 1.228728609)
(-0.342838618 -1.65936173e-13 2.919617412 2.325705681e-13 -0.287627723 0 -0.133600097 -6.763389612e-14 1.242914874)
(-0.3570095735 -1.59183807e-13 3.584795744 2.273559749e-13 -0.292990415 0 -0.1450434323 1.304937884e-13 1.256577946)
(-0.3707979868 -1.574958946e-13 4.413996782 2.209399149e-13 -0.2985293364 0 -0.156021168 5.998948665e-14 1.26913534)
(-0.3837764462 -1.714176766e-13 5.453886511 2.178629085e-13 -0.3041461704 0 -0.1665488291 -5.998327561e-14 1.279994039)
(-0.3955849909 -1.599225274e-13 6.76127332 2.141536447e-13 -0.3097494641 1.733544128e-12 -0.1766540802 -1.738395371e-13 1.288574282)
(-0.4057551801 -1.438713163e-13 8.40415777 2.098312584e-13 -0.3152519987 0 -0.1864093808 -1.559294057e-13 1.294360135)
(-0.4137690004 -1.304471384e-13 10.46294821 2.049039068e-13 -0.3205588977 -1.595601525e-12 -0.1959113276 -1.820962885e-13 1.296867543)
(-0.4192419426 -1.093929571e-13 13.03197399 2.016288855e-13 -0.3255756853 0 -0.2051736495 -2.550151904e-13 1.295552113)
(-0.4218520923 -1.019439104e-13 16.22098506 1.961461106e-13 -0.3302173164 0 -0.2141387901 -2.015035751e-13 1.289789802)
(-0.421005559 -1.002546929e-13 20.15654855 1.921384994e-13 -0.334404033 0 -0.2228216486 -1.373538793e-13 1.278909459)
(-0.4158514595 -8.819102704e-14 24.98373634 1.880573151e-13 -0.3380392896 0 -0.2312530714 -1.019585034e-13 1.262199755)
(-0.4057201799 -7.156988394e-14 30.86775346 1.838644564e-13 -0.3410137182 0 -0.239340313 -8.176305137e-14 1.238785044)
(-0.3898481298 -5.285307096e-14 37.99498817 1.788638285e-13 -0.3432238345 0 -0.24701327 -6.989215932e-14 1.207741325)
(-0.3672426425 -3.281484686e-14 46.57402695 1.743619124e-13 -0.3445510313 0 -0.2541959178 -6.310058127e-14 1.16815751)
(-0.3370525442 -1.147873371e-14 56.8361488 1.683747676e-13 -0.3448690795 0 -0.2606981512 -5.816410753e-14 1.11910021)
(-0.2984357715 1.002492709e-14 69.03513465 1.634557398e-13 -0.3440527678 0 -0.2663892959 -5.288484726e-14 1.059738953)
(-0.2507385631 2.985269236e-14 83.44705135 1.576564888e-13 -0.3419732741 0 -0.2711147698 -4.558854893e-14 0.9893339918)
(-0.1935112244 4.51106879e-14 100.3691454 1.515909758e-13 -0.3385154372 0 -0.2746745219 -3.476281804e-14 0.9073659755)
(-0.1263891488 5.86128095e-14 120.1182925 1.458443262e-13 -0.3335722182 0 -0.2768848729 -4.297381447e-14 0.8135974089)
(-0.0494134473 1.102496196e-13 143.0289177 1.403767867e-13 -0.3270513471 0 -0.2775263342 -5.030094265e-14 0.7080403232)
(0.03708308466 6.527151813e-14 169.4502072 1.333517001e-13 -0.3188863845 1.230199468e-12 -0.2764533535 -7.91035486e-14 0.5910996345)
(0.1324290191 2.855432515e-14 199.7434615 1.307419401e-13 -0.3090337883 0 -0.2735319713 -7.158481187e-14 0.4635299654)
(0.2355021762 9.084147232e-14 234.2783212 1.247297526e-13 -0.2974832683 0 -0.2686029457 -6.626698163e-14 0.3265170801)
(0.344907881 1.170659974e-13 273.4291155 1.206664196e-13 -0.2842585966 0 -0.2616024482 -6.321880886e-14 0.1816992671)
(0.4588512044 1.440609811e-13 317.5718636 1.143832639e-13 -0.269416987 0 -0.2525045645 -6.265477836e-14 0.03106072085)
(0.5749912516 1.694470884e-13 367.0795046 1.094089797e-13 -0.2530546065 0 -0.2413072354 -6.577484205e-14 -0.1229788129)
(0.6906978543 1.953801517e-13 422.3172248 1.033676573e-13 -0.2353105689 0 -0.22808157 -5.68971076e-14 -0.2774932934)
(0.8031098817 2.254526358e-13 483.6397875 9.800604076e-14 -0.2163601096 0 -0.2129586801 -4.845679011e-14 -0.4292124254)
(0.9089756876 2.597589996e-13 551.3884298 9.154595095e-14 -0.1964159179 0 -0.1961285835 -3.914176059e-14 -0.574624743)
(1.004729744 2.958398038e-13 625.8866542 8.426384106e-14 -0.1757278917 0 -0.1778413404 -4.141160606e-14 -0.7098224051)
(1.086548266 3.313994086e-13 707.4371996 7.761020985e-14 -0.1545810487 0 -0.1584037813 -4.467627858e-14 -0.8305870538)
(1.150347545 3.665152407e-13 796.3201154 7.068836115e-14 -0.1332932786 0 -0.13817147 -5.04362889e-14 -0.9324343715)
(1.191867264 4.029882594e-13 892.7907674 6.348183501e-14 -0.1122136017 0 -0.117545489 -4.940425477e-14 -1.01062912)
(1.206734438 4.424596236e-13 997.0788795 5.567794125e-14 -0.09171761176 0 -0.09698993697 -4.075719719e-14 -1.060280633)
(1.190495238 4.860350922e-13 1109.388948 4.785130473e-14 -0.07220437712 0 -0.07700312806 -4.117793906e-14 -1.076449533)
(1.138831978 5.344820575e-13 1229.900819 3.983906173e-14 -0.05409195493 0 -0.05811918105 -4.540342278e-14 -1.05409958)
(1.047633078 5.035823551e-13 1358.770555 3.147633982e-14 -0.03780910256 3.069692569e-13 -0.04088529513 3.396248255e-14 -0.988099956)
(0.9107962836 4.697765345e-13 1496.135122 2.493030879e-14 -0.02379059769 0 -0.02586320185 -4.016900047e-14 -0.8732926949)
(0.7149746025 5.132703307e-13 1642.127454 1.802312499e-14 -0.01252868089 0 -0.01367006588 -2.851502087e-14 -0.7044483851)
(0.453093016 5.556089038e-13 1796.918968 1.099712004e-14 -0.004696215124 0 -0.005117874483 -1.667196929e-14 -0.4762363495)
(0.2215607067 5.934900177e-13 1960.852638 3.741316117e-15 -0.0008384323451 0 -0.0009042709378 -5.603423434e-15 -0.1832242445)
(-0.1722277748 1.038425522e-12 0.1340201131 -8.796799515e-13 -0.2806144633 0 -0.009802535742 2.044085346e-14 1.098976273)
(-0.2311070108 -5.190943505e-13 0.3117857718 -1.209982958e-12 -0.2460172535 0 -0.02557625928 1.208085065e-13 1.10143429)
(-0.2327046555 -1.18331721e-12 0.5116114919 -1.642165438e-14 -0.2367691065 0 -0.04037263683 2.174408593e-13 1.106649113)
(-0.2447868502 -4.609459978e-13 0.7271929755 1.79341192e-13 -0.237334801 0 -0.05542074884 3.563947616e-14 1.114212626)
(-0.2544408146 -1.43345121e-13 0.9651912166 1.993009595e-13 -0.2397716441 0 -0.0701489317 -5.038141989e-15 1.123878461)
(-0.2650061175 -3.104617622e-13 1.234046053 1.705750815e-13 -0.2430379797 0 -0.08441136059 -3.101557765e-15 1.135404037)
(-0.2771682328 -4.162386778e-13 1.544758214 2.273098478e-13 -0.2469642749 0 -0.09820435644 -6.787450331e-15 1.148380937)
(-0.2905739626 -2.343452485e-13 1.911467875 2.3416382e-13 -0.2514702585 0 -0.1115243424 -1.138361415e-14 1.162433183)
(-0.3046961984 -1.423099701e-13 2.352486277 2.29992032e-13 -0.2564366115 0 -0.1242976236 4.162572713e-15 1.177138698)
(-0.3192331125 -3.871628483e-13 2.891240013 2.16958192e-13 -0.261754423 0 -0.1365527466 -9.05384578e-14 1.191935887)
(-0.3338720426 -2.565041518e-13 3.557612737 2.543983156e-13 -0.2673368024 0 -0.1483452522 -7.963545332e-14 1.20620026)
(-0.3481678351 8.117411802e-14 4.389305111 2.247005943e-13 -0.2730949448 0 -0.1596952853 -7.237686616e-14 1.219303451)
(-0.3616460602 5.877122897e-14 5.433021656 2.058582177e-13 -0.2789338856 0 -0.1706079091 -7.731373637e-14 1.230642526)
(-0.3738211969 -6.524084581e-14 6.74552365 1.879134748e-13 -0.2847570599 0 -0.1811345617 -7.929394561e-14 1.239662438)
(-0.3842072872 -1.443689629e-13 8.394796558 1.887671166e-13 -0.290465233 0 -0.1913497234 -6.386738289e-14 1.245859351)
(-0.3924262652 -4.200228797e-14 10.46139524 1.815308376e-13 -0.2959603506 -1.595601525e-12 -0.2012708054 -5.02556099e-14 1.248726998)
(-0.3982188401 -6.784711487e-14 13.03984071 1.737920617e-13 -0.3011550759 0 -0.2108644028 -4.32045814e-14 1.247722445)
(-0.401175455 -2.167920951e-13 16.24004085 1.713544089e-13 -0.3059733135 0 -0.2200969983 -4.142958758e-14 1.242278448)
(-0.4006082361 -2.428318673e-13 20.1887594 1.7654054e-13 -0.3103311194 0 -0.2290195298 -4.145400507e-14 1.23181928)
(-0.3958988553 -1.65984239e-13 25.03141759 1.783778944e-13 -0.3141308104 0 -0.2376307369 -4.480361989e-14 1.215656537)
(-0.3864578058 -1.149317885e-13 30.93356345 1.764287615e-13 -0.3172787357 0 -0.245794646 -4.698335084e-14 1.193000644)
(-0.371432917 -7.78304782e-14 38.08178571 1.735641595e-13 -0.3196747173 0 -0.2534687075 -4.834688482e-14 1.163043821)
(-0.350046553 -4.819172348e-14 46.68481367 1.691570792e-13 -0.3212049159 0 -0.260576714 -4.983557401e-14 1.124920687)
(-0.3215570267 -2.290932676e-14 56.97392344 1.651737264e-13 -0.321759468 0 -0.2669464608 -5.063160281e-14 1.077795786)