/*--------------------------------*- C++ -*----------------------------------*\
  =========                 |
  \\      /  F ield         | OpenFOAM: The Open Source CFD Toolbox
   \\    /   O peration     | Website:  https://openfoam.org
    \\  /    A nd           | Version:  7
     \\/     M anipulation  |
\*---------------------------------------------------------------------------*/
FoamFile
{
    version     2.0;
    format      ascii;
    class       volScalarField;
    location    "0.0006";
    object      rho;
}
// * * * * * * * * * * * * * * * * * * * * * * * * * * * * * * * * * * * * * //

dimensions      [1 -3 0 0 0 0 0];

internalField   nonuniform List<scalar> 
1167
(
933.9267736
933.8541506
933.6985121
933.4686347
933.1698735
932.8064947
932.3831241
931.9036656
931.3721853
930.7926113
930.1686948
929.5041654
928.8026318
928.0675837
927.3024112
926.5104154
925.6948229
933.8084575
933.7358854
933.580359
933.3507585
933.0522615
932.6893059
932.2663405
931.7874835
931.2567086
930.6779394
930.0549595
929.3915074
928.6912005
927.9575398
927.1939256
926.4036686
925.5900766
924.7563915
923.9055394
923.0405252
922.1644092
921.2797745
920.3894141
919.4958944
918.601574
917.7089504
916.8199677
915.9368282
915.0613542
914.1952251
913.3402071
912.4975916
911.6687231
910.8548194
910.0567292
909.2753174
908.5114574
907.7656078
907.0382201
906.3296292
905.6400566
904.9695896
904.318264
903.6859722
903.0725339
902.4776023
901.9008779
901.3418632
900.8001146
900.2750406
933.6902647
933.6177473
933.462341
933.2330547
932.9348125
932.5723146
932.1497605
931.671531
931.1414903
930.5635577
929.9415494
929.2792114
928.580169
927.8479342
927.0859171
926.2974445
925.4859153
924.6543796
923.8058665
922.9434747
922.0700637
921.1883133
920.3010705
919.4107292
918.5198011
917.6305929
916.745124
915.8656359
914.9937949
914.1313908
913.2800459
912.4411086
911.6159451
910.8056579
910.0111385
909.2332439
908.4728727
907.7304008
907.0063133
906.3009421
905.6145044
904.947086
904.2987237
903.6693213
903.0586698
902.4664314
901.8923287
901.3358533
900.7965658
900.2738758
933.5722
933.4997412
933.3445738
933.1155031
932.8175317
932.4555103
932.0335007
931.555814
931.0265365
930.4494726
929.8284702
929.1672825
928.469542
927.7387709
926.9783887
926.1918343
925.3823048
924.55295
923.7068305
922.8470551
921.9763654
921.097588
920.2133968
919.3262337
918.4386912
917.5528881
916.6709825
915.7950564
914.9268254
914.0681189
913.2204179
912.3851272
911.5636357
910.7569319
909.96595
909.1915815
908.4346246
907.6954992
906.9746815
906.2725009
905.5891702
904.9247738
904.2793649
903.6528147
903.0449251
902.4553564
901.8838511
901.3298937
900.7930466
900.2727207
933.4542686
933.3819418
933.2269704
932.9981095
932.7005244
932.3388981
931.9174676
931.4403897
930.9118528
930.3356897
929.7157274
929.055726
928.3593244
927.630055
926.8714208
926.0867402
925.2792441
924.4521003
923.608466
922.7512619
921.8833096
921.0075238
920.1263838
919.2424288
918.3582351
917.4758258
916.5974683
915.7250812
914.8604369
914.0054013
913.1613157
912.3296572
911.5117888
910.7086362
909.9211597
909.150285
908.396711
907.6609014
906.9433239
906.2443051
905.5640539
904.90266
904.2601747
903.6364485
903.0312971
902.444385
901.8754454
901.3239847
900.7895573
900.2715755
933.3365947
933.2643439
933.1095176
932.880879
932.5837238
932.2224839
931.801656
931.3252872
930.7974831
930.2222141
929.603326
928.9445463
928.2495202
927.5218622
926.7649654
925.9821628
925.1767323
924.351853
923.5107037
922.6560918
921.790919
920.9181054
920.0400224
919.1593265
918.2784235
917.3993967
916.5245712
915.6557038
914.7946767
913.9432295
913.1027325
912.2747103
911.4603982
910.6607663
909.8767641
909.1093517
908.35913
907.6266062
906.9122396
906.2163545
905.5391553
904.8807523
904.24115
903.6202232
903.0177864
902.433508
901.8671119
901.3181265
900.7860981
900.2704401
933.2190737
933.1468932
932.9922206
932.7638475
932.4671071
932.1063074
931.686071
931.2104369
930.6834696
930.109132
929.4913194
928.8338054
928.1402375
927.4141554
926.6589953
925.8781031
925.0747687
924.2522557
923.4135412
922.5615424
921.6992269
920.8293239
919.9543035
919.0768657
918.1992473
917.3236416
916.4522826
915.5869159
914.7294882
913.8815972
913.0446617
912.2202462
911.4094603
910.6133187
909.8327814
909.0687794
908.3218801
907.5926126
906.8814282
906.1886487
905.5144845
904.859036
904.2222912
903.6041394
903.0043934
902.4227256
901.8588511
901.3123193
900.7826689
900.2693146
933.1017011
933.029595
932.8750849
932.6470866
932.3506789
931.9904268
931.5707177
931.0958439
930.5697423
929.9964051
929.3797333
928.7235068
928.0313807
927.3069013
926.5535117
925.7745622
924.9733972
924.1532306
923.3169744
922.4676069
921.6081597
920.7411741
919.8692563
918.9950382
918.1206983
917.2485269
916.3805946
915.5187093
914.6648582
913.8204985
912.9870977
912.1662602
911.3589713
910.5662903
909.7892092
909.0285664
908.2849601
907.5589199
906.8508894
906.1611879
905.4900453
904.8375115
904.203599
903.5881975
902.9911185
902.4120385
901.8506631
901.3065634
900.7792701
900.268199
932.9844823
932.9124546
932.7581524
932.5305037
932.2344448
931.87476
931.4556358
930.9815134
930.4563062
929.8840003
929.2685019
928.6135958
927.9229449
927.2001019
926.4485157
925.6715402
924.8726264
924.0547737
923.2209965
922.3743564
921.5177132
920.6536511
919.7848806
918.9138367
918.0427686
917.17402
916.3094993
915.4511077
914.6007804
913.7599278
912.930079
912.1127483
911.308928
910.5196787
909.7460242
908.9887115
908.2483691
907.5255279
906.8206232
906.1339793
905.4658243
904.8161793
904.1850738
903.5723982
902.9779625
902.401447
901.8425523
901.3008591
900.7759017
900.2670935
932.8674226
932.7954776
932.6414823
932.4141038
932.1184317
931.7593129
931.3408866
930.8674494
930.3431655
929.7719217
929.1576285
928.5040754
927.8149325
927.0937585
926.3440073
925.5691314
924.7723984
923.9568824
923.125604
922.2817183
921.427881
920.5667488
919.7011266
918.8332542
917.965489
917.1001137
916.2389898
915.3841086
914.5372487
913.6998799
912.873572
912.0597068
911.2593275
910.4734845
909.7032248
908.9492135
908.2121068
907.4924363
906.7906298
906.1070365
905.4418223
904.7950401
904.1667164
903.5567422
902.9649258
902.3909517
901.8345191
901.2952067
900.772564
900.265998
932.7505728
932.6787927
932.524988
932.297892
932.0027228
931.6440899
931.2263838
930.7537397
930.2303247
929.6601729
929.0471162
928.3949482
927.7073454
926.9878721
926.2400511
925.4672484
924.6727116
923.8595555
923.0308607
922.1896763
921.3386576
920.4805256
919.6179863
918.7532833
917.8888481
917.0268009
916.1690596
915.3176705
914.4742578
913.6403502
912.8175581
912.0071324
911.2101672
910.4277445
909.6608099
908.9100719
908.1761729
907.4596454
906.7609097
906.0803398
905.4180401
904.7740949
904.1485278
903.5412303
902.9520094
902.3805533
901.8265602
901.2896066
900.7692572
900.2649127
932.6339752
932.5622848
932.4086746
932.1818734
931.8872232
931.5290956
931.1121319
930.6403371
930.1178592
929.5487574
928.9369682
928.2862167
927.6001863
926.8825103
926.136619
925.3658791
924.5735638
923.7627899
922.9367264
922.0982258
921.2500368
920.394933
919.5354532
918.6739172
917.8128048
916.9540754
916.0997147
915.251788
914.4118027
913.5813505
912.7620337
911.9550225
911.1614451
910.3824153
909.6187786
908.8712866
908.1405679
907.4271564
906.7314902
906.0538896
905.3944784
904.7533446
904.130509
903.5258635
902.939214
902.3702525
901.8186761
901.2840591
900.7659816
900.2638376
932.5175516
932.4459545
932.2925471
932.0661297
931.771938
931.4144145
930.9981349
930.5272147
930.0057473
929.4377834
928.8272517
928.177949
927.4935574
926.7776439
926.0336717
925.2650218
924.4749524
923.666647
922.8431658
922.0073619
921.162029
920.309942
919.453523
918.5951933
917.737352
916.8819305
916.0309922
915.1864558
914.3498788
913.5228989
912.7069959
911.9033746
911.1131596
910.3374962
909.5771307
908.8328576
908.1052923
907.3949697
906.7023489
906.0276876
905.3711387
904.7327907
904.1126613
903.5106432
902.9265409
902.3600504
901.8108676
901.278565
900.7627374
900.2627728
932.4013068
932.3298069
932.1766105
931.9506339
931.6568723
931.3000169
930.8843972
930.4143766
929.893947
929.3271621
928.7179545
928.0701258
927.387362
926.6732348
925.931209
925.1646746
924.3768744
923.5710824
922.7501742
921.9170787
921.0746743
920.2255488
919.372191
918.5170961
917.6624839
916.8103606
915.9628313
915.1216693
914.2884822
913.4649537
912.6524423
911.8521877
911.0653424
910.2929856
909.5358656
908.7947853
908.0703468
907.3630985
906.6734842
906.0017359
905.3480232
904.7124351
904.0949866
903.495571
902.9139916
902.3499482
901.8031358
901.2731248
900.7595251
900.2617186
932.2852458
932.2138468
932.0609518
931.8353461
931.5420303
931.1858615
930.7709887
930.3018267
929.7824616
929.2168838
928.6090287
927.9627028
927.2815957
926.5692827
925.8292299
925.0648358
924.2794233
923.476067
922.6577473
921.8273726
920.9879054
920.1417468
919.2914508
918.4395865
917.5881961
916.7393641
915.8952273
915.0574244
914.2276096
913.4075123
912.598371
911.8014603
911.0179731
910.2488838
909.4949841
908.7570707
908.0357329
907.3315512
906.6448983
905.9760368
905.3251344
904.6922804
904.0774873
903.4806491
902.9015679
902.3399475
901.7954818
901.2677395
900.7563453
900.2606749
932.1693734
932.0981222
931.9455329
931.7202713
931.427482
931.0719522
930.657896
930.1895688
929.6712941
929.1069507
928.500476
927.8556812
927.1762591
926.4657879
925.7277345
924.9655564
924.1824992
923.3815984
922.5658848
921.7383217
920.9017141
920.0585291
919.2113574
918.3626597
917.5144857
916.6689964
915.8281748
914.9937169
914.1673148
913.3505722
912.5447802
911.7511912
910.9710379
910.2051918
909.4544873
908.7197154
908.0014528
907.3003114
906.616594
905.9505934
905.3024753
904.6723297
904.0601665
903.4658803
902.8892724
902.3300504
901.7879074
901.2624103
900.7531986
900.2596422
932.0537841
931.9826732
931.8303197
931.6054143
931.3132259
930.958293
930.5450748
930.0777198
929.5604475
928.9973652
928.3922983
927.7490622
927.0713526
926.3627502
925.6267581
924.8668272
924.0860993
923.2876731
922.4745812
921.6498486
920.816097
919.9758905
919.1318619
918.2863107
917.4413472
916.5991903
915.7616713
914.9305442
914.1075396
913.2941318
912.4916689
911.7014009
910.9245376
910.1619111
909.4143775
908.6827223
907.9675363
907.2693828
906.5885753
905.9254098
905.2800502
904.6525871
904.043028
903.4512683
902.8771083
902.3202596
901.7804147
901.2571388
900.7500861
900.2586207
931.9384249
931.8674263
931.7153167
931.4907794
931.1992064
930.8448884
930.4325288
929.9661727
929.4500155
928.8881302
928.2844972
927.6428469
926.9668766
926.2602135
925.5263307
924.7686001
923.9902209
923.1942859
922.3838997
921.5619407
920.7310512
919.8938404
919.0529418
918.2105348
917.3687811
916.5299421
915.6957142
914.867904
914.0482806
913.2381899
912.4390369
911.6520961
910.8784735
910.1190439
909.3746576
908.6460948
907.933968
907.2387698
906.5608469
905.9004909
905.2578641
904.6330577
904.0260768
903.4368177
902.8650798
902.3105789
901.7730067
901.2519271
900.747009
900.2576109
931.8232689
931.7523866
931.6005291
931.3764922
931.0854273
930.7318468
930.3202619
929.8549274
929.339935
928.7793599
928.1771403
927.5370947
926.8629172
926.1581875
925.4263811
924.6708724
923.8948608
923.1014335
922.2937843
921.4745931
920.6465726
919.8124242
918.9745929
918.1353277
917.2968442
916.4612491
915.6303022
914.8058392
913.9895357
913.1827458
912.3868843
911.6032508
910.832848
910.0765933
909.3353316
908.609841
907.9007458
907.2084785
906.5334153
905.8758437
905.2359241
904.6137486
904.0093197
903.4225349
902.8531927
902.301013
901.7656873
901.246778
900.7439689
900.2566132
931.7083211
931.6375587
931.4859628
931.2624393
930.9718928
930.6190759
930.2082774
929.743987
929.2301833
928.6709427
928.0702061
927.4317941
926.7594036
926.0566136
925.3269069
924.5736416
923.8000173
923.0092015
922.2042116
921.3877999
920.5626559
919.7315734
918.8968101
918.0606847
917.2254659
916.3931075
915.5654317
914.7443154
913.9313035
913.1277986
912.3352222
911.5548651
910.7876625
910.034562
909.2964035
908.5739913
907.8678734
907.1785137
906.506286
905.851474
905.2142366
904.5946661
903.9927632
903.408426
902.8414526
902.2915671
901.7584606
901.2416947
900.7409679
900.2556283
931.5935864
931.5229478
931.3717441
931.1486206
930.8586067
930.5065703
930.0966718
929.6333533
929.1207613
928.562879
927.96365
927.3268962
926.6563166
925.9554894
925.2279044
924.4769029
923.7057126
922.9175003
922.1151759
921.3015548
920.4793598
919.6512788
918.8195855
917.9866167
917.1546394
916.3255106
915.5010964
914.6833147
913.8735807
913.0733463
912.2840735
911.5069372
910.7429163
909.9929504
909.2578744
908.5385185
907.8353553
907.14888
906.4794644
905.8273879
905.1928076
904.5758168
903.9764136
903.3944974
902.8298654
902.2822462
901.7513307
901.23668
900.7380075
900.2546568
931.4790786
931.408644
931.2577529
931.0350396
930.7456627
930.3943325
929.9853755
929.5230416
929.0116684
928.455167
927.8574688
927.2223965
926.5536505
925.8548079
925.1293652
924.3806465
923.6119672
922.8263116
922.0266644
921.215843
920.3966209
919.5715243
918.7429015
917.9131376
917.0843459
916.2584393
915.4373209
914.622817
913.8163473
913.0193675
912.2333803
911.4594461
910.6985872
909.9517353
909.219734
908.5033975
907.8031658
907.1195514
906.4529238
905.8035586
905.1716115
904.5571764
903.9602494
903.3807306
902.8184167
902.2730401
901.7442914
901.2317358
900.7350866
900.2536985
931.3648721
931.2945672
931.1439561
930.9216632
930.6329588
930.2823283
929.874331
929.4131018
928.9028687
928.3477703
927.7516252
927.1182566
926.4513657
925.754528
925.0312461
924.2849175
923.5186713
922.7355828
921.938619
921.1306461
920.3143519
919.4922341
918.6666728
917.8401006
917.014478
916.1917732
915.3739445
914.5626733
913.7594377
912.9656875
912.1829446
911.4121777
910.6544462
909.9106745
909.1817406
908.4683702
907.7710454
907.0902723
906.4264194
905.7797591
905.1504453
904.5385724
903.9441326
903.3670248
902.8070414
902.2639153
901.737333
901.2268618
900.7322133
900.252757
931.2227274
931.1525864
931.0023298
930.780625
930.4927141
930.143015
929.7361846
929.2763509
928.7676829
928.2142528
927.620036
926.9888122
926.3242549
925.629972
924.9094797
924.1660476
923.402856
922.6229952
921.8294077
921.0250615
920.2124204
919.3940632
918.5724368
917.7498385
916.92824
916.1096127
915.2959764
914.4888412
913.6897556
912.9002193
912.121603
911.354936
910.6012635
909.8614988
909.1365577
908.4270563
907.7335215
907.0564462
906.3961898
905.7530116
905.1270538
904.5183989
903.9270225
903.3528093
902.7955359
902.254926
901.7306573
901.2223012
900.7295805
900.2519056
)
;

boundaryField
{
    front_top
    {
        type            wedge;
    }
    front_middle
    {
        type            wedge;
    }
    front_bottom
    {
        type            wedge;
    }
    back_top
    {
        type            wedge;
    }
    back_middle
    {
        type            wedge;
    }
    back_bottom
    {
        type            wedge;
    }
    axis_top
    {
        type            symmetryPlane;
    }
    axis_middle
    {
        type            symmetryPlane;
    }
    axis_bottom
    {
        type            symmetryPlane;
    }
    wall_top
    {
        type            calculated;
        value           nonuniform 0();
    }
    wall_middle
    {
        type            calculated;
        value           nonuniform 0();
    }
    wall_bottom
    {
        type            calculated;
        value           uniform 900.0184441;
    }
    inlet
    {
        type            calculated;
        value           nonuniform 0();
    }
    outlet
    {
        type            calculated;
        value           nonuniform List<scalar> 
50
(
931.2227274
931.1525864
931.0023298
930.780625
930.4927141
930.143015
929.7361846
929.2763509
928.7676829
928.2142528
927.620036
926.9888122
926.3242549
925.629972
924.9094797
924.1660476
923.402856
922.6229952
921.8294077
921.0250615
920.2124204
919.3940632
918.5724368
917.7498385
916.92824
916.1096127
915.2959764
914.4888412
913.6897556
912.9002193
912.121603
911.354936
910.6012635
909.8614988
909.1365577
908.4270563
907.7335215
907.0564462
906.3961898
905.7530116
905.1270538
904.5183989
903.9270225
903.3528093
902.7955359
902.254926
901.7306573
901.2223012
900.7295805
900.2519056
)
;
    }
    procBoundary0to1
    {
        type            processor;
        value           nonuniform List<scalar> 
51
(
934.0452081
933.9725378
933.8167953
933.5867568
933.2876432
932.923972
932.5001053
932.0200715
931.4879149
930.9076382
930.2828499
929.6172638
928.9144841
928.1780606
927.4113703
926.6176753
925.8001939
924.8589871
924.8589871
924.0058259
923.1382562
922.2594094
921.371905
920.4784344
919.5817383
918.6840628
917.7879682
916.8954568
916.0086453
915.129514
914.2596647
913.4009102
912.554584
911.7219763
910.9044219
910.1027266
909.3177639
908.5503813
907.8011218
907.0704031
906.3585629
905.665827
904.9922843
904.3379695
903.7027769
903.0865248
902.4888666
901.9094986
901.3479232
900.8036931
900.2762152
)
;
    }
}


// ************************************************************************* //
