/*--------------------------------*- C++ -*----------------------------------*\
  =========                 |
  \\      /  F ield         | OpenFOAM: The Open Source CFD Toolbox
   \\    /   O peration     | Website:  https://openfoam.org
    \\  /    A nd           | Version:  7
     \\/     M anipulation  |
\*---------------------------------------------------------------------------*/
FoamFile
{
    version     2.0;
    format      ascii;
    class       volScalarField;
    location    "0.0006";
    object      T;
}
// * * * * * * * * * * * * * * * * * * * * * * * * * * * * * * * * * * * * * //

dimensions      [0 0 0 1 0 0 0];

internalField   nonuniform List<scalar> 
1167
(
459.4146042
459.5255195
459.7632803
460.1145972
460.5714466
461.1275001
461.7759019
462.5109152
463.3265628
464.2170806
465.1769717
466.2007631
467.2831545
468.4190113
469.6033326
470.8312318
472.097912
459.5953185
459.7061841
459.943834
460.2948164
460.7513768
461.3069226
461.9548662
462.6891408
463.5039085
464.3934095
465.3520948
466.3744754
467.4552346
468.5892179
469.7714058
470.9968938
472.2607559
473.5581392
474.8846535
476.2357558
477.6067836
478.9937898
480.3924677
481.7988332
483.209201
484.6196358
486.0270494
487.4279198
488.8193017
490.1984566
491.5624866
492.9092338
494.2364403
495.5420368
496.8245362
498.0824171
499.3141371
500.5188169
501.6955869
502.8437648
503.9628522
505.0525697
506.1127244
507.1433605
508.1446451
509.1170227
510.0608665
510.9768804
511.8656864
512.7281565
459.7758904
459.8867004
460.1242268
460.4748174
460.931103
461.4860876
462.1335634
462.8670586
463.6809012
464.5693354
465.52676
466.5476715
467.6267385
468.758787
469.938779
471.1617827
472.4227265
473.7170534
475.0402099
476.3875032
477.7545816
479.1373443
480.5313969
481.9330241
483.3382976
484.7435808
486.1456655
487.5409664
488.9267845
490.3002056
491.6585601
492.9995998
494.3210321
495.6209728
496.897867
498.150207
499.37641
500.5757315
501.7472492
502.8902865
504.004353
505.0891732
506.1445535
507.1705211
508.1672906
509.135293
510.0748668
510.9867345
511.8715123
512.730071
459.9563121
460.0670607
460.3042817
460.654631
461.1106171
461.6650111
462.3118142
463.0446592
463.8575311
464.7448483
465.7009579
466.7203429
467.7976584
468.9277115
470.1054471
471.3257559
472.5838771
473.8750956
475.194806
476.5382958
477.9013957
479.2797724
480.6692992
482.0661847
483.4663702
484.8665144
486.2631886
487.6530576
489.0333449
490.4010721
491.7537948
493.0891744
494.4048825
495.6992181
496.9705582
498.2173405
499.4381448
500.6321571
501.7984699
502.9364123
504.045502
505.1254671
506.1760886
507.1974473
508.1897417
509.1534071
510.0887503
510.9965062
511.8772894
512.7319693
460.1365759
460.2471505
460.4841316
460.8342482
461.2897575
461.8436852
462.4897618
463.2218547
464.0337897
464.9199393
465.8746799
466.8924817
467.9679865
469.0959835
470.271285
471.4889653
472.7442085
474.0322686
475.3483865
476.6881402
478.0472328
479.4211902
480.8061884
482.1982814
483.5934331
484.9884523
486.3797358
487.7642063
489.1389964
490.5010689
491.848202
493.1779421
494.4880015
495.7767807
497.042616
498.2838907
499.499345
500.6880957
501.8492503
502.982143
504.0862995
505.1614403
506.2073503
507.2241455
508.2120029
509.1713522
510.1025162
511.0061952
511.8830176
512.7338516
460.3164913
460.4269777
460.6637966
461.0136609
461.4686262
462.0221006
462.667414
463.3986
464.2096091
465.0946
466.0479179
467.06408
468.1377161
469.2634851
470.4363664
471.6514091
472.9037215
474.1885372
475.5010593
476.8370409
478.192057
479.5616214
480.9420782
482.3292944
483.7195003
485.1094086
486.4953234
487.8744222
489.2436636
490.6002094
491.9417924
493.2658831
494.5703981
495.8536677
497.114046
498.3498617
499.5600135
500.7435495
501.8995915
503.027479
504.1267458
505.1970798
506.2383437
507.2506147
508.2340732
509.1891434
510.1161641
511.0158011
511.8886966
512.7357177
460.4962184
460.606625
460.8432683
461.1928142
461.6472583
462.200196
462.8447627
463.5750017
464.3849239
465.2686977
466.2205892
467.2350422
468.3066797
469.4302732
470.600733
471.8130853
473.0624167
474.343826
475.6528276
476.9850009
478.335815
479.7010797
481.0769825
482.4593196
483.8445856
485.2293187
486.6099643
487.9837184
489.3474355
490.6985029
492.0345763
493.3530621
494.6520783
495.9298846
497.184819
498.4152567
499.6201525
500.7985198
501.9494943
503.0724207
504.1668242
505.2324098
506.2690681
507.2768541
508.255952
509.2067801
510.1296934
511.0253234
511.8943261
512.7375676
460.6757636
460.7860842
461.0225383
461.371598
461.825646
462.3778822
463.0217998
463.7510513
464.5598415
465.4422907
466.3926538
467.4053621
468.4750242
469.5963988
470.7643825
471.9739917
473.2202253
474.4982558
475.8036973
477.1320305
478.4786216
479.8395723
481.2108549
482.5883694
483.9687016
485.3482344
486.7236709
488.0921072
489.450333
490.7959586
492.1265621
493.4394862
494.7330478
496.005436
497.254938
498.4800785
499.679764
500.8530075
501.998959
503.1169678
504.2065287
505.2674295
506.2995226
507.302863
508.2776383
509.2242616
510.1431036
511.0347618
511.899906
512.739401
460.8551188
460.965347
461.2015421
461.5501539
462.0037809
462.5552846
463.1984642
463.9267412
464.7343539
465.6154295
466.5642126
467.5751237
468.6427571
469.7618585
470.9273126
472.1341275
473.3771331
474.6518326
475.9536783
477.2780179
478.6204828
479.9771066
481.3436947
482.7164548
484.0918602
485.4662074
486.836455
488.1995511
489.552366
490.8925851
492.2176886
493.5251616
494.8133116
496.0803258
497.3244406
498.5443289
499.7388489
500.9070133
502.0479856
503.1611087
504.2458807
505.3021381
506.3297061
507.3286403
508.2991313
509.2415871
510.1563877
511.0441157
511.9054358
512.7412181
461.0342755
461.1444048
461.3801892
461.7284741
462.1816214
462.7323941
463.3746613
464.1020644
464.9084542
465.7881078
466.7352602
467.7443222
468.8098741
469.9266497
471.0895228
472.2933459
473.5332298
474.8045598
476.1027755
477.4230758
478.7614084
480.1136917
481.47558
482.8435865
484.2140124
485.5832486
486.9483273
488.306053
489.6535436
490.9883904
492.3080082
493.6100938
494.892874
496.1545528
497.3933293
498.6080095
499.7974081
500.9605371
502.0965736
503.2048209
504.2848791
505.3365342
506.3596175
507.3541847
508.3204299
509.2587556
510.1695449
511.0533846
511.9109154
512.7430186
461.2131557
461.3230601
461.5586116
461.9065506
462.3590397
462.9092035
463.5505234
464.276886
465.0821355
465.9603195
466.9057913
467.9129531
468.9763719
470.0907703
471.2509127
472.4517816
473.6885173
474.9564388
476.250889
477.5672292
478.9014063
480.2492352
481.606523
482.9697754
484.3351753
485.6993685
487.0592977
488.4116786
489.7538741
491.0833817
492.3975509
493.694288
494.9717388
496.2280574
497.4616058
498.6711211
499.8554416
501.0135785
502.1447221
503.2481365
504.3235225
505.3706164
506.3892552
507.3794949
508.3415328
509.275766
510.1825807
511.062568
511.9163443
512.7448024
461.3916946
461.5014892
461.7368015
462.0843754
462.5361812
463.0857056
463.7260433
464.4512781
465.255281
466.1320587
467.0758009
468.0810119
469.142246
470.2541154
471.4115247
472.6094533
473.8429984
475.1074735
476.3980805
477.710485
479.0404858
480.3838126
481.7365331
483.0950319
484.4554137
485.814577
487.1693566
488.5164363
489.8533651
491.1775399
492.486322
493.7777481
495.0499093
496.300909
497.529271
498.7336638
499.9129486
501.0661355
502.192387
503.2910547
504.3618098
505.4043831
506.4186176
507.4045691
508.3624385
509.2926171
510.1954942
511.071665
511.9217222
512.7465694
461.5700116
461.6796906
461.9147509
462.261823
462.7130375
463.2617704
463.9012146
464.6252816
465.4279238
466.3031585
467.2451846
468.2483933
469.3073375
470.4167293
471.5714198
472.7663631
473.996677
475.2575682
476.5444049
477.8528502
479.1786301
480.5174689
481.8656168
483.2192969
484.5747382
485.9288837
487.2784439
488.620334
489.9520233
491.2708352
492.5743262
493.8604779
495.1273878
496.3731091
497.5963254
498.7956373
499.9699281
501.1182072
502.2396042
503.3335727
504.3997381
505.4378318
506.4477022
507.4294054
508.383145
509.3093073
510.2082841
511.0806748
511.9270484
512.7483195
461.7480992
461.8576567
462.092452
462.4389345
462.8896008
463.4374433
464.0760302
464.7988901
465.6001284
466.4737552
467.4139608
468.4151262
469.4717955
470.5786708
471.7305977
472.9225132
474.1495569
475.4067908
476.689869
477.9943335
479.3157752
480.6502099
481.993781
483.3425934
484.6931576
486.0422974
487.3866561
488.7233787
490.0498547
491.3633341
492.6615667
493.9424786
495.2041233
496.4446596
497.6627695
498.8570408
500.0263789
501.1697725
502.2863763
503.3756872
504.4373043
505.4709593
506.4765061
507.4540008
508.40365
509.3258345
510.2209487
511.0895963
511.9323223
512.7500523
461.9259497
462.0353797
462.2697714
462.6157708
463.0658644
463.6127874
464.2503824
464.9720971
465.7718892
466.6438635
467.5822032
468.581279
469.6356266
470.7399397
471.8890592
473.077906
474.3014921
475.5551867
476.8344789
478.13494
479.4520266
480.7820451
482.1210352
483.4649832
484.8106784
486.1548205
487.4940003
488.8255765
490.1468645
491.4550406
492.7480464
494.0237524
495.280148
496.51556
497.7286023
498.9178727
500.0822984
501.2208173
502.3326996
503.4173941
504.4745041
505.5037614
506.5050253
507.4783518
508.4239502
509.342196
510.2334861
511.0984278
511.9375429
512.7517676
462.1035551
462.2127858
462.4467669
462.7923242
463.2417206
463.7877963
464.4242916
465.1448965
465.9432013
466.8134795
467.7499086
468.7468493
469.7988294
470.9005354
472.046804
473.2324619
474.4526373
475.7027591
476.9782347
478.274547
479.5873965
480.9129851
482.2472925
483.5864733
484.9273049
486.2663641
487.6004845
488.9269338
490.2429666
491.5459583
492.8337678
494.1043011
495.3554838
496.5858086
497.7938214
498.9781301
500.1376831
501.2713681
502.3785696
503.4586886
504.5113324
505.536233
506.533255
507.5024537
508.4440416
509.3583885
510.2458933
511.1071675
511.9427092
512.753465
462.2807708
462.3898134
462.6234908
462.9685869
463.4171713
463.9624636
464.5978254
465.3171081
466.1140598
466.9825993
467.9170737
468.9118346
469.9614027
471.0604576
472.2037769
473.386194
474.6029968
475.8495128
477.1211443
478.4132749
479.72189
481.0430376
482.372629
483.7070713
485.0430451
486.3770347
487.7061125
489.0274545
490.3382529
491.6360897
492.9187323
494.1840918
495.4301294
496.6554026
497.8584231
499.0378083
500.1924847
501.3214189
502.4239797
503.4995638
504.5477824
505.5683674
506.5611885
507.5263007
508.4639189
509.3744072
510.2581669
511.1158126
511.9478194
512.7551439
462.4576776
462.5665748
462.7999359
463.144552
463.5923016
464.1367822
464.7709778
465.4888963
466.2843198
467.1512179
468.0836959
469.0762332
470.1233456
471.2196377
472.3599302
473.5391771
474.7525742
475.9954556
477.2631087
478.5511432
479.855511
481.1721875
482.4970799
483.826784
485.1578983
486.4868375
487.8108881
489.1271417
490.4327289
491.725436
493.0029402
494.2631128
495.5040824
496.7243386
497.9224027
499.0969016
500.2467277
501.3709624
502.4689222
503.5400117
504.5838457
505.6001563
506.5888179
507.5498851
508.4835752
509.3902465
510.2703021
511.1243599
511.9528717
512.7568038
462.6343163
462.7430622
462.9760938
463.3200267
463.7671055
464.3105852
464.9437427
465.6602606
466.4540783
467.3191588
468.24967
469.2399527
470.2845242
471.37806
472.5153744
473.6914146
474.9013738
476.140592
477.4042143
478.6881588
479.9882653
481.3003621
482.6206514
483.9456179
485.2717736
486.5957765
487.9148128
489.225927
490.5263976
491.8139983
493.0863906
494.3414062
495.5773388
496.7926111
497.9857533
499.1553971
500.3004155
501.4199887
502.5133864
503.5800209
504.6195108
505.631588
506.6161318
507.5731963
508.5030009
509.405898
510.2822923
511.1328045
511.957863
512.7584437
462.8106794
462.919268
463.1519557
463.4951845
463.9415762
464.4840142
465.1161145
465.8311963
466.6233697
467.4865937
468.4150288
469.40301
470.4450475
471.5358149
472.6701126
473.8429103
475.0493979
476.284788
477.5444977
478.8243308
480.120161
481.4276695
482.7433511
484.0635798
485.3847822
486.7038575
488.0178921
489.3238645
490.6192608
491.9017775
493.1690661
494.4189712
495.6498963
496.8602157
498.0484686
499.213245
500.3535419
501.46849
502.5573634
503.6195817
504.6547674
505.6626522
506.6431201
507.5962245
508.5221869
509.4213537
510.2941309
511.1411414
511.9627904
512.7600624
462.9867589
463.0951842
463.3273269
463.6700255
464.1157076
464.6570769
465.2879445
466.0016999
466.7921924
467.6535215
468.579841
469.5654807
470.6049451
471.692906
472.8241503
473.993671
475.1966116
476.4281827
477.6839673
478.9596685
480.2511055
481.5541233
482.865191
484.1806525
485.4969349
486.8110904
488.1201355
489.4209826
490.7113234
491.988777
493.2509292
494.4958105
495.7217554
496.9271514
498.1105465
499.2704894
500.4060998
501.5164585
502.6008443
503.6586845
504.6896053
505.6933382
506.669772
507.6189593
508.5411237
509.4366053
510.3058111
511.1493659
511.967651
512.7616592
463.1625334
463.2706722
463.5023918
463.844544
464.2893554
464.8297697
465.4593395
466.171748
466.9605471
467.8199448
468.744111
469.7273713
470.7642253
471.8493436
472.9775
474.1437115
475.3429821
476.5708042
477.8226426
479.0941944
480.3811974
481.6797486
482.9861985
484.296813
485.608261
486.9175056
488.2215038
489.5173126
490.8026174
492.0750301
493.3320724
494.5719579
495.7929519
496.9934556
498.1720037
499.3271705
500.4581302
501.5639364
502.6438723
503.6973724
504.7240663
505.7236854
506.6961228
507.6414307
508.5598346
509.4516693
510.3173431
511.157475
511.9724468
512.7632344
463.3378888
463.445855
463.677201
464.0187908
464.4626763
465.0021445
465.6303878
466.341263
467.128489
467.9859197
468.9078963
469.8887411
470.9229493
472.0051912
473.1302286
474.2929613
475.4886803
476.7127349
477.9606143
479.2279375
480.5105739
481.8046643
483.1065077
484.4122931
485.7189301
487.0232934
488.3222518
489.6130919
490.8934061
492.1608165
493.4128125
494.6477561
495.8638533
497.0595175
498.2332289
499.3837049
500.5100528
501.6113373
502.6868441
503.7360141
504.7584803
505.7539746
506.7223971
507.6638032
508.578426
509.4666005
510.3287427
511.1654689
511.9771645
512.764782
463.5561995
463.6639469
463.8948188
464.2356083
464.6784078
465.2166047
465.8432382
466.5521723
467.3372134
468.1923148
469.1115719
470.0893706
471.1202452
472.198813
473.3198098
474.4783313
475.6695866
476.8888977
478.1317897
479.3937187
480.6709032
481.9593544
483.2552645
484.5550332
485.8555518
487.1536894
488.4462149
489.7306871
491.0045865
492.2654549
493.5110235
494.7395578
495.9492873
497.1386436
498.3060468
499.4503921
500.5707152
501.6661036
502.7358593
503.779445
504.7965148
505.7868211
506.7502923
507.6870088
508.5972311
509.4813108
510.3396796
511.172949
511.9814876
512.7661813
)
;

boundaryField
{
    front_top
    {
        type            wedge;
    }
    front_middle
    {
        type            wedge;
    }
    front_bottom
    {
        type            wedge;
    }
    back_top
    {
        type            wedge;
    }
    back_middle
    {
        type            wedge;
    }
    back_bottom
    {
        type            wedge;
    }
    axis_top
    {
        type            symmetryPlane;
    }
    axis_middle
    {
        type            symmetryPlane;
    }
    axis_bottom
    {
        type            symmetryPlane;
    }
    wall_top
    {
        type            convectiveRadiativeHeatFlux;
        mode            convectiveRadiative;
        kappaMethod     fluidThermo;
        kappa           none;
        alphaAni        Anialpha;
        h               nonuniform 0();
        Ta              constant 513.15;
        emissivityNozzle 0.95;
        emissivityFilament 0.95;
        dNozzle         2;
        dFilament       1.65;
        refValue        nonuniform 0();
        refGradient     nonuniform 0();
        valueFraction   nonuniform 0();
        value           nonuniform 0();
    }
    wall_middle
    {
        type            fixedValue;
        value           nonuniform 0();
    }
    wall_bottom
    {
        type            fixedValue;
        value           uniform 513.15;
    }
    inlet
    {
        type            fixedValue;
        value           nonuniform 0();
    }
    outlet
    {
        type            zeroGradient;
    }
    procBoundary0to1
    {
        type            processor;
        value           nonuniform List<scalar> 
51
(
459.2337548
459.3447142
459.5825737
459.9340479
460.3913206
460.9476813
461.5966797
462.3323908
463.1488729
464.0402496
465.0012453
466.0264142
467.1104657
468.2481755
469.4345655
470.6648122
471.9341346
473.3983512
473.3983512
474.7281736
476.0829766
477.4579908
478.8492137
480.2525012
481.6635981
483.0789973
484.4946679
485.90743
487.3138989
488.7108796
490.0957571
491.4655608
492.8180642
494.1510968
495.4624015
496.7505589
498.0140328
499.2513222
500.4614104
501.6434812
502.7968465
503.9209995
505.0156573
506.0806275
507.1159501
508.1217933
509.0986
510.0467495
510.9669442
511.8598119
512.7262261
)
;
    }
}


// ************************************************************************* //
