/*--------------------------------*- C++ -*----------------------------------*\
  =========                 |
  \\      /  F ield         | OpenFOAM: The Open Source CFD Toolbox
   \\    /   O peration     | Website:  https://openfoam.org
    \\  /    A nd           | Version:  7
     \\/     M anipulation  |
\*---------------------------------------------------------------------------*/
FoamFile
{
    version     2.0;
    format      ascii;
    class       volScalarField;
    location    "0.0006";
    object      thermo:mu;
}
// * * * * * * * * * * * * * * * * * * * * * * * * * * * * * * * * * * * * * //

dimensions      [1 -1 -1 0 0 0 0];

internalField   nonuniform List<scalar> 
1167
(
45947.18393
45576.44453
44793.55389
43665.62666
42248.67298
40596.70382
38765.89423
36807.40508
34769.62655
32695.5957
30622.212
28580.52598
26595.46015
24686.19405
22866.75677
21146.67935
19531.68261
45344.9488
44980.09952
44209.63025
43100.05533
41705.5688
40080.04281
38277.89547
36350.30803
34344.422
32302.51986
30260.98558
28250.36753
26295.19627
24414.36618
22621.70816
20926.63086
19334.93094
17849.26041
16469.34365
15193.26213
14017.79101
12938.11846
11949.14613
11045.18923
10220.28338
9468.680274
8784.375757
8161.900059
7595.866892
7081.220605
6613.377821
6187.914049
5800.865578
5448.606056
5127.735408
4835.23163
4568.403628
4324.719682
4101.936021
3898.030773
3711.1829
3539.746363
3382.252189
3237.366823
3103.893798
2980.738799
2866.941166
2761.610436
2663.9651
2573.28355
44752.47704
44393.42637
43635.18566
42543.78934
41171.30126
39571.86665
37797.86406
35900.69209
33926.19635
31915.91852
29905.73407
27925.69497
25999.94391
24147.09577
22380.78707
20710.31982
19141.58116
17676.83506
16316.04413
15057.48064
13897.71345
12832.18697
11855.97259
10963.32367
10148.55933
9405.882865
8729.486872
8114.040253
7554.158194
7044.959092
6581.867716
6160.579303
5777.213779
5428.159432
5110.097937
4820.056931
4555.399881
4313.607258
4092.483065
3890.035385
3704.468635
3534.159487
3377.659108
3233.653562
3100.954715
2978.483341
2865.294127
2760.503702
2663.339346
2573.086572
44169.60813
43816.26615
43070.59076
41996.55514
40645.72413
39071.96548
37326.11567
35458.43423
33514.83467
31535.68448
29556.3566
27606.41341
25709.61506
23884.30127
22143.91704
20497.85376
18951.50118
17507.33078
16165.3835
14923.99459
13779.65781
12728.11723
11764.35283
10882.8099
10078.00474
9344.095321
8675.513421
8066.920971
7513.082014
7009.23498
6550.813167
6133.629313
5753.885479
5407.984309
5092.6876
4805.086699
4542.553333
4302.624973
4083.137382
3882.127976
3697.826078
3528.630601
3373.116058
3229.977544
3098.044272
2976.249262
2863.662005
2759.406762
2662.719006
2572.891262
43596.18451
43248.79603
42515.23679
41458.20689
40129.13311
38580.20172
36862.10793
35023.60465
33110.22145
31161.71046
29212.75295
27292.42944
25424.12355
23625.90446
21911.19049
20288.95866
18764.62419
17340.68612
16017.36186
14792.75343
13663.57988
12625.78968
11674.24932
10803.64387
10008.59177
9283.293153
8622.387326
8020.525605
7472.623991
6974.036364
6520.204585
6107.063937
5730.874255
5388.07575
5075.500655
4790.30282
4529.861937
4291.771365
4073.897959
3874.307854
3691.254761
3523.161115
3368.619836
3226.337773
3095.161797
2974.038084
2862.04483
2758.319642
2662.1041
2572.697628
43032.61887
42690.79867
41968.88482
40928.59823
39621.05667
38096.44268
36405.66969
34596.16156
32712.3762
30793.88975
28874.82362
26983.65035
25143.38283
23371.9939
21682.41926
20083.56481
18580.88497
17176.88104
15871.8238
14663.70975
13549.47021
12525.15505
11585.6256
10725.81339
9940.293381
9223.453259
8570.08783
7974.839189
7432.803893
6939.351479
6490.032818
6080.884377
5708.173948
5368.429051
5058.533555
4775.702666
4517.323774
4281.045066
4064.763841
3866.57437
3684.754251
3517.752683
3364.169525
3222.734223
3092.307306
2971.847868
2860.44264
2757.242376
2661.49465
2572.505677
42478.2189
42141.83551
41431.38763
40407.72006
39121.23063
37620.69629
35956.67368
34175.70159
32321.30734
30432.37403
28542.61322
26680.1404
24867.56891
23122.39127
21457.4659
19881.60437
18400.22033
17015.93637
15728.71786
14536.81866
13437.33261
12426.1724
11498.44625
10649.23841
9873.083437
9164.591483
8518.596305
7929.845772
7393.578883
6905.170068
6460.28894
6055.066791
5685.779408
5349.040057
5041.791048
4761.283823
4504.937075
4270.444812
4055.734151
3858.926938
3678.326771
3512.401343
3359.765019
3219.166865
3089.480812
2969.678646
2858.855472
2756.174994
2660.890676
2572.315416
41932.78944
41601.75932
40902.6014
39895.71462
38629.51712
37153.03706
35514.99493
33762.1076
31936.64097
30076.91406
28216.08021
26381.80199
24596.34268
22876.934
21236.25706
19683.01147
18222.64618
16857.67106
15587.99116
14412.03036
13327.04096
12328.80638
11412.71492
10573.88999
9806.936914
9106.666696
8467.894668
7885.530102
7354.932723
6871.482258
6430.964833
6029.604763
5663.685678
5329.904911
5025.270189
4747.044077
4492.700215
4259.969447
4046.808094
3851.365033
3671.972913
3507.106917
3355.406238
3215.635681
3086.682333
2967.530454
2857.283364
2755.117531
2660.292202
2572.126855
41396.18423
41070.42508
40382.54498
39392.00443
38145.78288
36692.97702
35080.64026
33355.26296
31558.26798
29727.28586
27894.91972
26088.38417
24329.60002
22635.54379
21018.7206
19487.72002
18048.11581
16702.02661
15449.5887
14289.39806
13218.55623
12233.02245
11328.40616
10499.74069
9741.829943
9049.638891
8417.965619
7841.89735
7316.853628
6838.278512
6402.07463
6004.49226
5641.888047
5311.019986
5008.959976
4732.981372
4480.611704
4249.61792
4037.984958
3843.890095
3665.68882
3501.869264
3351.09313
3212.140673
3083.911901
2965.403337
2855.72708
2754.070027
2659.699253
2571.940001
40868.25982
40547.69071
39871.30485
38896.45171
37669.98482
36240.39189
34653.69178
32955.05111
31186.07929
29383.38664
27579.03473
25799.79706
24067.25799
22398.14315
20804.78415
19295.84014
17876.46995
16548.94865
15313.46126
14168.78689
13111.83769
12138.7858
11245.44561
10426.76404
9677.770958
8993.488555
8368.792678
7798.93632
7279.330371
6805.549738
6373.596283
5979.723546
5620.382049
5292.382968
4992.857837
4719.09381
4468.670175
4239.389282
4029.264112
3836.505368
3659.474277
3496.688287
3346.825674
3208.681869
3081.16957
2963.297356
2854.186716
2753.032526
2659.111859
2571.754866
40349.07523
40033.95599
39368.3323
38408.92201
37202.30188
35795.15496
34233.68293
32561.64363
30819.96754
29045.11483
27268.32982
25515.95181
23809.23407
22164.65533
20594.50624
19107.1422
17707.64992
16398.38619
15179.65528
14050.13807
13006.84693
12046.13152
11163.80219
10354.93386
9614.733666
8938.196919
8320.360098
7756.610927
7242.352237
6773.287271
6345.515308
5955.293168
5599.163452
5274.006202
4976.961379
4705.379646
4456.874396
4229.282696
4020.645019
3829.204902
3653.329118
3491.563932
3342.603891
3205.25933
3078.455419
2961.212591
2852.661572
2752.005083
2658.530054
2571.57146
39838.64255
39528.53902
38873.49083
37929.28259
36742.19268
35357.14175
33820.49578
32174.74216
30460.05396
28712.37047
26962.71143
25236.76168
23555.44922
21935.14938
20387.75773
18921.54164
17541.59769
16250.28672
15048.07067
13933.40951
12903.54547
11954.97984
11083.44728
10284.22518
9552.668092
8883.745928
8272.660958
7714.908694
7205.909008
6741.491486
6317.825145
5931.195982
5578.228294
5255.869717
4961.26841
4691.837343
4445.22337
4219.297628
4012.13485
3821.988288
3647.253165
3486.496162
3338.427823
3201.873145
3075.769552
2959.149147
2851.151738
2750.987766
2657.95388
2571.389799
39336.45152
39031.28456
38386.6463
37457.71245
36289.53266
34926.52725
33414.0124
31794.12777
30106.14467
28385.36106
26662.26259
24962.30569
23306.0576
21709.48254
20184.39119
18738.97522
17378.25558
16104.69552
14918.61671
13818.56011
12801.91505
11865.27387
11004.35478
10214.65224
9491.553061
8830.117978
8225.710035
7673.817665
7169.990939
6710.166302
6290.519603
5907.427155
5557.572876
5237.970744
4945.776905
4678.46547
4433.716106
4209.433365
4003.726487
3814.855502
3641.246453
3481.485073
3334.297611
3198.52347
3073.112127
2957.107166
2849.657332
2749.980663
2657.383391
2571.2099
38842.3654
38542.05763
37907.66659
36993.94256
35844.19723
34503.05297
33014.1181
31419.69176
29757.98902
28063.71234
26366.84577
24692.44081
23060.74724
21487.49793
19984.3403
18559.38132
17217.56707
15961.49857
14791.24733
13705.54827
12701.97168
11776.98437
10926.4989
10146.18315
9431.368991
8777.296421
8179.45492
7633.326447
7134.588822
6679.283451
6263.593033
5883.982536
5537.207664
5220.306405
4930.484872
4665.262673
4422.351716
4199.69297
3995.418781
3807.806585
3635.309136
3476.530878
3330.213496
3195.21055
3070.483373
2955.086849
2848.178515
2748.983892
2656.818657
2571.031787
38356.25032
38060.72553
37436.75237
36537.66181
35406.06209
34086.42737
32620.92581
31051.32691
29415.48505
27747.29069
26076.23251
24426.96539
22819.42778
21269.12335
19787.5393
18382.69957
17059.63227
15820.60724
14665.91863
13594.33631
12603.60874
11690.08033
10849.85305
10078.76563
9372.097865
8725.267782
8133.882505
7593.424249
7099.693928
6648.835992
6237.039972
5860.857811
5517.12105
5202.874471
4915.390676
4652.227854
4411.129541
4190.078191
3987.211699
3800.841698
3629.441492
3471.633922
3326.175841
3191.934742
3067.883614
2953.08847
2846.715506
2747.997607
2656.25977
2570.855488
37877.97464
37587.33215
36973.59073
36088.74634
34975.2496
33676.53272
32234.25536
30688.92717
29078.53183
27436.00045
25790.33389
24165.7972
22582.02278
21054.28887
19593.92544
18208.96285
16904.2382
15681.97511
14542.59254
13484.98725
12506.78939
11604.53088
10774.44841
10012.3788
9313.723133
8674.06069
8088.979387
7554.100443
7065.330152
6618.817277
6210.855185
5838.048874
5497.304328
5185.673073
4900.49303
4639.360215
4400.049188
4180.583153
3979.105398
3793.961167
3623.643955
3466.794689
3322.185146
3188.696519
3065.313278
2951.112393
2845.26859
2747.022014
2655.706851
2570.681045
37407.76988
37121.88225
36517.89467
35647.07332
34551.60839
33273.2536
31853.82882
30332.74642
28747.02997
27129.74793
25509.06249
23908.85519
22348.45744
20842.92588
19403.50343
18038.09848
16751.33241
15545.5553
14421.22551
13377.37342
12411.48289
11520.3078
10700.21893
9947.001876
9256.226751
8623.614123
8044.734379
7515.345482
7031.457793
6589.221121
6185.033886
5815.56146
5477.755
5168.700588
4885.790969
4626.659297
4389.119145
4171.208108
3971.100347
3787.16561
3617.917232
3462.013923
3318.242141
3185.496566
3062.772971
2949.159125
2843.838166
2746.057392
2655.160064
2570.508509
36945.26236
36663.92688
36069.53973
35212.52024
34134.79365
32876.47755
31479.538
29982.3226
28421.14829
26828.44355
25232.33236
23656.05953
22118.65794
20635.05593
19216.26746
17869.96899
16600.86412
15411.29958
14301.8645
13271.44858
12317.6599
11437.39795
10627.12433
9882.614815
9199.595521
8573.914313
8001.136483
7477.150386
6998.068513
6560.041812
6159.571711
5793.395196
5458.470876
5151.955641
4871.283773
4614.124899
4378.333364
4161.953544
3963.197251
3780.455874
3612.262249
3457.292576
3314.347756
3182.335751
3060.263466
2947.229321
2842.424747
2745.104109
2654.619626
2570.337951
36490.1972
36213.34241
35628.40526
34785.41646
33724.68758
32486.45108
31111.27668
29637.54448
28100.59
26532.29984
24960.22599
23407.4687
21892.7376
20430.63011
19032.02418
17704.51828
16452.78334
15279.16359
14184.40026
13167.17738
12225.29054
11355.82499
10555.14228
9819.198506
9143.860286
8524.948429
7958.17577
7439.533468
6965.154953
6531.273891
6134.464704
5771.534812
5439.450222
5135.437333
4856.971228
4601.758361
4367.690035
4152.820453
3955.397331
3773.833326
3606.680445
3452.632091
3310.503382
3179.215357
3057.785895
2945.323923
2841.029067
2744.162677
2654.085832
2570.169465
36042.45122
35770.00632
35194.37474
34365.19405
33321.17646
32102.72417
30748.93953
29298.31162
27785.1859
26240.91305
24692.59744
23162.9732
21670.46803
20229.46558
18850.71258
17541.69189
16307.04308
15149.22857
14068.76817
13064.52356
12134.34408
11275.49795
10484.25025
9756.733807
9088.953148
8476.703068
7915.841
7402.466393
6932.710301
6502.911972
6109.713936
5749.977149
5420.690959
5119.144506
4842.852978
4589.568736
4357.1893
4143.80942
3947.701474
3767.299055
3601.173028
3448.033729
3306.71027
3176.136575
3055.341342
2943.443868
2839.65188
2743.233648
2653.559013
2570.003159
35601.90375
35333.79939
34767.78125
33951.72034
32924.14717
31725.15767
30392.71802
28964.52298
27474.83912
25954.19264
24429.24842
22922.3805
21451.73795
20031.49524
18672.27063
17381.4331
16163.63369
15021.32923
13954.92867
12963.45191
12044.85901
11196.38747
10414.42352
9695.214781
9034.856362
8429.163212
7874.119522
7365.931022
6900.726881
6474.950071
6085.326402
5728.718123
5402.190224
5103.075239
4828.927778
4577.545278
4346.831479
4134.921053
3940.110557
3760.854143
3595.741218
3443.498777
3302.969711
3173.100637
3052.930921
2941.590103
2838.293926
2742.31753
2653.039454
2569.839121
35168.46914
34904.92118
34348.03224
33544.8788
32533.79688
31353.64078
30042.27054
28636.11822
27169.45
25672.04403
24170.08942
22685.60583
21236.46826
19836.64563
18496.62989
17223.67825
16022.54298
14895.4037
13842.8339
12863.91791
11956.74321
11118.45774
10345.62947
9634.638475
8981.543718
8382.30535
7833.018525
7329.908603
6869.187812
6447.372634
6061.270528
5707.745277
5383.936259
5087.218476
4815.190183
4565.678236
4336.607401
4126.146669
3932.616403
3754.490997
3590.378113
3439.021147
3299.276553
3170.103413
3050.551556
2939.760551
2836.953986
2741.414644
2652.526952
2569.677312
34742.28538
34482.9291
33934.8776
33144.4262
32149.64471
30987.94707
29697.30705
28313.13905
26868.82479
25394.28548
23914.95054
22452.49073
21024.51161
19644.77967
18323.66237
17068.45384
15883.56504
14771.34486
13732.38075
12765.874
11869.88165
11041.61652
10277.77623
9574.870492
8928.923086
8336.036651
7792.4271
7294.304357
6837.997243
6420.086414
6037.449315
5686.961764
5365.832934
5071.479661
4801.552081
4553.87953
4326.433971
4117.409393
3925.149567
3748.148692
3585.032176
3434.559233
3295.599194
3167.122847
3048.18968
2937.948525
2835.63021
2740.52493
2652.022913
2569.51836
34220.22772
33965.99601
33428.75142
32654.02767
31678.9865
30540.01466
29274.58819
27917.31701
26500.69471
25053.86002
23602.1362
22166.63439
20764.5584
19409.49112
18111.64419
16877.99093
15713.01047
14619.08626
13596.81614
12645.5898
11763.29217
10947.34649
10194.62112
9501.612788
8864.476971
8279.430776
7742.832408
7250.87779
6800.035763
6386.994307
6008.627487
5661.913898
5344.117866
5052.706885
4785.393326
4540.01005
4314.58528
4107.342785
3916.65394
3741.036108
3579.135254
3429.728705
3291.700528
3164.034964
3045.802946
2936.164672
2834.360883
2739.692731
2651.561137
2569.374639
)
;

boundaryField
{
    front_top
    {
        type            wedge;
    }
    front_middle
    {
        type            wedge;
    }
    front_bottom
    {
        type            wedge;
    }
    back_top
    {
        type            wedge;
    }
    back_middle
    {
        type            wedge;
    }
    back_bottom
    {
        type            wedge;
    }
    axis_top
    {
        type            symmetryPlane;
    }
    axis_middle
    {
        type            symmetryPlane;
    }
    axis_bottom
    {
        type            symmetryPlane;
    }
    wall_top
    {
        type            calculated;
        value           nonuniform 0();
    }
    wall_middle
    {
        type            calculated;
        value           nonuniform 0();
    }
    wall_bottom
    {
        type            calculated;
        value           uniform 2530.329233;
    }
    inlet
    {
        type            calculated;
        value           nonuniform 0();
    }
    outlet
    {
        type            calculated;
        value           nonuniform List<scalar> 
50
(
34220.22772
33965.99601
33428.75142
32654.02767
31678.9865
30540.01466
29274.58819
27917.31701
26500.69471
25053.86002
23602.1362
22166.63439
20764.5584
19409.49112
18111.64419
16877.99093
15713.01047
14619.08626
13596.81614
12645.5898
11763.29217
10947.34649
10194.62112
9501.612788
8864.476971
8279.430776
7742.832408
7250.87779
6800.035763
6386.994307
6008.627487
5661.913898
5344.117866
5052.706885
4785.393326
4540.01005
4314.58528
4107.342785
3916.65394
3741.036108
3579.135254
3429.728705
3291.700528
3164.034964
3045.802946
2936.164672
2834.360883
2739.692731
2651.561137
2569.374639
)
;
    }
    procBoundary0to1
    {
        type            processor;
        value           nonuniform List<scalar> 
51
(
46559.34582
46182.62312
45387.11469
44241.04784
42800.76205
41122.42809
39261.99213
37272.10898
35201.92904
33095.50285
30989.84167
28916.5167
26900.89735
24962.66048
23116.00982
21370.52233
19731.98183
18024.66865
18024.66865
16625.29911
15331.45472
14139.93909
13045.86976
12043.90949
11128.43968
10293.24426
9532.510633
8840.153199
8210.519958
7638.224069
7118.051542
6645.354032
6215.642005
5824.847571
5469.329419
5145.604044
4850.598796
4581.566781
4335.963822
4111.497345
3906.114862
3717.969318
3545.391456
3386.891737
3241.119578
3106.863137
2983.015199
2868.603124
2762.72696
2664.596264
2573.482194
)
;
    }
}


// ************************************************************************* //
