/*--------------------------------*- C++ -*----------------------------------*\
  =========                 |
  \\      /  F ield         | OpenFOAM: The Open Source CFD Toolbox
   \\    /   O peration     | Website:  https://openfoam.org
    \\  /    A nd           | Version:  7
     \\/     M anipulation  |
\*---------------------------------------------------------------------------*/
FoamFile
{
    version     2.0;
    format      ascii;
    class       volScalarField;
    location    "0.0006";
    object      thermo:alpha;
}
// * * * * * * * * * * * * * * * * * * * * * * * * * * * * * * * * * * * * * //

dimensions      [1 -1 -1 0 0 0 0];

internalField   nonuniform List<scalar> 
1167
(
0.0001187880713
0.0001187757271
0.0001187492722
0.0001187101983
0.0001186594158
0.0001185976497
0.0001185198507
0.0001184315071
0.0001183319336
0.0001182168551
0.000118092972
0.0001179610249
0.0001178204935
0.0001176640036
0.0001175011002
0.0001173261744
0.0001171408163
0.0001187679599
0.0001187556243
0.0001187291884
0.0001186901616
0.000118639424
0.0001185762663
0.000118498332
0.0001184100992
0.0001183090044
0.0001181940857
0.0001180703886
0.0001179386554
0.0001177967696
0.0001176405751
0.0001174780035
0.0001173019139
0.0001171170105
0.0001169237661
0.000116718142
0.0001165083036
0.0001162881434
0.0001160588159
0.0001158271241
0.0001155853644
0.0001153428437
0.0001150883826
0.0001148349589
0.0001145714956
0.0001143092013
0.0001140401214
0.0001137715057
0.000113506786
0.0001132364799
0.0001129653256
0.0001126912723
0.0001124229458
0.0001121591548
0.0001118921048
0.0001116316648
0.0001113716669
0.0001111146359
0.0001108647262
0.0001106219511
0.0001103772937
0.0001101396042
0.0001099003584
0.0001096683874
0.0001094435396
0.0001092256367
0.0001090092356
0.0001187478693
0.000118735543
0.0001187091276
0.0001186701542
0.0001186194599
0.0001185547093
0.0001184768508
0.0001183887337
0.0001182861265
0.000118171374
0.0001180478698
0.0001179163578
0.0001177731309
0.00011761724
0.0001174550083
0.0001172777721
0.0001170933376
0.0001168991127
0.0001166940539
0.0001164834487
0.0001162653437
0.0001160340699
0.0001158032207
0.0001155623209
0.0001153195324
0.0001150660449
0.0001148136229
0.0001145501661
0.0001142889602
0.0001140200668
0.0001137526051
0.0001134890409
0.0001132191283
0.0001129484441
0.000112675617
0.0001124084982
0.0001121453395
0.000111879499
0.0001116202406
0.000111360974
0.0001111051116
0.0001108563382
0.0001106146677
0.0001103708419
0.0001101340761
0.0001098958652
0.0001096649488
0.0001094411223
0.0001092242092
0.0001090087498
0.0001187278006
0.0001187154842
0.0001186891094
0.0001186501726
0.0001185995244
0.0001185331869
0.0001184554287
0.0001183674116
0.0001182633012
0.0001181487211
0.0001180254167
0.0001178941331
0.0001177495782
0.0001175939989
0.0001174321154
0.00011725377
0.0001170697898
0.0001168746
0.0001166701196
0.0001164587554
0.0001162427004
0.0001160107183
0.0001157794985
0.0001155394587
0.0001152964101
0.0001150438932
0.0001147914494
0.0001145290201
0.0001142688958
0.000114000189
0.000113733872
0.0001134714534
0.0001132019306
0.0001129317121
0.0001126600998
0.0001123941918
0.0001121316448
0.0001118670024
0.0001116089148
0.0001113503729
0.0001110956685
0.0001108480215
0.0001106072159
0.0001103644461
0.0001101285477
0.0001098914106
0.0001096615389
0.0001094387253
0.0001092227938
0.0001090082682
0.0001187077544
0.0001186954606
0.000118669119
0.000118630218
0.0001185783319
0.0001185116998
0.0001184340483
0.0001183454741
0.0001182405294
0.0001181261282
0.0001180030303
0.0001178719823
0.0001177261128
0.0001175708532
0.0001174082176
0.000117229885
0.000117046367
0.0001168502274
0.0001166463476
0.0001164342225
0.0001162202122
0.0001159876526
0.0001157559551
0.0001155167832
0.0001152734741
0.0001150219247
0.0001147694242
0.0001145080551
0.0001142490054
0.0001139804852
0.000113715304
0.0001134537716
0.000113184885
0.000112915128
0.0001126447193
0.000112380011
0.0001121180699
0.0001118546147
0.0001115976872
0.0001113398631
0.0001110863066
0.0001108397788
0.0001105997802
0.0001103581046
0.0001101230662
0.0001098869976
0.0001096581579
0.0001094363485
0.0001092213903
0.0001090077906
0.0001186877521
0.0001186754712
0.0001186491543
0.000118610291
0.00011855681
0.0001184902491
0.0001184127087
0.0001183226192
0.00011821782
0.0001181035964
0.0001179807117
0.0001178499063
0.0001177027353
0.0001175478187
0.0001173840233
0.0001172061175
0.000117023069
0.0001168260004
0.0001166227212
0.0001164098492
0.0001161971095
0.0001159647522
0.000115732588
0.0001154942979
0.0001152507218
0.0001150001367
0.0001147475838
0.0001144872692
0.0001142284463
0.0001139609528
0.0001136968991
0.0001134357068
0.0001131679894
0.0001128986899
0.0001126294743
0.0001123659549
0.000112104614
0.0001118423352
0.0001115865574
0.0001113294447
0.0001110770259
0.0001108316129
0.0001105924086
0.0001103518178
0.0001101176319
0.0001098826226
0.000109654806
0.0001094339922
0.0001092199989
0.0001090073171
0.0001186677758
0.0001186555068
0.000118629216
0.0001185899985
0.0001185353221
0.0001184688423
0.0001183914109
0.0001182998143
0.0001181951813
0.0001180811426
0.0001179584715
0.0001178271275
0.0001176794688
0.0001175248878
0.0001173599392
0.0001171824676
0.0001169998955
0.0001168019304
0.0001165992396
0.0001163856348
0.0001161723009
0.0001159420149
0.0001157093946
0.0001154719861
0.0001152281507
0.0001149785407
0.0001147259257
0.0001144666599
0.0001142079662
0.0001139415899
0.0001136786551
0.0001134178007
0.0001131512426
0.0001128823969
0.000112614371
0.0001123520227
0.0001120912766
0.0001118301638
0.0001115755253
0.0001113191176
0.00011106783
0.0001108235183
0.0001105851014
0.0001103455857
0.0001101122449
0.0001098782857
0.0001096514832
0.0001094316564
0.0001092186196
0.0001090068477
0.0001186478247
0.0001186355683
0.0001186093051
0.000118568484
0.0001185138689
0.00011844749
0.0001183701557
0.0001182770606
0.0001181725995
0.0001180587594
0.0001179363148
0.0001178036447
0.000117656293
0.0001175020532
0.0001173359657
0.0001171589356
0.0001169762069
0.0001167779988
0.000116575902
0.0001163615776
0.0001161476614
0.0001159194394
0.000115686383
0.0001154498456
0.0001152057583
0.0001149571273
0.0001147044475
0.0001144462248
0.0001141876616
0.0001139223947
0.0001136605703
0.0001134000517
0.0001131346433
0.0001128662478
0.0001125994087
0.000112338214
0.0001120780573
0.0001118181
0.0001115645908
0.0001113088818
0.0001110587204
0.0001108154951
0.0001105778586
0.0001103394086
0.0001101069054
0.000109873987
0.0001096481898
0.0001094293413
0.0001092172525
0.0001090063825
0.0001186278997
0.0001186156566
0.0001185889481
0.0001185470023
0.0001184924514
0.0001184261771
0.0001183484991
0.0001182543589
0.0001181500754
0.0001180364401
0.0001179142285
0.0001177802444
0.0001176332068
0.0001174793153
0.000117312103
0.0001171355216
0.0001169518534
0.0001167542044
0.0001165527067
0.0001163388765
0.0001161231898
0.0001158970244
0.000115663553
0.0001154278745
0.0001151835424
0.0001149358872
0.0001146831468
0.0001144259707
0.0001141675303
0.0001139033653
0.0001136426567
0.0001133824586
0.0001131181906
0.0001128502418
0.0001125845793
0.0001123245281
0.0001120649558
0.0001118061439
0.0001115537539
0.0001112987399
0.0001110496922
0.0001108075437
0.0001105706806
0.0001103332868
0.0001101016137
0.0001098697269
0.0001096449274
0.0001094270468
0.0001092158977
0.0001090059215
0.0001186080017
0.0001185957727
0.0001185674503
0.0001185255543
0.0001184710747
0.0001184049046
0.0001183257144
0.0001182317102
0.00011812761
0.0001180141856
0.0001178922133
0.0001177569273
0.0001176102107
0.0001174566746
0.0001172883512
0.0001171122468
0.0001169276309
0.0001167305467
0.0001165296529
0.0001163164893
0.0001160988844
0.0001158747683
0.0001156408913
0.0001154060708
0.0001151615118
0.0001149148182
0.0001146620217
0.0001144058973
0.0001141475707
0.0001138845001
0.0001136249039
0.0001133650201
0.0001131018834
0.000112834379
0.0001125698823
0.0001123109648
0.0001120519719
0.0001117942953
0.0001115430147
0.0001112886971
0.0001110407456
0.0001107996641
0.0001105635675
0.0001103272204
0.00011009637
0.0001098655054
0.0001096416963
0.0001094247733
0.0001092145552
0.0001090054647
0.0001185875504
0.0001185743244
0.0001185459849
0.0001185041409
0.000118449754
0.0001183836735
0.0001183029785
0.0001182091318
0.0001181052041
0.0001179919965
0.0001178702698
0.0001177336939
0.0001175873052
0.0001174341311
0.0001172647247
0.0001170890916
0.0001169035393
0.0001167070253
0.0001165058247
0.000116294246
0.0001160747436
0.0001158517727
0.0001156183955
0.0001153844326
0.0001151396632
0.0001148939184
0.00011464107
0.0001143859919
0.0001141277809
0.0001138657976
0.000113607306
0.0001133477352
0.0001130857209
0.0001128186722
0.0001125553174
0.0001122975238
0.0001120391056
0.0001117825544
0.0001115323732
0.000111278746
0.0001110318808
0.0001107918569
0.0001105565199
0.0001103212099
0.0001100911747
0.0001098613229
0.000109638495
0.0001094225207
0.0001092132251
0.0001090050121
0.0001185660659
0.0001185528565
0.0001185245528
0.0001184827632
0.0001184284719
0.0001183624845
0.0001182802924
0.0001181866144
0.0001180828728
0.0001179698737
0.0001178483986
0.0001177105447
0.0001175644907
0.0001174107343
0.0001172412174
0.0001170660531
0.0001168795779
0.0001166836396
0.0001164817165
0.0001162721457
0.0001160507659
0.0001158286134
0.000115596064
0.000115362958
0.000115117985
0.000114873186
0.0001146202936
0.0001143662529
0.0001141081593
0.0001138472616
0.0001135898619
0.0001133306029
0.0001130697024
0.0001128031065
0.0001125408841
0.0001122842052
0.0001120263571
0.0001117709216
0.0001115214551
0.0001112688868
0.0001110230983
0.0001107841223
0.000110549538
0.0001103152557
0.000110086028
0.0001098571796
0.0001096353238
0.0001094202894
0.0001092119075
0.0001090045637
0.0001185446136
0.0001185314213
0.000118503155
0.0001184614361
0.0001184072293
0.0001183403121
0.000118257657
0.0001181641526
0.0001180606116
0.0001179478384
0.0001178257289
0.0001176874942
0.0001175417891
0.000117386901
0.0001172178203
0.0001170431309
0.0001168557461
0.0001166604043
0.0001164577551
0.0001162501871
0.0001160272177
0.0001158056169
0.0001155738957
0.0001153410206
0.0001150964751
0.000114852619
0.0001145997037
0.0001143466787
0.0001140887047
0.0001138288978
0.0001135725706
0.0001133136225
0.0001130538275
0.0001127876816
0.0001125265824
0.0001122710089
0.0001120137265
0.0001117593969
0.0001115105927
0.0001112591201
0.0001110143985
0.0001107764609
0.0001105426224
0.0001103093581
0.0001100809305
0.000109853076
0.000109632183
0.0001094180795
0.0001092106026
0.0001090041197
0.0001185231941
0.0001185100198
0.0001184817923
0.0001184401546
0.0001183860271
0.0001183175971
0.000118235073
0.0001181417472
0.0001180384123
0.0001179258732
0.0001178024593
0.0001176645384
0.0001175191799
0.0001173631716
0.0001171945332
0.0001170203246
0.0001168320432
0.0001166373088
0.0001164339395
0.0001162283688
0.0001160048457
0.000115782782
0.0001155518891
0.0001153187568
0.0001150751318
0.000114832216
0.0001145792821
0.000114327268
0.0001140694157
0.0001138106931
0.0001135554314
0.0001132967937
0.0001130376133
0.0001127723969
0.0001125124122
0.0001122579351
0.000112001214
0.0001117479852
0.0001114998335
0.0001112494467
0.0001110057822
0.0001107688734
0.0001105357738
0.0001103035179
0.0001100758828
0.0001098490126
0.000109629073
0.0001094158913
0.0001092093105
0.0001090036801
0.0001185018085
0.0001184886528
0.0001184604809
0.0001184189115
0.0001183648661
0.0001182949302
0.0001182125544
0.0001181193991
0.0001180162756
0.0001179039761
0.0001177792687
0.0001176416678
0.0001174966619
0.0001173395461
0.0001171713561
0.0001169976339
0.0001168084917
0.000116614346
0.0001164102685
0.00011620669
0.0001159826236
0.0001157601072
0.0001155300426
0.0001152966605
0.000115053954
0.0001148119322
0.0001145590272
0.0001143080196
0.0001140502912
0.0001137926466
0.0001135384436
0.0001132801159
0.0001130213469
0.0001127572525
0.0001124983737
0.000112244984
0.0001119888203
0.0001117366894
0.0001114891781
0.0001112398674
0.0001109972505
0.0001107613607
0.0001105289932
0.000110297736
0.0001100708856
0.00010984499
0.0001096259943
0.0001094137252
0.0001092080315
0.0001090032448
0.0001184804577
0.0001184673292
0.0001184392136
0.0001183977077
0.0001183429049
0.0001182723121
0.0001181900985
0.0001180971089
0.0001179942019
0.0001178821476
0.0001177561576
0.0001176188826
0.0001174742354
0.0001173160245
0.0001171482888
0.0001169743075
0.0001167850676
0.0001165915153
0.000116386742
0.0001161828734
0.0001159605495
0.0001157375903
0.0001155083711
0.0001152747303
0.0001150329407
0.0001147908493
0.0001145389376
0.0001142889321
0.0001140313482
0.0001137747576
0.0001135216069
0.0001132635887
0.0001130052295
0.0001127422489
0.0001124844672
0.0001122321563
0.000111976546
0.0001117255038
0.0001114786277
0.0001112303833
0.0001109888043
0.0001107539241
0.0001105222817
0.0001102920134
0.0001100659399
0.000109841009
0.0001096229476
0.0001094115816
0.0001092067658
0.0001090028142
0.0001184591591
0.0001184460564
0.0001184179843
0.0001183765439
0.000118320218
0.0001182497438
0.0001181676965
0.0001180749
0.000117972192
0.000117860388
0.0001177331262
0.0001175961831
0.0001174519005
0.0001172926067
0.0001171253395
0.0001169504472
0.0001167617702
0.0001165688159
0.0001163633586
0.0001161589355
0.0001159386224
0.0001157152302
0.0001154868614
0.0001152529648
0.0001150120904
0.0001147699346
0.0001145190124
0.0001142700048
0.0001140125685
0.0001137570255
0.0001135049207
0.0001132472188
0.0001129892615
0.0001127273864
0.0001124706936
0.000112219453
0.0001119644019
0.0001117144295
0.0001114681837
0.0001112209961
0.0001109804453
0.000110746565
0.0001105156408
0.0001102863515
0.0001100610471
0.0001098370709
0.0001096199338
0.0001094094612
0.0001092055139
0.0001090023882
0.0001184379028
0.0001184248208
0.0001183967936
0.0001183554211
0.0001182975781
0.0001182272259
0.0001181453491
0.0001180527509
0.0001179502643
0.0001178386868
0.0001177101751
0.0001175735695
0.0001174296572
0.0001172693028
0.000117102515
0.0001169267082
0.0001167385988
0.0001165462465
0.0001163411778
0.0001161351505
0.0001159168416
0.0001156930292
0.0001154655073
0.0001152313627
0.0001149914032
0.0001147491871
0.0001144992509
0.0001142512371
0.0001139939509
0.00011373945
0.000113488385
0.0001132310086
0.0001129734433
0.0001127126659
0.0001124570539
0.0001122068751
0.0001119523824
0.0001117034682
0.0001114578479
0.0001112117076
0.0001109721754
0.0001107392854
0.0001105090725
0.0001102807521
0.0001100562088
0.0001098331769
0.0001096169541
0.0001094073649
0.0001092042761
0.000109001967
0.000118416684
0.0001184036234
0.0001183756427
0.0001183327788
0.0001182749859
0.0001182047801
0.0001181230572
0.0001180306618
0.0001179284065
0.0001178155292
0.0001176873185
0.0001175510545
0.0001174062771
0.0001172461149
0.000117079799
0.0001169030898
0.0001167155526
0.0001165238064
0.0001163194
0.0001161115171
0.000115895206
0.0001156709997
0.0001154443077
0.0001152099226
0.0001149708954
0.0001147286059
0.0001144796527
0.000114231947
0.0001139754948
0.0001137220309
0.000113472
0.0001132149494
0.0001129577756
0.0001126980884
0.0001124435494
0.0001121943765
0.0001119404868
0.0001116926221
0.0001114476228
0.0001112025203
0.0001109639972
0.0001107320879
0.0001105025794
0.0001102752178
0.0001100514274
0.0001098293292
0.00010961401
0.0001094052937
0.0001092030533
0.000109001551
0.0001183955035
0.0001183824651
0.0001183545143
0.0001183101322
0.0001182524423
0.0001181823881
0.0001181008213
0.0001180086332
0.0001179066139
0.0001177924469
0.0001176645518
0.0001175286357
0.0001173827511
0.0001172230298
0.0001170571911
0.0001168795916
0.0001166926313
0.000116500272
0.0001162977532
0.0001160880337
0.0001158737143
0.0001156491232
0.0001154232613
0.0001151886434
0.0001149505468
0.0001147081898
0.0001144602166
0.0001142126179
0.0001139571997
0.0001137047679
0.000113455595
0.0001131990413
0.0001129422589
0.0001126836549
0.0001124301815
0.0001121815402
0.0001119287165
0.0001116818928
0.0001114375102
0.0001111934364
0.0001109559131
0.0001107249748
0.000110496164
0.0001102697508
0.0001100467052
0.0001098255297
0.0001096111031
0.0001094032491
0.0001092018462
0.0001090011403
0.0001183743623
0.0001183613467
0.0001183318348
0.0001182875322
0.000118229948
0.0001181600488
0.0001180786606
0.0001179866656
0.0001178848868
0.0001177694398
0.0001176418657
0.0001175063026
0.0001173593221
0.0001172000469
0.0001170346903
0.0001168562122
0.0001166698401
0.0001164767867
0.0001162762363
0.0001160646985
0.0001158514508
0.0001156273972
0.0001154023659
0.000115167528
0.0001149303555
0.0001146879369
0.0001144409409
0.000114193453
0.0001139390646
0.0001136876602
0.0001134387785
0.0001131832836
0.0001129268931
0.0001126693655
0.0001124169506
0.0001121688387
0.000111917073
0.0001116712821
0.0001114275124
0.0001111844582
0.0001109479253
0.0001107179486
0.0001104898288
0.0001102643536
0.0001100420443
0.0001098217805
0.0001096082352
0.000109401232
0.0001092006554
0.0001090007351
0.0001183531462
0.0001183391609
0.0001183092005
0.0001182649793
0.0001182075216
0.0001181377626
0.0001180565614
0.0001179647618
0.0001178632251
0.0001177465076
0.0001176192594
0.0001174840542
0.0001173359888
0.0001171771645
0.0001170122948
0.0001168329494
0.0001166471841
0.0001164534326
0.000116254846
0.0001160415076
0.0001158290634
0.0001156058173
0.0001153816168
0.0001151465804
0.0001149103161
0.0001146678415
0.0001144218329
0.0001141744461
0.0001139210832
0.0001136707014
0.0001134221117
0.0001131676696
0.0001129116705
0.0001126552122
0.0001124038531
0.0001121562632
0.0001119055471
0.0001116607806
0.0001114176192
0.0001111755757
0.0001109400244
0.0001107110003
0.0001104835653
0.0001102590192
0.0001100374392
0.0001098180775
0.0001096054037
0.0001093992432
0.0001091994805
0.0001090003355
0.0001183304691
0.0001183165096
0.0001182866048
0.000118242467
0.0001181851428
0.0001181155228
0.0001180345121
0.0001179429318
0.0001178416215
0.0001177236425
0.0001175967249
0.0001174618824
0.000117312742
0.0001171543734
0.0001169899948
0.000116809814
0.0001166246367
0.0001164301963
0.0001162335683
0.0001160191739
0.0001158068031
0.0001155843629
0.0001153609908
0.0001151257589
0.000114890398
0.0001146478674
0.0001144028444
0.0001141555504
0.0001139032036
0.0001136538363
0.0001134055295
0.0001131521287
0.0001128965124
0.0001126411119
0.0001123908061
0.0001121437212
0.000111894046
0.0001116502968
0.0001114077396
0.0001111667043
0.0001109321346
0.0001107040656
0.0001104773203
0.0001102537084
0.0001100328637
0.0001098144071
0.0001096026048
0.0001093972827
0.0001091983248
0.0001089999428
0.0001183022448
0.0001182883178
0.0001182584833
0.0001182144624
0.0001181572957
0.0001180878606
0.0001180070816
0.0001179157784
0.00011781304
0.0001176952164
0.0001175687093
0.0001174343234
0.0001172838532
0.0001171260651
0.0001169607499
0.0001167810861
0.000116596647
0.000116401362
0.0001162071756
0.0001159921329
0.0001157792226
0.0001155578
0.0001153345255
0.0001151000269
0.0001148658131
0.000114623251
0.000114379484
0.0001141323542
0.0001138813111
0.0001136332677
0.0001133853617
0.0001131333088
0.0001128782494
0.0001126242249
0.0001123752902
0.0001121289281
0.00011188061
0.0001116381849
0.0001113964712
0.0001111567339
0.0001109234151
0.0001106965457
0.0001104706903
0.0001102481999
0.0001100282356
0.0001098107912
0.0001095999195
0.0001093954482
0.0001091972657
0.0001089995878
)
;

boundaryField
{
    front_top
    {
        type            wedge;
    }
    front_middle
    {
        type            wedge;
    }
    front_bottom
    {
        type            wedge;
    }
    back_top
    {
        type            wedge;
    }
    back_middle
    {
        type            wedge;
    }
    back_bottom
    {
        type            wedge;
    }
    axis_top
    {
        type            symmetryPlane;
    }
    axis_middle
    {
        type            symmetryPlane;
    }
    axis_bottom
    {
        type            symmetryPlane;
    }
    wall_top
    {
        type            calculated;
        value           nonuniform 0();
    }
    wall_middle
    {
        type            calculated;
        value           nonuniform 0();
    }
    wall_bottom
    {
        type            calculated;
        value           uniform 0.0001089022317;
    }
    inlet
    {
        type            calculated;
        value           nonuniform 0();
    }
    outlet
    {
        type            calculated;
        value           nonuniform List<scalar> 
50
(
0.0001183022448
0.0001182883178
0.0001182584833
0.0001182144624
0.0001181572957
0.0001180878606
0.0001180070816
0.0001179157784
0.00011781304
0.0001176952164
0.0001175687093
0.0001174343234
0.0001172838532
0.0001171260651
0.0001169607499
0.0001167810861
0.000116596647
0.000116401362
0.0001162071756
0.0001159921329
0.0001157792226
0.0001155578
0.0001153345255
0.0001151000269
0.0001148658131
0.000114623251
0.000114379484
0.0001141323542
0.0001138813111
0.0001136332677
0.0001133853617
0.0001131333088
0.0001128782494
0.0001126242249
0.0001123752902
0.0001121289281
0.00011188061
0.0001116381849
0.0001113964712
0.0001111567339
0.0001109234151
0.0001106965457
0.0001104706903
0.0001102481999
0.0001100282356
0.0001098107912
0.0001095999195
0.0001093954482
0.0001091972657
0.0001089995878
)
;
    }
    procBoundary0to1
    {
        type            processor;
        value           nonuniform List<scalar> 
51
(
0.000118808203
0.0001187958507
0.0001187693781
0.0001187302768
0.0001186794344
0.0001186176186
0.0001185414057
0.0001184529561
0.0001183549025
0.000118239695
0.0001181156388
0.0001179834818
0.0001178439397
0.0001176875242
0.0001175242977
0.0001173505514
0.0001171647641
0.0001169485605
0.0001169485605
0.0001167423784
0.000116532714
0.0001163111014
0.000116083743
0.0001158512106
0.0001156085914
0.0001153657069
0.0001151109085
0.0001148564789
0.0001145930124
0.0001143296224
0.0001140603662
0.0001137905766
0.0001135246911
0.0001132539878
0.0001129823584
0.0001127070672
0.0001124375214
0.0001121730914
0.0001119048205
0.0001116431879
0.0001113824516
0.0001111242416
0.0001108731855
0.0001106292962
0.000110383805
0.0001101450253
0.0001099048891
0.0001096718548
0.0001094459771
0.000109227076
0.0001090097254
)
;
    }
}


// ************************************************************************* //
