/*--------------------------------*- C++ -*----------------------------------*\
  =========                 |
  \\      /  F ield         | OpenFOAM: The Open Source CFD Toolbox
   \\    /   O peration     | Website:  https://openfoam.org
    \\  /    A nd           | Version:  7
     \\/     M anipulation  |
\*---------------------------------------------------------------------------*/
FoamFile
{
    version     2.0;
    format      ascii;
    class       volVectorField;
    location    "0.0006";
    object      U;
}
// * * * * * * * * * * * * * * * * * * * * * * * * * * * * * * * * * * * * * //

dimensions      [0 1 -1 0 0 0 0];

internalField   nonuniform List<vector> 
1167
(
(-1.299867221e-06 1.097122497e-17 -0.05030502393)
(-3.39432671e-06 1.378913963e-18 -0.05030386705)
(-5.380230997e-06 -3.326807228e-19 -0.05030137685)
(-7.447120765e-06 -4.412298035e-18 -0.05029762603)
(-9.527016757e-06 -5.80626085e-18 -0.05029257879)
(-1.161058139e-05 -1.005041463e-17 -0.05028615923)
(-1.370332479e-05 -1.292771397e-17 -0.05027824317)
(-1.581066149e-05 -1.219453207e-17 -0.05026865342)
(-1.793579071e-05 -1.148695075e-17 -0.05025714485)
(-2.007945885e-05 -1.333986377e-17 -0.05024338698)
(-2.22414676e-05 -1.459989048e-17 -0.05022694244)
(-2.442102716e-05 -1.537646249e-17 -0.05020723984)
(-2.661581446e-05 -1.526139616e-17 -0.05018354344)
(-2.882162582e-05 -1.62325562e-17 -0.05015492091)
(-3.103251079e-05 -1.801304291e-17 -0.05012021022)
(-3.324130835e-05 -1.977225043e-17 -0.05007798573)
(-3.543998046e-05 -2.022212562e-17 -0.05002652323)
(-1.21161981e-06 -2.109658551e-18 -0.05031838695)
(-3.164241315e-06 -3.50588811e-18 -0.05031724946)
(-5.017794409e-06 -4.175643846e-18 -0.05031480001)
(-6.950868251e-06 -4.928745354e-18 -0.05031110816)
(-8.90010652e-06 -1.145237215e-17 -0.0503061369)
(-1.085806169e-05 -1.248741722e-17 -0.05029980772)
(-1.283051174e-05 -1.442748445e-17 -0.05029199381)
(-1.482236226e-05 -1.323089757e-17 -0.05028251413)
(-1.683759906e-05 -1.216025527e-17 -0.05027112033)
(-1.887728042e-05 -1.597526197e-17 -0.05025747831)
(-2.094096213e-05 -1.756908265e-17 -0.05024114599)
(-2.302697106e-05 -1.795365402e-17 -0.05022154706)
(-2.513193378e-05 -1.70625008e-17 -0.05019794091)
(-2.725079757e-05 -1.630549301e-17 -0.05016939051)
(-2.937698744e-05 -1.706793382e-17 -0.05013472881)
(-3.15027177e-05 -1.747356885e-17 -0.05009252468)
(-3.361951803e-05 -1.724402668e-17 -0.05004104757)
(-3.571627977e-05 -1.881478873e-17 -0.04997823157)
(-3.777865215e-05 -1.987232112e-17 -0.04990163611)
(-3.979116408e-05 -2.061854833e-17 -0.04980840285)
(-4.173507015e-05 -2.108551521e-17 -0.04969521279)
(-4.35873668e-05 -2.147624983e-17 -0.04955824297)
(-4.532286601e-05 -2.166120211e-17 -0.04939312193)
(-4.691273651e-05 -2.180760255e-17 -0.04919489043)
(-4.832540457e-05 -2.190577772e-17 -0.04895796493)
(-4.952765989e-05 -2.201837404e-17 -0.04867610791)
(-5.048465961e-05 -2.216489567e-17 -0.04834240641)
(-5.11625303e-05 -2.189560764e-17 -0.04794925805)
(-5.152825947e-05 -2.159528755e-17 -0.04748837006)
(-5.155140193e-05 -2.079275549e-17 -0.04695076653)
(-5.120566986e-05 -2.029242462e-17 -0.04632681048)
(-5.046987992e-05 -1.997863549e-17 -0.04560623727)
(-4.933010924e-05 -1.948523131e-17 -0.04477819745)
(-4.777976028e-05 -1.876680427e-17 -0.04383131464)
(-4.582071914e-05 -1.836787889e-17 -0.0427537499)
(-4.346472552e-05 -1.777610747e-17 -0.04153327524)
(-4.073420825e-05 -1.70311638e-17 -0.04015736146)
(-3.766184144e-05 -1.616326066e-17 -0.03861326637)
(-3.429100379e-05 -1.465513378e-17 -0.03688812336)
(-3.067593051e-05 -1.431929905e-17 -0.03496903767)
(-2.688153129e-05 -1.336333117e-17 -0.03284318207)
(-2.298307371e-05 -1.193993287e-17 -0.0304978899)
(-1.906577702e-05 -1.03776459e-17 -0.02792074502)
(-1.522430002e-05 -9.057770612e-18 -0.02509966571)
(-1.156165458e-05 -8.293607109e-18 -0.02202297903)
(-8.187360117e-06 -6.065683945e-18 -0.0186794837)
(-5.216367137e-06 -4.933619885e-18 -0.01505850298)
(-2.779788656e-06 -3.641088623e-18 -0.01114991307)
(-1.053245868e-06 -2.264540854e-18 -0.006944115031)
(-1.897612389e-07 -7.827520691e-19 -0.002431853399)
(-1.120491563e-06 -1.667235048e-17 -0.05033124726)
(-2.926777683e-06 -1.314566174e-17 -0.05033013032)
(-4.644347775e-06 -1.456609055e-17 -0.05032772409)
(-6.439005529e-06 -1.232353535e-17 -0.05032409507)
(-8.252582437e-06 -1.368513033e-17 -0.05031920504)
(-1.007990154e-05 -1.233574568e-17 -0.0503129722)
(-1.192764607e-05 -1.247611982e-17 -0.05030526758)
(-1.38000724e-05 -1.327149445e-17 -0.05029590586)
(-1.570080291e-05 -1.491783179e-17 -0.05028463485)
(-1.763149946e-05 -1.47681166e-17 -0.05027111626)
(-1.959153717e-05 -1.51359307e-17 -0.05025490332)
(-2.157872296e-05 -1.593041891e-17 -0.05023541456)
(-2.358905057e-05 -1.711055252e-17 -0.05021190407)
(-2.56167608e-05 -1.691923124e-17 -0.05018342949)
(-2.765463738e-05 -1.69810473e-17 -0.05014881849)
(-2.969466679e-05 -1.69207867e-17 -0.05010663431)
(-3.172729226e-05 -1.797901228e-17 -0.05005514064)
(-3.374011246e-05 -1.874434357e-17 -0.04999226531)
(-3.571904113e-05 -1.933569895e-17 -0.0499155592)
(-3.764894257e-05 -1.977247323e-17 -0.04982215425)
(-3.951101922e-05 -2.006622291e-17 -0.0497087213)
(-4.128328664e-05 -2.025543283e-17 -0.04957142544)
(-4.294161401e-05 -2.049706637e-17 -0.04940588303)
(-4.44582949e-05 -2.067002643e-17 -0.04920712323)
(-4.580400666e-05 -2.074711867e-17 -0.04896955156)
(-4.694742163e-05 -2.072592203e-17 -0.04868692156)
(-4.785602017e-05 -2.040976419e-17 -0.04835231287)
(-4.84980776e-05 -2.046445408e-17 -0.04795811935)
(-4.884265031e-05 -2.022540648e-17 -0.04749604833)
(-4.886184449e-05 -1.989854987e-17 -0.04695712807)
(-4.853117299e-05 -1.968942019e-17 -0.04633173057)
(-4.783092179e-05 -1.936087893e-17 -0.04560960435)
(-4.674841527e-05 -1.893716461e-17 -0.04477991931)
(-4.527768716e-05 -1.842937149e-17 -0.04383132326)
(-4.342068124e-05 -1.785475485e-17 -0.04275200538)
(-4.118879216e-05 -1.71943056e-17 -0.04152977138)
(-3.860302236e-05 -1.643882841e-17 -0.04015213092)
(-3.569407819e-05 -1.558143432e-17 -0.03860638421)
(-3.250278109e-05 -1.461745191e-17 -0.03687970958)
(-2.908016789e-05 -1.379875295e-17 -0.03495926106)
(-2.548735155e-05 -1.287742972e-17 -0.03283226301)
(-2.179527933e-05 -1.182408419e-17 -0.03048610253)
(-1.808447394e-05 -1.093188451e-17 -0.0279084189)
(-1.444442449e-05 -9.122517565e-18 -0.02508718731)
(-1.097263096e-05 -7.901870601e-18 -0.02201079168)
(-7.77282608e-06 -6.620998319e-18 -0.01866808694)
(-4.95410656e-06 -5.273744633e-18 -0.01504845346)
(-2.641170415e-06 -4.732349767e-18 -0.01114182495)
(-1.001359803e-06 -2.38520507e-18 -0.006938659559)
(-1.805965377e-07 -8.322973711e-19 -0.002429760113)
(-1.026851013e-06 -3.6403059e-18 -0.05034358945)
(-2.683038025e-06 -6.749236795e-18 -0.05034249394)
(-4.260938342e-06 -8.964923064e-18 -0.05034013326)
(-5.912767984e-06 -1.099866477e-17 -0.05033657129)
(-7.586832661e-06 -7.319865808e-18 -0.05033176744)
(-9.279584929e-06 -8.215729725e-18 -0.05032563666)
(-1.099816921e-05 -8.177056647e-18 -0.05031804758)
(-1.274709802e-05 -1.086898212e-17 -0.05030881145)
(-1.452914824e-05 -1.316681579e-17 -0.05029767107)
(-1.634628831e-05 -1.266805761e-17 -0.05028428357)
(-1.819803899e-05 -1.196526645e-17 -0.05026819718)
(-2.008181314e-05 -1.27885123e-17 -0.05024882494)
(-2.199302802e-05 -1.497545925e-17 -0.05022541538)
(-2.392537612e-05 -1.691053605e-17 -0.05019702057)
(-2.587144481e-05 -1.746272907e-17 -0.05016246258)
(-2.782263687e-05 -1.840962527e-17 -0.05012029929)
(-2.976795178e-05 -1.983352543e-17 -0.05006878937)
(-3.169457681e-05 -1.937765133e-17 -0.05000585402)
(-3.358927752e-05 -1.933840545e-17 -0.04992903626)
(-3.543657993e-05 -1.94573411e-17 -0.0498354594)
(-3.721757194e-05 -1.961489885e-17 -0.04972178473)
(-3.891185508e-05 -1.975915488e-17 -0.04958416668)
(-4.049611898e-05 -1.986856835e-17 -0.04941821102)
(-4.194378909e-05 -1.990584103e-17 -0.04921893585)
(-4.322739287e-05 -1.984266945e-17 -0.04898073674)
(-4.431741267e-05 -1.965073935e-17 -0.04869735921)
(-4.518379636e-05 -1.93032916e-17 -0.04836187671)
(-4.57966287e-05 -1.924772142e-17 -0.04796668001)
(-4.612681084e-05 -1.906686891e-17 -0.04750347608)
(-4.614864832e-05 -1.918555221e-17 -0.04696329744)
(-4.58394194e-05 -1.896774056e-17 -0.04633652473)
(-4.518089583e-05 -1.86615195e-17 -0.04561291893)
(-4.416130558e-05 -1.827831972e-17 -0.04478166801)
(-4.277512585e-05 -1.781965378e-17 -0.04383144231)
(-4.102431498e-05 -1.728527257e-17 -0.04275045744)
(-3.891987129e-05 -1.667339593e-17 -0.04152655132)
(-3.648134405e-05 -1.598264731e-17 -0.04014726982)
(-3.373747617e-05 -1.521328968e-17 -0.03859995197)
(-3.072657496e-05 -1.437114116e-17 -0.03687181902)
(-2.749655031e-05 -1.34669518e-17 -0.0349500711)
(-2.410482472e-05 -1.24937468e-17 -0.03282198139)
(-2.061819998e-05 -1.144786418e-17 -0.03047498799)
(-1.711261363e-05 -1.021065031e-17 -0.02789678334)
(-1.367241676e-05 -9.028230482e-18 -0.02507539661)
(-1.03897224e-05 -7.795157493e-18 -0.02199926549)
(-7.362679563e-06 -5.634511202e-18 -0.01865729914)
(-4.694627229e-06 -5.180427568e-18 -0.01503893291)
(-2.504026946e-06 -3.79786078e-18 -0.01113415617)
(-9.500231669e-07 -2.32518426e-18 -0.006933482596)
(-1.71527644e-07 -7.9652454e-19 -0.002427771717)
(-9.315398588e-07 -1.580145197e-18 -0.05035539939)
(-2.434585551e-06 -2.298667288e-18 -0.05035432633)
(-3.868745151e-06 -4.357287217e-18 -0.0503520139)
(-5.373720301e-06 -6.010618962e-18 -0.05034852272)
(-6.905034137e-06 -6.741913811e-18 -0.05034380946)
(-8.459796973e-06 -7.645751996e-18 -0.0503377865)
(-1.004490363e-05 -8.853930318e-18 -0.05033031904)
(-1.166631773e-05 -1.018688017e-17 -0.05032121524)
(-1.332628105e-05 -1.133298795e-17 -0.05031021297)
(-1.502593083e-05 -1.21311259e-17 -0.05029696393)
(-1.676508527e-05 -1.299533229e-17 -0.05028101092)
(-1.854106981e-05 -1.370481176e-17 -0.05026176139)
(-2.034887752e-05 -1.451430707e-17 -0.05023845799)
(-2.218207442e-05 -1.533111242e-17 -0.05021014694)
(-2.403284557e-05 -1.600799711e-17 -0.05017564488)
(-2.589120944e-05 -1.664720908e-17 -0.05013350494)
(-2.774560662e-05 -1.718110129e-17 -0.0500819805)
(-2.958379364e-05 -1.761293356e-17 -0.05001898624)
(-3.139272892e-05 -1.806145895e-17 -0.04994205803)
(-3.315658154e-05 -1.846420723e-17 -0.04984831181)
(-3.485684587e-05 -1.879704251e-17 -0.04973439968)
(-3.64741365e-05 -1.905046193e-17 -0.04959646632)
(-3.798606323e-05 -1.92222682e-17 -0.04943010815)
(-3.936785881e-05 -1.931003897e-17 -0.04923033333)
(-4.059332742e-05 -1.931214628e-17 -0.04899152853)
(-4.163437801e-05 -1.923494834e-17 -0.04870743171)
(-4.246319806e-05 -1.909056461e-17 -0.04837111083)
(-4.305185996e-05 -1.89054604e-17 -0.04797495417)
(-4.337340842e-05 -1.867050108e-17 -0.0475106685)
(-4.340367762e-05 -1.813419506e-17 -0.04696929046)
(-4.312136648e-05 -1.820811823e-17 -0.0463412088)
(-4.250992722e-05 -1.794595343e-17 -0.0456161964)
(-4.155824121e-05 -1.760433672e-17 -0.04478345816)
(-4.02610657e-05 -1.718204958e-17 -0.04383168526)
(-3.862037419e-05 -1.668145295e-17 -0.04274911812)
(-3.664653511e-05 -1.611627652e-17 -0.04152362492)
(-3.435781386e-05 -1.54754164e-17 -0.0401427854)
(-3.178103754e-05 -1.475040026e-17 -0.03859397489)
(-2.895199666e-05 -1.393087521e-17 -0.03686445497)
(-2.591550669e-05 -1.302366275e-17 -0.03494146924)
(-2.272538165e-05 -1.203225767e-17 -0.03281233703)
(-1.944443521e-05 -1.096258561e-17 -0.03046454493)
(-1.614393792e-05 -9.808082591e-18 -0.0278858358)
(-1.290324402e-05 -8.565760537e-18 -0.0250642898)
(-9.809104362e-06 -7.224060278e-18 -0.021988396)
(-6.954200013e-06 -5.77679472e-18 -0.01864711595)
(-4.436215669e-06 -4.639303429e-18 -0.01502993766)
(-2.367447775e-06 -3.415394561e-18 -0.01112690376)
(-8.9889803e-07 -2.106962373e-18 -0.006928582128)
(-1.624969901e-07 -7.247329657e-19 -0.002425887448)
(-8.34478895e-07 2.61475051e-18 -0.0503666654)
(-2.181232149e-06 1.073234803e-17 -0.05036561638)
(-3.468532906e-06 2.435074105e-19 -0.05036335508)
(-4.823959747e-06 -3.651427932e-18 -0.05035993812)
(-6.209248025e-06 -5.164126415e-18 -0.05035531952)
(-7.622706002e-06 -5.33669439e-18 -0.05034940958)
(-9.071174179e-06 -8.333512332e-18 -0.05034206927)
(-1.056118519e-05 -9.840207374e-18 -0.05033310339)
(-1.209539941e-05 -1.0802272e-17 -0.05032224564)
(-1.367428637e-05 -1.13153768e-17 -0.05030914187)
(-1.529717035e-05 -1.457514222e-17 -0.05029332874)
(-1.696138978e-05 -1.398830203e-17 -0.05027420765)
(-1.866205143e-05 -1.377579374e-17 -0.05025101526)
(-2.039229451e-05 -1.343374531e-17 -0.05022279205)
(-2.214325719e-05 -1.434414096e-17 -0.05018834979)
(-2.390441032e-05 -1.47676995e-17 -0.05014623664)
(-2.566447878e-05 -1.473322163e-17 -0.05009470041)
(-2.741180101e-05 -1.534757983e-17 -0.05003164981)
(-2.913284455e-05 -1.659133184e-17 -0.04995461445)
(-3.081151851e-05 -1.741817512e-17 -0.0498607034)
(-3.243076568e-05 -1.797963783e-17 -0.04974656043)
(-3.397158968e-05 -1.836131169e-17 -0.0496083215)
(-3.541220062e-05 -1.860655673e-17 -0.04944157417)
(-3.672982607e-05 -1.874255888e-17 -0.04924131786)
(-3.789960696e-05 -1.87849725e-17 -0.04900193152)
(-3.889511728e-05 -1.873896373e-17 -0.04871714589)
(-3.969030592e-05 -1.860803056e-17 -0.04838002403)
(-4.025893124e-05 -1.838824513e-17 -0.04798295196)
(-4.057628415e-05 -1.806085005e-17 -0.04751763689)
(-4.061958125e-05 -1.760348124e-17 -0.04697511943)
(-4.036877998e-05 -1.753604202e-17 -0.04634579533)
(-3.980883692e-05 -1.733617987e-17 -0.04561944927)
(-3.892925661e-05 -1.701394354e-17 -0.04478530199)
(-3.772503456e-05 -1.656655715e-17 -0.04383206353)
(-3.619817028e-05 -1.596977573e-17 -0.04274799786)
(-3.435823989e-05 -1.553545474e-17 -0.04152100145)
(-3.222217045e-05 -1.501351151e-17 -0.04013868557)
(-2.98149045e-05 -1.443045447e-17 -0.03858845947)
(-2.716974815e-05 -1.354290904e-17 -0.03685762257)
(-2.432847468e-05 -1.257342623e-17 -0.03493345936)
(-2.134139532e-05 -1.148502102e-17 -0.0328033327)
(-1.82672902e-05 -1.045977806e-17 -0.03045477541)
(-1.517281489e-05 -9.395506365e-18 -0.02787557773)
(-1.21323542e-05 -8.204671015e-18 -0.02505386762)
(-9.227338777e-06 -6.887088514e-18 -0.0219781835)
(-6.544973661e-06 -6.313760853e-18 -0.01863753714)
(-4.177363193e-06 -4.377047559e-18 -0.01502146705)
(-2.230625628e-06 -3.227560362e-18 -0.0111200672)
(-8.476656772e-07 -1.991744874e-18 -0.006923957869)
(-1.534422252e-07 -6.844560714e-19 -0.002424107232)
(-7.35489144e-07 -1.988962266e-18 -0.05037737891)
(-1.923060366e-06 -4.714837418e-18 -0.05037635502)
(-3.061292415e-06 -8.706104404e-18 -0.05037414688)
(-4.265305325e-06 -6.723404221e-18 -0.05037080698)
(-5.502055503e-06 -6.641150971e-18 -0.05036628703)
(-6.771569761e-06 -7.583720841e-18 -0.05036049458)
(-8.080816501e-06 -8.718186005e-18 -0.05035328666)
(-9.435830886e-06 -9.959207882e-18 -0.0503444639)
(-1.084032858e-05 -1.14162394e-17 -0.05033375574)
(-1.229487589e-05 -1.032035411e-17 -0.05032080265)
(-1.379818023e-05 -1.140262322e-17 -0.05030513493)
(-1.53471641e-05 -1.225727444e-17 -0.05028614746)
(-1.693671934e-05 -1.296803234e-17 -0.05026307084)
(-1.855938319e-05 -1.37452335e-17 -0.05023494019)
(-2.020585111e-05 -1.473064946e-17 -0.05020056207)
(-2.186579333e-05 -1.564209688e-17 -0.05015847948)
(-2.352831857e-05 -1.631700966e-17 -0.05010693495)
(-2.518185367e-05 -1.678434181e-17 -0.05004383181)
(-2.681233833e-05 -1.723238254e-17 -0.04996669442)
(-2.84039668e-05 -1.756813864e-17 -0.04987262494)
(-2.994095295e-05 -1.785737549e-17 -0.04975825969)
(-3.140476235e-05 -1.808352424e-17 -0.0496197272)
(-3.277452895e-05 -1.822555672e-17 -0.04945260657)
(-3.402892959e-05 -1.829740691e-17 -0.04925188925)
(-3.514444172e-05 -1.830995309e-17 -0.0490119473)
(-3.609673807e-05 -1.827398492e-17 -0.04872650521)
(-3.686117348e-05 -1.819988709e-17 -0.0483886218)
(-3.741295275e-05 -1.810280695e-17 -0.04799068069)
(-3.772936323e-05 -1.801097485e-17 -0.04752438978)
(-3.77891815e-05 -1.798808405e-17 -0.04698079361)
(-3.757369072e-05 -1.778849469e-17 -0.04635029439)
(-3.706892389e-05 -1.736853775e-17 -0.04562268782)
(-3.626504542e-05 -1.702758652e-17 -0.04478720937)
(-3.51573218e-05 -1.679348741e-17 -0.04383258664)
(-3.374776113e-05 -1.61328173e-17 -0.04274710587)
(-3.204499692e-05 -1.532141069e-17 -0.04151868975)
(-3.006457e-05 -1.450800898e-17 -0.04013497844)
(-2.782956536e-05 -1.364396518e-17 -0.03858341308)
(-2.537083291e-05 -1.297770691e-17 -0.03685132851)
(-2.272714852e-05 -1.222296774e-17 -0.03492604758)
(-1.994541138e-05 -1.136783766e-17 -0.03279497429)
(-1.708022415e-05 -1.068627481e-17 -0.03044568476)
(-1.419370249e-05 -9.412993681e-18 -0.02786601353)
(-1.135522088e-05 -8.137984653e-18 -0.02504413399)
(-8.640911603e-06 -6.805107691e-18 -0.0219686315)
(-6.132491184e-06 -5.611538377e-18 -0.01862856578)
(-3.916460908e-06 -4.451190797e-18 -0.01501352368)
(-2.092729876e-06 -3.225094952e-18 -0.0111136485)
(-7.960417002e-07 -1.932840918e-18 -0.006919611131)
(-1.443227396e-07 -5.727681341e-19 -0.002422431552)
(-6.35267089e-07 7.464211163e-18 -0.05038753254)
(-1.661740302e-06 -1.036073206e-17 -0.05038653445)
(-2.649380639e-06 -3.24246899e-18 -0.05038438102)
(-3.700005344e-06 -4.777315387e-18 -0.05038112043)
(-4.785861009e-06 -4.654931286e-18 -0.05037670272)
(-5.908920306e-06 -8.744876855e-18 -0.0503710318)
(-7.076574209e-06 -8.576864418e-18 -0.05036396131)
(-8.294147359e-06 -9.156639237e-18 -0.0503552867)
(-9.565651382e-06 -9.998744314e-18 -0.05034473279)
(-1.089204148e-05 -1.171772613e-17 -0.05033193473)
(-1.227193446e-05 -9.300300541e-18 -0.05031641679)
(-1.370172795e-05 -1.094294985e-17 -0.05029756744)
(-1.517570397e-05 -1.199051438e-17 -0.05027461113)
(-1.668623535e-05 -1.460948545e-17 -0.05024657736)
(-1.822413432e-05 -1.574635845e-17 -0.05021226739)
(-1.977916168e-05 -1.735192898e-17 -0.05017021917)
(-2.134085481e-05 -1.812958821e-17 -0.05011867029)
(-2.289717287e-05 -1.828642376e-17 -0.05005551956)
(-2.443382322e-05 -1.776017449e-17 -0.0499782863)
(-2.593637699e-05 -1.760062574e-17 -0.04988406633)
(-2.738940368e-05 -1.764679794e-17 -0.04976948918)
(-2.877474753e-05 -1.777005243e-17 -0.04963067667)
(-3.007333291e-05 -1.775579781e-17 -0.04946320039)
(-3.126482944e-05 -1.77037843e-17 -0.04926204474)
(-3.232679018e-05 -1.763705178e-17 -0.04902157516)
(-3.323690831e-05 -1.755325741e-17 -0.04873551074)
(-3.397211669e-05 -1.744421777e-17 -0.04839690673)
(-3.450931391e-05 -1.73042957e-17 -0.04799814444)
(-3.482732651e-05 -1.713110042e-17 -0.04753093252)
(-3.490632313e-05 -1.692866169e-17 -0.04698631925)
(-3.472918019e-05 -1.647507313e-17 -0.04635471293)
(-3.428273455e-05 -1.612281779e-17 -0.04562591956)
(-3.355764976e-05 -1.572000581e-17 -0.04478918817)
(-3.254953189e-05 -1.526337775e-17 -0.04383326268)
(-3.126029113e-05 -1.495824409e-17 -0.04274645032)
(-2.969769434e-05 -1.431236235e-17 -0.041516698)
(-2.787591409e-05 -1.361766724e-17 -0.04013167217)
(-2.581615826e-05 -1.288066064e-17 -0.03857884386)
(-2.354683221e-05 -1.238029893e-17 -0.03684558094)
(-2.110376178e-05 -1.160788652e-17 -0.03491924211)
(-1.853034094e-05 -1.084951692e-17 -0.03278727011)
(-1.587701369e-05 -9.943425773e-18 -0.03043728133)
(-1.320130245e-05 -8.934320338e-18 -0.02785715138)
(-1.056754421e-05 -7.823405904e-18 -0.02503509676)
(-8.046519816e-06 -6.72639067e-18 -0.0219597474)
(-5.714390558e-06 -5.589988133e-18 -0.01862020856)
(-3.651999174e-06 -4.390744431e-18 -0.01500611332)
(-1.952938622e-06 -3.181245112e-18 -0.01110765222)
(-7.436978724e-07 -1.941444732e-18 -0.006915544955)
(-1.350726e-07 -6.620840031e-19 -0.002420861557)
(-5.341911472e-07 -3.453939425e-18 -0.05039712047)
(-1.398325632e-06 -6.885822025e-18 -0.05039614883)
(-2.234569347e-06 -7.684407796e-18 -0.0503940514)
(-3.130057526e-06 -8.006075407e-18 -0.05039087256)
(-4.062986364e-06 -9.030317596e-18 -0.05038656018)
(-5.037412614e-06 -9.609482185e-18 -0.05038101408)
(-6.061397624e-06 -9.702959359e-18 -0.05037408482)
(-7.139588917e-06 -9.536956893e-18 -0.05036556282)
(-8.275342299e-06 -8.931521113e-18 -0.05035516741)
(-9.470246197e-06 -1.046718411e-17 -0.0503425283)
(-1.072283956e-05 -1.124653779e-17 -0.05032716377)
(-1.202922873e-05 -1.212333682e-17 -0.05030845607)
(-1.338344962e-05 -1.299147064e-17 -0.05028562355)
(-1.477774709e-05 -1.387329041e-17 -0.05025768999)
(-1.620298449e-05 -1.448346158e-17 -0.05022345153)
(-1.764945244e-05 -1.501757628e-17 -0.05018144126)
(-1.910655e-05 -1.529592806e-17 -0.05012989236)
(-2.056160964e-05 -1.557118307e-17 -0.05006669978)
(-2.20010022e-05 -1.576245515e-17 -0.0499893776)
(-2.341162898e-05 -1.592457006e-17 -0.049895016)
(-2.477830876e-05 -1.606501217e-17 -0.04978023894)
(-2.608332618e-05 -1.61765529e-17 -0.04964116155)
(-2.730928525e-05 -1.631011629e-17 -0.04947334878)
(-2.84369695e-05 -1.6402529e-17 -0.04927177907)
(-2.944533448e-05 -1.645040596e-17 -0.04903081162)
(-3.031360985e-05 -1.644235411e-17 -0.04874416062)
(-3.102020755e-05 -1.635786741e-17 -0.04840487817)
(-3.154408846e-05 -1.614844612e-17 -0.04800534378)
(-3.186533217e-05 -1.581470629e-17 -0.04753726695)
(-3.196530592e-05 -1.532159432e-17 -0.04699169907)
(-3.182860693e-05 -1.48375662e-17 -0.0463590547)
(-3.144279379e-05 -1.455108654e-17 -0.04562914936)
(-3.079896625e-05 -1.412340146e-17 -0.04479124407)
(-2.989310412e-05 -1.351093506e-17 -0.04383409812)
(-2.872689009e-05 -1.325551697e-17 -0.04274603818)
(-2.730730447e-05 -1.282571388e-17 -0.04151503347)
(-2.564718938e-05 -1.226758625e-17 -0.04012877465)
(-2.376585767e-05 -1.160388427e-17 -0.03857476037)
(-2.168928392e-05 -1.084649556e-17 -0.03684038915)
(-1.945044063e-05 -1.029176273e-17 -0.03491305309)
(-1.70890156e-05 -9.644654753e-18 -0.03278023082)
(-1.46513185e-05 -8.696532339e-18 -0.03042957588)
(-1.219019046e-05 -7.627063154e-18 -0.02784900226)
(-9.764878483e-06 -6.625797183e-18 -0.02502676694)
(-7.440717911e-06 -5.488145056e-18 -0.0219515418)
(-5.288197922e-06 -4.519907994e-18 -0.0186124753)
(-3.382396678e-06 -3.657063785e-18 -0.01499924458)
(-1.810429361e-06 -2.699669172e-18 -0.01110208532)
(-6.903509539e-07 -1.6672254e-18 -0.006911763925)
(-1.256519824e-07 -5.733675991e-19 -0.002419398937)
(-4.328213974e-07 -1.64408601e-17 -0.05040613813)
(-1.134356334e-06 -1.249249906e-17 -0.05040519329)
(-1.818221064e-06 -1.276066683e-17 -0.05040315307)
(-2.55697269e-06 -9.252943933e-18 -0.05040005831)
(-3.336084081e-06 -1.493404182e-17 -0.05039585362)
(-4.160650078e-06 -1.24583844e-17 -0.05039043511)
(-5.038708127e-06 -1.180603751e-17 -0.05038364978)
(-5.975433954e-06 -1.133538056e-17 -0.05037528383)
(-6.973210679e-06 -1.080616814e-17 -0.05036505039)
(-8.033558136e-06 -1.203466448e-17 -0.05035257329)
(-9.155346713e-06 -1.239682428e-17 -0.0503373649)
(-1.033453688e-05 -1.2778794e-17 -0.05031880134)
(-1.15649585e-05 -1.336932796e-17 -0.05029609501)
(-1.283882201e-05 -1.214577047e-17 -0.05026826421)
(-1.414740584e-05 -1.225244156e-17 -0.05023409994)
(-1.548128678e-05 -1.168320953e-17 -0.05019213091)
(-1.682919571e-05 -1.153227584e-17 -0.05014058682)
(-1.817859259e-05 -1.29497005e-17 -0.05007735844)
(-1.95172596e-05 -1.374250721e-17 -0.04999995497)
(-2.083248837e-05 -1.419185779e-17 -0.04990546157)
(-2.210939777e-05 -1.44322847e-17 -0.04979049745)
(-2.333177517e-05 -1.457157074e-17 -0.04965117162)
(-2.448312013e-05 -1.481443816e-17 -0.04948304296)
(-2.554517081e-05 -1.504504612e-17 -0.04928108457)
(-2.649893122e-05 -1.52478363e-17 -0.04903965027)
(-2.732486741e-05 -1.545336011e-17 -0.04875245002)
(-2.800266403e-05 -1.574564064e-17 -0.0484125327)
(-2.851331786e-05 -1.542915033e-17 -0.04801227661)
(-2.883830338e-05 -1.522652379e-17 -0.04754339226)
(-2.896024576e-05 -1.437127747e-17 -0.04699693357)
(-2.886512767e-05 -1.402531472e-17 -0.0463633212)
(-2.854135954e-05 -1.367753396e-17 -0.04563237954)
(-2.798059113e-05 -1.329862384e-17 -0.04479338036)
(-2.71792691e-05 -1.287660168e-17 -0.04383509731)
(-2.613862739e-05 -1.241822697e-17 -0.04274587491)
(-2.486479701e-05 -1.189681698e-17 -0.04151370274)
(-2.336937294e-05 -1.129792716e-17 -0.04012629362)
(-2.166982288e-05 -1.061262912e-17 -0.03857117158)
(-1.978971678e-05 -9.837162221e-18 -0.03683576338)
(-1.775912873e-05 -9.248925036e-18 -0.03490749226)
(-1.561402721e-05 -8.553013392e-18 -0.03277386958)
(-1.339651677e-05 -7.873629418e-18 -0.03042258245)
(-1.11546791e-05 -7.089820699e-18 -0.02784158082)
(-8.942559124e-06 -6.343831534e-18 -0.0250191594)
(-6.819902955e-06 -5.544049778e-18 -0.02194402933)
(-4.851353639e-06 -4.570685911e-18 -0.01860537972)
(-3.106010806e-06 -3.634907766e-18 -0.0149929296)
(-1.664316591e-06 -2.652631667e-18 -0.01109695753)
(-6.356372356e-07 -1.626966116e-18 -0.006908274549)
(-1.159837067e-07 -5.577095887e-19 -0.002418046156)
(-3.317473366e-07 -2.600030115e-18 -0.0504145827)
(-8.707474487e-07 -3.524619735e-18 -0.0504136652)
(-1.401321206e-06 -1.905459482e-18 -0.05041168379)
(-1.982609818e-06 -5.695146334e-18 -0.05040867468)
(-2.607349812e-06 -7.615613577e-18 -0.05040457919)
(-3.281091754e-06 -8.463376493e-18 -0.05039929049)
(-4.01139495e-06 -9.122736525e-18 -0.05039265097)
(-4.804526866e-06 -9.887664232e-18 -0.05038444282)
(-5.662551589e-06 -1.086848807e-17 -0.05037437364)
(-6.585918887e-06 -1.224456634e-17 -0.05036206064)
(-7.57359915e-06 -1.190852215e-17 -0.05034701001)
(-8.621844282e-06 -1.199819325e-17 -0.05032859197)
(-9.72444359e-06 -1.223793436e-17 -0.05030601319)
(-1.087393906e-05 -1.237430754e-17 -0.05027828655)
(-1.206187093e-05 -1.246415034e-17 -0.05024419842)
(-1.327826247e-05 -1.256436706e-17 -0.05020227392)
(-1.45118821e-05 -1.285285101e-17 -0.05015073926)
(-1.575121218e-05 -1.322145738e-17 -0.05008748099)
(-1.698514643e-05 -1.347274234e-17 -0.05001000401)
(-1.820106946e-05 -1.365427041e-17 -0.04991538947)
(-1.938447033e-05 -1.377500552e-17 -0.04980025173)
(-2.052103768e-05 -1.385473102e-17 -0.04966069462)
(-2.159502404e-05 -1.391668235e-17 -0.04949227196)
(-2.258903678e-05 -1.394676823e-17 -0.04928995154)
(-2.348606838e-05 -1.392727739e-17 -0.04904808258)
(-2.426798766e-05 -1.384153481e-17 -0.04876037159)
(-2.491595512e-05 -1.36712587e-17 -0.04841986437)
(-2.541260798e-05 -1.349960767e-17 -0.04801893823)
(-2.574089247e-05 -1.318633515e-17 -0.04754930477)
(-2.588494722e-05 -1.290709487e-17 -0.04700202033)
(-2.583187114e-05 -1.281247757e-17 -0.0463675112)
(-2.557092001e-05 -1.260614276e-17 -0.04563560981)
(-2.509440287e-05 -1.23190529e-17 -0.04479559782)
(-2.439920967e-05 -1.196772377e-17 -0.04383626255)
(-2.348614793e-05 -1.155940001e-17 -0.04274596467)
(-2.236052371e-05 -1.10961632e-17 -0.04151271146)
(-2.103270681e-05 -1.057927927e-17 -0.04012423641)
(-1.951837244e-05 -1.001082115e-17 -0.03856808675)
(-1.783883209e-05 -9.396747972e-18 -0.03683171497)
(-1.602101161e-05 -8.750324328e-18 -0.03490257266)
(-1.409721537e-05 -8.074614162e-18 -0.03276820085)
(-1.210525294e-05 -7.407133409e-18 -0.03041631716)
(-1.008836868e-05 -6.716951939e-18 -0.02783490448)
(-8.095261593e-06 -6.002927778e-18 -0.02501229229)
(-6.17989246e-06 -5.27178032e-18 -0.0219372281)
(-4.400819614e-06 -4.431890935e-18 -0.018598939)
(-2.820879024e-06 -3.492235625e-18 -0.01498718348)
(-1.513569347e-06 -2.535261928e-18 -0.01109228079)
(-5.791954893e-07 -1.55053799e-18 -0.006905084734)
(-1.060160539e-07 -5.308628107e-19 -0.002416806147)
(-2.308274431e-07 -2.170728148e-18 -0.05042245519)
(-6.07222097e-07 -3.720524218e-18 -0.05042156566)
(-9.845727154e-07 -4.925184101e-18 -0.0504196439)
(-1.409087956e-06 -7.168607174e-18 -0.05041672118)
(-1.879086015e-06 -3.752822862e-18 -0.0504127357)
(-2.401294768e-06 -5.213348417e-18 -0.05040757778)
(-2.983057608e-06 -6.13633253e-18 -0.05040108482)
(-3.630410555e-06 -7.417248379e-18 -0.05039303463)
(-4.34621356e-06 -8.885845369e-18 -0.05038312987)
(-5.130478961e-06 -8.087910403e-18 -0.05037098147)
(-5.981394607e-06 -9.377887913e-18 -0.05035608895)
(-6.895282028e-06 -1.040948817e-17 -0.05033781651)
(-7.866427285e-06 -1.143742832e-17 -0.05031536528)
(-8.887509168e-06 -1.273556858e-17 -0.05028774322)
(-9.949747166e-06 -1.285117687e-17 -0.05025373287)
(-1.104324788e-05 -1.344453584e-17 -0.05021185588)
(-1.215760112e-05 -1.450313334e-17 -0.05016033473)
(-1.328240412e-05 -1.369468331e-17 -0.05009705225)
(-1.440695729e-05 -1.332639563e-17 -0.05001950972)
(-1.551879038e-05 -1.315378003e-17 -0.04992478493)
(-1.660456828e-05 -1.306323018e-17 -0.04980948768)
(-1.765127171e-05 -1.299818846e-17 -0.04966971715)
(-1.864409014e-05 -1.292256655e-17 -0.04950102298)
(-1.95670963e-05 -1.280546326e-17 -0.04929836812)
(-2.040463744e-05 -1.261219882e-17 -0.04905609771)
(-2.113993885e-05 -1.229229418e-17 -0.04876791527)
(-2.175622941e-05 -1.175817487e-17 -0.04842686406)
(-2.223741758e-05 -1.171454741e-17 -0.04802532066)
(-2.256770811e-05 -1.142368424e-17 -0.04755499755)
(-2.273313014e-05 -1.167188203e-17 -0.04700695362)
(-2.272177422e-05 -1.160653897e-17 -0.04637162038)
(-2.252366732e-05 -1.145310609e-17 -0.04563883743)
(-2.213191349e-05 -1.1226968e-17 -0.0447978955)
(-2.154370258e-05 -1.093840697e-17 -0.04383759442)
(-2.075963898e-05 -1.059376923e-17 -0.04274630947)
(-1.978432321e-05 -1.019713673e-17 -0.04151206382)
(-1.862689464e-05 -9.751289373e-18 -0.04012260957)
(-1.730126886e-05 -9.257804132e-18 -0.03856551491)
(-1.582653488e-05 -8.719145835e-18 -0.036828256)
(-1.422643792e-05 -8.137313021e-18 -0.03489830954)
(-1.252957486e-05 -7.513295972e-18 -0.03276324236)
(-1.076938531e-05 -6.847687292e-18 -0.03041079996)
(-8.984153976e-06 -6.136315176e-18 -0.02782899504)
(-7.217048057e-06 -5.373401093e-18 -0.02500618862)
(-5.515990901e-06 -4.551384586e-18 -0.02193116143)
(-3.933146482e-06 -3.660997116e-18 -0.0185931756)
(-2.524734633e-06 -2.937379505e-18 -0.01498202643)
(-1.356920318e-06 -2.158512991e-18 -0.01108807158)
(-5.205044391e-07 -1.330083196e-18 -0.006902205702)
(-9.563789653e-08 -4.572185623e-19 -0.002415683247)
(-1.302078276e-07 -1.900967143e-18 -0.05042975863)
(-3.447309541e-07 -2.995797389e-18 -0.05042889711)
(-5.697974285e-07 -3.729858027e-18 -0.05042703472)
(-8.383220027e-07 -4.395679602e-18 -0.05042419798)
(-1.153738691e-06 -4.568779779e-18 -0.05042032255)
(-1.524144969e-06 -5.142386748e-18 -0.05041529505)
(-1.956721399e-06 -5.823866741e-18 -0.05040894852)
(-2.456690322e-06 -6.555631972e-18 -0.05040105539)
(-3.027735783e-06 -7.232172982e-18 -0.05039131328)
(-3.670078081e-06 -7.725125881e-18 -0.05037932755)
(-4.381424363e-06 -8.341050495e-18 -0.0503645915)