/*--------------------------------*- C++ -*----------------------------------*\
  =========                 |
  \\      /  F ield         | OpenFOAM: The Open Source CFD Toolbox
   \\    /   O peration     | Website:  https://openfoam.org
    \\  /    A nd           | Version:  7
     \\/     M anipulation  |
\*---------------------------------------------------------------------------*/
FoamFile
{
    version     2.0;
    format      ascii;
    class       volScalarField;
    location    "0.003";
    object      p;
}
// * * * * * * * * * * * * * * * * * * * * * * * * * * * * * * * * * * * * * //

dimensions      [1 -1 -2 0 0 0 0];

internalField   nonuniform List<scalar> 
1166
(
1490618.63
1498802.716
1496078.267
1493593.909
1491255.55
1488759.538
1485463.922
1480353.005
1479891.073
1512283.222
1572324.475
1638014.432
1704515.36
1769845.068
1814796.484
1807292.523
1788555.643
1769832.776
1750853.507
1731366.021
1711997.755
1693259.943
1675935.151
1663581.836
1661881.203
1671419.611
1686202.937
1701194.91
1715076.983
1727713.583
1738905.012
1748468.062
1756476.96
1763271.875
1426780.401
1437616.171
1435896.851
1433750.198
1434974.227
1456124.163
1498474.045
1547675.423
1600046.114
1655154.604
1713259.295
1765339.634
1778819.748
1766894.765
1750850.126
1734215.386
1716659.877
1698424.677
1680153.712
1662271.975
1645279.647
1632061.026
1628444.031
1636433.746
1650892.124
1666222.676
1680557.684
1693719.703
1705547.151
1715829.839
1724539.875
1731915.31
1738333.214
1744133.474
1749500.62
1754485.928
1759098.983
1763351.212
1767261.354
1770847.365
1774137.464
1777171.926
1779994.996
1782643.007
1785137.977
1787491.432
1789710.613
1791830.6
1793972.956
1796132.389
1499932.086
1516343.625
1531216.11
1553338.811
1582138.162
1616030.603
1654891.66
1698581.421
1740504.945
1754970.056
1746000.86
1732776.098
1718932.619
1703620.911
1686959.585
1669605.198
1652148.264
1634878.889
1618084.6
1604328.598
1599147.24
1605433.703
1619081.409
1634330.32
1648809.817
1662231.636
1674458.184
1685264.82
1694529.221
1702376.078
1709134.308
1715176.398
1720751.357
1725938.669
1730748.704
1735188.824
1739276.144
1743029.538
1746470.118
1749632.123
1752558.311
1755289.494
1757854.88
1760272.563
1762556.443
1764717.087
1766760.459
1768718.224
1770700.721
1772706.987
1673130.812
1676450.661
1690435.013
1711058.014
1734046.772
1743503.668
1737370.933
1727706.745
1717345.457
1705825.507
1692600.802
1677965.366
1662004.248
1645187.35
1628273.883
1611467.063
1594921.191
1580857.931
1574502.026
1579078.161
1591398.485
1605973.993
1620048.055
1633253.677
1645487.218
1656504.389
1666106.529
1674305.001
1681343.188
1687561.913
1693245.971
1698532.803
1703454.64
1708016.575
1712228.577
1716106.716
1719665.872
1722932.002
1725943.443
1728743.172
1731366.31
1733834.301
1736161.684
1738362.076
1740448.139
1742428.664
1744307.159
1746113.206
1747952.638
1749819.842
1727652.318
1713549.374
1712709.417
1709771.632
1704572.029
1698010.472
1689919.119
1680108.744
1668541.498
1655134.094
1640497.34
1624899.314
1608419.638
1592173.344
1576332.402
1562635.76
1555872.554
1559074.299
1569719.884
1582872.736
1595913.631
1608366.591
1620115.106
1630907.719
1640492.083
1648774.749
1655890.408
1662128.324
1667788.766
1673059.687
1677994.694
1682594.902
1686861.823
1690806.096
1694440.36
1697780.15
1700854.788
1703703.437
1706364.509
1708865.636
1711223.115
1713449.365
1715557.205
1717556.943
1719458.818
1721269.298
1722993.688
1724658.044
1726361.364
1728095.795
1708914.087
1690049.45
1688506.48
1683900.523
1676179.056
1666244.255
1654639.025
1641378.508
1626969.705
1611588.392
1596036.437
1579684.493
1563925.39
1551062.002
1544545.739
1546605.636
1555070.208
1566051.331
1577302.038
1588350.199
1599048.236
1609115.224
1618243.761
1626242.895
1633150.252
1639185.703
1644634.054
1649714.373
1654505.29
1659009.763
1663219.816
1667136.405
1670766.331
1674115.823
1677202.991
1680059.317
1682722.667
1685224.664
1687584.355
1689813.749
1691923.698
1693925.275
1695828.447
1697641.682
1699373.832
1701031.322
1702614.887
1704145.903
1705717.576
1707324.392
1664562.681
1643487.602
1641022.172
1635326.085
1626924.268
1616339.426
1604354.465
1591715.914
1577789.508
1563765.731
1550025.307
1539258.58
1534760.412
1536853.543
1543498.23
1552283.745
1561634.363
1571133.302
1580607.226
1589749.215
1598201.38
1605742.155
1612334.733
1618113.777
1623307.869
1628133.657
1632709.002
1637053.393
1641151.771
1644993.673
1648577.82
1651905.943
1654983.205
1657829.759
1660477.712
1662960.8
1665303.34
1667517.268
1669612.022
1671598.686
1673486.164
1675283.156
1676996.214
1678635.537
1680208.501
1681718.199
1683165.045
1684572.178
1686022.751
1687510.118
1617245.142
1596619.304
1594326.121
1588687.788
1580458.757
1570789.319
1559714.007
1548513.042
1538275.297
1531291.362
1528816.743
1531076.804
1536043.638
1542463.221
1549782.255
1557560.676
1565585.764
1573541.391
1581071.005
1587947.267
1594062.174
1599451.168
1604278.492
1608752.922
1613022.108
1617118.384
1621027.026
1624723.981
1628199.049
1631448.617
1634469.144
1637269.154
1639871.505
1642307.536
1644604.724
1646779.482
1648840.708
1650795.88
1652653.987
1654422.642
1656108.46
1657716.194
1659254.111
1660729.321
1662146.994
1663510.747
1664824.953
1666112.935
1667449.287
1668822.236
1567601.855
1548578.94
1546819.902
1542415.443
1535990.081
1529677.805
1524689.583
1521857.429
1521844.522
1523840.369
1527629.503
1532460.855
1538210.116
1544624.793
1551439.122
1558367.247
1565070.291
1571336.223
1577014.379
1582057.363
1586566.166
1590751.401
1594758.846
1598631.857
1602357.518
1605910.913
1609275.561
1612442.242
1615404.414
1618158.222
1620714.333
1623096.834
1625337.834
1627460.071
1629473.78
1631385
1633200.85
1634929.596
1636577.69
1638149.167
1639651.046
1641089.877
1642470.489
1643795.088
1645070.746
1646303.883
1647497.601
1648671.064
1649895.846
1651159.162
1522294.541
1508435.264
1509214.338
1509328.631
1509034.831
1509307.116
1510698.759
1513155.928
1516478.718
1520802.463
1525838.547
1531534.841
1537607.095
1543853.291
1549962.39
1555771.92
1561123.387
1565908.887
1570228.874
1574233.972
1578046.528
1581735.343
1585303.33
1588718.911
1591972.147
1595057.056
1597957.979
1600664.538
1603179.704
1605520.51
1607713.661
1609784.455
1611748.892
1613614.52
1615385.859
1617068.398
1618669.345
1620195.438
1621650.918
1623042.661
1624375.977
1625656.87
1626889.198
1628078.613
1629229.595
1630345.93
1631431.008
1632502.279
1633621.786
1634778.538
1498635.898
1490943.01
1492978.189
1495014.179
1497198.927
1500113.938
1503711.816
1507943.357
1512830.979
1518172.23
1523818.97
1529611.564
1535328.625
1540806.203
1545928.372
1550559.808
1554786.396
1558705.913
1562409.606
1565967.318
1569432.856
1572779.069
1575974.942
1579006.785
1581866.585
1584545.779
1587033.543
1589340.615
1591491.373
1593514.037
1595431.064
1597253.876
1598985.356
1600629.896
1602194.569
1603684.844
1605104.942
1606457.943
1607750.404
1608988.241
1610175.125
1611315.712
1612417.33
1613488.537
1614532.861
1615549.031
1616539.429
1617519.804
1618545.231
1619602.503
1490317.957
1486317.083
1488550.236
1491223.659
1494330.314
1498016.897
1502239.501
1506921.55
1511934.446
1517075.921
1522266.045
1527285.261
1532074.566
1536497.099
1540596.138
1544422.778
1548023.671
1551511.845
1554911.259
1558195.436
1561338.386
1564315.797
1567133.491
1569794.983
1572282.008
1574591.417
1576736.657
1578741.983
1580631.143
1582418.007
1584113.044
1585722.198
1587251.476
1588706.247
1590092.209
1591414.542
1592677.778
1593886.374
1595043.228
1596148.47
1597210.903
1598237.8
1599235.051
1600207.517
1601160.665
1602093.716
1603003.885
1603905.585
1604849.403
1605822.369
1489943.769
1487721.536
1489772.821
1492336.664
1495351.36
1498848.106
1502759.798
1506983.639
1511324.167
1515682.636
1519934.503
1523993.444
1527836.57
1531491.429
1534954.83
1538346.784
1541658.872
1544855.748
1547920.243
1550869.324
1553679.104
1556332.774
1558818.564
1561122.595
1563258.918
1565248.708
1567120.893
1568893.569
1570575.202
1572170.806
1573683.945
1575119.197
1576482.925
1577781.407
1579018.181
1580199.062
1581328.802
1582412.852
1583453.454
1584453.972
1585418.961
1586356.546
1587271.615
1588167.897
1589047.783
1589912.207
1590756.041
1591593.069
1592468.403
1593368.402
1491794.438
1490323.21
1492096.745
1494329.37
1496929.515
1499904.858
1503195.018
1506659.313
1510158.205
1513661.599
1517050.583
1520382.704
1523609.967
1526807.451
1529955.548
1533002.152
1535976.438
1538855.797
1541605.917
1544200.088
1546649.436
1548957.34
1551109.376
1553109.535
1554973.883
1556724.425
1558383.086
1559958.248
1561454.564
1562879.152
1564235.642
1565526.749
1566754.201
1567920.898
1569035.562
1570102.532
1571124.247
1572104.278
1573050.316
1573969.686
1574861.251
1575731.049
1576583.737
1577421.255
1578244.64
1579053.071
1579844.476
1580628.869
1581445.791
1582282.743
1493853.675
1492600.2
1494058.343
1495870.527
1497940.741
1500312.628
1502926.155
1505640.603
1508440.545
1511278.917
1514136.857
1517004.985
1519887.475
1522707.604
1525511.234
1528245.308
1530858.797
1533372.686
1535786.123
1538065.333
1540184.855
1542157.345
1544002.476
1545747.034
1547400.431
1548969.184
1550453.239
1551862.174
1553203.138
1554480.372
1555698.497
1556862.587
1557975.444
1559038.223
1560053.438
1561025.591
1561959.991
1562862.779
1563739.703
1564595.49
1565432.598
1566252.421
1567057.881
1567850.094
1568629.344
1569394.468
1570143.151
1570882.184
1571649.403
1572434.459
1495144.737
1493894.085
1495048.49
1496447.633
1498063.532
1499954.112
1502024.493
1504233.939
1506596.36
1509008.709
1511523.913
1514035.91
1516569.898
1519072.826
1521505.846
1523896.891
1526200.915
1528379.85
1530441.961
1532397.407
1534230.935
1535942.489
1537558.363
1539097.134
1540568.347
1541975.03
1543313.142
1544583.329
1545793.987
1546950.183
1548054.16
1549110.893
1550126.098
1551102.837
1552035.743
1552932.925
1553801.929
1554647.715
1555473.871
1556283.923
1557079.799
1557861.617
1558630.535
1559387.613
1560132.408
1560861.055
1561571.651
1562271.943
1562997.264
1563736.169
1495449.6
1494131.624
1495078.677
1496226.015
1497576.759
1499133.242
1500858.283
1502781.462
1504808.197
1506931.062
1509105.617
1511313.117
1513498.704
1515690.766
1517815.667
1519866.278
1521854.64
1523736.407
1525499.281
1527163.725
1528755.6
1530273.913
1531715.106
1533091.027
1534406.026
1535664.453
1536874.744
1538031.563
1539132.95
1540186.275
1541197.266
1542168.875
1543103.345
1544003.241
1544872.065
1545713.666
1546534.22
1547337.745
1548127.022
1548903.063
1549666.207
1550417.459
1551157.615
1551886.19
1552600.221
1553294.776
1553972.139
1554638.842
1555326.953
1556025.421
1495120.479
1493768.684
1494626.578
1495649.216
1496803.459
1498115.452
1499630.867
1501303.341
1503054.288
1504913.397
1506791.172
1508716.724
1510619.046
1512499.819
1514344.989
1516102.357
1517783.885
1519399.303
1520926.445
1522380.949
1523780.464
1525135.608
1526433.89
1527671.227
1528857.695
1529997.206
1531093.062
1532149.124
1533159.51
1534129.254
1535063.39
1535963.144
1536830.62
1537671.482
1538490.942
1539290.461
1540074.784
1540846.708
1541607.139
1542355.871
1543091.57
1543817.965
1544533.245
1545234.044
1545916.943
1546582.304
1547229.824
1547865.228
1548519.181
1549182.979
1494545.441
1493170.414
1493951.97
1494849.53
1495831.267
1496982.747
1498316.464
1499755.141
1501293.685
1502900.092
1504540.247
1506195.256
1507846.626
1509453.011
1511026.144
1512532.659
1513972.833
1515367.873
1516718.793
1518015.319
1519265.769
1520475.046
1521646.874
1522769.285
1523848.176
1524887.618
1525888.872
1526855.871
1527790.487
1528690.277
1529557.729
1530396.979
1531213.125
1532009.937
1532789.824
1533556.835
1534313.108
1535059.321
1535795.013
1536518.366
1537232.108
1537935.728
1538625.22
1539297.841
1539951.362
1540589.479
1541208.782
1541814.821
1542435.224
1543066.736
1493814.535
1492400.901
1493110.239
1493892.6
1494744.419
1495773.087
1496936.72
1498178.201
1499522.988
1500904.398
1502330.1
1503745.218
1505161.544
1506531.114
1507866.447
1509174.294
1510435.794
1511665.832
1512873.872
1514037.936
1515162.231
1516252.375
1517312.579
1518337.607
1519324.729
1520277.97
1521200.684
1522095.269
1522963.252
1523800.284
1524612.232
1525404.564
1526180.653
1526942.391
1527691.259
1528432.125
1529164.673
1529888.129
1530601.026
1531301.424
1531993.838
1532672.655
1533335.288
1533979.844
1534606.582
1535217.726
1535809.32
1536384.927
1536975.126
1537576.271
1492968.52
1491518.468
1492160.236
1492849.437
1493611.389
1494506.229
1495506.404
1496592.132
1497751.902
1498935.405
1500151.749
1501356.784
1502559.626
1503739.898
1504900.391
1506053.458
1507176.793
1508276.13
1509355.337
1510405.499
1511424.581
1512415.876
1513380.862
1514319.916
1515227.349
1516108.131
1516964.797
1517797.039
1518603.399
1519388.372
1520156.804
1520911.707
1521655.075
1522387.703
1523111.653
1523829.824
1524540.357
1525241.976
1525932.713
1526611.862
1527279.478
1527932.409
1528568.375
1529183.896
1529785.406
1530370.127
1530932.906
1531479.004
1532041.807
1532612.497
1492038.602
1490553.599
1491132.241
1491753.52
1492421.462
1493188.698
1494037.253
1494974.458
1495961.503
1496970.925
1498004.902
1499037.612
1500074.046
1501113.92
1502143.744
1503169.285
1504176.898
1505164.305
1506134.175
1507088.923
1508018.317
1508924.74
1509808.801
1510671.225
1511510.712
1512329.552
1513127.163
1513902.816
1514658.971
1515402.641
1516135.715
1516860.086
1517576.334
1518282.663
1518985.236
1519682.1
1520371.796
1521052.415
1521718.571
1522374.174
1523016.727
1523643.253
1524249.798
1524840.274
1525416.409
1525973.165
1526506.487
1527027.345
1527561.788
1528100.662
1491028.265
1489517.683
1490049.342
1490605.16
1491176.027
1491825.796
1492545.553
1493338.47
1494170.526
1495037.141
1495926.278
1496831.212
1497744.86
1498670.165
1499589.919
1500505.528
1501412.265
1502305.966
1503187.467
1504056.015
1504905.733
1505737.564
1506552.125
1507349.005
1508129.391
1508891.465
1509636.242
1510366.245
1511081.646
1511790.999
1512494.913
1513193.348
1513884.525
1514568.186
1515249.731
1515926.186
1516594.782
1517249.903
1517892.013
1518523.317
1519139.907
1519737.369
1520316.897
1520883.488
1521432.33
1521959.675
1522466.997
1522963.036
1523468.537
1523975.747
1500481.55
1501273.858
1502053.704
1502821.52
1503576.652
1504315.674
1505040.905
1505753.31
1506454.851
1507144.838
1507828.304
1508510.119
1509189.243
1509863.635
1510529.919
1511194.05
1511855.91
1512511.577
1513154.86
1513783.115
1514402.631
1515008.802
1515597.069
1516166.632
1516722.594
1517262.379
1517782.477
1518282.784
1518766.481
1519236.259
1519711.915
1520192.256
)
;

boundaryField
{
    front_top
    {
        type            wedge;
    }
    front_middle
    {
        type            wedge;
    }
    front_bottom
    {
        type            wedge;
    }
    back_top
    {
        type            wedge;
    }
    back_middle
    {
        type            wedge;
    }
    back_bottom
    {
        type            wedge;
    }
    axis_top
    {
        type            symmetryPlane;
    }
    axis_middle
    {
        type            symmetryPlane;
    }
    axis_bottom
    {
        type            symmetryPlane;
    }
    wall_top
    {
        type            fixedFluxPressure;
        gradient        uniform 0;
        value           nonuniform List<scalar> 
23
(
1796132.389
1772706.987
1749819.842
1728095.795
1707324.392
1687510.118
1668822.236
1651159.162
1634778.538
1619602.503
1605822.369
1593368.402
1582282.743
1572434.459
1563736.169
1556025.421
1549182.979
1543066.736
1537576.271
1532612.497
1528100.662
1523975.747
1520192.256
)
;
    }
    wall_middle
    {
        type            fixedFluxPressure;
        gradient        nonuniform 0();
        value           nonuniform 0();
    }
    wall_bottom
    {
        type            fixedFluxPressure;
        gradient        nonuniform 0();
        value           nonuniform 0();
    }
    inlet
    {
        type            zeroGradient;
    }
    outlet
    {
        type            fixedValue;
        value           nonuniform 0();
    }
    procBoundary10to9
    {
        type            processor;
        value           nonuniform List<scalar> 
51
(
1489932.81
1488416.94
1488907.35
1489392.279
1489872.809
1490418.868
1491029.651
1491704.548
1492418.645
1493173.503
1493952.321
1494756.374
1495570.854
1496396.022
1497219.744
1498042.476
1498863.832
1499677.272
1499677.272
1497989.956
1498715.729
1499435.617
1500148.306
1500849.502
1501534.155
1502212.277
1502884.671
1503549.696
1504204.748
1504862.843
1505521.162
1506176.975
1506826.802
1507471.802
1508117.748
1508759.495
1509390.411
1510005.512
1510611.387
1511206.237
1511784.787
1512344.231
1512889.485
1513420.038
1513932.065
1514424.616
1514901.324
1515359.846
1515801.367
1516251.392
1516707.244
)
;
    }
    procBoundary10to11
    {
        type            processor;
        value           nonuniform List<scalar> 
51
(
1516486.66
1526123.487
1524341.773
1523053.343
1522244.566
1521279.338
1520023.381
1518508.315
1516719.082
1513840.781
1508463.76
1509298.959
1552606.845
1624086.516
1699919.375
1774775.408
1835932.108
1839403.885
1821155.313
1801071.237
1781129.353
1760989.241
1741137.513
1722120.815
1705121.404
1694451.763
1695343.347
1706526.338
1721479.133
1736050.349
1749404.374
1761399.109
1771822.097
1780584.806
1769260.729
1769260.729
1774742.628
1779837.551
1784569.399
1788946.764
1792979.881
1796686.762
1800088.608
1803219.882
1806123.457
1808840.071
1811395.078
1813799.098
1816089.891
1818397.263
1820718.479
)
;
    }
}


// ************************************************************************* //
