/*--------------------------------*- C++ -*----------------------------------*\
  =========                 |
  \\      /  F ield         | OpenFOAM: The Open Source CFD Toolbox
   \\    /   O peration     | Website:  https://openfoam.org
    \\  /    A nd           | Version:  7
     \\/     M anipulation  |
\*---------------------------------------------------------------------------*/
FoamFile
{
    version     2.0;
    format      ascii;
    class       volVectorField;
    location    "0.003";
    object      U;
}
// * * * * * * * * * * * * * * * * * * * * * * * * * * * * * * * * * * * * * //

dimensions      [0 1 -1 0 0 0 0];

internalField   nonuniform List<vector> 
1166
(
(-3.140393705e-08 3.901231984e-20 -0.002071077891)
(-8.244328359e-08 4.741553813e-20 -0.002071074195)
(-1.31446211e-07 4.076538639e-20 -0.002071066387)
(-1.827437113e-07 -7.041882432e-20 -0.002071054882)
(-2.351673463e-07 -8.85400534e-20 -0.002071039839)
(-2.886037101e-07 -1.169382793e-19 -0.002071021436)
(-3.436776995e-07 -1.547900655e-19 -0.002071001187)
(-4.025710858e-07 -2.044947467e-19 -0.002070981883)
(-4.661969005e-07 -1.547173116e-19 -0.002070966474)
(-5.192828058e-07 -1.264887694e-19 -0.002070957951)
(-5.383222716e-07 -8.290675295e-20 -0.002070959353)
(-5.146926326e-07 -5.125929075e-20 -0.002070974335)
(-4.495183527e-07 -3.225059292e-21 -0.002071006676)
(-3.426690742e-07 3.803707827e-20 -0.002071054431)
(-2.006328477e-07 9.602838182e-20 -0.00207111062)
(-5.529818429e-08 1.487702139e-19 -0.002071165804)
(6.84530925e-08 1.787237874e-19 -0.002071211182)
(1.712780809e-07 2.068252534e-19 -0.002071241648)
(2.559582462e-07 2.163331969e-19 -0.002071257964)
(3.240130738e-07 2.10414597e-19 -0.00207126229)
(3.767153738e-07 2.06171697e-19 -0.002071256477)
(4.155547229e-07 2.033290469e-19 -0.002071241959)
(4.423706268e-07 2.017706894e-19 -0.002071220108)
(4.600828584e-07 2.017976201e-19 -0.002071193366)
(4.712277277e-07 2.026033744e-19 -0.002071165475)
(4.763815677e-07 2.037383747e-19 -0.002071140055)
(4.769698338e-07 2.050015681e-19 -0.002071120288)
(4.755291703e-07 2.063860236e-19 -0.002071107722)
(4.732487335e-07 2.07879581e-19 -0.002071102106)
(4.704844006e-07 2.095758138e-19 -0.002071102793)
(4.671938736e-07 2.113405957e-19 -0.002071109164)
(4.62923782e-07 2.130724699e-19 -0.002071120597)
(4.56954932e-07 2.147183363e-19 -0.002071136431)
(4.486165423e-07 2.163008398e-19 -0.002071155991)
(-3.564956581e-08 4.635720681e-20 -0.002073242278)
(-9.341761785e-08 6.901816367e-20 -0.002073241908)
(-1.492990225e-07 7.489203776e-20 -0.002073241583)
(-2.100969146e-07 7.615495217e-20 -0.002073242429)
(-2.752186994e-07 7.468314773e-20 -0.00207324591)
(-3.353362357e-07 7.346973231e-20 -0.002073253846)
(-3.742149122e-07 7.3026455e-20 -0.002073268281)
(-3.83819692e-07 7.352769031e-20 -0.002073291665)
(-3.635370914e-07 7.317757955e-20 -0.002073327265)
(-3.123367818e-07 7.334876117e-20 -0.002073378562)
(-2.271484747e-07 7.199765397e-20 -0.002073444284)
(-1.064820836e-07 6.950623475e-20 -0.002073518528)
(3.052383448e-08 6.439520565e-20 -0.002073593322)
(1.566253378e-07 8.282297169e-20 -0.002073660203)
(2.63722905e-07 9.683380111e-20 -0.002073712557)
(3.538079483e-07 1.075616729e-19 -0.002073747506)
(4.283998941e-07 1.153976459e-19 -0.002073767167)
(4.883467643e-07 1.209287835e-19 -0.00207377405)
(5.345528609e-07 1.250920763e-19 -0.002073770151)
(5.681853551e-07 1.280895545e-19 -0.002073757009)
(5.906757886e-07 1.296099756e-19 -0.002073736035)
(6.04391511e-07 1.298654193e-19 -0.002073709561)
(6.118807169e-07 1.290940793e-19 -0.002073681361)
(6.137412212e-07 1.402189314e-19 -0.002073655265)
(6.108610873e-07 1.5033377e-19 -0.002073634735)
(6.056771228e-07 1.593034316e-19 -0.002073621912)
(5.996476257e-07 1.670602069e-19 -0.002073616824)
(5.932527168e-07 1.735568789e-19 -0.002073618806)
(5.865711634e-07 1.788146006e-19 -0.002073627201)
(5.792758632e-07 1.915617771e-19 -0.002073641372)
(5.707130457e-07 2.035107904e-19 -0.002073660647)
(5.601649374e-07 2.147774643e-19 -0.002073684323)
(5.471325016e-07 2.215395972e-19 -0.002073711708)
(5.314571639e-07 2.277173712e-19 -0.002073742154)
(5.132457135e-07 2.334332444e-19 -0.002073775056)
(4.926999086e-07 2.388070083e-19 -0.002073809838)
(4.700010262e-07 2.441797381e-19 -0.002073845929)
(4.452842863e-07 2.452650474e-19 -0.00207388276)
(4.186471398e-07 2.457196335e-19 -0.002073919763)
(3.901546049e-07 2.492688155e-19 -0.002073956378)
(3.598500778e-07 2.525157048e-19 -0.00207399205)
(3.277840467e-07 2.587281811e-19 -0.002074026244)
(2.940398713e-07 2.647724309e-19 -0.002074058442)
(2.587381982e-07 2.704197767e-19 -0.002074088147)
(2.220180333e-07 2.759641745e-19 -0.002074114888)
(1.84010961e-07 2.787638527e-19 -0.002074138213)
(1.4482304e-07 2.846753291e-19 -0.002074157692)
(1.045673687e-07 2.914408921e-19 -0.002074172912)
(6.355614885e-08 2.959350684e-19 -0.002074183475)
(2.245770261e-08 2.983916351e-19 -0.002074188999)
(-2.851976803e-08 7.10680215e-20 -0.002075562445)
(-7.258322697e-08 1.397591095e-19 -0.002075571566)
(-1.064595937e-07 1.989062787e-19 -0.002075590089)
(-1.297710214e-07 2.665138397e-19 -0.00207561912)
(-1.371114105e-07 2.513350751e-19 -0.002075660474)
(-1.246206498e-07 2.600562384e-19 -0.00207571624)
(-8.856714683e-08 2.860696134e-19 -0.0020757855)
(-2.428538071e-08 3.297670583e-19 -0.002075864205)
(7.117371809e-08 3.040592562e-19 -0.002075947666)
(1.843305018e-07 3.00973024e-19 -0.002076030224)
(2.924089489e-07 2.78393929e-19 -0.002076105479)
(3.870112818e-07 2.693417283e-19 -0.002076167614)
(4.697129061e-07 2.435619836e-19 -0.002076212776)
(5.412443497e-07 2.258710888e-19 -0.002076241427)
(6.013574299e-07 1.927686888e-19 -0.002076255978)
(6.499612491e-07 1.653912353e-19 -0.002076258634)
(6.873751546e-07 1.418945949e-19 -0.002076251176)
(7.142530995e-07 1.212875645e-19 -0.002076234992)
(7.314758288e-07 1.194975719e-19 -0.002076211364)
(7.408097534e-07 1.335066375e-19 -0.00207618244)
(7.445618414e-07 1.46594574e-19 -0.002076151831)
(7.432692609e-07 1.588905691e-19 -0.002076123337)
(7.373554432e-07 1.706646562e-19 -0.002076100491)
(7.289685462e-07 1.821274673e-19 -0.002076085857)
(7.197493809e-07 1.931537465e-19 -0.002076079794)
(7.103014482e-07 2.036549111e-19 -0.002076081635)
(7.008087644e-07 2.135791489e-19 -0.00207609067)
(6.910645755e-07 2.229375676e-19 -0.002076106234)
(6.80492071e-07 2.316709548e-19 -0.002076127645)
(6.683398904e-07 2.395247752e-19 -0.002076154184)
(6.539744222e-07 2.469358523e-19 -0.002076185128)
(6.370896435e-07 2.540083909e-19 -0.002076219787)
(6.177127741e-07 2.610211578e-19 -0.002076257519)
(5.960339451e-07 2.676207263e-19 -0.002076297719)
(5.722437741e-07 2.73655616e-19 -0.002076339796)
(5.46484304e-07 2.788960949e-19 -0.002076383162)
(5.188561467e-07 2.912785685e-19 -0.002076427228)
(4.894283149e-07 2.992297326e-19 -0.002076471412)
(4.582420913e-07 3.030185533e-19 -0.002076515135)
(4.253302342e-07 3.065015371e-19 -0.002076557835)
(3.907477133e-07 3.098189076e-19 -0.002076598964)
(3.54587333e-07 3.130314164e-19 -0.002076637998)
(3.169716344e-07 3.161939503e-19 -0.002076674434)
(2.780308818e-07 3.162417108e-19 -0.002076707797)
(2.37888447e-07 3.162111332e-19 -0.002076737628)
(1.966549398e-07 3.16125979e-19 -0.002076763492)
(1.544163952e-07 3.187156934e-19 -0.002076784974)
(1.11265995e-07 3.189019207e-19 -0.002076801673)
(6.749504795e-08 3.189778405e-19 -0.002076813205)
(2.37504175e-08 3.189374897e-19 -0.002076819198)
(1.323383768e-08 1.328556779e-20 -0.002078351042)
(3.653424647e-08 -2.401418649e-20 -0.002078365254)
(6.750909433e-08 -8.022754806e-20 -0.002078392335)
(1.143972103e-07 -2.2232015e-20 -0.002078430526)
(1.814136256e-07 1.295912025e-21 -0.00207847736)
(2.628121988e-07 7.758663317e-20 -0.002078529432)
(3.451596485e-07 1.268381e-19 -0.002078582625)
(4.225003804e-07 1.58001823e-19 -0.002078632467)
(4.957387997e-07 1.266457765e-19 -0.00207867447)
(5.649780437e-07 1.322704096e-19 -0.002078704829)
(6.289177985e-07 1.6646541e-19 -0.002078722877)
(6.861165886e-07 1.912691576e-19 -0.002078730007)
(7.354117254e-07 2.095420917e-19 -0.002078727567)
(7.759383531e-07 1.992992998e-19 -0.002078716648)
(8.074824473e-07 1.881045554e-19 -0.002078698244)
(8.303227031e-07 1.761025509e-19 -0.002078673205)
(8.449319467e-07 1.629147134e-19 -0.002078642431)
(8.525279429e-07 1.482365085e-19 -0.002078607768)
(8.549780561e-07 1.491056213e-19 -0.002078572437)
(8.52719412e-07 1.623287597e-19 -0.002078539856)
(8.459078432e-07 1.869259612e-19 -0.002078513322)
(8.363916069e-07 2.092133157e-19 -0.002078495566)
(8.25852164e-07 2.294994249e-19 -0.002078487248)
(8.149722648e-07 2.481327059e-19 -0.002078487731)
(8.040571083e-07 2.654684846e-19 -0.002078496241)
(7.930551198e-07 2.818755185e-19 -0.002078512075)
(7.815193196e-07 2.977476444e-19 -0.002078534531)
(7.687455215e-07 3.132347475e-19 -0.002078562875)
(7.540414918e-07 3.187319514e-19 -0.002078596355)
(7.369710323e-07 3.124565715e-19 -0.002078634244)
(7.174310531e-07 3.052559739e-19 -0.002078675864)
(6.955491087e-07 3.014047756e-19 -0.002078720585)
(6.715176046e-07 3.100838397e-19 -0.002078767798)
(6.454994968e-07 3.183395312e-19 -0.0020788169)
(6.176128133e-07 3.261855544e-19 -0.00207886729)
(5.879394193e-07 3.336376511e-19 -0.002078918365)
(5.565278092e-07 3.407900837e-19 -0.002078969531)
(5.234037276e-07 3.475481252e-19 -0.002079020202)
(4.886003676e-07 3.471925936e-19 -0.002079069806)
(4.521853897e-07 3.463151796e-19 -0.002079117793)
(4.142653146e-07 3.481242917e-19 -0.002079163635)
(3.749653825e-07 3.495926937e-19 -0.002079206828)
(3.344078213e-07 3.507673284e-19 -0.002079246894)
(2.927059532e-07 3.51632643e-19 -0.002079283374)
(2.499656808e-07 3.521654127e-19 -0.00207931583)
(2.062811205e-07 3.522572432e-19 -0.002079343844)
(1.617201524e-07 3.486830354e-19 -0.002079367019)
(1.163581429e-07 3.472879736e-19 -0.002079384967)
(7.048075447e-08 3.430253313e-19 -0.002079397315)
(2.472537911e-08 3.408157315e-19 -0.002079403702)
(5.068389275e-08 7.767320193e-20 -0.002081107476)
(1.325264291e-07 1.570987833e-19 -0.002081113201)
(2.103174143e-07 2.240782872e-19 -0.002081122841)
(2.90765797e-07 2.88427099e-19 -0.002081134562)
(3.708689112e-07 3.582622861e-19 -0.00208114568)
(4.493500022e-07 3.511652874e-19 -0.002081153146)
(5.250682502e-07 3.598223948e-19 -0.002081155424)
(5.967427017e-07 3.779331589e-19 -0.002081152429)
(6.63128359e-07 3.540330212e-19 -0.002081144111)
(7.229222853e-07 3.378474319e-19 -0.002081130422)
(7.750883946e-07 3.264039973e-19 -0.002081111436)
(8.190356542e-07 3.189703584e-19 -0.002081087402)
(8.543185324e-07 3.139341604e-19 -0.002081058559)
(8.81083541e-07 2.814192345e-19 -0.002081025211)
(9.000028873e-07 2.774867886e-19 -0.002080988006)
(9.12102604e-07 2.967794484e-19 -0.002080948629)
(9.187783584e-07 3.143878624e-19 -0.002080909897)
(9.203632493e-07 3.310035677e-19 -0.002080874706)
(9.170435229e-07 3.464554328e-19 -0.002080846002)
(9.104425138e-07 3.609776149e-19 -0.002080826473)
(9.021658194e-07 3.7466576e-19 -0.002080816969)
(8.930171209e-07 3.883492333e-19 -0.002080816926)
(8.834457604e-07 4.022685959e-19 -0.002080825545)
(8.735759303e-07 4.036038092e-19 -0.002080842113)
(8.631389566e-07 4.048505363e-19 -0.002080865929)
(8.515533638e-07 4.058460091e-19 -0.002080896264)
(8.381408836e-07 4.177269441e-19 -0.00208093236)
(8.223837853e-07 4.188752129e-19 -0.002080973466)
(8.040744843e-07 4.19929914e-19 -0.002081018881)
(7.832875251e-07 4.205323486e-19 -0.002081067952)
(7.602238175e-07 4.159802946e-19 -0.002081120063)
(7.35074935e-07 4.106678621e-19 -0.002081174607)
(7.079842154e-07 4.08511822e-19 -0.00208123098)
(6.7905374e-07 4.055050797e-19 -0.002081288578)
(6.483520182e-07 4.056633896e-19 -0.002081346799)
(6.1591685e-07 4.051319518e-19 -0.002081405047)
(5.817745524e-07 4.079551797e-19 -0.002081462737)
(5.459722291e-07 4.038779799e-19 -0.0020815193)
(5.085954123e-07 4.03469687e-19 -0.002081574192)
(4.69760904e-07 4.025366587e-19 -0.002081626889)
(4.2959356e-07 4.04493747e-19 -0.002081676894)
(3.882099907e-07 4.057001355e-19 -0.002081723733)
(3.45718031e-07 4.091383546e-19 -0.00208176695)
(3.022162123e-07 4.118510462e-19 -0.002081806115)
(2.577928383e-07 4.139197774e-19 -0.002081840814)
(2.125227302e-07 4.154138074e-19 -0.002081870653)
(1.664589963e-07 4.16397674e-19 -0.002081895253)
(1.196673398e-07 4.169425483e-19 -0.002081914245)
(7.242533713e-08 4.174589632e-19 -0.00208192727)
(2.535726904e-08 4.176656316e-19 -0.002081933976)
(6.181627611e-08 1.047171568e-19 -0.002083454611)
(1.612583682e-07 2.305852958e-19 -0.002083452782)
(2.539562458e-07 3.44366003e-19 -0.002083448049)
(3.470606206e-07 3.526942804e-19 -0.002083440414)
(4.363073356e-07 3.879677577e-19 -0.002083429635)
(5.199512377e-07 3.757902276e-19 -0.002083415452)
(5.969599942e-07 3.856847404e-19 -0.002083397609)
(6.665000579e-07 4.110343527e-19 -0.002083375963)
(7.279570867e-07 4.426369445e-19 -0.002083350516)
(7.809489474e-07 4.478654089e-19 -0.002083321291)
(8.255141301e-07 4.321254189e-19 -0.002083288423)
(8.616635823e-07 4.286721352e-19 -0.002083252137)
(8.896497943e-07 4.34153311e-19 -0.002083213204)
(9.106664976e-07 4.474211797e-19 -0.002083173505)
(9.25803254e-07 4.656788073e-19 -0.00208313556)
(9.351176843e-07 4.882699626e-19 -0.002083101792)
(9.389069392e-07 5.159610373e-19 -0.002083074848)
(9.386745908e-07 5.496066788e-19 -0.002083057223)
(9.358949325e-07 5.675791953e-19 -0.00208304977)
(9.314387908e-07 5.70963048e-19 -0.002083051992)
(9.259084901e-07 5.601583677e-19 -0.002083063126)
(9.196193715e-07 5.532200443e-19 -0.002083082482)
(9.125002494e-07 5.49628553e-19 -0.002083109391)
(9.041187606e-07 5.497304662e-19 -0.002083143159)
(8.938585281e-07 5.532717439e-19 -0.002083183052)
(8.811751712e-07 5.483173793e-19 -0.002083228333)
(8.657867005e-07 5.463478628e-19 -0.002083278297)
(8.477136947e-07 5.371203212e-19 -0.002083332293)
(8.271560858e-07 5.43142392e-19 -0.002083389712)
(8.043367822e-07 5.466705921e-19 -0.002083449965)
(7.794351211e-07 5.527275829e-19 -0.002083512466)
(7.525840291e-07 5.556496631e-19 -0.002083576623)
(7.238793469e-07 5.499798326e-19 -0.002083641846)
(6.933801484e-07 5.416086806e-19 -0.002083707547)
(6.6111838e-07 5.341842151e-19 -0.002083773143)
(6.271292242e-07 5.278178412e-19 -0.002083838064)
(5.91479659e-07 5.223441897e-19 -0.002083901757)
(5.54274971e-07 5.181925889e-19 -0.002083963693)
(5.156399219e-07 5.227526949e-19 -0.002084023365)
(4.756963948e-07 5.285158193e-19 -0.002084080288)
(4.345554766e-07 5.315790889e-19 -0.002084134001)
(3.923192985e-07 5.294738006e-19 -0.002084184062)
(3.490818567e-07 5.281265612e-19 -0.00208423005)
(3.049278548e-07 5.246080856e-19 -0.002084271561)
(2.599342373e-07 5.217811746e-19 -0.00208430821)
(2.141693394e-07 5.195289707e-19 -0.002084339626)
(1.676774835e-07 5.177861121e-19 -0.002084365452)
(1.205054087e-07 5.138212623e-19 -0.002084385337)
(7.29107447e-08 5.130433597e-19 -0.002084398934)
(2.550351227e-08 5.12670897e-19 -0.002084405901)
(6.302613163e-08 1.523737505e-20 -0.00208552234)
(1.641540508e-07 -2.089932327e-20 -0.002085518369)
(2.573874349e-07 -8.386132568e-20 -0.002085509742)
(3.496897736e-07 -2.915016641e-20 -0.002085496825)
(4.368360458e-07 -1.420179454e-20 -0.002085479776)
(5.17250892e-07 4.463551283e-20 -0.002085458765)
(5.9002281e-07 7.657158144e-20 -0.002085433987)
(6.549438005e-07 9.13036829e-20 -0.002085405598)
(7.117073901e-07 1.396951066e-19 -0.002085373881)
(7.60237721e-07 1.730958908e-19 -0.002085339417)
(8.008425416e-07 2.343896017e-19 -0.002085303492)
(8.340651786e-07 2.851676241e-19 -0.002085268052)
(8.606002328e-07 3.287753826e-19 -0.002085235281)
(8.805789491e-07 3.958982676e-19 -0.002085207278)
(8.944089009e-07 4.312438671e-19 -0.002085186448)
(9.034233416e-07 4.3645123e-19 -0.002085174904)
(9.089421844e-07 4.389881883e-19 -0.002085173274)
(9.118826917e-07 4.606244836e-19 -0.002085181088)
(9.129752232e-07 4.794692845e-19 -0.002085197651)
(9.127000746e-07 4.95122554e-19 -0.002085222328)
(9.111499349e-07 5.077404067e-19 -0.002085254512)
(9.080475648e-07 5.009339574e-19 -0.002085293561)
(9.029046202e-07 4.922222924e-19 -0.002085338793)
(8.95227508e-07 4.987561513e-19 -0.002085389504)
(8.847037791e-07 5.047527976e-19 -0.002085445014)
(8.712871586e-07 5.112687236e-19 -0.002085504693)
(8.551447923e-07 5.037414399e-19 -0.00208556796)
(8.365211732e-07 5.095413811e-19 -0.002085634261)
(8.156357064e-07 5.153620264e-19 -0.002085703047)
(7.926572741e-07 5.159972678e-19 -0.002085773763)
(7.67711363e-07 5.171563317e-19 -0.00208584585)
(7.408858963e-07 5.22923994e-19 -0.002085918745)
(7.122325835e-07 5.233467491e-19 -0.002085991889)
(6.817849926e-07 5.283061534e-19 -0.002086064726)
(6.495921428e-07 5.28595831e-19 -0.002086136715)
(6.157394755e-07 5.289737945e-19 -0.002086207333)
(5.803444344e-07 5.287938658e-19 -0.002086276078)
(5.43531202e-07 5.362474088e-19 -0.00208634247)
(5.054127829e-07 5.397200252e-19 -0.002086406051)
(4.6609322e-07 5.434996889e-19 -0.00208646638)
(4.256686987e-07 5.435210088e-19 -0.002086523038)
(3.842258286e-07 5.411499184e-19 -0.002086575622)
(3.418399591e-07 5.392001189e-19 -0.00208662375)
(2.985807941e-07 5.347428395e-19 -0.002086667051)
(2.545175564e-07 5.307457536e-19 -0.00208670517)
(2.097078065e-07 5.270809424e-19 -0.002086737763)
(1.641834584e-07 5.236378363e-19 -0.002086764491)
(1.179915056e-07 5.207555285e-19 -0.002086785021)
(7.138920708e-08 5.180296734e-19 -0.002086799021)
(2.49736228e-08 5.154275523e-19 -0.00208680616)
(5.88259692e-08 6.403600189e-20 -0.002087404826)
(1.531982307e-07 1.186425868e-19 -0.002087400158)
(2.40073098e-07 1.593117912e-19 -0.00208739042)
(3.257637206e-07 1.98562177e-19 -0.0020873761)
(4.061927234e-07 2.416852203e-19 -0.002087357564)
(4.801656492e-07 2.051577938e-19 -0.002087335249)
(5.469457102e-07 1.81812258e-19 -0.00208730991)
(6.062228865e-07 1.638935405e-19 -0.002087282728)
(6.580491532e-07 1.940783372e-19 -0.002087255247)
(7.025576277e-07 2.191220873e-19 -0.002087229264)
(7.397459314e-07 2.386254478e-19 -0.002087206525)
(7.698573475e-07 2.858505636e-19 -0.00208718904)
(7.936689644e-07 3.289503672e-19 -0.002087178984)
(8.121540382e-07 3.695089224e-19 -0.002087177824)
(8.264167169e-07 4.078274136e-19 -0.002087185807)
(8.374463517e-07 4.445838559e-19 -0.002087202488)
(8.460286735e-07 4.594326949e-19 -0.002087227294)
(8.527239555e-07 4.739469791e-19 -0.002087259693)
(8.577397683e-07 4.897530332e-19 -0.002087299167)
(8.609499277e-07 4.897285984e-19 -0.002087345163)
(8.620110053e-07 4.746294266e-19 -0.002087397074)
(8.60497996e-07 4.614201584e-19 -0.002087454259)
(8.560747351e-07 4.487492575e-19 -0.002087516092)
(8.486273967e-07 4.360266333e-19 -0.002087581988)
(8.382811124e-07 4.22278698e-19 -0.002087651411)
(8.252836482e-07 4.216258991e-19 -0.002087723859)
(8.098812738e-07 4.183623637e-19 -0.00208779884)
(7.922711495e-07 4.258208534e-19 -0.002087875854)
(7.725997991e-07 4.311459416e-19 -0.002087954394)
(7.509757544e-07 4.412789406e-19 -0.002088033942)
(7.274684311e-07 4.511174051e-19 -0.002088113981)
(7.021158701e-07 4.551825449e-19 -0.002088193989)
(6.749536587e-07 4.589342079e-19 -0.002088273452)
(6.460444655e-07 4.624960089e-19 -0.002088351867)
(6.154876003e-07 4.658056826e-19 -0.002088428752)
(5.834033235e-07 4.689273015e-19 -0.002088503643)
(5.499102852e-07 4.714781771e-19 -0.002088576096)
(5.151152877e-07 4.697878196e-19 -0.002088645684)
(4.791156844e-07 4.638120057e-19 -0.002088711997)
(4.420002277e-07 4.571483075e-19 -0.002088774646)
(4.038472088e-07 4.494726198e-19 -0.002088833257)
(3.647211928e-07 4.51635037e-19 -0.002088887469)
(3.246778718e-07 4.525447496e-19 -0.00208893694)
(2.837712438e-07 4.567431022e-19 -0.002088981335)
(2.420499249e-07 4.607142578e-19 -0.002089020329)
(1.995528537e-07 4.648567916e-19 -0.002089053603)
(1.563078133e-07 4.638091336e-19 -0.00208908084)
(1.123728082e-07 4.660680633e-19 -0.002089101725)
(6.801402614e-08 4.657456907e-19 -0.002089115937)
(2.382020297e-08 4.685365802e-19 -0.002089123156)
(5.198796617e-08 8.599632e-20 -0.002089159776)
(1.353545325e-07 1.825545456e-19 -0.002089155544)
(2.119920349e-07 2.722183724e-19 -0.002089147277)
(2.875136029e-07 2.441373387e-19 -0.002089135816)
(3.581543809e-07 2.433858142e-19 -0.00208912219)
(4.227221847e-07 2.590210559e-19 -0.002089107636)
(4.80740732e-07 2.821823221e-19 -0.002089093503)
(5.318238829e-07 3.104916537e-19 -0.002089081331)
(5.759559171e-07 3.427126352e-19 -0.002089072839)
(6.134291239e-07 3.786820815e-19 -0.002089069886)
(6.448657451e-07 3.734844102e-19 -0.00208907402)
(6.711097169e-07 3.730299978e-19 -0.002089085983)
(6.930113889e-07 3.775633842e-19 -0.002089105737)
(7.114823352e-07 3.867753835e-19 -0.002089132951)
(7.272858005e-07 4.008536556e-19 -0.002089167262)
(7.409666153e-07 4.194973601e-19 -0.0020892083)
(7.527759286e-07 4.204529475e-19 -0.002089255681)
(7.626801499e-07 3.958875957e-19 -0.002089308969)
(7.704481587e-07 3.729047572e-19 -0.002089367659)
(7.757143502e-07 3.519734468e-19 -0.002089431207)
(7.781188004e-07 3.327757789e-19 -0.002089499065)
(7.774976532e-07 3.354596174e-19 -0.002089570709)
(7.739378757e-07 3.379212772e-19 -0.002089645665)
(7.676626236e-07 3.394333449e-19 -0.002089723494)
(7.589128924e-07 3.39952329e-19 -0.002089803774)
(7.478927721e-07 3.3965134e-19 -0.002089886073)
(7.347612975e-07 3.385210981e-19 -0.002089969943)
(7.196385088e-07 3.429029566e-19 -0.00209005493)
(7.026087061e-07 3.467673087e-19 -0.002090140564)
(6.837185612e-07 3.508556858e-19 -0.002090226374)
(6.629909665e-07 3.606175122e-19 -0.002090311885)
(6.404562299e-07 3.649660436e-19 -0.002090396628)
(6.161806282e-07 3.743231612e-19 -0.00209048015)
(5.902688161e-07 3.789668178e-19 -0.002090562014)
(5.628372859e-07 3.837184516e-19 -0.0020906418)
(5.339931298e-07 3.885254463e-19 -0.002090719104)
(5.038314199e-07 3.887589326e-19 -0.002090793538)
(4.724401219e-07 3.894026463e-19 -0.002090864728)
(4.399001538e-07 3.900934821e-19 -0.002090932317)
(4.062793863e-07 3.906950219e-19 -0.002090995962)
(3.716352747e-07 3.912001985e-19 -0.002091055332)
(3.360220866e-07 3.913410043e-19 -0.002091110109)
(2.994888148e-07 3.875461569e-19 -0.002091159985)
(2.620710998e-07 3.903776916e-19 -0.002091204657)
(2.237984909e-07 3.930058893e-19 -0.00209124383)
(1.847061801e-07 3.954976975e-19 -0.002091277209)
(1.448262349e-07 3.979902333e-19 -0.0020913045)
(1.04214926e-07 4.004181692e-19 -0.002091325402)
(6.313174901e-08 4.032397683e-19 -0.002091339609)
(2.216126964e-08 4.05762809e-19 -0.002091346807)
(4.233840036e-08 -8.457096405e-20 -0.00209086014)
(1.102278532e-07 -6.017539556e-20 -0.002090858973)
(1.724074147e-07 -7.658280374e-20 -0.002090857744)
(2.33429282e-07 -8.569704938e-22 -0.002090857018)
(2.90267534e-07 3.90860251e-20 -0.002090857757)
(3.418679599e-07 1.524688331e-19 -0.002090861239)
(3.880015054e-07 2.456354797e-19 -0.002090868791)
(4.288462894e-07 3.299460208e-19 -0.002090881529)
(4.647031242e-07 3.642897305e-19 -0.002090900167)
(4.961289535e-07 3.589106992e-19 -0.002090924967)
(5.238091004e-07 3.56264668e-19 -0.002090955956)
(5.48416543e-07 3.125184911e-19 -0.002090993027)
(5.705590526e-07 2.705613175e-19 -0.002091036045)
(5.906600361e-07 2.277820583e-19 -0.002091084825)
(6.089257157e-07 2.085629916e-19 -0.002091139126)
(6.253407307e-07 1.844438338e-19 -0.002091198636)
(6.397397688e-07 1.832373408e-19 -0.002091262959)
(6.517914429e-07 1.757491968e-19 -0.002091331653)
(6.611500117e-07 1.623053235e-19 -0.002091404252)
(6.67640667e-07 1.655864644e-19 -0.002091480303)
(6.712817029e-07 1.848070238e-19 -0.002091559392)
(6.722336981e-07 2.001444674e-19 -0.002091641147)
(6.707121165e-07 2.121278787e-19 -0.002091725215)
(6.669048086e-07 2.211326256e-19 -0.002091811233)
(6.609602329e-07 2.277564978e-19 -0.002091898822)
(6.530089587e-07 2.327029e-19 -0.002091987585)
(6.431482903e-07 2.35828307e-19 -0.002092077113)
(6.3142906e-07 2.366901693e-19 -0.002092166983)
(6.178702161e-07 2.416983839e-19 -0.002092256767)
(6.024865719e-07 2.452469905e-19 -0.002092346034)
(5.85317184e-07 2.468548691e-19 -0.002092434363)
(5.66437874e-07 2.521508558e-19 -0.002092521347)
(5.45949568e-07 2.601204454e-19 -0.002092606594)
(5.239562215e-07 2.664339598e-19 -0.002092689731)
(5.005505785e-07 2.709282176e-19 -0.002092770396)
(4.758120309e-07 2.738156983e-19 -0.002092848239)
(4.498110915e-07 2.753753602e-19 -0.002092922925)
(4.226127428e-07 2.852302166e-19 -0.002092994135)
(3.942724967e-07 2.986825054e-19 -0.002093061558)
(3.648383218e-07 3.07407263e-19 -0.002093124895)
(3.343545311e-07 3.193502388e-19 -0.002093183857)
(3.028621232e-07 3.231481612e-19 -0.002093238163)
(2.703981747e-07 3.263928137e-19 -0.002093287536)
(2.369984218e-07 3.251442855e-19 -0.002093331703)
(2.027003243e-07 3.231947184e-19 -0.002093370393)
(1.675397629e-07 3.203002078e-19 -0.002093403333)
(1.315492939e-07 3.225818851e-19 -0.002093430248)
(9.478882582e-08 3.210896776e-19 -0.002093450853)
(5.750446016e-08 3.254920945e-19 -0.002093464853)
(2.025669824e-08 3.261242947e-19 -0.002093471938)
(3.085287678e-08 6.422753402e-20 -0.002092609996)
(8.038901351e-08 1.09238428e-19 -0.002092613042)
(1.25881413e-07 1.387492399e-19 -0.002092620827)
(1.706738343e-07 1.611133197e-19 -0.002092633103)
(2.127202179e-07 1.828414753e-19 -0.002092650012)
(2.515795357e-07 2.034202917e-19 -0.002092671832)
(2.873079638e-07 2.232047839e-19 -0.002092698805)
(3.200915958e-07 2.418097633e-19 -0.002092731061)
(3.502908433e-07 2.605827636e-19 -0.002092768646)
(3.782966171e-07 2.806024795e-19 -0.002092811571)
(4.044179213e-07 2.61757084e-19 -0.002092859766)
(4.289016203e-07 2.446176159e-19 -0.00209291312)
(4.518586299e-07 2.280979606e-19 -0.002092971445)
(4.732416046e-07 2.114721555e-19 -0.002093034484)
(4.928894715e-07 1.934336799e-19 -0.002093101906)
(5.104986655e-07 1.744751213e-19 -0.00209317333)
(5.257396596e-07 1.830888389e-19 -0.002093248351)
(5.384260745e-07 1.90803302e-19 -0.002093326565)
(5.485066266e-07 1.982717339e-19 -0.002093407609)
(5.560448326e-07 2.063693282e-19 -0.002093491162)
(5.612089828e-07 2.154318539e-19 -0.00209357692)
(5.641956528e-07 2.25557077e-19 -0.002093664578)
(5.651490917e-07 2.371131991e-19 -0.002093753811)
(5.641742698e-07 2.346251385e-19 -0.002093844275)
(5.613505865e-07 2.35015818e-19 -0.002093935613)
(5.567281744e-07 2.404516064e-19 -0.002094027455)
(5.503173978e-07 2.485042686e-19 -0.002094119417)
(5.421044741e-07 2.507184748e-19 -0.00209421111)
(5.320917433e-07 2.534652991e-19 -0.002094302148)
(5.203195616e-07 2.569670902e-19 -0.002094392154)
(5.068669324e-07 2.60631847e-19 -0.002094480766)
(4.918325399e-07 2.64459989e-19 -0.002094567637)
(4.753090043e-07 2.625234222e-19 -0.002094652432)
(4.573736397e-07 2.610257628e-19 -0.002094734826)
(4.380961389e-07 2.594152662e-19 -0.002094814508)
(4.17540795e-07 2.575893515e-19 -0.00209489118)
(3.957623889e-07 2.555273484e-19 -0.002094964554)
(3.728021474e-07 2.571881206e-19 -0.002095034354)
(3.486933744e-07 2.585630675e-19 -0.002095100315)
(3.234687843e-07 2.600575763e-19 -0.002095162178)
(2.971563056e-07 2.60732471e-19 -0.00209521969)
(2.697786918e-07 2.655083109e-19 -0.002095272602)
(2.413632501e-07 2.700030975e-19 -0.002095320666)
(2.11953168e-07 2.709931682e-19 -0.002095363635)
(1.816033558e-07 2.717734502e-19 -0.002095401259)
(1.503596527e-07 2.723819438e-19 -0.002095433284)
(1.182545938e-07 2.728478767e-19 -0.00209545945)
(8.534699703e-08 2.734384873e-19 -0.002095479485)
(5.186981116e-08 2.733851763e-19 -0.002095493102)
(1.835325687e-08 2.731546299e-19 -0.002095499999)
(2.133907418e-08 2.56823892e-19 -0.002094449608)
(5.569963003e-08 3.240673192e-19 -0.002094455133)
(8.764814524e-08 4.136719061e-19 -0.002094467787)
(1.197438433e-07 3.685383456e-19 -0.002094486789)
(1.507914681e-07 3.806520023e-19 -0.002094511827)
(1.805504033e-07 2.758160031e-19 -0.002094542732)
(2.090430812e-07 2.068508685e-19 -0.002094579339)
(2.36385667e-07 1.518650321e-19 -0.002094621486)
(2.6271282e-07 1.119653593e-19 -0.002094669008)
(2.880760836e-07 1.231824959e-19 -0.002094721698)
(3.124807824e-07 1.272468039e-19 -0.002094779313)
(3.358310085e-07 1.625672458e-19 -0.002094841564)
(3.57930728e-07 1.934926062e-19 -0.002094908108)
(3.785041099e-07 2.231972472e-19 -0.002094978572)
(3.972386971e-07 2.197592505e-19 -0.002095052568)
(4.139254272e-07 2.188884104e-19 -0.002095129708)
(4.284318982e-07 2.199239435e-19 -0.002095209655)
(4.407581994e-07 2.215881047e-19 -0.002095292106)
(4.510339586e-07 2.234942268e-19 -0.002095376782)
(4.593957337e-07 2.258065792e-19 -0.002095463407)
(4.659429972e-07 2.286099846e-19 -0.002095551699)
(4.707311438e-07 2.31965043e-19 -0.002095641356)
(4.737984993e-07 2.358519584e-19 -0.002095732058)
(4.751924826e-07 2.409105075e-19 -0.00209582347)
(4.749342566e-07 2.464697083e-19 -0.002095915245)
(4.730041019e-07 2.521175134e-19 -0.002096007026)
(4.693760636e-07 2.583913832e-19 -0.002096098452)
(4.640485913e-07 2.654866928e-19 -0.002096189173)
(4.570569485e-07 2.664091247e-19 -0.002096278854)
(4.48460965e-07 2.617054406e-19 -0.002096367171)
(4.383293646e-07 2.578360073e-19 -0.002096453819)
(4.267305039e-07 2.548052257e-19 -0.002096538498)
(4.137268671e-07 2.465087456e-19 -0.002096620921)
(3.993747736e-07 2.44303672e-19 -0.002096700809)
(3.837243846e-07 2.423402712e-19 -0.002096777897)
(3.668208439e-07 2.40366929e-19 -0.002096851929)
(3.487033559e-07 2.379925945e-19 -0.002096922658)
(3.294057989e-07 2.3414248e-19 -0.002096989845)
(3.089552915e-07 2.296723997e-19 -0.002097053261)
(2.873627077e-07 2.292155451e-19 -0.002097112678)
(2.646368003e-07 2.240790422e-19 -0.002097167876)
(2.408018278e-07 2.22674434e-19 -0.00209721863)
(2.15893281e-07 2.208130096e-19 -0.002097264719)
(1.899557926e-07 2.223381133e-19 -0.002097305917)
(1.63045987e-07 2.233624502e-19 -0.002097341994)
(1.352225964e-07 2.238337219e-19 -0.002097372711)
(1.065237702e-07 2.236803976e-19 -0.002097397819)
(7.700179542e-08 2.26162117e-19 -0.002097417058)
(4.687718923e-08 2.241549549e-19 -0.002097430146)
(1.666362852e-08 2.213539424e-19 -0.002097436786)
(1.565158482e-08 1.261724707e-19 -0.002096342072)
(4.094462702e-08 1.036762431e-20 -0.002096348649)
(6.48176384e-08 8.282219648e-20 -0.00209636321)
(8.930285198e-08 1.270246054e-19 -0.002096384865)
(1.136193991e-07 1.64033036e-19 -0.002096413162)