/*--------------------------------*- C++ -*----------------------------------*\
  =========                 |
  \\      /  F ield         | OpenFOAM: The Open Source CFD Toolbox
   \\    /   O peration     | Website:  https://openfoam.org
    \\  /    A nd           | Version:  7
     \\/     M anipulation  |
\*---------------------------------------------------------------------------*/
FoamFile
{
    version     2.0;
    format      ascii;
    class       volScalarField;
    location    "0.003";
    object      p;
}
// * * * * * * * * * * * * * * * * * * * * * * * * * * * * * * * * * * * * * //

dimensions      [1 -1 -2 0 0 0 0];

internalField   nonuniform List<scalar> 
1167
(
1434951.31
1441222.269
1431417.643
1437992.62
1436435.322
1436669.681
1437242.36
1437861.58
1438586.637
1439418.232
1440346.055
1441363.158
1442463.979
1443643.245
1444894.513
1446212.551
1447591.714
1449025.93
1450510.324
1452038.402
1453605.388
1455204.879
1456831.894
1458480.094
1460144.276
1461818.051
1463495.981
1465171.613
1466839.132
1468491.944
1470123.912
1471728.316
1473298.686
1474828.286
1476310.454
1477738.59
1479106.172
1480406.693
1481634.083
1482782.184
1483845.501
1484818.31
1485695.758
1486472.971
1487145.864
1487710.421
1488163.417
1488502.279
1488725.476
1488826.582
1488797.591
1488683.431
1427816.728
1434694.695
1433074.7
1433368.088
1434013.813
1434716.775
1435539.84
1436481.196
1437528.793
1438674.769
1439913.24
1441237.122
1442639.635
1444115.254
1445657.07
1447259.608
1448916.667
1450622.594
1452371.587
1454157.95
1455976.05
1457820.158
1459684.519
1461563.477
1463450.928
1465341.016
1467227.325
1469103.617
1470963.192
1472799.231
1474604.639
1476372.211
1478094.477
1479764.046
1481372.968
1482913.8
1484378.714
1485760.11
1487050.57
1488242.654
1489329.583
1490304.687
1491162.07
1491896.177
1492502.434
1492977.36
1493317.549
1493514.805
1493566.03
1493526.793
1424166.421
1431345.694
1429662.572
1430017.226
1430736.884
1431525.34
1432448.205
1433501.06
1434670.431
1435948.254
1437326.93
1438798.339
1440355.877
1441992.427
1443701.255
1445476.433
1447311.275
1449200.522
1451137.765
1453117.925
1455134.929
1457183.645
1459258.219
1461353.35
1463463.239
1465581.897
1467703.358
1469821.29
1471929.01
1474019.569
1476085.636
1478119.356
1480112.909
1482057.58
1483944.558
1485764.8
1487508.694
1489166.578
1490728.598
1492184.994
1493526.046
1494742.748
1495826.308
1496769.15
1497564.651
1498207.988
1498693.482
1499010.606
1499163.631
1499221.409
1420483.375
1427961.498
1426214.704
1426632.51
1427426.833
1428301.692
1429325.149
1430490.459
1431783.228
1433194.474
1434714.89
1436336.153
1438050.85
1439850.851
1441729.801
1443680.615
1445697.371
1447773.791
1449904.519
1452083.732
1454306.377
1456566.951
1458860.545
1461181.821
1463525.588
1465886.348
1468258.498
1470635.957
1473012.452
1475381.27
1477734.817
1480065.385
1482364.523
1484622.911
1486830.683
1488977.144
1491051.029
1493040.007
1494931.266
1496711.805
1498368.116
1499886.995
1501255.719
1502462.704
1503498.216
1504355.186
1505025.074
1505494.408
1505778.665
1505964.744
1416782.275
1424556.463
1422745.634
1423228.564
1424097.579
1425058.781
1426183.011
1427461.17
1428878.117
1430423.086
1432085.87
1433857.991
1435730.443
1437695.433
1439745.619
1441874.024
1444074.497
1446340.872
1448667.827
1451050.075
1453482.553
1455960.634
1458479.605
1461034.943
1463621.957
1466236.082
1468872.182
1471525.083
1474189.298
1476858.432
1479525.684
1482183.566
1484823.699
1487436.855
1490012.388
1492538.442
1495002.07
1497388.71
1499682.191
1501865.152
1503919.032
1505824.531
1507562.527
1509115.121
1510467.503
1511608.013
1512521.99
1513191.064
1513647.699
1514004.147
1413078.269
1421145.332
1419269.478
1419818.572
1420760.64
1421806.816
1423030.382
1424420.339
1425959.825
1427636.776
1429440.881
1431362.267
1433391.287
1435520.203
1437740.649
1440046.189
1442429.944
1444886.465
1447410.115
1449996.32
1452640.476
1455338.391
1458086.174
1460880.014
1463716.268
1466591.039
1469500.51
1472440.685
1475407.042
1478394.445
1481397.361
1484409.331
1487422.874
1490429.486
1493419.079
1496379.723
1499297.564
1502156.529
1504937.865
1507620.151
1510179.535
1512590.27
1514825.095
1516856.16
1518656.824
1520202.075
1521462.499
1522411.171
1523110.395
1523717.352
1409385.515
1417739.431
1415795.378
1416410.701
1417423.238
1418551.929
1419872.683
1421371.938
1423031.198
1424837.788
1426780.836
1428849.011
1431032.889
1433323.366
1435712.557
1438193.099
1440758.788
1443403.519
1446122.43
1448910.893
1451765.042
1454681.297
1457656.519
1460687.827
1463772.472
1466907.985
1470091.955
1473321.72
1476594.4
1479906.93
1483255.656
1486636.199
1490043.28
1493470.388
1496909.636
1500351.076
1503782.277
1507187.845
1510548.588
1513841.128
1517037.324
1520103.447
1522999.292
1525679.017
1528095.7
1530206.655
1531968.632
1533347.535
1534432.853
1535420.052
1405698.543
1414335.391
1412322.259
1413008.515
1414093.69
1415308.335
1416730.469
1418343.062
1420126.605
1422068.112
1424154.855
1426375.128
1428718.752
1431175.807
1433738.165
1436397.942
1439148.772
1441984.762
1444900.757
1447892.68
1450956.841
1454090.427
1457290.788
1460555.91
1463884.239
1467274.526
1470725.631
1474236.541
1477806.307
1481434.034
1485118.509
1488858.187
1492651.002
1496493.855
1500382.541
1504311.206
1508271.427
1512251.713
1516236.382
1520204.46
1524128.424
1527973.246
1531696.148
1535249.438
1538585.377
1541649.217
1544347.205
1546562.743
1548346.949
1549844.143
1402036.687
1410959.444
1408876.508
1409641.513
1410801.234
1412103.885
1413628.526
1415354.388
1417261.179
1419334.491
1421560.061
1423925.877
1426420.193
1429033.38
1431756.111
1434581.043
1437501.333
1440511.609
1443607.153
1446784.279
1450040.178
1453372.626
1456780.169
1460262.039
1463817.992
1467448.176
1471153.239
1474934.274
1478792.759
1482730.478
1486749.438
1490852.161
1495041.362
1499319.656
1503689.698
1508153.604
1512712.741
1517366.781
1522112.819
1526943.881
1531846.938
1536800.368
1541770.458
1546705.371
1551522.707
1556076.591
1560117.229
1563424.601
1566309.412
1569305.399
1398536.814
1407732.766
1405529.599
1406360.571
1407561.125
1408910.425
1410489.692
1412274.174
1414243.038
1416380.108
1418670.844
1421101.854
1423661.038
1426337.84
1429123.1
1432008.543
1434987.647
1438054.69
1441205.083
1444435.284
1447742.494
1451124.7
1454580.791
1458110.085
1461712.454
1465388.281
1469138.479
1472964.453
1476868.082
1480851.539
1484917.861
1489070.573
1493314.038
1497653.505
1502095.211
1506646.366
1511315.557
1516112.565
1521048.215
1526134.051
1531381.752
1536801.625
1542400.205
1548176.686
1554117.97
1560188.339
1566349.157
1572819.438
1580506.415
1588914.463
1395051.862
1404610.794
1402268.531
1403197.912
1404470.887
1405908.93
1407597.867
1409510.702
1411626.353
1413928.935
1416404.496
1419038.969
1421820.863
1424738.729
1427783.613
1430946.856
1434221.127
1437600.504
1441079.771
1444654.611
1448321.638
1452078.202
1455922.318
1459852.619
1463868.265
1467968.927
1472154.758
1476426.48
1480785.302
1485232.847
1489771.829
1494405.447
1499138.032
1503975.297
1508924.767
1513996.474
1519203.323
1524562.476
1530096.738
1535836.122
1541819.843
1548098.8
1554737.663
1561816.765
1569429.683
1577677.698
1586725.75
1597067.236
1609519.781
1622579.922
1391597.017
1401375.157
1398973.204
1399904.651
1401179.955
1402616.853
1404302.875
1406210.203
1408316.174
1410604.766
1413060.607
1415669.286
1418418.093
1421295.49
1424290.887
1427395.591
1430601.409
1433901.263
1437289.491
1440760.846
1444310.954
1447936.11
1451633.2
1455399.492
1459232.758
1463131.064
1467092.628
1471115.938
1475199.799
1479343.215
1483545.308
1487805.411
1492123.21
1496498.638
1500932.006
1505424.164
1509976.426
1514591.068
1519271.885
1524025.187
1528861.499
1533798.878
1538867.746
1544118.034
1549626.219
1555506.969
1561967.886
1569410.781
1578120.826
1586618.01
1388309.042
1398214.81
1395798.062
1396737.568
1398040.144
1399507.283
1401227.739
1403172.892
1405319.37
1407650.87
1410150.664
1412804.429
1415598.122
1418520.181
1421559.265
1424705.787
1427951.484
1431288.762
1434711.049
1438212.672
1441788.837
1445435.277
1449148.201
1452924.19
1456760.384
1460654.168
1464603.204
1468605.059
1472657.834
1476759.791
1480909.411
1485105.286
1489346.62
1493633.389
1497966.036
1502346.13
1506776.827
1511263.063
1515812.033
1520433.593
1525140.582
1529948.511
1534874.899
1539938.05
1545155.952
1550539.228
1556052.006
1561533.779
1566694.878
1571213.219
1385012.761
1395027.386
1392606.385
1393546.263
1394869.798
1396359.493
1398105.271
1400078.622
1402256.044
1404620.283
1407154.266
1409842.981
1412672.031
1415628.561
1418701.219
1421879.279
1425153.472
1428515.665
1431958.316
1435474.814
1439059.236
1442706.298
1446411.139
1450169.396
1453976.905
1457829.731
1461724.451
1465657.685
1469626.142
1473627.01
1477657.629
1481715.649
1485799.293
1489907.555
1494040.225
1498198.365
1502384.709
1506604.101
1510864.169
1515175.734
1519553.446
1524015.085
1528579.648
1533262.403
1538065.924
1542959.45
1547827.515
1552410.339
1556375.153
1559562.493
1381689.286
1391794.643
1389374.291
1390306.793
1391643.826
1393147.177
1394907.28
1396896.551
1399091.294
1401473.034
1404025.094
1406731.075
1409576.82
1412548.348
1415633.713
1418821.923
1422102.811
1425467.285
1428907.228
1432415.382
1435985.041
1439610.029
1443284.757
1447004.237
1450763.651
1454558.489
1458384.493
1462238.172
1466115.77
1470014.291
1473930.936
1477863.647
1481810.785
1485771.538
1489746.117
1493735.963
1497743.979
1501774.935
1505835.668
1509935.277
1514084.691
1518295.208
1522574.291
1526917.675
1531296.466
1535637.219
1539796.572
1543566.196
1546770.132
1549357.024
1378347.125
1388529.185
1386113.223
1387034.412
1388381.28
1389893.661
1391662.708
1393662.127
1395867.269
1398259.232
1400821.095
1403535.878
1406388.688
1409365.608
1412453.482
1415640.914
1418917.261
1422272.795
1425698.732
1429187.091
1432730.615
1436322.627
1439957.056
1443628.15
1447330.809
1451060.447
1454812.407
1458582.972
1462368.489
1466165.918
1469972.674
1473786.904
1477607.267
1481433.213
1485265.341
1489105.396
1492956.636
1496824.027
1500714.225
1504635.572
1508596.545
1512602.771
1516650.266
1520715.455
1524743.542
1528637.677
1532256.177
1535448.502
1538153.604
1540390.196
1374977.109
1385226.344
1382817.217
1383723.966
1385076.551
1386593.046
1388365.488
1390368.891
1392577.339
1394972.353
1397535.755
1400251.074
1403102.171
1406075.012
1409156.227
1412333.502
1415595.629
1418932.562
1422335.052
1425794.612
1429303.435
1432854.558
1436441.624
1440058.73
1443700.393
1447361.93
1451039.033
1454727.825
1458424.893
1462127.397
1465833.111
1469540.357
1473248.07
1476956.022
1480664.967
1484376.758
1488094.543
1491822.749
1495567.302
1499334.591
1503129.423
1506950.276
1510781.621
1514584.494
1518290.577
1521802.078
1525000.868
1527790.095
1530178.099
1532207.109
1371571.272
1381878.653
1379477.988
1380367.087
1381720.959
1383236.588
1385006.955
1387007.737
1389212.578
1391602.977
1394160.136
1396867.398
1399708.589
1402668.626
1405734.209
1408892.634
1412132.336
1415442.751
1418814.289
1422238.199
1425706.481
1429211.943
1432747.877
1436308.542
1439888.585
1443483.058
1447088.045
1450699.701
1454314.845
1457930.897
1461545.854
1465158.149
1468766.896
1472372.067
1475974.413
1479575.743
1483178.894
1486787.84
1490407.338
1494041.329
1497690.203
1501344.712
1504978.421
1508541.645
1511962.179
1515152.592
1518022.786
1520518.12
1522688.357
1524579.682
1368122.77
1378479.283
1376088.164
1376956.497
1378307.712
1379818.141
1381581.299
1383573.476
1385768.699
1388147.478
1390691.698
1393383.598
1396207.355
1399147.727
1402190.634
1405323.308
1408534.095
1411812.144
1415147.637
1418531.566
1421955.9
1425413.395
1428897.421
1432401.911
1435921.89
1439452.531
1442989.926
1446530.39
1450071.006
1453609.347
1457143.491
1460671.951
1464193.977
1467709.522
1471219.302
1474724.953
1478228.893
1481734.453
1485244.824
1488761.199
1492278.973
1495781.48
1499233.623
1502580.288
1505752.54
1508677.922
1511291.503
1513568.383
1515581.691
1517373.584
1364623.021
1375019.905
1372639.138
1373484.123
1374829.098
1376330.629
1378081.735
1380060.237
1382240.256
1384601.723
1387126.829
1389797.682
1392597.905
1395512.563
1398527.445
1401629.519
1404806.879
1408048.661
1411344.977
1414686.762
1418065.957
1421475.113
1424907.889
1428358.361
1431821.286
1435292.311
1438767.439
1442243.094
1445716.56
1449185.488
1452647.941
1456102.539
1459548.57
1462985.895
1466415.158
1469837.698
1473255.5
1476670.907
1480085.347
1483496.886
1486895.767
1490258.665
1493544.55
1496697.464
1499655.963
1502363.304
1504774.866
1506885.873
1508781.935
1510498.044
1361062.123
1371491.109
1369121.643
1369941.032
1371276.789
1372765.839
1374500.688
1376461.337
1378621.186
1380960.814
1383461.68
1386106.606
1388879.006
1391763.563
1394746.349
1397814.322
1400955.471
1404158.908
1407414.671
1410713.685
1414048
1417410.259
1420793.818
1424193.165
1427603.016
1431019.121
1434437.429
1437854.622
1441267.973
1444675.155
1448074.228
1451463.883
1454843.357
1458212.45
1461571.648
1464921.953
1468264.793
1471601.314
1474930.951
1478248.422
1481539.015
1484773.932
1487908.955
1490890.535
1493666.647
1496194.791
1498445.846
1500428.369
1502234.197
1503890.355
1357429.878
1367883.144
1365525.89
1366317.906
1367641.859
1369115.229
1370830.545
1372769.692
1374905.629
1377219.516
1379692.667
1382307.89
1385049.065
1387900.89
1390849.245
1393881.175
1396984.761
1400149.151
1403364.376
1406621.479
1409912.266
1413229.633
1416567.077
1419918.758
1423279.824
1426645.798
1430012.703
1433377.433
1436737.188
1440089.594
1443432.786
1446765.471
1450086.793
1453396.489
1456694.799
1459982.381
1463259.957
1466527.352
1469781.797
1473014.58
1476206.498
1479324.675
1482324.111
1485155.729
1487777.179
1490157.996
1492280.541
1494162.066
1495897.052
1497504.72
1353715.562
1364185.815
1361841.789
1362605.075
1363914.757
1365370.036
1367063.515
1368978.182
1371087.719
1373372.88
1375815.925
1378399.345
1381107.212
1383924.592
1386837.429
1389832.806
1392898.871
1396024.773
1399200.545
1402417.368
1405667.052
1408942.31
1412236.81
1415544.781
1418861.32
1422181.848
1425502.633
1428820.476
1432132.598
1435436.611
1438730.708
1442013.562
1445284.268
1448542.454
1451788.077
1455021.367
1458242.229
1461449.076
1464636.805
1467793.326
1470895.657
1473908.222
1476786.968
1479488.489
1481979.447
1484239.101
1486258.13
1488059.495
1489738.285
1491306.374
1450039.553
1453211.337
1456365.33
1459493.997
1462582.084
1465603.512
1468521.417
1471293.873
1473883.454
1476264.819
1478424.881
1480360.334
1482097.84
1483731.973
1485267.823
)
;

boundaryField
{
    front_top
    {
        type            wedge;
    }
    front_middle
    {
        type            wedge;
    }
    front_bottom
    {
        type            wedge;
    }
    back_top
    {
        type            wedge;
    }
    back_middle
    {
        type            wedge;
    }
    back_bottom
    {
        type            wedge;
    }
    axis_top
    {
        type            symmetryPlane;
    }
    axis_middle
    {
        type            symmetryPlane;
    }
    axis_bottom
    {
        type            symmetryPlane;
    }
    wall_top
    {
        type            fixedFluxPressure;
        gradient        uniform 0;
        value           nonuniform List<scalar> 10(1488683.431 1493526.793 1499221.409 1505964.744 1514004.147 1523717.352 1535420.052 1549844.143 1569305.399 1588914.463);
    }
    wall_middle
    {
        type            fixedFluxPressure;
        gradient        uniform 0;
        value           nonuniform List<scalar> 
14
(
1622579.922
1586618.01
1571213.219
1559562.493
1549357.024
1540390.196
1532207.109
1524579.682
1517373.584
1510498.044
1503890.355
1497504.72
1491306.374
1485267.823
)
;
    }
    wall_bottom
    {
        type            fixedFluxPressure;
        gradient        nonuniform 0();
        value           nonuniform 0();
    }
    inlet
    {
        type            zeroGradient;
    }
    outlet
    {
        type            fixedValue;
        value           nonuniform 0();
    }
    procBoundary5to4
    {
        type            processor;
        value           nonuniform List<scalar> 
51
(
1349908.118
1360388.785
1358059.062
1358792.453
1360086.003
1361521.683
1363191.509
1365079.859
1367161.273
1369416.244
1371827.526
1374378.214
1377052.298
1379834.912
1382712.307
1385671.672
1388701.215
1391790.113
1394928.486
1398107.356
1401318.577
1404555.04
1407810.112
1411078.314
1414354.464
1417634.167
1420913.738
1424189.918
1427459.891
1430721.353
1433972.538
1437212.045
1440438.95
1443652.705
1446853.009
1446853.009
1445036.379
1448165.991
1451274.022
1454350.652
1457377.745
1460326.774
1463160.658
1465840.456
1468334.546
1470624.393
1472702.869
1474570.957
1476257.699
1477856.623
1479366.559
)
;
    }
    procBoundary5to6
    {
        type            processor;
        value           nonuniform List<scalar> 
51
(
1438399.235
1444365.946
1439727.292
1439727.292
1439905.283
1440406.473
1440943.968
1441573.931
1442298.457
1443109.461
1444001.211
1444968.339
1446006.777
1447111.38
1448276.446
1449497.901
1450769.671
1452086.924
1453444.106
1454835.759
1456256.558
1457700.648
1459162.775
1460636.849
1462117.457
1463598.435
1465074.186
1466538.497
1467985.491
1469408.988
1470802.909
1472161.244
1473477.782
1474746.761
1475962.268
1477118.875
1478211.155
1479234.109
1480182.991
1481053.431
1481841.387
1482543.045
1483155.122
1483674.508
1484098.659
1484425.096
1484652.429
1484780.027
1484803.422
1484710.438
1484538.061
)
;
    }
}


// ************************************************************************* //
