/*--------------------------------*- C++ -*----------------------------------*\
  =========                 |
  \\      /  F ield         | OpenFOAM: The Open Source CFD Toolbox
   \\    /   O peration     | Website:  https://openfoam.org
    \\  /    A nd           | Version:  7
     \\/     M anipulation  |
\*---------------------------------------------------------------------------*/
FoamFile
{
    version     2.0;
    format      ascii;
    class       volScalarField;
    location    "0.003";
    object      thermo:mu;
}
// * * * * * * * * * * * * * * * * * * * * * * * * * * * * * * * * * * * * * //

dimensions      [1 -1 -1 0 0 0 0];

internalField   nonuniform List<scalar> 
1167
(
417276.4137
415589.8061
410094.3583
408413.7806
404840.4546
399629.2283
392965.3564
385031.3212
376014.2038
366095.5057
355439.1771
344207.3417
332564.5503
320636.3162
308545.6377
296415.0694
284324.7529
272367.4711
260606.7153
249100.7916
237897.1557
227028.6305
216527.0209
206407.1351
196686.8455
187370.1898
178462.6108
169961.3371
161862.4926
154160.4848
146844.2852
139907.1939
133332.9172
127115.2857
121235.5962
115685.8126
110448.48
105513.3754
100865.458
96492.50396
92380.90465
88517.60258
84890.4105
81485.8197
78292.17978
75296.02811
72485.56782
69848.14397
67371.83827
65045.04468
62855.16851
60792.32494
403102.2811
401423.3938
397854.2003
392649.8162
385995.9597
378077.9926
369085.9125
359189.2335
348559.6391
337366.6658
325761.6999
313873.4694
301835.7135
289751.9855
277714.9023
265814.8314
254107.4017
242663.7607
231514.0097
220707.3144
210257.9247
200197.1542
190526.8903
181265.24
172405.4215
163953.4493
155900.718
148243.3068
140972.5353
134076.8051
127549.082
121373.2086
115542.0439
110039.1429
104854.5859
99975.54218
95388.74776
91083.83421
87045.84306
83266.47247
79730.01757
76427.36874
73343.93852
70469.33311
67789.66013
65293.87975
62967.41116
60799.12864
58774.10973
56881.59068
396287.0165
394605.3178
391030.7276
385819.3356
379158.6958
371242.1289
362243.862
352343.1209
341713.5516
330530.46
318930.3178
307053.8498
295032.838
282962.9556
270951.315
259069.3426
247389.9764
235966.0452
224843.8878
214057.2892
203634.0415
193590.9833
183944.7711
174696.7409
165857.1222
157417.4824
149380.1162
141735.2242
134475.4641
127593.933
121076.7835
114917.3129
109101.3422
103618.1607
98458.61065
93608.18814
89058.36016
84796.77728
80812.35324
77096.16141
73634.83033
70419.7971
67438.27704
64679.96453
62132.23526
59782.8185
57618.48958
55625.58297
53789.3077
52095.5894
389636.3506
387947.1875
384357.3527
379125.5409
372447.4952
364501.8268
355472.8445
345541.0777
334890.6763
323678.4355
312051.2623
300159.2873
288115.593
276031.1765
264004.7702
252108.66
240419.8916
228982.858
217852.2882
207053.253
196619.0902
186564.232
176902.5146
167642.3463
158782.2111
150328.7587
142271.8248
134608.0915
127331.6025
120430.6571
113898.5794
107724.3838
101896.599
96407.5434
91245.06553
86398.41004
81859.78031
77618.29245
73663.81288
69988.81662
66583.00862
63436.85988
60542.63439
57888.51735
55465.25415
53260.91822
51262.90549
49457.28619
47828.40516
46359.19175
383139.0294
381437.6129
377825.1333
372563.7154
365840.9096
357843.918
348759.0241
338773.9486
328067.2677
316794.5401
305113.8156
293166.4231
281065.7882
268935.8147
256856.0485
244917.2909
233177.4254
221699.7598
210518.9492
199679.4995
189197.6017
179099.6382
169392.8883
160084.9994
151183.0185
142681.5215
134579.8638
126873.7017
119553.5236
112612.4898
106043.422
99834.81773
93977.29913
88462.92025
83281.15474
78422.318
73877.58817
69639.56042
65699.12261
62048.10112
58678.97916
55585.71879
52759.777
50193.63054
47880.32001
45809.79492
43971.59751
42353.65976
40939.88458
39712.75501
376788.9508
375072.7731
371426.8672
366114.2769
359327.5686
351256.5634
342090.8411
332027.2756
321230.0085
309865.0261
298100.8559
286060.9554
273877.7344
261659.1068
249497.351
237475.6448
225657.4998
214099.3191
202844.986
191925.4857
181373.7169
171200.4727
161422.5329
152047.4966
143075.9621
134510.3336
126348.443
118583.3374
111208.9552
104220.0471
97607.30088
91361.0638
85472.47617
79932.62878
74733.37267
69864.80727
65318.38651
61085.74953
57159.05336
53531.18649
50195.61867
47146.57369
44378.43215
41886.05601
39664.51409
37708.43259
36012.13206
34566.18424
33358.76864
32372.78825
370577.0298
368838.6776
365146.4317
359767.3778
352897.3287
344729.3116
335465.1642
325285.9512
314367.7716
302887.8025
290998.0866
278834.296
266534.0429
254192.2876
241919.1259
229779.7414
217854.4056
206187.2337
194828.2536
183810.9748
173158.0197
162894.3506
153028.7495
143568.9848
134521.4312
125886.5901
117660.8167
109840.2968
102419.7844
95393.89961
88753.2932
82489.48716
76593.72195
71056.63266
65868.92517
61021.24276
56504.07619
52308.53245
48426.00118
44848.33344
41568.36223
38579.88301
35877.66198
33457.96751
31318.20698
29457.1856
27874.3746
26568.52849
25536.02117
24766.60644
364490.1125
362724.514
358975.2527
353514.2827
346541.292
338259.2471
328864.1663
318540.9435
307474.6761
295845.4813
283797.9007
271485.9082
259028.7847
246542.2405
234117.6391
221841.2055
209772.5816
197978.1944
186493.2811
175355.7661
164595.5761
154228.1759
144268.3752
134727.8088
125610.0688
116915.9288
108644.5477
100793.1182
93356.87959
86329.03732
79702.2957
73468.195
67616.96561
62139.05716
57023.51161
52259.59973
47836.28288
43742.27464
39967.44647
36500.69444
33331.8503
30452.16837
27854.5205
25533.08233
23485.2051
21711.59083
20216.28146
19007.59169
18096.12609
17490.30126
358520.7932
356722.7917
352905.7636
347347.3642
340255.1576
331835.2744
322280.4517
311785.2419
300547.6286
288732.3456
276501.4117
264005.7592
251365.8133
238702.8627
226106.5852
213663.1892
201441.5195
189494.4464
177874.0769
166612.561
155737.3949
145270.6565
135230.8765
125625.0681
116459.8183
107738.1241
99460.35704
91624.10163
84224.59583
77255.80996
70709.7742
64577.23702
58847.6715
53510.32233
48552.19412
43959.56243
39719.64685
35817.57798
32238.93907
28968.89696
25993.69094
23299.33029
20873.61924
18706.21763
16789.55537
15120.60169
13703.22076
12550.64859
11689.44282
11162.49903
352662.6886
350826.9454
346931.3742
341262.0196
334034.3528
325448.2732
315708.3099
305020.0677
293576.1661
281545.9433
269107.8125
256396.1004
243553.6459
230683.9054
217899.6353
205273.1775
192880.0693
180781.5281
169020.3545
157635.7351
146660.312
136116.2029
126019.33
116381.9891
107211.9142
98513.50145
90287.35783
82531.27272
75240.89186
68409.07183
62028.53141
56086.53333
50570.76173
45468.53922
40763.03206
36439.14767
32478.22656
28862.40405
25573.12416
22591.03253
19896.78326
17471.4698
15296.64748
13355.31112
11631.87274
10114.44275
8796.776046
7683.194311
6798.85218
6216.698675
347120.5189
345268.8455
341339.8555
335624.8195
328330.9861
319666.2938
309837.1384
299058.7125
287509.3407
275374.8114
262823.5158
249999.9385
237042.3379
224064.1947
211165.1948
198437.7204
185948.2525
173758.6469
161923.3167
150478.9002
139458.0528
128886.3015
118783.2258
109162.4775
100033.5709
91401.5202
83267.34275
75629.31766
68481.99372
61819.58626
55629.26511
49899.05548
44614.40877
39758.20984
35312.2267
31256.98891
27571.04614
24233.05263
21220.58683
18510.93993
16081.37056
13909.12117
11971.55
10246.41513
8711.677674
7345.243157
6124.884427
5028.261735
4033.214071
3120.344927
341826.5694
339978.6979
336053.9588
330338.3583
323042.2868
314373.0085
304543.0859
293753.2175
282188.0221
270040.5007
257464.7566
244619.7564
231630.4802
218625.797
205697.7065
192939.2651
180427.4368
168220.8538
156372.8578
144927.2513
133920.1199
123377.5747
113320.285
103763.7696
94718.84929
86191.54856
78183.15644
70690.7782
63708.45709
57228.14631
51236.32092
45718.68597
40657.36893
36034.20209
31826.97182
28013.34105
24570.21654
21473.35303
18698.12539
16219.98131
14014.8639
12058.75717
10328.9204
8803.229517
7460.751528
6282.017538
5248.896342
4345.084641
3556.040903
2868.897251
336550.4559
334701.4352
330773.4125
325052.0435
317747.3178
309066.8836
299227.4979
288417.7107
276833.3447
264660.7612
252056.9198
239183.0718
226165.5376
213128.1436
200175.902
187395.6031
174866.8298
162657.284
150818.5411
139396.6233
128428.6086
117944.2205
107965.754
98510.01096
89587.42929
81203.49403
73359.98514
66053.03474
59273.97246
53012.40868
47252.64543
41977.66438
37166.73395
32797.54874
28846.18145
25287.3944
22095.16058
19243.08281
16704.6563
14453.65233
12465.07865
10714.26159
9178.07632
7834.605658
6663.42075
5645.681958
4764.161464
4003.237866
3348.823207
2788.010143
331283.8029
329430.5165
325493.1414
319757.5325
312433.7243
303736.5826
293868.438
283025.6565
271411.9723
259199.9856
246562.2685
233647.092
220597.3489
207526.9174
194549.6575
181756.0692
169224.1427
157022.8558
145210.3805
133835.5416
122935.4768
112540.8261
102675.2463
93356.96752
84594.64546
76393.22059
68751.39831
61665.48085
55122.77397
49110.17932
43608.45522
38598.14375
34054.51526
29951.95096
26263.68969
22961.90443
20017.93145
17403.43589
15090.49517
13051.92937
11261.52191
9694.514372
8327.649931
7139.137635
6108.965756
5218.842774
4452.022132
3793.465065
3229.533961
2747.913309
326025.2126
324164.8755
320212.4977
314454.7287
307105.5766
298377.1678
288468.6584
277584.9213
265927.2601
253666.6842
240986.642
228028.3634
214940.5246
201842.9273
188844.1831
176043.9211
163523.5601
151352.2891
139590.3742
128287.4119
117483.8337
107210.8517
97492.37371
88343.95943
79775.23002
71789.7515
64382.28473
57545.04589
51263.90464
45520.97199
40294.06339
35559.42722
31289.35078
27454.9531
24026.72233
20974.1132
18266.78273
15875.00949
13769.43216
11922.4163
10307.50017
8900.055323
7676.938722
6617.01619
5700.999482
4911.311093
4232.120231
3649.241952
3149.923831
2722.723836
320773.747
318903.9282
314931.5374
309145.2768
301765.1908
292992.1952
283033.4614
272102.8864
260388.8663
248079.2558
235345.1058
222345.4748
209217.1485
196096.486
183089.5451
170295.2848
157799.9106
145677.8199
133990.4196
122787.5763
112109.996
101990.1873
92450.90054
83505.46519
75161.00871
67417.90935
60269.5428
53702.25854
47699.41362
42238.34163
37293.6974
32837.1655
28838.43053
25265.8709
22087.25233
19270.29364
16783.14786
14594.81838
12675.9927
10998.67017
9536.74355
8265.869804
7163.908226
6210.491197
5387.286628
4677.777393
4067.206782
3542.422959
3091.739475
2704.756063
315528.8728
313647.4809
309650.75
303836.3689
296411.4621
287585.9485
277572.6713
266584.1049
254807.492
242444.2356
229655.2672
216613.5974
203455.8778
190313.9826
177309.5083
164539.108
152091.122
140041.2987
128452.6775
117376.9805
106854.5671
96916.33161
87582.66746
78867.16279
70772.33931
63293.53483
56421.95392
50138.59674
44423.03112
39248.62254
34586.08714
30403.61158
26668.11094
23345.7399
20402.11883
17803.67691
15517.72533
13513.1477
11760.57433
10232.22506
8902.864297
7748.89562
6749.115539
5884.447677
5137.605401
4493.250245
3937.771598
3459.121538
3046.652679
2690.968016
310290.4307
308397.4132
304378.082
298523.2687
291047.6068
282163.2829
272093.0834
261037.5691
249200.8532
236775.6854
223938.9142
210852.5392
197672.5155
184526.6985
171535.2481
158803.2262
146423.1206
134469.2242
123005.4933
112083.1896
101743.3335
92014.22218
82913.04204
74448.70492
66622.51346
59424.6257
52840.60113
46848.29725
41422.85894
36533.52238
32147.41616
28229.82294
24745.43396
21658.28469
18932.84745
16534.81415
14431.18923
12591.22829
10985.669
9587.861746
8373.212411
7319.483891
6406.522649
5616.513017
4933.353576
4342.890877
3832.64414
3391.64385
3010.218469
2679.879892
305064.7867
303157.8351
299107.4851
293208.2616
285677.2833
276734.3387
266598.2383
255472.7652
243575.3437
231088.0958
218206.7386
205088.1884
191889.5502
178752.5927
165794.3685
153122.8563
140830.7263
128995.6282
117681.4592
106938.3043
96804.33418
87304.91275
78456.89977
70262.82297
62718.31627
55811.1603
49520.6053
43821.03451
38683.06703
34072.34976
29952.92107
26287.88948
23039.87763
20171.53082
17646.82509
15431.10876
13491.85352
11798.57802
10322.9672
9039.43963
7924.454696
6957.078569
6118.418602
5391.870868
4762.5172
4217.376367
3745.04215
3335.460163
2979.876888
2670.665014
299846.9308
297924.0943
293840.5303
287893.995
280304.5384
271302.5228
261095.8288
249904.9419
237942.1886
225403.1512
212475.912
199335.5365
186134.971
173016.7492
160108.0403
147517.0016
135335.9719
123643.0861
112501.1638
101959.8546
92054.63644
82806.24384
74225.57906
66314.44034
59061.00202
52449.04986
46452.68427
41042.88056
36185.64858
31843.6988
27978.6212
24551.71463
21524.07374
18857.77288
16516.56886
14466.02088
12674.29338
11111.60584
9750.855174
8567.58205
7539.535877
6647.011644
5872.446119
5200.355585
4617.037452
4110.58742
3670.476121
3287.63214
2954.052236
2662.818837
294636.8005
292697.3433
288579.1054
282583.4311
274940.9383
265871.3157
255593.8004
244340.389
232313.669
219728.7508
206767.1421
193612.063
180424.392
167345.8468
154505.0427
142013.3141
129964.484
118435.9847
107488.7365
97169.05085
87508.00375
78525.67434
70226.21208
62604.76023
55647.19212
49330.33978
43624.85398
38498.12599
33911.82131
29826.39947
26201.71027
22997.48115
20173.94743
17693.13946
15518.91915
13617.59676
11958.12137
10511.79317
9252.712833
8157.676622
7205.785052
6378.544611
5659.710116
5034.804995
4491.337785
4018.235018
3605.99867
3246.203272
2931.660234
2656.012595
289435.4998
287479.0292
283325.3864
277283.8836
269583.8444
260446.9783
250105.3877
238787.3493
226707.2709
214078.5865
201096.3677
187939.7014
174776.062
161754.4558
149002.0478
136630.9656
124735.0678
113390.2832
102655.5838
92575.95578
83175.95996
74469.30586
66458.48232
59131.34376
52469.47476
46444.35617
41023.68372
36170.07099
31842.82312
28000.35393
24601.12237
21603.80251
18968.46427
16657.31538
14634.75833
12868.02106
11327.04541
9984.466545
8815.614554
7798.527378
6913.679646
6143.759886
5473.685753
4890.073648
4381.335627
3937.410553
3549.449023
3209.847412
2911.965319
2650.02121
284244.4021
282270.8616
278084.7782
271997.8036
264238.0244
255035.8796
244635.3516
233255.8109
221131.5944
208468.0621
195475.4322
182334.6791
169213.9506
156264.4142
143618.1008
131386.9967
119663.9574
108522.4389
98018.38082
88189.97762
79061.09456
70639.68243
62920.16071
55888.37161
49518.49267
43779.02333
38633.92532
34041.94819
29960.5111
26346.65778
23157.68796
20351.78781
17889.32719
15732.91804
13847.90894
12202.51803
10767.88707
9517.985687
8429.401498
7481.454113
6655.910837
5936.62341
5309.484701
4762.240597
4284.136148
3865.850003
3499.336206
3177.569216
2894.443949
2644.684827
11609.04855
10269.92597
9102.972629
8086.040066
7199.684465
6426.773744
5752.429597
5163.435719
4648.404534
4197.438441
3801.972656
3454.52268
3148.638423
2878.71024
2639.886324
)
;

boundaryField
{
    front_top
    {
        type            wedge;
    }
    front_middle
    {
        type            wedge;
    }
    front_bottom
    {
        type            wedge;
    }
    back_top
    {
        type            wedge;
    }
    back_middle
    {
        type            wedge;
    }
    back_bottom
    {
        type            wedge;
    }
    axis_top
    {
        type            symmetryPlane;
    }
    axis_middle
    {
        type            symmetryPlane;
    }
    axis_bottom
    {
        type            symmetryPlane;
    }
    wall_top
    {
        type            calculated;
        value           nonuniform List<scalar> 10(59801.67679 55979.60012 51299.03767 45685.11383 39173.62871 31973.42368 24499.7952 17335.53824 11089.75181 6193.439743);
    }
    wall_middle
    {
        type            calculated;
        value           uniform 2530.329233;
    }
    wall_bottom
    {
        type            calculated;
        value           nonuniform 0();
    }
    inlet
    {
        type            calculated;
        value           nonuniform 0();
    }
    outlet
    {
        type            calculated;
        value           nonuniform 0();
    }
    procBoundary5to4
    {
        type            processor;
        value           nonuniform List<scalar> 
51
(
279066.7754
277079.1272
272861.0046
266725.7105
258908.4091
249650.1385
239189.6998
227759.4038
215595.8052
202914.1938
189920.1049
176808.9651
163748.7915
150891.9773
138371.3103
126298.5257
114764.769
103840.9467
93580.52049
84016.86601
75166.50386
67033.35949
59607.04013
52866.9022
46783.16455
41321.2517
36440.35222
32097.31464
28247.81678
24847.8893
21854.12812
19224.80618
16920.76303
14905.33468
13144.98916
13144.98916
11077.57454
9824.447953
8731.839565
7779.05705
6947.744865
6221.904665
5587.574944
5032.562151
4546.308591
4119.604336
3744.503989
3414.123006
3122.508353
2864.472289
2635.53753
)
;
    }
    procBoundary5to6
    {
        type            processor;
        value           nonuniform List<scalar> 
51
(
424666.9373
422967.7116
412003.1608
412003.1608
406771.7418
400080.8441
392112.9367
383049.8418
373079.3831
362369.4147
351077.6939
339359.9013
327361.3207
315194.1537
302977.6604
290805.8829
278756.0497
266909.9588
255311.3022
244020.0468
233060.9969
222471.8856
212264.6685
202459.7937
193059.0217
184071.506
175489.7955
167315.9022
159536.173
152148.8738
145135.8248
138492.7501
132199.6653
126249.3122
120623.1396
115310.8672
110295.5214
105565.555
101105.4674
96902.89996
92943.07612
89213.75236
85701.13436
82393.4229
79277.13516
76341.43411
73572.75398
70961.63644
68494.78575
66164.46252
63957.81593
)
;
    }
}


// ************************************************************************* //
