/*--------------------------------*- C++ -*----------------------------------*\
  =========                 |
  \\      /  F ield         | OpenFOAM: The Open Source CFD Toolbox
   \\    /   O peration     | Website:  https://openfoam.org
    \\  /    A nd           | Version:  7
     \\/     M anipulation  |
\*---------------------------------------------------------------------------*/
FoamFile
{
    version     2.0;
    format      ascii;
    class       volVectorField;
    location    "0.003";
    object      U;
}
// * * * * * * * * * * * * * * * * * * * * * * * * * * * * * * * * * * * * * //

dimensions      [0 1 -1 0 0 0 0];

internalField   nonuniform List<vector> 
1167
(
(-8.687533428e-06 -5.087794406e-21 -0.002320178782)
(-2.247128262e-05 -7.26824361e-20 -0.002319814619)
(-1.007679663e-05 1.338092827e-19 -0.002346257687)
(-2.605746051e-05 5.08693334e-19 -0.002345842151)
(-4.103345626e-05 2.159949199e-19 -0.002345295981)
(-5.651386639e-05 4.948719884e-19 -0.002344380203)
(-7.163780409e-05 3.891548073e-19 -0.002343134691)
(-8.632707709e-05 -1.551953477e-19 -0.002341555528)
(-0.0001005716499 -4.201406066e-19 -0.00233962365)
(-0.0001143383427 -6.328347879e-19 -0.002337320366)
(-0.0001275966908 -6.611901503e-19 -0.00233462693)
(-0.0001403192749 -7.933557445e-19 -0.002331524625)
(-0.0001524791575 -6.95130738e-19 -0.002327995669)
(-0.0001640494285 -6.815707737e-19 -0.002324024337)
(-0.0001750036522 -7.199721306e-19 -0.002319597326)
(-0.0001853154022 -6.595314448e-19 -0.00231470391)
(-0.0001949583921 -6.409142306e-19 -0.002309336661)
(-0.0002039067584 -6.396305485e-19 -0.002303491171)
(-0.000212134654 -6.508268372e-19 -0.002297166348)
(-0.0002196168251 -6.689455428e-19 -0.002290364552)
(-0.0002263281603 -6.868594081e-19 -0.002283091326)
(-0.0002322441916 -6.170153407e-19 -0.002275355719)
(-0.0002373407499 -5.628719036e-19 -0.00226716992)
(-0.0002415943931 -5.324535719e-19 -0.002258549594)
(-0.0002449821625 -4.744007007e-19 -0.002249513552)
(-0.0002474819982 -3.800270274e-19 -0.002240084118)
(-0.0002490726041 -2.889671431e-19 -0.002230286929)
(-0.0002497339244 -2.332756606e-19 -0.00222015126)
(-0.0002494471885 -1.423083774e-19 -0.002209709955)
(-0.0002481954749 -5.138986304e-20 -0.002198999793)
(-0.000245963961 6.504506489e-20 -0.002188061554)
(-0.0002427406582 1.178085435e-19 -0.002176940369)
(-0.0002385169392 1.884015516e-19 -0.002165685769)
(-0.0002332884289 2.692932254e-19 -0.002154351913)
(-0.0002270558256 2.81756003e-19 -0.002142997583)
(-0.0002198258866 3.28545955e-19 -0.002131685989)
(-0.0002116124251 3.413102712e-19 -0.002120484527)
(-0.0002024373786 3.671386439e-19 -0.00210946401)
(-0.0001923316607 4.066341112e-19 -0.002098697993)
(-0.0001813360362 4.649739212e-19 -0.00208826149)
(-0.0001695015218 4.700146326e-19 -0.002078229721)
(-0.0001568897449 5.026742346e-19 -0.002068676551)
(-0.000143572616 5.150794565e-19 -0.002059673125)
(-0.0001296317816 5.137351217e-19 -0.002051286427)
(-0.0001151574827 5.167740209e-19 -0.002043578224)
(-0.0001002471976 5.22110582e-19 -0.002036604196)
(-8.500385644e-05 5.299573614e-19 -0.0020304135)
(-6.953390711e-05 5.393513657e-19 -0.002025048629)
(-5.394528323e-05 5.489259027e-19 -0.002020545815)
(-3.834810392e-05 5.615692355e-19 -0.002016935384)
(-2.285522477e-05 5.783003835e-19 -0.002014240953)
(-7.566148149e-06 6.01896268e-19 -0.00201247997)
(-1.162514995e-05 -2.708262137e-19 -0.002375923311)
(-3.005260229e-05 -9.821168222e-19 -0.00237545159)
(-4.732402259e-05 4.667668365e-20 -0.002374827284)
(-6.518532362e-05 3.448882898e-19 -0.002373781812)
(-8.263559777e-05 2.668655078e-19 -0.002372362407)
(-9.959092386e-05 -2.160328802e-19 -0.002370564895)
(-0.0001160413984 -4.931125303e-19 -0.002368368448)
(-0.0001319507166 -7.391917911e-19 -0.002365752894)
(-0.0001472865823 -7.480111171e-19 -0.00236269755)
(-0.0001620202306 -8.110184652e-19 -0.002359181452)
(-0.0001761234306 -7.794472648e-19 -0.002355184565)
(-0.0001895685113 -7.491922244e-19 -0.002350688971)
(-0.0002023282485 -7.576962649e-19 -0.002345678893)
(-0.0002143753148 -7.496298454e-19 -0.00234014131)
(-0.0002256828147 -7.655409261e-19 -0.002334066402)
(-0.0002362237827 -8.218041836e-19 -0.002327447295)
(-0.0002459714331 -7.765557819e-19 -0.002320280624)
(-0.0002548989998 -7.590481383e-19 -0.002312566121)
(-0.0002629797363 -7.756776348e-19 -0.002304307034)
(-0.0002701869072 -6.854794912e-19 -0.002295509713)
(-0.0002764936606 -6.192127114e-19 -0.002286183921)
(-0.0002818730666 -5.595169914e-19 -0.002276342578)
(-0.0002862980308 -4.986339347e-19 -0.002266002017)
(-0.0002897412577 -4.437120159e-19 -0.002255181876)
(-0.0002921753575 -3.466138535e-19 -0.002243905505)
(-0.0002935728478 -2.889665565e-19 -0.002232199877)
(-0.0002939064025 -2.36247386e-19 -0.002220096124)
(-0.0002931489982 -1.021814639e-19 -0.002207629684)
(-0.0002912743716 1.361929357e-20 -0.002194840985)
(-0.0002882575153 9.513024777e-20 -0.002181775705)
(-0.0002840754233 1.804033013e-19 -0.0021684855)
(-0.0002787079409 2.72422302e-19 -0.002155028334)
(-0.0002721389703 3.312259648e-19 -0.002141468952)
(-0.0002643576765 3.616707825e-19 -0.002127879198)
(-0.0002553602688 3.74329602e-19 -0.00211433786)
(-0.0002451515137 3.976719174e-19 -0.002100930527)
(-0.00023374671 4.329262305e-19 -0.002087748714)
(-0.000221173509 4.782756893e-19 -0.002074888802)
(-0.0002074735354 4.942387193e-19 -0.002062450299)
(-0.0001927040124 5.188597739e-19 -0.002050533931)
(-0.0001769384812 5.183633123e-19 -0.00203923946)
(-0.0001602671961 5.170855447e-19 -0.00202866311)
(-0.000142796522 5.120031794e-19 -0.002018895619)
(-0.0001246475753 5.166618344e-19 -0.002010020093)
(-0.0001059539293 5.145002664e-19 -0.00200211084)
(-8.685850772e-05 5.250530999e-19 -0.001995232551)
(-6.75106316e-05 5.410105217e-19 -0.001989440591)
(-4.806581497e-05 5.565929626e-19 -0.001984781195)
(-2.868169666e-05 5.738939629e-19 -0.001981289878)
(-9.496931873e-06 5.849331469e-19 -0.001978993576)
(-1.333737253e-05 -4.924880154e-19 -0.002409491261)
(-3.446854801e-05 -1.635897192e-18 -0.002408958159)
(-5.427640563e-05 -6.041919306e-19 -0.002408246963)
(-7.47693052e-05 -2.904785745e-19 -0.002407058152)
(-9.478961744e-05 -1.165290548e-19 -0.002405447439)
(-0.0001142481155 -4.331467746e-19 -0.002403410578)
(-0.0001331352166 -5.928457455e-19 -0.002400925507)
(-0.0001514115739 -7.708543474e-19 -0.002397970794)
(-0.0001690432353 -8.117378113e-19 -0.002394523983)
(-0.0001860002291 -8.973992049e-19 -0.002390562069)
(-0.0002022537676 -7.436127407e-19 -0.002386063237)
(-0.0002177761447 -7.900837575e-19 -0.002381007295)
(-0.0002325398775 -7.911693319e-19 -0.002375376106)
(-0.0002465179131 -8.206576828e-19 -0.002369154521)
(-0.0002596835112 -8.474312062e-19 -0.002362330077)
(-0.0002720098085 -8.63042254e-19 -0.00235489347)
(-0.0002834701818 -8.504570734e-19 -0.002346838592)
(-0.0002940375931 -8.238840929e-19 -0.002338162324)
(-0.0003036849722 -8.167598218e-19 -0.00232886485)
(-0.000312384577 -7.311421028e-19 -0.002318949226)
(-0.0003201082423 -6.110113366e-19 -0.002308421688)
(-0.0003268268277 -5.975355899e-19 -0.002297291297)
(-0.0003325103094 -5.246564787e-19 -0.002285570282)
(-0.0003371273376 -4.850971889e-19 -0.002273273882)
(-0.0003406452292 -4.377363434e-19 -0.00226042075)
(-0.000343029821 -3.34061603e-19 -0.002247033152)
(-0.0003442453342 -2.631749651e-19 -0.00223313726)
(-0.000344254382 -1.53430869e-19 -0.002218763898)
(-0.000343018168 -6.582240972e-20 -0.002203948985)
(-0.0003404967117 5.296760002e-20 -0.002188734599)
(-0.0003366493957 1.490717544e-19 -0.002173169757)
(-0.000331435838 2.283490273e-19 -0.002157311424)
(-0.0003248167545 3.147007666e-19 -0.002141225579)
(-0.0003167557171 3.543347176e-19 -0.002124988057)
(-0.0003072209571 3.835961107e-19 -0.002108685545)
(-0.0002961876891 4.190983809e-19 -0.002092415812)
(-0.000283641083 4.502539055e-19 -0.002076287672)
(-0.0002695794494 4.735184508e-19 -0.002060420631)
(-0.0002540177401 4.937671564e-19 -0.002044943189)
(-0.0002369912467 5.083897763e-19 -0.002029991037)
(-0.0002185589835 5.206567014e-19 -0.002015704014)
(-0.0001988063228 5.325172307e-19 -0.002002222534)
(-0.0001778469613 5.462384662e-19 -0.001989683648)
(-0.0001558227901 5.174470372e-19 -0.001978216928)
(-0.0001329022096 4.985357947e-19 -0.001967940737)
(-0.0001092759177 5.199870788e-19 -0.0019589597)
(-8.515275343e-05 5.323378095e-19 -0.00195136388)
(-6.075735117e-05 5.426872006e-19 -0.001945228279)
(-3.631657657e-05 5.507441463e-19 -0.00194060959)
(-1.203105092e-05 5.558043731e-19 -0.001937551628)
(-1.521585169e-05 -3.5280535e-19 -0.002447269118)
(-3.93109274e-05 -1.1342211e-18 -0.002446668914)
(-6.189910642e-05 -1.612096857e-18 -0.002445860652)
(-8.527714659e-05 -9.296558049e-19 -0.002444512962)
(-0.0001081130508 -1.090575724e-18 -0.002442691326)
(-0.0001303131197 -7.599576623e-19 -0.002440391897)
(-0.0001518682321 -6.965476276e-19 -0.002437591812)
(-0.0001727358208 -6.520446921e-19 -0.002434268684)
(-0.0001928802267 -8.381373673e-19 -0.002430398701)
(-0.0002122707604 -9.618334086e-19 -0.002425957502)
(-0.000230878897 -8.950902244e-19 -0.002420921718)
(-0.0002486772851 -8.631728258e-19 -0.002415269165)
(-0.0002656392197 -8.617112812e-19 -0.002408979891)
(-0.0002817389879 -9.12256648e-19 -0.002402036603)
(-0.0002969509696 -9.367474036e-19 -0.002394424474)
(-0.0003112499583 -9.498516297e-19 -0.002386131856)
(-0.0003246106093 -9.402562507e-19 -0.00237714973)
(-0.0003370074819 -8.929751771e-19 -0.002367472171)
(-0.0003484145547 -7.579217e-19 -0.002357095734)
(-0.0003588051544 -7.930265223e-19 -0.002346019879)
(-0.0003681514622 -7.225087478e-19 -0.002334246351)
(-0.0003764243291 -7.122863726e-19 -0.002321779543)
(-0.000383592723 -6.682288519e-19 -0.002308626056)
(-0.0003896234542 -5.300822259e-19 -0.002294795141)
(-0.0003944806803 -4.197682948e-19 -0.00228029849)
(-0.0003981255157 -3.502404928e-19 -0.002265150802)
(-0.0004005155516 -2.704538775e-19 -0.002249370143)
(-0.0004016046258 -1.67984469e-19 -0.00223297834)
(-0.0004013423149 -8.166091326e-20 -0.00221600212)
(-0.0003996738146 2.809177223e-20 -0.002198474059)
(-0.0003965401222 1.43092386e-19 -0.002180433892)
(-0.0003918780117 2.339678367e-19 -0.002161930071)
(-0.0003856207465 2.986638711e-19 -0.002143021343)
(-0.0003776992128 3.693450193e-19 -0.002123778864)
(-0.0003680435454 4.556780377e-19 -0.002104288249)
(-0.0003565856159 4.543706724e-19 -0.002084650954)
(-0.0003432622792 4.930344427e-19 -0.002064986163)
(-0.0003280200186 5.558648016e-19 -0.002045431941)
(-0.0003108202385 5.301271138e-19 -0.002026145177)
(-0.000291645819 5.238836746e-19 -0.002007301034)
(-0.0002705087058 5.275018776e-19 -0.001989090533)
(-0.0002474574266 5.277844597e-19 -0.001971716471)
(-0.0002225847214 5.309794126e-19 -0.0019553878)
(-0.0001960330205 5.06484145e-19 -0.001940311997)
(-0.0001679969737 4.795935763e-19 -0.001926686514)
(-0.0001387214231 5.200411708e-19 -0.001914691509)
(-0.0001084970253 5.32087069e-19 -0.001904484435)
(-7.76544285e-05 5.372050145e-19 -0.001896195613)
(-4.653121628e-05 5.360094751e-19 -0.001889921517)
(-1.543008363e-05 5.413478125e-19 -0.001885737104)
(-1.726037069e-05 -2.438923907e-19 -0.002489549759)
(-4.457856774e-05 -8.75202341e-19 -0.002488876142)
(-7.018987076e-05 -1.65146443e-18 -0.002487958897)
(-9.670515583e-05 -1.121134124e-18 -0.002486434394)
(-0.0001225999002 -1.380660453e-18 -0.002484379609)
(-0.0001477770438 -9.589513246e-19 -0.002481791408)
(-0.0001722276525 -8.40705723e-19 -0.002478646536)
(-0.000195905523 -7.43361215e-19 -0.002474922303)
(-0.0002187733499 -8.980737253e-19 -0.002470594267)
(-0.0002408004043 -8.904280866e-19 -0.002465637518)
(-0.00026195882 -9.81065205e-19 -0.002460027492)
(-0.0002822221793 -9.849161685e-19 -0.002453740691)
(-0.000301565797 -9.200285362e-19 -0.002446755943)
(-0.0003199659827 -1.021500802e-18 -0.002439054051)
(-0.00033739975 -1.059265919e-18 -0.002430618593)
(-0.0003538447531 -1.070572456e-18 -0.002421435603)
(-0.0003692786765 -1.067405762e-18 -0.00241149371)
(-0.0003836792464 -1.070415677e-18 -0.002400784038)
(-0.000397023621 -1.066375898e-18 -0.002389299863)
(-0.0004092881454 -1.05219998e-18 -0.002377036557)
(-0.0004204478728 -9.32590986e-19 -0.002363991395)
(-0.0004304760508 -8.629530183e-19 -0.002350163172)
(-0.0004393435809 -8.212296124e-19 -0.002335552312)
(-0.0004470184356 -6.981674403e-19 -0.002320160447)
(-0.0004534649244 -4.365959673e-19 -0.002303990797)
(-0.0004586428972 -3.617067314e-19 -0.002287048111)
(-0.0004625071745 -2.414201008e-19 -0.002269338977)
(-0.0004650064235 -1.629557776e-19 -0.002250872442)
(-0.0004660823276 -5.247515142e-20 -0.002231660757)
(-0.000465668892 7.88312381e-20 -0.002211720499)
(-0.0004636914042 1.576395636e-19 -0.002191074135)
(-0.0004600657755 2.649019064e-19 -0.002169751798)
(-0.0004546980145 2.782809107e-19 -0.002147793349)
(-0.000447483952 3.282008976e-19 -0.002125251531)
(-0.0004383099077 3.898897698e-19 -0.002102195242)
(-0.0004270538212 4.156421451e-19 -0.002078712813)
(-0.0004135875013 4.574330494e-19 -0.002054916096)
(-0.0003977808311 5.133124841e-19 -0.002030944766)
(-0.0003795078866 5.441693654e-19 -0.002006970179)
(-0.0003586553544 6.00068894e-19 -0.001983198361)
(-0.0003351341979 5.528690073e-19 -0.001959871654)
(-0.0003088944709 5.321218406e-19 -0.001937268326)
(-0.0002799424885 5.230461366e-19 -0.00191569802)
(-0.0002483592122 5.157169816e-19 -0.001895492041)
(-0.000214316838 5.144359214e-19 -0.001876988997)
(-0.0001780897877 5.451398282e-19 -0.001860515858)
(-0.0001400611324 5.848496916e-19 -0.001846368829)
(-0.0001007170382 5.615209471e-19 -0.001834794225)
(-6.057633029e-05 5.504609086e-19 -0.001825970001)
(-2.012240939e-05 5.45195565e-19 -0.001820032786)
(-1.946783644e-05 -1.397164255e-19 -0.002536605347)
(-5.026277798e-05 -5.698498997e-19 -0.002535851389)
(-7.913477693e-05 -1.066831212e-18 -0.002534811183)
(-0.0001090338927 -9.372825455e-19 -0.002533088829)
(-0.0001382241388 -1.19338125e-18 -0.002530774933)
(-0.0001666063215 -9.584048235e-19 -0.002527867152)
(-0.0001941711763 -9.862346613e-19 -0.002524342684)
(-0.0002208682547 -9.890700362e-19 -0.002520179352)
(-0.0002466589227 -1.052187927e-18 -0.002515353357)
(-0.0002715128395 -1.056000329e-18 -0.002509839774)
(-0.0002954028388 -1.131990696e-18 -0.002503613542)
(-0.0003183043946 -1.13910612e-18 -0.002496651052)
(-0.0003401955511 -1.0883095e-18 -0.002488930358)
(-0.0003610556176 -1.176205038e-18 -0.00248043131)
(-0.0003808655874 -1.211524949e-18 -0.002471136464)
(-0.0003996071295 -1.218252612e-18 -0.002461030211)
(-0.0004172627054 -1.228493684e-18 -0.002450099501)
(-0.0004338147967 -1.253830669e-18 -0.002438332951)
(-0.0004492458198 -1.278476907e-18 -0.002425721111)
(-0.0004635373594 -1.208526289e-18 -0.002412255589)
(-0.0004766697715 -1.101884896e-18 -0.002397929248)
(-0.0004886215762 -1.006124864e-18 -0.002382735595)
(-0.0004993688142 -8.853668606e-19 -0.002366668335)
(-0.0005088841761 -7.818640904e-19 -0.002349721343)
(-0.0005171361838 -5.899959354e-19 -0.002331888245)
(-0.0005240882762 -4.680675478e-19 -0.002313162421)
(-0.0005296974907 -3.155508678e-19 -0.002293537022)
(-0.0005339132637 -1.862927566e-19 -0.002273005182)
(-0.0005366760422 -1.214778136e-20 -0.002251560405)
(-0.0005379156134 5.662255828e-20 -0.002229197554)
(-0.0005375491912 1.140769583e-19 -0.002205914091)
(-0.0005354795989 1.998343496e-19 -0.002181711493)
(-0.0005315930649 2.19305519e-19 -0.002156597526)
(-0.0005257569569 2.567305423e-19 -0.002130589455)
(-0.0005178179009 3.026163764e-19 -0.002103718043)
(-0.0005076001451 3.455648889e-19 -0.002076032448)
(-0.000494904583 3.895221247e-19 -0.002047606457)
(-0.0004795092135 4.336533083e-19 -0.002018546332)
(-0.0004611720851 4.722185796e-19 -0.001989000044)
(-0.0004396375797 5.077359227e-19 -0.001959167874)
(-0.0004146478057 5.100863529e-19 -0.001929313738)
(-0.0003859608304 5.104530156e-19 -0.001899775841)
(-0.0003533777365 5.139454046e-19 -0.001870973304)
(-0.0003167790041 5.318817219e-19 -0.001843404503)
(-0.0002761689075 5.648078636e-19 -0.00181763257)
(-0.0002317253094 5.355182659e-19 -0.001794255852)
(-0.0001838545588 5.252360234e-19 -0.001773864439)
(-0.0001332200989 5.858134324e-19 -0.001756976479)
(-8.062117595e-05 5.549986604e-19 -0.001743970689)
(-2.686867622e-05 5.365502201e-19 -0.001735127557)
(-2.183192805e-05 -5.89572549e-20 -0.002588680926)
(-5.634690302e-05 -1.916099617e-19 -0.002587838257)
(-8.870839669e-05 -1.04760585e-19 -0.002586658659)
(-0.0001222287019 -5.310281024e-19 -0.002584713243)
(-0.0001549402503 -9.55881326e-19 -0.002582109142)
(-0.0001867436506 -1.261665777e-18 -0.002578845)
(-0.0002176283679 -1.140881815e-18 -0.002574899449)
(-0.0002475393354 -1.181872584e-18 -0.002570252317)
(-0.0002764368154 -1.263174752e-18 -0.002564881363)
(-0.0003042905268 -1.443219765e-18 -0.002558762516)
(-0.0003310743838 -1.36860188e-18 -0.002551871532)
(-0.000356766513 -1.368824592e-18 -0.002544185546)
(-0.0003813478731 -1.358666242e-18 -0.002535682674)
(-0.0004048020373 -1.368807245e-18 -0.002526343198)
(-0.0004271145693 -1.380563593e-18 -0.002516149108)
(-0.0004482726463 -1.383028843e-18 -0.002505084543)
(-0.0004682645148 -1.405757329e-18 -0.002493135146)
(-0.0004870791732 -1.426792045e-18 -0.002480288394)
(-0.0005047058139 -1.392486762e-18 -0.002466532484)
(-0.0005211332752 -1.328440316e-18 -0.002451856474)
(-0.0005363494796 -1.245341655e-18 -0.002436249393)
(-0.0005503407786 -1.171422132e-18 -0.002419700029)
(-0.0005630911967 -1.111352218e-18 -0.002402196309)
(-0.0005745817324 -9.103204778e-19 -0.002383724565)
(-0.0005847892703 -7.644478972e-19 -0.002364269225)
(-0.0005936854111 -6.390568584e-19 -0.002343812349)
(-0.0006012352503 -5.466748215e-19 -0.002322333214)
(-0.0006073959185 -3.323909106e-19 -0.002299807991)
(-0.0006121146984 -1.554731745e-19 -0.002276209582)
(-0.0006153267489 -3.341259448e-20 -0.002251507921)
(-0.0006169527044 1.011162687e-19 -0.00222567041)
(-0.0006168956029 9.474330673e-20 -0.00219866234)
(-0.0006150371407 1.248126179e-19 -0.002170448372)
(-0.0006112334483 1.666309826e-19 -0.002140994752)
(-0.0006053099668 2.178424784e-19 -0.00211027227)
(-0.0005970558739 2.71862913e-19 -0.002078260848)
(-0.0005862177686 3.200706114e-19 -0.002044956168)
(-0.0005724931055 3.662718897e-19 -0.002010379102)
(-0.0005555243405 4.103293317e-19 -0.001974589031)
(-0.0005348946326 4.586463802e-19 -0.00193770189)
(-0.0005101276997 4.063507642e-19 -0.001899913898)
(-0.000480695424 4.671286111e-19 -0.00186153085)
(-0.0004460391124 5.195737791e-19 -0.001823001066)
(-0.0004056117083 4.936341138e-19 -0.001784948588)
(-0.000358949041 5.040520633e-19 -0.001748199741)
(-0.0003057799521 5.103030759e-19 -0.001713789702)
(-0.0002461892926 5.283960681e-19 -0.00168291557)
(-0.0001807845454 5.78062077e-19 -0.001656774923)
(-0.0001106213685 4.822311316e-19 -0.001636316062)
(-3.710128007e-05 4.936588737e-19 -0.001622234221)
(-2.434406698e-05 1.288378389e-20 -0.002645980092)
(-6.280811856e-05 3.585841945e-20 -0.002645038902)
(-9.887599462e-05 2.838824895e-20 -0.00264370439)
(-0.0001362423285 -7.342058802e-19 -0.002641507795)
(-0.0001726863346 -4.469785496e-19 -0.002638579404)
(-0.0002081114963 -1.131083093e-18 -0.002634918678)
(-0.0002425050102 -1.206376832e-18 -0.00263050694)
(-0.0002758067158 -1.374632276e-18 -0.002625327533)
(-0.0003079752976 -1.665597057e-18 -0.002619360541)
(-0.0003389800685 -1.70918152e-18 -0.002612583847)
(-0.0003687965015 -1.566638422e-18 -0.002604975637)
(-0.0003974052217 -1.600989841e-18 -0.002596514464)
(-0.0004247906946 -1.639614543e-18 -0.002587180001)
(-0.0004509411725 -1.576994185e-18 -0.002576953753)
(-0.0004758475236 -1.574518367e-18 -0.002565818545)
(-0.0004995031677 -1.566285155e-18 -0.002553759091)
(-0.0005219032143 -1.589563781e-18 -0.002540761111)
(-0.0005430440778 -1.624919013e-18 -0.002526811517)
(-0.0005629229779 -1.599705053e-18 -0.002511897813)
(-0.0005815373855 -1.498601124e-18 -0.002496007111)
(-0.0005988843042 -1.406185445e-18 -0.002479126094)
(-0.0006149596257 -1.308214826e-18 -0.002461240003)
(-0.0006297576778 -1.217846055e-18 -0.00244233199)
(-0.0006432700838 -1.015425687e-18 -0.002422382259)
(-0.0006554849156 -8.345849221e-19 -0.00240136738)
(-0.0006663856971 -7.495428371e-19 -0.002379259413)
(-0.0006759501674 -6.430378532e-19 -0.002356025034)
(-0.0006841487052 -4.753646684e-19 -0.0023316246)
(-0.0006909425011 -3.213101596e-19 -0.00230601136)
(-0.0006962812716 -1.890394395e-19 -0.00227913066)
(-0.0007001006349 -8.084046655e-20 -0.002250919117)
(-0.0007023185471 -4.06394805e-20 -0.002221303709)
(-0.0007028308945 1.485920287e-21 -0.002190201201)
(-0.0007015060808 5.386111407e-20 -0.002157518064)
(-0.0006981778517 1.211251507e-19 -0.002123150532)
(-0.0006926362704 2.114137738e-19 -0.002086985623)
(-0.0006846164676 3.381404356e-19 -0.002048904037)
(-0.0006737840936 3.079582424e-19 -0.002008785619)
(-0.0006597177061 3.351302436e-19 -0.0019665198)
(-0.0006418875219 3.977385471e-19 -0.001922023112)
(-0.0006196313823 4.739504256e-19 -0.001875267617)
(-0.0005921302743 4.071636228e-19 -0.001826326964)
(-0.0005583899058 3.830909624e-19 -0.001775447154)
(-0.000517237076 3.318304923e-19 -0.001723148393)
(-0.0004673461564 4.043163054e-19 -0.001670355887)
(-0.0004073345316 4.562856638e-19 -0.001618533037)
(-0.0003360107819 5.088351039e-19 -0.001569738269)
(-0.0002527804265 5.650489526e-19 -0.001526465036)
(-0.0001579443052 6.060828818e-19 -0.001491224057)
(-5.363906488e-05 5.347252259e-19 -0.001466284164)
(-2.699308519e-05 1.822783533e-19 -0.002708675943)
(-6.96171638e-05 3.566460206e-19 -0.002707627853)
(-0.0001095927274 -1.685535106e-19 -0.00270612855)
(-0.0001510127718 -6.855685504e-19 -0.002703647768)
(-0.0001913793971 -1.800270874e-19 -0.002700355136)
(-0.000230604525 -8.301156519e-19 -0.002696250697)
(-0.0002686716724 -1.164675629e-18 -0.002691319718)
(-0.0003055142842 -1.447442522e-18 -0.002685549959)
(-0.000341088386 -1.76870477e-18 -0.002678924876)
(-0.0003753627887 -1.803752747e-18 -0.00267142605)
(-0.0004083143534 -1.923152165e-18 -0.002663035031)
(-0.0004399258807 -1.790312849e-18 -0.00265373316)
(-0.0004701858786 -1.750393944e-18 -0.002643503335)
(-0.0004990872121 -1.760673963e-18 -0.002632329229)
(-0.0005266267442 -1.833928946e-18 -0.002620196406)
(-0.000552804403 -1.78427071e-18 -0.002607091181)
(-0.0005776227724 -1.753300308e-18 -0.002593001164)
(-0.000601086309 -1.733852759e-18 -0.002577914197)
(-0.000623200866 -1.732878683e-18 -0.002561818335)
(-0.0006439730342 -1.759112606e-18 -0.002544700915)
(-0.0006634095864 -1.592026481e-18 -0.002526547768)
(-0.0006815168345 -1.464789547e-18 -0.002507342566)
(-0.0006982997961 -1.315475178e-18 -0.002487065835)
(-0.0007137615057 -1.148072135e-18 -0.002465694092)
(-0.0007279023181 -9.832045825e-19 -0.002443198712)
(-0.0007407189186 -8.776214404e-19 -0.002419544867)
(-0.0007522032238 -7.554499997e-19 -0.002394690162)
(-0.0007623410964 -6.150873211e-19 -0.002368583308)
(-0.0007711108468 -4.718270983e-19 -0.002341162662)
(-0.0007784813958 -3.217473439e-19 -0.0023123546)
(-0.0007844100382 -1.583131608e-19 -0.002282071417)
(-0.000788839267 -1.854718159e-19 -0.00225020888)
(-0.0007916930313 -1.464239347e-19 -0.00221664356)
(-0.0007928717404 -9.895790821e-20 -0.002181229903)
(-0.0007922453933 -2.664386759e-20 -0.002143796358)
(-0.0007896446375 4.581470893e-20 -0.002104140819)
(-0.0007848478827 1.26985211e-19 -0.002062026235)
(-0.0007775642367 1.563846837e-19 -0.002017176484)
(-0.0007674091423 1.851538503e-19 -0.001969273367)
(-0.0007538705703 2.241800631e-19 -0.001917957833)
(-0.0007362616676 2.73101601e-19 -0.001862840055)
(-0.0007136549321 2.743288423e-19 -0.001803526346)
(-0.0006847912706 2.830821103e-19 -0.001739674878)
(-0.0006479568648 2.953861677e-19 -0.001671096337)
(-0.0006008236088 3.486950557e-19 -0.001597920293)
(-0.000540304011 4.128320072e-19 -0.00152087808)
(-0.000462603607 4.860086493e-19 -0.00144179416)
(-0.0003635112592 6.05042356e-19 -0.001364325672)
(-0.0002382846525 5.198481478e-19 -0.001294912702)
(-8.430273712e-05 4.584431614e-19 -0.001243525275)
(-2.975719349e-05 5.73564131e-19 -0.002776959198)
(-7.672734787e-05 -1.817518479e-19 -0.002775799347)
(-0.0001207900772 -2.769640835e-19 -0.002774101699)
(-0.0001664484399 -5.504246566e-19 -0.002771273619)
(-0.0002108984744 -3.403363249e-19 -0.002767538323)
(-0.0002540723562 -7.890846292e-19 -0.002762897951)
(-0.0002959472789 -1.144588757e-18 -0.002757342246)
(-0.0003364482804 -1.429588802e-18 -0.002750864815)
(-0.0003755282767 -1.731066309e-18 -0.002743454326)
(-0.0004131557945 -1.802444294e-18 -0.00273509784)
(-0.0004493084614 -2.00769723e-18 -0.002725781169)
(-0.0004839717875 -1.918386315e-18 -0.002715490405)
(-0.000517138256 -1.854621194e-18 -0.002704212238)
(-0.0005488059613 -1.95526627e-18 -0.002691934182)
(-0.0005789777424 -2.004932695e-18 -0.002678644613)
(-0.0006076604427 -2.007825519e-18 -0.002664333009)
(-0.0006348642032 -1.959222995e-18 -0.002648988789)
(-0.0006606014735 -1.89296436e-18 -0.002632601591)
(-0.000684886512 -1.855913137e-18 -0.002615160366)
(-0.0007077347139 -1.840527748e-18 -0.002596652533)
(-0.0007291618137 -1.738215032e-18 -0.002577063329)
(-0.0007491832506 -1.610411792e-18 -0.002556374837)
(-0.000767813417 -1.462402768e-18 -0.002534564843)
(-0.000785065074 -1.312841856e-18 -0.002511605929)
(-0.0008009485207 -1.190398706e-18 -0.002487464056)
(-0.000815470754 -1.049794765e-18 -0.002462097165)
(-0.000828634544 -9.096551506e-19 -0.00243545358)
(-0.0008404374177 -7.824326436e-19 -0.002407470165)
(-0.000850870382 -6.522371455e-19 -0.002378070311)
(-0.0008599166821 -5.213442783e-19 -0.002347161492)
(-0.0008675496502 -3.854209524e-19 -0.002314632135)
(-0.0008737308349 -3.13972003e-19 -0.00228034804)
(-0.0008784070534 -3.199812944e-19 -0.002244147156)
(-0.0008815064331 -2.974300346e-19 -0.002205834197)
(-0.0008829336594 -2.658068099e-19 -0.002165172576)
(-0.0008825630821 -1.499517315e-19 -0.002121874219)
(-0.000880228869 -6.888650149e-20 -0.002075586392)
(-0.0008757113816 -3.622963775e-21 -0.002025873931)
(-0.0008687164691 6.217266072e-20 -0.001972197216)
(-0.0008588448601 -1.543853666e-21 -0.001913883117)
(-0.0008455445688 8.408221738e-20 -0.001850088664)
(-0.0008280369165 1.362025355e-19 -0.001779757918)
(-0.0008051992037 1.751579842e-19 -0.001701575068)
(-0.0007753784457 2.136671882e-19 -0.001613930606)
(-0.0007360989366 2.836084703e-19 -0.001514962711)
(-0.0006836455489 4.03984471e-19 -0.001402853771)
(-0.0006125141707 3.345565695e-19 -0.001276736173)
(-0.0005139486476 3.116298118e-19 -0.001138658477)
(-0.0003703716359 2.672467827e-19 -0.0009977097595)
(-0.0001529857471 2.600393616e-19 -0.000878574713)
(-3.236977056e-05 -8.766439867e-19 -0.002848046349)
(-8.340391631e-05 -8.449313294e-19 -0.002846862407)
(-0.0001312809895 -2.17445007e-19 -0.002844946757)
(-0.0001809032749 7.873296337e-20 -0.002841783287)
(-0.0002291730671 -4.760738571e-19 -0.002837624609)
(-0.0002760415669 -7.959037038e-19 -0.00283247653)
(-0.0003214781633 -1.07676971e-18 -0.002826334817)
(-0.0003653994979 -1.278653309e-18 -0.002819200746)
(-0.0004077557112 -1.76162284e-18 -0.002811071011)
(-0.0004485145346 -1.958670383e-18 -0.002801939785)
(-0.0004876538456 -2.044598568e-18 -0.002791799486)
(-0.0005251614339 -2.07725059e-18 -0.002780643066)
(-0.0005610327575 -2.148476681e-18 -0.002768462838)
(-0.0005952701946 -2.221452623e-18 -0.002755252287)
(-0.0006278814861 -2.359764509e-18 -0.002741004524)
(-0.0006588789947 -2.37351076e-18 -0.002725713513)
(-0.0006882787322 -2.318871121e-18 -0.002709372979)
(-0.0007160994821 -2.173003194e-18 -0.002691975731)
(-0.0007423618131 -2.090226275e-18 -0.002673513614)
(-0.0007670874333 -2.073041712e-18 -0.002653976557)
(-0.0007902984356 -1.713494692e-18 -0.002633351509)
(-0.0008120164141 -1.604416948e-18 -0.002611621706)
(-0.0008322617834 -1.593347698e-18 -0.00258876563)
(-0.0008510530205 -1.49153922e-18 -0.002564755786)
(-0.0008684058603 -1.294377442e-18 -0.002539557402)
(-0.000884332441 -1.166735241e-18 -0.002513127019)
(-0.000898840511 -1.086466351e-18 -0.002485410794)
(-0.0009119323942 -9.838576869e-19 -0.002456342478)
(-0.0009236038779 -8.728542333e-19 -0.002425841182)
(-0.0009338429109 -7.637043835e-19 -0.002393808971)
(-0.0009426278983 -6.607536762e-19 -0.002360127322)
(-0.0009499262909 -5.885425083e-19 -0.002324653019)
(-0.0009556917853 -5.70298709e-19 -0.002287212885)
(-0.000959861532 -4.753951362e-19 -0.00224759718)
(-0.0009623523719 -3.841030833e-19 -0.002205550598)
(-0.0009630556076 -3.470704724e-19 -0.002160760609)
(-0.0009618308056 -3.063673757e-19 -0.002112841577)
(-0.0009584963331 -1.387250431e-19 -0.002061312441)
(-0.0009528161167 -1.166534877e-19 -0.002005566376)
(-0.0009444802169 -1.322048611e-19 -0.001944827336)
(-0.0009330744825 -1.124802732e-19 -0.001878087457)
(-0.0009180312728 6.297932521e-20 -0.001804015199)
(-0.0008985475965 1.328116851e-19 -0.001720819028)
(-0.0008734431322 8.064700454e-20 -0.00162604317)
(-0.0008409127278 7.499507744e-20 -0.00151625422)
(-0.000798086138 1.007236711e-19 -0.001386527255)
(-0.0007400928598 7.816084066e-20 -0.001229540831)
(-0.0006571474196 -1.23412009e-20 -0.001033744795)
(-0.0005245120655 -2.170216006e-19 -0.0007772700426)
(-0.0002685487249 -8.673773815e-20 -0.0004010225965)
(-3.474518349e-05 3.06040178e-19 -0.002922341906)
(-8.947818102e-05 -3.455721715e-19 -0.002921148442)
(-0.0001408040623 4.392127521e-20 -0.00291901209)
(-0.0001940019816 8.309769121e-19 -0.002915575018)
(-0.0002457387776 -7.468787535e-21 -0.002911053034)
(-0.0002959584958 -3.694992689e-19 -0.002905472453)
(-0.0003446263893 -1.019831726e-18 -0.002898838172)
(-0.0003916524856 -1.534633625e-18 -0.00289115989)
(-0.0004369841627 -1.88292931e-18 -0.002882443734)
(-0.0004805875095 -2.161726118e-18 -0.002872692112)
(-0.000522440616 -2.090627966e-18 -0.002861906236)
(-0.0005625324987 -2.18547183e-18 -0.002850086684)
(-0.0006008609434 -2.217103772e-18 -0.002837233531)
(-0.0006374311643 -2.132215139e-18 -0.002823346809)
(-0.0006722546154 -2.390161678e-18 -0.002808426758)
(-0.0007053477312 -2.680409543e-18 -0.002792472774)
(-0.0007367306655 -2.717594183e-18 -0.002775484178)
(-0.000766426614 -2.453512039e-18 -0.002757459171)
(-0.000794460537 -2.382675919e-18 -0.002738394013)