/*--------------------------------*- C++ -*----------------------------------*\
  =========                 |
  \\      /  F ield         | OpenFOAM: The Open Source CFD Toolbox
   \\    /   O peration     | Website:  https://openfoam.org
    \\  /    A nd           | Version:  7
     \\/     M anipulation  |
\*---------------------------------------------------------------------------*/
FoamFile
{
    version     2.0;
    format      ascii;
    class       volScalarField;
    location    "0.0009";
    object      generalizedNewtonian:nu;
}
// * * * * * * * * * * * * * * * * * * * * * * * * * * * * * * * * * * * * * //

dimensions      [0 2 -1 0 0 0 0];

internalField   nonuniform List<scalar> 
1167
(
6.567119078
6.544791472
6.582660276
6.555452807
6.540674517
6.521545163
6.497620463
6.469505173
6.437046677
6.400003922
6.358195665
6.311521482
6.259806277
6.202936882
6.140846757
6.073500054
6.000894357
5.923057273
5.840072595
5.752005307
5.658914365
5.560885564
5.457946469
5.350084748
5.237205686
5.119199772
4.99580581
4.866669227
4.73132153
4.589189116
4.439528969
4.28142321
4.11379123
3.935340577
3.744616032
6.311081762
6.289155701
6.325343034
6.29875512
6.283832971
6.264697998
6.240735486
6.212648067
6.180184876
6.14325207
6.101641263
6.055231271
6.003930517
5.947685702
5.886453301
5.820243066
5.749095756
5.673077551
5.592274904
5.506783231
5.416749595
5.322184337
5.22317821
5.119663083
5.011588237
4.89877694
4.780957424
4.6577496
4.528667958
4.393096523
4.250243956
4.099171617
3.938754705
3.767676237
3.5844628
3.387528596
3.175377313
2.946966265
2.702423313
2.44402412
2.177201476
1.910583779
1.654408399
1.417873392
1.206987304
1.024035382
0.8683297006
0.7374009128
0.6280203811
0.536842242
6.071228997
6.049604468
6.08405128
6.057823244
6.042518135
6.022980306
5.998615059
5.970101361
5.937240904
5.899892368
5.857996575
5.811418108
5.760107135
5.70404836
5.643256613
5.577783101
5.50770538
5.433135705
5.354217292
5.271056188
5.183749061
5.092424464
4.997060813
4.897664054
4.79412281
4.68624542
4.573740645
4.456200919
4.33312808
4.203851225
4.067548242
3.923254456
3.769812255
3.605911755
3.430059849
3.240708539
3.036451248
2.816434804
2.581102319
2.33316551
2.078394934
1.825352017
1.583646403
1.361464031
1.163836581
0.9924072588
0.8462480516
0.7229501517
0.6195027403
0.5328274948
5.845430319
5.824029127
5.856700215
5.830643384
5.814695752
5.794481621
5.76943761
5.740135501
5.706535545
5.668468881
5.625888602
5.578790468
5.52713871
5.470958397
5.410314997
5.345302219
5.276072102
5.202752502
5.125475585
5.044414429
4.959677018
4.871342564
4.779436817
4.683934026
4.584691547
4.48151133
4.374084435
4.261974444
4.144639164
4.021384533
3.891375939
3.753619747
3.606939607
3.450009723
3.281358673
3.099500108
2.903124244
2.691575354
2.465600308
2.228254255
1.985508275
1.745720105
1.517818197
1.309052419
1.123633705
0.9627222206
0.8252506885
0.7089080018
0.6109010719
0.5283955999
5.631770219
5.610533794
5.641425928
5.615366477
5.598583526
5.577515374
5.551542474
5.521251161
5.486626985
5.447609474
5.404157352
5.356293436
5.30407192
5.247572369
5.1869071
5.122211906
5.05365232
4.981393696
4.905652875
4.826537535
4.744207112
4.658708787
4.570100019
4.478282076
4.383138308
4.28445657
4.181863989
4.074924398
3.963069777
3.845581814
3.721613282
3.590148096
3.450011465
3.299873619
3.138288918
2.963823125
2.775292112
2.572246776
2.355699963
2.128977401
1.898122474
1.67117713
1.456368734
1.260108805
1.085937089
0.9346549682
0.8051265847
0.6951605178
0.6021718329
0.523548176
5.428536628
5.407435964
5.436544506
5.410326033
5.392598711
5.370566042
5.343486486
5.312072369
5.276278975
5.236135468
5.191671042
5.142940959
5.090049633
5.0331295
4.972338827
4.90785644
4.839908832
4.768675634
4.694338456
4.617097883
4.537043005
4.454284629
4.368791732
4.280505373
4.189296198
4.094880149
3.996896446
3.894890958
3.788270169
3.676303722
3.558130557
3.432722473
3.298912848
3.155379317
3.000715984
2.833555224
2.652834085
2.458291649
2.251178377
2.035013829
1.8158076
1.601215362
1.398779395
1.214169658
1.050377456
0.9079416589
0.7857079149
0.6816161351
0.5932782868
0.5182836844
5.234219765
5.21320499
5.240517401
5.214061407
5.195360908
5.172257711
5.144017658
5.111381415
5.07438705
5.033059048
4.987504393
4.937865686
4.884276396
4.826918427
4.766008187
4.701755492
4.634384764
4.564116977
4.491192446
4.415733978
4.337916646
4.257761303
4.175276171
4.090391608
4.002916021
3.912571205
3.818990309
3.72169654
3.620074431
3.513395015
3.400780899
3.281205185
3.153510557
3.016396252
2.868504925
2.70854274
2.535568963
2.34949835
2.151774469
1.946032578
1.738163311
1.535393447
1.344614281
1.17085127
1.016651321
0.8823648797
0.7668563029
0.668198832
0.5841888718
0.5125990533
5.04741191
5.026466975
5.052013922
5.025291398
5.005616799
4.981406653
4.952022283
4.918136334
4.879939873
4.837471425
4.790887304
4.740372754
4.686130853
4.628388235
4.567384109
4.503374986
4.43662464
4.367372773
4.295810837
4.222158152
4.146485017
4.068875652
3.989301459
3.907662586
3.823765506
3.737322066
3.647957349
3.555166996
3.458326581
3.356702799
3.249416423
3.135457167
3.013673919
2.882799948
2.741526834
2.588642728
2.423329078
2.245653845
2.057213379
1.861689934
1.664789677
1.473289945
1.293475832
1.129816739
0.9845013966
0.8577473723
0.7484570806
0.6548450832
0.5748766186
0.5064907371
4.86691159
4.846038983
4.869876029
4.84292691
4.822261442
4.796995714
4.766498132
4.731473057
4.692099416
4.648566341
4.601044221
4.549761987
4.494971297
4.436937148
4.375943052
4.312294705
4.246231762
4.178019008
4.107891969
4.035998213
3.962469245
3.887340972
3.810574523
3.732071961
3.651628014
3.568927664
3.48358376
3.395086759
3.302814319
3.206029985
3.103857717
2.995303905
2.879235821
2.754426427
2.619620604
2.473688654
2.315929152
2.146541228
1.967231178
1.781667537
1.595327575
1.414535344
1.245020289
1.090778241
0.9537064865
0.833933213
0.7304164524
0.6415021714
0.565318846
0.4999554242
4.691689217
4.670905746
4.693124552
4.665945897
4.644358437
4.618146637
4.586604377
4.550550616
4.510176043
4.465691901
4.41736044
4.365457924
4.310277005
4.252115495
4.191282192
4.12807835
4.062804877
3.995728373
3.927053697
3.856965373
3.785559039
3.712856438
3.638848607
3.563388336
3.48625068
3.407135375
3.32564181
3.24125187
3.153350419
3.061200982
2.963938771
2.860586506
2.750039443
2.631116032
2.502617929
2.363497215
2.21316117
2.051917809
1.881543564
1.705643843
1.529435489
1.358798426
1.198956548
1.053493339
0.9240818687
0.8107945787
0.7126517347
0.6281260958
0.5554972146
0.4929909809
4.520884204
4.500228827
4.520875907
4.49351499
4.471129696
4.444072907
4.411654691
4.374694421
4.333487155
4.288263595
4.239327145
4.186996302
4.131599783
4.073469111
4.012940881
3.95035587
3.885998874
3.820132303
3.752999038
3.684737302
3.615451053
3.545175377
3.473848233
3.401328709
3.327386603
3.251726002
3.173931764
3.093482435
3.009768284
2.922058054
2.829511221
2.731166953
2.625955407
2.512738968
2.390381411
2.257916494
2.114845579
1.961567561
1.799892378
1.633323126
1.46679723
1.305772292
1.155012379
1.017750059
0.8954725397
0.7882237824
0.6950960173
0.6146820351
0.5453974718
0.4855970826
4.353761844
4.333249456
4.352401548
4.324948694
4.301915276
4.274139433
4.241030125
4.203363719
4.161503094
4.115751344
4.066428051
4.013887452
3.958487687
3.900600568
3.840589329
3.77876715
3.715456934
3.650932825
3.585398585
3.519018532
3.451881887
3.383993159
3.315298345
3.245659312
3.174827327
3.102493644
3.028244404
2.951570134
2.871866097
2.78841196
2.700390276
2.606863775
2.506801283
2.399111426
2.282721007
2.156742416
2.020762922
1.87525017
1.722014828
1.564428996
1.407140181
1.255195776
1.112958112
0.9833623601
0.8677436354
0.766130282
0.6776938856
0.6011398686
0.5350092733
0.4777754556
4.189698735
4.169370178
4.187125725
4.159713334
4.136149508
4.107844786
4.074217198
4.03608185
3.993812632
3.94775248
3.898276017
3.845768667
3.790611491
3.733186108
3.673858218
3.612984967
3.550880663
3.487800232
3.42396874
3.359527936
3.294546036
3.229057749
3.162974745
3.096136432
3.028314525
2.959193451
2.888357695
2.815311966
2.73945933
2.660093162
2.576417842
2.487526625
2.392431285
2.290088887
2.179488036
2.05981719
1.930732621
1.79275293
1.647664742
1.498692838
1.350194419
1.206831015
1.072597787
0.9501731487
0.8407792533
0.7444399992
0.6603998296
0.5874769793
0.5243265873
0.4695308943
4.028230702
4.008137227
4.024613075
3.997344859
3.973403963
3.944776745
3.910825978
3.872444268
3.830020631
3.78392189
3.734551188
3.682318407
3.627627048
3.570876698
3.512461401
3.452720161
3.391959296
3.330466801
3.268422046
3.205977958
3.143208794
3.080108204
3.016594835
2.952508932
2.887627943
2.82162505
2.754089428
2.684534613
2.612374579
2.536931038
2.457428856
2.372995018
2.282683367
2.185501955
2.080501196
1.96694147
1.844543846
1.713856099
1.576617411
1.435885818
1.295729346
1.160464042
1.033753083
0.9180490932
0.8144824786
0.7230869022
0.6431769543
0.5736769263
0.5133473797
0.4608710337
3.869025634
3.84923211
3.864527093
3.83750252
3.813372868
3.784599771
3.750581161
3.712163703
3.669826738
3.623945224
3.574938468
3.523233057
3.469257876
3.413432624
3.356120862
3.297683969
3.238446277
3.17864573
3.118497147
3.05812374
2.997584355
2.936885691
2.875936111
2.814566596
2.752548982
2.689565268
2.625214686
2.559020577
2.490411073
2.418736188
2.343246012
2.263101293
2.177397892
2.085196724
1.98560979
1.877958326
1.762015342
1.638350232
1.50864374
1.375779691
1.243542407
1.115911414
0.9962703034
0.8868738848
0.788771557
0.7020186681
0.6259967985
0.5597291101
0.5020737497
0.451806394
3.7118796
3.692421285
3.706617241
3.679963046
3.655831613
3.627090242
3.593221998
3.555041337
3.513032476
3.467613927
3.4192275
3.368310753
3.315294272
3.26058908
3.204585856
3.147650675
3.09006446
3.032105119
2.973939989
2.915697657
2.857448788
2.799164311
2.740751629
2.682053405
2.622842909
2.562802193
2.501541558
2.438594938
2.373408837
2.305355639
2.233714151
2.157686883
2.076411969
1.989001916
1.894628568
1.792676253
1.682958861
1.566049353
1.443549001
1.318170888
1.193436929
1.073013587
0.9600173036
0.8565456047
0.7635785093
0.681192886
0.6088386312
0.545627952
0.4905116692
0.4423509737
3.556629247
3.537557173
3.550754959
3.524618288
3.500625445
3.472133067
3.438601654
3.400886916
3.359464717
3.314765963
3.2672429
3.217342942
3.165504093
3.112147342
3.057660279
3.002371653
2.94661429
2.890592761
2.83451694
2.778483905
2.722547995
2.666690582
2.610817746
2.554767132
2.498308167
2.441131046
2.382862207
2.32304846
2.261157848
2.196585455
2.128645107
2.056576861
1.979561793
1.896763112
1.807409806
1.710933033
1.607189965
1.496755222
1.381141984
1.262883829
1.145245861
1.031620971
0.9248818151
0.8269799055
0.7388463413
0.66057581
0.5916868189
0.531372813
0.4786710601
0.4325220031
3.403234988
3.384603197
3.396911689
3.371399125
3.347695627
3.319640513
3.286663735
3.249612892
3.209003638
3.165258146
3.118830599
3.070174904
3.019748351
2.967939875
2.915130782
2.861681831
2.807858023
2.753914451
2.70000182
2.6462352
2.592667501
2.539257107
2.485908305
2.432468006
2.378708897
2.32433318
2.26897428
2.212193584
2.153485251
2.092266939
2.027881952
1.959610781
1.886679653
1.808303384
1.723771566
1.632557805
1.534549169
1.430298286
1.321243855
1.209746992
1.098823419
0.9916080073
0.890763388
0.7981051056
0.714526858
0.6401415568
0.5745321279
0.5169677133
0.4665657382
0.4223398147
3.251745454
3.233613826
3.245121635
3.220318089
3.197072738
3.169599867
3.137378821
3.101210578
3.06161291
3.019031573
2.97391986
2.926728563
2.877887803
2.827799049
2.776860292
2.725372946
2.673632888
2.621844922
2.57019259
2.518757803
2.46757853
2.416624634
2.36580386
2.314955955
2.263854997
2.212212717
2.159679178
2.105832328
2.050190998
1.992199585
1.931236064
1.866615121
1.797607656
1.72347789
1.643560333
1.557380608
1.464857471
1.366514954
1.263698747
1.158608835
1.054034516
0.9528645067
0.8575758717
0.7698621066
0.6905826474
0.6198714745
0.5573710864
0.5024208923
0.4542125704
0.4118277765
3.102295499
3.084691694
3.095460703
3.071462507
3.048814256
3.022073715
2.990766049
2.955665676
2.91728177
2.876057966
2.832445281
2.786890083
2.739813594
2.691633069
2.642686495
2.593304958
2.543744548
2.494227401
2.444887756
2.395831983
2.347085096
2.298602283
2.250292876
2.202003802
2.153514373
2.104552164
2.054774561
2.003777548
1.951102334
1.896219372
1.838539619
1.777417429
1.712168153
1.642108481
1.566615561
1.485255169
1.397960594
1.305243852
1.208357895
1.109334853
1.010759589
0.9152983286
0.8252472978
0.742201789
0.6669843818
0.5997541305
0.5402051449
0.4877444051
0.441631649
0.4010121149
2.955014257
2.937975441
2.948080777
2.924993953
2.903031708
2.877176408
2.846914146
2.813029161
2.776021924
2.736321764
2.694372889
2.650622579
2.605479089
2.559321424
2.512503449
2.465332621
2.418053663
2.370865665
2.323915693
2.277278911
2.230975274
2.18496872
2.139168344
2.093417703
2.04750214
2.001157991
1.954060056
1.905824396
1.856013565
1.804128847
1.749612212
1.691854259
1.630210712
1.564040765
1.492773858
1.416017328
1.333714156
1.246342557
1.155081527
1.061805943
0.9688948951
0.8788224259
0.7937163263
0.7150822682
0.6437100375
0.5797823266
0.52304015
0.4729539093
0.4288461075
0.3899215451
2.810107424
2.793669144
2.803190796
2.781065817
2.759888055
2.735022873
2.705950474
2.673409734
2.637907978
2.59987125
2.559732439
2.517913039
2.474807994
2.43079738
2.386213456
2.341336657
2.296414753
2.25162521
2.207093703
2.162909327
2.119074136
2.075544333
2.0322307
1.988983611
1.945599386
1.901822981
1.857340659
1.811790582
1.764754404
1.715758107
1.66427884
1.609746522
1.551560084
1.489119508
1.421892643
1.349519523
1.27196831
1.1896808
1.103745939
1.015907293
0.9283499817
0.84336534
0.7629328311
0.6884713689
0.6207440205
0.5599541385
0.5058859171
0.4580682065
0.4158816591
0.3785869835
2.667824805
2.652023616
2.661011235
2.639887032
2.619593918
2.595783868
2.567995299
2.536913969
2.503032246
2.466765811
2.428534832
2.388743617
2.347784654
2.306010878
2.263726817
2.221223982
2.178705852
2.136353657
2.094285606
2.052561177
2.011187939
1.970131501
1.92929289
1.888523216
1.847626172
1.806358231
1.764421599
1.721476231
1.677127416
1.630924311
1.582374112
1.53094009
1.476059534
1.417182855
1.353816834
1.285628709
1.212589272
1.13512683
1.054241847
0.9715411679
0.8890444943
0.8088655342
0.7328540849
0.6623439802
0.5980768922
0.540272523
0.4887557476
0.4431088425
0.4027662753
0.3670412981
1.985330028
1.946078395
1.90716982
1.868562775
1.830165571
1.791834463
1.753383679
1.714575447
1.675126262
1.634713022
1.592960438
1.54944863
1.50371727
1.455262633
1.403557666
1.348087662
1.288401031
1.224200089
1.155455607
1.082564914
1.006461904
0.9286192579
0.8509054329
0.7752703759
0.7034438811
0.6366813415
0.5757042228
0.5207443563
0.4716659779
0.4280998304
0.3895298132
0.3553188888
)
;

boundaryField
{
    front_top
    {
        type            wedge;
    }
    front_middle
    {
        type            wedge;
    }
    front_bottom
    {
        type            wedge;
    }
    back_top
    {
        type            wedge;
    }
    back_middle
    {
        type            wedge;
    }
    back_bottom
    {
        type            wedge;
    }
    axis_top
    {
        type            symmetryPlane;
    }
    axis_middle
    {
        type            symmetryPlane;
    }
    axis_bottom
    {
        type            symmetryPlane;
    }
    wall_top
    {
        type            calculated;
        value           nonuniform 0();
    }
    wall_middle
    {
        type            calculated;
        value           nonuniform List<scalar> 
23
(
0.498606243
0.4962560844
0.4933878247
0.4900151861
0.4861460794
0.481785179
0.4769353625
0.4715986432
0.4657773708
0.4594751834
0.4526971573
0.445451247
0.4377479711
0.4296003443
0.4210248806
0.4120411218
0.4026715555
0.3929416887
0.3828798085
0.3725165531
0.3618846548
0.3510187166
0.3399547612
)
;
    }
    wall_bottom
    {
        type            calculated;
        value           nonuniform 0();
    }
    inlet
    {
        type            calculated;
        value           nonuniform 0();
    }
    outlet
    {
        type            calculated;
        value           nonuniform 0();
    }
    procBoundary4to3
    {
        type            processor;
        value           nonuniform List<scalar> 
51
(
2.528446196
2.513289519
2.521779288
2.501699648
2.482342505
2.459672379
2.433219482
2.403671862
2.37148894
2.337072035
2.300826603
2.263151833
2.224404374
2.184914663
2.145001957
2.104895674
2.064827253
2.024932944
2.024932944
1.880115556
1.843314292
1.806847099
1.770670417
1.734687177
1.698755996
1.662698151
1.626288871
1.589260993
1.551309065
1.512076559
1.471169518
1.428152076
1.382554374
1.333893063
1.281686093
1.225513418
1.165104329
1.100441709
1.031888351
0.9603106871
0.8870653024
0.8138708987
0.7425368169
0.6746740342
0.6114699631
0.5536245833
0.5013798539
0.454635648
0.413067232
0.3762036936
0.343455398
)
;
    }
    procBoundary4to5
    {
        type            processor;
        value           nonuniform List<scalar> 
51
(
6.841734106
6.818867649
6.858319165
6.830173475
6.8152112
6.795667404
6.771292971
6.742649941
6.709604699
6.671855152
6.629305391
6.581735768
6.528970855
6.470880131
6.407365367
6.338353467
6.26380871
6.1837204
6.098116904
6.007034498
5.910550003
5.808710094
5.70151615
5.588998591
5.471052098
5.347543531
5.218292303
5.082947494
4.941068355
4.792108148
4.63537514
4.469989407
4.294911372
4.108895899
3.910507999
3.540014845
3.540014845
3.319968307
3.083277484
2.829709326
2.561074514
2.282326929
2.001979871
1.730756027
1.478908371
1.253613119
1.057998576
0.8917492821
0.7523981789
0.6365050837
0.5404338558
)
;
    }
}


// ************************************************************************* //
