/*--------------------------------*- C++ -*----------------------------------*\
  =========                 |
  \\      /  F ield         | OpenFOAM: The Open Source CFD Toolbox
   \\    /   O peration     | Website:  https://openfoam.org
    \\  /    A nd           | Version:  7
     \\/     M anipulation  |
\*---------------------------------------------------------------------------*/
FoamFile
{
    version     2.0;
    format      ascii;
    class       volScalarField;
    location    "0.0009";
    object      p;
}
// * * * * * * * * * * * * * * * * * * * * * * * * * * * * * * * * * * * * * //

dimensions      [1 -1 -2 0 0 0 0];

internalField   nonuniform List<scalar> 
1167
(
1349548.657
1360029.329
1357699.606
1358432.998
1359726.551
1361162.233
1362832.061
1364720.415
1366801.831
1369056.805
1371468.09
1374018.78
1376692.866
1379475.483
1382352.879
1385312.247
1388341.791
1391430.69
1394569.064
1397747.935
1400959.156
1404195.62
1407450.692
1410718.894
1413995.044
1417274.747
1420554.317
1423830.496
1427100.469
1430361.93
1433613.114
1436852.621
1440079.525
1443293.279
1446493.582
1345636.929
1356122.057
1353807.636
1354510.388
1355786.666
1357202.105
1358847.1
1360708.487
1362760.765
1364985.347
1367364.652
1369882.443
1372523.039
1375271.758
1378114.935
1381039.878
1384034.818
1387088.942
1390192.384
1393336.182
1396512.217
1399713.113
1402932.58
1406164.789
1409404.707
1412648.031
1415890.977
1419130.325
1422363.242
1425587.53
1428801.439
1432003.549
1435192.884
1438368.665
1441530.324
1444676.952
1447806.563
1450914.593
1453991.222
1457018.314
1459967.342
1462801.225
1465481.022
1467975.111
1470264.958
1472343.433
1474211.521
1475898.262
1477497.185
1479007.122
1341609.557
1352093.837
1349795.868
1350467.895
1351726.631
1353121.516
1354741.55
1356576.119
1358599.528
1360793.99
1363142.478
1365628.56
1368237.031
1370953.521
1373764.465
1376657.274
1379620.142
1382642.304
1385713.844
1388825.662
1391969.777
1395138.747
1398326.183
1401526.248
1404734.025
1407945.113
1411155.756
1414362.768
1417563.439
1420755.598
1423937.45
1427107.603
1430265
1433408.718
1436537.827
1439650.782
1442744.574
1445812.994
1448844.066
1451817.2
1454702.195
1457462.439
1460062.358
1462475.751
1464689.761
1466701.784
1468515.865
1470162.637
1471734.376
1473224.053
1337455.298
1347934.362
1345654.194
1346296.064
1347537.542
1348912.14
1350508.136
1352316.586
1354312.652
1356478.3
1358797.431
1361253.986
1363832.8
1366519.63
1369301.065
1372164.568
1375098.393
1378091.762
1381134.653
1384218.054
1387333.635
1390474.285
1393633.257
1396805.023
1399984.488
1403167.271
1406349.772
1409528.795
1412701.748
1415866.471
1419021.157
1422164.417
1425295.076
1428412.105
1431514.182
1434599.146
1437662.931
1440697.705
1443689.39
1446615.341
1449444.346
1452140.877
1454672.812
1457018.774
1459170.564
1461129.031
1462900.409
1464516.393
1466067.963
1467542.551
1333163.659
1343633.907
1341373.05
1341985.841
1343210.569
1344566.112
1346139.7
1347923.704
1349894.391
1352033.886
1354326.166
1356755.818
1359307.883
1361968.211
1364723.454
1367561.074
1370469.347
1373437.408
1376455.196
1379513.564
1382604.361
1385720.096
1388854.38
1392001.489
1395156.312
1398314.69
1401473.045
1404628.231
1407777.686
1410919.309
1414051.367
1417172.468
1420281.315
1423376.654
1426456.786
1429518.944
1432558.013
1435564.621
1438522.799
1441408.18
1444189.027
1446831.28
1449306.201
1451596.639
1453698.157
1455614.214
1457352.607
1458945.756
1460483.415
1461947.725
1328724.614
1339183.387
1336943.467
1337528.431
1338737.532
1340076.123
1341629.295
1343391.622
1345339.468
1347455.841
1349724.856
1352131.091
1354659.952
1357297.434
1360030.185
1362845.639
1365732.04
1368678.417
1371674.732
1374711.778
1377781.227
1380875.763
1383988.95
1387114.915
1390248.832
1393386.623
1396524.619
1399659.81
1402789.765
1405912.408
1409026.084
1412129.378
1415220.932
1418299.268
1421362.271
1424406.484
1427425.77
1430409.337
1433339.534
1436190.665
1438930.888
1441527.813
1443955.853
1446201.469
1448263.242
1450146.601
1451860.459
1453437.771
1454967.207
1456425.783
1324128.849
1334574.254
1332356.794
1332915.512
1334110.903
1335435.09
1336970.551
1338714.423
1340643.037
1342739.739
1344989.147
1347376.033
1349885.797
1352504.499
1355218.822
1358016.096
1360884.591
1363813.194
1366791.788
1369811.095
1372862.898
1375939.839
1379035.367
1382143.835
1385260.52
1388381.263
1391502.51
1394621.424
1397735.673
1400843.261
1403942.577
1407032.156
1410110.598
1413176.196
1416226.455
1419257.252
1422261.429
1425226.845
1428134.38
1430957.356
1433664.146
1436224.116
1438614.562
1440824.985
1442856.348
1444715.545
1446412.324
1447980.071
1449506.533
1450963.699
1319367.453
1329798.287
1327604.842
1328139.427
1329323.715
1330636.229
1332157.545
1333886.362
1335800.011
1337881.377
1340115.442
1342487.287
1344982.305
1347586.57
1350286.754
1353070.032
1355924.58
1358839.27
1361803.955
1364809.3
1367847.103
1370909.946
1373991.414
1377085.961
1380188.805
1383295.968
1386404.066
1389510.359
1392612.569
1395708.825
1398797.551
1401877.262
1404946.482
1408003.292
1411044.832
1414066.339
1417059.687
1420011.513
1422901.452
1425702.13
1428382.355
1430913.233
1433274.636
1435458.587
1437467.915
1439310.576
1440996.917
1442560.754
1444089.113
1445548.998
1314431.978
1324848.012
1322680.286
1323193.441
1324369.242
1325673.343
1327184.46
1328902.344
1330805.092
1332875.843
1335099.424
1337460.93
1339945.835
1342540.173
1345230.49
1348004.038
1350848.82
1353753.653
1356708.229
1359703.397
1362730.763
1365783.15
1368854.037
1371938.02
1375030.514
1378127.588
1381226.028
1384323.198
1387416.885
1390505.319
1393586.983
1396660.428
1399724.079
1402775.808
1405812.382
1408828.439
1411814.961
1414757.487
1417634.626
1420418.563
1423078.684
1425587.75
1427927.873
1430093.207
1432088.043
1433921.079
1435603.034
1437168.15
1438702.961
1440169.515
1309315.034
1319716.714
1317576.584
1318071.126
1319241.11
1320540.65
1322045.5
1323757.27
1325653.704
1327718.422
1329936.276
1332292.309
1334771.946
1337361.081
1340046.178
1342814.405
1345653.583
1348552.538
1351500.965
1354489.611
1357510.282
1360555.658
1363619.434
1366696.333
1369781.927
1372872.289
1375964.345
1379055.635
1382144.092
1385228.044
1388305.995
1391376.53
1394437.99
1397488.067
1400523.169
1403537.361
1406520.825
1409458.135
1412327.069
1415099.58
1417745.732
1420239.801
1422565.809
1424719.64
1426706.741
1428536.352
1430219.448
1431790.645
1433336.194
1434813.205
1304009.795
1314398.418
1312287.57
1312766.058
1313933.412
1315232.458
1316735.283
1318445.491
1320340.883
1322404.602
1324621.708
1326977.217
1329456.464
1332045.151
1334729.542
1337496.729
1340334.525
1343231.645
1346177.779
1349163.719
1352181.25
1355223.155
1358283.367
1361356.582
1364438.45
1367525.325
1370614.281
1373702.939
1376789.379
1379872.036
1382949.453
1386020.234
1389082.652
1392134.245
1395171.096
1398186.735
1401170.634
1404106.535
1406971.579
1409737.635
1412375.494
1414860.866
1417179.396
1419328.273
1421313.79
1423145.598
1424834.859
1426416.584
1427976.92
1429468.013
1298509.818
1308887.293
1306807.099
1307272.318
1308440.63
1309743.031
1311248.59
1312961.768
1314860.934
1316928.949
1319150.555
1321510.615
1323994.294
1326587.182
1329275.483
1332046.13
1334886.772
1337786.077
1340733.829
1343720.755
1346738.796
1349780.795
1352840.743
1355913.584
1358995.026
1362081.658
1365170.702
1368259.855
1371347.329
1374431.667
1377511.524
1380585.513
1383651.842
1386707.898
1389749.475
1392769.625
1395757.201
1398695.272
1401560.518
1404324.839
1406959.732
1409442.185
1411759.225
1413909.115
1415898.71
1417737.868
1419437.912
1421034.314
1422613.281
1424121.93
1292808.693
1303177.421
1301129.315
1301584.417
1302757.144
1304066.866
1305579.773
1307300.938
1309208.743
1311285.997
1313517.144
1315886.812
1318379.91
1320981.873
1323678.704
1326457.1
1329304.79
1332210.341
1335163.536
1338155.224
1341177.339
1344222.858
1347285.941
1350361.746
1353446.02
1356535.49
1359627.57
1362720.145
1365811.571
1368900.454
1371985.559
1375065.518
1378138.506
1381201.776
1384250.864
1387278.406
1390272.711
1393216.309
1396085.565
1398852.548
1401489.495
1403974.432
1406295.483
1408451.78
1410450.599
1412301.851
1414016.948
1415631.875
1417233.07
1418762.567
1286900.206
1297263.225
1295248.67
1295696.817
1296877.094
1298198.41
1299722.89
1301457.059
1303378.7
1305470.239
1307715.948
1310100.214
1312607.62
1315223.253
1317933.035
1320723.61
1323582.491
1326498.309
1329460.817
1332460.948
1335490.68
1338543.236
1341612.849
1344694.73
1347784.912
1350880.281
1353978.383
1357077.289
1360175.501
1363271.691
1366364.701
1369453.219
1372535.418
1375608.44
1378667.592
1381705.179
1384709.072
1387661.373
1390538.236
1393311.962
1395955.506
1398447.884
1400778.055
1402945.72
1404958.462
1406826.183
1408560.302
1410197.341
1411824.154
1413377.635
1280778.236
1291139.24
1289159.566
1289603.459
1290794.595
1292131.647
1293672.143
1295423.734
1297364.152
1299475.103
1301740.421
1304144.127
1306670.526
1309304.56
1312031.915
1314838.947
1317713.178
1320643.229
1323618.865
1326631.113
1329672.047
1332734.994
1335814.378
1338905.552
1342004.76
1345109.03
1348216.038
1351324.027
1354431.633
1357537.694
1360641.137
1363740.684
1366834.51
1369919.675
1372991.295
1376041.389
1379057.502
1382021.432
1384909.289
1387693.648
1390348.049
1392852.361
1395196.286
1397379.891
1399410.878
1401299.071
1403055.863
1404718.355
1406373.975
1407954.408
1274436.499
1284799.587
1282855.744
1283297.92
1284503.427
1285859.913
1287421.11
1289194.685
1291158.491
1293293.642
1295583.442
1298011.463
1300561.677
1303218.757
1305967.965
1308795.755
1311689.429
1314637.663
1317630.228
1320658.225
1323713.829
1326790.568
1329883.016
1332986.631
1336097.834
1339213.863
1342332.561
1345452.331
1348571.936
1351690.38
1354806.677
1357919.591
1361027.31
1364126.848
1367213.179
1370278.125
1373308.955
1376287.251
1379189.179
1381987.69
1384656.929
1387177.363
1389539.264
1391742.978
1393796.17
1395708.523
1397491.367
1399182.422
1400869.825
1402479.994
1267868.012
1278237.463
1276330.202
1276773.489
1277996.596
1279376.216
1280962.154
1282762.526
1284754.426
1286918.479
1289237.523
1291694.625
1294273.203
1296957.657
1299733.173
1302585.879
1305503.101
1308473.42
1311486.7
1314534.043
1317607.849
1320701.728
1323810.386
1326929.5
1330055.703
1333186.361
1336319.504
1339453.7
1342587.833
1345721.044
1348852.463
1351980.946
1355104.714
1358220.744
1361323.879
1364405.827
1367453.681
1370448.97
1373367.92
1376183.834
1378871.487
1381411.898
1383795.655
1386023.276
1388102.312
1390042.223
1391854.254
1393576.759
1395298.713
1396941.217
1261064.673
1271445.277
1269575.468
1270022.661
1271266.161
1272672.832
1274287.334
1276118.628
1278143.284
1280340.968
1282693.874
1285184.536
1287796.105
1290512.558
1293318.662
1296200.449
1299145.265
1302141.57
1305179.279
1308249.594
1311345.018
1314459.348
1317587.441
1320725.144
1323869.256
1327017.322
1330167.567
1333318.735
1336469.844
1339620.16
1342768.936
1345915.137
1349057.021
1352191.555
1355313.559
1358414.598
1361481.637
1364496.278
1367434.967
1370271.363
1372980.725
1375544.594
1377953.769
1380208.768
1382316.972
1384287.559
1386131.655
1387888.278
1389647.349
1391324.611
1254017.815
1264414.83
1262583.265
1263036.623
1264303.441
1265740.701
1267387.936
1269254.234
1271315.909
1273551.71
1275943.042
1278471.879
1281121.015
1283873.699
1286714.658
1289629.752
1292606.099
1295632.257
1298698.133
1301794.964
1304915.504
1308053.636
1311204.318
1314363.62
1317528.557
1320696.836
1323866.852
1327037.505
1330208
1333377.736
1336546.073
1339712.074
1342874.058
1346028.992
1349171.744
1352293.83
1355382.21
1358418.488
1361379.393
1364239.073
1366973.21
1369563.699
1372001.514
1374287.05
1376427.451
1378431.556
1380310.353
1382103.546
1383902.109
1385616.373
1246717.722
1257136.672
1255343.787
1255805.35
1257098.602
1258569.6
1260253.523
1262159.149
1264262.109
1266540.412
1268974.691
1271546.202
1274237.034
1277030.321
1279910.471
1282862.942
1285874.885
1288934.731
1292032.511
1295159.533
1298308.604
1301473.805
1304650.301
1307834.315
1311023.011
1314214.28
1317406.709
1320599.357
1323791.61
1326983.006
1330173.051
1333360.898
1336544.951
1339722.244
1342887.614
1346032.576
1349144.21
1352204.307
1355189.812
1358075.32
1360837.016
1363457.021
1365926.403
1368245.356
1370420.715
1372460.929
1374376.832
1376208.834
1378049.053
1379802.371
1239153.178
1249599.569
1247845.602
1248317.783
1249640.225
1251148.373
1252872.425
1254821.371
1256969.972
1259295.157
1261776.704
1264395.263
1267132.365
1269970.736
1272894.195
1275888.258
1278939.766
1282037.294
1285170.729
1288331.526
1291512.694
1294708.374
1297913.88
1301125.652
1304341.022
1307558.113
1310775.673
1313992.887
1317209.317
1320424.668
1323638.566
1326850.277
1330058.294
1333259.766
1336449.587
1339619.333
1342756.101
1345841.977
1348854.307
1351768.033
1354559.807
1357211.982
1359715.57
1362070.539
1364283.351
1366362.034
1368317.232
1370190.07
1372073.905
1373868.14
1231310.838
1241790.569
1240076.058
1240561.246
1241915.341
1243464.199
1245232.077
1247228.149
1249426.503
1251802.88
1254336.145
1257006.295
1259794.132
1262681.771
1265652.927
1268692.701
1271787.936
1274927.024
1278099.989
1281298.35
1284515.156
1287744.705
1290982.549
1294225.283
1297470.391
1300716.17
1303961.567
1307205.918
1310448.935
1313690.525
1316930.459
1320168.127
1323402.131
1326629.64
1329845.661
1333041.929
1336205.733
1339319.314
1342360.486
1345304.664
1348128.82
1350815.537
1353355.707
1355749.024
1358001.532
1360120.805
1362117.269
1364032.77
1365961.976
1367798.805
1223176.133
1233695.457
1232020.887
1232520.943
1233909.473
1235502.113
1237317.817
1239365.047
1241617.294
1244049.225
1246638.719
1249364.776
1252207.661
1255149.142
1258172.296
1261262.158
1264405.27
1267590.076
1270806.477
1274046.198
1277302.39
1280569.426
1283842.994
1287119.905
1290397.833
1293675.273
1296951.321
1300225.505
1303497.703
1306767.935
1310036.108
1313301.78
1316563.705
1319819.181
1323063.278
1326287.811
1329480.385
1332623.567
1335695.498
1338672.147
1341530.804
1344254.212
1346833.11
1349266.864
1351561.053
1353722.793
1355762.272
1357722.049
1359698.176
1361579.081
1263275.238
1266560.315
1269859.65
1273167.867
1276480.786
1279795.345
1283109.387
1286421.579
1289731.186
1293037.936
1296341.92
1299643.273
1302942.065
1306237.979
1309529.841
1312815.15
1316089.157
1319343.815
1322566.898
1325741.438
1328845.991
1331856.963
1334752.044
1337514.052
1340133.585
1342609.629
1344947.267
1347153.133
1349237.152
1351242.607
1353266.99
1355193.254
)
;

boundaryField
{
    front_top
    {
        type            wedge;
    }
    front_middle
    {
        type            wedge;
    }
    front_bottom
    {
        type            wedge;
    }
    back_top
    {
        type            wedge;
    }
    back_middle
    {
        type            wedge;
    }
    back_bottom
    {
        type            wedge;
    }
    axis_top
    {
        type            symmetryPlane;
    }
    axis_middle
    {
        type            symmetryPlane;
    }
    axis_bottom
    {
        type            symmetryPlane;
    }
    wall_top
    {
        type            fixedFluxPressure;
        gradient        nonuniform 0();
        value           nonuniform 0();
    }
    wall_middle
    {
        type            fixedFluxPressure;
        gradient        uniform 0;
        value           nonuniform List<scalar> 
23
(
1479007.122
1473224.053
1467542.551
1461947.725
1456425.783
1450963.699
1445548.998
1440169.515
1434813.205
1429468.013
1424121.93
1418762.567
1413377.635
1407954.408
1402479.994
1396941.217
1391324.611
1385616.373
1379802.371
1373868.14
1367798.805
1361579.081
1355193.254
)
;
    }
    wall_bottom
    {
        type            fixedFluxPressure;
        gradient        nonuniform 0();
        value           nonuniform 0();
    }
    inlet
    {
        type            zeroGradient;
    }
    outlet
    {
        type            fixedValue;
        value           nonuniform 0();
    }
    procBoundary4to3
    {
        type            processor;
        value           nonuniform List<scalar> 
51
(
1214732.659
1225297.987
1223663.554
1224180.444
1225606.362
1227245.892
1229112.864
1231215.401
1233525.882
1236017.756
1238667.877
1241454.501
1244357.212
1247357.012
1250436.724
1253581.076
1256776.496
1260011.189
1260011.189
1255489.879
1258824.546
1262171.199
1265524.508
1268880.482
1272236.235
1275589.842
1278940.113
1282286.452
1285628.778
1288967.315
1292302.343
1295634.139
1298962.556
1302286.571
1305603.75
1308909.505
1312196.082
1315451.498
1318659.109
1321798.028
1324845.071
1327778.321
1330580.644
1333242.485
1335762.426
1338145.049
1340396.473
1342526.337
1344578.659
1346652.42
1348625.123
)
;
    }
    procBoundary4to5
    {
        type            processor;
        value           nonuniform List<scalar> 
51
(
1353356.11
1363826.368
1361482.342
1362245.629
1363555.313
1365010.594
1366704.075
1368618.744
1370728.283
1373013.446
1375456.493
1378039.915
1380747.785
1383565.166
1386478.005
1389473.383
1392539.448
1395665.351
1398841.124
1402057.948
1405307.631
1408582.889
1411877.39
1415185.36
1418501.899
1421822.427
1425143.211
1428461.053
1431773.175
1435077.187
1438371.284
1441654.136
1444924.842
1448183.027
1451428.65
1449680.125
1449680.125
1452851.908
1456005.9
1459134.566
1462222.653
1465244.08
1468161.984
1470934.439
1473524.019
1475905.384
1478065.446
1480000.898
1481738.403
1483372.536
1484908.387
)
;
    }
}


// ************************************************************************* //
