/*--------------------------------*- C++ -*----------------------------------*\
  =========                 |
  \\      /  F ield         | OpenFOAM: The Open Source CFD Toolbox
   \\    /   O peration     | Website:  https://openfoam.org
    \\  /    A nd           | Version:  7
     \\/     M anipulation  |
\*---------------------------------------------------------------------------*/
FoamFile
{
    version     2.0;
    format      ascii;
    class       surfaceScalarField;
    location    "0.0009";
    object      phi;
}
// * * * * * * * * * * * * * * * * * * * * * * * * * * * * * * * * * * * * * //

dimensions      [1 0 -1 0 0 0 0];

internalField   nonuniform List<scalar> 
2260
(
-6.188549247e-13
6.481498376e-11
-2.421358018e-12
1.895036088e-10
-5.313205e-12
3.067555883e-10
-9.189418367e-12
4.165871682e-10
-1.39369561e-11
5.190860282e-10
-1.943815072e-11
6.143754509e-10
-2.557328827e-11
7.026083815e-10
-3.222326038e-11
7.83967372e-10
-3.927119605e-11
8.586578015e-10
-4.660450206e-11
9.269030693e-10
-5.411585076e-11
9.889397768e-10
-6.170421815e-11
1.045013897e-09
-6.927558813e-11
1.095376865e-09
-7.674336517e-11
1.140282356e-09
-8.402843786e-11
1.179983197e-09
-9.105925657e-11
1.21472903e-09
-9.777166352e-11
1.244764074e-09
-1.041085882e-10
1.270325425e-09
-1.100197464e-10
1.291641808e-09
-1.154612214e-10
1.308932349e-09
-1.203951844e-10
1.322406133e-09
-1.247892624e-10
1.332261211e-09
-1.286164598e-10
1.338684778e-09
-1.318544786e-10
1.341852438e-09
-1.34485677e-10
1.341928377e-09
-1.364965819e-10
1.33906505e-09
-1.378774659e-10
1.333402624e-09
-1.386222355e-10
1.32506864e-09
-1.387280475e-10
1.314177297e-09
-1.381947644e-10
1.300828098e-09
-1.370245031e-10
1.285104022e-09
-1.352210322e-10
1.267068981e-09
-1.327888896e-10
1.246764157e-09
-1.297322974e-10
1.224202499e-09
1.199360884e-09
-6.217438265e-13
6.543672759e-11
-2.432768403e-12
1.913146333e-10
-5.338941427e-12
3.096617612e-10
-9.235633663e-12
4.204838604e-10
-1.401027452e-11
5.238606691e-10
-1.954563006e-11
6.199108066e-10
-2.572257678e-11
7.087853283e-10
-3.242232215e-11
7.906671174e-10
-3.952835782e-11
8.657638372e-10
-4.692798749e-11
9.343026988e-10
-5.451375516e-11
9.965255443e-10
-6.218421084e-11
1.052684353e-09
-6.984460788e-11
1.103037262e-09
-7.740729096e-11
1.14784504e-09
-8.479189099e-11
1.187367797e-09
-9.192527421e-11
1.221862412e-09
-9.874152302e-11
1.251580322e-09
-1.051816377e-10
1.276765539e-09
-1.111932922e-10
1.297653463e-09
-1.167304617e-10
1.314469518e-09
-1.21753023e-10
1.327428694e-09
-1.262266272e-10
1.336734816e-09
-1.30122044e-10
1.342580195e-09
-1.334151525e-10
1.345145547e-09
-1.360864774e-10
1.344599702e-09
-1.381208297e-10
1.341099403e-09
-1.395071338e-10
1.334788928e-09
-1.402380164e-10
1.325799522e-09
-1.4030953e-10
1.314248811e-09
-1.397205833e-10
1.300239152e-09
-1.384724092e-10
1.283855848e-09
-1.365680129e-10
1.265164585e-09
-1.340112046e-10
1.244207349e-09
-1.308054757e-10
1.22099677e-09
-1.269522623e-10
1.195507671e-09
-1.224488383e-10
1.167665031e-09
-1.172852594e-10
1.137326195e-09
-1.114405163e-10
1.104255007e-09
-1.048786611e-10
1.068086111e-09
-9.754603645e-11
1.028277456e-09
-8.937334839e-11
9.840552644e-10
-8.028726729e-11
9.343596016e-10
-7.023723546e-11
8.778029541e-10
-5.923896711e-11
8.12650205e-10
-4.74340594e-11
7.36818394e-10
-3.516265066e-11
6.478872616e-10
-2.304668639e-11
5.431105726e-10
-1.208149116e-11
4.194405123e-10
-3.729969663e-12
2.736110973e-10
1.023018067e-10
-6.195072637e-13
6.605623486e-11
-2.42416226e-12
1.931192883e-10
-5.320886006e-12
3.12558485e-10
-9.206391591e-12
4.24369366e-10
-1.396963724e-11
5.286239148e-10
-1.949505519e-11
6.254362247e-10
-2.566526088e-11
7.149555342e-10
-3.236289565e-11
7.973647521e-10
-3.947289189e-11
8.728738333e-10
-4.688365289e-11
9.417134598e-10
-5.44883942e-11
1.004130286e-09
-6.218610018e-11
1.060382059e-09
-6.988204682e-11
1.110733208e-09
-7.748817463e-11
1.155451167e-09
-8.492336244e-11
1.194802985e-09
-9.211339508e-11
1.229052445e-09
-9.899094505e-11
1.258457873e-09
-1.054953784e-10
1.283269973e-09
-1.115724457e-10
1.30373053e-09
-1.171742094e-10
1.320071283e-09
-1.222585086e-10
1.332512993e-09
-1.267888947e-10
1.341265202e-09
-1.307342085e-10
1.346525509e-09
-1.340684367e-10
1.348479775e-09
-1.367703175e-10
1.347301583e-09
-1.388231053e-10
1.343152191e-09
-1.402143267e-10
1.336180149e-09
-1.409353878e-10
1.326520583e-09
-1.409811956e-10
1.314294619e-09
-1.403496507e-10
1.299607607e-09
-1.39041237e-10
1.282547434e-09
-1.370582295e-10
1.263181578e-09
-1.344036881e-10
1.241552808e-09
-1.310803973e-10
1.21767348e-09
-1.270891218e-10
1.191516396e-09
-1.224265338e-10
1.163002443e-09
-1.170823643e-10
1.131982025e-09
-1.110360842e-10
1.098208727e-09
-1.042538243e-10
1.061303851e-09
-9.668731297e-11
1.020710945e-09
-8.827835946e-11
9.756463109e-10
-7.897302209e-11
9.250542642e-10
-6.874915858e-11
8.675790905e-10
-5.765783343e-11
8.015588798e-10
-4.587665575e-11
7.250372163e-10
-3.377201505e-11
6.357826207e-10
-2.196796405e-11
5.313065215e-10
-1.14199819e-11
4.0889253e-10
-3.489104837e-12
2.656802202e-10
9.881270185e-11
-6.125899299e-13
6.666882481e-11
-2.39727353e-12
1.949039719e-10
-5.262820543e-12
3.15424032e-10
-9.108194368e-12
4.282147398e-10
-1.382489497e-11
5.333406154e-10
-1.930016366e-11
6.309114931e-10
-2.541925985e-11
7.210746302e-10
-3.206749941e-11
8.040129917e-10
-3.913206536e-11
8.799383993e-10
-4.650347911e-11
9.490848736e-10
-5.407657378e-11
1.01170338e-09
-6.175141305e-11
1.068056898e-09
-6.943394481e-11
1.11841574e-09
-7.703634569e-11
1.163053568e-09
-8.447722017e-11
1.202243859e-09
-9.168169056e-11
1.236256916e-09
-9.858132804e-11
1.26535751e-09
-1.051140495e-10
1.289802694e-09
-1.112240871e-10
1.309840568e-09
-1.168615846e-10
1.32570878e-09
-1.21982636e-10
1.337634044e-09
-1.265487295e-10
1.345831295e-09
-1.305269698e-10
1.350503749e-09
-1.338894304e-10
1.351842236e-09
-1.366131916e-10
1.350025344e-09
-1.386800577e-10
1.345219057e-09
-1.400760905e-10
1.337576182e-09
-1.407914611e-10
1.327235953e-09
-1.408199886e-10
1.314323146e-09
-1.401586687e-10
1.298946287e-09
-1.388071314e-10
1.281195896e-09
-1.367668727e-10
1.261141319e-09
-1.340403105e-10
1.238826245e-09
-1.306295451e-10
1.214262715e-09
-1.26534744e-10
1.187421594e-09
-1.217521868e-10
1.158219886e-09
-1.162715444e-10
1.126501383e-09
-1.100732875e-10
1.09201047e-09
-1.031264105e-10
1.054356974e-09
-9.538901485e-11
1.012973549e-09
-8.681466805e-11
9.67071964e-10
-7.736830554e-11
9.156079017e-10
-6.705370147e-11
8.572644863e-10
-5.595200944e-11
7.904571877e-10
-4.426895245e-11
7.133541592e-10
-3.238790686e-11
6.239015752e-10
-2.092697634e-11
5.198455911e-10
-1.079873477e-11
3.987642885e-10
-3.268899843e-12
2.581503853e-10
9.554380202e-11
-6.014901947e-13
6.727031501e-11
-2.354046271e-12
1.96656528e-10
-5.168987408e-12
3.182389732e-10
-8.948336022e-12
4.319940885e-10
-1.358709509e-11
5.379793745e-10
-1.897619056e-11
6.363005887e-10
-2.500445805e-11
7.271028977e-10
-3.156083701e-11
8.105693708e-10
-3.853568626e-11
8.869132487e-10
-4.582231321e-11
9.563715006e-10
-5.331797006e-11
1.019199037e-09
-6.092455179e-11
1.07566348e-09
-6.854927196e-11
1.12604046e-09
-7.610497617e-11
1.170609273e-09
-8.351045736e-11
1.209649341e-09
-9.069049694e-11
1.243436955e-09
-9.757595674e-11
1.27224297e-09
-1.041036806e-10
1.296330418e-09
-1.102164189e-10
1.315953306e-09
-1.158628064e-10
1.331355167e-09
-1.209970984e-10
1.342768336e-09
-1.255791946e-10
1.350413392e-09
-1.295742905e-10
1.354498845e-09
-1.329528178e-10
1.355220763e-09
-1.356903342e-10
1.35276286e-09
-1.377670806e-10
1.347295803e-09
-1.39167729e-10
1.338976831e-09
-1.39881337e-10
1.327949562e-09
-1.399006188e-10
1.314342428e-09
-1.392216396e-10
1.298267308e-09
-1.378431945e-10
1.279817452e-09
-1.357659026e-10
1.259064027e-09
-1.329915619e-10
1.236051905e-09
-1.295216057e-10
1.210792759e-09
-1.253557926e-10
1.183255781e-09
-1.204900772e-10
1.153354171e-09
-1.149144865e-10
1.120925792e-09
-1.086108894e-10
1.085706873e-09
-1.015517775e-10
1.047297862e-09
-9.370223329e-11
1.005124005e-09
-8.502792801e-11
9.583976588e-10
-7.551175929e-11
9.06091733e-10
-6.518067775e-11
8.469334049e-10
-5.414094318e-11
7.794174534e-10
-4.261962059e-11
7.018328368e-10
-3.100962117e-11
6.122915757e-10
-1.99171368e-11
5.087531067e-10
-1.021016709e-11
3.890573188e-10
-3.065237408e-12
2.510054556e-10
9.247856461e-11
-5.867477681e-13
6.785706277e-11
-2.296583442e-12
1.983663637e-10
-5.043978932e-12
3.209863687e-10
-8.734745777e-12
4.356848553e-10
-1.326815663e-11
5.425127853e-10
-1.853951241e-11
6.415719446e-10
-2.444216344e-11
7.330055488e-10
-3.086927456e-11
8.169964817e-10
-3.771525606e-11
8.937592302e-10
-4.487691365e-11
9.635331583e-10
-5.22544102e-11
1.026576534e-09
-5.975212636e-11
1.083161196e-09
-6.72790233e-11
1.133567357e-09
-7.474913092e-11
1.17807938e-09
-8.208181124e-11
1.216982021e-09
-8.920191288e-11
1.250557057e-09
-9.603983086e-11
1.279080888e-09
-1.025315972e-10
1.302822184e-09
-1.086188671e-10
1.322040576e-09
-1.142488689e-10
1.336985169e-09
-1.193743734e-10
1.347893841e-09
-1.239536712e-10
1.35499269e-09
-1.279503058e-10
1.35849548e-09
-1.313332869e-10
1.358603744e-09
-1.340765376e-10
1.355506111e-09
-1.361588277e-10
1.349378094e-09
-1.375637199e-10
1.340381723e-09
-1.38279033e-10
1.328664875e-09
-1.382964005e-10
1.314359795e-09
-1.376109291e-10
1.297581836e-09
-1.362204935e-10
1.278427016e-09
-1.341250023e-10
1.256968536e-09
-1.313254372e-10
1.233252339e-09
-1.278226864e-10
1.207290008e-09
-1.236160603e-10
1.179049155e-09
-1.187015156e-10
1.148439626e-09
-1.130696826e-10
1.115293959e-09
-1.067042548e-10
1.079341445e-09
-9.958172396e-11
1.040175331e-09
-9.167461645e-11
9.972168975e-10
-8.296045718e-11
9.496834995e-10
-7.3438972e-11
8.965702478e-10
-6.315744837e-11
8.366518812e-10
-5.224272955e-11
7.685027345e-10
-4.093737056e-11
6.905274779e-10
-2.963790111e-11
6.009921064e-10
-1.893417425e-11
4.980493798e-10
-9.648968686e-12
3.797721132e-10
-2.87517147e-12
2.442316584e-10
8.960339314e-11
-5.6892845e-13
6.842599122e-11
-2.227104747e-12
2.000245399e-10
-4.892663669e-12
3.236519275e-10
-8.475777131e-12
4.392679688e-10
-1.288054813e-11
5.469175563e-10
-1.800729481e-11
6.466986911e-10
-2.375456413e-11
7.387528179e-10
-3.002031834e-11
8.23262236e-10
-3.670356762e-11
9.004424796e-10
-4.370520643e-11
9.705347971e-10
-5.092895282e-11
1.03380028e-09
-5.828200073e-11
1.090514244e-09
-6.567555788e-11
1.140960914e-09
-7.302524805e-11
1.18542907e-09
-8.025134249e-11
1.224208115e-09
-8.72791234e-11
1.257584838e-09
-9.403886712e-11
1.285840632e-09
-1.004661186e-10
1.309249436e-09
-1.065016436e-10
1.328076101e-09
-1.120915756e-10
1.342575101e-09
-1.171874055e-10
1.352989671e-09
-1.217459623e-10
1.359551246e-09
-1.257294798e-10
1.362478997e-09
-1.291054407e-10
1.361979705e-09
-1.318463759e-10
1.358247046e-09
-1.339298178e-10
1.351461536e-09
-1.353381157e-10
1.341790021e-09
-1.36057864e-10
1.329384623e-09
-1.360796642e-10
1.314381596e-09
-1.353976556e-10
1.296899828e-09
-1.340087573e-10
1.277038118e-09
-1.319121141e-10
1.254871893e-09
-1.291079977e-10
1.230448223e-09
-1.255966972e-10
1.203778707e-09
-1.213772205e-10
1.174829679e-09
-1.164455843e-10
1.14350799e-09
-1.107933031e-10
1.109641678e-09
-1.044063003e-10
1.072954443e-09
-9.72654712e-11
1.033034502e-09
-8.935089552e-11
9.89302322e-10
-8.065166737e-11
9.409842713e-10
-7.118287275e-11
8.87101453e-10
-6.100930495e-11
8.264783134e-10
-5.027428572e-11
7.577677152e-10
-3.923093342e-11
6.794841255e-10
-2.827465152e-11
5.900358244e-10
-1.797568839e-11
4.877504166e-10
-9.111532723e-12
3.709079575e-10
-2.696645194e-12
2.378167708e-10
8.690674795e-11
-5.486239961e-13
6.897461524e-11
-2.147915959e-12
2.01623832e-10
-4.720055457e-12
3.26224067e-10
-8.179991212e-12
4.427279045e-10
-1.243704011e-11
5.511746052e-10
-1.739711979e-11
6.51658771e-10
-2.296430121e-11
7.443199995e-10
-2.904199064e-11
8.293399256e-10
-3.553406299e-11
9.069345521e-10
-4.234597117e-11
9.773467055e-10
-4.938537436e-11
1.040839683e-09
-5.656272762e-11
1.097691598e-09
-6.379184832e-11
1.148190035e-09
-7.099028787e-11
1.19262751e-09
-7.807964646e-11
1.231297474e-09
-8.498592709e-11
1.264491118e-09
-9.163963666e-11
1.292494341e-09
-9.797609743e-11
1.315585896e-09
-1.039355044e-10
1.334035508e-09
-1.094631713e-10
1.348102768e-09
-1.145095122e-10
1.358036011e-09
-1.19030257e-10
1.364071991e-09
-1.229863856e-10
1.366435126e-09
-1.26344043e-10
1.365337363e-09
-1.290746203e-10
1.360977623e-09
-1.31154432e-10
1.353541347e-09
-1.325645774e-10
1.343200166e-09
-1.33290554e-10
1.3301106e-09
-1.333219356e-10
1.314412977e-09
-1.326518813e-10
1.296229774e-09
-1.312764207e-10
1.275662657e-09
-1.291938616e-10
1.252789334e-09
-1.264037652e-10
1.227658127e-09
-1.22905903e-10
1.200280845e-09
-1.186990075e-10
1.170622783e-09
-1.137793504e-10
1.138588333e-09
-1.081395482e-10
1.104001876e-09
-1.017679765e-10
1.066582871e-09
-9.465017616e-11
1.025916701e-09
-8.677382476e-11
9.814259706e-10
-7.813893316e-11
9.323493799e-10
-6.877441266e-11
8.777369328e-10
-5.875993679e-11
8.164638376e-10
-4.825156168e-11
7.472593401e-10
-3.750887495e-11
6.687414387e-10
-2.692231051e-11
5.7944926e-10
-1.704020966e-11
4.778683158e-10
-8.595235016e-12
3.624629829e-10
-2.528078272e-12
2.317496142e-10
8.437866968e-11
-5.264329771e-13
6.950104822e-11
-2.061339797e-12
2.031587388e-10
-4.531190875e-12
3.286939182e-10
-7.855943128e-12
4.460526567e-10
-1.195048111e-11
5.552691432e-10
-1.672663276e-11
6.564349227e-10
-2.209418264e-11
7.496875496e-10
-2.796228693e-11
8.352080297e-10
-3.424012602e-11
9.132123909e-10
-4.083790452e-11
9.839444839e-10
-4.766749003e-11
1.047669269e-09
-5.46429275e-11
1.104667035e-09
-6.1680978e-11
1.155228085e-09
-6.87014371e-11
1.199647969e-09
-7.562758024e-11
1.238223617e-09
-8.238637233e-11
1.27124991e-09
-8.890890772e-11
1.299016877e-09
-9.513058738e-11
1.321807576e-09
-1.009914149e-10
1.339896336e-09
-1.064360689e-10
1.353547422e-09
-1.11414318e-10
1.363014261e-09
-1.158808432e-10
1.368538516e-09
-1.197957057e-10
1.370349988e-09
-1.231239992e-10
1.368665655e-09
-1.258358872e-10
1.363689511e-09
-1.279066448e-10
1.355612105e-09
-1.29316239e-10
1.34460976e-09
-1.300491384e-10
1.330843499e-09
-1.300939584e-10
1.314457797e-09
-1.294428021e-10
1.295578617e-09
-1.280908903e-10
1.274310745e-09
-1.260356652e-10
1.250734109e-09
-1.232759628e-10
1.224898424e-09
-1.198111103e-10
1.196815992e-09
-1.156396379e-10
1.166451311e-09
-1.107581991e-10
1.133706894e-09
-1.051606849e-10
1.098404362e-09
-9.883815577e-11
1.060260342e-09
-9.178090868e-11
1.018859454e-09
-8.398399723e-11
9.73629059e-10
-7.545761403e-11
9.238229967e-10
-6.624289911e-11
8.685222179e-10
-5.643189652e-11
8.066528349e-10
-4.619015129e-11
7.370175949e-10
-3.578011092e-11
6.583313983e-10
-2.558425446e-11
5.692534035e-10
-1.612745773e-11
4.684115191e-10
-8.09835746e-12
3.544338827e-10
-2.368327991e-12
2.260195847e-10
8.201034169e-11
-5.029386077e-13
7.000398682e-11
-1.969648536e-12
2.046254487e-10
-4.331001064e-12
3.310552706e-10
-7.512098376e-12
4.492337541e-10
-1.143358818e-11
5.59190633e-10
-1.601319757e-11
6.610145318e-10
-2.116672518e-11
7.54841077e-10
-2.680900969e-11
8.408503143e-10
-3.285479766e-11
9.192581789e-10
-3.921925551e-11
9.903089416e-10
-4.581864635e-11
1.05426866e-09
-5.257083195e-11
1.11141922e-09
-5.939566683e-11
1.16205292e-09
-6.621549977e-11
1.206467802e-09
-7.295550486e-11
1.244963622e-09
-7.954406005e-11
1.277838465e-09
-8.591311202e-11
1.305385929e-09
-9.19984544e-11
1.327892918e-09
-9.774013737e-11
1.345638019e-09
-1.030826655e-10
1.358889951e-09
-1.079752311e-10
1.367906827e-09
-1.123720091e-10
1.372935294e-09
-1.162321426e-10
1.374210122e-09
-1.195198662e-10
1.371953379e-09
-1.222043934e-10
1.366374038e-09
-1.242600655e-10
1.357667777e-09
-1.256658958e-10
1.346015591e-09
-1.264053498e-10
1.331582954e-09
-1.26466024e-10
1.314518471e-09
-1.258391354e-10
1.294951729e-09
-1.245189715e-10
1.272990581e-09
-1.225021885e-10
1.248717325e-09
-1.19786993e-10
1.222183229e-09
-1.16372198e-10
1.193401197e-09
-1.122562861e-10
1.162335399e-09
-1.074363785e-10
1.128886986e-09
-1.019077781e-10
1.092875761e-09
-9.566435315e-11
1.054016917e-09
-8.87011892e-11
1.011896291e-09
-8.102036096e-11
9.659482309e-10
-7.264139461e-11
9.154440301e-10
-6.361604235e-11
8.594968654e-10
-5.404640464e-11
7.970831971e-10
-4.41046823e-11
7.270758725e-10
-3.405326932e-11
6.482799853e-10
-2.426423982e-11
5.59464374e-10
-1.523784712e-11
4.593851264e-10
-7.619891455e-12
3.46815927e-10
-2.216597058e-12
2.206162903e-10
7.979374462e-11
-4.787034826e-13
7.048269031e-11
-1.875031043e-12
2.060217763e-10
-4.124276138e-12
3.333045158e-10
-7.156718455e-12
4.522661964e-10
-1.089869296e-11
5.629326076e-10
-1.527374652e-11
6.653895855e-10
-2.020374649e-11
7.59771077e-10
-2.56092594e-11
8.462558273e-10
-3.14104468e-11
9.250593665e-10
-3.752755405e-11
9.964260489e-10
-4.388135598e-11
1.060622462e-09
-5.039362166e-11
1.117931486e-09
-5.698755899e-11
1.168646858e-09
-6.358824093e-11
1.213068484e-09
-7.012303627e-11
1.251498418e-09
-7.652194248e-11
1.284237372e-09
-8.271803631e-11
1.311582022e-09
-8.864792244e-11
1.333822805e-09
-9.425197306e-11
1.35124207e-09
-9.947476206e-11
1.36411274e-09
-1.042653378e-10
1.372697402e-09
-1.085774987e-10
1.377247455e-09
-1.123697667e-10
1.37800239e-09
-1.156057673e-10
1.37518938e-09
-1.182540779e-10
1.36902235e-09
-1.202881022e-10
1.359701802e-09
-1.216859668e-10
1.347413455e-09
-1.22430248e-10
1.332327235e-09
-1.22507672e-10
1.314595895e-09
-1.21908555e-10
1.294352611e-09
-1.206263521e-10
1.271708378e-09
-1.186569178e-10
1.246747891e-09
-1.159978455e-10
1.219524156e-09
-1.126475719e-10
1.190050923e-09
-1.086045111e-10
1.158292338e-09
-1.038664183e-10
1.124148894e-09
-9.843009463e-11
1.087439438e-09
-9.229229731e-11
1.04787912e-09
-8.545271664e-11
1.00505671e-09
-7.792011649e-11
9.584156308e-10
-6.972236331e-11
9.072462771e-10
-6.092024845e-11
8.506947508e-10
-5.16237111e-11
7.877866599e-10
-4.200920006e-11
7.174613614e-10
-3.233673178e-11
6.386075171e-10
-2.296606939e-11
5.500937117e-10
-1.437219053e-11
4.507912475e-10
-7.159291735e-12
3.396030281e-10
-2.072338173e-12
2.155293367e-10
7.772140645e-11
-4.542656741e-13
7.093695601e-11
-1.779593524e-12
2.073471041e-10
-3.915628654e-12
3.354405508e-10
-6.797688977e-12
4.551482567e-10
-1.035754354e-11
5.664924621e-10
-1.452452817e-11
6.695565703e-10
-1.922621273e-11
7.644727617e-10
-2.438890517e-11
8.514185195e-10
-2.993807439e-11
9.306085354e-10
-3.579889726e-11
1.002286872e-09
-4.189664562e-11
1.06672021e-09
-4.81570994e-11
1.12419194e-09
-5.450691855e-11
1.174996677e-09
-6.087407722e-11
1.219435643e-09
-6.718828794e-11
1.257812628e-09
-7.338143353e-11
1.290430517e-09
-7.938810406e-11
1.317588693e-09
-8.514588133e-11
1.339580582e-09
-9.059584088e-11
1.356692029e-09
-9.568297984e-11
1.369199879e-09
-1.003564155e-10
1.377370838e-09
-1.04569851e-10
1.381460891e-09
-1.08281651e-10
1.38171419e-09
-1.114548644e-10
1.378362593e-09
-1.140575671e-10
1.371625052e-09
-1.160625244e-10
1.361706759e-09
-1.174471104e-10
1.348798041e-09
-1.181931824e-10
1.333073307e-09
-1.182866257e-10
1.314689339e-09
-1.177169381e-10
1.293782924e-09
-1.164767781e-10
1.270468218e-09
-1.145613064e-10
1.244832419e-09
-1.119675093e-10
1.21693036e-09
-1.086934924e-10
1.186776907e-09
-1.04737758e-10
1.154336603e-09
-1.000987085e-10
1.119509844e-09
-9.477472844e-11
1.082115458e-09
-8.876542604e-11
1.041869817e-09
-8.207492883e-11
9.983662124e-10
-7.471808701e-11
9.510587888e-10
-6.673027098e-11
8.992584609e-10
-5.817975247e-11
8.421442321e-10
-4.918243133e-11
7.787893387e-10
-3.991673686e-11
7.081956669e-10
-3.063830384e-11
6.29329084e-10
-2.169336009e-11
5.411487679e-10
-1.353129102e-11
4.426291785e-10
-6.716044485e-12
3.327877816e-10
-1.93500912e-12
2.107483013e-10
7.578639733e-11
-4.30146633e-13
7.136710265e-11
-1.68536887e-12
2.086023263e-10
-3.709471193e-12
3.374646532e-10
-6.442515996e-12
4.578813016e-10
-9.821435485e-12
5.698713816e-10
-1.378108926e-11
6.735162238e-10
-1.825440032e-11
7.689460725e-10
-2.317306306e-11
8.563371824e-10
-2.8467727e-11
9.359031995e-10
-3.406834048e-11
1.007887485e-09
-3.990457121e-11
1.072556441e-09
-4.590611316e-11
1.130193482e-09
-5.20031041e-11
1.181093668e-09
-5.812654039e-11
1.225559079e-09
-6.420868025e-11
1.263894768e-09
-7.0183559e-11
1.296405396e-09
-7.598737023e-11
1.323392504e-09
-8.155911001e-11
1.345152322e-09
-8.68408099e-11
1.361973729e-09
-9.17781275e-11
1.374137196e-09
-9.63206809e-11
1.381913392e-09
-1.004223211e-10
1.385562531e-09
-1.040413847e-10
1.385333254e-09
-1.071407696e-10
1.381461979e-09
-1.096882334e-10
1.374172516e-09
-1.116561086e-10
1.363674634e-09
-1.130212341e-10
1.350163167e-09
-1.137648013e-10
1.333816874e-09
-1.138719422e-10
1.314796479e-09
-1.133314989e-10
1.293242481e-09
-1.121354127e-10
1.269272132e-09
-1.102781727e-10
1.24297518e-09
-1.077562986e-10
1.214408485e-09
-1.045676031e-10
1.183588211e-09
-1.007106845e-10
1.150479685e-09
-9.61847289e-11
1.114983888e-09
-9.09896908e-11
1.076920419e-09
-8.512800624e-11
1.036008132e-09
-7.860796314e-11
9.918461693e-10
-7.144999922e-11
9.439008249e-10
-6.369575316e-11
8.915042148e-10
-5.541974853e-11
8.338682274e-10
-4.674208904e-11
7.701116791e-10
-3.784138011e-11
6.99294958e-10
-2.896720893e-11
6.204549128e-10
-2.045124236e-11
5.326328013e-10
-1.271732611e-11
4.348952622e-10
-6.290650276e-12
3.263611058e-10
-1.804561993e-12
2.06262213e-10
7.398183534e-11
-4.068193287e-13
7.177392197e-11
-1.594193167e-12
2.097897002e-10
-3.509792681e-12
3.393802528e-10
-6.098045919e-12
4.604695548e-10
-9.300734414e-12
5.730740701e-10
-1.305764486e-11
6.772731344e-10
-1.730685753e-11
7.731952852e-10
-2.198491272e-11
8.610152376e-10
-2.70272712e-11
9.409455581e-10
-3.236844011e-11
1.013228654e-09
-3.794227511e-11
1.078130275e-09
-4.368229527e-11
1.135933502e-09
-4.952210008e-11
1.186933473e-09
-5.53957653e-11
1.231432744e-09
-6.123815952e-11
1.269737162e-09
-6.698558945e-11
1.302152826e-09
-7.257623253e-11
1.328983147e-09
-7.795057559e-11
1.350526665e-09
-8.305200829e-11
1.367075161e-09
-8.782712223e-11
1.37891231e-09
-9.222630691e-11
1.386312576e-09
-9.620386258e-11
1.389540086e-09
-9.97184105e-11
1.388847801e-09
-1.027330346e-10
1.384476602e-09
-1.052153447e-10
1.376654826e-09
-1.071373992e-10
1.365596689e-09
-1.084757017e-10
1.351501469e-09
-1.092109663e-10
1.334552138e-09
-1.093277952e-10
1.314913308e-09
-1.088144135e-10
1.292729099e-09
-1.076621789e-10
1.268119897e-09
-1.058650438e-10
1.241178045e-09
-1.034190795e-10
1.211962521e-09
-1.003219221e-10
1.180491054e-09
-9.657240937e-11
1.146730172e-09
-9.217043287e-11
1.110581912e-09
-8.711757575e-11
1.071867562e-09
-8.141888707e-11
1.030309444e-09
-7.508659665e-11
9.85513879e-10
-6.814607703e-11
9.369603054e-10
-6.064440133e-11
8.840025392e-10
-5.266085377e-11
8.2588468e-10
-4.431820042e-11
7.61769026e-10
-3.579381722e-11
6.90770575e-10
-2.732984325e-11
6.119909389e-10
-1.924269156e-11
5.245456496e-10
-1.193094292e-11
4.275835136e-10
-5.882701322e-12
3.203128643e-10
-1.68055779e-12
2.020600695e-10
7.230127755e-11
-3.847187601e-13
7.215864073e-11
-1.507758719e-12
2.109127402e-10
-3.320294609e-12
3.411927887e-10
-5.770718884e-12
4.629199791e-10
-8.805131786e-12
5.76108483e-10
-1.236768033e-11
6.808356829e-10
-1.640104276e-11
7.772286478e-10
-2.084627484e-11
8.654604695e-10
-2.564311983e-11
9.457424027e-10
-3.07302417e-11
1.018315776e-09
-3.604544249e-11
1.083445476e-09
-4.152591921e-11
1.141413979e-09
-4.710860395e-11
1.192516157e-09
-5.27305114e-11
1.237054651e-09
-5.832929502e-11
1.275335946e-09
-6.384368205e-11
1.307667213e-09
-6.921393342e-11
1.334353399e-09
-7.438234019e-11
1.355695071e-09
-7.929382496e-11
1.371986646e-09
-8.389627531e-11
1.38351476e-09
-8.814106025e-11
1.390557361e-09
-9.198334762e-11
1.393382373e-09
-9.538226277e-11
1.392246716e-09
-9.830127401e-11
1.387395614e-09
-1.007081333e-10
1.379061685e-09
-1.025749363e-10
1.367463491e-09
-1.038780683e-10
1.352804601e-09
-1.045979702e-10
1.33527204e-09
-1.047188612e-10
1.315034199e-09
-1.04228533e-10
1.292238771e-09
-1.031178012e-10
1.267009166e-09
-1.013802547e-10
1.239440498e-09
-9.901160945e-11
1.209593876e-09
-9.600942729e-11
1.177488871e-09
-9.237277662e-11
1.143093521e-09
-8.810241594e-11
1.106311551e-09
-8.320146988e-11
1.066966616e-09
-7.767751836e-11
1.024785493e-09
-7.154621618e-11
9.793825769e-10
-6.483724694e-11
9.30251336e-10
-5.760232478e-11
8.767676171e-10
-4.99242746e-11
8.182066298e-10
-4.192712416e-11
7.537718755e-10
-3.378562679e-11
6.826290775e-10
-2.573360962e-11
6.039389217e-10
-1.807173519e-11
5.168837752e-10
-1.11738313e-11
4.206856097e-10
-5.492536373e-12
3.146315693e-10
-1.562917963e-12
1.981304511e-10
7.073835959e-11
-3.642312458e-13
7.252287201e-11
-1.427590637e-12
2.119760996e-10
-3.144356033e-12
3.429095541e-10
-5.466385813e-12
4.652420088e-10
-8.343400456e-12
5.789854976e-10
-1.172347833e-11
6.842157608e-10
-1.555308902e-11
7.810582584e-10
-1.977727824e-11
8.696846589e-10
-2.433964341e-11
9.503047681e-10
-2.918255025e-11
1.023158683e-09
-3.424733363e-11
1.08851026e-09
-3.947454787e-11
1.146641193e-09
-4.480429746e-11
1.197845907e-09
-5.017657486e-11
1.242426929e-09
-5.553177605e-11
1.280691147e-09
-6.081102706e-11
1.312946464e-09
-6.595685803e-11
1.33949923e-09
-7.09135724e-11
1.360651786e-09
-7.562784455e-11
1.376700918e-09
-8.004911583e-11
1.387936031e-09
-8.413007519e-11
1.39463832e-09
-8.782688956e-11
1.397079189e-09
-9.109963352e-11
1.395519461e-09
-9.391243015e-11
1.39020841e-09
-9.623347188e-11
1.381382727e-09
-9.803510014e-11
1.36926512e-09
-9.929379525e-11
1.354063297e-09
-9.998993399e-11
1.33596818e-09
-1.001075963e-10
1.315151862e-09
-9.963428625e-11
1.291765461e-09
-9.856052198e-11
1.265935402e-09
-9.687959568e-11
1.237759572e-09
-9.458706912e-11
1.207301349e-09
-9.16804674e-11
1.17458227e-09
-8.815922108e-11
1.139572275e-09
-8.402487412e-11
1.102177204e-09
-7.928205483e-11
1.062223797e-09
-7.394071402e-11
1.019444152e-09
-6.801964377e-11
9.734615066e-10
-6.155219824e-11
9.237838905e-10
-5.459360044e-11
8.698090193e-10
-4.722936267e-11
8.10842392e-10
-3.958358417e-11
7.461260969e-10
-3.182723303e-11
6.748727264e-10
-2.418513859e-11
5.962968273e-10
-1.694196898e-11
5.096406055e-10
-1.044742877e-11
4.141910695e-10
-5.120427082e-12
3.093045676e-10
-1.451542751e-12
1.944615668e-10
6.928681684e-11
-3.457138764e-13
7.286858589e-11
-1.355086579e-12
2.129854723e-10
-2.985036955e-12
3.445395044e-10
-5.190266932e-12
4.674472388e-10
-7.923494237e-12
5.81718725e-10
-1.113604234e-11
6.87428309e-10
-1.477758744e-11
7.846998036e-10
-1.87963641e-11
8.737034357e-10
-2.313925884e-11
9.546476628e-10
-2.775184033e-11
1.027771264e-09
-3.2578567e-11
1.093336987e-09
-3.756300946e-11
1.151625635e-09
-4.264822669e-11
1.202931124e-09
-4.777700013e-11
1.247555702e-09
-5.289231909e-11
1.285806466e-09
-5.793786626e-11
1.317992011e-09
-6.285845286e-11
1.344419816e-09
-6.760055175e-11
1.365393885e-09
-7.211278827e-11
1.381213155e-09
-7.634640366e-11
1.392169647e-09
-8.025564923e-11
1.398547566e-09
-8.379808814e-11
1.400621627e-09
-8.693491642e-11
1.398656289e-09
-8.963118721e-11
1.392904681e-09
-9.185584396e-11
1.383607383e-09
-9.358180467e-11
1.370991081e-09
-9.478590669e-11
1.355267398e-09
-9.544865753e-11
1.33663093e-09
-9.555426896e-11
1.315257473e-09
-9.509013524e-11
1.291301327e-09
-9.404675084e-11
1.264892017e-09
-9.241717668e-11
1.236129997e-09
-9.019692327e-11
1.205081096e-09
-8.738363421e-11
1.171768981e-09
-8.397721782e-11
1.136165859e-09
-7.998005163e-11
1.098180038e-09
-7.539820349e-11
1.057641948e-09
-7.02436401e-11
1.014289588e-09
-6.453797857e-11
9.677558452e-10
-5.831768262e-11
9.175635948e-10
-5.164074272e-11
8.631320794e-10
-4.459414743e-11
8.037957967e-10
-3.730123389e-11
7.388331834e-10
-2.992828571e-11
6.674997782e-10
-2.269052419e-11
5.890590659e-10
-1.585668622e-11
5.028067676e-10
-9.753080945e-12
4.080874642e-10
-4.766604636e-12
3.043180913e-10
-1.346325363e-12
1.910412875e-10
6.794049148e-11
-3.294825264e-13
7.31980684e-11
-1.291471984e-12
2.139474617e-10
-2.845005198e-12
3.460930377e-10
-4.946974987e-12
4.695492087e-10
-7.552518828e-12
5.843242689e-10
-1.061528211e-11
6.904910723e-10
-1.408754058e-11
7.881720621e-10
-1.792005681e-11
8.775359517e-10
-2.206223256e-11
9.587898384e-10
-2.646228346e-11
1.032171315e-09
-3.106729739e-11
1.097942001e-09
-3.582351545e-11
1.156381854e-09
-4.067652311e-11
1.207784132e-09
-4.557164836e-11
1.252450828e-09
-5.045450759e-11
1.290689326e-09
-5.527121464e-11
1.322808718e-09
-5.996889484e-11
1.349117496e-09
-6.449630487e-11
1.369921295e-09
-6.88042133e-11
1.385521063e-09
-7.284585071e-11
1.396211284e-09
-7.657724265e-11
1.402278958e-09
-7.995757061e-11
1.404001955e-09
-8.29495477e-11
1.401648266e-09
-8.551945227e-11
1.395474586e-09
-8.763726061e-11
1.385725193e-09
-8.927674698e-11
1.372630567e-09
-9.041529823e-11
1.35640595e-09
-9.103396081e-11
1.337249593e-09
-9.111721696e-11
1.315340729e-09
-9.065267761e-11
1.290836788e-09
-8.963087342e-11
1.263870213e-09
-8.804501616e-11
1.23454414e-09
-8.589067346e-11
1.202926753e-09
-8.316577609e-11
1.169044084e-09
-7.987061515e-11
1.132870698e-09
-7.600845231e-11
1.094317875e-09
-7.158683383e-11
1.05322033e-09
-6.661960997e-11
1.009322364e-09
-6.113066719e-11
9.622669021e-10
-5.515902346e-11
9.115919508e-10
-4.876474513e-11
8.567378011e-10
-4.203542879e-11
7.970664804e-10
-3.509273313e-11
7.318904877e-10
-2.809763964e-11
6.605046846e-10
-2.125536708e-11
5.822167933e-10
-1.481890395e-11
4.963703045e-10
-9.091990317e-12
4.023605506e-10
-4.431293604e-12
2.996573945e-10
-1.247199593e-12
1.878571935e-10
6.669329189e-11
-3.158037716e-13
7.351387218e-11
-1.237785588e-12
2.148694436e-10
-2.726548183e-12
3.475818003e-10
-4.740567665e-12
4.715632281e-10
-7.236629774e-12
5.868203309e-10
-1.016997104e-11
6.934244135e-10
-1.349457227e-11
7.914966633e-10
-1.716303171e-11
8.812044112e-10
-2.112664537e-11
9.627534522e-10
-2.533555528e-11
1.036380225e-09
-2.973892443e-11
1.10234537e-09
-3.428512522e-11
1.160928054e-09
-3.89219458e-11
1.212420953e-09
-4.359715874e-11
1.257126041e-09
-4.82585548e-11
1.295350722e-09
-5.285460966e-11
1.327404773e-09
-5.733490516e-11
1.353597792e-09
-6.165048562e-11