/*--------------------------------*- C++ -*----------------------------------*\
  =========                 |
  \\      /  F ield         | OpenFOAM: The Open Source CFD Toolbox
   \\    /   O peration     | Website:  https://openfoam.org
    \\  /    A nd           | Version:  7
     \\/     M anipulation  |
\*---------------------------------------------------------------------------*/
FoamFile
{
    version     2.0;
    format      ascii;
    class       volScalarField;
    location    "0.0009";
    object      rho;
}
// * * * * * * * * * * * * * * * * * * * * * * * * * * * * * * * * * * * * * //

dimensions      [1 -3 0 0 0 0 0];

internalField   nonuniform List<scalar> 
1167
(
948.0321025
947.9832932
947.878375
947.7224201
947.5176702
947.2658494
946.9681699
946.6253908
946.2383252
945.8072345
945.3323005
944.8137964
944.2515415
943.6454135
942.995286
942.3010175
941.5625014
940.7796887
939.9527746
939.0819475
938.1674898
937.2100679
936.2103826
935.1693697
934.0880533
932.9679636
931.8105398
930.6174836
929.3907122
928.1324784
926.8451081
925.5310436
924.1929891
922.8336697
921.4560576
947.9045927
947.8543206
947.7462459
947.5855684
947.3745825
947.1151714
946.808217
946.4548796
946.0555281
945.6109189
945.1210381
944.5860444
944.0059931
943.3809267
942.7107726
941.995557
941.2353643
940.4303516
939.58081
938.6871834
937.7503766
936.7709115
935.7501034
934.6889339
933.5890199
932.4519613
931.2795709
930.0738432
928.8370456
927.5716525
926.2801507
924.9652714
923.6298295
922.2767045
920.9089457
919.5295826
918.1417566
916.7485545
915.3531605
913.9585125
912.5676133
911.1834057
909.8086327
908.4459733
907.0977555
905.7661608
904.4530657
903.1600396
901.8880987
900.6378794
947.7747125
947.7229419
947.6116345
947.4461243
947.2289369
946.961602
946.6452897
946.2811227
945.8695385
945.4110395
944.9060944
944.3546892
943.7569792
943.1130858
942.4231231
941.6872654
940.9057542
940.0790041
939.2076902
938.2924564
937.3341622
936.3341838
935.293569
934.2140199
933.0972197
931.9450978
930.7597558
929.5434501
928.298796
927.0283463
925.7347763
924.4209997
923.089906
921.7446182
920.3881009
919.0234244
917.6536714
916.2818409
914.9109356
913.5438625
912.1834788
910.8324172
909.4931501
908.1680664
906.8593053
905.5687591
904.2979997
903.0483667
901.8205789
900.6150814
947.6424323
947.5891333
947.4745298
947.304204
947.0805947
946.8052076
946.4795322
946.1042742
945.6803648
945.2080784
944.6878246
944.1200049
943.5047207
942.8421939
942.132701
941.3765765
940.5744334
939.7268282
938.8344759
937.8985478
936.9201886
935.9008006
934.8419814
933.7456278
932.6136275
931.4482467
930.2518826
929.0270086
927.776353
926.5026631
925.2088354
923.8978607
922.5726999
921.2364637
919.8921759
918.5429755
917.1917905
915.8415034
914.4949876
913.1549432
911.8240581
910.5047496
909.1993214
907.9098933
906.6383135
905.3862124
904.1549064
902.9454658
901.7584524
900.5941429
947.5077271
947.4528755
947.3349932
947.1597903
946.9295938
946.6461496
946.3109249
945.9246441
945.4881991
945.0021509
944.4668155
943.8825889
943.2498449
942.5689536
941.840359
941.0645809
940.242323
939.3744056
938.462146
937.5065361
936.5092617
935.4718227
934.3963339
933.2846249
932.1390872
930.9622841
929.7565879
928.5248209
927.2698662
925.9945938
924.7020548
923.3952655
922.077298
920.7512249
919.4200577
918.0868127
916.7543769
915.4255865
914.1030967
912.7894609
911.4871599
910.1983743
908.925181
907.6694557
906.43284
905.2167356
904.0222424
902.8502042
901.701019
900.5748177
947.3705985
947.3142496
947.1930706
947.0128218
946.7759754
946.4845357
946.1395791
945.7423231
945.2933498
944.7934695
944.2431382
943.642771
942.992863
942.2939417
941.5466199
940.7516296
939.9100556
939.0228975
938.0914146
937.1173601
936.1022471
935.0482629
933.9573249
932.8318348
931.6744667
930.4876795
929.2742485
928.0371786
926.779445
925.5040554
924.2141415
922.9127349
921.6029806
920.2878828
918.9704401
917.6535661
916.340027
915.0325169
913.7335409
912.4455265
911.1707289
909.9111309
908.6686222
907.4448332
906.2411946
905.0589024
903.8988635
902.7617235
901.6477387
900.5569152
947.2311693
947.1732376
947.0486485
946.8633182
946.6199106
946.3203155
945.9657064
945.5573852
945.0960773
944.5824401
944.0171275
943.4008194
942.7340433
942.0174998
941.2520697
940.4386672
939.5784251
938.6726862
937.7232614
936.7316315
935.7001306
934.6306778
933.5257636
932.3880498
931.2201445
930.0248528
928.8051846
927.5642524
926.3050912
925.0308806
923.7447331
922.4497143
921.1489724
919.8454623
918.5421532
917.2418329
915.9471374
914.6606391
913.3846756
912.1215254
910.8732149
909.6415491
908.428226
907.2346693
906.0621102
904.9115451
903.7838137
902.6793084
901.5981636
900.5402782
947.0892695
947.029747
946.9017324
946.7113059
946.4614043
946.1535638
945.7894501
945.3699816
944.8964237
944.3692848
943.7893415
943.1573491
942.4740832
941.740417
940.9573333
940.1260293
939.2479711
938.3247663
937.3580973
936.3503184
935.3033502
934.2198368
933.1023274
931.953603
930.7765529
929.5741844
928.3497052
927.106236
925.8469024
924.5749537
923.293515
922.0057323
920.7146494
919.4232003
918.1342564
916.8505029
915.574467
914.308557
913.0549778
911.8158534
910.5929888
909.3880299
908.2024899
907.0376135
905.894451
904.7738096
903.6762905
902.6023566
901.551918
900.5247754
946.9448921
946.883776
946.7523317
946.557012
946.3004188
945.984431
945.6107917
945.1805042
944.6945822
944.1541201
943.559796
942.9124907
942.213148
941.4628105
940.6627182
939.8144292
938.9193565
937.9794282
936.9968415
935.9737088
934.9126504
933.8162683
932.6873338
931.5289383
930.3441518
929.1360286
927.9078972
926.662987
925.4045352
924.13581
922.8599278
921.5800538
920.2991501
919.0201135
917.7457005
916.4784748
915.2208654
913.975106
912.743274
911.5273098
910.3288402
909.1493548
907.9901815
906.8525033
905.7371324
904.6447043
903.5756981
902.5303564
901.5086837
900.510296
946.7980354
946.7353276
946.6006122
946.4002604
946.137002
945.813066
945.4298344
944.9888455
944.4909738
943.9372818
943.3287948
942.6665386
941.9516322
941.1852932
940.3689463
939.5041919
938.5929694
937.6374095
936.6397055
935.6025046
934.5284351
933.4202765
932.281309
931.1145197
929.9230693
928.7103202
927.4796577
926.2343481
924.9777342
923.7130624
922.4434473
921.1720134
919.9016629
918.635252
917.3754089
916.1245708
914.8850733
913.6589759
912.4482387
911.2546144
910.0795771
908.9244743
907.790453
906.6784583
905.5892954
904.5234925
903.4813354
902.4628675
901.4681882
900.4967453
946.6487901
946.5845834
946.4464901
946.2410807
945.971295
945.6393957
945.2468374
944.7951344
944.2855154
943.719013
943.0967844
942.4200128
941.689987
940.9081253
940.0760758
939.1958256
938.2693508
937.2989424
936.2873132
935.2370106
934.1510021
933.0324421
931.884459
930.7103227
929.513356
928.2971245
927.0650007
925.8202811
924.5663568
923.3064384
922.0437002
920.7811641
919.5216886
918.2680297
917.0227106
915.7880588
914.5662652
913.3592649
912.1688931
910.9967113
909.8440548
908.7122372
907.6021622
906.5146311
905.450257
904.4095311
903.3926843
902.3995709
901.4301954
900.4840419
946.4971913
946.4314098
946.2899321
946.0795044
945.8033829
945.4634892
945.0618124
944.5996172
944.0783572
943.4993391
942.8637311
942.1728882
941.4282659
940.6315715
939.7847227
938.8896295
937.9487148
936.9645745
935.9398534
934.8775596
933.7808085
932.6527569
931.4968443
930.3165686
929.1152598
927.8965116
926.6637702
925.420441
924.1699078
922.9153525
921.6599559
920.4066483
919.1582372
917.9173659
916.686452
915.4677162
914.263238
913.0748266
911.9041769
910.7526743
909.6215308
908.5118393
907.424467
906.360166
905.3193325
904.3022537
903.3092896
902.3400706
901.3944996
900.4721149
946.3431352
946.2757918
946.1309598
945.91573
945.6331904
945.2855221
944.8747671
944.4024003
943.8698364
943.2785252
942.6299046
941.9255014
941.1669443
940.356077
939.4949256
938.5858747
937.6314783
936.6343896
935.5976826
934.5244259
933.417804
932.2814831
931.1188118
929.9332699
928.7284994
927.508124
926.2756023
925.0344357
923.7879742
922.5393507
921.2917033
920.047898
918.8106996
917.5826329
916.3659943
915.1629218
913.9753077
912.8048642
911.6531562
910.5214697
909.4109377
908.3224576
907.2567298
906.2143829
905.1958642
904.2012481
903.2307432
902.2840625
901.3609175
900.4609016
946.1866371
946.1177477
945.9696925
945.7496816
945.4607647
945.1055699
944.6857982
944.2034627
943.6599338
943.0567805
942.3956008
941.6780881
940.9060661
940.0815902
939.2070486
938.2848557
937.3176978
936.3087469
935.2609185
934.1776339
933.0623728
931.9186476
930.7500593
929.5602445
928.353008
927.1319051
925.9004288
924.6620934
923.4202006
922.1779421
920.9383532
919.7042417
918.4782935
917.262926
916.0603253
914.8725564
913.7014074
912.548445
911.4150833
910.3024456
909.2115096
908.1432621
907.0981944
906.0767306
905.0793104
904.1059658
903.1566852
902.231283
901.3292874
900.4503463
946.0277348
945.9574105
945.8061855
945.5813464
945.2862613
944.9235681
944.4951833
944.0029265
943.4486921
942.8340527
942.1607435
941.4306211
940.6457726
939.8085362
938.9212152
937.9865895
937.0077345
935.9876088
934.9297024
933.8374035
932.7142679
931.5641457
930.3906977
929.1975829
927.9886262
926.7674788
925.5376812
924.3027372
923.0659025
921.830402
920.5991787
919.3749536
918.1603148
916.9575871
915.7688646
914.5960671
913.4408382
912.3046997
911.1889898
910.0946987
909.022663
907.9735918
906.9481881
905.9466491
904.9691814
904.0159901
903.0867901
902.1814952
901.2994644
900.4403997
945.8666285
945.7948006
945.6403539
945.410762
945.1097359
944.739571
944.3027676
943.8010544
943.2363555
942.6105455
941.9255634
941.1834336
940.3863857
939.5368331
938.6374782
937.6913738
936.7014187
935.6712144
934.6040304
933.5035473
932.3736592
931.2180307
930.0404508
928.8447906
927.634936
926.4145113
925.1870851
923.9561189
922.7248397
921.4964153
920.2737055
919.0594163
917.8560234
916.6657489
915.4905994
914.3324511
913.1927791
912.0730061
910.9742467
909.8974606
908.8435348
907.8129313
906.8061306
905.8235464
904.8650725
903.930946
903.0208057
902.134481
901.271316
900.4310167
945.703159
945.62985
945.472232
945.2381385
944.931113
944.5538128
944.1086091
943.5976937
943.0229488
942.3864108
941.690183
940.9364784
940.1277288
939.2666284
938.3560771
937.3989995
936.399058
935.3593681
934.2838943
933.1762101
932.040243
930.8799327
929.6991727
928.501843
927.291792
926.0726743
924.8481226
923.6215487
922.3961637
921.1750579
919.9610758
918.7568394
917.5647093
916.3867979
915.2250327
914.0810829
912.956405
911.8524494
910.7701091
909.7101993
908.6734891
907.6605401
906.6715678
905.706938
904.7665733
903.8504837
902.9584233
902.0900422
901.2447215
900.4221564
945.5373606
945.4625939
945.3019453
945.0633972
944.750435
944.3662091
943.9129059
943.3928985
942.8084203
942.1615326
941.4544989
940.6897355
939.8700382
938.9980335
938.0767848
937.1098037
936.1003211
935.0522471
933.9691497
932.8550251
931.7139821
930.5498385
929.366559
928.1681764
926.9585556
925.7414097
924.5202976
923.2985764
922.0794775
920.8659862
919.6608445
918.4666263
917.285608
916.1198164
914.9711907
913.8411906
912.7311959
911.6424098
910.575822
909.532175
908.5120196
907.5158581
906.5439471
905.5963752
904.6732364
903.7742797
902.8993716
902.0479955
901.2195877
900.4137811
945.3692726
945.2931709
945.1295785
944.8865245
944.5679095
944.1767531
943.7156561
943.186931
942.5929395
941.9360606
941.2187206
940.4435236
939.6132475
938.7308507
937.7998526
936.8234257
935.8054277
934.7494583
933.6597161
932.5400253
931.3945014
930.2272227
929.0422736
927.8436168
926.6350832
925.4203847
924.2031118
922.9865731
921.7739908
920.5682813
919.3721495
918.1880288
917.0181145
915.8643468
914.7284754
913.6119638
912.516235
911.4422523
910.3908241
909.3627354
908.3585099
907.3783605
906.4227462
905.4914721
904.5847008
903.7020337
902.8434144
902.0081703
901.1958008
900.4058558
945.1991563
945.1216444
944.9550389
944.7075615
944.3834775
943.9855403
943.516798
942.9796459
942.3765558
941.71007
940.9828002
940.1975461
939.357254
938.4653374
937.5249768
936.53997
935.5140011
934.4511654
933.3553083
932.2307677
931.081666
929.9120065
928.7259456
927.5275349
926.3205991
925.1089286
923.8959927
922.6850602
921.4793016
920.2815441
919.0944237
917.9203183
916.7613485
915.6194448
914.4961737
913.392909
912.3108855
911.2512007
910.2144982
909.2013261
908.2123612
907.2476746
906.3075181
905.3918652
904.5006276
903.6335154
902.7903308
901.9704073
901.1732556
900.3983482
945.026837
944.9479373
944.7783697
944.5267678
944.1971151
943.7927376
943.3164196
942.7710298
942.159143
941.4834051
940.746619
939.9518729
939.1022802
938.201165
937.2521948
936.2592082
935.2260606
934.1568421
933.0558167
931.9271236
930.7749708
929.6035783
928.4171449
927.2196458
926.0148904
924.8066265
923.598333
922.3932588
921.1945014
920.0048736
918.8269119
917.6628939
916.5148261
915.384495
914.2734896
913.183173
912.1146101
911.0686528
910.0461467
909.0474733
908.0730519
907.1231976
906.1978354
905.2971104
904.4206949
903.5684255
902.7399124
901.9345568
901.1518616
900.3912277
944.8523628
944.7720973
944.5997427
944.3439816
944.0088883
943.598195
943.1146858
942.5612664
941.9408119
941.2561866
940.5103852
939.7065539
938.8479768
937.9383333
936.9813861
935.9809731
934.9413106
933.8665024
932.7607664
931.6286433
930.4742346
929.3017375
928.1154003
926.9192498
925.7171442
924.5127789
923.3095396
922.1106821
920.9191869
919.7377593
918.5689164
917.4148942
916.2776521
915.1588447
914.0599101
912.9820824
911.9266194
910.8941129
909.8851896
908.9005031
907.940134
907.0044694
906.0933367
905.2068486
904.3445958
903.5064901
902.6919613
901.9004766
901.1315333
900.3844655
944.6758156
944.5943076
944.419182
944.1592373
943.8190213
943.4019436
942.9114239
942.3503005
941.7216142
941.0284145
940.2738911
939.4613395
938.5943877
937.6767693
936.7122519
935.7051885
934.6595184
933.5797015
932.4701051
931.3350428
930.1788236
929.0058676
927.8202879
926.6260634
925.4270315
924.2268671
923.0289322
921.8364872
920.6524675
919.4794469
918.3198584
917.1758224
916.0491858
914.9416842
913.8546461
912.7891752
911.7462878
910.7268419
909.7311918
908.759895
907.8131449
906.8910514
905.9936338
905.1207363
904.2720601
903.4474665
902.6462878
901.868031
901.1121891
900.3780344
932.1832106
931.0459335
929.8886107
928.7156172
927.5311783
926.339281
925.1437994
923.9482834
922.7560468
921.570277
920.3937919
919.2291852
918.0788596
916.9448328
915.8288423
914.7324556
913.6569919
912.6036294
911.5731504
910.566262
909.5835139
908.6251432
907.6915388
906.78252
905.8982912
905.0384429
904.2028274
903.3911219
902.6027103
901.8370987
901.0937509
900.3719081
)
;

boundaryField
{
    front_top
    {
        type            wedge;
    }
    front_middle
    {
        type            wedge;
    }
    front_bottom
    {
        type            wedge;
    }
    back_top
    {
        type            wedge;
    }
    back_middle
    {
        type            wedge;
    }
    back_bottom
    {
        type            wedge;
    }
    axis_top
    {
        type            symmetryPlane;
    }
    axis_middle
    {
        type            symmetryPlane;
    }
    axis_bottom
    {
        type            symmetryPlane;
    }
    wall_top
    {
        type            calculated;
        value           nonuniform 0();
    }
    wall_middle
    {
        type            calculated;
        value           uniform 900.0184441;
    }
    wall_bottom
    {
        type            calculated;
        value           nonuniform 0();
    }
    inlet
    {
        type            calculated;
        value           nonuniform 0();
    }
    outlet
    {
        type            calculated;
        value           nonuniform 0();
    }
    procBoundary4to3
    {
        type            processor;
        value           nonuniform List<scalar> 
51
(
944.4974154
944.4145834
944.2366396
943.9726535
943.6273443
943.2042107
942.7066525
942.1380409
941.5013805
940.7999135
940.0370222
939.2163322
938.3414388
937.416164
936.4448781
935.4314355
934.3805295
933.2962488
933.2962488
931.8999762
930.7608416
929.60286
928.4304413
927.2477074
926.0585967
924.8669508
923.6763186
922.4900057
921.3111475
920.1424444
918.986443
917.8453832
916.7212206
915.6157808
914.5304548
913.4664236
912.4248104
911.4064797
910.4118699
909.4415977
908.4958617
907.5748595
906.6785402
905.8069375
904.9596439
904.1365748
903.3372333
902.5610546
901.8075655
901.0761439
900.3660615
)
;
    }
    procBoundary4to5
    {
        type            processor;
        value           nonuniform List<scalar> 
51
(
948.1574059
948.1099538
948.008038
947.8566763
947.6580142
947.4136102
947.1249553
946.7926161
946.4174995
945.9997178
945.5397644
945.0375196
944.4928648
943.9056396
943.2756278
942.6025596
941.8861832
941.1262566
940.3226532
939.4753084
938.5844381
937.6503034
936.6732265
935.6540067
934.5932808
933.4920589
932.351738
931.1735902
929.9592077
928.7104977
927.4295742
926.1186129
924.7800848
923.4165708
922.030833
920.0631191
920.0631191
918.6579827
917.2439226
915.8239642
914.4012967
912.9790426
911.5605528
910.1486157
908.7461361
907.3558426
905.9803255
904.6216716
903.2817331
901.9618344
900.6628371
)
;
    }
}


// ************************************************************************* //
