/*--------------------------------*- C++ -*----------------------------------*\
  =========                 |
  \\      /  F ield         | OpenFOAM: The Open Source CFD Toolbox
   \\    /   O peration     | Website:  https://openfoam.org
    \\  /    A nd           | Version:  7
     \\/     M anipulation  |
\*---------------------------------------------------------------------------*/
FoamFile
{
    version     2.0;
    format      ascii;
    class       volScalarField;
    location    "0.0009";
    object      thermo:mu;
}
// * * * * * * * * * * * * * * * * * * * * * * * * * * * * * * * * * * * * * //

dimensions      [1 -1 -1 0 0 0 0];

internalField   nonuniform List<scalar> 
1167
(
279066.7679
277079.119
272860.9951
266725.6992
258908.3956
249650.1227
239189.6818
227759.3836
215595.7831
202914.1704
189920.0804
176808.9401
163748.7663
150891.9525
138371.2863
126298.5028
114764.7476
103840.9269
93580.50247
84016.8498
75166.48947
67033.34688
59607.0292
52866.89284
46783.15662
41321.24505
36440.3467
32097.3101
28247.81308
24847.88632
21854.12574
19224.80429
16920.76155
14905.33352
13144.98827
273908.1392
271904.2686
267652.7392
261471.379
253600.559
244291.3926
233776.2519
222306.8607
210110.7603
197423.4045
184447.9832
171379.863
158394.5971
145647.5564
133270.1935
121373.455
110046.2245
99355.80355
89349.55349
80056.268
71490.44451
63646.36539
56511.00245
50057.02225
44252.13374
39056.81632
34427.94804
30320.39283
26688.74247
23488.19431
20675.08601
18208.25295
16049.12718
14162.07252
12514.68738
11077.57371
9824.447315
8731.839078
7779.056682
6947.744589
6221.904461
5587.574795
5032.562044
4546.308515
4119.604284
3744.503955
3414.122985
3122.508341
2864.472283
2635.537528
268765.1744
266745.9627
262462.9921
256238.7097
248325.051
238964.5972
228405.6063
216903.5145
204693.1369
192006.9449
179065.0236
166059.5738
153168.8824
140548.7188
128331.2359
116625.3134
105516.4104
95068.47414
85325.55594
76310.02531
68027.8964
60473.00532
53622.77069
47448.36715
41912.16117
36971.88214
32582.20407
28696.46816
25268.67629
22253.33617
19607.07472
17289.41944
15262.65476
13492.48538
11947.54449
10599.77301
9424.158711
8398.492697
7503.247285
6721.276334
6037.620917
5439.200903
4914.655546
4454.170086
4049.227598
3692.456259
3377.468948
3098.759741
2851.509149
2631.572627
263640.1444
261606.7403
257294.8594
251035.5239
243080.3145
233675.7524
223085.8853
211557.6733
199346.0747
186680.3282
173782.1056
160855.2508
148075.7268
135599.1399
123556.8466
112055.1011
101178.0741
90983.60156
81508.27434
72771.97125
64774.94952
57503.67529
50932.89687
45028.89946
39750.37804
35052.8709
30889.37935
27212.05055
23974.13763
21130.33398
18637.94203
16457.21754
14551.49363
12887.60494
11435.54825
10168.6434
9063.045324
8097.751412
7254.378512
6516.810667
5871.06237
5304.916721
4807.804409
4370.573627
3985.289041
3645.097869
3344.064748
3077.069289
2839.644025
2627.937474
258535.4821
256489.2791
252154.012
245864.4105
237871.1251
228433.5787
217819.5138
206281.4464
194077.453
181448.0697
168614.0433
155779.7484
143126.1121
130808.3697
118955.9465
107671.8068
97034.29382
87097.13076
77895.1323
69437.83419
61722.64735
54729.63287
48430.68844
42786.45545
37754.15761
33287.2767
29336.52844
25853.9636
22792.64753
20107.59526
17756.91151
15701.73136
13906.64472
12339.65496
10972.0606
9778.394133
8736.095834
7825.368159
7028.840424
6331.388723
5719.89826
5182.929562
4710.612399
4294.406898
3926.925421
3601.782945
3313.450197
3057.152211
2828.728245
2624.587798
253454.5585
251399.8299
247045.2252
240726.3477
232702.1032
223244.3763
212612.7324
201079.5465
188897.3557
176316.4664
163562.1381
150838.4953
138326.9076
126181.8502
114530.3706
103472.1862
93083.03134
83410.27074
74480.04336
66301.31241
58862.36763
52141.70949
46104.22281
40709.35663
35911.85464
31662.23909
27911.2109
24610.46964
21713.11626
19174.82453
16954.5702
15014.52883
13320.58286
11841.92995
10551.18063
9424.074425
8439.216957
7577.900424
6823.764166
6162.616657
5582.132363
5071.595603
4621.778394
4224.684655
3873.412919
3561.999724
3285.280992
3038.792063
2818.647111
2621.489337
248404.9621
246340.7543
241967.4624
235625.1277
227581.7795
218109.0581
207474.1578
195955.7552
183813.457
171295.4933
158632.9938
146034.6442
133679.21
121719.7951
110281.7002
99459.9412
89323.14744
79914.97686
71258.76051
63353.18871
56186.21653
49728.23065
43942.8084
38786.52113
34210.88045
30165.97938
26602.1286
23470.84417
20725.53659
18322.84367
16222.59862
14388.17698
12786.71705
11388.67048
10167.92356
9101.367816
8168.715047
7352.296072
6636.676464
6008.512896
5456.203469
4969.700691
4540.356632
4160.677046
3824.198031
3525.333501
3259.273087
3021.810129
2809.306002
2618.613866
243383.5093
241311.7632
236923.9702
230564.5532
222512.7386
213032.3174
202409.625
190915.5067
178827.0975
166389.5687
153836.7176
141377.0379
129190.6864
117428.4697
106210.8839
95629.75856
85749.75577
76608.94614
68221.68153
60586.93483
53682.83008
47479.3496
41935.71311
37005.78211
32640.01394
28787.75071
25399.14124
22425.61376
19821.26377
17543.68191
15553.79246
13816.30023
12299.4787
10975.07151
9818.145698
8806.730395
7921.600153
7146.027901
6465.45901
5867.32475
5340.685022
4876.10496
4465.460744
4101.716274
3778.802696
3491.471483
3235.190694
3006.057237
2800.625959
2615.937854
238393.0346
236315.8222
231917.9813
225554.6424
217496.0939
208020.6569
197419.9007
185969.794
173942.9624
161600.0394
149170.9154
136864.057
124858.5972
113302.6071
102313.6697
91980.45155
82358.82613
73482.69647
65363.46158
57991.17989
51343.3206
45384.44947
40071.33432
35356.49139
31189.15532
27517.79161
24292.62574
21465.63957
18991.83464
16829.7662
14941.49415
13293.0007
11853.74883
10596.7288
9498.133346
8537.062373
7695.301173
6956.994973
6308.406852
5737.667333
5234.461702
4789.911876
4396.367806
4047.241311
3736.795158
3460.086125
3212.854552
2991.407655
2792.540422
2613.441477
233436.4335
231355.9231
226957.6112
220591.9451
212535.5136
203079.9265
192508.9488
181115.8195
169170.2989
156932.4955
144638.7079
132496.6725
120683.5572
109343.8937
98590.69238
88505.6936
79143.1706
70530.9075
62673.16276
55557.94033
49157.22179
43432.54462
38339.93059
33828.98762
29848.09109
26346.17928
23273.56722
20582.80953
18229.95528
16174.56576
14379.91283
12813.19548
11445.0966
10249.81313
9204.604823
8289.582099
7487.480373
6783.25443
6163.926412
5618.264233
5136.53343
4710.364898
4332.536102
3996.813315
3697.830229
3430.92839
3192.070518
2977.754177
2784.992649
2611.107846
228519.4985
226440.68
222042.463
215679.7092
207637.095
198209.2305
187684.3342
176356.7441
164505.7856
152389.6409
140245.0671
128278.993
116666.2862
105548.2215
95033.64929
85201.07251
76097.08668
67743.90491
60143.44837
53277.01284
47114.21685
41614.80033
36731.23515
32412.76371
28607.41497
25264.40638
22334.21518
19770.1631
17529.36853
15572.49117
13864.14455
12372.65701
11069.92892
9931.264969
8934.972264
8062.1271
7296.319827
6623.28965
6030.752891
5508.059478
5046.0108
4636.73767
4273.375294
3950.033905
3661.629409
3403.784234
3172.69203
2965.017131
2777.933772
2608.922417
223645.8308
221568.101
217173.8206
210821.0198
202804.7784
193411.6155
182946.4827
171698.0016
159951.3447
147969.2085
135985.2478
124205.175
112800.9578
101911.3665
91641.0043
82059.78462
73211.86644
65114.9771
57764.21143
51139.04653
45205.56656
39920.39437
35235.36506
31099.18531
27459.23848
24264.86453
21467.29302
19020.94311
16883.96042
15018.16012
13389.42038
11967.21253
10724.60985
9637.968177
8686.588969
7852.457995
7119.980848
6475.616731
5907.710247
5406.150307
4962.232477
4568.479848
4218.430468
3906.529004
3627.930239
3378.468161
3154.591933
2953.103951
2771.321341
2606.872572
218814.5063
216740.1272
212354.5965
206023.5628
198037.6867
188692.586
178295.5997
167141.0706
155512.3644
143673.4874
131859.9553
120275.2768
109087.8122
98431.20256
88404.26114
79074.89905
70480.94119
62634.0975
55527.12014
49134.98698
43420.66746
38340.65441
33844.40908
29879.77284
26395.00414
23339.73392
20665.90117
18329.07709
16288.45097
14506.99344
12951.78674
11593.47376
10406.26861
9367.523504
8457.467099
7658.955173
6957.107523
6339.07539
5793.79153
5311.672312
4884.474953
4505.078285
4167.340874
3865.99647
3596.491565
3354.839165
3137.657866
2941.942747
2765.117841
2604.947146
214028.3926
211959.6107
207590.3605
201286.5667
193338.3618
184054.4724
173733.9028
162684.2728
151186.0863
139503.091
127869.8015
116487.2805
105520.5942
95099.2437
85318.81976
76239.90289
67894.96673
60293.89491
53422.85264
47255.09713
41751.89149
36866.68918
32548.8867
28746.30707
25407.63264
22482.73114
19924.48037
17689.54443
15738.23787
14034.87918
12547.64622
11248.32846
10112.20046
9117.578489
8245.57463
7479.86363
6806.271448
6212.551137
5688.164112
5223.986979
4812.181016
4446.055724
4119.735191
3828.187633
3567.113866
3332.731354
3121.791817
2931.471532
2759.290265
2603.136289
209290.8507
207232.5583
202884.371
196611.1135
188711.9124
179495.8452
169267.4388
158329.012
146971.038
135453.5165
124008.8365
112835.0787
102094.5675
91913.00015
82377.56598
73546.01141
65447.59533
58084.66575
51442.92728
45491.46123
40189.37094
35489.92696
31341.66683
27692.18998
24490.53453
21687.53447
19237.1205
17097.04186
15228.75731
13597.87152
12173.64995
10928.95446
9840.060638
8886.216485
8049.378401
7313.941377
6666.378489
6095.063191
5589.974187
5142.411512
4744.901075
4391.023106
4075.290614
3792.866045
3539.620533
3312.015743
3106.906291
2921.635066
2753.809238
2601.431257
204609.6499
202561.2668
198235.7334
191999.5446
184160.3608
175018.2201
164891.7404
154079.2509
142869.4914
131524.9054
120276.2444
109317.9094
98807.29602
88864.07043
79573.03177
70987.4092
63128.75128
55999.27129
49578.6714
43834.76723
38725.96151
34203.18949
30215.04357
26709.84739
23637.18311
20948.58883
18599.09042
16547.5263
14756.5568
13192.94848
11827.07871
10632.93264
9587.721713
8671.565852
7867.218808
7159.806712
6536.373518
5985.833649
5498.582937
5066.368825
4682.122104
4339.664242
4033.73095
3759.799708
3513.864284
3292.578044
3092.932147
2912.383158
2748.64804
2599.824082
199981.8156
197945.4159
193646.9025
187458.4611
179682.2322
170627.0722
160607.3396
149929.922
138879.1091
127716.1487
116669.2376
105929.4577
95650.11481
85947.06158
76899.91533
68554.31599
60932.60748
54028.30016
47822.09717
42278.1161
37353.17954
32998.45788
29162.48298
25793.74452
22842.36162
20260.93115
18005.73206
16036.71036
14317.74098
12816.69913
11505.10759
10357.94001
9353.297798
8472.121888
7697.923199
7016.42071
6415.294322
5884.018037
5413.355897
4995.414384
4623.444839
4291.613332
3994.832457
3728.796944
3489.703319
3274.314011
3079.790501
2903.670575
2743.782489
2598.307531
195409.9858
193387.5394
189122.5016
182986.4756
175279.015
166319.9663
156417.5261
145880.3724
134996.1985
124021.582
113181.6742
102664.1181
92619.78431
83156.37412
74348.86773
66242.05519
58849.20352
52165.38313
46165.16258
40812.84725
36064.40339
31869.71735
28177.61814
24937.50878
22100.28856
19619.67062
17452.91514
15561.1129
13909.4073
12466.72402
11205.61264
10102.05893
9135.048447
8286.315866
7540.135226
6882.757702
6302.413446
5788.973425
5333.703885
4929.059902
4568.540733
4246.582786
3958.356341
3699.685062
3466.992918
3257.129014
3067.412536
2895.45594
2739.193754
2596.874977
190896.7217
188892.6713
184665.6624
178583.925
170955.8426
162096.3359
152320.9603
141933.7413
131221.0451
120440.0667
109812.1953
99520.81739
89709.60939
80483.60353
71915.43871
64040.7769
56873.11113
50401.29247
44600.83975
39432.85711
34852.32812
30809.83212
27254.62123
24136.37913
21406.83546
19020.84017
16936.9314
15117.35707
13528.4613
12140.2392
10926.28128
9863.431565
8931.521003
8113.035174
7392.847863
6757.860849
6196.871661
5700.10148
5259.159053
4866.882856
4517.066272
4204.312755
3924.08493
3672.315788
3445.615053
3240.93692
3055.738563
2887.701187
2734.859477
2595.520286
186450.0825
184463.4244
180274.7658
174252.3954
166711.1737
157957.7579
148315.0958
138085.1153
127551.6109
116969.1299
106555.7163
96490.70559
86912.9277
77925.30669
69590.66203
61944.90204
54995.40047
48730.72901
43121.7065
38130.56164
33711.21814
29813.77644
26388.13917
23384.9788
20756.97982
18460.26449
16454.33197
14702.6128
13172.58596
11835.28733
10665.303
9640.394491
8741.196078
7950.948745
7255.074175
6641.020961
6098.011866
5616.788445
5189.265353
4808.523975
4468.704808
4164.604013
3891.832487
3646.553412
3425.461427
3225.669858
3044.713615
2880.371166
2730.759094
2594.237764
182066.3539
180098.6603
175951.6485
169998.3436
162544.3273
153906.9933
144400.4031
134332.2731
123982.9878
113602.8977
103406.4981
93569.97117
84226.89028
75472.68271
67369.07471
59946.83372
53210.37184
47145.0686
41721.81766
36900.3606
32634.56429
28875.37005
25573.18389
22679.25676
20147.32321
17934.63113
16001.95854
14313.93175
12839.10093
11549.58449
10420.86819
9431.541238
8562.975853
7799.052975
7125.863108
6531.400159
6005.274302
5538.539088
5123.566948
4753.675606
4423.183319
4127.199737
3861.427733
3622.247517
3406.431866
3211.246939
3034.28663
2873.433149
2726.874967
2593.022087
177747.6514
175800.3592
171700.9454
165817.9616
158456.5469
149939.9912
140578.5619
130676.4293
120514.3012
110339.8196
100363.3144
90754.67061
81642.88144
73120.58371
65244.30465
58040.01526
51510.86303
45639.27438
40394.09999
35735.89568
31617.57008
27990.23541
24805.14439
22014.63533
19573.64101
17440.47209
15576.98236
13949.02727
12526.154
11281.45181
10191.385
9235.387489
8395.57019
7656.405523
7004.500108
6428.317001
5918.02479
5464.937414
5061.682507
4701.979273
4380.267733
4091.898131
3832.725176
3599.275198
3388.433175
3197.595134
3024.409844
2866.856443
2723.190508
2591.868235
173496.6667
171573.4665
167523.3888
161712.0964
154452.1335
146056.5544
136844.7591
127114.4484
117143.6218
107176.5797
97419.64901
88037.73382
79156.82691
70863.52825
63209.12014
56218.99068
49890.69053
44206.40823
39133.94955
34632.02143
30654.40005
27153.22268
24079.96418
21387.86752
19033.01949
16974.9485
15176.7211
13605.38417
12231.5292
11029.12644
9975.506056
9050.85746
8237.972448
7522.044674
6890.174182
6331.246369
5835.748158
5395.495228
5003.309144
4653.149926
4339.732059
4058.513463
3805.578634
3577.522193
3371.383795
3184.650237
3015.038276
2860.612057
2719.690005
2590.771437
37934.76828
33583.67044
29741.35816
26360.39499
23393.48264
20794.93205
18522.05308
16535.34645
14799.03919
13281.25935
11953.57552
10791.00619
9771.749294
8876.70483
8089.295206
7395.23546
6782.180513
6239.524446
5758.035628
5329.820863
4948.086513
4606.92339
4301.33572
4026.87297
3779.835235
3556.881541
3355.207105
3172.351802
3006.129423
2854.674229
2716.35851
2589.727144
)
;

boundaryField
{
    front_top
    {
        type            wedge;
    }
    front_middle
    {
        type            wedge;
    }
    front_bottom
    {
        type            wedge;
    }
    back_top
    {
        type            wedge;
    }
    back_middle
    {
        type            wedge;
    }
    back_bottom
    {
        type            wedge;
    }
    axis_top
    {
        type            symmetryPlane;
    }
    axis_middle
    {
        type            symmetryPlane;
    }
    axis_bottom
    {
        type            symmetryPlane;
    }
    wall_top
    {
        type            calculated;
        value           nonuniform 0();
    }
    wall_middle
    {
        type            calculated;
        value           uniform 2530.329233;
    }
    wall_bottom
    {
        type            calculated;
        value           nonuniform 0();
    }
    inlet
    {
        type            calculated;
        value           nonuniform 0();
    }
    outlet
    {
        type            calculated;
        value           nonuniform 0();
    }
    procBoundary4to3
    {
        type            processor;
        value           nonuniform List<scalar> 
51
(
169318.9732
167418.5251
163417.9766
157683.2238
150526.847
142260.0933
133197.9249
123642.7691
113865.746
104107.6516
94570.59243
85416.36075
76763.72329
68694.46249
61259.6565
54476.54721
48344.60476
42841.37898
42841.37898
36792.64153
32585.93769
28873.2249
25607.66217
22742.53436
20233.18425
18038.10204
16119.04849
14441.44242
12974.46832
11690.61537
10565.82938
9579.037813
8711.888325
7948.553092
7275.212288
6679.96208
6152.623574
5684.390213
5267.576389
4895.704417
4563.089741
4264.877492
3996.836909
3755.365015
3537.25154
3339.814191
3160.642964
2997.64314
2849.018852
2713.181799
2588.731009
)
;
    }
    procBoundary4to5
    {
        type            processor;
        value           nonuniform List<scalar> 
51
(
284244.395
282270.8539
278084.7694
271997.7931
264238.0121
255035.8653
244635.3353
233255.7928
221131.5747
208468.0412
195475.4103
182334.6568
169213.9283
156264.3923
143618.0795
131386.9765
119663.9384
108522.4214
98018.36483
88189.96325
79061.08183
70639.67127
62920.15106
55888.36336
49518.4857
43779.01751
38633.92051
34041.94425
29960.50791
26346.65522
23157.68594
20351.78622
17889.32595
15732.91709
13847.90822
11609.04786
11609.04786
10269.92545
9102.972238
8086.039776
7199.684252
6426.773589
5752.429487
5163.435642
4648.404482
4197.438406
3801.972633
3454.522667
3148.638416
2878.710237
2639.886324
)
;
    }
}


// ************************************************************************* //
