/*--------------------------------*- C++ -*----------------------------------*\
  =========                 |
  \\      /  F ield         | OpenFOAM: The Open Source CFD Toolbox
   \\    /   O peration     | Website:  https://openfoam.org
    \\  /    A nd           | Version:  7
     \\/     M anipulation  |
\*---------------------------------------------------------------------------*/
FoamFile
{
    version     2.0;
    format      ascii;
    class       volVectorField;
    location    "0.0009";
    object      U;
}
// * * * * * * * * * * * * * * * * * * * * * * * * * * * * * * * * * * * * * //

dimensions      [0 1 -1 0 0 0 0];

internalField   nonuniform List<vector> 
1167
(
(-6.287801137e-05 -4.419636319e-19 -0.004350759855)
(-0.0001623875433 -6.372125881e-19 -0.004347419526)
(-0.0002554311094 -8.302698898e-19 -0.00434017261)
(-0.0003512864341 -1.473142407e-18 -0.004329314389)
(-0.00044437688 -2.141297233e-18 -0.004315228593)
(-0.0005342353776 -2.751769597e-18 -0.004298168923)
(-0.0006207772323 -4.584933093e-18 -0.004278340833)
(-0.0007038123472 -3.895228466e-18 -0.00425595416)
(-0.0007832099602 -4.35305138e-18 -0.004231208155)
(-0.0008588889481 -3.711019298e-18 -0.004204291531)
(-0.0009308008567 -3.653255526e-18 -0.004175379272)
(-0.0009989237977 -3.344064186e-18 -0.004144633536)
(-0.001063258474 -3.365170689e-18 -0.00411220225)
(-0.001123824132 -3.39246783e-18 -0.004078217856)
(-0.001180654271 -3.352808047e-18 -0.004042796698)
(-0.001233793303 -3.068337047e-18 -0.004006038867)
(-0.001283293478 -2.392720959e-18 -0.003968027882)
(-0.00132921213 -2.764793737e-18 -0.003928830639)
(-0.00137160903 -2.812394947e-18 -0.003888497577)
(-0.001410544271 -2.572242099e-18 -0.003847063139)
(-0.00144607672 -2.515861646e-18 -0.003804546093)
(-0.001478262049 -2.396372027e-18 -0.003760949772)
(-0.001507151781 -2.260742605e-18 -0.003716262938)
(-0.001532791779 -2.483683087e-18 -0.003670459443)
(-0.00155522165 -2.309994629e-18 -0.00362349888)
(-0.001574473346 -2.285192447e-18 -0.003575325564)
(-0.001590569803 -2.38190294e-18 -0.003525867967)
(-0.001603523848 -2.297314063e-18 -0.003475037325)
(-0.001613336273 -2.214685759e-18 -0.003422725028)
(-0.001619993154 -2.102757789e-18 -0.003368798982)
(-0.001623462346 -2.161582775e-18 -0.003313098717)
(-0.001623688999 -2.181664446e-18 -0.003255428232)
(-0.001620588812 -2.151905844e-18 -0.003195545645)
(-0.001614038602 -2.190242375e-18 -0.003133148658)
(-0.001603862707 -2.202340057e-18 -0.003067853384)
(-6.49688536e-05 -4.264722522e-19 -0.004518551353)
(-0.0001678358661 -9.768716008e-19 -0.004514925416)
(-0.0002640077667 -1.174913236e-18 -0.004507035967)
(-0.0003630480419 -1.867313787e-18 -0.004495235615)
(-0.0004592440267 -2.262929081e-18 -0.004479932875)
(-0.0005520846193 -4.732474554e-18 -0.004461406879)
(-0.000641482891 -3.967621316e-18 -0.004439888177)
(-0.0007272423611 -4.132611389e-18 -0.00441560945)
(-0.000809226225 -3.654288403e-18 -0.004388793077)
(-0.0008873490073 -3.669696257e-18 -0.004359648545)
(-0.0009615589478 -3.618459258e-18 -0.00432837202)
(-0.001031832272 -3.347505798e-18 -0.004295143746)
(-0.001098168258 -3.108511876e-18 -0.004260128327)
(-0.001160584905 -3.202750301e-18 -0.004223473175)
(-0.001219114974 -3.270177335e-18 -0.004185307816)
(-0.001273802451 -3.116216728e-18 -0.004145743529)
(-0.001324699291 -2.886457341e-18 -0.004104873265)
(-0.001371862633 -2.554983193e-18 -0.004062771618)
(-0.00141535221 -2.826609435e-18 -0.004019495116)
(-0.0014552283 -2.639917478e-18 -0.003975082729)
(-0.00149154962 -2.517894202e-18 -0.003929556562)
(-0.001524372237 -2.421398301e-18 -0.003882922526)
(-0.001553747937 -2.373965956e-18 -0.00383517045)
(-0.001579723273 -2.344141409e-18 -0.003786275156)
(-0.001602338586 -2.504350006e-18 -0.003736195931)
(-0.001621626503 -2.333821231e-18 -0.003684876438)
(-0.001637611049 -2.54817973e-18 -0.003632244011)
(-0.001650306013 -2.213012897e-18 -0.003578207877)
(-0.001659712977 -2.106572117e-18 -0.003522656624)
(-0.00166581836 -2.148188707e-18 -0.003465454307)
(-0.001668589831 -2.323299296e-18 -0.00340643522)
(-0.00166797132 -1.662600621e-18 -0.003345396069)
(-0.001663875688 -2.358997257e-18 -0.003282084869)
(-0.001656174694 -1.658034344e-18 -0.003216185103)
(-0.001644684122 -2.012834606e-18 -0.003147292689)
(-0.001629142508 -1.99748581e-18 -0.003074882716)
(-0.001609179898 -1.991055018e-18 -0.002998260457)
(-0.001584272479 -2.017503658e-18 -0.002916490218)
(-0.001553678901 -1.790503195e-18 -0.00282829397)
(-0.001516355089 -1.589406718e-18 -0.002731914253)
(-0.001470851375 -1.408411767e-18 -0.002624945693)
(-0.001415206185 -1.507472436e-18 -0.002504155683)
(-0.001346860107 -1.621092305e-18 -0.00236532505)
(-0.001262610342 -2.034430024e-18 -0.00220313468)
(-0.001158610547 -1.428485376e-18 -0.00201110002)
(-0.001030410196 -1.132768655e-18 -0.001781531536)
(-0.0008730276905 -1.020039009e-18 -0.001505495689)
(-0.0006809651434 -8.889202965e-19 -0.001172809309)
(-0.0004479126048 -6.530561598e-19 -0.0007722042001)
(-0.000166010465 -3.090194049e-19 -0.0002917469614)
(-6.701564727e-05 -5.28621615e-19 -0.004694298432)
(-0.0001731740776 -1.569534976e-18 -0.004690375036)
(-0.000272414906 -2.54453559e-18 -0.004681820109)
(-0.0003745805748 -2.561699443e-18 -0.004669042968)
(-0.0004738298329 -2.381823781e-18 -0.004652477359)
(-0.0005696082122 -4.180835424e-18 -0.004632429495)
(-0.000661827103 -4.608882381e-18 -0.004609155022)
(-0.0007502838418 -3.721781277e-18 -0.004582909449)
(-0.0008348355987 -3.820184841e-18 -0.004553939247)
(-0.0009153927999 -3.324881278e-18 -0.004522474879)
(-0.0009919000163 -3.506780228e-18 -0.004488732675)
(-0.00106433055 -3.195330525e-18 -0.004452912376)
(-0.001132681554 -3.101161131e-18 -0.004415195146)
(-0.001196969017 -3.015128276e-18 -0.004375743188)
(-0.001257223992 -2.84813945e-18 -0.004334699173)
(-0.001313488909 -3.02825616e-18 -0.004292185624)
(-0.001365814428 -3.576206901e-18 -0.004248305035)
(-0.001414256473 -2.957480741e-18 -0.004203139679)
(-0.001458873602 -2.363241051e-18 -0.004156752361)
(-0.001499725164 -2.686625638e-18 -0.004109187075)
(-0.00153686934 -2.374489177e-18 -0.004060469389)
(-0.001570361642 -2.341776511e-18 -0.004010607919)
(-0.001600253678 -2.257944983e-18 -0.003959594517)
(-0.001626592306 -2.375875061e-18 -0.003907405013)
(-0.001649418036 -2.485458448e-18 -0.003853999145)
(-0.001668764285 -2.611745882e-18 -0.003799320597)
(-0.001684655929 -2.575912679e-18 -0.003743295901)
(-0.001697107638 -2.780161143e-18 -0.00368583275)
(-0.001706121612 -2.350032241e-18 -0.003626817301)
(-0.001711684606 -2.495121821e-18 -0.003566110216)
(-0.001713764157 -1.805972231e-18 -0.003503540742)
(-0.001712302886 -1.990915361e-18 -0.003438898209)
(-0.001707210708 -1.847707707e-18 -0.00337192013)
(-0.001698353916 -1.808347407e-18 -0.003302275066)
(-0.001685539353 -1.697593024e-18 -0.003229537863)
(-0.00166849171 -1.707373528e-18 -0.00315315357)
(-0.001646820348 -2.046281826e-18 -0.003072385145)
(-0.001619972073 -1.311862229e-18 -0.002986238229)
(-0.001587165924 -1.585636985e-18 -0.002893356308)
(-0.001547309374 -1.600251292e-18 -0.002791884125)
(-0.00149890224 -1.156125203e-18 -0.002679308377)
(-0.001439944966 -1.37926048e-18 -0.002552300242)
(-0.001367874222 -1.579510113e-18 -0.002406590823)
(-0.001279541364 -1.509104889e-18 -0.002236899479)
(-0.001171232297 -1.382026929e-18 -0.002036908764)
(-0.001038719641 -1.206739564e-18 -0.001799259969)
(-0.0008773408745 -1.025104142e-18 -0.001515544046)
(-0.0006820112643 -8.112372945e-19 -0.001176323545)
(-0.000446927381 -5.433474162e-19 -0.0007713175847)
(-0.0001648819464 -2.519248544e-19 -0.0002897993978)
(-6.902620709e-05 -8.096010137e-19 -0.004878126948)
(-0.0001784222105 -1.679412034e-18 -0.004873895914)
(-0.0002806840292 -2.391254626e-18 -0.004864656533)
(-0.0003859271273 -2.497802521e-18 -0.004850873482)
(-0.0004881892595 -3.030500879e-18 -0.00483300662)
(-0.0005868732113 -3.98597742e-18 -0.004811390479)
(-0.0006818881572 -4.041551675e-18 -0.004786304517)
(-0.0007730263066 -5.21207695e-18 -0.004758028438)
(-0.000860138707 -3.815121996e-18 -0.004726831362)
(-0.000943131021 -3.867074136e-18 -0.004692966383)
(-0.001021944359 -3.461525776e-18 -0.004656669185)
(-0.001096548295 -3.186854544e-18 -0.004618157953)
(-0.001166936555 -3.223750901e-18 -0.004577630948)
(-0.001233122365 -3.061485977e-18 -0.004535265343)
(-0.001295134099 -2.712927872e-18 -0.004491216716)
(-0.001353011687 -2.105749505e-18 -0.004445618684)
(-0.00140680326 -2.917714404e-18 -0.00439858304)
(-0.001456562296 -2.849027379e-18 -0.00435019997)
(-0.001502345551 -2.487353291e-18 -0.004300538782)
(-0.001544210538 -2.406340125e-18 -0.004249648448)
(-0.001582214073 -2.181491351e-18 -0.004197558967)
(-0.001616410554 -2.340575452e-18 -0.004144281761)
(-0.001646851192 -2.351579422e-18 -0.00408981135)
(-0.001673582334 -2.348645082e-18 -0.004034125023)
(-0.001696644767 -2.345584291e-18 -0.003977183883)
(-0.0017160725 -2.538636516e-18 -0.003918932026)
(-0.001731890975 -2.577409152e-18 -0.003859295733)
(-0.00174411563 -2.624476739e-18 -0.003798181871)
(-0.00175274934 -2.508616931e-18 -0.003735474713)
(-0.00175777927 -2.405728443e-18 -0.003671031794)
(-0.001759172664 -2.195702589e-18 -0.003604677452)
(-0.001756870681 -1.851415383e-18 -0.003536193693)
(-0.001750780151 -2.055614106e-18 -0.003465307314)
(-0.001740761649 -1.977437094e-18 -0.003391671316)
(-0.001726612729 -1.889866291e-18 -0.00331483841)
(-0.001708043723 -1.867105128e-18 -0.00323422243)
(-0.001684643012 -1.843304662e-18 -0.003149042852)
(-0.001655828208 -1.879468467e-18 -0.003058245921)
(-0.001620780293 -1.747302228e-18 -0.00296039772)
(-0.001578362066 -1.688996948e-18 -0.002853549893)
(-0.001527029713 -1.871081607e-18 -0.002735091682)
(-0.001464755717 -1.321482601e-18 -0.002601615524)
(-0.001388984121 -1.468087782e-18 -0.00244882527)
(-0.001296628636 -1.262815298e-18 -0.00227150025)
(-0.001184107087 -1.151084564e-18 -0.002063502127)
(-0.001047401963 -1.208781919e-18 -0.001817796573)
(-0.0008821411505 -1.057782539e-18 -0.001526466041)
(-0.0006836076899 -1.559181245e-18 -0.001180751331)
(-0.0004464425082 -5.576027508e-19 -0.0007712506132)
(-0.00016400757 -1.207442417e-19 -0.0002882939161)
(-7.101052119e-05 -2.677161394e-19 -0.005070192162)
(-0.0001836059819 4.423503226e-19 -0.005065645061)
(-0.0002888553638 -1.192242434e-18 -0.005055706082)
(-0.0003971429418 -2.057323589e-18 -0.005040893782)
(-0.0005023926709 -1.704188358e-18 -0.00502169547)
(-0.0006039640226 -3.47204221e-18 -0.004998473053)
(-0.000701764023 -4.122756589e-18 -0.004971529592)
(-0.0007955803485 -4.361279268e-18 -0.004941169637)
(-0.0008852581029 -3.488015543e-18 -0.00490768403)
(-0.0009706977037 -3.71435034e-18 -0.004871347637)
(-0.001051835823 -3.467177433e-18 -0.004832416459)
(-0.001128638067 -3.369338671e-18 -0.004791126241)
(-0.001201094092 -3.293067538e-18 -0.004747691588)
(-0.001269213095 -3.200271991e-18 -0.004702304315)
(-0.001333019639 -2.819294093e-18 -0.004655132781)
(-0.001392550031 -2.584201084e-18 -0.004606321634)
(-0.001447848998 -2.444211396e-18 -0.004555991998)
(-0.001498967017 -2.425651122e-18 -0.004504241947)
(-0.001545957747 -2.462239616e-18 -0.004451147377)
(-0.001588876269 -2.421906175e-18 -0.004396762896)
(-0.001627777303 -2.032812062e-18 -0.004341122821)
(-0.001662713923 -2.698213701e-18 -0.004284242643)
(-0.001693736081 -2.214082459e-18 -0.004226119502)
(-0.001720889658 -2.464156864e-18 -0.004166733434)
(-0.001744215621 -2.116144222e-18 -0.004106047227)
(-0.001763748023 -2.170149642e-18 -0.004044006075)
(-0.00177951293 -2.239512765e-18 -0.003980536937)
(-0.001791526596 -2.94248166e-18 -0.00391554636)
(-0.001799792541 -2.470138706e-18 -0.003848917316)
(-0.001804298278 -2.42841544e-18 -0.003780504524)
(-0.001805010597 -2.289560486e-18 -0.003710127539)
(-0.001801869027 -1.873070979e-18 -0.003637561026)
(-0.001794777032 -2.053408613e-18 -0.003562520826)
(-0.001783589256 -2.122465605e-18 -0.003484644005)
(-0.001768093686 -2.192575469e-18 -0.003403460374)
(-0.001747986022 -2.088932651e-18 -0.003318351501)
(-0.001722833529 -2.084306913e-18 -0.003228492306)
(-0.001692025008 -1.915009018e-18 -0.003132769461)
(-0.001654705058 -1.481582868e-18 -0.003029673426)
(-0.001609695703 -1.88506405e-18 -0.002917168219)
(-0.001555416211 -1.738616602e-18 -0.002792556491)
(-0.001489820048 -1.708946372e-18 -0.002652368149)
(-0.001410367393 -1.277116735e-18 -0.002492298501)
(-0.001314039056 -1.515933192e-18 -0.002307202422)
(-0.001197381653 -1.023135949e-18 -0.002091126497)
(-0.001056573568 -8.788280443e-19 -0.00183735028)
(-0.0008875065817 -6.764042185e-19 -0.001538414779)
(-0.0006857919694 -5.049577202e-19 -0.001186178279)
(-0.0004464620246 -3.596707735e-19 -0.0007720251555)
(-0.0001633776448 -1.985132418e-19 -0.0002872165539)
(-7.298064925e-05 2.103446478e-18 -0.005270686676)
(-0.0001887563257 7.332826367e-18 -0.005265816509)
(-0.0002969773768 1.348343326e-18 -0.005255166592)
(-0.0004082949609 -1.0986797e-18 -0.00523930795)
(-0.0005165246151 -2.174137803e-18 -0.005218755109)
(-0.0006209812097 -2.743320858e-18 -0.005193896211)
(-0.0007215706873 -2.999125062e-18 -0.005165058956)
(-0.0008180762101 -3.68964057e-18 -0.005132570841)
(-0.0009103367179 -3.621127255e-18 -0.005096745408)
(-0.0009982474849 -3.113296335e-18 -0.005057877359)
(-0.00108173981 -3.933986582e-18 -0.00501624228)
(-0.001160774488 -3.26223804e-18 -0.004972093906)
(-0.001235336398 -3.239643244e-18 -0.004925662297)
(-0.001305429861 -3.395265846e-18 -0.00487715326)
(-0.001371074703 -3.99430501e-18 -0.004826747626)
(-0.001432302743 -3.004443354e-18 -0.004774600814)
(-0.0014891543 -2.653645841e-18 -0.004720843185)
(-0.001541675735 -2.477511675e-18 -0.004665580927)
(-0.001589917313 -2.45466852e-18 -0.004608896641)
(-0.0016339309 -2.367208782e-18 -0.004550850828)
(-0.001673768735 -2.228811e-18 -0.004491482998)
(-0.00170948183 -2.222479079e-18 -0.004430812787)
(-0.001741118732 -2.239824164e-18 -0.004368841251)
(-0.001768724903 -2.302458261e-18 -0.004305551596)
(-0.001792340751 -2.683790971e-18 -0.004240908994)
(-0.001812000502 -2.24665205e-18 -0.004174860794)
(-0.001827731001 -2.432938051e-18 -0.004107335328)
(-0.001839549139 -2.363168298e-18 -0.004038239393)
(-0.001847458969 -2.166983546e-18 -0.003967455096)
(-0.001851448233 -2.232652123e-18 -0.003894834779)
(-0.001851483142 -1.862400702e-18 -0.003820193478)
(-0.001847501475 -2.117454996e-18 -0.003743298512)
(-0.001839403061 -1.96043761e-18 -0.00366385449)
(-0.001827036293 -2.083568392e-18 -0.003581482074)
(-0.00181017928 -2.255605622e-18 -0.00349568756)
(-0.001788512962 -1.782557918e-18 -0.003405819588)
(-0.001761583613 -2.077633981e-18 -0.003311007997)
(-0.001728751941 -1.948321756e-18 -0.003210080154)
(-0.001689128095 -1.869095865e-18 -0.003101453193)
(-0.001641497173 -1.903542798e-18 -0.002983009429)
(-0.00158424761 -1.869504593e-18 -0.002851975411)
(-0.001515321284 -1.976610997e-18 -0.002704832882)
(-0.001432201024 -1.89164599e-18 -0.002537283818)
(-0.001331937064 -2.305215601e-18 -0.002344269713)
(-0.001211199878 -1.440796157e-18 -0.002120023455)
(-0.001066349518 -1.00256968e-18 -0.001858125169)
(-0.000893517217 -5.061348581e-19 -0.001551542025)
(-0.00068860745 -4.50481076e-19 -0.00119269466)
(-0.0004469978233 3.809932969e-19 -0.0007736727264)
(-0.0001629876982 3.199380133e-19 -0.0002865616113)
(-7.495038129e-05 2.882498346e-18 -0.005479847855)
(-0.0001939090409 4.586826934e-18 -0.005474649484)
(-0.0003051067622 3.111903055e-18 -0.005463281401)
(-0.0004194610888 1.158709351e-18 -0.005446364631)
(-0.0005306822467 -7.188313458e-19 -0.005424440026)
(-0.0006380403245 -2.246895947e-18 -0.005397921935)
(-0.0007414407022 -3.000776221e-18 -0.005367162679)
(-0.0008406621025 -3.366778343e-18 -0.005332510825)
(-0.0009355368119 -3.47286893e-18 -0.005294302229)
(-0.001025954558 -3.222662935e-18 -0.005252851354)
(-0.001111841377 -3.264019541e-18 -0.005208451711)
(-0.001193152144 -3.27567447e-18 -0.005161373769)
(-0.001269866001 -3.435452708e-18 -0.005111862942)
(-0.001341981782 -3.179501818e-18 -0.005060138482)
(-0.00140951367 -3.441014219e-18 -0.005006393074)
(-0.00147248803 -3.277270171e-18 -0.00495079279)
(-0.001530940189 -3.093243382e-18 -0.004893477136)
(-0.001584912009 -2.562990607e-18 -0.004834560371)
(-0.001634449313 -2.720694632e-18 -0.004774132244)
(-0.001679600518 -2.330862057e-18 -0.004712259549)
(-0.001720414794 -2.404613838e-18 -0.004648987252)
(-0.001756940759 -2.970202892e-18 -0.004584340178)
(-0.001789225695 -2.48856211e-18 -0.004518323928)
(-0.001817313839 -2.787627596e-18 -0.004450925466)
(-0.001841245181 -2.36833648e-18 -0.004382113544)
(-0.001861054332 -2.366545663e-18 -0.004311838433)
(-0.001876768595 -2.449390665e-18 -0.004240030348)
(-0.001888405359 -2.056902847e-18 -0.004166597064)
(-0.001895969184 -2.235299317e-18 -0.004091420416)
(-0.001899447887 -2.085772209e-18 -0.004014350737)
(-0.001898806961 -2.330773331e-18 -0.003935198863)
(-0.00189398232 -1.777735677e-18 -0.003853724819)
(-0.00188486994 -1.765531036e-18 -0.003769621801)
(-0.001871311728 -2.010915715e-18 -0.003682493639)
(-0.001853075619 -1.652797398e-18 -0.003591822552)
(-0.00182982762 -1.973066473e-18 -0.003496923712)
(-0.001801093227 -1.758689038e-18 -0.003396881722)
(-0.001766205998 -1.729818095e-18 -0.003290465478)
(-0.00172424379 -1.700200967e-18 -0.003176021694)
(-0.0016739586 -1.583050213e-18 -0.003051357142)
(-0.001613713517 -1.532600514e-18 -0.002913632157)
(-0.001541444914 -1.465017341e-18 -0.002759292771)
(-0.001454662726 -1.795705758e-18 -0.002584059536)
(-0.001350486808 -1.700707413e-18 -0.00238296761)
(-0.00122570522 -1.797750417e-18 -0.002150434031)
(-0.001076845502 -1.418072446e-18 -0.001880324187)
(-0.0009002556742 -1.110419629e-18 -0.001566000186)
(-0.0006921023117 -2.473586126e-19 -0.001200394893)
(-0.0004480677357 -7.560765911e-19 -0.0007762320639)
(-0.0001628370384 -1.035575961e-20 -0.0002863292576)
(-7.693561447e-05 -3.185958133e-18 -0.005697967193)
(-0.0001991051466 3.03670117e-19 -0.005692437224)
(-0.0003133077495 2.814711238e-18 -0.005680347008)
(-0.0004307285483 1.840458373e-18 -0.005662364248)
(-0.000544974286 -2.314941619e-18 -0.005639055328)
(-0.0006552706052 -7.935191386e-19 -0.005610861943)
(-0.0007615217243 -2.318639005e-18 -0.005578158529)
(-0.000863502355 -2.524070598e-18 -0.005541315036)
(-0.0009610380287 -2.804540263e-18 -0.005500686628)
(-0.00105401201 -3.166779286e-18 -0.005456607842)
(-0.001142344561 -2.949999726e-18 -0.005409389264)
(-0.001225984345 -3.365573372e-18 -0.005359316785)
(-0.001304904168 -3.812525842e-18 -0.005306650188)
(-0.001379096441 -3.305336944e-18 -0.005251621559)
(-0.001448569149 -3.328506758e-18 -0.005194435036)
(-0.001513342732 -3.382161166e-18 -0.005135267012)
(-0.001573446797 -2.865735629e-18 -0.0050742661)
(-0.001628917817 -2.773493568e-18 -0.005011554701)
(-0.001679797174 -2.602860651e-18 -0.004947229877)
(-0.001726129162 -3.188564541e-18 -0.004881365172)
(-0.001767959613 -2.651552907e-18 -0.004814011838)
(-0.001805334885 -2.14658032e-18 -0.004745200457)
(-0.001838300254 -2.956668116e-18 -0.004674941834)
(-0.001866898901 -2.545997745e-18 -0.004603227788)
(-0.001891170537 -2.639782991e-18 -0.004530031472)
(-0.001911149812 -2.219936009e-18 -0.004455306592)
(-0.00192686427 -2.561245684e-18 -0.004378986085)
(-0.00193833177 -1.995240901e-18 -0.004300979545)
(-0.001945557395 -2.307190674e-18 -0.004221169145)
(-0.00194852895 -2.521696943e-18 -0.004139403603)
(-0.001947211111 -2.119710167e-18 -0.004055489737)
(-0.001941537672 -1.4758166e-18 -0.003969180346)
(-0.001931400568 -1.880339463e-18 -0.003880157155)
(-0.001916635012 -1.746271584e-18 -0.003788006857)
(-0.001896998589 -2.219567646e-18 -0.003692187197)
(-0.001872142317 -2.138431666e-18 -0.003591979524)
(-0.001841571226 -1.777311981e-18 -0.003486423343)
(-0.001804592743 -1.455380648e-18 -0.003374230314)
(-0.001760254589 -1.21454588e-18 -0.003253679977)
(-0.001707279252 -1.00221373e-18 -0.003122509758)
(-0.001644009271 -1.139518502e-18 -0.002977822863)
(-0.001568380306 -1.188459793e-18 -0.002816040136)
(-0.001477932159 -1.395497173e-18 -0.002632909648)
(-0.001369852916 -1.379553109e-18 -0.002423563923)
(-0.001241041077 -1.385235724e-18 -0.002182599388)
(-0.001088177915 -1.101059034e-18 -0.001904150566)
(-0.0009078070701 -7.463196564e-19 -0.00158194387)
(-0.0006963287331 -6.416355237e-19 -0.001209378083)
(-0.0004496942368 -4.624806893e-19 -0.0007797483449)
(-0.0001629278671 -5.108607897e-19 -0.0002865243923)
(-7.895389516e-05 -3.635200746e-18 -0.005925398787)
(-0.0002043898644 -9.590447432e-19 -0.005919534687)
(-0.0003216508875 2.946088682e-18 -0.005906720195)
(-0.0004421925382 2.100203644e-18 -0.005887665963)
(-0.0005595198759 3.024321517e-18 -0.005862964714)
(-0.0006728134178 3.179566125e-19 -0.005833084282)
(-0.0007819754408 5.853398632e-19 -0.005798419123)
(-0.0008867763391 -3.479897317e-18 -0.005759360493)
(-0.0009870353485 -2.22462428e-18 -0.005716281697)
(-0.001082629047 -3.325085714e-18 -0.005669534589)
(-0.001173470738 -3.524874594e-18 -0.005619446529)
(-0.001259502627 -3.50076268e-18 -0.005566318323)
(-0.001340690706 -3.544406304e-18 -0.005510422963)
(-0.001417020526 -3.633925967e-18 -0.005452004609)
(-0.00148849347 -3.759986941e-18 -0.005391278294)
(-0.001555123152 -4.316101817e-18 -0.00532843006)
(-0.001616933058 -2.445076393e-18 -0.005263617802)
(-0.001673954279 -2.76923173e-18 -0.005196972134)
(-0.001726223101 -2.739272736e-18 -0.005128597956)
(-0.001773779544 -2.813687546e-18 -0.005058575803)
(-0.001816666172 -2.797528883e-18 -0.004986963964)
(-0.001854926408 -2.734851902e-18 -0.004913799304)
(-0.001888603875 -2.524104557e-18 -0.004839098884)
(-0.001917740608 -2.665120927e-18 -0.004762860039)
(-0.001942375613 -3.16379647e-18 -0.00468506097)
(-0.001962543556 -2.776201759e-18 -0.00460565997)
(-0.001978272346 -2.844145834e-18 -0.004524593467)
(-0.001989580313 -2.593707161e-18 -0.004441773456)
(-0.001996472897 -1.91729606e-18 -0.004357082994)
(-0.001998937779 -2.210604558e-18 -0.004270369667)
(-0.001996938703 -2.14042539e-18 -0.004181436524)
(-0.001990407117 -2.035541754e-18 -0.004090029184)
(-0.001979230719 -1.979459016e-18 -0.003995817852)
(-0.001963237829 -1.975407239e-18 -0.003898371908)
(-0.001942175585 -2.027692208e-18 -0.003797124409)
(-0.001915680087 -2.076636417e-18 -0.003691322764)
(-0.00188323632 -1.704913988e-18 -0.003579961806)
(-0.001844126721 -1.235057614e-18 -0.003461697555)
(-0.001797371023 -1.393423118e-18 -0.003334745894)
(-0.00174166549 -1.270740504e-18 -0.003196780859)
(-0.001675336114 -1.408446363e-18 -0.003044856631)
(-0.001596321413 -1.211769606e-18 -0.002875377497)
(-0.001502192358 -1.071196036e-18 -0.002684125264)
(-0.001390202534 -8.278340639e-19 -0.002466330869)
(-0.00125735307 -8.590638921e-19 -0.002216763224)
(-0.001100465296 -6.365391878e-19 -0.001929808788)
(-0.000916259231 -5.604620831e-19 -0.001599529551)
(-0.0007013429338 -3.743328694e-19 -0.001219747705)
(-0.0004519040238 -7.11479585e-20 -0.000784272505)
(-0.0001632648464 -1.029220676e-19 -0.0002871559719)
(-8.102395492e-05 -1.531517519e-19 -0.006162566559)
(-0.0002098116603 2.32265492e-18 -0.006156366275)
(-0.0003302114746 5.20041888e-18 -0.00614282597)
(-0.0004539558067 2.970973125e-18 -0.006122696735)
(-0.0005744480685 2.853771017e-18 -0.00609659788)
(-0.0006908211349 6.935454807e-19 -0.006065020495)
(-0.0008029757139 -3.084523707e-19 -0.006028379231)
(-0.0009106777925 -1.708509267e-18 -0.005987083616)
(-0.001013739349 -2.189470787e-18 -0.005941525841)
(-0.001112030583 -3.422753163e-18 -0.005892073129)
(-0.001205457879 -3.891337265e-18 -0.005839067741)
(-0.001293956102 -3.837357132e-18 -0.005782824232)
(-0.001377483891 -4.184292481e-18 -0.005723628066)
(-0.001456019533 -3.78621491e-18 -0.005661734873)
(-0.001529557302 -3.692788433e-18 -0.005597370075)
(-0.001598104168 -3.837141599e-18 -0.005530729246)
(-0.001661677334 -3.551374432e-18 -0.005461979227)
(-0.001720301809 -2.992388225e-18 -0.005391258973)
(-0.001774008826 -3.220301943e-18 -0.005318681372)
(-0.001822834134 -3.02762322e-18 -0.005244334788)
(-0.001866816528 -2.789462791e-18 -0.005168284779)
(-0.001905997029 -2.437975931e-18 -0.00509057556)
(-0.001940417163 -2.955939443e-18 -0.005011230799)
(-0.001970117602 -2.957660009e-18 -0.004930254459)
(-0.001995136956 -2.96970637e-18 -0.004847630686)
(-0.002015509933 -3.162335882e-18 -0.004763323066)
(-0.002031264706 -3.035525508e-18 -0.004677272351)
(-0.002042420045 -2.798032314e-18 -0.004589393513)
(-0.002048981599 -2.570362201e-18 -0.004499570968)
(-0.002050936758 -2.369552106e-18 -0.004407651634)
(-0.002048248218 -2.446449483e-18 -0.004313435145)
(-0.002040844962 -2.028635529e-18 -0.004216660099)
(-0.002028610295 -1.891803575e-18 -0.004116985112)
(-0.002011365457 -1.937309609e-18 -0.004013962134)
(-0.001988847053 -2.014723637e-18 -0.003906999461)
(-0.001960676414 -2.434719294e-18 -0.003795310674)
(-0.001926318986 -2.064557882e-18 -0.003677846624)
(-0.001885033383 -1.907440015e-18 -0.003553209532)
(-0.001835813413 -1.841875715e-18 -0.003419555217)
(-0.00177733205 -1.704715873e-18 -0.003274499945)
(-0.001707901988 -1.369745537e-18 -0.003115055937)
(-0.001625467101 -1.38212498e-18 -0.002937617802)
(-0.001527629748 -7.98127451e-19 -0.002738005329)
(-0.00141170528 -1.345980348e-18 -0.002511546362)
(-0.001274788879 -1.671654103e-18 -0.002253173195)
(-0.001113828754 -1.270010671e-18 -0.001957506881)
(-0.000925703082 -9.952190307e-19 -0.001618917419)
(-0.0007072044268 -1.565347485e-18 -0.001231611007)
(-0.0004547272051 -4.825535776e-19 -0.0007898600446)
(-0.0001638546079 -2.095138041e-19 -0.0002882361217)
(-8.316564499e-05 2.165958468e-18 -0.006409972353)
(-0.000215421631 6.028032466e-19 -0.006403433706)
(-0.0003390697935 3.158789238e-18 -0.006389166626)
(-0.0004661285296 2.285275629e-18 -0.006367960065)
(-0.0005898962861 1.612411895e-18 -0.006340458031)
(-0.0007094564456 1.157519926e-18 -0.006307173804)
(-0.0008247079608 -4.988215037e-19 -0.006268542095)
(-0.0009354126941 -1.194226331e-18 -0.006224988505)
(-0.001041374922 -1.862064511e-18 -0.006176921852)
(-0.001142457652 -2.443530615e-18 -0.006124725051)
(-0.00123856028 -3.124369437e-18 -0.006068753499)
(-0.001329610222 -3.577938917e-18 -0.006009334165)
(-0.001415558578 -3.935452874e-18 -0.005946764028)
(-0.001496376204 -3.743048819e-18 -0.005881309491)
(-0.001572050192 -3.488093749e-18 -0.005813205895)
(-0.001642580439 -2.952751966e-18 -0.005742657973)
(-0.001707977529 -3.11010563e-18 -0.005669841336)
(-0.001768260837 -3.189390244e-18 -0.005594903499)
(-0.001823456318 -3.766666457e-18 -0.005517965629)
(-0.001873595273 -2.476145864e-18 -0.005439124302)
(-0.001918713204 -3.076616217e-18 -0.005358453112)
(-0.001958848273 -2.95119368e-18 -0.005276004056)
(-0.001994039966 -3.625454767e-18 -0.005191808397)
(-0.002024328021 -3.20313196e-18 -0.005105877575)
(-0.002049750671 -3.264360114e-18 -0.005018202445)
(-0.002070342461 -3.374907816e-18 -0.004928752369)
(-0.002086131704 -3.335175075e-18 -0.004837473231)
(-0.002097137632 -3.761060249e-18 -0.004744283801)
(-0.002103366099 -3.065101596e-18 -0.004649070422)
(-0.002104804184 -2.415054571e-18 -0.004551679705)
(-0.002101413364 -3.141532608e-18 -0.004451908123)
(-0.00209312002 -2.332973093e-18 -0.004349487475)
(-0.002079802943 -2.611852745e-18 -0.004244064844)
(-0.002061276179 -2.489502531e-18 -0.004135174736)
(-0.002037265779 -2.42767065e-18 -0.004022200677)
(-0.002007378485 -2.453624846e-18 -0.003904322756)
(-0.001971060784 -2.185484987e-18 -0.003780448736)
(-0.001927548625 -2.219622963e-18 -0.003649129004)
(-0.001875811773 -1.999582488e-18 -0.003508462899)
(-0.001814502436 -1.732036627e-18 -0.003356014033)
(-0.001741922518 -1.657580028e-18 -0.003188758506)
(-0.001656022591 -1.522576538e-18 -0.003003086399)
(-0.001554435415 -1.210418692e-18 -0.002794857656)
(-0.001434533849 -1.430844384e-18 -0.002559494017)
(-0.001293498682 -7.854314144e-19 -0.002292081262)
(-0.001128391775 -8.690072017e-19 -0.00198745666)
(-0.0009362322485 -9.586771136e-19 -0.001640271365)
(-0.0007139758972 -4.696805013e-19 -0.001245079803)
(-0.000458196962 -2.665820637e-19 -0.0007965709294)
(-0.0001647053884 -1.648446375e-21 -0.0002897795116)
(-8.539985873e-05 3.065033565e-19 -0.006668204976)
(-0.0002212742479 1.195945331e-18 -0.006661325816)
(-0.0003483116287 3.810718444e-18 -0.00664633092)
(-0.0004788273846 1.872083613e-18 -0.00662404316)
(-0.0006060096775 1.598573003e-18 -0.006595129898)
(-0.0007288913656 1.110589248e-18 -0.006560127396)
(-0.0008473687751 -2.258992132e-19 -0.006519487474)
(-0.0009611991953 -3.21839542e-18 -0.006473652361)
(-0.001070179676 -2.317923184e-18 -0.006423044772)
(-0.001174165295 -1.800198092e-18 -0.006368061388)
(-0.001273047945 -3.072507619e-18 -0.006309070541)
(-0.001366747707 -3.333890585e-18 -0.006246410731)
(-0.001455208251 -3.67338246e-18 -0.006180389472)
(-0.00153839293 -3.704082407e-18 -0.006111282815)
(-0.001616281167 -2.653108356e-18 -0.006039335381)
(-0.001688866046 -3.9198116e-18 -0.005964761071)
(-0.001756151981 -3.337113129e-18 -0.005887744255)
(-0.001818152362 -3.590256477e-18 -0.005808441076)
(-0.001874888127 -3.12249382e-18 -0.005726981203)
(-0.001926386477 -3.755149382e-18 -0.005643469889)
(-0.001972679282 -3.643923652e-18 -0.005557989252)
(-0.002013802236 -3.551185427e-18 -0.005470599882)
(-0.00204979325 -3.6561155e-18 -0.005381341378)
(-0.002080690801 -2.855060311e-18 -0.005290233052)
(-0.002106532684 -3.93052273e-18 -0.005197273465)
(-0.00212735352 -3.501016481e-18 -0.005102438655)
(-0.002143181954 -3.709904137e-18 -0.005005680197)
(-0.002154037614 -3.820053871e-18 -0.004906921222)
(-0.002159926512 -3.53900143e-18 -0.004806050584)
(-0.002160835391 -3.228815809e-18 -0.004702914993)
(-0.002156724372 -2.891315781e-18 -0.004597308006)
(-0.002147517112 -3.127529953e-18 -0.004488954811)
(-0.002133087763 -3.193234646e-18 -0.004377491081)
(-0.002113243129 -3.288787053e-18 -0.004262433966)
(-0.002087698733 -3.139942231e-18 -0.00414314235)
(-0.002056046955 -3.249173148e-18 -0.004018763228)
(-0.002017715898 -2.705420264e-18 -0.00388816233)
(-0.001971919938 -2.450443496e-18 -0.003749840317)
(-0.001917606478 -2.197158918e-18 -0.003601843505)
(-0.001853409058 -2.125502888e-18 -0.003441687511)