/*--------------------------------*- C++ -*----------------------------------*\
  =========                 |
  \\      /  F ield         | OpenFOAM: The Open Source CFD Toolbox
   \\    /   O peration     | Website:  https://openfoam.org
    \\  /    A nd           | Version:  7
     \\/     M anipulation  |
\*---------------------------------------------------------------------------*/
FoamFile
{
    version     2.0;
    format      ascii;
    class       volVectorField;
    location    "0.0015";
    object      grad(generalizedNewtonian:nu);
}
// * * * * * * * * * * * * * * * * * * * * * * * * * * * * * * * * * * * * * //

dimensions      [0 1 -1 0 0 0 0];

internalField   nonuniform List<vector> 
1166
(
(-688318.5328 0 -127571.6116)
(-835986.5355 0 37996.90016)
(-1527634.748 0 373876.8767)
(-2609309.148 0 912409.7329)
(-3617236.478 0 1554384.765)
(-4928534.907 0 2170461.116)
(-6588691.217 0 2853034.05)
(-7614971.646 0 3766374.066)
(-7238929.066 0 4922716.382)
(-8801002.915 0 6209095.417)
(-15028465.21 0 7421248.197)
(-22538956.47 0 8261846.938)
(-26389792.84 0 8128484.579)
(-21232443.86 0 6473317.819)
(-5822911.424 0 3511037.825)
(9226796.806 0 -4117.602837)
(15207949.38 0 -2820038.47)
(15207781.59 0 -3855765.717)
(13597734.25 0 -3652562.533)
(11803344.53 0 -3205508.871)
(10756537.84 0 -2944619.932)
(11346918.04 0 -2698385.164)
(9894826.076 9.737110326e-08 -431806.4377)
(-14233800.24 0 5199710.245)
(-61745495.92 0 11526231.2)
(-88859937.6 0 16537123.45)
(-85093034.31 0 17552657.38)
(-75732910.2 0 15589646.34)
(-68597825.63 0 13645374.61)
(-62941112.37 0 12124913.15)
(-57960537.96 0 10851096.18)
(-53334511.79 0 9726296.208)
(-48990377.27 0 8715998.784)
(-44956875.57 0 7811661.312)
(-1587389.098 0 8649445.529)
(-2783008.295 0 8687616.071)
(-4793548.349 0 8822560.03)
(-6727655.32 -3.759817009e-07 8991666.809)
(-7225140.687 0 9249314.672)
(-7790541.409 0 9568658.279)
(-10140227.19 0 9850947.874)
(-13920964.62 -1.960955909e-07 10001638.13)
(-17628009.97 0 9940175.57)
(-19858215.57 -1.636536383e-07 9341678.127)
(-17955445.21 0 7744470.131)
(-8889572.973 0 5126115.27)
(3672008.388 0 1902961.724)
(12144860.16 -1.286558715e-07 -1332268.93)
(14925511.87 0 -3560312.984)
(14608993.9 0 -4159751.559)
(13105943.3 0 -3857077.545)
(11458081.12 2.21657321e-07 -3439753.831)
(10481948.14 1.077630226e-07 -3204027.539)
(10916357.81 0 -3034991.67)
(10566401.79 0 -1254606.668)
(-6796881.479 0 3857950.244)
(-49534832.16 0 10148197.98)
(-81404022.77 0 15549479.27)
(-82485957.8 0 17581070.08)
(-73973712.03 0 16001590.89)
(-66987420.24 0 13979230.27)
(-61573640.15 0 12387073.64)
(-56905849.95 0 11079334.01)
(-52587745.94 0 9936385.77)
(-48493850.39 0 8909987.739)
(-44629593.2 0 7986219.547)
(-41057683.78 0 7161606.542)
(-37812665.63 0 6432378.007)
(-34879777.16 0 5790409.735)
(-32226979.39 0 5224911.036)
(-29823785.26 -2.229980425e-08 4725731.618)
(-27647042.05 -2.229868315e-08 4284197.641)
(-25674866.5 0 3893042.27)
(-23886284.78 0 3545754.442)
(-22263051.08 0 3236889.583)
(-20791039.5 0 2962006.914)
(-19460361.45 -1.125356166e-08 2717521.754)
(-18262158.96 0 2500335.745)
(-17187424.77 0 2307484.834)
(-16225031.18 1.139094083e-08 2136197.43)
(-15354319.4 -1.144786074e-08 1983963.281)
(-14542186.3 0 1848525.436)
(-13947961.09 0 1728020.738)
(-13685382.18 0 1620357.127)
(-991018.1301 0 11548817.94)
(-1864918.655 0 11395034.26)
(-3181341.383 0 11176106.73)
(-4973565.217 0 10731422.51)
(-6802463.723 0 10139738.48)
(-8254932.656 0 9317867.428)
(-9017377.964 0 8059507.534)
(-8157943.473 0 6251490.755)
(-3434554.813 0 3920555.624)
(4229322.529 0 1217191.144)
(10502966.28 0 -1573696.417)
(13579755.58 0 -3883846.726)
(14375599.23 -1.372629375e-07 -5012514.383)
(13815142.58 0 -5074622.02)
(12501095.64 0 -4679072.767)
(11101981.65 0 -4240610.864)
(10313895.57 0 -3983970.331)
(10707962.74 0 -3791908.721)
(10736059.88 0 -2192499.209)
(-2343251.17 0 2563090.814)
(-39738914.48 0 8780164.661)
(-73302930.75 0 14414734.1)
(-78814875.17 0 17276344.07)
(-71693590.94 0 16252558.03)
(-65027869.75 0 14242610.86)
(-59908370.5 0 12605477.6)
(-55584066.9 0 11281662.25)
(-51610655.99 0 10136878.15)
(-47822848.25 0 9108955.313)
(-44202113.09 0 8177496.101)
(-40796567.7 0 7338726.466)
(-37656077.08 2.292064607e-08 6591978.673)
(-34793609.95 0 5932575.646)
(-32192506.41 0 5350844.725)
(-29826606.51 0 4836756.365)
(-27674268.1 0 4381539.611)
(-25716562.95 0 3977861.114)
(-23935099.85 0 3619324.071)
(-22313006.77 0 3300247.303)
(-20836174.09 0 3015981.383)
(-19495379.53 0 2762739.762)
(-18282870.74 0 2537406.866)
(-17190402.8 0 2337127.676)
(-16208537.63 0 2159130.096)
(-15327890.49 0 2000824.332)
(-14539826.55 -1.156833907e-08 1859896.836)
(-13825894.2 1.162614544e-08 1734264.592)
(-13154575.77 0 1622117.27)
(-12683418.99 5.878859142e-09 1521818.244)
(-12515359.96 5.915608533e-09 1431347.109)
(-432105.9182 0 2141480.028)
(-790702.7054 0 1930778.985)
(-1218272.674 0 1378394.258)
(-1233594.313 0 603338.5245)
(364933.7652 0 -499439.0317)
(3580504.912 0 -1891758.167)
(6900199.412 0 -3463481.96)
(9485467.405 0 -5109637.135)
(11397218 0 -6565218.739)
(12455317.47 0 -7342090.372)
(12568725.78 0 -7367276.404)
(11943075.68 0 -6972464.621)
(10936794.11 0 -6431630.587)
(9994147.745 0 -5930410.077)
(9560759.582 0 -5607687.616)
(10071030.54 0 -5270856.588)
(10103642.22 0 -3509252.069)
(-879807.403 0 1184490.281)
(-33721784.04 0 7362995.296)
(-66364964.19 0 13139473.11)
(-74668610.66 0 16591570.87)
(-69135559.96 0 16187617.31)
(-62983758.97 0 14309218.62)
(-58208697.73 0 12678933.72)
(-54235360.35 0 11371693.98)
(-50611400.64 0 10251724.08)
(-47137177.68 0 9246126.411)
(-43770365.44 0 8328088.555)
(-40547027.76 0 7492798.069)
(-37529462.12 0 6741115.787)
(-34752716.7 0 6071851.598)
(-32213354.69 0 5478843.764)
(-29891719.65 0 4953445.134)
(-27767906.33 0 4487238.064)
(-25826920.92 0 4072903.454)
(-24053844.37 0 3704249.314)
(-22433710.61 0 3375652.889)
(-20953177.69 0 3082410.795)
(-19602176.87 0 2820650.567)
(-18374091.35 0 2587248.355)
(-17262577.29 0 2379459.24)
(-16260008.89 0 2194586.921)
(-15357237.45 0 2030061.997)
(-14545455.49 0 1883534.868)
(-13817973.7 0 1752887.865)
(-13166827.98 0 1636235.849)
(-12574821.73 0 1531818.815)
(-12011954.66 0 1438165.754)
(-11632938.09 0 1354107.286)
(-11528506.35 0 1277472.84)
(563810.5264 0 -7928085.609)
(2339844.181 0 -8016032.409)
(3686765.759 -5.362918331e-07 -8503717.95)
(4869422.963 0 -8974796.33)
(6439667.253 -3.149366689e-07 -9509020.392)
(7734006.619 0 -9838350.805)
(8661229.24 0 -9838093.054)
(9156837.545 2.054007675e-07 -9587196.082)
(9156466.757 -1.863413034e-07 -9150921.183)
(8766459.335 -1.714193713e-07 -8593812.569)
(8287108.148 0 -8023915.23)
(7967730.395 0 -7554400.781)
(8025997.574 0 -7226975.143)
(8711648.493 0 -6653887.161)
(8311109.662 0 -4426540.991)
(-2595400.997 0 442076.5209)
(-32282655.25 0 6555746.514)
(-61938016.59 -1.160877295e-07 12321740.76)
(-70785994.56 -1.128766202e-07 16031382.55)
(-66581573.38 -5.503642584e-08 16084434.67)
(-61074220.56 0 14379788.44)
(-56670921.56 0 12776579.31)
(-53022415.93 0 11485912.38)
(-49709418.76 0 10386712.78)
(-46515504.64 0 9400182.836)
(-43387744.81 0 8493694.51)
(-40349993.04 0 7660263.495)
(-37463552.44 2.428793244e-08 6902073.876)
(-34776762.74 0 6221080.091)
(-32300820.67 0 5614628.896)
(-30024940.63 -2.376127377e-08 5075538.633)
(-27932056.84 -2.364011987e-08 4595893.735)
(-26009326.44 0 4168610.132)
(-24244823.31 0 3787675.841)
(-22626020.2 0 3447758.374)
(-21141092.1 0 3144034.306)
(-19780005.05 0 2872531.06)
(-18536593.13 2.335680579e-08 2630007.993)
(-17405645.09 0 2413772.177)
(-16381164.38 -1.170075375e-08 2221301.637)
(-15455551.72 0 2050067.903)
(-14620293.96 0 1897654.03)
(-13868219.61 0 1761899.336)
(-13192282.81 0 1640792.171)
(-12585929.48 0 1532581.352)
(-12042403.5 0 1435646.783)
(-11546046.28 0 1348680.818)
(-11070446.22 6.028122004e-09 1270489.369)
(-10763128.32 0 1200219.084)
(-10701990.64 0 1135458.267)
(218678.4176 0 -10579707.61)
(2502649.72 0 -10460230.31)
(3601493.37 0 -10482480.92)
(3961850.913 0 -10294106.37)
(4808746.876 3.19841369e-07 -10037517.37)
(5250729.032 0 -9706860.979)
(5512537.121 0 -9320222.007)
(5699799.242 2.085995984e-07 -8911841.666)
(5839569.966 0 -8542477.934)
(6046844.1 0 -8255727.032)
(6559358.739 0 -7930203.773)
(7251369.306 0 -6881204.161)
(5479036.555 2.875527397e-07 -3879091.368)
(-7335013.802 -1.368595949e-07 1250104.13)
(-34820040.4 -1.30990778e-07 7164757.897)
(-59537925.84 0 12668607.05)
(-66748245.29 0 16194000.62)
(-63449515.52 0 16345179.73)
(-58769192.36 0 14736225.05)
(-54874294.49 0 13129097.74)
(-51593790.87 0 11814275.97)
(-48596614.05 0 10695306.67)
(-45698660.54 5.259653557e-08 9692865.869)
(-42835269.9 0 8769052.397)
(-40017525.4 0 7914541.029)
(-37296623.89 -5.037692207e-08 7131443.007)
(-34727622.31 2.490855617e-08 6423317.383)
(-32337902.29 0 5790016.041)
(-30127203.52 0 5225816.46)
(-28083165.95 2.428040332e-08 4723215.947)
(-26193476.33 0 4275072.623)
(-24449588.14 -2.400828182e-08 3875206.135)
(-22842313.27 0 3518295.167)
(-21361799.25 -1.191628988e-08 3199406.526)
(-19998941.97 0 2914378.296)
(-18746980.11 -1.187004366e-08 2659744.179)
(-17601910.71 1.186087405e-08 2432689.903)
(-16559459.01 -1.186027776e-08 2230705.303)
(-15613917.03 0 2051272.508)
(-14757943.58 -1.18829767e-08 1891927.676)
(-13983915.91 0 1750376.719)
(-13285616.48 -1.193496952e-08 1624569.448)
(-12655892.35 0 1512648.188)
(-12088235.56 0 1412876.466)
(-11578245.61 0 1323739.76)
(-11121128.14 0 1243943.614)
(-10702904.97 0 1172272.318)
(-10297515.17 0 1107675.666)
(-10043927.39 0 1049554.66)
(-10015772.74 0 995468.5294)
(-291597.2819 0 -9286458.045)
(1997568.276 0 -9193067.843)
(2735501.148 0 -9141619.274)
(2611995.201 0 -8987352.324)
(3415544.546 0 -8815957.91)
(3982661.381 0 -8647536.541)
(4435604.655 0 -8480113.312)
(4957774.637 2.118482477e-07 -8181197.458)
(5553658.748 0 -7336287.891)
(5319545.54 0 -5179451.247)
(337207.5191 0 -1228423.276)
(-15765347.22 0 3991926.857)
(-40124383.33 0 9489351.119)
(-57685781.04 0 14388300.25)
(-61807774.08 0 17214052.98)
(-59144729.12 0 17053945.84)
(-55484104.8 0 15428195.03)
(-52284509.84 0 13789054.78)
(-49499216.19 0 12414818.34)
(-46913609.93 0 11235544.8)
(-44381391.13 0 10177755.04)
(-41842365.09 0 9203885.792)
(-39301660.21 0 8301934.546)
(-36802831.02 0 7472678.913)
(-34406086.69 5.181459802e-08 6719558.932)
(-32152997.35 0 6043366.458)
(-30053346.65 2.529647238e-08 5440164.64)
(-28098161.38 0 4902768.609)
(-26275982.52 0 4423683.288)
(-24581717.67 0 3996286.505)
(-23009860.19 0 3614930.849)
(-21553438.87 0 3274595.069)
(-20205631.06 1.21408189e-08 2970693.528)
(-18960485.72 0 2699435.683)
(-17814719.99 0 2457694.117)
(-16765537.02 0 2242823.072)
(-15809094.8 0 2052314.813)
(-14939742.65 0 1883578.324)
(-14150535.28 0 1734175.152)
(-13435406.6 0 1601932.158)
(-12788655.94 1.209089353e-08 1484831.132)
(-12204136.44 0 1381117.473)
(-11675993.89 6.078788685e-09 1289083.809)
(-11199009.17 0 1207355.542)
(-10769719.35 0 1134625.204)
(-10383168.95 0 1069673.452)
(-10025113.14 1.236748479e-08 1011319.372)
(-9674918.932 0 958757.5759)
(-9462752.806 0 911480.1566)
(-9455026.755 0 866977.144)
(-443454.6967 0 -8374211.765)
(1833938.618 0 -8312240.897)
(2532266.375 -5.617400811e-07 -8124643.702)
(2340361.919 0 -7789386.411)
(3096691.28 0 -7129535.602)
(3528531.005 0 -5845158.698)
(3048110.266 0 -3586621.678)
(-476263.3777 0 -180426.6412)
(-10577313.95 0 4161005.157)
(-27730430.3 -1.795536042e-07 8926792.185)
(-44840862.12 0 13601670.18)
(-53921141.16 0 17335376.7)
(-55158155.93 0 18871995.72)
(-53188850.11 0 18072459.46)
(-50691754.44 0 16349932.58)
(-48372694.55 0 14671199.86)
(-46252280.34 -1.254616747e-07 13226047.88)
(-44211849.02 0 11965954.15)
(-42159500.93 0 10831043.82)
(-40044719.57 0 9787217.745)
(-37869574.51 5.636272865e-08 8821000.773)
(-35685350.72 0 7931283.466)
(-33557924.2 0 7120986.882)
(-31528910.91 0 6391573.739)
(-29612153.73 0 5740349.335)
(-27806869.75 0 5159985.187)
(-26107594.97 0 4642650.175)
(-24510763.44 0 4181001.079)
(-23015188.16 0 3769027.005)
(-21618025.47 0 3401489.538)
(-20315309.8 -2.48887994e-08 3073530.821)
(-19103134.84 0 2781033.787)
(-17978956.56 -1.232989551e-08 2520517.876)
(-16942095.67 0 2289081.321)
(-15990720.51 0 2084091.38)
(-15121270.69 0 1902927.622)
(-14328114.43 0 1743005.993)
(-13605475.67 0 1601890.882)
(-12949364.71 0 1477442.871)
(-12354395.93 0 1367708.12)
(-11815147.67 1.227919262e-08 1270915.154)
(-11326689.69 -6.154802786e-09 1185371.37)
(-10884110.35 6.173457482e-09 1109732.477)
(-10483491.76 0 1042775.265)
(-10120740.87 0 983315.3463)
(-9791106.012 0 930229.2965)
(-9483892.862 0 882630.9485)
(-9179518.844 0 839950.6457)
(-8996478.816 0 801735.3167)
(-8996370.453 -6.390818377e-09 765138.0609)
(-721446.7084 0 -680636.9609)
(694844.4174 0 -179007.0282)
(162219.3256 0 1165257.45)
(-2339552.996 0 3078808.463)
(-6364510.131 6.700371162e-07 5649765.676)
(-14038503.6 0 8753989.468)
(-24733963.32 0 12221228.51)
(-35517128.05 0 15750050.51)
(-42872705.32 0 18794567.47)
(-45941202.09 0 20506678.2)
(-46233549.52 -1.696231201e-07 20368944.73)
(-45339521.08 0 18918639.84)
(-44108983.86 0 17123861.44)
(-42836051.79 0 15448287.1)
(-41563895 0 13969824.22)
(-40227702.67 1.31946849e-07 12657731.13)
(-38793153.84 0 11466737.98)
(-37225700.5 0 10369459.41)
(-35539805.32 6.003709043e-08 9352957.763)
(-33791157.54 5.854581523e-08 8414671.48)
(-32036084.8 0 7557002.491)
(-30320727.06 0 6783168.317)
(-28669645.21 0 6090415.365)
(-27089498.71 0 5471673.49)
(-25577781.68 0 4918861.556)
(-24135849.12 0 4424590.404)
(-22768125.91 0 3982604.948)
(-21474169.44 0 3587521.767)
(-20253930.73 0 3234535.18)
(-19107219.03 0 2919240.22)
(-18033787.93 1.26382039e-08 2637983.145)
(-17034485.45 0 2387660.028)
(-16109702.43 1.252191647e-08 2165698.295)
(-15258229.34 0 1969501.043)
(-14477053.76 0 1796400.845)
(-13761716.33 0 1643863.433)
(-13107869.39 1.242369908e-08 1509574.91)
(-12511783.27 1.242307449e-08 1391479.708)
(-11969007.42 0 1287689.601)
(-11475135.15 0 1196398.298)
(-11025269.73 -6.235211976e-09 1116076.9)
(-10615880.36 0 1045310.661)
(-10244325.62 0 982841.9279)
(-9905778.775 0 927425.2426)
(-9596605.972 0 878109.0026)
(-9313838.134 6.34613737e-09 834058.0585)
(-9048188.937 0 794547.2464)
(-8782991.379 6.412504295e-09 759066.3692)
(-8621949.113 -6.450026658e-09 727436.9344)
(-8619841.886 6.490346478e-09 696671.8353)
(-3855262.894 0 16564030.43)
(-7575921.047 0 16989357.01)
(-13052418.99 0 18178129.42)
(-19303756.83 0 19551666.89)
(-24648864.71 0 21046206.22)
(-29169603.8 0 22246905.82)
(-32435371.58 0 22704269.4)
(-34427843.21 0 22171318.73)
(-35483342.08 0 20823657.56)
(-35942375.07 0 19129999.53)
(-36024940.46 0 17421144.01)
(-35884759.05 0 15847798.96)
(-35575243.47 0 14424222.52)
(-35068247.46 0 13135145.53)
(-34357385.67 0 11947790.83)
(-33441946.61 6.700086883e-08 10845304.28)
(-32343948.3 0 9818293.714)
(-31120873.71 0 8863673.837)
(-29824402.04 0 7986870.374)
(-28498189.46 0 7190532.337)
(-27182986.05 0 6472907.661)
(-25897920.36 0 5828552.323)
(-24640301.42 0 5249987.754)
(-23412397.92 0 4729726.575)
(-22220960.85 2.713665826e-08 4262181.661)
(-21073165.46 0 3842503.752)
(-19973610.8 -2.649684654e-08 3465878.007)
(-18925480.08 0 3128137.799)
(-17931416.48 2.601736141e-08 2825755.255)
(-16994252.61 0 2555707.07)
(-16117346.14 0 2315356.203)
(-15303052.3 -1.276958316e-08 2102186.404)
(-14550868.1 0 1913652.402)
(-13857409.17 0 1747210.786)
(-13219356.38 0 1600434.251)
(-12634112.28 0 1471128.201)
(-12098278.93 0 1357367.315)
(-11608071.5 0 1257411.055)
(-11160061.77 0 1169544.976)
(-10750611.34 0 1092319.922)
(-10376480.33 6.33231673e-09 1024360.388)
(-10034023.51 0 964493.7795)
(-9718744.136 -1.273448159e-08 911494.6284)
(-9428593.531 0 864332.5676)
(-9162548.547 0 822121.5613)
(-8917336.272 0 784169.6302)
(-8684935.162 0 749899.9394)
(-8451076.996 0 718911.0689)
(-8306048.806 0 691034.0201)
(-8297245.829 0 663510.3055)
(-3614418.199 -2.792175223e-06 24510117.37)
(-7542319.417 0 24308027.15)
(-11919180.4 -5.88395903e-07 24056168.62)
(-16045143.93 0 23395507.8)
(-19344816.43 0 22440267.78)
(-22058526.75 0 21228273.96)
(-24199324.82 0 19847217.12)
(-25845062.78 2.253567229e-07 18411992.24)
(-27112389.08 0 17010802.24)
(-28042006.93 0 15679609.18)
(-28667225.26 0 14432762.72)
(-29001900.01 0 13266100.28)
(-29043503.58 0 12165636.34)
(-28820988.71 -7.392686764e-08 11123620.04)
(-28359885.54 0 10140151.7)
(-27716272.2 0 9214235.42)
(-26930572.57 0 8354691.618)
(-26056324.35 0 7565518.407)
(-25143798.7 0 6846778.757)
(-24206893.98 0 6194839.129)
(-23251305.3 0 5605435.887)
(-22284050.64 0 5071496.679)
(-21312188.48 0 4587668.958)
(-20350662.65 0 4149803.452)
(-19410955.74 -2.755927447e-08 3754080.524)
(-18496517.67 0 3396991.805)
(-17613597.98 0 3075088.711)
(-16768197.69 -2.664765536e-08 2785798.327)
(-15966200.59 0 2526832.432)
(-15211980.65 0 2295995.698)
(-14507302.64 0 2090980.162)
(-13851960.19 -1.29684519e-08 1909337.268)
(-13244305.93 1.29149766e-08 1748572.047)
(-12682178.37 0 1606474.953)
(-12163558.6 0 1481086.286)
(-11686443.5 0 1370541.755)
(-11248745.4 -1.281367619e-08 1273131.594)
(-10847058.78 0 1187239.132)
(-10478129.24 6.410570904e-09 1111524.641)
(-10139256.89 -1.283755438e-08 1044740.342)
(-9826907.847 6.430933872e-09 985655.5097)
(-9537778.605 0 933167.736)
(-9269484.041 6.466401833e-09 886357.7044)
(-9019483.907 0 844464.2612)
(-8786641.226 0 806687.0438)
(-8570341.78 0 772250.5761)
(-8363711.269 6.578047905e-09 740721.5727)
(-8153958.957 -6.613791357e-09 711766.3864)
(-8018426.256 0 685237.3594)
(-8000688.163 3.347038494e-09 658579.3432)
(-2520561.631 0 19600437.49)
(-5471700.716 0 19344540.91)
(-8660606.682 0 18915728.1)
(-11690711.33 0 18247382.02)
(-14328474.98 0 17449042.55)
(-16645673.46 0 16562572.03)
(-18617937.33 0 15630059.96)
(-20272926.5 0 14683742.57)
(-21600126.5 0 13741531.23)
(-22601946.97 9.550140543e-08 12807438.63)
(-23302581.15 0 11892221.59)
(-23708713.39 0 10994607.12)
(-23851898.72 0 10126788.99)
(-23776948.49 0 9292655.237)
(-23512638.71 0 8503909.491)
(-23111301.3 0 7767654.842)
(-22625211.87 0 7085629.5)
(-22064726.98 0 6459871.36)
(-21437389.39 0 5886618.172)
(-20759708.08 0 5361106.553)
(-20047968.09 0 4879516.176)
(-19311523.81 0 4438491.536)
(-18563104.9 2.885330708e-08 4036040.104)
(-17812424.61 0 3670024.069)
(-17068275 -2.798847165e-08 3337440.465)
(-16338075.02 0 3036136.406)
(-15630977.92 0 2764262.494)
(-14956574.11 0 2520045.253)
(-14318796.1 2.683404033e-08 2301566.505)
(-13718920.73 0 2106606.144)
(-13156881.41 0 1933063.563)
(-12631917.14 0 1778841.315)
(-12143647.01 0 1642025.085)
(-11691248.24 0 1520807.047)
(-11272646.84 0 1413540.114)
(-10885862.39 0 1318676.381)
(-10528187.23 -1.301323129e-08 1234739.15)
(-10197707.77 0 1160370.392)
(-9892992.138 0 1094347.172)
(-9610283.732 0 1035408.981)
(-9346594.015 0 982709.4073)
(-9100138.86 0 935358.6059)
(-8868760.628 0 892598.7352)
(-8650739.433 0 853736.2592)
(-8444162.279 0 818208.0293)
(-8248741.68 0 785356.6349)
(-8060354.397 0 754634.2343)
(-7867367.992 0 725820.402)
(-7735627.926 0 698817.3752)
(-7707102.215 0 671479.9668)
(-1938101.383 0 14797664.45)
(-4303020.497 0 14654586.24)
(-6841426.086 0 14394752.67)
(-9281062.283 0 14003650.43)
(-11470995.56 3.563809698e-07 13523273.14)
(-13422873 0 12970610.18)
(-15126136.92 0 12363950.44)
(-16561293.21 1.162153092e-07 11719350.18)
(-17718362.94 0 11045465.69)
(-18612692.97 0 10357626.67)
(-19250599.58 -9.021955736e-08 9665870.654)
(-19661430.32 0 8982295.853)
(-19869965.25 0 8318063.172)
(-19910766.15 0 7683754.835)
(-19830211.88 0 7082499.615)
(-19634262.1 0 6521140.096)
(-19338646.58 0 5997513.467)
(-18964862.36 0 5509231.504)
(-18522665.09 0 5054458.203)
(-18023668.2 0 4633329.477)
(-17480024.12 0 4244013.887)
(-16908498.19 0 3885295.62)
(-16322471.94 0 3555738.393)
(-15729066 0 3253603.146)
(-15138423.4 0 2978185.536)
(-14560345.66 0 2728437.365)
(-14002617.64 0 2503315.277)
(-13469768.3 0 2301088.913)
(-12963329.25 1.362597186e-08 2119792.447)
(-12485032.53 0 1957529.004)
(-12036077.72 0 1812494.565)
(-11616247.46 0 1683052.593)
(-11224729.19 0 1567708.838)
(-10860149.61 0 1465051.544)
(-10521287.72 0 1373637.303)
(-10206314.65 0 1292231.369)
(-9913536.798 -6.607947261e-09 1219618.958)
(-9640588.539 0 1154739.387)
(-9383995.081 0 1096446.066)
(-9143366.879 0 1043773.399)
(-8917541.069 0 995895.6722)
(-8703306.904 0 952221.6021)
(-8499359.954 0 912085.4739)
(-8304361.532 0 874937.7051)
(-8116883.773 0 840262.4651)
(-7935893.655 0 807665.0133)
(-7758382.237 0 776538.0422)
(-7575784.832 0 746792.0244)
(-7444644.162 0 718370.1727)
(-7404179.652 0 689521.1467)
(-1597966.733 2.924670153e-06 11546793.12)
(-3582720.488 -9.994638691e-07 11455623.99)
(-5701911.206 0 11278535.29)
(-7730000.162 0 11015139.33)
(-9570712.627 0 10682081.84)
(-11221264.46 3.044761634e-07 10290520.39)
(-12662872.66 0 9852697.191)
(-13884837.47 0 9378527.35)
(-14883456.48 1.070734544e-07 8878454.273)
(-15671899.24 9.849917275e-08 8367144.684)
(-16266395.96 0 7851057.402)
(-16685479.91 0 7344694.759)
(-16959561.39 0 6851157.675)
(-17095712.81 0 6378711.934)
(-17108899.32 -7.411429824e-08 5928264.83)
(-17022654.87 0 5498485.173)
(-16839643.68 6.882552552e-08 5091977.381)
(-16571354.31 6.670509429e-08 4708683.439)
(-16239444.5 0 4348611.537)
(-15859621.92 0 4011277.867)
(-15440028.1 0 3697312.484)
(-14991803.73 0 3406753.948)
(-14523797.5 0 3138712.888)
(-14049820.88 0 2892881.357)
(-13582511.52 1.44335117e-08 2668669.963)
(-13126789.74 0 2465182.948)
(-12686581.41 0 2281329.472)
(-12264295.4 -1.395607296e-08 2115560.171)
(-11861552.49 0 1966358.286)
(-11479563.58 -1.373779956e-08 1832399.857)
(-11118978.88 0 1712248.661)
(-10780196.37 0 1604546.407)
(-10463452.76 0 1507975.584)
(-10167264.17 0 1421296.882)
(-9889952.79 0 1343538.487)
(-9630349.922 6.716044967e-09 1273603.765)
(-9386263.675 6.710856824e-09 1210469.004)
(-9155406.433 0 1153195.142)
(-8936250.805 0 1101020.425)
(-8726981.999 -6.723362454e-09 1053301.686)
(-8527197.93 0 1009129.214)
(-8335878.233 0 968063.703)
(-8150723.438 0 929630.7748)
(-7970851.905 0 893361.4844)
(-7795344.789 0 858868.2877)
(-7622522.026 0 825796.0811)
(-7450899.285 0 793824.9096)
(-7274040.959 -3.46381524e-09 762819.6372)
(-7140204.332 0 732699.6946)
(-7087465.188 3.505862921e-09 702128.9189)
(-1359629.017 0 9258821.971)
(-3058591.997 0 9192252.64)
(-4872575.632 0 9057271.896)
(-6609226.943 0 8859888.698)
(-8183223.271 0 8608989.09)
(-9600478.909 0 8314310.824)
(-10850634.39 0 7985081.037)
(-11912797.57 0 7627851.368)
(-12806110.71 0 7254703.364)
(-13530349.9 0 6872819.841)
(-14100379.63 0 6489804.942)
(-14530422.7 0 6110319.121)
(-14821286.94 0 5739474.682)
(-14996802.52 0 5376111.516)
(-15055089.03 0 5025876.466)
(-15012742.63 0 4688921.979)
(-14891979.68 0 4365668.259)
(-14700828.55 0 4058811.081)
(-14446909.98 0 3769596.863)
(-14145898.38 3.211695165e-08 3497877.424)
(-13813093.49 0 3243462.376)
(-13456306.79 0 3007134.669)
(-13086870.45 0 2789256.145)
(-12713654.23 0 2590059.167)
(-12342976.63 0 2408498.088)
(-11980996.77 0 2243468.197)
(-11630535.8 0 2093546.598)
(-11292491.39 0 1957796.455)
(-10969055.35 0 1835148.649)
(-10661600.05 0 1724476.984)
(-10370201.63 0 1624703.32)
(-10094584.53 0 1534786.827)
(-9833924.451 0 1453638.905)
(-9588608.115 0 1380189.751)
(-9357671.684 0 1313499.474)
(-9138137.045 0 1252724.522)
(-8928758.471 0 1197069.051)
(-8728564.621 0 1145847.597)
(-8535902.901 0 1098448.959)
(-8348461.898 0 1054307.219)
(-8166293.965 6.841001384e-09 1012864.594)
(-7989436.585 0 973614.8275)
(-7815901.898 0 936233.7663)
(-7644736.314 0 900370.1148)
(-7475179.716 0 865740.8647)
(-7306476.769 0 832115.0813)
(-7137475.662 0 799313.9946)
(-6961783.557 0 767130.9504)
(-6823329.556 0 735564.2308)
(-6759673.887 0 703693.7958)
(-1182153.691 0 7623629.191)
(-2659088.644 0 7572939.44)
(-4240935.373 0 7466913.615)
(-5752609.319 0 7313792.615)
(-7133674.827 0 7120707.622)
(-8390173.795 0 6895728.28)
(-9494079.403 0 6643207.869)
(-10454239.43 0 6370779.612)
(-11272554.3 0 6087340.129)
(-11946814.78 0 5793176.267)
(-12484166.62 0 5497863.804)
(-12894686.62 0 5199561.491)
(-13180265.74 8.390186498e-08 4904731.459)
(-13354462.81 0 4614698.997)
(-13438287.78 0 4330858.074)
(-13429746 0 4057662.255)
(-13346381.68 0 3795529.352)
(-13204806.93 0 3544927.64)
(-13011655.11 0 3307479.147)
(-12775008.55 0 3084776.841)
(-12508854.93 0 2876939.3)
(-12227821.87 0 2684093.2)
(-11938044.53 0 2506577.5)
(-11644710.86 0 2343936.534)
(-11351919.88 -1.488657637e-08 2195408.502)
(-11061571.38 0 2060089.307)
(-10778075.43 0 1936852.086)
(-10505447.94 0 1824724.828)
(-10243450.98 -1.427255463e-08 1722948.852)
(-9992576.353 0 1630625.452)
(-9753371.364 0 1546801.659)
(-9525440.144 0 1470641.819)
(-9308067.225 0 1401314.934)
(-9100164.314 0 1338038.767)
(-8901064.62 0 1279701.729)
(-8710027.209 0 1225813.88)
(-8525515.099 6.921509104e-09 1175791.751)
(-8346175.615 6.921161134e-09 1129069.177)
(-8170945.347 0 1085126.936)
(-7997961.863 0 1043548.473)
(-7826868.964 0 1003941.102)
(-7658259.546 0 965899.2764)
(-7490825.383 0 929153.4011)
(-7323762.38 0 893494.4923)
(-7156970.061 0 858764.6041)
(-6989520.818 -3.535569181e-09 824728.6283)
(-6819957.335 0 791281.7186)
(-6643418.16 0 758313.453)
(-6500700.761 0 725890.5414)
(-6427511.671 3.615911167e-09 693254.7149)
(-1047879.006 0 6458159.857)
(-2349750.329 0 6418704.631)
(-3751867.205 3.227810984e-07 6335275.042)
(-5106032.992 0 6215696.861)
(-6344940.87 -1.895527726e-07 6065501.672)
(-7466816.267 0 5887752.388)
(-8465068.43 0 5687299.987)
(-9342465.379 0 5472400.195)
(-10085733.62 0 5243211.255)
(-10704183.44 0 5005999.06)
(-11200649.59 0 4762702.319)
(-11579826.67 0 4518053.597)
(-11857266 8.520851956e-08 4272857.612)
(-12033847.85 0 4032893.252)
(-12125640.18 0 3797643.696)
(-12144440.01 -7.465524063e-08 3569386.39)
(-12092996.68 0 3350953.887)
(-11986646.18 3.493519996e-08 3142397.214)
(-11839909.66 0 2944786.755)
(-11660690.9 0 2759469.513)
(-11456624.58 0 2587605.364)
(-11237208.95 0 2428757.023)
(-11010364.28 0 2282097.653)
(-10778312.16 0 2147288.818)
(-10544293.81 0 2023654.049)
(-10311638.17 0 1910533.376)
(-10082228.61 0 1807457.545)
(-9858851.752 0 1713345.912)
(-9643613.748 0 1627302.168)
(-9436048.711 0 1548715.833)
(-9236114.486 0 1476852.475)
(-9043805.154 0 1410944.13)
(-8858130.418 0 1350265.296)
(-8676756.258 0 1294121.898)
(-8500351.864 0 1241888.382)
(-8329358.651 0 1192966.186)
(-8161540.525 0 1146933.817)
(-7995989.755 0 1103339.072)
(-7831854.201 0 1061802.537)
(-7667487.022 0 1021975.673)
(-7502681.642 -7.05573879e-09 983553.8423)
(-7338217.128 0 946290.5614)
(-7173534.592 0 910008.2532)
(-7008466.661 0 874584.304)
(-6841839.783 0 839862.6585)
(-6673228.901 0 805565.6549)
(-6502475.513 0 771847.2635)
(-6324785.901 0 738607.094)
(-6177509.03 0 705895.8999)
(-6098006.02 0 673084.6578)
(-943245.6769 0 5621968.023)
(-2111318.091 5.315972733e-07 5590340.956)
(-3376854.073 0 5522437.24)
(-4599623.969 0 5424998.728)
(-5713249.666 0 5300238.561)
(-6726188.771 0 5151275.673)
(-7636264.384 0 4984947.509)
(-8431556.366 0 4803847.163)
(-9110229.878 0 4609590.115)
(-9677845.027 0 4409260.857)
(-10137746.47 0 4202186.104)
(-10494922.43 0 3994877.874)
(-10759700.14 -8.653552537e-08 3787178.692)
(-10938739.45 0 3582405.639)
(-11037994.76 0 3382984.985)
(-11073396.04 -3.79089468e-08 3189007.152)
(-11051474.5 0 3002958.52)
(-10980756.53 0 2826866.529)
(-10875502.92 -3.449787371e-08 2660684.955)
(-10745098.88 0 2505288.991)
(-10593922.83 -1.644546326e-08 2360811.475)
(-10425432.89 0 2227290.734)
(-10246224.44 0 2103808.148)
(-10061999.22 0 1989734.949)
(-9874689.155 0 1884847.926)
(-9687214.362 0 1788558.902)
(-9500872.532 0 1700243.662)
(-9316526.36 0 1619377.612)
(-9136511.606 1.472056686e-08 1544968.902)
(-8961897.311 0 1476469.928)
(-8791726.711 0 1413267.272)
(-8625188.418 0 1354675.414)
(-8461582.813 0 1300080.525)
(-8300039.161 0 1249011.301)
(-8140140.718 0 1201023.111)
(-7982278.071 0 1155536.702)
(-7825625.573 0 1112233.518)
(-7668844.137 0 1070776.423)
(-7511369.991 0 1030860.592)
(-7351660.251 0 992231.5978)
(-7189939.878 -7.165622243e-09 954584.7408)
(-7027649.536 0 917932.6378)
(-6864379.074 0 882093.7846)
(-6699381.067 0 846936.5448)
(-6531005.235 0 812260.4784)
(-6361034.804 0 778080.874)
(-6189543.665 0 744460.718)
(-6010774.927 0 711380.9283)
(-5860216.616 0 678875.1844)
(-5776003.798 0 646473.8609)
(-859329.2295 0 4993244.001)
(-1912502.475 5.398761628e-07 4966482.168)
(-3059110.341 0 4907182.987)
(-4170348.761 0 4822332.08)
(-5177396.347 0 4713448.222)
(-6101603.247 0 4585326.741)
(-6934513.136 0 4441814.701)
(-7659026.889 0 4283806.558)
(-8284758.611 0 4116651.568)
(-8809784.514 0 3942514.302)
(-9238854.823 -4.949247252e-08 3764226.348)
(-9578066.541 0 3584110.049)
(-9830822.409 0 3404979.411)
(-10011034.25 0 3227465.662)
(-10119718.11 -8.006801281e-08 3055012.901)
(-10170515.25 0 2888389.276)
(-10176773.82 0 2729043.546)
(-10141366.78 3.603180811e-08 2578532.823)
(-10073637.83 0 2437319.509)
(-9982640.319 0 2304892.275)
(-9871737.748 0 2181367.805)
(-9744337.408 0 2066545.295)
(-9604415.024 0 1960403.558)
(-9458024.359 -1.581793875e-08 1862044.255)
(-9308361.609 0 1771236.593)
(-9156128.555 0 1687486.146)
(-9003299.015 0 1610218.871)
(-8849880.784 0 1538946.977)
(-8697484.834 0 1473089.523)
(-8547656.849 0 1411877.701)
(-8399039.105 0 1354796.358)
(-8251199.715 7.337521944e-09 1301353.333)
(-8104233.077 0 1251116.463)
(-7956657.787 0 1203655.215)
(-7807991.044 0 1158523.623)
(-7659284.624 0 1115407.071)
(-7509796.717 7.249950184e-09 1073981.501)
(-7358475.372 -7.249585702e-09 1033982.596)
(-7204876.059 0 995197.6131)
(-7047115.332 0 957343.2914)
(-6886998.245 0 920408.9498)
(-6726163.44 0 884309.5481)
(-6562785.659 0 848876.4648)
(-6396369.985 0 814017.7014)
(-6226919.133 3.686603909e-09 779567.1019)
(-6056313.709 3.703339842e-09 745781.3162)
(-5884111.38 -3.721845231e-09 712574.6345)
(-5705274.981 0 680020.6815)
(-5552764.6 0 648004.8291)
(-5465304.399 3.787494235e-09 616379.4609)
(-786197.3939 0 4491391.624)