/*--------------------------------*- C++ -*----------------------------------*\
  =========                 |
  \\      /  F ield         | OpenFOAM: The Open Source CFD Toolbox
   \\    /   O peration     | Website:  https://openfoam.org
    \\  /    A nd           | Version:  7
     \\/     M anipulation  |
\*---------------------------------------------------------------------------*/
FoamFile
{
    version     2.0;
    format      ascii;
    class       surfaceScalarField;
    location    "0.0015";
    object      phi;
}
// * * * * * * * * * * * * * * * * * * * * * * * * * * * * * * * * * * * * * //

dimensions      [1 0 -1 0 0 0 0];

internalField   nonuniform List<scalar> 
2258
(
-1.179465709e-14
4.593621405e-11
-4.6627677e-14
1.344162294e-10
-1.03837696e-13
2.179645528e-10
-1.831446911e-13
2.967858489e-10
-2.847581464e-13
3.710780461e-10
-4.090522038e-13
4.410322096e-10
-5.568736903e-13
5.068332725e-10
-7.299218424e-13
5.686603492e-10
-9.312359296e-13
6.26686767e-10
-1.10467445e-12
6.810190257e-10
-1.194631245e-12
7.318183402e-10
-1.181626947e-12
7.792769198e-10
-1.047462983e-12
8.234443419e-10
-7.731036545e-13
8.644977177e-10
-3.66567958e-13
9.026213669e-10
2.47851709e-14
9.379503618e-10
3.964170058e-13
9.706180861e-10
7.408817108e-13
1.000753076e-09
1.051815916e-12
1.028478601e-09
1.324848276e-12
1.053912462e-09
1.557970353e-12
1.077166628e-09
1.75178857e-12
1.098347186e-09
1.909163906e-12
1.117554698e-09
2.034639582e-12
1.134884504e-09
2.133536986e-12
1.150427394e-09
2.211613335e-12
1.164269635e-09
2.274950158e-12
1.176493338e-09
2.328840512e-12
1.187177638e-09
2.376967686e-12
1.196399089e-09
2.420616416e-12
1.204232537e-09
2.458485268e-12
1.210751183e-09
2.487046716e-12
1.21602654e-09
2.501853468e-12
1.220127447e-09
1.223119089e-09
-1.318742662e-14
4.594940148e-11
-5.207511853e-14
1.344551171e-10
-1.165177181e-13
2.180289954e-10
-2.072826688e-13
2.968766139e-10
-3.260941349e-13
3.711968576e-10
-4.537942376e-13
4.411599097e-10
-5.588262695e-13
5.069383046e-10
-6.234493239e-13
5.687249722e-10
-6.283836812e-13
6.266917014e-10
-5.546395116e-13
6.809452815e-10
-3.81945098e-13
7.316456458e-10
-8.843363411e-14
7.789834083e-10
2.48037993e-13
8.231078702e-10
5.800916277e-13
8.641656641e-10
9.026434426e-13
9.022988151e-10
1.208256132e-12
9.376447491e-10
1.490415673e-12
9.703359266e-10
1.743993569e-12
1.000499498e-09
1.965777005e-12
1.028256817e-09
2.15488735e-12
1.053723352e-09
2.312452533e-12
1.077009063e-09
2.441038839e-12
1.0982186e-09
2.544704615e-12
1.117451032e-09
2.627842536e-12
1.134801366e-09
2.695460436e-12
1.150359776e-09
2.752439405e-12
1.164212656e-09
2.802600018e-12
1.176443177e-09
2.847878264e-12
1.187132359e-09
2.887825598e-12
1.196359142e-09
2.919809432e-12
1.204200553e-09
2.939849373e-12
1.210731144e-09
2.944146506e-12
1.216022243e-09
2.930249413e-12
1.220141345e-09
2.897379203e-12
1.223151959e-09
2.845767092e-12
1.225114551e-09
2.775833144e-12
1.226086946e-09
2.687906609e-12
1.226124567e-09
2.582177674e-12
1.225280478e-09
2.458740208e-12
1.223605494e-09
2.317534564e-12
1.221148289e-09
2.158489355e-12
1.217955371e-09
1.981701866e-12
1.214071019e-09
1.787553467e-12
1.209537315e-09
1.576672675e-12
1.204394362e-09
1.349771261e-12
1.198680314e-09
1.107566641e-12
1.192431651e-09
8.507827124e-13
1.185683043e-09
5.801285182e-13
1.17846771e-09
2.96318468e-13
1.170817161e-09
1.162761567e-09
-1.014443717e-14
4.595954592e-11
-3.779532957e-14
1.34482768e-10
-7.579936592e-14
2.180669994e-10
-1.136996653e-13
2.969145142e-10
-1.38163731e-13
3.712213216e-10
-1.340106068e-13
4.411557566e-10
-8.366677363e-14
5.068879607e-10
3.168092927e-14
5.686096245e-10
2.332471753e-13
6.264901351e-10
4.835795326e-13
6.806949491e-10
7.447256425e-13
7.313844996e-10
1.013330821e-12
7.787148031e-10
1.2835651e-12
8.22837636e-10
1.547682923e-12
8.639015462e-10
1.798746149e-12
9.020477519e-10
2.030994133e-12
9.374125011e-10
2.240244889e-12
9.701266758e-10
2.424319271e-12
1.000315424e-09
2.58248737e-12
1.028098649e-09
2.715910188e-12
1.053589929e-09
2.82706034e-12
1.076897913e-09
2.918820943e-12
1.098126839e-09
2.994989934e-12
1.117374863e-09
3.059814842e-12
1.134736541e-09
3.117022783e-12
1.150302568e-09
3.168978123e-12
1.164160701e-09
3.21593846e-12
1.176396217e-09
3.256115373e-12
1.187092182e-09
3.286071669e-12
1.196329185e-09
3.301914145e-12
1.204184711e-09
3.300638428e-12
1.210732419e-09
3.280903288e-12
1.216041978e-09
3.242735529e-12
1.220179512e-09
3.186520865e-12
1.223208173e-09
3.112584367e-12
1.225188488e-09
3.021116307e-12
1.226178414e-09
2.912205031e-12
1.226233478e-09
2.785826925e-12
1.225406856e-09
2.641850125e-12
1.223749471e-09
2.480225329e-12
1.221309914e-09
2.301130358e-12
1.218134466e-09
2.105016234e-12
1.214267133e-09
1.892502846e-12
1.209749829e-09
1.664244096e-12
1.204622621e-09
1.420889615e-12
1.198923669e-09
1.163098517e-12
1.192689442e-09
8.915089559e-13
1.185954633e-09
6.067617028e-13
1.178752457e-09
3.093869855e-13
1.171114535e-09
1.163070954e-09
4.954564683e-15
4.595459135e-11
2.158227053e-14
1.344661403e-10
5.662164018e-14
2.180319601e-10
1.209658465e-13
2.9685017e-10
2.288061595e-13
3.711134813e-10
3.757098303e-13
4.410088529e-10
5.464150639e-13
5.067172555e-10
7.394006568e-13
5.684166389e-10
9.520090122e-13
6.262775268e-10
1.179693448e-12
6.804672647e-10
1.41580805e-12
7.31148385e-10
1.653920407e-12
7.784766908e-10
1.887000251e-12
8.226045561e-10
2.108714573e-12
8.636798319e-10
2.31479433e-12
9.018416721e-10
2.50234975e-12
9.372249457e-10
2.669541268e-12
9.699594843e-10
2.815924835e-12
1.00016904e-09
2.942589654e-12
1.027971984e-09
3.051047207e-12
1.053481472e-09
3.143927959e-12
1.076805032e-09
3.224916912e-12
1.09804585e-09
3.297104927e-12
1.117302675e-09
3.363017781e-12
1.134670628e-09
3.423560268e-12
1.150242026e-09
3.477767757e-12
1.164106493e-09
3.522971034e-12
1.176351013e-09
3.555589363e-12
1.187059564e-09
3.57242748e-12
1.196312347e-09
3.571556872e-12
1.204185582e-09
3.552466255e-12
1.21075151e-09
3.515377588e-12
1.216079067e-09
3.460618873e-12
1.220234271e-09
3.388425254e-12
1.223280367e-09
3.298912554e-12
1.225278e-09
3.192105719e-12
1.226285221e-09
3.067874345e-12
1.22635771e-09
2.926073575e-12
1.225548656e-09
2.766711961e-12
1.223908832e-09
2.590070833e-12
1.221486555e-09
2.396668263e-12
1.218327868e-09
2.187102624e-12
1.214476699e-09
1.961977154e-12
1.209974954e-09
1.721897381e-12
1.204862701e-09
1.46746106e-12
1.199178105e-09
1.199267193e-12
1.192957636e-09
9.178677941e-13
1.186236032e-09
6.238213808e-13
1.179046504e-09
3.176869594e-13
1.17142067e-09
1.163388641e-09
1.776797428e-14
4.593682338e-11
6.99309977e-14
1.344139773e-10
1.549437343e-13
2.179469473e-10
2.713662768e-13
2.967337474e-10
4.170605279e-13
3.709677871e-10
5.894348333e-13
4.408364786e-10
7.846011696e-13
5.065220892e-10
9.977695529e-13
5.682034705e-10
1.223564627e-12
6.260517317e-10
1.455460517e-12
6.802353688e-10
1.687628996e-12
7.309162166e-10
1.914578814e-12
7.782497409e-10
2.130445639e-12
8.223886893e-10
2.332923619e-12
8.634773539e-10
2.519986275e-12
9.016546095e-10
2.689759259e-12
9.370551727e-10
2.842034242e-12
9.698072093e-10
2.977143955e-12
1.00003393e-09
3.096881293e-12
1.027852247e-09
3.203821073e-12
1.053374532e-09
3.300629903e-12
1.076708223e-09
3.389669726e-12
1.09795681e-09
3.47221393e-12
1.117220131e-09
3.547994062e-12
1.134594848e-09
3.61515063e-12
1.150174869e-09
3.670657409e-12
1.164050987e-09
3.711343584e-12
1.176310327e-09
3.734902264e-12
1.187036005e-09
3.740361328e-12
1.196306888e-09
3.72777637e-12
1.204198166e-09
3.697471205e-12
1.210781815e-09
3.649711679e-12
1.216126826e-09
3.584652156e-12
1.220299331e-09
3.502353365e-12
1.223362666e-09
3.402766388e-12
1.225377587e-09
3.285729801e-12
1.226402258e-09
3.151144766e-12
1.226492295e-09
2.999120269e-12
1.225700681e-09
2.830024375e-12
1.224077928e-09
2.644393917e-12
1.221672186e-09
2.442800639e-12
1.218529461e-09
2.225806742e-12
1.214693693e-09
1.993993085e-12
1.210206768e-09
1.747894891e-12
1.205108799e-09
1.488038882e-12
1.199437961e-09
1.214911189e-12
1.193230763e-09
9.290398694e-13
1.186521904e-09
6.309147374e-13
1.179344629e-09
3.210727347e-13
1.171730512e-09
1.163709714e-09
2.127302623e-14
4.591555035e-11
8.327663602e-14
1.343519737e-10
1.827687794e-13
2.178474552e-10
3.159239009e-13
2.966005923e-10
4.782308687e-13
3.708054801e-10
6.644116966e-13
4.406502978e-10
8.690371731e-13
5.063174637e-10
1.086006334e-12
5.679865014e-10
1.309853446e-12
6.258278846e-10
1.534653837e-12
6.800105684e-10
1.75674426e-12
7.306941261e-10
1.97078045e-12
7.780357047e-10
2.174364567e-12
8.221851052e-10
2.365855542e-12
8.63285863e-10
2.543186878e-12
9.014772781e-10
2.705497698e-12
9.368928619e-10
2.853377963e-12
9.696593291e-10
2.988647921e-12
9.998986603e-10
3.113143056e-12
1.027727752e-09
3.228840831e-12
1.053258834e-09
3.337133069e-12
1.076599931e-09
3.438235769e-12
1.097855708e-09
3.530962601e-12
1.117127404e-09
3.612813937e-12
1.134512997e-09
3.680827961e-12
1.150106855e-09
3.732512428e-12
1.163999302e-09
3.766500028e-12
1.17627634e-09
3.782588396e-12
1.187019917e-09
3.781029956e-12
1.196308447e-09
3.762107253e-12
1.204217089e-09
3.726015212e-12
1.210817907e-09
3.672853277e-12
1.216179988e-09
3.602637295e-12
1.220369547e-09
3.515232357e-12
1.223450071e-09
3.410476563e-12
1.225482343e-09
3.288333566e-12
1.226524401e-09
3.149014774e-12
1.226631614e-09
2.992955345e-12
1.22585674e-09
2.820676243e-12
1.224250207e-09
2.632705313e-12
1.221860157e-09
2.429565773e-12
1.218732601e-09
2.211782739e-12
1.214911476e-09
1.97987304e-12
1.210438677e-09
1.734318665e-12
1.205354353e-09
1.475590011e-12
1.19969669e-09
1.204170662e-12
1.193502183e-09
9.20502962e-13
1.186805571e-09
6.24946795e-13
1.179640185e-09
3.179465297e-13
1.172037512e-09
1.164027661e-09
2.130736071e-14
4.589424299e-11
8.315116028e-14
1.342901299e-10
1.815870081e-13
2.177490193e-10
3.118811364e-13
2.964702982e-10
4.692257054e-13
3.706481355e-10
6.478192388e-13
4.404717043e-10
8.41896352e-13
5.061233866e-10
1.046834356e-12
5.677815634e-10
1.256478324e-12
6.256182406e-10
1.467261043e-12
6.797997857e-10
1.674595506e-12
7.304867917e-10
1.875140381e-12
7.778351599e-10
2.066936107e-12
8.219933094e-10
2.247642842e-12
8.631051562e-10
2.416416393e-12
9.013085046e-10
2.574273429e-12
9.367350049e-10
2.72219235e-12
9.695114101e-10
2.861510838e-12
9.997593418e-10
2.993439558e-12
1.027595823e-09
3.118384359e-12
1.053133889e-09
3.235469917e-12
1.076482846e-09
3.342741459e-12
1.097748436e-09
3.4376347e-12
1.117032511e-09
3.517716627e-12
1.134432915e-09
3.581326121e-12
1.150043246e-09
3.627828688e-12
1.1639528e-09
3.657294665e-12
1.176246874e-09
3.669973935e-12
1.187007238e-09
3.666066244e-12
1.196312354e-09
3.645687091e-12
1.204237468e-09
3.608869696e-12
1.210854724e-09
3.555546793e-12
1.216233311e-09
3.485530814e-12
1.220439563e-09
3.398669502e-12
1.223536932e-09
3.294987777e-12
1.225586025e-09
3.174751163e-12
1.226644637e-09
3.0383982e-12
1.226767967e-09
2.886382323e-12
1.226008756e-09
2.71914818e-12
1.224417442e-09
2.537169635e-12
1.222042135e-09
2.340893239e-12
1.218928877e-09
2.13077086e-12
1.215121598e-09
1.907187326e-12
1.210662261e-09
1.670578527e-12
1.205590962e-09
1.421366257e-12
1.199945902e-09
1.159946306e-12
1.193763603e-09
8.866772976e-13
1.18707884e-09
6.019799504e-13
1.179924882e-09
3.062569805e-13
1.172333235e-09
1.164333918e-09
1.955371114e-14
4.587468928e-11
7.627617245e-14
1.342334074e-10
1.664532261e-13
2.176588423e-10
2.854825594e-13
2.963512689e-10
4.286066129e-13
3.705050115e-10
5.910261256e-13
4.403092848e-10
7.67158843e-13
5.059472538e-10
9.526011938e-13
5.67596121e-10
1.142451577e-12
6.254283902e-10
1.332864047e-12
6.796093732e-10
1.519679366e-12
7.302999764e-10
1.70109328e-12
7.77653746e-10
1.875091776e-12
8.218193109e-10
2.041158288e-12
8.629390897e-10
2.199903072e-12
9.011497598e-10
2.35185435e-12
9.365830536e-10
2.49779666e-12
9.693654678e-10
2.637999918e-12
9.996191385e-10
2.77174963e-12
1.027462074e-09
2.897550698e-12
1.053008088e-09
3.013251393e-12
1.076367145e-09
3.11650995e-12
1.097645178e-09
3.205426041e-12
1.116943595e-09
3.278978245e-12
1.134359362e-09
3.337002019e-12
1.149985222e-09
3.379603788e-12
1.163910198e-09
3.406947421e-12
1.17621953e-09
3.419092662e-12
1.186995093e-09
3.416036798e-12
1.19631541e-09
3.397708539e-12
1.204255797e-09
3.363900588e-12
1.210888532e-09
3.314367175e-12
1.216282845e-09
3.248957179e-12
1.220504973e-09
3.167735079e-12
1.223618154e-09
3.070975353e-12
1.225682785e-09
2.959051006e-12
1.226756562e-09
2.832348437e-12
1.226894669e-09
2.691243146e-12
1.226149862e-09
2.536126159e-12
1.224572559e-09
2.367368055e-12
1.222210893e-09
2.185325703e-12
1.21911092e-09
1.990281144e-12
1.215316643e-09
1.78254336e-12
1.210869999e-09
1.562416644e-12
1.205811089e-09
1.330182715e-12
1.200178136e-09
1.08612292e-12
1.194007662e-09
8.305976627e-13
1.187334366e-09
5.640905059e-13
1.18019139e-09
2.870733872e-13
1.172610252e-09
1.164620991e-09
1.699684125e-14
4.585769244e-11
6.626289785e-14
1.341841413e-10
1.445095108e-13
2.175805957e-10
2.477636874e-13
2.962480147e-10
3.715076067e-13
3.703812676e-10
5.112895973e-13
4.401695028e-10
6.625109019e-13
5.057960325e-10
8.205088285e-13
5.674381231e-10
9.820046246e-13
6.252668944e-10
1.14344197e-12
6.794479359e-10
1.303282853e-12
7.301401355e-10
1.459914363e-12
7.774971144e-10
1.613076862e-12
8.216661484e-10
1.762811747e-12
8.627893548e-10
1.909281014e-12
9.010032905e-10
2.05249407e-12
9.364398405e-10
2.191711639e-12
9.692262503e-10
2.325707244e-12
9.994851429e-10
2.452653382e-12
1.027335127e-09
2.570327436e-12
1.052890414e-09
2.676638088e-12
1.076260834e-09
2.770376489e-12
1.097551439e-09
2.8510716e-12
1.1168629e-09
2.918617732e-12
1.134291816e-09
2.973005905e-12
1.149930834e-09
3.014199207e-12
1.163869005e-09
3.042116461e-12
1.176191613e-09
3.056618395e-12
1.186980591e-09
3.057488385e-12
1.19631454e-09
3.044393282e-12
1.204268892e-09
3.017006928e-12
1.210915919e-09
2.975122689e-12
1.216324729e-09
2.918792894e-12
1.220561302e-09
2.848248189e-12
1.223688699e-09
2.763763098e-12
1.22576727e-09
2.665608875e-12
1.226854716e-09
2.554059641e-12
1.227006218e-09
2.429407215e-12
1.226274514e-09
2.29193933e-12
1.224710026e-09
2.141879596e-12
1.222360953e-09
1.979466216e-12
1.219273333e-09
1.804934381e-12
1.215491174e-09
1.618511376e-12
1.211056422e-09
1.4203262e-12
1.206009274e-09
1.210561973e-12
1.2003879e-09
9.894889064e-13
1.194228736e-09
7.574555542e-13
1.187566399e-09
5.148490304e-13
1.180433996e-09
2.621923618e-13
1.172862909e-09
1.164883183e-09
1.362390284e-14
4.584406853e-11
5.305256494e-14
1.341447127e-10
1.154762645e-13
2.17518172e-10
1.976072353e-13
2.961658837e-10
2.957676299e-13
3.702831072e-10
4.061730413e-13
4.400590974e-10
5.255513811e-13
5.056766542e-10
6.510773128e-13
5.673125972e-10
7.802229593e-13
6.251377488e-10
9.117236463e-13
6.793164352e-10
1.044374752e-12
7.300074844e-10
1.177864573e-12
7.773636246e-10
1.311712171e-12
8.215323008e-10
1.445627904e-12
8.626554391e-10
1.578687065e-12
9.008702314e-10
1.709776295e-12
9.363087513e-10
1.837317531e-12
9.69098709e-10
1.959126847e-12
9.993633336e-10
2.073305397e-12
1.027220949e-09
2.178452287e-12
1.052785267e-09
2.2737221e-12
1.076165564e-09
2.358738662e-12
1.097466423e-09
2.433311477e-12
1.116788327e-09
2.497172456e-12
1.134227955e-09
2.550117608e-12
1.149877889e-09
2.59196847e-12
1.163827154e-09
2.622430787e-12
1.17616115e-09
2.641101309e-12
1.18696192e-09
2.647538698e-12
1.196308103e-09
2.641371697e-12
1.204275059e-09
2.622413623e-12
1.210934877e-09
2.5906767e-12
1.216356466e-09
2.546291454e-12
1.220605688e-09
2.489417315e-12
1.223745573e-09
2.420202115e-12
1.225836485e-09
2.338782725e-12
1.226936135e-09
2.245304214e-12
1.227099697e-09
2.139924527e-12
1.226379894e-09
2.022750275e-12
1.224827201e-09
1.893919954e-12
1.222489783e-09
1.753548315e-12
1.219413705e-09
1.601781709e-12
1.215642941e-09
1.438733826e-12
1.21121947e-09
1.264563933e-12
1.206183444e-09
1.07943826e-12
1.200573026e-09
8.835734293e-13
1.1944246e-09
6.772920002e-13
1.18777268e-09
4.609792696e-13
1.180650309e-09
2.350426435e-13
1.173088846e-09
1.165118226e-09
9.772838467e-15
4.58342957e-11
3.807659006e-14
1.341164089e-10
8.299560434e-14
2.17473253e-10
1.422883049e-13
2.96106591e-10
2.136148684e-13
3.702117806e-10
2.949521889e-13
4.3997776e-10
3.843938311e-13
5.055872126e-10
4.803695303e-13
5.672166215e-10
5.819134032e-13
6.250362049e-10
6.88130575e-13
6.79210218e-10
7.983256366e-13
7.298972893e-10
9.118737406e-13
7.772500765e-10
1.027876864e-12
8.214162977e-10
1.145174472e-12
8.625381415e-10
1.262431716e-12
9.007529741e-10
1.377635023e-12
9.36193548e-10
1.489081806e-12
9.689872622e-10
1.595298486e-12
9.992571169e-10
1.695188059e-12
1.027121059e-09
1.787986025e-12
1.052692469e-09
1.873414384e-12
1.076080136e-09
1.951147123e-12
1.09738869e-09
2.020820201e-12
1.116718654e-09
2.082071906e-12
1.134166704e-09
2.134509586e-12
1.149825451e-09
2.177690433e-12
1.163783973e-09
2.21101601e-12
1.176127825e-09
2.233923777e-12
1.186939012e-09
2.245989447e-12
1.196296037e-09
2.24699423e-12
1.204274054e-09
2.236903613e-12
1.210944967e-09
2.215773625e-12
1.216377596e-09
2.18363916e-12
1.220637822e-09
2.140532058e-12
1.22378868e-09
2.086513457e-12
1.225890503e-09
2.021637166e-12
1.227001011e-09
1.945943163e-12
1.227175391e-09
1.859414214e-12
1.226466423e-09
1.762057205e-12
1.224924558e-09
1.65389256e-12
1.222597948e-09
1.534917358e-12
1.21953268e-09
1.405137218e-12
1.215772721e-09
1.264622287e-12
1.211359984e-09
1.113571303e-12
1.206334495e-09
9.522220228e-13
1.200734375e-09
7.807497405e-13
1.194596073e-09
5.994426169e-13
1.187953987e-09
4.086402877e-13
1.180841111e-09
2.087019556e-13
1.173288784e-09
1.165326928e-09
6.659834129e-15
4.582763586e-11
2.602798233e-14
1.340970408e-10
5.707691128e-14
2.17442204e-10
9.872054357e-14
2.960649474e-10
1.499245124e-13
3.701605766e-10
2.097143237e-13
4.399179702e-10
2.772162625e-13
5.055197106e-10
3.51730342e-13
5.671421074e-10
4.326806336e-13
6.249552546e-10
5.192755838e-13
6.791236231e-10
6.109260852e-13
7.298056388e-10
7.064801398e-13
7.771545225e-10
8.048969404e-13
8.213178809e-10
9.045202256e-13
8.624385182e-10
1.003871441e-12
9.006536229e-10
1.101584763e-12
9.360958347e-10
1.196338606e-12
9.688925084e-10
1.287437859e-12
9.991660177e-10
1.374377147e-12
1.02703412e-09
1.456660388e-12
1.052610186e-09
1.533807814e-12
1.076002989e-09
1.605226251e-12
1.097317271e-09
1.670417257e-12
1.116653463e-09
1.728952623e-12
1.134108168e-09
1.780228498e-12
1.149774175e-09
1.823597698e-12
1.163740604e-09
1.858461628e-12
1.176092961e-09
1.884371765e-12
1.186913102e-09
1.901060147e-12
1.196279349e-09
1.908339711e-12
1.204266774e-09
1.906108168e-12
1.210947199e-09
1.894277194e-12
1.216389427e-09
1.872784134e-12
1.220659315e-09
1.841569104e-12
1.223819895e-09
1.800584058e-12
1.225931489e-09
1.749784855e-12
1.227051811e-09
1.689120185e-12
1.227236056e-09
1.618536334e-12
1.226537006e-09
1.537973725e-12
1.22500512e-09
1.447253529e-12
1.222688668e-09
1.346323245e-12
1.21963361e-09
1.235192366e-12
1.215883852e-09
1.113947167e-12
1.21148123e-09
9.827208229e-13
1.206465721e-09
8.417698294e-13
1.200875326e-09
6.91344104e-13
1.194746498e-09
5.316510185e-13
1.188113681e-09
3.629800413e-13
1.181009782e-09
1.856520367e-13
1.173466112e-09
1.16551258e-09
4.813439877e-15
4.582282242e-11
1.888719516e-14
1.34082967e-10
4.171070731e-14
2.174193805e-10
7.281792954e-14
2.960338402e-10
1.117988494e-13
3.701215957e-10
1.582408308e-13
4.398715282e-10
2.117489658e-13
5.054662025e-10
2.719950088e-13
5.670818613e-10
3.383858574e-13
6.248888638e-10
4.102920992e-13
6.790517168e-10
4.86824627e-13
7.297291063e-10
5.668768817e-13
7.770744702e-10
6.492215203e-13
8.212355363e-10
7.327795791e-13
8.623549601e-10
8.162551219e-13
9.005701474e-10
8.990436871e-13
9.360130461e-10
9.805176397e-13
9.688110345e-10
1.060039527e-12
9.990864958e-10
1.136942152e-12
1.026957217e-09
1.210814977e-12
1.052536313e-09
1.281120082e-12
1.075932684e-09
1.347279598e-12
1.097251112e-09
1.408665706e-12
1.116592077e-09
1.464469924e-12
1.134052364e-09
1.513973881e-12
1.149724671e-09
1.556540915e-12
1.163698037e-09
1.59176304e-12
1.176057739e-09
1.619362371e-12
1.186885503e-09
1.639118075e-12
1.196259593e-09
1.650838668e-12
1.204255054e-09
1.654329888e-12
1.210943708e-09
1.64939696e-12
1.21639436e-09
1.635863948e-12
1.220672848e-09
1.613585623e-12
1.223842174e-09
1.582386348e-12
1.225962688e-09
1.542125499e-12
1.227092072e-09
1.492655617e-12
1.227285526e-09
1.433872895e-12
1.226595789e-09
1.365641516e-12
1.225073352e-09
1.287843582e-12
1.222766466e-09
1.200372459e-12
1.219721081e-09
1.103262726e-12
1.215980962e-09
9.96606864e-13
1.211587886e-09
8.80566505e-13
1.206581762e-09
7.553337797e-13
1.201000559e-09
6.212027018e-13
1.194880629e-09
4.783259102e-13
1.188256557e-09
3.269879672e-13
1.18116112e-09
1.674664747e-13
1.173625633e-09
1.165680046e-09
3.905559365e-15
4.581891686e-11
1.53677196e-14
1.340715049e-10
3.409199234e-14
2.174006563e-10
5.985864942e-14
2.960080735e-10
9.246194123e-14
3.700889924e-10
1.316605333e-13
4.398323297e-10
1.77219942e-13
5.054206431e-10
2.28775862e-13
5.670303054e-10
2.856806362e-13
6.24831959e-10
3.473774713e-13
6.7899002e-10
4.12815074e-13
7.296636687e-10
4.813144246e-13
7.770059709e-10
5.518357564e-13
8.21165015e-10
6.238094017e-13
8.622829865e-10
6.966620814e-13
9.004972947e-10
7.696093194e-13
9.359400989e-10
8.422141319e-13
9.687384296e-10
9.139725557e-13
9.990147374e-10
9.843098871e-13
1.02688688e-09
1.052488914e-12
1.052468134e-09
1.117882208e-12
1.07586729e-09
1.179896634e-12
1.097189097e-09
1.237786238e-12
1.116534187e-09
1.290821609e-12
1.133999329e-09
1.338344862e-12
1.149677148e-09
1.379826539e-12
1.163656555e-09
1.41492674e-12
1.176022639e-09
1.443351625e-12
1.186857078e-09
1.4648262e-12
1.196238118e-09
1.47913888e-12
1.204240741e-09
1.486073351e-12
1.210936773e-09
1.485407865e-12
1.216395025e-09
1.476892758e-12
1.220681363e-09
1.460235053e-12
1.223858831e-09
1.435231757e-12
1.225987691e-09
1.401676326e-12
1.227125627e-09
1.359351983e-12
1.22732785e-09
1.308041575e-12
1.2266471e-09
1.247614049e-12
1.225133779e-09
1.178085034e-12
1.222835995e-09
1.099359152e-12
1.219799807e-09
1.011485237e-12
1.216068836e-09
9.145903496e-13
1.21168478e-09
8.088354069e-13
1.206687517e-09
6.944158699e-13
1.201114979e-09
5.715518555e-13
1.195003493e-09
4.404621095e-13
1.188387647e-09
3.013876279e-13
1.181300195e-09
1.545155765e-13
1.173772505e-09
1.165834562e-09
3.587275261e-15
4.581532959e-11
1.412080322e-14
1.340609713e-10
3.133651602e-14
2.173834405e-10
5.503054675e-14
2.959843795e-10
8.494838928e-14
3.700590746e-10
1.208368657e-13
4.397964412e-10
1.624231647e-13
5.053790568e-10
2.091539691e-13
5.669835746e-10
2.605400781e-13
6.247805729e-10
3.159615115e-13
6.789345986e-10
3.748083293e-13
7.296048219e-10
4.364567602e-13
7.769443224e-10
5.005103584e-13
8.211009614e-10
5.661772645e-13
8.622173196e-10
6.331514944e-13
9.004303205e-10
7.009192305e-13
9.358723311e-10
7.687427145e-13
9.686706062e-10
8.361042175e-13
9.989473759e-10
9.02520727e-13
1.026820464e-09
9.673310493e-13
1.052403324e-09
1.029670502e-12
1.075804951e-09
1.088759069e-12
1.097130009e-09
1.143879822e-12
1.116479066e-09
1.194539791e-12
1.133948669e-09
1.240278536e-12
1.149631409e-09
1.280714394e-12
1.163616119e-09
1.315406957e-12
1.175987946e-09
1.344010597e-12
1.186828474e-09
1.36621948e-12
1.196215909e-09
1.381738881e-12
1.204225222e-09
1.390291742e-12
1.21092822e-09
1.39163005e-12
1.216393687e-09
1.385502039e-12
1.220687491e-09
1.371622045e-12
1.223872711e-09
1.349689018e-12
1.226009624e-09
1.319424826e-12
1.227155891e-09
1.280592229e-12
1.227366682e-09
1.233026862e-12
1.226694665e-09
1.176641469e-12
1.225190165e-09
1.111432334e-12
1.222901204e-09
1.037443953e-12
1.219873796e-09
9.547365749e-13
1.216151543e-09
8.634533393e-13
1.211776064e-09
7.637624357e-13
1.206787208e-09
6.558565523e-13
1.201222884e-09
5.399449685e-13
1.195119405e-09
4.162549103e-13
1.188511337e-09
2.849354192e-13
1.181431514e-09
1.461310824e-13
1.17391131e-09
1.165980693e-09
3.57644032e-15
4.581175315e-11
1.406432913e-14
1.340504835e-10
3.11294705e-14
2.173663754e-10
5.445011087e-14
2.959610588e-10
8.369223384e-14
3.700298325e-10
1.185730079e-13
4.397615604e-10
1.586449714e-13
5.053389848e-10
2.03399142e-13
5.669388204e-10
2.525344719e-13
6.247314375e-10
3.05353407e-13
6.788817796e-10
3.616512511e-13
7.29548524e-10
4.207244676e-13
7.768852492e-10
4.822480792e-13
8.210394377e-10
5.457159801e-13
8.621538517e-10
6.104610823e-13
9.003655754e-10
6.761452246e-13
9.35806647e-10
7.421988288e-13
9.686045526e-10
8.078566925e-13
9.98881718e-10
8.724249566e-13
1.026755895e-09
9.353015761e-13
1.052340447e-09
9.957415875e-13
1.075744511e-09
1.052956049e-12
1.097072794e-09
1.106361862e-12
1.11642566e-09
1.155496911e-12
1.133899534e-09
1.199980253e-12
1.149586926e-09
1.239476782e-12
1.163576623e-09
1.273591768e-12
1.175953831e-09
1.301901624e-12
1.186800165e-09
1.324057843e-12
1.196193753e-09
1.339735281e-12
1.204209544e-09
1.348593996e-12
1.210919362e-09
1.350327531e-12
1.216391953e-09
1.344665326e-12
1.220693153e-09
1.331392628e-12
1.223885984e-09
1.31010542e-12
1.226030911e-09
1.280543994e-12
1.227185453e-09
1.242532125e-12
1.227404694e-09
1.195967111e-12
1.22674123e-09
1.140806748e-12
1.225245325e-09
1.077089454e-12
1.222964922e-09
1.004912136e-12
1.219945973e-09
9.243791883e-13
1.216232076e-09
8.356417518e-13
1.211864801e-09
7.388908316e-13
1.206883958e-09
6.343443609e-13
1.201327431e-09
5.221445292e-13
1.195231605e-09
4.024704596e-13
1.188631011e-09
2.754676608e-13
1.181558517e-09
1.412883053e-13
1.174045489e-09
1.166121981e-09
3.689362021e-15
4.580806378e-11
1.448222501e-14
1.340396906e-10
3.197193071e-14
2.173488857e-10
5.575377023e-14
2.95937277e-10
8.548450809e-14
3.700001017e-10
1.207500305e-13
4.397262949e-10
1.610328171e-13
5.05298702e-10
2.060504894e-13
5.668938028e-10
2.552664532e-13
6.246822216e-10
3.083033791e-13
6.788287427e-10
3.646646039e-13
7.294921628e-10
4.239726271e-13
7.768259412e-10
4.85569699e-13
8.209778407e-10
5.491984504e-13
8.620902229e-10
6.141736936e-13
9.003006001e-10
6.798586731e-13
9.35740962e-10
7.457956257e-13
9.685386156e-10
8.112126074e-13
9.98816301e-10
8.752765398e-13
1.026691831e-09
9.372593258e-13
1.052278464e-09
9.966437032e-13
1.075685126e-09
1.05289198e-12
1.097016546e-09
1.105415616e-12
1.116373137e-09
1.153764253e-12
1.133851185e-09
1.197504158e-12
1.149543186e-09
1.236220896e-12
1.163537906e-09
1.269626319e-12
1.175920426e-09
1.297331724e-12
1.186772459e-09
1.318893135e-12
1.196172192e-09
1.333941829e-12
1.204194496e-09
1.342145639e-12
1.210911158e-09
1.343183506e-12
1.216390916e-09
1.336742004e-12
1.220699595e-09
1.322522174e-12
1.223900204e-09
1.300266183e-12
1.226053167e-09
1.269748488e-12
1.22721597e-09
1.230857707e-12
1.227443585e-09
1.183551194e-12
1.226788537e-09
1.127859531e-12
1.225301017e-09
1.063855108e-12
1.223028926e-09
9.916405035e-13
1.220018187e-09
9.113682107e-13
1.216312348e-09
8.232324545e-13
1.211952937e-09
7.274429676e-13
1.206979748e-09
6.241808906e-13
1.201430693e-09
5.13478628e-13
1.195342307e-09
3.955765233e-13
1.188748913e-09
2.706242626e-13
1.181683469e-09
1.387576633e-13
1.174177356e-09
1.166260739e-09
3.849339183e-15
4.580421445e-11
1.510056124e-14
1.340284394e-10
3.332048611e-14
2.173306658e-10
5.80867418e-14
2.959125107e-10
8.897787908e-14
3.699692106e-10
1.254626309e-13
4.396898101e-10
1.671543841e-13
5.052570103e-10
2.136680708e-13
5.668472891e-10
2.643986949e-13
6.24631491e-10
3.1908428e-13
6.787740571e-10
3.770370913e-13
7.2943421e-10
4.379727637e-13
7.767650055e-10
5.012219624e-13
8.209145915e-10
5.662649974e-13
8.620251799e-10
6.32609944e-13
9.002342552e-10
6.994251488e-13
9.356741468e-10
7.66016447e-13
9.684720243e-10
8.317989258e-13
9.987505185e-10
8.959618671e-13
1.026627668e-09
9.578585841e-13
1.052216568e-09
1.016948788e-12
1.075626036e-09
1.072840345e-12
1.096960655e-09
1.125023704e-12
1.116320953e-09
1.172949982e-12
1.133803259e-09
1.216190724e-12
1.149499945e-09
1.254330345e-12
1.163499766e-09
1.286974238e-12
1.175887782e-09
1.313807498e-12
1.186745626e-09
1.334375493e-12
1.196151624e-09
1.348294737e-12
1.204180576e-09
1.355224903e-12
1.210904228e-09
1.354817514e-12
1.216391323e-09
1.346733677e-12
1.220707679e-09
1.330715159e-12
1.223916222e-09
1.306601571e-12
1.226077281e-09
1.274233452e-12
1.227248338e-09
1.233570276e-12
1.227484248e-09
1.184637544e-12
1.226837469e-09
1.127504816e-12
1.225358149e-09
1.062287858e-12
1.223094143e-09
9.89063861e-13
1.220091411e-09
9.080798767e-13
1.216393332e-09
8.19540174e-13
1.212041477e-09
7.236082203e-13
1.20707568e-09
6.203561861e-13
1.201533945e-09
5.099336091e-13
1.19545273e-09
3.925532601e-13
1.188866294e-09
2.683611254e-13
1.181807661e-09
1.374778565e-13
1.174308239e-09
1.166398217e-09
4.044283834e-15
4.580017016e-11
1.586903171e-14
1.340166146e-10
3.501131623e-14
2.173115235e-10
6.100993081e-14
2.958865121e-10
9.335201572e-14
3.699368685e-10
1.315450713e-13
4.396516171e-10
1.751923798e-13
5.05213363e-10
2.23727654e-13
5.667987538e-10
2.766987277e-13
6.245785199e-10
3.336081874e-13
6.787171477e-10
3.939087445e-13
7.293739094e-10
4.570435223e-13
7.767018707e-10
5.224856323e-13
8.208491494e-10
5.89464569e-13
8.61958201e-10
6.57429373e-13
9.001662904e-10
7.255833671e-13
9.356059928e-10
7.931553248e-13
9.684044523e-10
8.595464791e-13
9.986841274e-10
9.241906071e-13
1.026563024e-09
9.864346631e-13
1.052154324e-09
1.045747424e-12
1.075566723e-09
1.101626975e-12
1.096904775e-09
1.153679942e-12
1.1162689e-09
1.201344881e-12
1.133755594e-09
1.244164599e-12
1.149457126e-09
1.281710803e-12
1.16346222e-09
1.313553407e-12
1.175855939e-09
1.339312838e-12
1.186719866e-09
1.358638751e-12
1.196132298e-09
1.371115562e-12
1.204168099e-09
1.376362464e-12
1.210898981e-09
1.37404094e-12
1.216393644e-09
1.36388989e-12
1.22071783e-09
1.345718305e-12
1.223934394e-09
1.319379498e-12
1.22610362e-09
1.284833153e-12
1.227282885e-09
1.242099681e-12
1.227526982e-09
1.19124577e-12
1.226888323e-09
1.132381543e-12
1.225417014e-09
1.065582462e-12
1.223160942e-09
9.91059529e-13
1.220165934e-09
9.090451549e-13
1.216475347e-09
8.196863879e-13
1.212130835e-09
7.231164298e-13
1.20717225e-09
6.193633751e-13
1.201637698e-09
5.086999898e-13
1.195563393e-09