/*--------------------------------*- C++ -*----------------------------------*\
  =========                 |
  \\      /  F ield         | OpenFOAM: The Open Source CFD Toolbox
   \\    /   O peration     | Website:  https://openfoam.org
    \\  /    A nd           | Version:  7
     \\/     M anipulation  |
\*---------------------------------------------------------------------------*/
FoamFile
{
    version     2.0;
    format      ascii;
    class       volVectorField;
    location    "0.0012";
    object      grad(generalizedNewtonian:nu);
}
// * * * * * * * * * * * * * * * * * * * * * * * * * * * * * * * * * * * * * //

dimensions      [0 1 -1 0 0 0 0];

internalField   nonuniform List<vector> 
1167
(
(-21129.48485 0 -22325.30394)
(-40705.83021 0 -21844.17992)
(-65558.90082 -1.766087453e-09 -20483.47383)
(-91774.95637 0 -18822.03743)
(-114303.3356 0 -16721.76606)
(-135757.5863 0 -14325.9633)
(-155240.4101 0 -11748.58757)
(-172142.8823 0 -9164.015899)
(-185781.4879 -6.136491728e-10 -6710.24187)
(-195345.0459 0 -4492.831578)
(-200100.6973 0 -2616.478126)
(-199589.8505 0 -1153.56218)
(-193838.3321 0 -115.0347913)
(-183462.7807 0 548.8677562)
(-169576.3504 0 920.6847403)
(-153532.4379 1.021184976e-10 1085.674294)
(-136633.8828 0 1114.675441)
(-21777.89218 1.676159064e-08 -24493.02851)
(-42567.09695 0 -23954.61939)
(-68370.50653 1.766087453e-09 -22448.38074)
(-95327.73159 0 -20624.54578)
(-118595.4363 1.037132521e-09 -18312.45791)
(-140581.961 0 -15686.9528)
(-160349.9772 0 -12862.61622)
(-177214.1692 0 -10013.30957)
(-190539.6805 6.136491728e-10 -7319.00715)
(-199566.7793 0 -4910.688416)
(-203599.2826 0 -2890.003669)
(-202260.7057 0 -1318.399741)
(-195694.8415 2.331079767e-10 -198.8870144)
(-184615.6928 -2.218936483e-10 519.9779071)
(-170184.2344 0 923.0708233)
(-153752.6353 0 1100.646683)
(-136603.4765 0 1129.066811)
(-119779.2791 0 1074.235382)
(-103993.8534 0 979.0059901)
(-89642.91252 0 866.7127137)
(-76893.37387 0 752.9717313)
(-65753.63547 -4.341488838e-11 645.6414093)
(-56131.5947 0 547.6034024)
(-47888.5649 0 460.9475507)
(-40865.37698 0 385.2848448)
(-34903.46796 0 320.3082444)
(-29853.95973 0 265.0177818)
(-25581.5163 0 218.1570683)
(-21968.15536 0 178.9010858)
(-18910.73701 -9.841595743e-12 146.0735548)
(-16321.62135 0 118.8144266)
(-14126.6263 0 96.24960995)
(-12262.56393 0 77.58826708)
(-10676.86675 0 62.26671687)
(-9325.279158 0 49.69353142)
(-8170.389259 0 39.38360814)
(-7181.347759 0 30.93028469)
(-6332.419139 0 24.04181018)
(-5601.839108 -2.405189498e-12 18.4253799)
(-4971.454738 0 13.84831641)
(-4426.100085 1.206414697e-12 10.12227023)
(-3953.046791 0 7.0923403)
(-3541.626208 -1.213068337e-12 4.631137475)
(-3182.896181 0 2.634650064)
(-2869.336096 0 1.020360222)
(-2594.585052 0 -0.2824322129)
(-2353.349878 0 -1.332904177)
(-2141.37911 0 -2.176961906)
(-1955.700435 0 -2.853554655)
(-1795.361957 0 -3.396281719)
(-22505.19209 0 -26760.92056)
(-44630.66419 0 -26155.49703)
(-71474.59733 0 -24501.18273)
(-99237.52827 1.296916343e-09 -22485.18048)
(-123314.0668 -1.037132521e-09 -19937.32553)
(-145860.9862 0 -17045.0836)
(-165931.8118 0 -13976.49941)
(-182767.1836 0 -10871.00945)
(-195732.8966 0 -7930.144432)
(-204135.6024 0 -5317.102706)
(-207356.4003 -2.625550867e-10 -3142.875025)
(-205121.1389 -2.464598854e-10 -1462.105521)
(-197683.1816 0 -269.4152997)
(-185849.7695 0 495.0403444)
(-170831.634 0 922.0505645)
(-153982.1197 1.021184976e-10 1105.713583)
(-136568.9093 1.972231438e-10 1134.405452)
(-119600.9212 0 1077.920293)
(-103743.747 0 979.2401364)
(-89366.52818 0 863.1168419)
(-76619.65793 0 746.6015408)
(-65495.75367 0 637.0941277)
(-55896.3161 0 538.2333147)
(-47678.50393 0 451.4181756)
(-40680.6503 0 375.9876034)
(-34743.17783 0 311.7061127)
(-29715.58766 -2.019241095e-11 257.1972815)
(-25462.94465 0 211.3393917)
(-21867.18255 -9.913505491e-12 173.0408611)
(-18825.15844 0 141.0883802)
(-16249.46956 0 114.6760522)
(-14065.83803 0 92.85033371)
(-12211.55714 0 74.83035145)
(-10634.24073 0 60.06104917)
(-9289.665732 0 47.94949914)
(-8140.645089 0 38.01628947)
(-7156.573636 0 29.89248526)
(-6311.844708 0 23.26786434)
(-5584.747842 0 17.86420559)
(-4957.265719 0 13.45824112)
(-4414.33183 0 9.868860875)
(-3943.295302 1.209402773e-12 6.946952914)
(-3533.552696 -1.213068337e-12 4.569100445)
(-3176.228669 0 2.638466298)
(-2863.846806 0 1.076148559)
(-2590.068198 0 -0.1863019968)
(-2349.638532 0 -1.207690849)
(-2138.339118 6.203589913e-13 -2.030872979)
(-1953.21265 0 -2.692834582)
(-1793.313066 0 -3.225612171)
(-23324.83021 0 -29111.12267)
(-46897.86667 0 -28439.23966)
(-74893.37713 0 -26623.57232)
(-103561.2062 0 -24392.85793)
(-128523.0649 0 -21592.48403)
(-151627.6121 0 -18413.75888)
(-171985.4411 0 -15075.12715)
(-188802.4114 0 -11716.52577)
(-201369.7417 0 -8531.068083)
(-209066.7796 0 -5710.317195)
(-211384.7142 0 -3379.784512)
(-208166.3892 0 -1592.265234)
(-199787.9688 0 -331.6844386)
(-187150.4209 0 471.580086)
(-171503.9851 0 914.2274824)
(-154216.1231 1.021184976e-10 1101.660827)
(-136535.2499 0 1132.315983)
(-119417.9448 0 1075.396675)
(-103486.7044 0 973.4969205)
(-89084.38212 0 855.2707366)
(-76340.90359 0 737.2907955)
(-65234.92867 0 626.5120686)
(-55660.78055 0 527.4625768)
(-47469.4306 0 440.9220068)
(-40497.70227 0 366.2436277)
(-34584.95651 0 302.8769534)
(-29579.77974 0 249.2917555)
(-25347.28863 0 204.526693)
(-21768.93507 0 167.2397154)
(-18742.10898 -9.841595743e-12 136.2200584)
(-16179.61742 0 110.6394077)
(-14007.11159 0 89.53998852)
(-12162.36176 0 72.15821067)
(-10593.16747 0 57.92774982)
(-9255.340806 0 46.26486338)
(-8112.021009 0 36.69528057)
(-7132.774583 0 28.89166251)
(-6292.055994 0 22.52196165)
(-5568.299213 0 17.32354955)
(-4943.601701 0 13.0826328)
(-4402.988578 0 9.625060164)
(-3933.880205 0 6.806965494)
(-3525.750472 0 4.509945391)
(-3169.782669 0 2.645425747)
(-2858.530911 0 1.133332566)
(-2585.683909 -1.227877028e-12 -0.09163061809)
(-2346.025159 0 -1.083646704)
(-2135.370359 0 -1.886047771)
(-1950.775303 0 -2.533463681)
(-1791.299414 0 -3.056281123)
(-24221.94298 0 -31527.90271)
(-49394.40459 0 -30791.21418)
(-78669.66078 0 -28789.88686)
(-108310.9516 0 -26325.74169)
(-134225.2974 0 -23259.64577)
(-157933.8662 0 -19783.07807)
(-178551.0377 0 -16132.25255)
(-195309.7973 0 -12515.19749)
(-207444.0373 0 -9100.688724)
(-214356.4783 0 -6079.964559)
(-215671.8636 0 -3597.483006)
(-211385.0816 0 -1708.047993)
(-201999.059 0 -386.2362001)
(-188499.8102 -2.218936483e-10 445.3834522)
(-172193.0619 0 897.9112969)
(-154458.2693 1.021184976e-10 1091.518035)
(-136504.0091 0 1124.980821)
(-119230.973 0 1067.433592)
(-103224.1208 0 963.2655622)
(-88799.46903 0 843.8486655)
(-76060.50615 0 725.1712205)
(-64973.4675 0 614.3198609)
(-55425.74506 0 515.6350747)
(-47262.05144 0 429.5966981)
(-40317.37824 0 356.0073425)
(-34429.60421 0 293.7988894)
(-29446.9341 0 241.3788429)
(-25234.57957 0 197.7377165)
(-21673.4812 0 161.4552324)
(-18661.63184 -9.841595743e-12 131.418919)
(-16112.05422 0 106.6780041)
(-13950.41824 0 86.28189357)
(-12114.95285 0 69.54625226)
(-10553.61664 0 55.84597814)
(-9222.304175 0 44.62388952)
(-8084.488521 0 35.41954835)
(-7109.89419 0 27.91931172)
(-6273.025584 0 21.7963538)
(-5552.473881 0 16.79764787)
(-4930.44667 0 12.71738308)
(-4392.056445 0 9.387719934)
(-3924.796273 0 6.668928373)
(-3518.218453 0 4.454913871)
(-3163.551731 0 2.654965972)
(-2853.376947 0 1.191759363)
(-2581.427581 -1.227877028e-12 0.003137748687)
(-2342.512796 0 -0.9599020767)
(-2132.473163 0 -1.741597232)
(-1948.388431 0 -2.374409768)
(-1789.321249 0 -2.887139749)
(-25207.16786 0 -34020.52754)
(-52143.1605 0 -33211.53244)
(-82834.77605 0 -31011.3432)
(-113530.5219 0 -28304.2071)
(-140462.23 0 -24938.49778)
(-164830.4597 0 -21142.99204)
(-185673.9191 0 -17153.89701)
(-202277.7948 0 -13245.23281)
(-213917.1422 0 -9605.520431)
(-219984.7224 0 -6406.090277)
(-220211.5216 0 -3786.948867)
(-214764.6932 0 -1807.422602)
(-204290.2823 0 -438.7674794)
(-189881.295 -2.218936483e-10 413.4416175)
(-172900.2802 0 877.4729236)
(-154712.0728 1.021184976e-10 1078.008238)
(-136475.0902 0 1113.689817)
(-119041.202 0 1054.248311)
(-102958.9897 0 949.4077304)
(-88512.81765 0 829.7713772)
(-75779.90269 0 710.6455571)
(-64713.3943 0 600.4957544)
(-55192.41814 0 502.7795098)
(-47057.12603 0 417.7374532)
(-40140.35734 0 345.4475079)
(-34277.62292 0 284.475846)
(-29317.3876 0 233.3831716)
(-25124.8512 0 190.9397283)
(-21580.87908 0 155.6918351)
(-18583.85115 -9.841595743e-12 126.6621819)
(-16046.74505 0 102.769017)
(-13895.74306 0 83.08215537)
(-12069.35228 0 66.98327491)
(-10515.56709 0 53.80407799)
(-9190.53667 0 43.01052712)
(-8058.025992 0 34.17032357)
(-7087.906905 0 26.96659668)
(-6254.734924 0 21.08486343)
(-5537.25722 0 16.28156015)
(-4917.78773 0 12.35850197)
(-4381.519392 0 9.153642051)
(-3916.040623 0 6.534193345)
(-3510.959849 0 4.402556133)
(-3157.531485 0 2.665681806)
(-2848.386873 0 1.251011419)
(-2577.29784 -1.227877028e-12 0.09949615448)
(-2339.096548 0 -0.8355907298)
(-2129.647136 0 -1.596668687)
(-1946.052766 0 -2.214716551)
(-1787.379479 0 -2.717158961)
(-26289.0336 0 -36584.20913)
(-55159.62107 1.145606402e-08 -35687.25148)
(-87396.45736 0 -33271.53186)
(-119257.9809 0 -30310.16722)
(-147290.3899 0 -26618.55281)
(-172354.5322 8.72492374e-10 -22488.38106)
(-193421.1194 -7.590816911e-10 -18150.96252)
(-209770.6064 0 -13913.41186)
(-220777.0457 0 -10025.59264)
(-225899.161 0 -6658.920227)
(-224955.257 -7.876652602e-10 -3930.486217)
(-218263.3626 0 -1885.601202)
(-206641.6009 0 -483.6039378)
(-191298.959 0 386.5721431)
(-173629.3689 0 860.5766799)
(-154974.3061 1.021184976e-10 1064.834544)
(-136444.3379 0 1099.585596)
(-118848.3657 9.557346841e-11 1037.933118)
(-102694.3303 0 932.8074492)
(-88226.28834 0 813.5020295)
(-75500.18833 0 694.6143408)
(-64456.1099 0 585.5299339)
(-54962.37327 0 489.0083359)
(-46855.70229 0 405.4685087)
(-39966.71512 0 334.6460389)
(-34129.16171 0 274.977271)
(-29191.44445 0 225.3027899)
(-25018.35704 0 184.1177923)
(-21491.22195 0 149.9824379)
(-18508.73267 0 121.941842)
(-15983.76586 0 98.8990215)
(-13843.08986 0 79.94181307)
(-12025.48161 0 64.45862089)
(-10478.97316 0 51.79080479)
(-9160.015568 4.818700871e-12 41.41132205)
(-8032.628935 0 32.93706061)
(-7066.79748 0 26.0260936)
(-6237.169621 -4.807336091e-12 20.38165355)
(-5522.637365 0 15.77066515)
(-4905.614936 0 12.00226251)
(-4371.382724 1.206414697e-12 8.919078056)
(-3907.613972 1.209402773e-12 6.403121583)
(-3503.963556 0 4.351634731)
(-3151.719412 0 2.677291051)
(-2843.560378 -1.222328066e-12 1.311139916)
(-2573.294952 0 0.1968669486)
(-2335.776938 0 -0.7100764586)
(-2126.89298 0 -1.45031389)
(-1943.769069 0 -2.053364619)
(-1785.47483 0 -2.545306417)
(-27499.01453 0 -39218.44305)
(-58485.56745 0 -38209.92648)
(-92394.63185 -3.532174906e-09 -35561.65782)
(-125524.8723 0 -32308.76023)
(-154728.0204 0 -28268.10055)
(-180515.9278 0 -23774.98716)
(-201817.7129 0 -19097.6553)
(-217838.1332 0 -14533.26945)
(-228055.0737 -6.136491728e-10 -10383.65748)
(-232073.4854 0 -6844.889836)
(-229845.9707 0 -4020.607879)
(-221844.7169 0 -1927.88123)
(-209039.8426 0 -502.4984076)
(-192739.8786 0 376.8328773)
(-174366.1348 0 852.0811137)
(-155234.0411 1.021184976e-10 1053.790971)
(-136408.2108 0 1083.525403)
(-118652.9354 0 1020.191008)
(-102429.3427 0 914.8609038)
(-87940.99792 0 795.3606873)
(-75222.81924 0 677.5310518)
(-64201.67617 0 569.830531)
(-54735.9108 0 474.5666365)
(-46658.45788 0 392.7500599)
(-39796.98788 0 323.5803723)
(-33984.49425 0 265.4176182)
(-29069.21365 0 217.1888718)
(-24915.23117 0 177.2682742)
(-21404.58305 0 144.2962732)
(-18436.26824 -9.841595743e-12 117.2475191)
(-15923.10943 -9.781168704e-12 95.03408005)
(-13792.4507 0 76.82031275)
(-11983.32569 0 61.95101627)
(-10443.80489 -4.830039681e-12 49.79185131)
(-9130.724186 0 39.82800879)
(-8008.295251 0 31.71187515)
(-7046.555815 0 25.08991469)
(-6220.32052 0 19.68039858)
(-5508.606901 0 15.26007577)
(-4893.918388 0 11.64528518)
(-4361.645152 0 8.685030584)
(-3899.522228 0 6.271942517)
(-3497.230548 0 4.300779225)
(-3146.115954 0 2.689386352)
(-2838.898238 0 1.372258349)
(-2569.419928 0 0.2956774032)
(-2332.555091 0 -0.582869429)
(-2124.21184 0 -1.301684108)
(-1941.538416 0 -1.889383737)
(-1783.608243 0 -2.370582345)
(-28865.92822 1.676159064e-08 -41902.5352)
(-62148.54778 0 -40765.15321)
(-97889.44341 3.532174906e-09 -37874.07965)
(-132404.9205 0 -34288.68546)
(-162850.9786 1.037132521e-09 -29866.74531)
(-189337.0312 0 -24971.13685)
(-210819.6035 0 -19958.63678)
(-226454.3312 0 -15090.83033)
(-235755.3639 0 -10686.68095)
(-238515.3835 -5.645090647e-10 -6977.89288)
(-234877.6124 0 -4061.783293)
(-225488.8747 0 -1929.843709)
(-211458.7222 2.331079767e-10 -494.0983801)
(-194179.3346 -2.218936483e-10 382.8848807)
(-175092.1282 0 851.0961591)
(-155479.2679 0 1042.861552)
(-136362.4546 0 1066.173332)
(-118455.8234 0 1001.086482)
(-102163.7431 0 895.6341231)
(-87656.61177 0 775.9517933)
(-74949.09603 0 659.3908618)
(-63950.96815 -4.341488838e-11 553.367504)
(-54513.46024 0 459.7309994)
(-46465.76443 0 379.742138)
(-39631.66411 0 312.2571414)
(-33843.95712 0 255.7815167)
(-28950.67672 0 209.0382422)
(-24815.50011 0 170.3674445)
(-21321.03889 0 138.6024524)
(-18366.41219 0 112.5575011)
(-15864.76361 0 91.16544998)
(-13743.86876 0 73.70324098)
(-11942.88576 0 59.4459035)
(-10410.08886 0 47.79450556)
(-9102.658888 0 38.25330388)
(-7984.989797 0 30.48620386)
(-7027.171886 0 24.15073548)
(-6204.183307 0 18.97526891)
(-5495.164052 -4.810378996e-12 14.74467373)
(-4882.708843 0 11.28051078)
(-4352.310107 1.206414697e-12 8.45020296)
(-3891.757892 0 6.139102737)
(-3490.762053 0 4.248806938)
(-3140.724149 0 2.70134261)
(-2834.403328 -1.222328066e-12 1.434259417)
(-2565.67449 0 0.3962095034)
(-2329.433223 0 -0.4535582985)
(-2121.606352 0 -1.149929282)
(-1939.362189 0 -1.721746691)
(-1781.780567 0 -2.191881601)
(-30405.17754 0 -44533.87299)
(-66167.19685 0 -43264.19011)
(-103917.8384 -3.532174906e-09 -40116.35924)
(-139953.3821 0 -36174.02881)
(-171714.8153 0 -31363.74199)
(-198854.3859 0 -26056.22169)
(-220415.8204 0 -20680.25204)
(-235587.9511 0 -15536.73028)
(-243855.9961 0 -10909.46871)
(-245204.8659 0 -7047.544639)
(-240030.2064 0 -4053.06342)
(-229170.6288 0 -1895.907102)
(-213872.964 0 -462.2252015)
(-195599.7994 0 402.3499051)
(-175791.5743 0 854.0045091)
(-155702.7569 1.021184976e-10 1031.510881)
(-136308.0525 0 1048.789695)
(-118256.1533 0 981.5541626)
(-101898.0348 0 874.9022251)
(-87374.01185 0 755.7768343)
(-74678.95529 0 640.606739)
(-63704.76721 0 536.1057598)
(-54295.78171 0 444.5354263)
(-46277.59925 0 366.5094258)
(-39470.82473 0 300.7151813)
(-33707.79945 0 246.0126607)
(-28835.91809 0 200.8134931)
(-24719.22137 0 163.4545162)
(-21240.6693 0 132.8915854)
(-18299.22064 -9.841595743e-12 107.8581552)
(-15808.74176 0 87.31532503)
(-13697.3189 0 70.58925558)
(-11904.152 0 56.93717438)
(-10377.81797 0 45.77630197)
(-9075.815827 0 36.66888164)
(-7962.710472 0 29.25158555)
(-7008.644622 0 23.20187917)
(-6188.756202 0 18.26031867)
(-5482.297055 0 14.22030467)
(-4871.990138 0 10.90869723)
(-4343.395554 -1.206414697e-12 8.209537488)
(-3884.32732 0 6.002027611)
(-3484.562481 0 4.194272632)
(-3135.548478 0 2.712389367)
(-2830.07989 1.222328066e-12 1.496903959)
(-2562.061658 0 0.4988031349)
(-2326.414733 0 -0.3208503933)
(-2119.080142 0 -0.9941069773)
(-1937.24251 0 -1.549472367)
(-1779.993251 0 -2.00816433)
(-32110.13768 0 -46984.68252)
(-70557.02211 0 -45575.13422)
(-110512.6847 0 -42184.67591)
(-148168.0903 0 -37881.56995)
(-181294.2485 -1.037132521e-09 -32679.61423)
(-209103.5263 0 -26971.59896)
(-230612.409 -7.590816911e-10 -21210.87492)
(-245156.3972 0 -15805.99556)
(-252285.7249 6.136491728e-10 -11011.65974)
(-252101.767 0 -7038.061553)
(-245267.9741 0 -3989.938398)
(-232860.6694 0 -1825.000985)
(-216260.6394 0 -407.0710457)
(-196976.8131 0 431.2698598)
(-176450.3303 0 858.1416134)
(-155903.2855 1.021184976e-10 1021.742917)
(-136243.9589 1.972231438e-10 1032.499794)
(-118051.3536 0 962.0174023)
(-101631.0221 0 853.2472378)
(-87094.34888 0 734.852337)
(-74412.36519 0 621.3122376)
(-63463.03219 0 518.3607677)
(-54083.556 0 428.9739391)
(-46094.34345 0 353.031164)
(-39314.63563 0 289.0874491)
(-33576.15903 0 236.1631751)
(-28725.18365 -1.009620547e-11 192.5215549)
(-24626.49308 0 156.543671)
(-21163.403 -9.913505491e-12 127.1637398)
(-18234.74139 0 103.1349487)
(-15755.06489 0 83.46053706)
(-13652.76025 0 67.46141116)
(-11867.06041 0 54.41260629)
(-10346.98175 0 43.74096965)
(-9050.236163 0 35.06754527)
(-7941.45943 0 27.99991024)
(-6990.972243 0 22.23625154)
(-6174.043423 0 17.52873399)
(-5470.027256 0 13.67796152)
(-4861.769317 0 10.52899366)
(-4334.893518 0 7.960195581)
(-3877.236024 0 5.858050746)
(-3478.639695 0 4.135242986)
(-3130.596507 0 2.721356493)
(-2825.935056 0 1.559710406)
(-2558.589156 0 0.6036169795)
(-2323.504163 0 -0.1838911914)
(-2116.634604 0 -0.8331870761)
(-1935.181164 0 -1.371274134)
(-1778.247495 0 -1.81790548)
(-34006.76184 0 -49170.19867)
(-75283.69417 0 -47604.21469)
(-117627.3115 0 -43998.79914)
(-157063.891 0 -39350.44223)
(-191597.7319 0 -33745.95129)
(-220071.1883 0 -27659.92102)
(-241412.5248 0 -21537.4984)
(-255103.115 0 -15862.78915)
(-260926.4554 0 -10935.08093)
(-259115.7777 0 -6913.848341)
(-250541.6845 0 -3859.479188)
(-236524.2261 0 -1715.919109)
(-218585.7058 0 -335.9641482)
(-198287.8787 0 464.6017016)
(-177065.8752 0 865.8421683)
(-156081.7233 1.021184976e-10 1015.269174)
(-136167.58 0 1017.997389)
(-117839.342 0 942.1767004)
(-101362.2077 0 831.49815)
(-86817.46666 0 713.6582904)
(-74149.99716 0 601.6018883)
(-63226.16921 0 500.5455097)
(-53876.70604 0 413.2978363)
(-45916.34278 0 339.3505035)
(-39163.35744 0 277.4352957)
(-33448.94841 0 226.2887938)
(-28618.45675 0 184.1328031)
(-24537.3525 0 149.5933164)
(-21089.23818 0 121.4080999)
(-18172.96365 -9.841595743e-12 98.35594931)
(-15703.74001 0 79.57188699)
(-13610.20048 0 64.30148288)
(-11831.66501 0 51.859094)
(-10317.58739 0 41.6932515)
(-9025.878946 0 33.44191394)
(-7921.235001 0 26.72285826)
(-6974.157916 0 21.24664269)
(-6160.036633 0 16.77520879)
(-5458.363849 0 13.11523745)
(-4852.071205 0 10.13326041)
(-4326.815623 0 7.698100945)
(-3870.493669 0 5.704460706)
(-3473.003627 0 4.069805314)
(-3125.878172 0 2.72708413)
(-2821.978157 0 1.622251393)
(-2555.26522 -1.227877028e-12 0.7107971541)
(-2320.70835 0 -0.04240300747)
(-2114.275121 0 -0.6661224846)
(-1933.182316 0 -1.185874585)
(-1776.546581 0 -1.619877888)
(-36111.43605 0 -50970.85211)
(-80347.19005 0 -49229.82217)
(-125235.4996 0 -45438.16205)
(-166622.3319 0 -40443.37159)
(-202590.9045 0 -34458.04077)
(-231686.3512 0 -28031.04417)
(-252788.943 0 -21612.78825)
(-265432.1441 0 -15702.16573)
(-269702.4815 0 -10664.17743)
(-266116.6001 0 -6642.158196)
(-255746.6129 0 -3638.483041)
(-240090.3367 0 -1559.609103)
(-220813.8218 0 -241.257546)
(-199529.6144 0 513.4159906)
(-177638.3232 0 885.0390819)
(-156233.1671 1.021184976e-10 1015.587074)
(-136073.307 0 1006.580821)
(-117617.9846 0 923.225006)
(-101092.1478 0 810.4601147)
(-86542.75061 0 692.9578916)
(-73891.69451 0 581.7758643)
(-62994.50156 0 482.7242552)
(-53674.97106 0 397.616068)
(-45743.49901 0 325.5644574)
(-39017.18798 0 265.7117789)
(-33326.05689 0 216.3684989)
(-28515.7208 0 175.7209501)
(-24451.95242 0 142.6106219)
(-21018.12835 0 115.6195297)
(-18113.88321 0 93.554103)
(-15654.82899 0 75.65397784)
(-13569.64676 0 61.10719303)
(-11797.97277 0 49.2592363)
(-10289.64074 0 39.61024533)
(-9002.744404 0 31.78203892)
(-7902.039998 0 25.41223874)
(-6958.209841 0 20.22468744)
(-6146.756244 0 15.99125113)
(-5447.318027 0 12.5308209)
(-4842.897533 0 9.715876655)
(-4319.173046 0 7.41766705)
(-3864.113575 0 5.536664652)
(-3467.667864 0 3.994459571)
(-3121.406623 0 2.727144278)
(-2818.221319 0 1.683143638)
(-2552.1003 0 0.8199584203)
(-2318.035453 0 0.1041520464)
(-2112.007107 0 -0.4915416394)
(-1931.248478 0 -0.9911472603)
(-1774.890886 0 -1.411224838)
(-38455.32603 0 -52173.1951)
(-85713.90578 0 -50231.14901)
(-133322.2467 0 -46339.41044)
(-176821.2098 0 -41008.56507)
(-214199.2439 0 -34688.5153)
(-243826.1635 0 -27963.70422)
(-264584.3573 0 -21353.74113)
(-276031.0835 0 -15306.02208)
(-278550.6509 0 -10216.45312)
(-273026.9587 0 -6233.137831)
(-260785.0863 0 -3320.68934)
(-243492.9966 0 -1341.458454)
(-222913.5317 0 -104.8377943)
(-200679.7002 -2.218936483e-10 590.0623948)
(-178148.5097 0 920.8240222)
(-156343.8442 1.021184976e-10 1024.979812)
(-135953.441 0 998.3239812)
(-117384.0418 0 906.3202643)
(-100819.3524 0 790.671551)
(-86268.80842 0 672.9026152)
(-73636.43167 0 562.330476)
(-62767.97412 0 465.0398389)
(-53478.35406 0 381.9648175)
(-45575.74754 0 311.8722217)
(-38876.08574 0 253.9943814)
(-33207.72463 0 206.423068)
(-28417.02786 0 167.3549655)
(-24370.1131 0 135.6138706)
(-20950.14753 0 109.8027899)
(-18057.51404 0 88.75077321)
(-15608.23608 0 71.70763728)
(-13531.04023 0 57.87660485)
(-11765.97507 0 46.61354599)
(-10263.17317 0 37.48736597)
(-8980.837758 0 30.08319761)
(-7883.87778 0 24.06365055)
(-6943.130197 0 19.16579967)
(-6134.218007 0 15.16867108)
(-5436.908215 0 11.91687146)
(-4834.258443 0 9.272046655)
(-4311.981117 0 7.114743057)
(-3858.112967 0 5.350968649)
(-3462.650326 0 3.906180454)
(-3117.199752 0 2.719383389)
(-2814.681696 0 1.741226785)
(-2549.11013 0 0.9309459983)
(-2315.499289 0 0.2565008524)
(-2109.842377 0 -0.3081374934)
(-1929.389945 0 -0.7856950713)
(-1773.289525 0 -1.191057995)
(-41073.62335 0 -52467.98444)
(-91273.90742 0 -50292.27889)
(-141751.1316 0 -46413.50858)
(-187575.6056 0 -40821.77023)
(-226335.6047 0 -34280.59963)
(-256333.6037 0 -27353.10323)
(-276574.3186 0 -20665.93153)
(-286713.9221 0 -14615.06879)
(-287343.8374 0 -9567.605)
(-279764.6388 0 -5687.40485)
(-265602.0059 0 -2908.5357)
(-246685.3974 0 -1058.10871)
(-224845.0836 0 73.75927126)
(-201706.7066 -2.218936483e-10 692.4113885)
(-178574.8221 0 971.9160236)
(-156397.7094 1.021184976e-10 1042.00735)
(-135800.018 0 994.026059)
(-117136.3539 0 892.3535526)
(-100542.0194 0 772.8108751)
(-85994.9657 0 653.4228789)
(-73383.99209 0 543.5924612)
(-62545.77699 0 447.8112033)
(-53286.75192 0 366.4116439)
(-45413.0818 0 298.3648283)
(-38739.78168 0 242.3748464)
(-33093.82358 0 196.4311139)
(-28322.34935 0 158.9774037)
(-24291.81025 0 128.5975582)
(-20885.2595 0 103.9123527)
(-18003.83866 -9.841595743e-12 83.89414652)
(-15563.95535 0 67.70693052)
(-13494.38739 0 54.59218036)
(-11735.67037 0 43.92542142)
(-10238.17447 0 35.31240264)
(-8960.159843 0 28.33138443)
(-7866.751575 0 22.66351006)
(-6928.914506 0 18.05831056)
(-6122.431603 0 14.30255536)
(-5427.15737 0 11.26178537)
(-4826.168412 0 8.791121218)
(-4305.254921 0 6.779628545)
(-3852.509254 0 5.138677437)
(-3457.970295 0 3.797479111)
(-3113.277728 0 2.697787094)
(-2811.379072 0 1.792232381)
(-2546.312519 0 1.041467011)
(-2313.113816 0 0.4144922072)
(-2107.789034 0 -0.113798069)
(-1927.607468 0 -0.5649790819)
(-1771.73761 0 -0.9521086339)
(-44014.54451 0 -51362.15291)
(-96946.77461 1.145606402e-08 -48951.95243)
(-150337.4257 0 -45274.19283)
(-198626.9757 0 -39549.10942)
(-238710.8053 0 -32976.00641)
(-268975.6257 8.72492374e-10 -26033.44147)
(-288513.1119 -7.590816911e-10 -19398.26977)
(-297233.6937 0 -13525.88441)
(-295902.6504 0 -8670.593195)
(-286201 0 -4979.708334)
(-270108.3556 -5.251101735e-10 -2389.943285)
(-249606.9004 2.464598854e-10 -706.401197)
(-226565.4818 0 295.5124807)
(-202584.7973 0 821.8041815)
(-178899.5389 0 1038.048322)
(-156385.7732 2.042369953e-10 1066.220804)
(-135610.5009 9.861157192e-11 995.6566173)
(-116871.3841 9.557346841e-11 882.6000649)
(-100256.3644 0 757.4944629)
(-85719.05045 0 635.3668102)
(-73134.27811 0 525.7648809)
(-62327.19579 0 431.2290126)
(-53099.60381 0 351.2291906)
(-45255.49852 0 285.0843574)
(-38607.93195 0 230.9001836)
(-32984.19731 0 186.5314818)
(-28231.78539 0 150.6441341)
(-24216.89259 0 121.5933034)
(-20823.40852 0 98.01031252)
(-17952.9294 0 79.01478802)
(-15521.99121 0 63.67103179)
(-13459.71815 0 51.26012729)
(-11707.0645 0 41.20035416)
(-10214.62245 0 33.09249207)
(-8940.711631 4.818700871e-12 26.53257676)
(-7850.672384 0 21.21519413)
(-6915.593801 0 16.8994835)
(-6111.412299 -2.403668045e-12 13.39648241)
(-5418.064676 0 10.56553816)
(-4818.64422 0 8.271465601)
(-4299.016737 1.206414697e-12 6.409778985)
(-3847.327683 0 4.896715742)
(-3453.655599 0 3.665171484)
(-3109.670567 0 2.659567318)
(-2808.344869 0 1.834271322)
(-2543.739279 0 1.150875025)
(-2310.910375 0 0.5786921372)
(-2105.877906 -6.203589913e-13 0.09261209279)
(-1925.932647 0 -0.3287338571)
(-1770.266737 -6.278896109e-13 -0.6970293309)
(-47232.00771 0 -48115.96503)
(-102420.0222 0 -45567.90613)
(-158726.6342 -3.532174906e-09 -42452.80206)
(-209658.0472 0 -36843.78579)
(-250930.0706 0 -30472.00668)
(-281406.5189 0 -23775.46092)
(-300055.2129 0 -17394.34284)
(-307203.8478 0 -11882.80798)
(-303950.1937 0 -7418.139441)
(-292184.8953 0 -4052.756463)
(-274204.5297 0 -1729.608277)
(-252188.2379 0 -261.0478717)
(-228031.3224 0 579.4156083)
(-203279.7383 -2.218936483e-10 989.6216936)
(-179097.2244 0 1125.581336)
(-156297.1345 1.021184976e-10 1105.039632)
(-135380.6514 0 1007.885727)
(-116584.8451 0 880.1577095)
(-99959.63026 0 746.4041658)
(-85439.34652 0 620.5869077)
(-72885.50009 0 510.0654702)
(-62111.5992 0 415.9536744)
(-52916.41244 0 337.0656356)
(-45102.41998 0 272.4166727)
(-38480.52718 0 219.7924011)
(-32878.73236 0 176.9427505)
(-28145.01705 0 142.4547508)
(-24145.356 0 114.653361)
(-20764.55216 0 92.1681068)
(-17904.64558 -9.841595743e-12 74.13293977)
(-15482.26585 0 59.60185473)
(-13426.99852 0 47.86211073)
(-11680.15888 0 38.41226205)
(-10192.50824 0 30.80560941)
(-8922.481938 0 24.66405718)
(-7835.615041 0 19.69626658)
(-6903.164913 0 15.66842688)
(-6101.178377 0 12.42288727)
(-5409.63534 0 9.804967082)
(-4811.691591 0 7.69111055)
(-4293.276548 -1.206414697e-12 5.983929067)
(-3842.583367 0 4.6047665)
(-3449.726607 0 3.490383057)
(-3106.403334 0 2.588000505)
(-2805.607095 0 1.853718123)
(-2541.417801 0 1.249824579)
(-2308.909975 0 0.7454175242)
(-2104.115799 0 0.3146417412)
(-1924.350479 0 -0.06429104423)
(-1768.844359 0 -0.4017360933)
(-50525.17556 0 -42295.80936)
(-107110.3458 0 -39568.70896)
(-166228.031 3.532174906e-09 -37343.3474)
(-220128.2267 0 -32212.70187)
(-262486.5483 0 -26412.49434)
(-293122.7169 0 -20344.1919)
(-310824.0409 7.590816911e-10 -14539.7105)
(-316278.4946 0 -9574.161644)
(-311114.6002 0 -5676.138384)
(-297446.6178 0 -2813.931271)
(-277737.4856 0 -876.3820423)
(-254335.3193 0 308.3380154)
(-229170.2217 0 941.626994)
(-203738.7513 -2.218936483e-10 1206.485971)
(-179141.8846 0 1247.853185)
(-156118.8011 1.021184976e-10 1170.480591)
(-135098.194 0 1039.019823)
(-116266.2986 0 890.5278839)
(-99645.18937 4.646490293e-11 743.9524042)
(-85152.52221 4.531075074e-11 612.0408568)
(-72634.64879 0 498.8411525)
(-61896.88321 0 403.5861514)
(-52735.90636 2.131899682e-11 325.1014256)
(-44952.74565 0 261.3349292)
(-38356.79105 -2.067999104e-11 209.6922531)
(-32776.93748 0 168.1241625)
(-28061.69309 0 134.8214133)
(-24076.97416 0 108.0726592)
(-20708.5401 0 86.60362809)
(-17858.86002 0 69.44401815)
(-15444.66983 9.781168704e-12 55.66627662)
(-13396.17495 0 44.5612417)
(-11654.94864 0 35.68107485)
(-10171.81992 9.660079362e-12 28.54842508)
(-8905.470478 0 22.80559308)
(-7821.596523 0 18.17411409)
(-6891.641528 0 14.42886787)
(-6091.738049 0 11.4279486)
(-5401.887541 0 9.015983149)
(-4805.333898 0 7.077874292)
(-4288.06252 0 5.522692433)
(-3838.31024 1.209402773e-12 4.277027936)
(-3446.224445 0 3.281888437)
(-3103.525831 0 2.487704907)
(-2803.225502 0 1.852503587)
(-2539.418781 -1.227877028e-12 1.33891171)
(-2307.195322 0 0.9144897511)
(-2102.5999 0 0.550044286)
(-1922.977473 -6.239889687e-13 0.2196841682)
(-1767.597731 0 -0.0886187956)
(-54200.11373 0 -31368.5964)
(-110974.2948 0 -29389.41057)
(-172314.891 -3.532174906e-09 -28676.85706)
(-229270.332 0 -24491.86168)
(-272519.0594 0 -19768.02699)
(-303331.6462 0 -14830.68094)
(-320254.5176 0 -10112.32199)
(-324111.2704 0 -6094.691911)
(-317076.0319 -6.136491728e-10 -3049.93703)
(-301669.7744 5.645090647e-10 -932.8326426)
(-280482.9206 0 416.542418)
(-255907.0061 0 1171.289624)
(-229897.7438 0 1501.495786)
(-203922.099 -2.218936483e-10 1561.499163)
(-179010.8747 0 1469.872913)
(-155828.5134 1.021184976e-10 1306.208802)
(-134744.1555 0 1118.767879)
(-115902.5524 0 933.46255)
(-99304.26961 0 764.713304)
(-84851.95027 0 619.8051241)
(-72376.60849 0 499.0225843)
(-61679.52722 0 399.2667819)
(-52556.00567 0 318.77377)
(-44804.49487 0 254.2211772)
(-38235.36755 0 202.394654)
(-32678.09237 0 161.2630173)
(-27981.04132 0 128.5466653)
(-24011.20346 0 102.4136965)
(-20655.05009 0 81.67046997)
(-17815.28411 -9.841595743e-12 65.16968829)
(-15409.03133 -9.781168704e-12 51.99205512)
(-13367.0704 0 41.4339294)
(-11631.23286 0 33.03433131)
(-10152.42369 -4.830039681e-12 26.31918941)
(-8889.573246 0 20.9350003)
(-7808.540183 0 16.60573107)
(-6880.949801 0 13.13567323)
(-6083.016484 0 10.36532723)
(-5394.763726 0 8.150398949)
(-4799.523538 0 6.382702294)
(-4283.33626 0 4.976938938)
(-3834.480587 0 3.864790929)
(-3443.134196 0 2.991931129)
(-3101.03747 0 2.312931897)
(-2801.212761 0 1.789093385)
(-2537.761405 0 1.384895398)
(-2305.776049 0 1.067548252)
(-2101.302386 0 0.8047723578)
(-1921.715054 0 0.5658202314)
(-1766.368269 0 0.3357401605)
(-55582.25987 0 -24340.76317)
(-111427.1434 0 -21637.21356)
(-175638.3811 0 -21746.05051)
(-236111.3476 2.593832687e-09 -17801.44905)
(-280059.6911 0 -13545.02465)
(-310953.0839 0 -9246.469938)
(-327206.2944 -7.590816911e-10 -5369.752843)
(-329738.2496 0 -2212.671563)
(-321124.8582 6.136491728e-10 18.34176208)
(-304288.5604 -5.645090647e-10 1391.44797)
(-281961.8092 0 2106.486903)
(-256547.6468 0 2362.275698)
(-229973.456 0 2325.436192)
(-203660.7847 0 2124.926323)
(-178579.0197 0 1851.17638)
(-155335.0926 1.021184976e-10 1561.782614)
(-134252.221 9.861157192e-11 1287.649919)
(-115448.4468 0 1042.641737)
(-98907.48401 0 835.209274)
(-84516.02519 0 664.7019654)
(-72096.37121 0 526.5439319)
(-61448.72575 0 415.6803864)