/*--------------------------------*- C++ -*----------------------------------*\
  =========                 |
  \\      /  F ield         | OpenFOAM: The Open Source CFD Toolbox
   \\    /   O peration     | Website:  https://openfoam.org
    \\  /    A nd           | Version:  7
     \\/     M anipulation  |
\*---------------------------------------------------------------------------*/
FoamFile
{
    version     2.0;
    format      ascii;
    class       volTensorField;
    location    "0.0012";
    object      grad(U);
}
// * * * * * * * * * * * * * * * * * * * * * * * * * * * * * * * * * * * * * //

dimensions      [0 0 -1 0 0 0 0];

internalField   nonuniform List<tensor> 
1167
(
(-0.2543391907 -7.410699077e-13 0.1397725017 -1.44165607e-12 -0.4150518476 0 -0.008436937751 -2.460518053e-13 1.323629201)
(-0.3397602859 -4.137150966e-13 0.3289573898 1.707086566e-13 -0.3635267392 0 -0.02200943325 -8.37243749e-13 1.32550341)
(-0.3388364019 -4.003518414e-13 0.5422812089 1.03582743e-13 -0.3487870668 6.898779112e-12 -0.03469229832 -7.173922163e-13 1.329422109)
(-0.3518679073 -5.668536874e-13 0.7699922116 2.721038776e-13 -0.3480321508 0 -0.04751025125 -3.602814121e-13 1.335085673)
(-0.3598900663 -4.765475491e-13 1.018093002 3.095841207e-13 -0.3495466269 0 -0.06001044543 -7.450793805e-14 1.342342922)
(-0.3680469048 -4.901043329e-13 1.294358107 3.436463837e-13 -0.3518425648 0 -0.0720209455 3.906563453e-15 1.350994903)
(-0.3774549505 -1.713717289e-13 1.609054463 3.634061898e-13 -0.35472163 0 -0.08352652203 2.1634367e-13 1.360756972)
(-0.3879362987 7.372047947e-14 1.975332802 3.038323945e-13 -0.3580948892 0 -0.09456356259 5.808068825e-14 1.371323395)
(-0.3990947951 -2.652299074e-13 2.4104717 2.662757622e-13 -0.3618740565 2.397067081e-12 -0.1050264539 -1.065717424e-13 1.382415178)
(-0.4106389757 -3.102192169e-13 2.936832489 2.928666413e-13 -0.3659647899 0 -0.1149136503 1.005862455e-13 1.393675208)
(-0.4224357445 -7.874047273e-14 3.58324857 2.74429679e-13 -0.3702939587 0 -0.1242816389 1.424574649e-13 1.404654129)
(-0.4342769313 6.886009649e-17 4.386445162 2.594868788e-13 -0.3748052768 0 -0.1331909096 3.385183333e-14 1.414898033)
(-0.4458095241 -5.214277082e-14 5.39223929 2.365368721e-13 -0.3794383631 0 -0.1417281279 -4.889031497e-14 1.423973556)
(-0.4566305417 -2.855891677e-13 6.656594171 2.327757007e-13 -0.3841247055 1.733544128e-12 -0.1499989389 -1.557041745e-13 1.431467246)
(-0.4663758892 -3.919533282e-13 8.246633747 2.41427471e-13 -0.3887906493 0 -0.1581015628 -1.321076504e-13 1.436935597)
(-0.4747519531 -2.442942239e-13 10.24175709 2.493127384e-13 -0.3933645081 0 -0.1661042025 -1.47917417e-13 1.439854329)
(-0.4813960099 -1.531903658e-13 12.73489235 2.415032546e-13 -0.3977794593 0 -0.1740435409 -2.275074898e-13 1.439596998)
(-0.2366659454 -6.533557774e-14 0.1372990671 6.563881069e-13 -0.3861389608 -3.273748172e-11 -0.008734072363 7.33907886e-13 1.275456083)
(-0.3163722481 1.871333633e-13 0.3233463109 2.779136929e-13 -0.3382422058 0 -0.02276589798 4.6385839e-13 1.277446369)
(-0.3160572628 -9.001316683e-14 0.5334125255 2.27376753e-14 -0.3246801579 0 -0.03583317573 5.902025617e-13 1.281600268)
(-0.3288944443 -7.259743049e-13 0.7579364705 1.40999282e-13 -0.324241007 0 -0.04909260207 2.857417255e-13 1.287617358)
(-0.3372257607 -7.492640446e-13 1.003036934 3.155186406e-13 -0.3259548658 0 -0.0620685213 1.696881845e-13 1.29538567)
(-0.3458852028 -5.208666778e-13 1.276635021 3.602878551e-13 -0.3284580012 0 -0.07455774728 4.049458149e-14 1.304621289)
(-0.3557929427 -1.174335712e-13 1.589152152 3.778845241e-13 -0.331558589 0 -0.08650290704 -6.567371976e-14 1.315097771)
(-0.3668346051 2.219967658e-13 1.953812932 3.038323945e-13 -0.3351526606 0 -0.09796204384 -7.030161308e-16 1.326422304)
(-0.378687921 -2.638651527e-13 2.387913453 2.440373469e-13 -0.3391713451 0 -0.108912923 6.877480522e-14 1.338258889)
(-0.3909655444 -5.478453011e-13 2.913998741 2.928666413e-13 -0.3435229371 2.205113534e-12 -0.1193094512 -1.232071864e-13 1.350234544)
(-0.4034162163 -2.463329531e-13 3.561069602 2.984673151e-13 -0.3481264082 0 -0.1291722982 -7.864356147e-14 1.361899892)
(-0.4157470408 2.681779411e-14 4.365919877 2.839312949e-13 -0.3529101782 0 -0.1385698987 -3.537588694e-14 1.37277237)
(-0.4275983732 1.572150782e-13 5.374399801 2.516538903e-13 -0.3578005625 -1.821156068e-12 -0.1475844792 5.307605125e-14 1.382364672)
(-0.4386019693 -2.062495209e-14 6.642542381 2.268505011e-13 -0.3627217979 1.733544128e-12 -0.1562927121 8.120374339e-15 1.390196427)
(-0.4484098858 -1.431648004e-13 8.237620352 2.244141258e-13 -0.3675976684 0 -0.1647564188 -7.805169051e-14 1.395776195)
(-0.4567457132 -1.330180238e-14 10.23925371 2.173695437e-13 -0.372354295 0 -0.1730165499 -1.660656205e-13 1.398567239)
(-0.4631532682 -1.580824184e-13 12.74059838 2.02381232e-13 -0.3769254738 0 -0.181145401 -1.342493724e-13 1.397981965)
(-0.4668435612 -3.303799022e-13 15.84984565 2.107294645e-13 -0.3812286266 0 -0.1892765165 -1.367342351e-13 1.393385837)
(-0.4671446585 -2.369840173e-13 19.69219465 2.134084439e-13 -0.3851602971 0 -0.1974461438 -1.658725774e-13 1.383934828)
(-0.4633391429 -1.635346758e-13 24.41155729 2.143300282e-13 -0.3886215437 0 -0.2055861844 -1.695202785e-13 1.368625701)
(-0.4542863422 -1.136346347e-13 30.17193396 2.088754302e-13 -0.3914965798 0 -0.2137059894 -1.588921149e-13 1.346380169)
(-0.4388901318 -8.750793773e-14 37.1590665 2.053621734e-13 -0.393645056 0 -0.2217494867 -1.873542672e-13 1.315970463)
(-0.4160503693 -6.269943362e-14 45.58146508 2.003860785e-13 -0.3949239048 0 -0.2295760903 -1.658672066e-13 1.276125808)
(-0.3845294218 -3.906770763e-14 55.67093232 1.95903722e-13 -0.3951748114 0 -0.2370596489 -1.251921338e-13 1.225631941)
(-0.3432745244 -3.404999212e-14 67.68282734 1.912242824e-13 -0.3942328155 0 -0.2439860145 -1.025019961e-13 1.163316247)
(-0.2913136051 -4.148438597e-14 81.89554211 1.844518604e-13 -0.3919361499 0 -0.2501673466 -9.911180584e-14 1.088201799)
(-0.2279625903 8.044604944e-15 98.60973392 1.811697027e-13 -0.3881242705 0 -0.2553882775 -1.060688184e-13 0.9995040869)
(-0.1528456844 6.148278479e-14 118.1466809 1.745250096e-13 -0.3826565672 0 -0.2594014548 -1.144774199e-13 0.8967827411)
(-0.06581119029 1.751944464e-13 140.8462557 1.688151875e-13 -0.3754086008 0 -0.2619773999 -1.306252832e-13 0.7799963789)
(0.03280082534 1.992192088e-13 167.0643281 1.579797168e-13 -0.3662815228 6.15099734e-13 -0.2628569934 -1.513977582e-13 0.6494936993)
(0.1422300616 9.634359198e-14 197.169353 1.504427804e-13 -0.3552105275 0 -0.2618610381 -1.406399391e-13 0.5061358069)
(0.2611893849 1.101350259e-13 231.5393457 1.443301423e-13 -0.3421665336 0 -0.258836088 -1.261908678e-13 0.3512459996)
(0.3879258641 1.679045594e-13 270.5578648 1.378199792e-13 -0.3271663868 0 -0.2536276872 -1.160462771e-13 0.1867349422)
(0.5203333244 1.717510863e-13 314.6099874 1.314817931e-13 -0.3102692992 0 -0.2461734464 -1.078710165e-13 0.01502769046)
(0.6557441146 1.721285459e-13 364.0788552 1.247027081e-13 -0.2915797274 0 -0.2364655065 -1.029978449e-13 -0.1610341129)
(0.7909181652 2.20637044e-13 419.3405507 1.186378794e-13 -0.2712519453 0 -0.2245376876 -9.748986269e-14 -0.3380534159)
(0.9222972959 2.682603595e-13 480.7598451 1.115038787e-13 -0.2494913037 0 -0.2105136248 -9.349813062e-14 -0.5120924065)
(1.046050164 3.150554039e-13 548.6879161 1.044562774e-13 -0.2265474482 0 -0.1945827759 -9.264146709e-14 -0.6788456374)
(1.157959171 3.080604233e-13 623.4587185 9.747594157e-14 -0.2027139986 6.012973745e-13 -0.1770000064 -9.693344033e-14 -0.8337508904)
(1.253508285 2.937552874e-13 705.385213 8.966331062e-14 -0.1783266434 0 -0.1580849873 -8.088073666e-14 -0.9718609501)
(1.327951573 3.913384298e-13 794.7571182 8.276428951e-14 -0.1537596476 0 -0.1382175499 -6.743723544e-14 -1.087940957)
(1.376347478 4.730359777e-13 891.8389953 7.381608722e-14 -0.1294220888 0 -0.1178313545 -5.766002151e-14 -1.176539194)
(1.393594768 5.134007571e-13 996.8689195 6.574735615e-14 -0.1057540443 0 -0.09740295215 -6.110094671e-14 -1.232035633)
(1.374554799 5.759162148e-13 1110.05846 5.617327077e-14 -0.08322258198 0 -0.07744828523 -5.50828161e-14 -1.248692499)
(1.314316461 6.262295771e-13 1231.593815 4.700114024e-14 -0.06231530333 3.055820165e-13 -0.05852162416 -4.847629688e-14 -1.220746113)
(1.2082355 5.930756316e-13 1361.637378 3.702217112e-14 -0.04353019984 3.069692569e-13 -0.04120222785 -3.093944604e-14 -1.14245529)
(1.049491419 5.600541678e-13 1500.332337 2.914812539e-14 -0.0273704458 0 -0.02607645054 -1.258699871e-14 -1.008044961)
(0.823040053 6.053069472e-13 1647.817469 2.105222163e-14 -0.01440088303 0 -0.01378747493 8.592544932e-15 -0.8117364358)
(0.5209369425 6.477167578e-13 1804.271074 1.283473404e-14 -0.005390288471 0 -0.005162640175 4.9641141e-15 -0.5477761801)
(0.2542140696 6.914578485e-13 1970.049799 4.352094357e-15 -0.0009601463953 0 -0.0009123878055 1.357025942e-15 -0.2102881696)
(-0.2184501957 -5.406678578e-14 0.1346870548 3.492744021e-12 -0.3563108287 0 -0.008988023942 7.400562875e-14 1.225761736)
(-0.292325423 -2.938996251e-13 0.3174124222 1.218176974e-12 -0.3121722449 0 -0.02340767619 2.116124223e-13 1.227846053)
(-0.2925864794 1.335246297e-14 0.5240019542 9.095070119e-13 -0.2998661585 0 -0.03681740362 4.519406459e-13 1.232225747)
(-0.3051033995 1.493213511e-13 0.7450967324 5.534840237e-13 -0.2997258483 -5.066079466e-12 -0.05050352885 4.67012618e-13 1.238627045)
(-0.3136928705 -2.942243005e-14 0.9870060468 4.411326449e-13 -0.3016108017 4.051298909e-12 -0.06389893856 9.983715059e-14 1.246879997)
(-0.3228957876 -5.767228663e-14 1.257749926 3.694406643e-13 -0.304299437 0 -0.07681355101 -9.551605024e-14 1.256671339)
(-0.3333868427 -1.122191086e-13 1.567891453 3.286581876e-13 -0.3076205 2.965162856e-12 -0.08918018878 -2.613098726e-13 1.267784875)
(-0.3449476815 -1.847528803e-13 1.930832052 3.038323945e-13 -0.3114437983 0 -0.1010191416 -9.330495878e-14 1.27985156)
(-0.3573767596 -2.506622366e-15 2.363900928 2.94366392e-13 -0.31569243 -2.397067081e-12 -0.1123898724 6.273069268e-14 1.292445235)
(-0.3702988869 -3.600688356e-14 2.889765733 2.471062286e-13 -0.3202881443 0 -0.1232461531 -1.501146348e-13 1.305148865)
(-0.3833561153 -2.56870937e-13 3.537570479 2.473873384e-13 -0.3251450738 2.051211615e-12 -0.1335890887 -2.761952709e-13 1.317497289)
(-0.3962078737 -2.755680067e-13 4.344224707 2.491450105e-13 -0.3301830621 1.925467854e-12 -0.1434628998 -2.618284017e-13 1.32898179)
(-0.4084694416 -1.345091572e-13 5.355656484 2.525431266e-13 -0.3353206922 0 -0.1529262655 -1.140965287e-13 1.339079774)
(-0.4197647679 -1.409384126e-15 6.627959494 2.327757007e-13 -0.340475421 0 -0.1620405256 1.443326486e-14 1.347270938)
(-0.4297925497 -1.092607414e-14 8.228508161 2.211734886e-13 -0.3455666456 0 -0.1708469209 5.802612994e-15 1.353030618)
(-0.4382207192 -1.265021721e-13 10.23705243 2.072412138e-13 -0.3505221723 -1.595601525e-12 -0.179382229 3.722858388e-14 1.355829689)
(-0.4444612384 -2.176838441e-13 12.74689563 2.091523513e-13 -0.3552671158 -3.081611623e-12 -0.1877707464 1.371409448e-13 1.355144263)
(-0.4478611875 -1.679449802e-13 15.86663474 2.107294645e-13 -0.359708769 0 -0.196101632 3.253476851e-14 1.350350644)
(-0.4479400194 -1.310815725e-13 19.72198453 2.070274606e-13 -0.3637515507 0 -0.2043210997 -2.940740437e-14 1.340644486)
(-0.4439484376 -8.913223187e-14 24.45718583 2.018850588e-13 -0.3673047964 0 -0.2124261427 -6.401059345e-14 1.325120439)
(-0.4348139679 -3.026956278e-14 30.23666705 1.973839017e-13 -0.3702548852 0 -0.2204276862 -8.225132957e-14 1.30280817)
(-0.4195869588 -6.836391858e-14 37.24659344 1.901256251e-13 -0.3724724248 0 -0.2282024384 -9.280210146e-14 1.272586876)
(-0.397208097 -1.094120492e-13 45.69563162 1.886752038e-13 -0.3738251679 0 -0.2356570403 -1.001750062e-13 1.233319614)
(-0.3666070487 -5.92455209e-14 55.81563458 1.830995571e-13 -0.3741644998 0 -0.2426823327 -1.041711339e-13 1.183874052)
(-0.3268438689 -2.196288588e-14 67.86182605 1.792333208e-13 -0.373343245 0 -0.2490749604 -1.109699374e-13 1.123198479)
(-0.2769816236 1.219763873e-14 82.11232735 1.738583414e-13 -0.3712119319 0 -0.2546540412 -1.253975908e-13 1.050428029)
(-0.2164171804 3.345539851e-14 98.8672595 1.682290097e-13 -0.3676242946 6.310128422e-13 -0.2591874932 -1.507980221e-13 0.964857061)
(-0.1447894629 5.809554651e-14 118.4470077 1.629306907e-13 -0.362452102 0 -0.2624773136 -1.440879029e-13 0.866110958)
(-0.06203701563 8.694487959e-14 141.19042 1.56108668e-13 -0.3555813725 1.239188186e-12 -0.2643284241 -1.489587373e-13 0.7541396327)
(0.03150850172 7.259351947e-14 167.4521156 1.495701502e-13 -0.3469262718 0 -0.2645039354 -8.867072036e-14 0.6293160391)
(0.1352064424 6.803179612e-14 197.5991834 1.444728288e-13 -0.3364283056 0 -0.2628280141 -7.653791053e-14 0.4924671229)
(0.2478044123 1.024821039e-13 232.0079589 1.383906303e-13 -0.3240622185 0 -0.2591550568 -7.575773769e-14 0.3448136892)
(0.3676464874 1.345644073e-13 271.0601055 1.324964607e-13 -0.3098475872 0 -0.2533722109 -7.051346344e-14 0.1881627432)
(0.4927952699 1.637148467e-13 315.1390111 1.267649574e-13 -0.2938418475 0 -0.2454238425 -6.10802254e-14 0.0247837155)
(0.6207217676 1.941626817e-13 364.6258948 1.205851658e-13 -0.27614438 0 -0.2353048502 -6.428722212e-14 -0.1426672088)
(0.7484129818 2.295523209e-13 419.894584 1.133520333e-13 -0.2569024466 0 -0.2230496231 -6.4526297e-14 -0.3109712771)
(0.8725786819 2.677571707e-13 481.3077731 1.079827036e-13 -0.2363086567 0 -0.2087961887 -6.217031334e-14 -0.4764459898)
(0.9896043393 3.078449224e-13 549.2148729 9.917478019e-14 -0.2145975793 0 -0.1927356555 -5.757189762e-14 -0.6350949649)
(1.095517908 3.042430209e-13 623.9479096 9.16038969e-14 -0.192045363 0 -0.1751160948 -5.086704799e-14 -0.7826006924)
(1.186065661 2.976855215e-13 705.8177548 8.584159574e-14 -0.1689677428 0 -0.1562477241 -5.723042236e-14 -0.9142890878)
(1.256762106 3.34888412e-13 795.1122081 7.922987145e-14 -0.1457169447 0 -0.1364985682 -6.379386272e-14 -1.025206948)
(1.302906002 4.336902732e-13 892.0940087 7.145397243e-14 -0.1226784278 -3.023506932e-13 -0.1162863577 -5.231594443e-14 -1.110180806)
(1.319636682 5.107694515e-13 996.9994609 6.278576353e-14 -0.1002679059 3.032670842e-13 -0.09606815583 -5.162822774e-14 -1.16384435)
(1.302065942 5.198903896e-13 1110.038576 5.438999234e-14 -0.07892703555 0 -0.07635065134 -3.916850711e-14 -1.180710095)
(1.245516995 5.159160534e-13 1231.39628 4.580746049e-14 -0.0591173938 0 -0.05767138502 -2.400989822e-14 -1.155290311)
(1.145533667 5.035207315e-13 1361.233519 3.814632611e-14 -0.04131078221 0 -0.04059209715 -4.628910658e-15 -1.082109876)
(0.9955538652 5.025384602e-13 1499.691823 3.072980661e-14 -0.02598513563 0 -0.02568611983 -6.459391268e-15 -0.9556017641)
(0.7811663096 6.134418022e-13 1646.908458 2.366481748e-14 -0.01367816692 -1.550897478e-13 -0.01357904326 -4.539009095e-15 -0.7701442565)
(0.4947336519 7.352872769e-13 1803.059973 1.413915434e-14 -0.005123150443 0 -0.005084099104 -4.032580368e-15 -0.5201428906)
(0.2416556653 7.590350481e-13 1968.499844 4.732932553e-15 -0.0009135246223 0 -0.0008984104708 -1.643352562e-15 -0.1998775019)
(-0.1997849604 -4.172419013e-13 0.1319733574 1.152925229e-12 -0.32568999 0 -0.009181973364 -4.33509892e-13 1.174676041)
(-0.2676655408 -5.131395525e-13 0.3111939827 7.558979314e-13 -0.2854400113 0 -0.02391754826 -4.085258754e-13 1.176847548)
(-0.2684375962 -4.851148159e-13 0.5140259487 6.391813167e-13 -0.2744155417 0 -0.03769240991 -4.260508477e-13 1.181463775)
(-0.2806213625 -3.025959869e-14 0.7314736828 6.004837844e-13 -0.274546376 0 -0.05177736971 -2.32079225e-13 1.188243007)
(-0.2894927663 2.472649006e-13 0.9700506674 3.936564858e-13 -0.2766054003 0 -0.06550485783 -1.926456609e-13 1.196937808)
(-0.2991674956 1.434424951e-13 1.237810916 2.98714411e-13 -0.2794764185 0 -0.07876571291 -1.581517078e-13 1.207272788)
(-0.3102188696 -1.575593414e-13 1.545379473 2.352729317e-13 -0.2829996699 0 -0.091549664 -1.298429555e-13 1.218970142)
(-0.3223064841 -3.987151318e-13 1.906433371 2.586768369e-13 -0.2870457309 0 -0.1037724011 -1.151978476e-13 1.231719811)
(-0.3352456151 -1.200521236e-13 2.338441621 2.721279767e-13 -0.2915154107 0 -0.1155030708 -1.276305114e-13 1.245044113)
(-0.3487507223 1.201778632e-13 2.864124903 2.341856414e-13 -0.2963391576 0 -0.1267662641 -4.131019323e-14 1.258463171)
(-0.3623951894 -3.039329039e-14 3.512768663 2.018159865e-13 -0.3014337468 0 -0.1375386831 -6.573099074e-14 1.27147782)
(-0.375766463 -3.180216334e-13 4.321396163 2.002561782e-13 -0.3067123215 0 -0.1478433684 -9.110198155e-14 1.283556354)
(-0.3884595599 -4.233972149e-13 5.336004776 2.187521449e-13 -0.3120860626 0 -0.157728807 -1.199794392e-13 1.294150624)
(-0.4001324955 -2.688303092e-13 6.612762133 2.310827865e-13 -0.3174672694 1.733544128e-12 -0.167228207 -7.093646379e-14 1.302712516)
(-0.4104788147 -1.955814741e-13 8.219094823 2.252242851e-13 -0.3227758157 0 -0.1763699647 -2.873449201e-14 1.308709767)
(-0.4190228958 -3.101694543e-13 10.23476101 2.251605668e-13 -0.3279356906 -1.595601525e-12 -0.1852482492 3.012515037e-14 1.31165409)
(-0.4251782811 -1.35111602e-13 12.75328316 2.332274421e-13 -0.3328582525 0 -0.1939640349 -1.743219454e-14 1.311048503)
(-0.4285472598 5.228431462e-14 15.88366839 2.180211415e-13 -0.337450499 0 -0.2025134742 -4.451209078e-14 1.306253198)
(-0.4286589527 -1.106147899e-14 19.75197978 2.070274606e-13 -0.3416305996 0 -0.2108414878 -5.763153808e-14 1.296529959)
(-0.4246506122 -3.758134986e-14 24.50277605 2.005022845e-13 -0.3453068357 0 -0.218983791 -6.199715859e-14 1.281089844)
(-0.4156832917 -4.362661633e-14 30.30087157 1.940040404e-13 -0.3483665357 0 -0.2269324076 -5.82599642e-14 1.259009797)
(-0.4009273314 -4.300158666e-14 37.33273823 1.881382492e-13 -0.3506970805 0 -0.2345560886 -4.302770674e-14 1.229277217)
(-0.3792804526 -3.400042044e-14 45.80727211 1.834703705e-13 -0.3521735541 0 -0.2417702416 -6.026691224e-14 1.190894132)
(-0.3498240918 -1.097982143e-14 55.95642373 1.766974747e-13 -0.3526560485 0 -0.248435877 -6.933314911e-14 1.142809454)
(-0.3117358164 2.231788146e-14 68.03521507 1.710289787e-13 -0.3520116255 0 -0.2543974853 -7.455585359e-14 1.084070954)
(-0.2641846771 6.606587764e-14 82.32145725 1.638879706e-13 -0.3501029916 0 -0.2594948337 -7.75065046e-14 1.013886744)
(-0.2065956229 5.752662815e-14 99.1147638 1.577532105e-13 -0.3467995603 0 -0.263495175 -7.780335614e-14 0.9316474833)
(-0.1385631363 5.696924806e-14 118.7348271 1.519465992e-13 -0.3419823015 0 -0.2662126685 -7.886308483e-14 0.8370407756)
(-0.06011688421 1.442601222e-14 141.5195373 1.464275103e-13 -0.3355459429 0 -0.2674523841 -7.463232224e-14 0.7300035567)
(0.0283867314 -7.882795548e-15 167.8222546 1.447646835e-13 -0.3274153676 6.15099734e-13 -0.2670258945 -6.61545577e-14 0.6109088129)
(0.1263779644 5.885765956e-14 198.0088237 1.390998723e-13 -0.3175388378 0 -0.2647730639 -7.103863234e-14 0.4805427674)
(0.2326944658 9.180954318e-14 232.4540451 1.342329719e-13 -0.3058953385 0 -0.2605375942 -7.099713799e-14 0.3400617941)
(0.3458038267 1.227678693e-13 271.5378356 1.289474484e-13 -0.2925050407 0 -0.2542388475 -6.896147884e-14 0.1911563148)
(0.4638930893 1.529862336e-13 315.6419904 1.220481218e-13 -0.2774229992 0 -0.2458379057 -6.628419202e-14 0.0359346317)
(0.5845552058 1.829307755e-13 365.145813 1.170558439e-13 -0.2607436843 0 -0.2353310444 -6.357621932e-14 -0.1231118469)
(0.7050073726 2.136540604e-13 420.4210535 1.098281359e-13 -0.2426075272 0 -0.2227645696 -5.906069879e-14 -0.2829326723)
(0.8222224266 2.452059468e-13 481.8286838 1.03874666e-13 -0.2231944232 0 -0.2082720817 -5.31670172e-14 -0.4400922549)
(0.9327858249 2.769588233e-13 549.7163127 9.682744812e-14 -0.2027242167 0 -0.1920426563 -4.643706021e-14 -0.5908955875)
(1.032957767 3.075781587e-13 624.413963 9.013588573e-14 -0.1814562024 0 -0.1743218929 -3.95495236e-14 -0.7312537937)
(1.118736086 3.388717339e-13 706.2305804 8.290181507e-14 -0.1596868867 0 -0.1554145955 -4.493032885e-14 -0.8567545071)
(1.185879652 3.729205106e-13 795.452117 7.569545339e-14 -0.1377472946 0 -0.1356794313 -5.042033001e-14 -0.9627156101)
(1.229918317 4.295490753e-13 892.3394706 6.820606459e-14 -0.1160003454 0 -0.1155172398 -5.503498951e-14 -1.044227379)
(1.246253168 4.642571188e-13 997.1272275 5.952801165e-14 -0.0948383162 0 -0.09538185937 -4.256649111e-14 -1.096169562)
(1.230245854 4.719303873e-13 1110.024022 5.186368122e-14 -0.07467767465 0 -0.07577271322 -3.418190272e-14 -1.113335562)
(1.177419174 4.936840594e-13 1231.213497 4.416615083e-14 -0.05595476756 0 -0.05721923213 -2.617095709e-14 -1.09051558)
(1.083511618 5.257309896e-13 1360.855038 3.649756546e-14 -0.03911631827 3.069692569e-13 -0.04026673691 -2.407515045e-14 -1.022432039)
(0.942219613 5.594906056e-13 1499.088442 2.847026201e-14 -0.02461544835 0 -0.02547933881 -3.00681417e-14 -0.9037392882)
(0.7397634983 5.955524573e-13 1646.049435 2.059785713e-14 -0.0129636602 0 -0.01346925963 -3.871422589e-14 -0.7290208545)
(0.4688278674 6.356571184e-13 1801.912845 1.240627481e-14 -0.004859059737 0 -0.005043003527 -2.230316994e-14 -0.492825048)
(0.2292405819 6.67634426e-13 1967.029076 4.182034533e-15 -0.0008674361984 0 -0.0008911494158 -7.303493269e-15 -0.1895862712)
(-0.180761191 -1.161251451e-13 0.1291385644 5.764626144e-13 -0.2945574508 0 -0.009338519382 -2.851636655e-13 1.122382926)
(-0.2424020863 -2.922498859e-13 0.3046399894 2.970330625e-13 -0.2582198994 0 -0.02436050834 -8.436635956e-13 1.124676636)
(-0.2436181883 -3.457388205e-13 0.5035042465 3.271698834e-13 -0.2484069482 0 -0.03847308282 -4.692337906e-13 1.129557011)
(-0.2555380055 -2.392425755e-13 0.7171606397 3.259062352e-13 -0.2487777792 0 -0.05287201116 -4.078099912e-13 1.136672623)
(-0.2647254118 -1.628515711e-13 0.9522156694 2.922751044e-13 -0.2510210768 0 -0.06690351153 -2.049640145e-13 1.145765473)
(-0.274756461 -1.729989833e-13 1.21683576 2.675116522e-13 -0.2540730221 0 -0.08048059539 -7.699801073e-14 1.156616624)
(-0.286306398 -1.916223092e-13 1.521721509 2.562665163e-13 -0.2577713935 0 -0.09361858938 1.006579279e-13 1.168860164)
(-0.2989937154 -1.863372305e-13 1.880734849 2.49000646e-13 -0.2620257225 0 -0.106216395 -1.333853424e-14 1.182190952)
(-0.3124301065 -1.55710627e-13 2.311603074 2.411112396e-13 -0.2667164267 0 -0.1182808106 -8.915132632e-14 1.196173798)
(-0.3264153048 -1.5018395e-13 2.837143726 2.304171369e-13 -0.2717567191 0 -0.1298862356 -4.503319192e-14 1.210264861)
(-0.340588092 -1.557360259e-13 3.486717486 2.258536227e-13 -0.2770719323 0 -0.1410407103 1.466378075e-13 1.223910534)
(-0.3544634889 -1.631295686e-13 4.297453734 2.185894903e-13 -0.2825746089 0 -0.1517465878 7.907667109e-14 1.236552212)
(-0.367631863 -1.823837672e-13 5.31544375 2.169736722e-13 -0.2881705606 0 -0.162018205 -2.925938115e-14 1.247620559)
(-0.3797513397 -1.967773023e-13 6.596882543 2.150001018e-13 -0.2937720817 1.733544128e-12 -0.1718817387 -1.269563425e-13 1.256557793)
(-0.3903767819 -2.329825098e-13 8.209151434 2.138820549e-13 -0.299295817 0 -0.1814065164 -1.117911174e-13 1.262865995)
(-0.3990047431 -1.450796536e-13 10.23206231 2.158113391e-13 -0.3046510246 -1.595601525e-12 -0.1906893241 -1.431609694e-13 1.266078729)
(-0.4052529546 -4.949544196e-14 12.75940793 2.06142965e-13 -0.3097464145 0 -0.199746289 -2.353845294e-13 1.265669884)
(-0.4088139978 -7.579071584e-14 15.90050178 1.990627814e-13 -0.3144992487 0 -0.2085203532 -1.905416477e-13 1.261029271)
(-0.4091140024 -9.037857017e-14 19.78160632 1.942654938e-13 -0.3188327136 0 -0.2170244727 -1.30601643e-13 1.251496021)
(-0.4053017924 -8.807422042e-14 24.54763721 1.901314766e-13 -0.3226529525 0 -0.2252916106 -9.757260847e-14 1.236371912)
(-0.3967145725 -7.729914497e-14 30.363827 1.858923732e-13 -0.325852093 0 -0.2332353519 -7.862982838e-14 1.214789207)
(-0.3826040498 -6.158471554e-14 37.41682208 1.808512043e-13 -0.3283286846 0 -0.240784055 -6.727508463e-14 1.185827928)
(-0.3619677144 -4.305296726e-14 45.91571231 1.763137249e-13 -0.3299658263 0 -0.247864359 -6.202596933e-14 1.148581755)
(-0.3339504552 -2.247606083e-14 56.09256315 1.715758088e-13 -0.3306376966 0 -0.2542907243 -5.846008981e-14 1.102112629)
(-0.2977131993 -5.300281137e-16 68.20225652 1.659801527e-13 -0.3302198232 0 -0.2599360084 -5.39123808e-14 1.045578221)
(-0.2525803799 2.07902679e-14 82.52231006 1.613953779e-13 -0.328583555 0 -0.2646514212 -4.658665042e-14 0.9782255096)
(-0.1980766238 3.721291746e-14 99.35180425 1.546720931e-13 -0.32561277 0 -0.2682349124 -3.458932746e-14 0.8995122877)
(-0.1338086917 4.898623537e-14 119.0098166 1.507261446e-13 -0.3211989945 0 -0.2705050833 -3.895720814e-14 0.8091711748)
(-0.05978859402 5.06334475e-14 141.8333723 1.452173656e-13 -0.3152475986 0 -0.2712481355 -3.724304947e-14 0.7071744599)
(0.02368404225 6.288872936e-14 168.1746614 1.405599001e-13 -0.3076895404 1.230199468e-12 -0.2703168821 -6.786554204e-14 0.5938833565)
(0.1159954325 8.206234839e-14 198.398353 1.337269159e-13 -0.2984778279 0 -0.2675761278 -6.466647091e-14 0.4700074457)
(0.2160720782 9.614585098e-14 232.8778101 1.294813622e-13 -0.2875975242 0 -0.2628654413 -6.370930897e-14 0.3366725619)
(0.32256324 1.20112464e-13 271.9913759 1.236239299e-13 -0.2750676851 0 -0.2561209853 -6.468432821e-14 0.1954585609)
(0.4337372247 1.469226355e-13 316.1193484 1.185104951e-13 -0.2609401313 0 -0.2473154178 -6.85062601e-14 0.04829269304)
(0.5473152589 1.711204144e-13 365.6391853 1.11761861e-13 -0.2453049042 0 -0.236444254 -7.758533305e-14 -0.1024734508)
(0.6607242315 1.957845051e-13 420.9207088 1.057169222e-13 -0.2282946356 0 -0.2235717079 -6.349122038e-14 -0.2539800235)
(0.7711617116 2.260761773e-13 482.3233264 1.003534908e-13 -0.2100777849 0 -0.2088251224 -5.076633603e-14 -0.4030217198)
(0.875435689 2.620725201e-13 550.1929142 9.389328302e-14 -0.1908600065 0 -0.1923899035 -3.532230072e-14 -0.5461526802)
(0.9700398413 2.997277396e-13 624.8575393 8.719986339e-14 -0.1708839771 0 -0.1745102705 -3.85908169e-14 -0.6795308733)
(1.051209181 3.356224724e-13 706.6243036 8.025601246e-14 -0.1504273751 0 -0.1554870298 -3.924421757e-14 -0.7990023274)
(1.114919577 3.707667246e-13 795.777358 7.275010501e-14 -0.1298006828 0 -0.135670208 -3.878001767e-14 -0.9001452484)
(1.156959672 4.043403049e-13 892.5758023 6.554868545e-14 -0.1093454558 0 -0.1154520163 -3.825587098e-14 -0.9782869967)
(1.173001911 4.340361485e-13 997.2526327 5.789913571e-14 -0.08943015816 0 -0.09528920324 -2.725735908e-14 -1.028587441)
(1.158638264 4.582671482e-13 1110.015166 5.052622239e-14 -0.0704468091 0 -0.07567272651 -2.229742788e-14 -1.046150657)
(1.109587336 4.775202775e-13 1231.045583 4.282326111e-14 -0.05280672565 0 -0.05712911763 -1.788090958e-14 -1.025991425)
(1.021767053 5.191754681e-13 1360.501727 3.559824146e-14 -0.03693227948 0 -0.04019792219 -1.812004696e-14 -0.9630221884)
(0.8891381792 5.60904292e-13 1498.521877 2.745346694e-14 -0.02325231674 0 -0.02543393307 -1.504253188e-14 -0.8521223299)
(0.6985595222 5.805896739e-13 1645.240047 1.957553702e-14 -0.01225256373 0 -0.01344587149 -1.224842854e-14 -0.6880948674)
(0.4430458766 6.056915004e-13 1800.829212 1.181595322e-14 -0.004596215715 0 -0.00503502545 -7.223040164e-15 -0.4656374019)
(0.2168840381 6.349759297e-13 1965.636879 3.978441787e-15 -0.0008215637196 0 -0.0008899387639 -2.296044072e-15 -0.179342834)
(-0.1613634877 1.010968695e-12 0.1261126209 -7.637879874e-13 -0.2628837616 0 -0.009508890578 3.881447013e-15 1.069156685)
(-0.2166252321 -4.999676458e-13 0.2976936214 -1.146479338e-12 -0.2304884523 0 -0.0248110155 4.985020238e-14 1.07157589)
(-0.2183312746 -1.175214117e-12 0.4924579019 -8.421361221e-16 -0.221890525 0 -0.03916955716 1.078348465e-14 1.0766857)
(-0.2299550386 -5.2647897e-13 0.7022168957 1.99130565e-13 -0.222521198 0 -0.05377580769 -4.471447075e-14 1.084091783)
(-0.2393966812 -3.424886381e-13 0.9335832232 2.354026222e-13 -0.2249354883 0 -0.0680763931 -5.911318267e-14 1.093559889)
(-0.2497832508 -4.278564542e-13 1.194928332 2.496220705e-13 -0.2281564769 0 -0.08193153023 -4.337534999e-14 1.104863143)
(-0.2617618781 -2.460256399e-13 1.497082001 2.895666851e-13 -0.2320240264 0 -0.09533802028 -3.355215482e-14 1.117610153)
(-0.2749954565 -3.813401956e-14 1.853949479 2.528711224e-13 -0.2364637862 0 -0.1082916129 -2.189240926e-14 1.131444413)
(-0.2889757983 -6.870865649e-14 2.283541041 2.335033607e-13 -0.2413615807 0 -0.1207185558 5.039509992e-15 1.145964602)
(-0.303420371 -3.616450042e-13 2.808910668 2.16958192e-13 -0.2466132769 0 -0.1326479299 -7.838307575e-14 1.160631162)
(-0.3180353856 -2.622993582e-13 3.45949741 2.533967474e-13 -0.2521365609 0 -0.1441341771 -6.2965826e-14 1.17484347)
(-0.3323944066 4.862900014e-14 4.272487086 2.26580934e-13 -0.2578469554 0 -0.155195391 -5.363292151e-14 1.187997458)
(-0.3460421406 9.893622915e-15 5.294009534 2.103043995e-13 -0.2636536942 0 -0.1658354093 -5.571649721e-14 1.199513571)
(-0.3585134314 -9.918923094e-14 6.580216506 1.955315886e-13 -0.269464296 1.733544128e-12 -0.1761027784 -5.589172896e-14 1.208858038)
(-0.36933874 -1.571440041e-13 8.198473936 1.960585503e-13 -0.2751836429 0 -0.1860709428 -6.708792224e-14 1.21554611)
(-0.3781486689 -3.10142064e-14 10.22873901 1.90100963e-13 -0.2807172246 -1.595601525e-12 -0.1957601533 -1.079852225e-13 1.219089825)
(-0.3846918746 -3.579450527e-14 12.76500027 1.790584878e-13 -0.2859805354 0 -0.2051385137 -6.575321439e-14 1.218960747)
(-0.3885753326 -1.909087781e-13 15.91673622 1.75729415e-13 -0.2908999908 0 -0.2141694247 -4.779311989e-14 1.214603523)
(-0.3891259703 -2.285605099e-13 19.81040203 1.793765326e-13 -0.2953945052 0 -0.2229048403 -4.430494137e-14 1.205451385)
(-0.3857225089 -1.615462624e-13 24.59126455 1.80452056e-13 -0.2993687971 0 -0.2313483289 -4.461516212e-14 1.190827868)
(-0.3777823572 -1.17305613e-13 30.42491318 1.784566783e-13 -0.3027304763 0 -0.2393636053 -4.560977892e-14 1.169949755)
(-0.3644673581 -8.404038087e-14 37.49819129 1.748890767e-13 -0.3053812296 0 -0.246911684 -4.624951531e-14 1.142011129)
(-0.3449925021 -5.628678938e-14 46.02033798 1.711088917e-13 -0.3072086837 0 -0.2539224191 -4.798610622e-14 1.106150076)
(-0.3186083518 -3.201666412e-14 56.22343917 1.664541429e-13 -0.3081034563 0 -0.2602221391 -4.893957555e-14 1.061526971)