/*--------------------------------*- C++ -*----------------------------------*\
  =========                 |
  \\      /  F ield         | OpenFOAM: The Open Source CFD Toolbox
   \\    /   O peration     | Website:  https://openfoam.org
    \\  /    A nd           | Version:  7
     \\/     M anipulation  |
\*---------------------------------------------------------------------------*/
FoamFile
{
    version     2.0;
    format      ascii;
    class       volScalarField;
    location    "0.0012";
    object      rho;
}
// * * * * * * * * * * * * * * * * * * * * * * * * * * * * * * * * * * * * * //

dimensions      [1 -3 0 0 0 0 0];

internalField   nonuniform List<scalar> 
1167
(
933.9265957
933.8540281
933.6985082
933.4688046
933.1702672
932.8071581
932.384097
931.9049832
931.3738777
930.7947036
930.1712065
929.5071109
928.8060198
928.0714177
927.3066893
926.5151301
925.6999612
933.8082678
933.7357514
933.580344
933.3509179
933.0526458
932.6899603
932.2673061
931.788795
931.258396
930.6800277
930.0574683
929.3944506
928.6945868
927.9613723
927.198202
926.408381
925.5952065
924.7619253
923.9114533
923.0467844
922.1709864
921.2866321
920.3965051
919.5031814
918.6090028
917.7164802
916.8275487
915.9444035
915.0688813
914.2026486
913.3474873
912.5046827
911.6755772
910.8614046
910.0630105
909.2812633
908.5170356
907.770801
907.0430102
906.3340018
905.6440018
904.9731015
904.32134
903.6886135
903.0747443
902.4793884
901.9022481
901.3428277
900.8006846
900.2752277
933.6900627
933.6176013
933.4623144
933.2332031
932.9351868
932.5729598
932.150718
931.6728353
931.1431715
930.5656408
929.9440535
929.2821504
928.5835514
927.8517628
927.0901893
926.3021475
925.4910395
924.6599064
923.8117718
922.9497235
922.0766286
921.1951564
920.3081448
919.4179973
918.5272089
917.6380999
916.7526804
915.873185
915.0012945
914.1387857
913.287297
912.4481703
911.6227699
910.8122142
910.0173916
909.2391624
908.478425
907.7355697
907.0110806
906.3052937
905.6184305
904.9505808
904.3017847
903.6719468
903.0608672
902.4682088
901.8936922
901.3368131
900.7971329
900.274062
933.5719854
933.4995828
933.3445352
933.1156401
932.8178952
932.4561456
932.034448
931.5571101
931.0282102
930.4515488
929.830968
929.1702156
928.4729185
927.7425934
926.9826542
926.1965299
925.3874205
924.5584667
923.7127186
922.8532905
921.9829149
921.1044072
920.2204511
919.3334796
918.4460749
917.5603689
916.678504
915.8025764
914.9342948
914.0754828
913.2276373
912.3921572
911.5704289
910.7634572
909.972173
909.1974653
908.4401493
907.700642
906.9794245
906.2768301
905.593076
904.9282504
904.2824069
903.6554265
903.047111
902.4571226
901.8852075
901.3308485
900.7936108
900.2729059
933.454041
933.3817707
933.2269193
932.9982344
932.700876
932.3395225
931.9184048
931.4416749
930.9135176
930.3377574
929.7182171
929.058651
928.3626927
927.6338689
926.875673
926.0914256
925.2843483
924.4576041
923.6143394
922.7574806
921.8898404
921.014322
920.1334148
919.2496422
918.3655913
917.4832773
916.6049591
915.7325691
914.867873
914.0127312
913.1685007
912.3366464
911.5185482
910.7151284
909.9273505
909.1561378
908.4022062
907.6660165
906.9480411
906.2486107
905.5679382
904.9061139
904.2631997
903.6390457
903.0334708
902.4461413
901.8767942
901.3249342
900.7901183
900.2717596
933.3363539
933.2641595
933.1094535
932.8809914
932.5840633
932.2230966
931.8025821
931.3265617
930.799136
930.2242719
929.6058057
928.9474613
928.2528781
927.5256613
926.7692057
925.9868353
925.1818221
924.3573353
923.516559
922.6622903
921.797421
920.9248797
920.047027
919.1665112
918.285749
917.4068157
916.5320278
915.6631564
914.8020697
913.9505228
913.1098806
912.2816627
911.4671214
910.667223
909.8829205
909.1151715
908.3645939
907.6316918
906.9169294
906.2206348
905.5430167
904.8841858
904.2441571
903.6228051
903.0199472
902.4352538
901.8684526
901.3190703
900.7866557
900.2706231
933.2188191
933.1466951
932.9921429
932.7639464
932.4674336
932.106907
931.6869849
931.2116994
930.6851108
930.1111759
929.4937848
928.8367052
928.1435793
927.417941
926.6632211
925.8827598
925.0798411
924.2577187
923.4193753
922.5677175
921.7057033
920.8360705
919.9612782
919.0840184
918.2065388
917.3310175
916.459702
915.5943299
914.7368421
913.8888509
913.05177
912.2271592
911.4161447
910.6197375
909.8388952
909.0745642
908.3273107
907.597667
906.886089
906.1929024
905.5183181
904.862448
904.2252794
903.606705
903.0065405
902.4244604
901.8601833
901.3132571
900.783223
900.2694965
933.1014323
933.0293827
932.8749932
932.6471717
932.3509918
931.991013
931.5716183
931.0970934
930.5713703
929.9984357
929.382185
928.7263924
928.0347076
927.310671
926.5577203
925.7792
924.9784442
924.1586714
923.322784
922.4737553
921.6146072
920.7478896
919.8761911
919.0021554
918.1279523
917.2558638
916.3879735
915.5260818
914.6721698
913.8277096
912.9941634
912.173131
911.3656143
910.5726688
909.7952842
909.0343141
908.2903555
907.5639414
906.8555196
906.1654135
905.4938534
904.8409007
904.2065672
903.5907459
902.9932512
902.4137615
901.8519863
901.3074949
900.7798204
900.2683797
932.9841988
932.9122278
932.7580463
932.5305744
932.2347433
931.8753319
931.4565211
930.9827484
930.4579196
929.8860159
929.270938
928.6164651
927.9262545
927.203853
926.4527042
925.6761564
924.8776498
924.060189
923.2267785
922.3804689
921.5241282
920.6603318
919.7917785
918.9209149
918.0499817
917.1813144
916.3168343
915.4584282
914.6080466
913.7670933
912.9370921
912.1195742
911.3155269
910.5260144
909.752058
908.9944197
908.2537273
907.5305144
906.825221
906.138171
905.4696056
904.8195445
904.188021
903.5749284
902.9800799
902.4031577
901.8438648
901.3017839
900.7764481
900.2672728
932.867124
932.7952356
932.6413611
932.4141594
932.1187148
931.7598695
931.3417565
930.8686688
930.3447628
929.7739206
929.1600471
928.5069263
927.8182224
927.0974885
926.3481731
925.5737181
924.7773952
923.9622688
923.1313549
922.2877973
921.43426
920.573391
919.7079839
918.8402898
917.972651
917.107362
916.2462776
915.3913809
914.5444663
913.7069966
912.8805367
912.0664849
911.2658797
910.4797719
909.709215
908.9548802
908.2174257
907.497386
906.7951935
906.111197
905.4455754
904.7983801
904.1696415
903.5592533
902.9670273
902.3926495
901.8358217
901.2961245
900.7731063
900.266176
932.7502591
932.6785355
932.5248513
932.2979319
932.0029901
931.6446303
931.2272372
930.7549409
930.2319043
929.6621533
929.0495154
928.3977784
927.7106132
926.9915784
926.2441872
925.4718075
924.6776785
923.8649096
923.036571
922.1957182
921.3449969
920.4871191
919.6247995
918.7602726
917.895962
917.0339997
916.1762966
915.3248914
914.4814234
913.647415
912.8244713
912.0138599
911.2166699
910.4339808
909.666754
908.9156947
908.1814503
907.4645564
906.7654375
906.0844674
905.4217634
904.7774083
904.1514296
903.5437214
902.9540941
902.3822376
901.8278523
901.290517
900.7697951
900.2650893
932.6336456
932.5620116
932.4085217
932.181897
931.8874738
931.529619
931.1129677
930.64152
930.119418
929.5507177
928.939346
928.2890241
927.6034296
926.8861867
926.1407268
925.3704076
924.5784977
923.7681085
922.9423987
922.1042271
921.2563328
920.4014809
919.5422186
918.6808567
917.8198671
916.961221
916.1068905
915.2589539
914.4189131
913.5883536
912.7688924
911.9616963
911.1678955
910.3886011
909.6246741
908.8768632
908.1458017
907.4320265
906.7359758
906.0579829
905.3981706
904.7566302
904.1333863
903.5283337
902.9412811
902.3719226
901.8199573
901.2849618
900.7665149
900.2640127
932.5172057
932.4456649
932.2923776
932.0661363
931.7721712
931.4149194
930.998952
930.528378
930.0072856
929.4397198
928.8296037
928.1807285
927.4967706
926.7812913
926.0377484
925.2695167
924.4798501
923.6719217
922.8487966
922.0133191
921.1682726
920.3164406
919.4602367
918.6020724
917.7443591
916.8890195
916.0381103
915.1935634
914.3569306
913.5298437
912.7137968
911.9099918
911.1195549
910.3436287
909.5829751
908.8383856
908.1104803
907.3997971
906.706795
906.0317448
905.3747983
904.7360472
904.1155131
903.5130914
902.9285896
902.3617056
901.8121374
901.2794596
900.763266
900.2629463
932.4009441
932.3295004
932.1764238
931.9506229
931.6570873
931.3005029
930.8851946
930.415519
929.8954631
929.3290749
928.7202813
928.0728782
927.390546
926.6768507
925.9352516
925.1691329
924.3817327
923.5763151
922.75576
921.9229882
921.0808675
920.2319943
919.3788493
918.523918
917.6694321
916.8173894
915.9698881
915.1287151
914.2954721
913.4718369
912.6591824
911.8587452
911.0716735
910.2990623
909.5416566
908.8002625
908.0754869
907.3678765
906.6778889
906.0057553
905.3516486
904.7156612
904.0978117
903.4979962
902.9160211
902.3515878
901.8043936
901.274011
900.7600487
900.2618904
932.2848659
932.2135229
932.0607476
931.8353169
931.5422264
931.1863277
930.7717644
930.302947
929.7839541
929.2187713
928.6113283
927.9654259
927.2847481
926.5728645
925.8332357
925.0692546
924.2842344
923.4812542
922.6632848
921.8332308
920.9940446
920.1481356
919.2980501
918.4463473
917.5950817
916.7463259
915.9022194
915.0644049
914.2345342
913.4143306
912.605047
911.8079551
911.0242434
910.254902
909.5007189
908.7624945
908.0408228
907.3362824
906.6492599
905.9800167
905.3287241
904.6954747
904.0802846
903.4830504
902.9035773
902.3415709
901.7967272
901.268617
900.7568637
900.2608451
932.168976
932.0977809
931.9453105
931.7202232
931.4276582
931.0723976
930.6586498
930.1906658
929.6727616
929.1088113
928.5027466
927.8583729
927.1793775
926.469333
925.7317007
924.9699282
924.1872647
923.3867368
922.5713702
921.7441191
920.9077959
920.0648577
919.2178877
918.3693559
917.5213048
916.6758871
915.8350986
915.0006287
914.174164
913.3573224
912.5513891
911.7576203
910.9772445
910.2111486
909.4601635
908.7250836
908.0064903
907.3049938
906.6209106
905.9545321
905.3060278
904.6754909
904.0629347
903.4682567
902.8912609
902.3316569
901.7891398
901.2632787
900.7537117
900.2598106
932.053369
931.9823136
931.8300785
931.6053467
931.3133817
930.9587169
930.5458056
930.078791
929.5618885
928.9991971
928.3945379
927.7517204
927.0744348
926.366256
925.6306778
924.8711535
924.0908161
923.2927595
922.4800113
921.6555878
920.8221177
919.9821553
919.1383259
918.2929386
917.4480962
916.6060098
915.7685232
914.9373837
914.1143167
913.3008106
912.4982076
911.7077552
910.9306777
910.1678038
909.4199925
908.6880325
907.9725143
907.2740144
906.5928449
905.9293056
905.283564
904.6557139
904.045766
903.4536187
902.8790751
902.3218486
901.7816337
901.2579977
900.7505935
900.2587873
931.9379913
931.867048
931.7150562
931.4906917
931.1993411
930.8452899
930.4332356
929.967218
929.4514271
928.8899311
928.286704
927.6454695
926.9699202
926.2636741
925.5302055
924.772878
923.9948859
923.1993172
922.3892661
921.567618
920.7370071
919.9000318
919.0593359
918.2170907
917.3754514
916.5366868
915.7024906
914.8746677
914.0549823
913.244794
912.4455022
911.6583789
910.8845443
910.1248698
909.3802088
908.6513446
907.9388892
907.2433486
906.5650677
905.9043422
905.2613377
904.6361487
904.0287834
903.4391412
902.8670241
902.3121496
901.7742117
901.2527761
900.7475106
900.2577755
931.8228164
931.751989
931.6002489
931.376384
931.0855401
930.7322246
930.3209437
929.8559458
929.3413173
928.781128
928.1793103
927.5396771
926.865917
926.1616041
925.4302083
924.6750992
923.899471
923.1064064
922.299089
921.4802053
920.6524603
919.8185447
918.9809135
918.141808
917.3034358
916.4679154
915.6369994
914.8125176
913.9961588
913.1892721
912.3932732
911.609459
910.8388465
910.0823498
909.3408165
908.6150248
907.9056082
907.2130025
906.5375856
905.8796488
905.2393562
904.6168025
904.011994
903.4248306
902.8551137
902.302565
901.7668778
901.2476169
900.7444645
900.2567758
931.7078492
931.6371415
931.4856625
931.2623098
930.9719831
930.6194295
930.2089332
929.7449772
929.231535
928.6726774
928.0723398
927.434337
926.7623605
926.0599838
925.3306839
924.5778144
923.8045697
923.0141078
922.2094513
921.3933436
920.5684719
919.7376194
918.9030538
918.0670859
917.2319768
916.3996919
915.5720463
914.7509113
913.9378445
913.1342438
912.3415257
911.560996
910.7935861
910.0402464
909.3018196
908.5791086
907.8726749
907.182981
906.5104041
905.8552315
905.2176255
904.5976818
903.9954039
903.410693
902.8433496
902.2930996
901.7596363
901.242523
900.7414573
900.255789
931.5930947
931.5225105
931.371423
931.1484692
930.8586737
930.5068991
930.0973
929.6343142
929.1220811
928.5645789
927.9657456
927.3293977
926.6592285
925.9588107
925.2316287
924.4810191
923.7102002
922.9223422
922.1203474
921.3070267
920.4850949
919.6572471
918.8257488
917.9929294
917.1610663
916.3320099
915.5076253
914.6898248
913.8800366
913.0797074
912.2902947
911.512988
910.7487624
909.9985604
909.2632195
908.5435688
907.8400939
907.1532889
906.4835286
905.8310962
905.1961523
904.5787931
903.9790199
903.3967348
902.8317377
902.2837588
901.7524911
901.2374976
900.7384905
900.2548154
931.4785672
931.4081866
931.2574105
931.0348657
930.7457058
930.3946354
929.9859758
929.5239711
929.012955
928.4568307
927.8595249
927.2248549
926.5565154
925.8580783
925.1330345
924.3847035
923.6163916
922.8310864
922.0317649
921.2212402
920.4022781
919.5774117
918.7489813
917.9193648
917.0906856
916.2648502
915.4437547
914.6292385
913.8227151
913.0256418
912.2395166
911.4654142
910.7043535
909.9572687
909.2250009
908.508379
907.80784
907.1239003
906.4569328
905.8072167
905.174911
904.5601126
903.9628206
903.3829379
902.8202638
902.2745323
901.7454362
901.2325415
900.7355632
900.2538549
931.3643347
931.2940834
931.1435866
930.9214611
930.6329722
930.2825997
929.8748975
929.4139951
928.9041161
928.3493917
927.7536356
927.1206656
926.4541774
925.7577414
925.0348543
924.2889054
923.5230267
922.7402846
921.9436429
921.1359585
920.3199259
919.4980357
918.6726644
917.846238
917.0207265
916.1980922
915.3802863
914.5690031
913.7657149
912.9718664
912.1889939
911.4180615
910.6601312
909.91613
909.1869335
908.4732819
907.7756541
907.0945604
906.4303724
905.7833661
905.1536987
904.5414674
903.9466678
903.3692011
902.8088626
902.2653866
901.7384617
901.2276561
900.7326831
900.2529112
931.222196
931.152108
931.0019645
930.7804257
930.4927278
930.1432837
929.7367454
929.2772347
928.7689153
928.2158541
927.6220227
926.9911919
926.3270315
925.6331406
924.9130366
924.1699814
923.4071506
922.6276298
921.834358
921.0302941
920.2179087
919.3997737
918.5783268
917.755876
916.934385
916.1158228
915.3022096
914.4950612
913.6959225
912.9062883
912.1275435
911.3607129
910.6068443
909.8668537
909.1416542
908.4318761
907.7380438
907.0606537
906.4000684
905.7565508
905.1302463
904.52124
903.929511
903.3549461
902.7973246
902.2563716
901.7317668
901.2230824
900.7300427
900.2520574
)
;

boundaryField
{
    front_top
    {
        type            wedge;
    }
    front_middle
    {
        type            wedge;
    }
    front_bottom
    {
        type            wedge;
    }
    back_top
    {
        type            wedge;
    }
    back_middle
    {
        type            wedge;
    }
    back_bottom
    {
        type            wedge;
    }
    axis_top
    {
        type            symmetryPlane;
    }
    axis_middle
    {
        type            symmetryPlane;
    }
    axis_bottom
    {
        type            symmetryPlane;
    }
    wall_top
    {
        type            calculated;
        value           nonuniform 0();
    }
    wall_middle
    {
        type            calculated;
        value           nonuniform 0();
    }
    wall_bottom
    {
        type            calculated;
        value           uniform 900.0184441;
    }
    inlet
    {
        type            calculated;
        value           nonuniform 0();
    }
    outlet
    {
        type            calculated;
        value           nonuniform List<scalar> 
50
(
931.222196
931.152108
931.0019645
930.7804257
930.4927278
930.1432837
929.7367454
929.2772347
928.7689153
928.2158541
927.6220227
926.9911919
926.3270315
925.6331406
924.9130366
924.1699814
923.4071506
922.6276298
921.834358
921.0302941
920.2179087
919.3997737
918.5783268
917.755876
916.934385
916.1158228
915.3022096
914.4950612
913.6959225
912.9062883
912.1275435
911.3607129
910.6068443
909.8668537
909.1416542
908.4318761
907.7380438
907.0606537
906.4000684
905.7565508
905.1302463
904.52124
903.929511
903.3549461
902.7973246
902.2563716
901.7317668
901.2230824
900.7300427
900.2520574
)
;
    }
    procBoundary0to1
    {
        type            processor;
        value           nonuniform List<scalar> 
51
(
934.0450416
933.9724265
933.8168019
933.5869364
933.2880457
932.924643
932.5010845
932.0213941
931.4896128
930.909735
930.2853656
929.6202128
928.9178754
928.181894
927.4156478
926.6223897
925.8053326
924.8645251
924.8645251
924.0117455
923.1445291
922.2659958
921.378774
920.4855391
919.5890411
918.6915168
917.7955178
916.9030596
916.016244
915.137066
914.2671214
913.4082171
912.5617022
911.7288633
910.9110339
910.1090341
909.3237352
908.5559837
907.8063379
907.0752144
906.362955
905.6697901
904.9958122
904.3410597
903.7054303
903.0887453
902.490661
901.9108751
901.3488923
900.8042657
900.2764032
)
;
    }
}


// ************************************************************************* //
