/*--------------------------------*- C++ -*----------------------------------*\
  =========                 |
  \\      /  F ield         | OpenFOAM: The Open Source CFD Toolbox
   \\    /   O peration     | Website:  https://openfoam.org
    \\  /    A nd           | Version:  7
     \\/     M anipulation  |
\*---------------------------------------------------------------------------*/
FoamFile
{
    version     2.0;
    format      ascii;
    class       volScalarField;
    location    "0.0012";
    object      T;
}
// * * * * * * * * * * * * * * * * * * * * * * * * * * * * * * * * * * * * * //

dimensions      [0 0 0 1 0 0 0];

internalField   nonuniform List<scalar> 
1167
(
459.4148687
459.5257015
459.7632862
460.1143445
460.5708606
461.1265119
461.7744513
462.5089486
463.324034
464.2139504
465.1732089
466.1963442
467.278064
468.4132415
469.5968839
470.8241128
472.0901397
459.5956007
459.7063834
459.9438564
460.2945793
460.7508047
461.3059476
461.9534261
462.6871829
463.5013865
464.3902844
465.3483356
466.3700589
467.4501455
468.5834492
469.7649582
470.9897766
472.2529945
473.5497518
474.8756734
476.2262335
477.5967585
478.9833173
480.3816176
481.7876617
483.1977899
484.6080469
486.0153591
487.4162157
488.8076498
490.1869434
491.5511744
492.898195
494.2257511
495.5317485
496.8147055
498.0730953
499.3053772
500.510648
501.6880401
502.836865
503.9566172
505.0470113
506.1078488
507.1391682
508.141132
509.1141801
510.058683
510.9753414
511.8647759
512.7278573
459.7761908
459.8869176
460.1242664
460.4745965
460.9305457
461.485126
462.1321351
462.865111
463.6783879
464.5662175
465.5230068
466.5432601
467.6216541
468.7530227
469.9323363
471.1546782
472.4149722
473.7086749
475.0312411
476.3779949
477.7445734
479.126892
480.5205705
481.9218797
483.3269168
484.7320252
486.1340116
487.5293012
488.9151736
490.288735
491.6472918
492.9886055
494.3103874
495.6107286
496.8880795
498.1409272
499.36769
500.5676004
501.7397378
502.8834194
503.9981479
505.0836415
506.1397016
507.1663537
508.1637981
509.1324643
510.0726941
510.9852031
511.8706063
512.7297732
459.9566313
460.0672964
460.3043392
460.6544271
461.1100757
461.6640643
462.3104007
463.0427235
463.8550285
464.74174
465.6972134
466.7159397
467.7925818
468.9219552
470.099013
471.3186612
472.5761341
473.8667305
475.1858614
476.528806
477.891409
479.2693545
480.6585015
482.0550723
483.4550246
484.8549973
486.2515865
487.6414356
489.0217793
490.3896484
491.7425743
493.0782284
494.394286
495.6890215
496.9608171
498.2081147
499.4294676
500.6240664
501.7909963
502.9295801
504.0393287
505.1199641
506.1712667
507.1933015
508.1862673
509.1505962
510.0865888
510.9949828
511.8763882
512.7316732
460.1369146
460.2474052
460.4842078
460.8340622
461.2892337
461.8427542
462.4883632
463.2199348
464.0312998
464.9168428
465.8709467
466.8880894
467.962921
469.0902388
470.2648698
471.4818843
472.7364811
474.0239214
475.3394624
476.6786738
478.0372727
479.4108024
480.7954244
482.187217
483.5821278
484.9769785
486.3681794
487.7526322
489.1274806
490.4896964
491.8370337
493.1670584
494.4774565
495.7666348
497.0329245
498.2747127
499.4907134
500.6800481
501.8418169
502.9753478
504.08016
505.1559731
506.2025551
507.2200226
508.2085478
509.1685569
510.1003669
511.0046804
511.8821214
512.7335571
460.3168496
460.4272522
460.6638921
461.0134936
461.4681204
462.0211868
462.6660317
463.3966956
464.2071365
465.0915178
466.0441987
467.0597018
468.1326651
469.2577614
470.4299676
471.6443461
472.8960143
474.1802208
475.4921608
476.8276034
478.182139
479.5512684
480.9313528
482.318272
483.7082404
485.097983
486.4838179
487.8629012
489.232213
490.5888922
491.9306802
493.2550554
494.5599086
495.8435763
497.1044075
498.3407346
499.5514304
500.7355477
501.8922008
503.0207232
504.120642
505.1916446
506.2335767
507.2465162
508.2306386
509.1863648
510.1140276
511.0142953
511.8878058
512.735425
460.4965973
460.60692
460.843384
461.1926668
461.6467715
462.1993017
462.8433982
463.5731146
464.3824682
465.2656355
466.2168908
467.2306858
468.3016518
469.4245686
470.5943547
471.8060448
473.0547342
474.3355371
475.6439596
476.9755973
478.325934
479.690767
481.0663009
482.4483444
483.8333761
485.2179576
486.5985145
487.9722553
489.336044
490.6872457
492.0235245
493.3422946
494.6416483
495.9198515
497.1752462
498.4061838
499.6116211
500.7905665
501.9421488
503.0657065
504.1607642
505.2270085
506.2643309
507.2727814
508.252539
509.2040191
510.1275704
511.0238272
511.893441
512.7372767
460.6761638
460.7864003
461.0226749
461.3714712
461.8251795
462.3770077
463.0204548
463.7491835
464.5574049
465.4392477
466.388975
467.401026
468.4700176
469.5907169
470.7580288
471.9669781
473.2125798
474.489999
475.7948648
477.1226657
478.4687828
479.8293054
481.2002326
482.5774468
483.9575478
485.3369318
486.712282
488.0807068
489.4390055
490.7847661
492.1155752
493.4287831
494.7226813
495.9954649
497.2454251
498.4710631
499.6712872
500.8451057
501.9916614
503.1102977
504.2005086
505.2620641
506.2948169
507.2988175
508.2742483
509.2215191
510.1409949
511.0332756
511.8990268
512.7391121
460.8555409
460.9656849
461.2017003
461.5500486
462.0033358
462.5544312
463.1971418
463.9248945
464.7319387
465.6124084
466.5605563
467.5708111
468.6377754
469.7562033
470.9209878
472.1271452
473.3695216
474.6436129
475.944886
477.268706
478.6106919
479.966891
481.3331271
482.7055904
484.0807676
485.4549685
486.8251321
488.1882295
489.5411074
490.8814621
492.2067822
493.5145273
494.8030127
496.0704207
497.3149915
498.5353745
499.73043
500.8991658
502.0407385
503.1544918
504.2399028
505.2968104
506.3250337
507.3246234
508.2957654
509.2388641
510.1542961
511.0426401
511.904563
512.7409312
461.0347202
461.1447653
461.3803698
461.7283913
462.1811991
462.7315633
463.3733615
464.1002407
464.9060625
465.785111
466.7316293
467.7400364
468.804921
469.921025
471.083231
472.2864066
473.5256571
474.7963822
476.0940289
477.4138132
478.7516706
480.103533
481.4650728
482.8327856
484.2029967
485.5720789
486.9370758
488.2948042
489.6423589
490.9773418
492.2971759
493.5995329
494.8826471
496.1447221
497.3839477
498.5991197
499.7890503
500.952747
502.0893799
503.198253
504.2789456
505.3312462
506.3549801
507.350198
508.3170893
509.2560531
510.167469
511.0519202
511.9100492
512.7427339
461.2136231
461.3234434
461.5588155
461.9064912
462.358641
462.9083966
463.549248
464.2750891
465.0797696
465.9573496
466.9021888
467.9086973
468.9714509
470.0851802
471.2446643
472.4448826
473.6809883
474.9483085
476.2422024
477.5580213
478.8917273
480.2391493
481.5960814
482.9590437
484.3242317
485.6882735
487.0481229
488.4005079
489.7427684
491.0724123
492.3867974
493.6838049
494.9615882
496.2183058
497.4522954
498.6622994
499.8471484
501.005849
502.1375846
503.24162
504.3176358
505.3653702
506.3846546
507.3755399
508.3382187
509.2730851
510.1805214
511.0611153
511.9154851
512.74452
461.3921858
461.5018964
461.7370295
462.0843403
462.5358073
463.0849239
463.7247939
464.4495081
465.2529457
466.1291183
467.0722296
468.0767895
469.1373608
470.2485693
471.4053178
472.6025991
473.8355179
475.0993956
476.3894501
477.7013373
479.030871
480.3737946
481.726163
483.084375
484.4445478
485.8035621
487.1582747
488.505349
489.8423435
491.1666649
492.4756522
493.7673475
495.0398393
496.2912356
497.5200359
498.724914
499.9047234
501.0584698
502.1853157
503.2845922
504.355972
505.3991807
506.4140554
507.4006473
508.3591523
509.2899589
510.1934523
511.0702246
511.9208702
512.7462894
461.5705273
461.6801225
461.9150038
462.2618133
462.7126895
463.2610163
463.8999928
464.6235405
465.4256189
466.3002535
467.2416513
468.2442119
469.3024965
470.4112257
471.5652586
472.7595584
473.9892498
475.2495552
476.5358358
477.8437678
479.1690936
480.5075247
481.8553242
483.2087309
484.5639554
485.9179546
487.2674495
488.6093355
489.9410911
491.2600494
492.5637449
493.8501643
495.1174028
496.3635181
497.5871695
498.7869629
499.9617743
501.1106083
502.2325947
503.3271669
504.3939517
505.4326753
506.4431804
507.4255183
508.379888
509.3066727
510.2062604
511.0792473
511.926204
512.748042
461.74864
461.8581139
462.0927306
462.438951
462.8892799
463.4367172
464.0748377
464.7971798
465.5978561
466.4708849
467.4104646
468.4109847
469.4669975
470.5732135
471.7244865
472.9157625
474.1421879
475.3988403
476.6813667
477.9853221
479.306314
480.6403451
481.9835715
483.3321136
484.6824638
486.0314596
487.3757548
488.7124744
490.0390172
491.3526427
492.6510789
493.9322571
495.1942375
496.4351549
497.6536967
498.8484456
500.0182998
501.1622509
502.2794316
503.3693407
504.4315716
505.4658508
506.4720265
507.4501501
508.4004235
509.3232246
510.218944
511.0881822
511.9314858
512.7497774
461.9265162
462.0358628
462.2700762
462.6158146
463.0655717
463.6120908
464.2492221
464.9704195
465.7696517
466.6410304
467.5787471
468.5771807
469.6308751
470.7345327
471.8830024
473.0712139
474.2941933
475.5473036
476.8260485
478.1260052
479.4426462
480.7722653
482.1109144
483.4545955
484.8000795
486.1440842
487.4831974
488.8147718
490.1361269
491.4444487
492.737657
494.0136275
495.2703562
496.5061461
497.7196166
498.9093605
500.0742976
501.2133688
502.3258226
503.4111097
504.4688276
505.498703
506.5005898
507.4745389
508.4207555
509.3396119
510.2315012
511.0970277
511.9367148
512.7514954
462.1041481
462.2132952
462.4470989
462.7923961
463.2414575
463.7871305
464.4231638
465.1432536
465.9410009
466.8106863
467.7464953
468.7427973
469.7941281
470.8951826
472.0408059
473.2258394
474.4454062
475.6949486
476.969882
478.2657033
479.5781022
480.9032958
482.237276
483.5761833
484.9168066
486.2557359
487.5897857
488.916234
490.2323446
491.535471
492.8234818
494.0942775
495.3457905
496.5764898
497.7849269
498.9697045
500.129764
501.2639959
502.3717632
503.4524689
504.5057145
505.5312269
506.5288653
507.4986804
508.4408801
509.3558311
510.2439291
511.1057819
511.9418896
512.7531957
462.2813902
462.3903502
462.623851
462.9686879
463.4169386
463.9618298
464.5967318
465.3155034
466.1118986
466.9798484
467.9137063
468.9078322
469.9567551
471.0551629
472.1978477
473.3796391
474.5958381
475.8417799
477.1128742
478.4045185
479.7126873
481.0334443
482.3627124
483.6968846
485.0326531
486.3665147
487.6955233
489.0168652
490.3277413
491.625712
492.9085545
494.1741838
495.420539
496.6461833
497.8496238
499.0294731
500.1846587
501.3141262
502.4172469
503.4934114
504.5422254
505.5634157
506.5568465
507.5225684
508.4607917
509.3718777
510.2562241
511.1144422
511.9470089
512.7548776
462.4583248
462.5671397
462.8003249
463.1446831
463.5921005
464.1361819
464.7699198
465.4873299
466.2822022
467.1485131
468.080377
469.0722835
470.1187551
471.2144101
472.3540678
473.5326941
474.7454927
475.9878049
477.2549339
478.5424795
479.8464057
481.1627048
482.4872689
483.8167064
485.1476258
486.4764314
487.8004141
489.1166683
490.422333
491.7151731
492.9928755
494.2533154
495.4945994
496.7152229
497.9137025
499.0886607
500.2389903
501.3637524
502.4622659
503.5339293
504.578352
505.595261
506.5845254
507.5461954
508.4804838
509.3877459
510.2683815
511.1230052
511.9520704
512.7565405
462.634992
462.7436559
462.9765126
463.3201885
463.766937
464.3100202
464.9427219
465.6587343
466.4520042
467.3165026
468.2464058
469.2360626
470.2799987
471.3728979
472.5095828
473.6850079
474.894374
476.1330286
477.3961321
478.6795929
479.9792627
481.2909866
482.6109516
483.9356548
485.2616207
486.5854899
487.9044597
489.2155845
490.5161223
491.8038552
493.0764438
494.331724
495.5679678
496.7836032
497.9771564
499.147259
500.2927701
501.4128646
502.5068095
503.5740111
504.6140826
505.6267512
506.6118907
507.5695508
508.4999465
509.4034274
510.2803948
511.1314661
511.9570713
512.7581835
462.8113841
462.9198912
463.1524044
463.4953782
463.9414414
464.4834851
465.1151325
465.8297119
466.6213411
467.483987
468.4118184
469.3991786
470.4405858
471.5307219
472.6643957
473.836584
475.0424845
476.2773244
477.536513
478.8158679
480.1112664
481.4184065
482.7337678
484.0537368
485.3747522
486.6936957
488.0076653
489.3136484
490.6091115
491.8917594
493.1592511
494.4094085
495.6406414
496.8513197
498.0399788
499.2052107
500.3459918
501.4614547
502.5508685
503.6136469
504.649407
505.6578758
506.638932
507.5926246
508.5191707
509.418914
510.292257
511.1398197
511.9620086
512.7598055
462.9874934
463.0958377
463.3278068
463.6702519
464.1156075
464.6565851
465.2870036
466.0002591
466.7902112
467.6509666
468.5766871
469.5617108
470.6005504
471.6878857
472.818512
473.9874293
475.1897954
476.4208156
477.6760849
478.9513135
480.2423331
481.5449777
482.8557295
484.170944
485.4870329
486.8010588
488.1100399
489.4108979
490.7013051
491.9788883
493.2412413
494.4863719
495.7126207
496.9183712
498.1021673
499.2625598
500.398648
501.5095148
502.594434
503.652827
504.6843147
505.688624
506.6656383
507.6154062
508.5381466
509.4341972
510.3039615
511.1480614
511.9668794
512.7614057
463.1632975
463.2713558
463.5029037
463.8448041
464.2892911
464.8293162
465.4584401
466.1703539
466.9586153
467.8174437
468.7410159
469.7236657
470.7599005
471.8443992
472.9719438
474.1375582
475.3362604
476.5635379
477.814867
479.085952
480.3725426
481.6707254
482.9768636
484.2872345
485.5984918
486.9076087
488.2115539
489.5073639
490.7927344
492.0652753
493.3225157
494.5626472
495.7839411
496.9847944
498.1637464
499.3193484
500.4507793
501.5570867
502.6375487
503.6915939
504.718847
505.7190346
506.6920446
507.6379252
508.5568975
509.4492936
510.3155184
511.1561893
511.9716855
512.7629843
463.3386919
463.4465781
463.6777536
464.0190932
464.4626566
465.0017383
465.6295389
466.339923
467.1266156
467.9834817
468.9048694
469.885109
470.9187038
472.0003321
473.1247638
474.2869116
475.4820623
476.7055781
477.952954
479.2198232
480.5020449
481.7957713
483.0973066
484.4028513
485.7092999
487.0135371
488.3124428
489.603284
490.8836626
492.1512089
493.4033902
494.638576
495.8549687
497.0509775
498.2250869
499.3759919
500.5028043
501.6045829
502.6806085
503.7303161
504.7533338
505.7493888
506.718376
507.6603469
508.5755301
509.4642582
510.3269437
511.1642014
511.976414
512.7645354
463.556994
463.6646622
463.8953652
464.2359066
464.6783875
465.2162024
465.8423975
466.5508462
467.335362
468.1899064
469.1085798
470.0857816
471.1160518
472.1940202
473.3144212
474.4723623
475.6630593
476.8818416
478.1242399
479.3857244
480.6625034
481.9505991
483.2462176
484.5457432
485.8460794
487.1440993
488.4365721
489.7210478
490.9950128
492.2560169
493.5017694
494.7305433
495.9405644
497.1302603
498.2980553
499.4428225
500.5636021
501.6594758
502.7297406
503.7738538
504.7914644
505.7823203
506.7463451
507.6836151
508.5943868
509.4790092
510.3379111
511.1717024
511.9807492
512.7659386
)
;

boundaryField
{
    front_top
    {
        type            wedge;
    }
    front_middle
    {
        type            wedge;
    }
    front_bottom
    {
        type            wedge;
    }
    back_top
    {
        type            wedge;
    }
    back_middle
    {
        type            wedge;
    }
    back_bottom
    {
        type            wedge;
    }
    axis_top
    {
        type            symmetryPlane;
    }
    axis_middle
    {
        type            symmetryPlane;
    }
    axis_bottom
    {
        type            symmetryPlane;
    }
    wall_top
    {
        type            convectiveRadiativeHeatFlux;
        mode            convectiveRadiative;
        kappaMethod     fluidThermo;
        kappa           none;
        alphaAni        Anialpha;
        h               nonuniform 0();
        Ta              constant 513.15;
        emissivityNozzle 0.95;
        emissivityFilament 0.95;
        dNozzle         2;
        dFilament       1.65;
        refValue        nonuniform 0();
        refGradient     nonuniform 0();
        valueFraction   nonuniform 0();
        value           nonuniform 0();
    }
    wall_middle
    {
        type            fixedValue;
        value           nonuniform 0();
    }
    wall_bottom
    {
        type            fixedValue;
        value           uniform 513.15;
    }
    inlet
    {
        type            fixedValue;
        value           nonuniform 0();
    }
    outlet
    {
        type            zeroGradient;
    }
    procBoundary0to1
    {
        type            processor;
        value           nonuniform List<scalar> 
51
(
459.2340022
459.3448796
459.5825639
459.9337807
460.3907216
460.946682
461.5952201
462.3304172
463.1463364
464.0371134
464.9974774
466.021991
467.1053713
468.242408
469.4281193
470.6576953
471.9263635
473.3899592
473.3899592
474.7191867
476.0734353
477.4479537
478.8387258
480.2416324
481.6524042
483.0675495
484.4830504
485.8957079
487.3021603
488.6991908
490.0841939
491.4542085
492.8069846
494.1403572
495.4520724
496.7406881
498.0046721
499.242525
500.4532062
501.6359013
502.7899161
503.9147366
505.0100737
506.0757298
507.1117387
508.1182641
509.0957443
510.0445559
510.965398
511.8588972
512.7259255
)
;
    }
}


// ************************************************************************* //
