/*--------------------------------*- C++ -*----------------------------------*\
  =========                 |
  \\      /  F ield         | OpenFOAM: The Open Source CFD Toolbox
   \\    /   O peration     | Website:  https://openfoam.org
    \\  /    A nd           | Version:  7
     \\/     M anipulation  |
\*---------------------------------------------------------------------------*/
FoamFile
{
    version     2.0;
    format      ascii;
    class       volScalarField;
    location    "0.0012";
    object      thermo:alpha;
}
// * * * * * * * * * * * * * * * * * * * * * * * * * * * * * * * * * * * * * //

dimensions      [1 -1 -1 0 0 0 0];

internalField   nonuniform List<scalar> 
1167
(
0.0001187880419
0.0001187757069
0.0001187492715
0.0001187102264
0.0001186594809
0.0001185977595
0.0001185200251
0.0001184317433
0.0001183322606
0.0001182172594
0.0001180934573
0.000117961594
0.0001178211953
0.0001176647979
0.0001175019865
0.000117327217
0.0001171419527
0.0001187679285
0.0001187556021
0.0001187291859
0.0001186901879
0.0001186394876
0.0001185763836
0.0001184985051
0.0001184103344
0.0001183093305
0.0001181944892
0.0001180708733
0.0001179392241
0.0001177974711
0.0001176413691
0.0001174788894
0.000117302956
0.000117118145
0.0001169250674
0.0001167195328
0.0001165098634
0.0001162896901
0.0001160606214
0.0001158289911
0.0001155872829
0.0001153449045
0.0001150904714
0.0001148370619
0.0001145737041
0.0001143113958
0.0001140423908
0.0001137737313
0.0001135089538
0.0001132386727
0.000112967526
0.0001126933711
0.0001124249326
0.0001121610983
0.0001118939142
0.0001116333337
0.0001113732529
0.0001111160669
0.000110866
0.0001106230668
0.0001103782895
0.0001101404376
0.0001099010574
0.0001096689237
0.0001094439172
0.0001092258598
0.0001090093115
0.0001187478359
0.0001187355189
0.0001187091232
0.0001186701787
0.0001186195218
0.000118554825
0.0001184770225
0.0001183889676
0.0001182864514
0.0001181717764
0.0001180483536
0.0001179169256
0.0001177738316
0.0001176180331
0.0001174558934
0.0001172788122
0.0001170944708
0.0001169004124
0.0001166954426
0.0001164850059
0.0001162668874
0.0001160358715
0.0001158050833
0.0001155642345
0.0001153215873
0.0001150681273
0.000114815719
0.0001145523669
0.0001142911467
0.0001140223275
0.0001137548218
0.0001134911997
0.0001132213116
0.0001129506348
0.0001126777064
0.0001124104758
0.000112147274
0.0001118812998
0.0001116219015
0.0001113625524
0.0001111065356
0.0001108576058
0.0001106157779
0.0001103718318
0.0001101349362
0.0001098965608
0.0001096654824
0.000109441498
0.0001092244312
0.0001090088254
0.0001187277651
0.000118715458
0.000118689103
0.0001186501953
0.0001185995845
0.0001185333007
0.0001184555985
0.000118367644
0.0001182636246
0.0001181491222
0.0001180258992
0.0001178946997
0.0001177502777
0.0001175947908
0.0001174329991
0.0001172548084
0.0001170709211
0.0001168758973
0.0001166715042
0.0001164603093
0.0001162442405
0.0001160124177
0.0001157813558
0.0001155413664
0.0001152984583
0.0001150459684
0.0001147936422
0.0001145312124
0.0001142710734
0.0001140024401
0.000113736079
0.0001134736025
0.0001132041039
0.0001129338925
0.0001126621791
0.0001123961578
0.0001121335696
0.0001118687942
0.0001116105673
0.0001113519431
0.0001110970852
0.0001108492825
0.0001106083628
0.0001103654308
0.0001101294032
0.0001098921018
0.0001096620697
0.000109439099
0.0001092230146
0.0001090083433
0.0001187077168
0.0001186954323
0.0001186691106
0.0001186302386
0.0001185783949
0.0001185118117
0.0001184342163
0.0001183457224
0.0001182408511
0.0001181265277
0.0001180035113
0.0001178725474
0.0001177268105
0.0001175716433
0.0001174091579
0.0001172309212
0.0001170474958
0.0001168515217
0.0001166477288
0.0001164357722
0.0001162217479
0.0001159893467
0.0001157578062
0.0001155186824
0.0001152755147
0.0001150239917
0.000114771608
0.0001145102381
0.0001142511733
0.0001139827259
0.0001137175004
0.0001134560075
0.0001131870474
0.0001129172972
0.0001126467878
0.0001123819666
0.0001121199844
0.0001118563968
0.0001115993307
0.0001113414247
0.0001110877154
0.0001108410315
0.0001106009207
0.0001103590839
0.000110123917
0.000109887685
0.0001096586858
0.0001094367201
0.0001092216099
0.0001090078653
0.0001186877123
0.0001186754407
0.0001186491437
0.0001186103096
0.0001185568709
0.000118490359
0.0001184128747
0.0001183228654
0.0001182181394
0.0001181039939
0.0001179811908
0.0001178504695
0.0001177034309
0.0001175486058
0.000117384961
0.0001172071508
0.0001170241946
0.0001168272896
0.0001166240981
0.0001164113938
0.0001161988212
0.0001159664403
0.0001157344321
0.0001154961895
0.0001152527538
0.0001150021947
0.0001147497576
0.0001144894419
0.0001142307064
0.0001139631824
0.0001136990842
0.0001134379309
0.0001131701402
0.0001129008473
0.0001126315313
0.0001123678995
0.0001121065176
0.0001118441071
0.0001115881913
0.0001113309972
0.0001110784264
0.0001108328582
0.0001105935424
0.0001103527912
0.0001101184776
0.0001098833059
0.0001096553307
0.0001094343616
0.0001092202171
0.0001090073914
0.0001186677337
0.000118655474
0.0001186292032
0.0001185900162
0.0001185353806
0.0001184689498
0.0001183915747
0.0001183000582
0.0001181954984
0.0001180815375
0.0001179589478
0.0001178277282
0.000117680161
0.000117525672
0.0001173608737
0.0001171834974
0.0001170010172
0.0001168032151
0.0001166006115
0.0001163871736
0.0001161740059
0.0001159436962
0.0001157112309
0.0001154738692
0.0001152301732
0.0001149805867
0.0001147280886
0.0001144688213
0.0001142102143
0.0001139438074
0.000113680828
0.0001134200122
0.0001131533809
0.0001128845416
0.0001126164138
0.0001123539556
0.0001120931686
0.0001118319247
0.0001115771492
0.0001113206604
0.0001110692204
0.0001108247557
0.000110586228
0.000110346553
0.0001101130852
0.0001098789646
0.0001096520046
0.0001094320234
0.0001092188365
0.0001090069215
0.0001186477802
0.0001186355332
0.00011860929
0.0001185684992
0.000118513925
0.0001184475951
0.0001183703172
0.000118277302
0.000118172914
0.0001180591517
0.0001179367885
0.0001178042425
0.0001176569821
0.0001175028341
0.0001173368964
0.0001171599613
0.0001169773937
0.0001167792782
0.0001165772682
0.0001163631097
0.0001161493588
0.0001159211129
0.0001156882087
0.0001154517194
0.0001152077704
0.0001149591625
0.0001147065986
0.000114448374
0.0001141898967
0.0001139245991
0.0001136627302
0.0001134022497
0.0001131367684
0.000112868379
0.0001126014385
0.0001123401344
0.000112079937
0.0001118198495
0.000111566204
0.0001113104144
0.0001110601016
0.0001108167243
0.0001105789777
0.0001103403694
0.0001101077401
0.0001098746614
0.0001096487077
0.0001094297058
0.0001092174679
0.0001090064558
0.0001186278528
0.0001186156191
0.000118588929
0.0001185470149
0.0001184925049
0.0001184262796
0.0001183486702
0.0001182545975
0.0001181503871
0.0001180368295
0.0001179146992
0.0001177808388
0.0001176338923
0.0001174800924
0.0001173130293
0.0001171365424
0.0001169530346
0.0001167554778
0.0001165540664
0.0001163403138
0.0001161248786
0.0001158986892
0.000115665369
0.000115429738
0.0001151855432
0.0001149379105
0.0001146852851
0.0001144281048
0.0001141697515
0.0001139055557
0.0001136448005
0.0001133846422
0.0001131203016
0.0001128523587
0.0001125865953
0.0001123264354
0.0001120668225
0.0001118078812
0.0001115553558
0.0001113002602
0.0001110510636
0.0001108087642
0.0001105717917
0.0001103342407
0.0001101024424
0.0001098703964
0.0001096454411
0.0001094274088
0.0001092161115
0.0001090059943
0.0001186079523
0.0001185957327
0.0001185674285
0.0001185255642
0.0001184711254
0.0001184050044
0.0001183258824
0.0001182319458
0.0001181279186
0.0001180145717
0.0001178926806
0.0001177575179
0.0001176108922
0.0001174574473
0.0001172892724
0.0001171132611
0.0001169288059
0.0001167318133
0.0001165310052
0.0001163179186
0.0001161005637
0.0001158764235
0.0001156426966
0.0001154079231
0.0001151634983
0.0001149168287
0.0001146641462
0.0001144080173
0.000114149777
0.0001138866756
0.0001136270329
0.0001133671884
0.0001131039794
0.0001128364798
0.0001125718838
0.0001123128582
0.000112053825
0.0001117960198
0.0001115446046
0.000111290206
0.0001110421067
0.0001108008755
0.0001105646703
0.0001103281672
0.0001100971925
0.0001098661699
0.0001096422061
0.0001094251325
0.0001092147674
0.0001090055369
0.0001185874941
0.0001185742783
0.0001185459603
0.0001185041481
0.0001184498019
0.0001183837703
0.0001183031433
0.0001182093638
0.0001181055093
0.0001179923791
0.0001178707333
0.0001177342802
0.0001175879821
0.0001174348989
0.0001172656394
0.0001170900998
0.0001169047072
0.0001167082843
0.0001165072476
0.0001162956667
0.0001160764125
0.0001158535085
0.0001156201892
0.0001153862727
0.0001151416364
0.0001148959152
0.0001146431797
0.0001143880969
0.0001141299713
0.0001138679572
0.0001136094193
0.0001133498873
0.000113087801
0.0001128207559
0.0001125573034
0.0001122994025
0.0001120409442
0.0001117842653
0.0001115339507
0.0001112802431
0.0001110332312
0.0001107930586
0.0001105576139
0.0001103221491
0.0001100919905
0.000109861982
0.0001096390007
0.000109422877
0.0001092134356
0.0001090050837
0.0001185660068
0.0001185528075
0.0001185245254
0.0001184827674
0.0001184285168
0.0001183625783
0.0001182804539
0.0001181868429
0.0001180831739
0.0001179702524
0.000117848858
0.0001177111263
0.0001175651626
0.0001174115473
0.0001172421258
0.0001170670545
0.0001168807381
0.0001166848903
0.0001164831299
0.0001162735568
0.0001160524234
0.0001158303372
0.0001155978451
0.000115364785
0.0001151199439
0.000114875168
0.0001146223855
0.0001143683419
0.0001141103329
0.0001138494023
0.0001135919585
0.0001133327378
0.0001130717658
0.0001128051733
0.0001125428539
0.0001122860684
0.0001120281805
0.0001117726182
0.0001115230819
0.0001112703714
0.0001110244374
0.0001107853139
0.0001105506228
0.0001103161869
0.000110086837
0.0001098578332
0.0001096358252
0.0001094206427
0.0001092121162
0.0001090046348
0.0001185445515
0.0001185313694
0.0001185031246
0.0001184614372
0.0001184072711
0.0001183404096
0.0001182578148
0.0001181643773
0.0001180609088
0.0001179482125
0.0001178262161
0.00011768807
0.0001175424547
0.0001173877076
0.0001172187217
0.0001170441249
0.0001168568978
0.0001166616446
0.0001164591582
0.0001162515878
0.0001160287735
0.0001158073277
0.0001155756631
0.0001153429286
0.0001150984187
0.0001148545854
0.0001146017787
0.0001143487507
0.0001140908603
0.0001138310207
0.0001135746495
0.0001133157393
0.0001130558732
0.0001127897305
0.0001125285351
0.0001122728559
0.0001120155339
0.0001117610787
0.0001115122052
0.0001112605916
0.0001110157257
0.0001107776419
0.0001105436975
0.0001103102811
0.0001100817323
0.0001098537238
0.0001096326799
0.0001094184296
0.0001092108095
0.0001090041901
0.0001185231291
0.0001185099648
0.0001184817588
0.0001184401526
0.0001183860656
0.000118317691
0.000118235227
0.0001181419679
0.0001180387052
0.0001179262428
0.0001178029413
0.0001176651086
0.0001175198394
0.0001173639712
0.0001171954271
0.0001170213105
0.0001168331856
0.0001166385392
0.0001164353314
0.0001162297583
0.0001160063889
0.0001157844789
0.000115553642
0.000115320649
0.0001150770591
0.0001148341656
0.0001145813392
0.000114329322
0.0001140715523
0.0001138127972
0.0001135574917
0.0001132988913
0.0001130397286
0.0001127744272
0.0001125143471
0.000112259765
0.0001120030047
0.0001117496497
0.000111501431
0.0001112509044
0.0001110070971
0.0001107700434
0.0001105368389
0.0001103044323
0.000110076677
0.0001098496543
0.0001096295653
0.0001094162381
0.0001092095155
0.0001090037498
0.0001185017404
0.0001184885947
0.0001184604443
0.0001184189063
0.0001183649013
0.0001182950202
0.0001182127042
0.0001181196155
0.0001180165639
0.0001179043408
0.0001177797451
0.0001176422318
0.0001174973149
0.0001173403381
0.0001171722419
0.000116998611
0.000116809623
0.0001166155657
0.0001164116483
0.0001162080674
0.0001159841534
0.0001157617891
0.00011553178
0.0001152985358
0.0001150558638
0.0001148139074
0.0001145610655
0.0001143100545
0.0001140524079
0.0001137947308
0.0001135404844
0.0001132821934
0.0001130234418
0.0001127592632
0.0001125002897
0.0001122467962
0.0001119905935
0.0001117383377
0.0001114907599
0.0001112413108
0.0001109985523
0.0001107625192
0.0001105300477
0.0001102986413
0.000110071672
0.0001098456253
0.0001096264817
0.0001094140686
0.0001092082344
0.0001090033139
0.0001184803865
0.000118467268
0.0001184391737
0.000118397699
0.000118342939
0.0001182723982
0.0001181902441
0.0001180973208
0.0001179944854
0.000117882507
0.0001177566279
0.0001176194401
0.0001174748814
0.0001173168084
0.0001171491659
0.0001169753355
0.0001167861882
0.0001165927236
0.0001163881088
0.0001161843996
0.000115962065
0.0001157392564
0.0001155100903
0.0001152765876
0.0001150348321
0.000114792858
0.0001145409559
0.000114290947
0.0001140334418
0.000113776821
0.0001135236271
0.0001132656452
0.0001130073032
0.0001127442391
0.0001124863637
0.0001122339499
0.000111978301
0.000111727135
0.0001114801932
0.0001112318118
0.0001109900927
0.0001107550706
0.0001105233253
0.0001102929093
0.0001100667182
0.0001098416378
0.00010962343
0.0001094119214
0.0001092069666
0.0001090028825
0.0001184590846
0.0001184459919
0.000118417941
0.0001183765318
0.0001183202481
0.0001182498256
0.0001181678376
0.0001180751069
0.0001179724703
0.0001178607419
0.0001177335901
0.0001175967337
0.000117452539
0.0001172933819
0.0001171262063
0.0001169514644
0.0001167628793
0.0001165700119
0.0001163647117
0.0001161604463
0.0001159401226
0.0001157168794
0.0001154885631
0.0001152548032
0.0001150139623
0.0001147719226
0.0001145210098
0.0001142719986
0.0001140146401
0.0001137590671
0.0001135069194
0.0001132492514
0.000112991313
0.0001127293552
0.0001124725697
0.0001122212272
0.0001119661361
0.000111716043
0.0001114697322
0.000111222409
0.0001109817196
0.000110747699
0.000110516673
0.0001102872376
0.0001100618169
0.0001098376927
0.0001096204109
0.0001094097973
0.0001092057124
0.0001090024558
0.000118437825
0.000118424753
0.0001183967469
0.0001183554054
0.0001182976041
0.0001182273034
0.0001181454857
0.0001180529529
0.000117950537
0.000117839046
0.0001177106322
0.0001175741128
0.0001174302877
0.000117270068
0.0001171033718
0.0001169277141
0.0001167396957
0.0001165474296
0.0001163424396
0.0001161366451
0.0001159183256
0.0001156946591
0.0001154671906
0.000115233181
0.0001149932533
0.0001147511532
0.0001145012262
0.0001142532087
0.0001139959994
0.0001137414687
0.0001134903613
0.0001132330183
0.0001129754715
0.0001127146124
0.0001124589086
0.0001122086291
0.0001119540968
0.0001117050634
0.0001114593787
0.0001112131043
0.0001109734352
0.0001107404064
0.0001105100929
0.0001102816281
0.0001100569698
0.0001098337917
0.0001096174257
0.0001094076971
0.0001092044724
0.0001090020338
0.0001184166028
0.0001184035521
0.0001183755924
0.0001183327579
0.0001182750077
0.0001182048531
0.0001181231889
0.0001180308585
0.0001179286735
0.0001178158955
0.0001176877679
0.0001175515894
0.0001174069404
0.0001172468704
0.0001170806453
0.0001169040837
0.0001167166366
0.0001165249757
0.0001163206472
0.0001161129945
0.0001158966731
0.000115672611
0.0001154459717
0.00011521172
0.0001149727237
0.0001147305491
0.0001144816049
0.0001142339884
0.0001139775192
0.0001137240258
0.0001134739529
0.0001132169352
0.0001129597797
0.0001127000117
0.0001124453819
0.0001121961575
0.0001119421808
0.0001116941981
0.0001114491352
0.0001112039003
0.0001109652419
0.0001107331954
0.0001105035876
0.0001102760832
0.0001100521792
0.0001098299366
0.0001096144759
0.000109405622
0.0001092032473
0.000109001617
0.0001183954189
0.0001183823903
0.0001183544563
0.0001183101072
0.0001182524597
0.0001181824564
0.000118100948
0.0001180088245
0.000117906875
0.0001177928062
0.0001176649938
0.0001175291624
0.000117383405
0.000117223775
0.0001170580262
0.0001168805727
0.0001166937017
0.0001165014945
0.0001162989852
0.000116089493
0.0001158751635
0.0001156507149
0.000115424905
0.0001151904188
0.0001149523527
0.0001147101092
0.0001144621448
0.000114214634
0.0001139591991
0.000113706738
0.0001134576114
0.0001132010024
0.000112944238
0.0001126855541
0.0001124319911
0.0001121833229
0.0001119303892
0.0001116834491
0.0001114390037
0.0001111947991
0.0001109571421
0.0001107260685
0.0001104971595
0.0001102706054
0.0001100474475
0.0001098261295
0.0001096115632
0.0001094035732
0.0001092020377
0.0001090012055
0.0001183742741
0.0001183612683
0.0001183317728
0.0001182875029
0.0001182299609
0.0001181601122
0.000118078782
0.0001179868512
0.0001178851418
0.0001177697919
0.0001176422998
0.0001175068207
0.000117359966
0.0001172007813
0.0001170355138
0.00011685718
0.0001166708953
0.0001164779932
0.0001162774522
0.000116066139
0.0001158529606
0.0001156289684
0.0001154039884
0.0001151692789
0.000114932138
0.0001146898315
0.0001144428441
0.0001141954429
0.000113941038
0.0001136896046
0.0001134407685
0.0001131852192
0.0001129288463
0.0001126712398
0.0001124187364
0.0001121705981
0.0001119187238
0.000111672818
0.0001114289863
0.0001111858031
0.0001109491384
0.000110719028
0.0001104908113
0.0001102651971
0.0001100427771
0.0001098223725
0.0001096086893
0.0001094015519
0.0001092008444
0.0001090007995
0.0001183530474
0.0001183390725
0.0001183091343
0.0001182649457
0.0001182075299
0.0001181378211
0.0001180566773
0.0001179649413
0.0001178634736
0.0001177468522
0.0001176196852
0.0001174845634
0.0001173366222
0.0001171778877
0.0001170131062
0.0001168339033
0.0001166482244
0.0001164546224
0.0001162560452
0.0001160429284
0.0001158305526
0.0001156073671
0.0001153832173
0.0001151483076
0.0001149120745
0.0001146697103
0.0001144237083
0.000114176409
0.0001139230297
0.0001136726193
0.0001134240745
0.0001131695787
0.000112913597
0.000112657061
0.0001124056128
0.0001121579986
0.0001119071755
0.0001116622956
0.0001114190732
0.0001111769024
0.000110941221
0.0001107120652
0.0001104845347
0.0001102598513
0.0001100381621
0.0001098186615
0.0001096058517
0.0001093995585
0.000109199667
0.0001090003989
0.0001183303652
0.0001183164161
0.0001182865333
0.0001182424279
0.0001181851454
0.0001181155752
0.0001180346215
0.0001179431044
0.0001178418624
0.0001177239783
0.0001175971413
0.0001174623814
0.0001173133638
0.000117155084
0.0001169907926
0.0001168107516
0.0001166256607
0.0001164313679
0.0001162347495
0.0001160204976
0.0001158082704
0.0001155858902
0.0001153625681
0.0001151274612
0.0001148921311
0.0001146497094
0.000114404693
0.0001141574852
0.0001139051223
0.000113655725
0.0001134074645
0.0001131540108
0.0001128984118
0.0001126429346
0.0001123925411
0.0001121454323
0.0001118956515
0.0001116517907
0.0001114091732
0.0001111680124
0.0001109333145
0.0001107051155
0.000110478276
0.0001102545288
0.0001100335764
0.0001098149829
0.0001096030465
0.0001093975935
0.0001091985086
0.0001090000054
0.0001183021421
0.0001182882253
0.0001182584127
0.0001182144238
0.0001181572983
0.0001180879125
0.0001180071899
0.0001179159491
0.0001178132953
0.000117695548
0.0001175691208
0.0001174348163
0.0001172844671
0.0001171267658
0.0001169615862
0.0001167820111
0.0001165976568
0.0001164025168
0.0001162083396
0.0001159934367
0.0001157806674
0.0001155593032
0.0001153361591
0.0001151017015
0.0001148675175
0.0001146250613
0.000114381301
0.0001141342554
0.0001138831961
0.0001136351228
0.0001133872619
0.0001131351567
0.000112880114
0.0001126260139
0.0001123769929
0.0001121306072
0.0001118821854
0.0001116396506
0.0001113978778
0.0001111580175
0.0001109245729
0.000110697576
0.0001104716284
0.0001102490055
0.0001100289356
0.0001098113569
0.0001096003537
0.0001093957539
0.0001091974466
0.0001089996494
)
;

boundaryField
{
    front_top
    {
        type            wedge;
    }
    front_middle
    {
        type            wedge;
    }
    front_bottom
    {
        type            wedge;
    }
    back_top
    {
        type            wedge;
    }
    back_middle
    {
        type            wedge;
    }
    back_bottom
    {
        type            wedge;
    }
    axis_top
    {
        type            symmetryPlane;
    }
    axis_middle
    {
        type            symmetryPlane;
    }
    axis_bottom
    {
        type            symmetryPlane;
    }
    wall_top
    {
        type            calculated;
        value           nonuniform 0();
    }
    wall_middle
    {
        type            calculated;
        value           nonuniform 0();
    }
    wall_bottom
    {
        type            calculated;
        value           uniform 0.0001089022317;
    }
    inlet
    {
        type            calculated;
        value           nonuniform 0();
    }
    outlet
    {
        type            calculated;
        value           nonuniform List<scalar> 
50
(
0.0001183021421
0.0001182882253
0.0001182584127
0.0001182144238
0.0001181572983
0.0001180879125
0.0001180071899
0.0001179159491
0.0001178132953
0.000117695548
0.0001175691208
0.0001174348163
0.0001172844671
0.0001171267658
0.0001169615862
0.0001167820111
0.0001165976568
0.0001164025168
0.0001162083396
0.0001159934367
0.0001157806674
0.0001155593032
0.0001153361591
0.0001151017015
0.0001148675175
0.0001146250613
0.000114381301
0.0001141342554
0.0001138831961
0.0001136351228
0.0001133872619
0.0001131351567
0.000112880114
0.0001126260139
0.0001123769929
0.0001121306072
0.0001118821854
0.0001116396506
0.0001113978778
0.0001111580175
0.0001109245729
0.000110697576
0.0001104716284
0.0001102490055
0.0001100289356
0.0001098113569
0.0001096003537
0.0001093957539
0.0001091974466
0.0001089996494
)
;
    }
    procBoundary0to1
    {
        type            processor;
        value           nonuniform List<scalar> 
51
(
0.0001188081754
0.0001187958323
0.0001187693791
0.0001187303065
0.0001186795009
0.0001186177296
0.0001185415813
0.0001184531933
0.0001183552069
0.0001182401001
0.0001181161248
0.0001179840516
0.000117844595
0.0001176883184
0.0001175251839
0.000117351594
0.0001171659006
0.0001169498629
0.0001169498629
0.0001167437705
0.0001165341892
0.0001163126502
0.0001160855515
0.0001158530811
0.0001156105142
0.0001153676694
0.0001151130028
0.0001148585879
0.0001145952277
0.0001143318241
0.0001140626458
0.0001137928103
0.0001135268672
0.0001132561912
0.0001129845678
0.0001127091749
0.0001124395167
0.0001121750434
0.0001119066379
0.0001116448642
0.0001113840447
0.000111125679
0.0001108744651
0.000110630417
0.0001103848055
0.0001101458625
0.0001099055914
0.0001096723936
0.0001094463564
0.0001092273001
0.0001090098017
)
;
    }
}


// ************************************************************************* //
