/*--------------------------------*- C++ -*----------------------------------*\
  =========                 |
  \\      /  F ield         | OpenFOAM: The Open Source CFD Toolbox
   \\    /   O peration     | Website:  https://openfoam.org
    \\  /    A nd           | Version:  7
     \\/     M anipulation  |
\*---------------------------------------------------------------------------*/
FoamFile
{
    version     2.0;
    format      ascii;
    class       volScalarField;
    location    "0.0018";
    object      thermo:mu;
}
// * * * * * * * * * * * * * * * * * * * * * * * * * * * * * * * * * * * * * //

dimensions      [1 -1 -1 0 0 0 0];

internalField   nonuniform List<scalar> 
1166
(
7.187379921e+10
7.187379921e+10
7.187379921e+10
7.187379921e+10
7.187379921e+10
7.187379921e+10
7.187379921e+10
7.187379921e+10
7.187379921e+10
7.187379921e+10
7.187379921e+10
7.187379921e+10
7.187379921e+10
7.187379921e+10
7.187379921e+10
7.187379921e+10
7.187379921e+10
7.187379921e+10
7.187379921e+10
7.187379921e+10
7.187379921e+10
7.187379921e+10
7.187379921e+10
7.187379921e+10
7.187379921e+10
7.187379921e+10
7.187379921e+10
7.187379921e+10
7.187379921e+10
7.187379921e+10
7.187379921e+10
7.187379921e+10
7.187379921e+10
7.187379921e+10
7.187379921e+10
7.187379921e+10
7.187379921e+10
7.187379921e+10
7.187379921e+10
7.187379921e+10
7.187379921e+10
7.187379921e+10
7.187379921e+10
7.187379921e+10
7.187379921e+10
7.187379921e+10
7.187379921e+10
7.187379921e+10
7.187379921e+10
7.187379921e+10
7.187379921e+10
7.187379921e+10
7.187379921e+10
7.187379921e+10
7.187379921e+10
7.187379921e+10
7.187379921e+10
7.187379921e+10
7.187379921e+10
7.187379921e+10
7.187379921e+10
7.187379921e+10
7.187379921e+10
7.187379921e+10
7.187379921e+10
7.187379921e+10
7.187379921e+10
7.187379921e+10
7.187379921e+10
7.187379921e+10
7.187379921e+10
7.187379921e+10
7.187379921e+10
7.187379921e+10
7.187379921e+10
7.187379921e+10
7.187379921e+10
7.187379921e+10
7.187379921e+10
7.187379921e+10
7.187379921e+10
7.187379921e+10
7.187379921e+10
7.187379921e+10
7.187379921e+10
7.187379921e+10
7.187379921e+10
7.187379921e+10
7.187379921e+10
7.187379921e+10
7.187379921e+10
7.187379921e+10
7.187379921e+10
7.187379921e+10
7.187379921e+10
7.187379921e+10
7.187379921e+10
7.187379921e+10
7.187379921e+10
7.187379921e+10
7.187379921e+10
7.187379921e+10
7.187379921e+10
7.187379921e+10
7.187379921e+10
7.187379921e+10
7.187379921e+10
7.187379921e+10
7.187379921e+10
7.187379921e+10
7.187379921e+10
7.187379921e+10
7.187379921e+10
7.187379921e+10
7.187379921e+10
7.187379921e+10
7.187379921e+10
7.187379921e+10
7.187379921e+10
7.187379921e+10
7.187379921e+10
7.187379921e+10
7.187379921e+10
7.187379921e+10
7.187379921e+10
7.187379921e+10
7.187379921e+10
7.187379921e+10
7.187379921e+10
7.187379921e+10
7.187379921e+10
7.187379921e+10
7.187379921e+10
7.187379921e+10
7.187379921e+10
7.187379921e+10
7.187379921e+10
7.187379921e+10
7.187379921e+10
7.187379921e+10
7.187379921e+10
7.187379921e+10
7.187379921e+10
7.187379921e+10
7.187379921e+10
7.187379921e+10
7.187379921e+10
7.187379921e+10
7.187379921e+10
7.187379921e+10
7.187379921e+10
7.187379921e+10
7.187379921e+10
7.187379921e+10
7.187379921e+10
7.187379921e+10
7.187379921e+10
7.187379921e+10
7.187379921e+10
7.187379921e+10
7.187379921e+10
7.187379921e+10
7.187379921e+10
7.187379921e+10
7.187379921e+10
7.187379921e+10
7.187379921e+10
7.187379921e+10
7.187379921e+10
7.187379921e+10
7.187379921e+10
7.187379921e+10
7.187379921e+10
7.187379921e+10
7.187379921e+10
7.187379921e+10
7.187379921e+10
7.187379921e+10
7.187379921e+10
7.187379921e+10
7.187379921e+10
7.187379921e+10
7.187379921e+10
7.187379921e+10
7.187379921e+10
7.187379921e+10
7.187379921e+10
7.187379921e+10
7.187379921e+10
7.187379921e+10
7.187379921e+10
7.187379921e+10
7.187379921e+10
7.187379921e+10
7.187379921e+10
7.187379921e+10
7.187379921e+10
7.187379921e+10
7.187379921e+10
7.187379921e+10
7.187379921e+10
7.187379921e+10
7.187379921e+10
7.187379921e+10
7.187379921e+10
7.187379921e+10
7.187379921e+10
7.187379921e+10
7.187379921e+10
7.187379921e+10
7.187379921e+10
7.187379921e+10
7.187379921e+10
7.187379921e+10
7.187379921e+10
7.187379921e+10
7.187379921e+10
7.187379921e+10
7.187379921e+10
7.187379921e+10
7.187379921e+10
7.187379921e+10
7.187379921e+10
7.187379921e+10
7.187379921e+10
7.187379921e+10
7.187379921e+10
7.187379921e+10
7.187379921e+10
7.187379921e+10
7.187379921e+10
7.187379921e+10
7.187379921e+10
7.187379921e+10
7.187379921e+10
7.187379921e+10
7.187379921e+10
7.187379921e+10
7.187379921e+10
7.187379921e+10
7.187379921e+10
7.187379921e+10
7.187379921e+10
7.187379921e+10
7.187379921e+10
7.187379921e+10
7.187379921e+10
7.187379921e+10
7.187379921e+10
7.187379921e+10
7.187379921e+10
7.187379921e+10
7.187379921e+10
7.187379921e+10
7.187379921e+10
7.187379921e+10
7.187379921e+10
7.187379921e+10
7.187379921e+10
7.187379921e+10
7.187379921e+10
7.187379921e+10
7.187379921e+10
7.187379921e+10
7.187379921e+10
7.187379921e+10
7.187379921e+10
7.187379921e+10
7.187379921e+10
7.187379921e+10
7.187379921e+10
7.187379921e+10
7.187379921e+10
7.187379921e+10
7.187379921e+10
7.187379921e+10
7.187379921e+10
7.187379921e+10
7.187379921e+10
7.187379921e+10
7.187379921e+10
7.187379921e+10
7.187379921e+10
7.187379921e+10
7.187379921e+10
7.187379921e+10
7.187379921e+10
7.187379921e+10
7.187379921e+10
7.187379921e+10
7.187379921e+10
7.187379921e+10
7.187379921e+10
7.187379921e+10
7.187379921e+10
7.187379921e+10
7.187379921e+10
7.187379922e+10
7.187379928e+10
7.187380013e+10
7.187379921e+10
7.187379921e+10
7.187379921e+10
7.187379921e+10
7.187379921e+10
7.187379921e+10
7.187379921e+10
7.187379921e+10
7.187379921e+10
7.187379921e+10
7.187379921e+10
7.187379921e+10
7.187379921e+10
7.187379921e+10
7.187379921e+10
7.187379921e+10
7.187379921e+10
7.187379921e+10
7.187379921e+10
7.187379921e+10
7.187379921e+10
7.187379921e+10
7.187379921e+10
7.187379921e+10
7.187379921e+10
7.187379921e+10
7.187379921e+10
7.187379921e+10
7.187379921e+10
7.187379921e+10
7.187379921e+10
7.187379921e+10
7.187379921e+10
7.187379921e+10
7.187379921e+10
7.187379921e+10
7.187379921e+10
7.187379921e+10
7.187379921e+10
7.187379921e+10
7.187379921e+10
7.187379921e+10
7.187379921e+10
7.187379921e+10
7.187379921e+10
7.187379923e+10
7.187379947e+10
7.187380225e+10
7.187383303e+10
7.187414708e+10
7.187379921e+10
7.187379921e+10
7.187379921e+10
7.187379921e+10
7.187379921e+10
7.187379921e+10
7.187379921e+10
7.187379921e+10
7.187379921e+10
7.187379921e+10
7.187379921e+10
7.187379921e+10
7.187379921e+10
7.187379921e+10
7.187379921e+10
7.187379921e+10
7.187379921e+10
7.187379921e+10
7.187379921e+10
7.187379921e+10
7.187379921e+10
7.187379921e+10
7.187379921e+10
7.187379921e+10
7.187379921e+10
7.187379921e+10
7.187379921e+10
7.187379921e+10
7.187379921e+10
7.187379921e+10
7.187379921e+10
7.187379921e+10
7.187379921e+10
7.187379921e+10
7.187379921e+10
7.187379921e+10
7.187379921e+10
7.187379921e+10
7.187379921e+10
7.187379921e+10
7.187379921e+10
7.187379921e+10
7.187379921e+10
7.187379926e+10
7.187379975e+10
7.187380493e+10
7.187385706e+10
7.18743391e+10
7.187829706e+10
7.190654618e+10
7.187379921e+10
7.187379921e+10
7.187379921e+10
7.187379921e+10
7.187379921e+10
7.187379921e+10
7.187379921e+10
7.187379921e+10
7.187379921e+10
7.187379921e+10
7.187379921e+10
7.187379921e+10
7.187379921e+10
7.187379921e+10
7.187379921e+10
7.187379921e+10
7.187379921e+10
7.187379921e+10
7.187379921e+10
7.187379921e+10
7.187379921e+10
7.187379921e+10
7.187379921e+10
7.187379921e+10
7.187379921e+10
7.187379921e+10
7.187379921e+10
7.187379921e+10
7.187379921e+10
7.187379921e+10
7.187379921e+10
7.187379921e+10
7.187379921e+10
7.187379921e+10
7.187379921e+10
7.187379921e+10
7.187379921e+10
7.187379921e+10
7.187379921e+10
7.187379921e+10
7.187379922e+10
7.187379929e+10
7.187379998e+10
7.187380689e+10
7.18738715e+10
7.187442788e+10
7.187869306e+10
7.190733117e+10
7.207223515e+10
7.284682037e+10
7.187379921e+10
7.187379921e+10
7.187379921e+10
7.187379921e+10
7.187379921e+10
7.187379921e+10
7.187379921e+10
7.187379921e+10
7.187379921e+10
7.187379921e+10
7.187379921e+10
7.187379921e+10
7.187379921e+10
7.187379921e+10
7.187379921e+10
7.187379921e+10
7.187379921e+10
7.187379921e+10
7.187379921e+10
7.187379921e+10
7.187379921e+10
7.187379921e+10
7.187379921e+10
7.187379921e+10
7.187379921e+10
7.187379921e+10
7.187379921e+10
7.187379921e+10
7.187379921e+10
7.187379921e+10
7.187379921e+10
7.187379921e+10
7.187379921e+10
7.187379921e+10
7.187379921e+10
7.187379921e+10
7.187379921e+10
7.187379921e+10
7.187379922e+10
7.18737993e+10
7.187380013e+10
7.187380789e+10
7.187387678e+10
7.187444248e+10
7.187859774e+10
7.190549685e+10
7.205597877e+10
7.275169864e+10
7.504222488e+10
7.63420823e+10
7.187379921e+10
7.187379921e+10
7.187379921e+10
7.187379921e+10
7.187379921e+10
7.187379921e+10
7.187379921e+10
7.187379921e+10
7.187379921e+10
7.187379921e+10
7.187379921e+10
7.187379921e+10
7.187379921e+10
7.187379921e+10
7.187379921e+10
7.187379921e+10
7.187379921e+10
7.187379921e+10
7.187379921e+10
7.187379921e+10
7.187379921e+10
7.187379921e+10
7.187379921e+10
7.187379921e+10
7.187379921e+10
7.187379921e+10
7.187379921e+10
7.187379921e+10
7.187379921e+10
7.187379921e+10
7.187379921e+10
7.187379921e+10
7.187379921e+10
7.187379921e+10
7.187379921e+10
7.187379921e+10
7.187379922e+10
7.187379932e+10
7.187380024e+10
7.187380856e+10
7.187388032e+10
7.187445422e+10
7.187858005e+10
7.190485789e+10
7.205025127e+10
7.271978388e+10
7.494408572e+10
7.648123022e+10
6.167187782e+10
4.016781436e+10
7.187379921e+10
7.187379921e+10
7.187379921e+10
7.187379921e+10
7.187379921e+10
7.187379921e+10
7.187379921e+10
7.187379921e+10
7.187379921e+10
7.187379921e+10
7.187379921e+10
7.187379921e+10
7.187379921e+10
7.187379921e+10
7.187379921e+10
7.187379921e+10
7.187379921e+10
7.187379921e+10
7.187379921e+10
7.187379921e+10
7.187379921e+10
7.187379921e+10
7.187379921e+10
7.187379921e+10
7.187379921e+10
7.187379921e+10
7.187379921e+10
7.187379921e+10
7.187379921e+10
7.187379921e+10
7.187379921e+10
7.187379921e+10
7.187379921e+10
7.187379921e+10
7.187379922e+10
7.187379933e+10
7.187380032e+10
7.187380912e+10
7.187388345e+10
7.187446912e+10
7.187863318e+10
7.19049741e+10
7.205024146e+10
7.271909507e+10
7.494565629e+10
7.646920934e+10
6.150066847e+10
3.993269839e+10
2.614939793e+10
1.766126145e+10
7.187379921e+10
7.187379921e+10
7.187379921e+10
7.187379921e+10
7.187379921e+10
7.187379921e+10
7.187379921e+10
7.187379921e+10
7.187379921e+10
7.187379921e+10
7.187379921e+10
7.187379921e+10
7.187379921e+10
7.187379921e+10
7.187379921e+10
7.187379921e+10
7.187379921e+10
7.187379921e+10
7.187379921e+10
7.187379921e+10
7.187379921e+10
7.187379921e+10
7.187379921e+10
7.187379921e+10
7.187379921e+10
7.187379921e+10
7.187379921e+10
7.187379921e+10
7.187379921e+10
7.187379921e+10
7.187379921e+10
7.187379921e+10
7.187379922e+10
7.187379934e+10
7.187380037e+10
7.187380931e+10
7.187388362e+10
7.187446149e+10
7.187853412e+10
7.190416433e+10
7.204528309e+10
7.269679198e+10
7.488626039e+10
7.653435482e+10
6.186239837e+10
4.01553429e+10
2.624004662e+10
1.768540551e+10
1.212374471e+10
8406632393
7.187379921e+10
7.187379921e+10
7.187379921e+10
7.187379921e+10
7.187379921e+10
7.187379921e+10
7.187379921e+10
7.187379921e+10
7.187379921e+10
7.187379921e+10
7.187379921e+10
7.187379921e+10
7.187379921e+10
7.187379921e+10
7.187379921e+10
7.187379921e+10
7.187379921e+10
7.187379921e+10
7.187379921e+10
7.187379921e+10
7.187379921e+10
7.187379921e+10
7.187379921e+10
7.187379921e+10
7.187379921e+10
7.187379921e+10
7.187379921e+10
7.187379921e+10
7.187379921e+10
7.187379921e+10
7.187379923e+10
7.187379934e+10
7.187380036e+10
7.187380896e+10
7.187387896e+10
7.18744147e+10
7.187815217e+10
7.190151692e+10
7.202991669e+10
7.262662775e+10
7.468225934e+10
7.673087533e+10
6.348644577e+10
4.147675292e+10
2.70465528e+10
1.820432357e+10
1.246987175e+10
8640787258
6051518912
4286618891
7.187379921e+10
7.187379921e+10
7.187379921e+10
7.187379921e+10
7.187379921e+10
7.187379921e+10
7.187379921e+10
7.187379921e+10
7.187379921e+10
7.187379921e+10
7.187379921e+10
7.187379921e+10
7.187379921e+10
7.187379921e+10
7.187379921e+10
7.187379921e+10
7.187379921e+10
7.187379921e+10
7.187379921e+10
7.187379921e+10
7.187379921e+10
7.187379921e+10
7.187379921e+10
7.187379921e+10
7.187379921e+10
7.187379921e+10
7.187379921e+10
7.187379921e+10
7.187379923e+10
7.187379934e+10
7.18738003e+10
7.187380815e+10
7.187387048e+10
7.187433795e+10
7.187755931e+10
7.189752792e+10
7.200702635e+10
7.252024879e+10
7.435696764e+10
7.688160067e+10
6.61453701e+10
4.387353722e+10
2.853217831e+10
1.917018123e+10
1.312327587e+10
9089758204
6361484263
4501410951
3223609782
2337261980
7.187379921e+10
7.187379921e+10
7.187379921e+10
7.187379921e+10
7.187379921e+10
7.187379921e+10
7.187379921e+10
7.187379921e+10
7.187379921e+10
7.187379921e+10
7.187379921e+10
7.187379921e+10
7.187379921e+10
7.187379921e+10
7.187379921e+10
7.187379921e+10
7.187379921e+10
7.187379921e+10
7.187379921e+10
7.187379921e+10
7.187379921e+10
7.187379921e+10
7.187379921e+10
7.187379921e+10
7.187379921e+10
7.187379921e+10
7.187379923e+10
7.187379934e+10
7.187380021e+10
7.187380715e+10
7.187386048e+10
7.187425072e+10
7.187689917e+10
7.18931387e+10
7.198189461e+10
7.240115923e+10
7.396615378e+10
7.68049483e+10
6.931566808e+10
4.724209084e+10
3.064194087e+10
2.053406125e+10
1.404450005e+10
9722807519
6799481996
4805250855
3435174536
2485858354
1820487587
1348499211
7.187379921e+10
7.187379921e+10
7.187379921e+10
7.187379921e+10
7.187379921e+10
7.187379921e+10
7.187379921e+10
7.187379921e+10
7.187379921e+10
7.187379921e+10
7.187379921e+10
7.187379921e+10
7.187379921e+10
7.187379921e+10
7.187379921e+10
7.187379921e+10
7.187379921e+10
7.187379921e+10
7.187379921e+10
7.187379921e+10
7.187379921e+10
7.187379921e+10
7.187379921e+10
7.187379921e+10
7.187379923e+10
7.187379933e+10
7.187380013e+10
7.187380618e+10
7.187385099e+10
7.187416889e+10
7.187627905e+10
7.188906404e+10
7.195848497e+10
7.228825665e+10
7.356465632e+10
7.64425499e+10
7.240705901e+10
5.149838102e+10
3.338296549e+10
2.229442442e+10
1.523128815e+10
1.053916381e+10
7365170713
5198927520
3710255649
2679089494
1957378619
1446431909
1080477678
815537533.8
7.187379921e+10
7.187379921e+10
7.187379921e+10
7.187379921e+10
7.187379921e+10
7.187379921e+10
7.187379921e+10
7.187379921e+10
7.187379921e+10
7.187379921e+10
7.187379921e+10
7.187379921e+10
7.187379921e+10
7.187379921e+10
7.187379921e+10
7.187379921e+10
7.187379921e+10
7.187379921e+10
7.187379921e+10
7.187379921e+10
7.187379921e+10
7.187379921e+10
7.187379923e+10
7.187379933e+10
7.187380008e+10
7.187380542e+10
7.187384319e+10
7.187410121e+10
7.187576416e+10
7.188566903e+10
7.193887565e+10
7.219184173e+10
7.31988253e+10
7.5860377e+10
7.487924986e+10
5.650903613e+10
3.679714036e+10
2.447308789e+10
1.669730674e+10
1.154960867e+10
8067338432
5688821115
4053359296
2920741627
2128950424
1569257805
1169147319
880060465.1
669074723.5
513586324.3
7.187379921e+10
7.187379921e+10
7.187379921e+10
7.187379921e+10
7.187379921e+10
7.187379921e+10
7.187379921e+10
7.187379921e+10
7.187379921e+10
7.187379921e+10
7.187379921e+10
7.187379921e+10
7.187379921e+10
7.187379921e+10
7.187379921e+10
7.187379921e+10
7.187379921e+10
7.187379921e+10
7.187379921e+10
7.187379921e+10
7.187379923e+10
7.187379934e+10
7.187380007e+10
7.187380495e+10
7.187383766e+10
7.187405079e+10
7.187537379e+10
7.18830364e+10
7.192366149e+10
7.211557057e+10
7.28931172e+10
7.51889308e+10
7.636405217e+10
6.191623065e+10
4.093010303e+10
2.710215112e+10
1.845914823e+10
1.276783761e+10
8918106533
6284594427
4471733331
3215998723
2338914403
1719840090
1278051056
959441656.4
727372936.5
556706412.1
430039283
335197128.3
7.187379921e+10
7.187379921e+10
7.187379921e+10
7.187379921e+10
7.187379921e+10
7.187379921e+10
7.187379921e+10
7.187379921e+10
7.187379921e+10
7.187379921e+10
7.187379921e+10
7.187379921e+10
7.187379921e+10
7.187379921e+10
7.187379921e+10
7.187379921e+10
7.187379921e+10
7.187379921e+10
7.187379924e+10
7.187379936e+10
7.187380012e+10
7.187380487e+10
7.187383464e+10
7.187401781e+10
7.187510208e+10
7.188115319e+10
7.191239908e+10
7.205857323e+10
7.265459498e+10
7.454572685e+10
7.687843743e+10
6.710908421e+10
4.57606157e+10
3.021182522e+10
2.053495191e+10
1.420593475e+10
9928090177
6996945151
4974856699
3572213216
2592585458
1902028306
1409978091
1055703619
798128535.1
609090981
469088220.5
364498472.2
285707295.2
225861604.7
7.187379921e+10
7.187379921e+10
7.187379921e+10
7.187379921e+10
7.187379921e+10
7.187379921e+10
7.187379921e+10
7.187379921e+10
7.187379921e+10
7.187379921e+10
7.187379921e+10
7.187379921e+10
7.187379921e+10
7.187379921e+10
7.187379921e+10
7.187379922e+10
7.187379925e+10
7.187379941e+10
7.187380029e+10
7.187380533e+10
7.187383451e+10
7.187400203e+10
7.18749368e+10
7.187990863e+10
7.190465433e+10
7.201766136e+10
7.247668911e+10
7.399830604e+10
7.671447374e+10
7.140682943e+10
5.11497086e+10
3.381569624e+10
2.293631286e+10
1.587487194e+10
1.110755198e+10
7834278021
5570273229
3996424809
2896016105
2120383659
1568299607
1171356271
883211285.4
672123223.5
516099722.5
399793793.2
312371862.8
246133551.4
195541246.1
156585974.9
7.187379921e+10
7.187379921e+10
7.187379921e+10
7.187379921e+10
7.187379921e+10
7.187379921e+10
7.187379921e+10
7.187379921e+10
7.187379921e+10
7.187379921e+10
7.187379921e+10
7.187379921e+10
7.187379921e+10
7.187379922e+10
7.187379927e+10
7.187379951e+10
7.187380067e+10
7.187380666e+10
7.187383827e+10
7.187400521e+10
7.187487174e+10
7.187920838e+10
7.189976056e+10
7.19902839e+10
7.235092099e+10
7.356732175e+10
7.621362343e+10
7.439537393e+10
5.678096194e+10
3.788331518e+10
2.565160288e+10
1.776987329e+10
1.245863533e+10
8802319178
6263854650
4493557212
3253284237
2378571065
1756142130
1308965337
984687016.4
747438954.2
572358327.9
442073467.6
344340376.4
270451872.1
214154836
170922728.7
137463648.4
111370311.8
7.187379921e+10
7.187379921e+10
7.187379921e+10
7.187379921e+10
7.187379921e+10
7.187379921e+10
7.187379921e+10
7.187379921e+10
7.187379921e+10
7.187379921e+10
7.187379922e+10
7.187379924e+10
7.187379934e+10
7.187379975e+10
7.187380154e+10
7.187380974e+10
7.187384857e+10
7.187403451e+10
7.187491918e+10
7.187902611e+10
7.189730668e+10
7.197392973e+10
7.226902316e+10
7.32590312e+10
7.564729742e+10
7.605119484e+10
6.212174802e+10
4.230786079e+10
2.864495848e+10
1.986938386e+10
1.397031813e+10
9898792212
7059182584
5069456973
3670182961
2681270284
1977125182
1471305130
1104709517
836704181.7
639151232.8
492343771.2
382395097.3
299423743.4
236341498
188016550.6
150713144.9
121700677.5
98971553.99
81040166.36
2234654164
1661404122
1245750528
941903797.5
718042352.5
551828609
427488897.1
333791377.4
262678577.9
208316058.9
166451118.4
133973230.8
108595557.6
88628246.08
72812237.82
60201809.69
)
;

boundaryField
{
    front_top
    {
        type            wedge;
    }
    front_middle
    {
        type            wedge;
    }
    front_bottom
    {
        type            wedge;
    }
    back_top
    {
        type            wedge;
    }
    back_middle
    {
        type            wedge;
    }
    back_bottom
    {
        type            wedge;
    }
    axis_top
    {
        type            symmetryPlane;
    }
    axis_middle
    {
        type            symmetryPlane;
    }
    axis_bottom
    {
        type            symmetryPlane;
    }
    wall_top
    {
        type            calculated;
        value           nonuniform List<scalar> 
24
(
7.187379921e+10
7.187379921e+10
7.187379921e+10
7.187379921e+10
7.187379921e+10
7.187380249e+10
7.18748738e+10
7.195729621e+10
7.382728664e+10
7.110520539e+10
3.234075398e+10
1.459244041e+10
7018759336
3620229237
1997378332
1164394301
710694204
451278301.4
296744965.4
201329716.1
140461665.7
100464900.8
73483879.26
54845013.62
)
;
    }
    wall_middle
    {
        type            calculated;
        value           nonuniform 0();
    }
    wall_bottom
    {
        type            calculated;
        value           nonuniform 0();
    }
    inlet
    {
        type            calculated;
        value           uniform 7.187379921e+10;
    }
    outlet
    {
        type            calculated;
        value           nonuniform 0();
    }
    procBoundary11to10
    {
        type            processor;
        value           nonuniform List<scalar> 
51
(
7.187379921e+10
7.187379921e+10
7.187379921e+10
7.187379921e+10
7.187379921e+10
7.187379921e+10
7.187379922e+10
7.187379922e+10
7.187379925e+10
7.187379932e+10
7.187379956e+10
7.187380042e+10
7.187380373e+10
7.187381705e+10
7.187387269e+10
7.187411032e+10
7.187513005e+10
7.187945219e+10
7.18972458e+10
7.196716033e+10
7.222340516e+10
7.306060061e+10
7.51686783e+10
7.673332427e+10
6.660261236e+10
4.685686361e+10
3.183737726e+10
2.213420997e+10
1.562323171e+10
1.111492775e+10
7952971162
5724465478
4149274183
3031889432
3031889432
1409530694
1064639707
810434550.5
621713521.6
480601590.7
374354179.2
293809052.3
232331837.3
185080048.2
148503753.5
119991667.1
97613295.24
79932821.76
65873693.89
54623580.94
45567050.85
)
;
    }
}


// ************************************************************************* //
