/*--------------------------------*- C++ -*----------------------------------*\
  =========                 |
  \\      /  F ield         | OpenFOAM: The Open Source CFD Toolbox
   \\    /   O peration     | Website:  https://openfoam.org
    \\  /    A nd           | Version:  7
     \\/     M anipulation  |
\*---------------------------------------------------------------------------*/
FoamFile
{
    version     2.0;
    format      ascii;
    class       volScalarField;
    location    "0.0018";
    object      wallHeatFlux;
}
// * * * * * * * * * * * * * * * * * * * * * * * * * * * * * * * * * * * * * //

dimensions      [1 0 -3 0 0 0 0];

internalField   uniform 0;

boundaryField
{
    front_top
    {
        type            wedge;
    }
    front_middle
    {
        type            wedge;
    }
    front_bottom
    {
        type            wedge;
    }
    back_top
    {
        type            wedge;
    }
    back_middle
    {
        type            wedge;
    }
    back_bottom
    {
        type            wedge;
    }
    axis_top
    {
        type            symmetryPlane;
    }
    axis_middle
    {
        type            symmetryPlane;
    }
    axis_bottom
    {
        type            symmetryPlane;
    }
    wall_top
    {
        type            calculated;
        value           nonuniform List<scalar> 
24
(
47280.05984
42093.23135
39140.91194
36908.99737
35208.27061
33924.89638
32400.48822
30670.41094
29114.02131
27909.14043
27281.51111
26968.45286
26649.17421
26185.72053
25694.76976
25238.21678
24812.59453
24412.48241
24034.09036
23674.58282
23331.6739
23002.84597
22686.46624
22381.05809
)
;
    }
    wall_middle
    {
        type            calculated;
        value           nonuniform 0();
    }
    wall_bottom
    {
        type            calculated;
        value           nonuniform 0();
    }
    inlet
    {
        type            calculated;
        value           nonuniform List<scalar> 
50
(
-21.89813937
-22.49963345
-23.81949981
-25.85111025
-28.6480752
-32.29820465
-36.92235332
-42.67666097
-49.7565501
-58.40218553
-68.90537264
-81.61796916
-96.96194131
-115.4412351
-137.6556668
-164.3170656
-196.2679277
-234.5028046
-280.1927383
-334.7133649
-399.6766643
-476.9668608
-568.7809674
-677.6742554
-806.6108313
-959.0198841
-1138.858113
-1350.679338
-1599.710744
-1891.934585
-2234.177129
-2634.211382
-3100.866389
-3644.143706
-4275.351026
-5007.235813
-5854.115298
-6832.038063
-7958.964642
-9254.958552
-10742.37333
-12446.06276
-14393.5324
-16615.20648
-19144.73208
-22019.23698
-25279.43555
-28970.00104
-33139.88222
-37842.55969
)
;
    }
    outlet
    {
        type            calculated;
        value           nonuniform 0();
    }
    procBoundary11to10
    {
        type            processor;
        value           uniform 0;
    }
}


// ************************************************************************* //
