/*--------------------------------*- C++ -*----------------------------------*\
  =========                 |
  \\      /  F ield         | OpenFOAM: The Open Source CFD Toolbox
   \\    /   O peration     | Website:  https://openfoam.org
    \\  /    A nd           | Version:  7
     \\/     M anipulation  |
\*---------------------------------------------------------------------------*/
FoamFile
{
    version     2.0;
    format      ascii;
    class       volVectorField;
    location    "0.0009";
    object      grad(generalizedNewtonian:nu);
}
// * * * * * * * * * * * * * * * * * * * * * * * * * * * * * * * * * * * * * //

dimensions      [0 1 -1 0 0 0 0];

internalField   nonuniform List<vector> 
1167
(
(-28195.19106 0 102172.4998)
(-55711.93945 0 98250.817)
(-94398.86939 0 89087.1075)
(-141125.6664 0 74884.34621)
(-186616.8869 0 55651.08471)
(-227841.9907 0 34092.9205)
(-256819.2437 0 14121.5829)
(-269236.3688 0 -1169.712549)
(-265984.8999 0 -10752.05026)
(-251478.135 0 -15437.79963)
(-230787.0898 0 -16750.30432)
(-207825.4981 0 -16084.00452)
(-185001.81 0 -14427.56482)
(-163579.2202 -2.218936483e-10 -12388.91859)
(-144105.4099 0 -10304.72563)
(-126716.1214 1.021184976e-10 -8350.429385)
(-111334.0591 0 -6610.164587)
(-97802.92526 0 -5110.594585)
(-85940.81843 0 -3846.817464)
(-75550.78072 0 -2804.033514)
(-66451.88786 0 -1958.086644)
(-58479.47427 0 -1284.959834)
(-51486.19287 0 -760.0649603)
(-45343.75365 0 -360.8461181)
(-39940.85302 0 -66.38576732)
(-35181.44688 0 141.6119959)
(-30982.33376 0 279.9152391)
(-27273.75423 0 362.6468285)
(-23995.54601 0 402.6862249)
(-21096.83832 -9.841595743e-12 410.5716879)
(-18534.20093 0 395.7156598)
(-16270.61699 0 365.5696581)
(-14273.84438 0 326.4537088)
(-12515.83964 0 283.0509281)
(-24406.80819 0 79925.59313)
(-46306.80566 0 77493.70016)
(-78234.76537 0 71797.87556)
(-117250.7794 0 62796.38349)
(-155851.3838 0 49960.42609)
(-194228.679 0 34298.70241)
(-225940.5181 0 18172.76768)
(-245580.0215 0 4256.573063)
(-251149.377 0 -5700.393153)
(-244392.0233 0 -11449.74376)
(-229193.0275 0 -13825.44233)
(-209541.0014 0 -13977.4041)
(-188423.2042 0 -12884.62513)
(-167685.0874 -2.218936483e-10 -11216.34617)
(-148295.7962 0 -9379.619763)
(-130659.2799 1.021184976e-10 -7601.422958)
(-114872.318 0 -5995.897781)
(-100883.7055 0 -4601.589829)
(-88558.16901 0 -3425.712997)
(-77728.42033 0 -2458.819237)
(-68228.85404 0 -1679.396061)
(-59899.43436 0 -1065.419654)
(-52594.20511 0 -592.2588456)
(-46183.35781 0 -238.3237074)
(-40553.05211 0 17.63303879)
(-35603.96737 0 193.27575)
(-31249.89737 0 305.3836698)
(-27417.43081 0 367.6559087)
(-24043.213 0 392.5473946)
(-21072.86487 -9.841595743e-12 390.049968)
(-18459.69792 0 368.8984236)
(-16163.24249 0 335.8278497)
(-14148.02603 0 296.3866832)
(-12382.80763 0 254.5385623)
(-10839.91549 0 213.3031071)
(-9493.906785 0 174.5546158)
(-8321.994781 0 139.5259855)
(-7303.422844 0 108.7471714)
(-6419.354725 0 82.34195879)
(-5652.934145 0 60.19019023)
(-4988.887992 0 41.93908769)
(-4413.560554 0 27.15615342)
(-3915.000079 0 15.37583189)
(-3482.750558 0 6.157359563)
(-3107.643019 0 -0.9296461274)
(-2781.737673 -1.227877028e-12 -6.266614741)
(-2498.283721 0 -10.18597242)
(-2251.816546 0 -12.97171183)
(-2038.704443 0 -14.87081029)
(-1858.256963 0 -16.117805)
(-21981.3795 0 63040.74233)
(-40305.43987 0 61461.28839)
(-67840.003 0 57781.54753)
(-101499.8737 0 51904.06126)
(-134463.8167 0 43287.92298)
(-168996.7233 0 32152.48738)
(-200460.833 0 19719.37982)
(-223803.1128 0 7892.105806)
(-235649.0288 0 -1565.252398)
(-235570.9558 0 -7789.193159)
(-225828.904 0 -10955.3503)
(-209861.5672 0 -11835.07915)
(-190858.1743 0 -11289.99444)
(-171113.0887 0 -10003.12744)
(-152006.4156 0 -8430.591904)
(-134244.0487 1.021184976e-10 -6844.157108)
(-118130.6801 0 -5380.201151)
(-103734.1695 0 -4096.664937)
(-90977.84647 0 -3013.728544)
(-79732.68173 0 -2125.337781)
(-69851.01087 0 -1414.307423)
(-61181.10597 0 -859.5499261)
(-53579.90156 0 -437.8326441)
(-46916.3598 0 -127.7892183)
(-41074.24967 0 91.23096164)
(-35950.89773 0 236.7405774)
(-31456.8869 0 324.8791059)
(-27514.81836 0 369.0775371)
(-24057.74055 0 380.9329598)
(-21027.43414 -9.841595743e-12 369.967912)
(-18373.70229 0 343.9498061)
(-16052.43881 0 309.0124812)
(-14024.8908 0 269.8220512)
(-12256.74989 0 229.7674268)
(-10717.72257 0 191.2304959)
(-9380.063196 0 155.6397059)
(-8219.206881 0 123.8790663)
(-7212.866177 0 96.23874444)
(-6341.297977 0 72.70249794)
(-5586.936125 0 53.05955885)
(-4934.007046 0 36.93206453)
(-4368.643558 0 23.89426183)
(-3878.836559 0 13.51991038)
(-3454.133188 0 5.397761819)
(-3085.406611 0 -0.8560860314)
(-2764.830721 -1.227877028e-12 -5.578901331)
(-2485.774169 0 -9.062651565)
(-2242.877792 0 -11.55537775)
(-2032.554856 0 -13.27191579)
(-1854.044575 0 -14.41525357)
(-20371.09228 0 49968.22708)
(-36341.65177 5.72803201e-09 48911.27046)
(-60952.94443 0 46454.47555)
(-90916.43999 0 42520.07058)
(-119623.3479 0 36665.26388)
(-150481.3974 8.72492374e-10 28817.99118)
(-180301.2614 0 19484.80766)
(-204960.4105 0 9891.15005)
(-220775.9206 0 1485.47332)
(-225938.8955 0 -4669.044302)
(-221158.5241 -2.625550867e-10 -8282.950956)
(-208953.0082 2.464598854e-10 -9732.582615)
(-192333.887 0 -9682.97656)
(-173841.1291 0 -8770.874382)
(-155204.4149 0 -7472.764439)
(-137447.6894 1.021184976e-10 -6086.029898)
(-121098.0046 9.861157192e-11 -4768.937388)
(-106344.8714 0 -3600.958517)
(-93192.05223 0 -2613.836187)
(-81558.23095 0 -1805.749245)
(-71316.34348 0 -1164.079327)
(-62325.70162 0 -668.2190262)
(-54446.24826 0 -297.1046896)
(-47547.22632 0 -29.19031668)
(-41510.02095 0 154.8857871)
(-36228.4436 0 272.6952574)
(-31609.71614 0 339.2311898)
(-27572.02506 0 367.650861)
(-24044.56239 0 368.4641526)
(-20965.05586 0 350.658546)
(-18279.49907 0 320.9877476)
(-15940.31813 0 284.967701)
(-13905.40926 0 246.4288406)
(-12137.77419 0 208.269118)
(-10604.515 4.818700871e-12 172.2846062)
(-9276.046354 0 139.557806)
(-8126.261366 0 110.6747642)
(-7131.633531 -2.403668045e-12 85.74260009)
(-6271.695562 0 64.66159336)
(-5528.314991 0 47.14157709)
(-4885.372434 1.206414697e-12 32.79813559)
(-4328.904295 0 21.21901501)
(-3846.862688 1.213068337e-12 12.01707299)
(-3428.798037 0 4.80686206)
(-3065.675373 -1.222328066e-12 -0.7549129355)
(-2749.773386 0 -4.967930758)
(-2474.570576 0 -8.090252098)
(-2234.80399 -1.240717983e-12 -10.3400821)
(-2026.929825 0 -11.90576431)
(-1850.131575 -6.278896109e-13 -12.96430367)
(-19280.71407 0 39670.49925)
(-33648.69896 0 38941.20649)
(-56281.26955 1.766087453e-09 37267.12418)
(-83700.67646 0 34589.34858)
(-109296.2925 0 30560.07107)
(-137040.4461 0 25032.45565)
(-164775.9983 7.590816911e-10 18144.11617)
(-189373.9397 0 10606.26576)
(-207380.3739 0 3490.249786)
(-216321.6374 0 -2200.515004)
(-215719.708 0 -5931.391732)
(-207076.1755 0 -7755.615309)
(-192944.0087 0 -8114.506475)
(-175882.4797 -2.218936483e-10 -7551.46323)
(-157883.0557 0 -6523.267818)
(-140263.6237 1.021184976e-10 -5334.545821)
(-123762.5827 0 -4167.125104)
(-108707.6559 0 -3119.460703)
(-95197.6321 9.292980586e-11 -2229.532264)
(-83203.80261 4.531075074e-11 -1502.522284)
(-72625.35836 0 -929.7600501)
(-63334.9338 0 -491.9523653)
(-55196.93903 2.131899682e-11 -169.8065057)
(-48081.21781 0 57.98298106)
(-41866.47895 -2.067999104e-11 209.5198087)
(-36443.28611 0 302.022497)
(-31714.72367 0 349.3727239)
(-27594.88436 0 364.0706488)
(-24008.51127 0 355.6765581)
(-20889.42095 0 332.3533313)
(-18179.67234 9.781168704e-12 300.0375205)
(-15828.30829 0 263.4911678)
(-13790.13282 0 225.8915034)
(-12025.62061 4.830039681e-12 189.6124623)
(-10499.54962 0 155.9901351)
(-9180.79255 0 125.8466151)
(-8041.890513 0 99.49256615)
(-7058.417723 0 76.90465892)
(-6209.298888 0 57.92108134)
(-5475.930692 0 42.20190654)
(-4842.001794 0 29.36431794)
(-4293.501785 1.209402773e-12 19.01409345)
(-3818.377127 0 10.79155898)
(-3406.199838 0 4.343541155)
(-3048.033345 0 -0.6400675117)
(-2736.258911 -1.227877028e-12 -4.427375284)
(-2464.457825 0 -7.247876168)
(-2227.455582 0 -9.294722753)
(-2021.749414 -6.239889687e-13 -10.73408162)
(-1846.477394 0 -11.72126455)
(-18507.65181 0 31414.23387)
(-31792.74508 0 30897.45815)
(-53083.0149 -1.766087453e-09 29760.88073)
(-78714.99917 0 27926.37417)
(-102053.8625 0 25129.69734)
(-127351.9951 0 21230.12377)
(-153053.292 0 16217.47461)
(-176877.5174 0 10431.87156)
(-195862.2598 -6.136491728e-10 4613.189084)
(-207332.5547 5.645090647e-10 -390.4206726)
(-210031.8552 0 -3973.631063)
(-204545.9954 0 -5977.409331)
(-192828.0003 0 -6639.685058)
(-177287.3116 -2.218936483e-10 -6378.404173)
(-160062.45 0 -5597.04311)
(-142695.6541 1.021184976e-10 -4598.844605)
(-126118.8326 0 -3581.500671)
(-110816.6839 0 -2655.06351)
(-96992.70208 0 -1862.814726)
(-84669.9621 0 -1217.56834)
(-73780.74408 0 -712.4223416)
(-64213.31141 0 -331.2136928)
(-55837.53915 0 -55.5932409)
(-48524.50154 0 134.3870038)
(-42150.15745 0 256.0470213)
(-36601.66383 0 325.5865295)
(-31777.79399 0 356.0414432)
(-27588.40115 0 358.8887365)
(-23953.69741 0 342.8545677)
(-20803.56728 -9.841595743e-12 315.1556252)
(-18076.22686 -9.781168704e-12 280.975481)
(-15717.50343 0 244.343825)
(-13679.33145 0 207.8568531)
(-11919.90235 -4.830039681e-12 173.4070041)
(-10402.06844 0 141.9654814)
(-9093.324503 0 114.1260581)
(-7965.010897 0 89.99077089)
(-6992.100603 0 69.4373134)
(-6153.030195 0 52.24707464)
(-5428.83119 0 38.06023797)
(-4803.074222 0 26.49814997)
(-4261.747642 0 17.18516466)
(-3792.818688 0 9.786989795)
(-3385.894471 0 3.979328932)
(-3032.139605 0 -0.5190906058)
(-2724.034514 0 -3.949384304)
(-2455.256333 0 -6.516862539)
(-2220.711852 0 -8.39360338)
(-2016.937406 0 -9.72720048)
(-1843.035024 0 -10.65483594)
(-17960.28303 1.676159064e-08 24658.49421)
(-30529.45844 0 24296.83385)
(-50905.34222 1.766087453e-09 23545.85644)
(-75270.48903 0 22295.00386)
(-96978.1723 0 20368.73983)
(-120421.3045 0 17630.60943)
(-144349.452 0 14028.75866)
(-167099.6706 0 9689.253459)
(-186292.6672 0 5071.991357)
(-199333.8294 -5.645090647e-10 838.4728331)
(-204503.0786 0 -2427.72919)
(-201661.5846 0 -4450.954173)
(-192163.446 2.331079767e-10 -5303.637296)
(-178154.8881 -2.218936483e-10 -5275.387191)
(-161788.3316 0 -4707.214577)
(-144755.2708 0 -3888.029498)
(-128169.3143 0 -3019.203817)
(-112674.5854 0 -2211.387381)
(-98576.37208 0 -1515.689579)
(-85957.70766 0 -951.125384)
(-74786.53549 0 -511.9737398)
(-64966.09074 -4.341488838e-11 -185.5315893)
(-56374.55968 0 46.12591611)
(-48883.80752 0 200.735366)
(-42367.7012 0 295.1876471)
(-36709.7805 0 344.0589036)
(-31804.40776 0 359.8053356)
(-27557.14075 0 352.4973084)
(-23883.68412 0 330.2222515)
(-20710.00251 -9.841595743e-12 299.074416)
(-17970.74277 0 263.6794069)
(-15608.64183 0 227.2652807)
(-13573.09709 0 191.9976968)
(-11820.27326 0 159.3056819)
(-10311.36089 0 129.8720439)
(-9012.709588 0 104.0769713)
(-7894.660634 0 81.8858653)
(-6931.737327 0 63.09704002)
(-6102.008315 -2.405189498e-12 47.44891339)
(-5386.23001 0 34.57047905)
(-4767.912479 1.206414697e-12 24.08917695)
(-4233.076449 0 15.65915552)
(-3769.728547 0 8.958639287)
(-3367.519922 0 3.69150625)
(-3017.717036 -1.222328066e-12 -0.3978144222)
(-2712.895462 -1.227877028e-12 -3.527216169)
(-2446.821745 0 -5.881461122)
(-2214.477668 0 -7.614810686)
(-2012.43687 0 -8.859202328)
(-1839.772746 0 -9.736565131)
(-17583.56126 0 19040.92141)
(-29702.92295 0 18799.96289)
(-49453.87009 -1.766087453e-09 18334.87982)
(-72928.93157 0 17501.99348)
(-93467.1477 0 16208.57041)
(-115520.6225 0 14316.95429)
(-138012.7294 0 11770.21083)
(-159660.6388 0 8594.762528)
(-178591.0146 0 5042.979314)
(-192472.9246 0 1586.515402)
(-199393.1532 0 -1264.075028)
(-198685.0309 0 -3181.500181)
(-191152.4712 0 -4117.967562)
(-178603.3386 -2.218936483e-10 -4254.118157)
(-163112.2894 0 -3865.009445)
(-146459.4815 1.021184976e-10 -3211.898913)
(-129920.9853 0 -2484.508662)
(-114287.2817 0 -1791.529339)
(-99954.73711 0 -1190.857198)
(-87072.56146 0 -703.9770762)
(-75647.15904 0 -328.5352591)
(-65599.00848 0 -54.17266016)
(-56814.18106 0 136.1384474)
(-49165.63161 0 258.073748)
(-42525.53018 0 327.8187183)
(-36773.46296 0 358.3126217)
(-31799.68131 0 361.2592411)
(-27505.14963 0 345.3623743)
(-23801.49072 0 317.9827413)
(-20610.76663 -9.841595743e-12 284.1891327)
(-17864.43016 0 248.0457196)
(-15502.20549 0 212.0595283)
(-13471.43681 0 178.0535634)
(-11726.31241 0 147.0193847)
(-10226.7582 0 119.4142114)
(-8938.149718 0 95.4363384)
(-7830.006039 0 74.93897441)
(-6876.522494 0 57.69227315)
(-6055.488698 0 43.37466203)
(-5347.454481 0 31.61732752)
(-4735.955327 -1.206414697e-12 22.05741368)
(-4207.037405 0 14.37988961)
(-3748.730998 0 8.272048747)
(-3350.778034 0 3.46327278)
(-3004.537344 0 -0.2794905533)
(-2702.673017 0 -3.154132385)
(-2439.034659 0 -5.327870372)
(-2208.673395 0 -6.939833011)
(-2008.198503 0 -8.108710337)
(-1836.661208 0 -8.943556181)
(-17344.60181 0 14291.23782)
(-29210.99955 0 14150.42744)
(-48541.91292 0 13902.51957)
(-71396.60308 1.296916343e-09 13390.84491)
(-91108.47923 -1.037132521e-09 12570.5225)
(-112132.4427 0 11319.24681)
(-133501.389 -7.590816911e-10 9561.922252)
(-154152.1692 0 7299.359801)
(-172598.3904 6.136491728e-10 4653.631483)
(-186820.2071 0 1938.02829)
(-194898.6502 0 -440.1872999)
(-195832.3114 0 -2155.618085)
(-189959.4953 0 -3088.729628)
(-178732.7744 0 -3328.960698)
(-164084.2893 0 -3084.791485)
(-147835.5215 1.021184976e-10 -2580.432856)
(-131391.3549 1.972231438e-10 -1982.235615)
(-115660.9967 0 -1397.927825)
(-101132.4456 0 -889.194902)
(-88021.64341 0 -476.9361709)
(-76370.37101 0 -162.5384965)
(-66119.54131 0 63.15765187)
(-57163.71833 0 214.9851178)
(-49376.91269 0 307.2279725)
(-42629.8427 0 354.6791093)
(-36798.1427 0 369.0527369)
(-31767.98942 -2.019241095e-11 360.8739883)
(-27435.89413 0 337.7979771)
(-23709.58963 -9.913505491e-12 306.2464076)
(-20507.47658 0 270.4965423)
(-17758.06163 0 233.9420629)
(-15398.46277 0 198.5579176)
(-13374.1594 0 165.7873547)
(-11637.56519 0 136.2779366)
(-10147.63473 0 110.3443644)
(-8868.895519 0 87.98394235)
(-7770.322125 0 68.97250502)
(-6825.80306 0 53.06761636)
(-6012.851176 0 39.89964486)
(-5311.969095 0 29.10716283)
(-4706.735104 0 20.34033293)
(-4183.229875 0 13.30276745)
(-3729.51231 0 7.699963656)
(-3335.423907 0 3.281641892)
(-2992.413393 0 -0.1661349536)
(-2693.228848 0 -2.824040752)
(-2431.797411 0 -4.844224355)
(-2203.234494 0 -6.352874104)
(-2004.183399 0 -7.45739348)
(-1833.678431 0 -8.255906625)
(-17223.77193 0 10214.58014)
(-28982.48525 0 10152.61374)
(-48059.30578 0 10071.5263)
(-70498.60002 0 9822.158545)
(-89643.35667 0 9371.540307)
(-109894.2907 0 8619.871417)
(-130385.0106 0 7468.296385)
(-150203.403 0 5918.444185)
(-168102.17 0 4025.314463)
(-182353.936 0 1980.141474)
(-191136.4599 0 86.30025233)
(-193265.859 0 -1367.144212)
(-188728.8722 0 -2226.26051)
(-178644.0429 -2.218936483e-10 -2515.067943)
(-164765.787 0 -2382.355798)
(-148921.7087 1.021184976e-10 -2001.786834)
(-132604.3319 0 -1517.904881)
(-116810.7227 0 -1034.840759)
(-102119.337 0 -611.8820151)
(-88811.56361 0 -269.9523088)
(-76963.3255 0 -13.17578101)
(-66535.82297 0 167.1967307)
(-57430.70298 0 283.319785)
(-49524.63929 0 348.8201944)
(-42686.74321 0 376.3067767)
(-36788.91619 0 376.6751498)
(-31713.38257 0 358.9221115)
(-27352.41335 0 329.9159424)
(-23610.10361 0 295.0164013)
(-20401.46908 -9.841595743e-12 257.8645475)
(-17652.3643 0 221.1972155)
(-15297.57933 0 186.5370624)
(-13280.96296 0 154.9677437)
(-11553.58071 0 126.8743693)
(-10073.48072 0 102.4510745)
(-8804.37641 0 81.53186091)
(-7714.987973 0 63.83834425)
(-6778.951921 0 49.09537739)
(-5973.562761 0 36.92296351)
(-5279.318021 0 26.96364956)
(-4679.86414 0 18.87997066)
(-4161.330785 0 12.39131409)
(-3711.813275 0 7.221098746)
(-3321.254106 0 3.136841787)
(-2981.189823 0 -0.05873464556)
(-2684.448274 0 -2.531395857)
(-2425.029089 0 -4.420314785)
(-2198.10745 0 -5.840582725)
(-2000.359154 0 -6.889955462)
(-1830.805934 0 -7.657247084)
(-17186.26939 0 6687.775221)
(-28952.65831 0 6676.363454)
(-47922.56181 0 6732.727081)
(-70112.46863 0 6698.051203)
(-88881.9146 0 6540.862492)
(-108563.4102 0 6184.053834)
(-128369.0975 0 5526.803653)
(-147511.0407 0 4538.135431)
(-164884.5996 0 3257.688195)
(-178986.2448 0 1798.153824)
(-188139.4972 0 369.7211427)
(-191094.1163 0 -791.2229694)
(-187580.9275 0 -1527.550968)
(-178425.8186 -2.218936483e-10 -1823.010681)
(-165222.5812 0 -1764.93739)
(-149767.8591 1.021184976e-10 -1480.196524)
(-133586.1898 0 -1094.73274)
(-117752.8296 0 -704.6159011)
(-102930.1051 0 -360.4398319)
(-89454.18559 0 -83.73308716)
(-77435.41335 0 120.0244181)
(-66854.94606 0 258.6317564)
(-57622.16028 0 342.2362433)
(-49615.44764 0 383.7084235)
(-42701.83056 0 393.4914794)
(-36750.50307 0 381.7117038)
(-31639.4563 0 355.7770909)
(-27257.42533 0 321.9004777)
(-23504.81084 0 284.3195267)
(-20293.86139 -9.841595743e-12 246.2275663)
(-17547.84092 0 209.6454366)
(-15199.64523 0 175.7951664)
(-13191.70822 0 145.3955336)
(-11473.96496 0 118.6341545)
(-10003.7325 0 95.56171116)
(-8744.048854 0 75.92453764)
(-7663.476273 0 59.39391736)
(-6735.475052 0 45.66848028)
(-5937.179033 0 34.36171348)
(-5249.115226 0 25.12008984)
(-4655.016636 0 17.63123669)
(-4141.072015 0 11.61638792)
(-3695.418507 0 6.818337492)
(-3308.099904 0 3.02115246)
(-2970.738056 0 0.04222170756)
(-2676.23656 0 -2.271299878)
(-2418.662987 0 -4.047394834)
(-2193.248271 0 -5.391610961)
(-1996.699273 0 -6.393429546)
(-1828.028745 0 -7.133703789)
(-17194.61333 0 3591.677906)
(-29084.33192 0 3619.610302)
(-48075.83294 0 3796.790635)
(-70134.62491 0 3935.29801)
(-88681.21409 0 4018.973822)
(-107981.9488 0 3983.548786)
(-127248.4366 0 3740.96474)
(-145820.1697 0 3218.062807)
(-162728.9721 0 2435.273549)
(-176603.7366 0 1471.412107)
(-185902.1009 0 468.0652448)
(-189373.9527 0 -397.9848865)
(-186585.961 0 -987.22422)
(-178158.0886 0 -1251.86941)
(-165529.9593 0 -1229.796801)
(-150421.1212 1.021184976e-10 -1015.751481)
(-134365.1137 0 -715.0455004)
(-118506.2272 0 -407.0505663)
(-103578.4534 0 -134.2345217)
(-89960.92436 0 81.83286381)
(-77797.14689 0 237.2840361)
(-67086.60556 0 337.8881089)
(-57746.02082 0 392.5523708)
(-49655.54865 0 412.542951)
(-42680.33946 0 406.9033994)
(-36686.88707 0 384.5807597)
(-31549.3082 0 351.7885467)
(-27153.00431 0 313.8908655)
(-23395.12789 0 274.2399483)
(-20185.43257 -9.841595743e-12 235.5328645)
(-17444.82022 0 199.1808846)
(-15104.72761 0 166.1875314)
(-13106.17788 0 136.9097512)
(-11398.34872 0 111.3792666)
(-9937.941368 0 89.52690834)
(-8687.439363 0 71.02302681)
(-7615.327195 0 55.52958864)
(-6694.945309 0 42.69886076)
(-5903.304859 0 32.14796659)
(-5221.037095 0 23.52965381)
(-4631.93813 0 16.55837922)
(-4122.2316 0 10.95408173)
(-3680.147711 0 6.47783627)
(-3295.820267 0 2.928631502)
(-2960.95097 0 0.1367790257)
(-2668.514988 -1.227877028e-12 -2.039299408)
(-2412.643775 0 -3.717879533)
(-2188.620487 0 -4.996260956)
(-1993.181739 0 -5.956796402)
(-1825.334344 0 -6.673503975)
(-17257.64039 0 817.288784)
(-29363.83831 0 889.3388982)
(-48467.1122 0 1175.642415)
(-70498.92169 1.296916343e-09 1453.866728)
(-88952.31161 -1.037132521e-09 1746.532524)
(-108023.7898 0 1973.228517)
(-126896.7086 0 2076.776455)
(-144979.9165 0 1965.43188)
(-161453.4166 6.136491728e-10 1612.785061)
(-175064.3635 0 1069.262272)
(-184356.2527 0 436.16034)
(-188105.2904 0 -154.1759265)
(-185804.705 0 -582.0214466)
(-177924.2848 0 -782.9269091)
(-165751.2151 0 -769.1274542)
(-150920.0617 1.021184976e-10 -607.2789494)
(-134968.3281 9.861157192e-11 -379.0916781)
(-119094.0078 0 -142.0397931)
(-104078.8056 0 67.18157103)
(-90342.69032 0 228.3863759)
(-78058.69019 0 340.0630909)
(-67239.38961 0 406.0187857)
(-57809.85071 0 434.9042873)
(-49651.20647 0 435.8079414)
(-42627.24303 0 416.8763819)
(-36601.93654 0 385.5347592)
(-31445.76282 -1.009620547e-11 347.0676939)
(-27041.13633 0 305.9168995)
(-23282.28332 -1.982701098e-11 264.7451252)
(-20076.7543 0 225.6858208)
(-17343.53454 0 189.7199083)
(-15012.75205 0 157.5762984)
(-13024.1306 0 129.3392214)
(-11326.37654 0 104.9642593)
(-9875.666899 0 84.2188848)
(-8634.134012 0 66.72513737)
(-7570.180874 0 52.15431415)
(-6657.00877 0 40.11231426)
(-5871.637074 0 30.22543768)
(-5194.809333 0 22.15616883)
(-4610.384351 0 15.63242597)
(-4104.620676 0 10.38492169)
(-3665.85168 0 6.188448374)
(-3284.298587 0 2.854678802)
(-2951.739726 0 0.2252805019)
(-2661.218183 0 -1.831421902)
(-2406.92555 0 -3.425219981)
(-2184.193979 0 -4.646238538)
(-1989.788592 0 -5.570651941)
(-1822.712764 0 -6.26658095)
(-17378.71101 1.676159064e-08 -1712.412526)
(-29787.14788 0 -1595.098363)
(-49064.05563 1.766087453e-09 -1207.390986)
(-71155.26715 0 -804.1021589)
(-89614.70995 0 -329.9818713)
(-108577.5623 0 125.5098943)
(-127210.5413 0 514.6098192)
(-144906.2482 0 755.0406619)
(-160959.8055 0 786.0540569)
(-174252.5547 -5.645090647e-10 616.623192)
(-183422.5007 0 313.9341073)
(-187280.57 0 -17.94939342)
(-185277.2152 2.331079767e-10 -276.5274134)
(-177770.8057 -2.218936483e-10 -397.8749464)
(-165923.5458 0 -376.5048382)
(-151294.2065 0 -254.9655789)
(-135421.7012 0 -85.32967438)
(-119536.6908 0 91.24086615)
(-104448.5331 0 243.4965365)
(-90613.25138 0 356.5481787)
(-78229.10517 0 429.1548667)
(-67320.93935 -4.341488838e-11 464.2410857)
(-57820.15046 0 470.2351574)
(-49607.85008 0 454.2899919)
(-42547.16882 0 423.9256555)
(-36499.03417 0 384.8288639)
(-31331.31165 0 341.7441608)
(-26923.49585 0 297.9747422)
(-23167.3403 0 255.7453933)
(-19968.4615 -9.841595743e-12 216.5813935)
(-17244.18175 0 181.122578)
(-14923.52381 0 149.8231084)
(-12945.3289 0 122.5712466)
(-11257.81411 0 99.26471578)
(-9816.598242 0 79.52725561)
(-8583.777507 0 62.95076754)
(-7527.670093 0 49.19358589)
(-6621.355171 0 37.84851024)
(-5841.910895 -4.810378996e-12 28.54708816)
(-5170.202944 0 20.96105055)
(-4590.160321 1.206414697e-12 14.82890244)
(-4088.081781 0 9.893405487)
(-3652.404911 -1.213068337e-12 5.941379494)
(-3273.436945 0 2.795740311)
(-2943.029972 -1.222328066e-12 0.3082017273)
(-2654.291594 -1.227877028e-12 -1.644194385)
(-2401.470121 0 -3.163804367)
(-2179.943811 0 -4.334487185)
(-1986.505107 0 -5.227037672)
(-1820.155988 0 -5.904465602)
(-17557.39376 0 -4058.03395)
(-30343.74747 0 -3896.292626)
(-49858.13096 -1.766087453e-09 -3423.19123)
(-72076.22451 0 -2894.309691)
(-90637.56162 0 -2251.910559)
(-109577.6176 0 -1578.566864)
(-128066.6405 0 -953.2494653)
(-145480.5455 0 -420.5157028)
(-161164.9807 0 -54.07878057)
(-174112.9423 5.645090647e-10 116.6793115)
(-183066.1708 0 121.2530151)
(-186889.7746 0 35.42759007)
(-185013.8966 0 -55.45549787)
(-177719.2096 -2.218936483e-10 -89.80798722)
(-166070.1408 0 -51.09486253)
(-151571.7613 1.021184976e-10 43.05689153)
(-135754.6051 0 167.9821097)
(-119853.0573 0 294.0328211)
(-104701.6988 0 396.2302932)
(-90786.12835 0 466.8505101)
(-78320.02907 0 504.711008)
(-67340.17827 0 513.057271)
(-57783.39893 0 499.0353534)
(-49530.63039 0 468.6366884)
(-42443.68978 0 428.4567254)
(-36381.0198 0 382.8572009)
(-31208.07011 0 335.9955508)
(-26801.45998 0 290.1514158)
(-23051.24356 0 247.2286875)
(-19860.97936 -9.841595743e-12 208.1128576)
(-17146.89781 0 173.2588197)
(-14837.05153 0 142.8100116)
(-12869.5722 0 116.5186344)
(-11192.31452 0 94.18136392)
(-9760.436638 0 75.3601366)
(-8536.0708 0 59.61390858)
(-7487.500652 0 46.58334079)
(-6587.722868 0 35.85687586)
(-5813.897371 0 27.06805181)
(-5147.022655 0 19.91425731)
(-4571.10355 -1.206414697e-12 14.1278921)
(-4072.482721 0 9.466705241)
(-3639.702215 0 5.729361978)
(-3263.153522 0 2.748943686)
(-2934.759732 1.222328066e-12 0.3860524023)
(-2647.689845 0 -1.474595156)
(-2396.245798 0 -2.928822283)
(-2175.84934 0 -4.054994645)
(-1983.319134 0 -4.919203774)
(-1817.657423 0 -5.580010267)
(-17791.98171 0 -6244.01228)
(-31009.4031 0 -6050.562607)
(-50834.62472 1.766087453e-09 -5499.134182)
(-73264.23533 0 -4847.122813)
(-92008.24174 0 -4048.475877)
(-110973.4054 0 -3176.414677)
(-129382.2217 7.590816911e-10 -2330.501162)
(-146615.8019 0 -1548.716806)
(-161992.771 0 -892.0952794)
(-174588.131 0 -416.608308)
(-183250.6307 0 -127.7853322)
(-186914.8312 0 19.75043288)
(-185017.3242 0 92.47065357)
(-177785.0296 -4.437872967e-10 146.3720979)
(-166217.6379 0 209.4126199)
(-151784.202 1.021184976e-10 291.2565151)
(-135991.4628 0 383.4987076)
(-120063.1597 0 466.7893095)
(-104853.9301 4.646490293e-11 526.8999206)
(-90871.83851 9.062150147e-11 560.8389135)
(-78340.49106 0 568.0027672)
(-67305.57187 0 553.1427375)
(-57706.47476 4.263799363e-11 521.7000001)
(-49424.73553 0 479.1126043)
(-42320.77756 -2.067999104e-11 430.664161)
(-36250.6533 0 379.8052745)
(-31077.69596 0 329.8856027)
(-26676.174 0 282.5202411)
(-22934.50616 0 239.1641828)
(-19754.60495 0 200.2316505)
(-17051.84935 9.781168704e-12 166.0469291)
(-14753.27025 0 136.4414578)
(-12796.67798 0 111.0637688)
(-11129.62985 4.830039681e-12 89.6236719)
(-9706.913301 0 71.62908002)
(-8490.749506 0 56.64384014)
(-7449.421789 0 44.26777413)
(-6555.86571 0 34.09426434)
(-5787.402503 0 25.76111773)
(-5125.126274 0 18.99208164)
(-4553.080093 0 13.51232193)
(-4057.711767 1.209402773e-12 9.093893239)
(-3627.654764 0 5.546384546)
(-3253.379587 0 2.712052026)
(-2926.877188 0 0.4594346904)
(-2641.375133 -1.227877028e-12 -1.319937098)
(-2391.226253 0 -2.716108452)
(-2171.893464 0 -3.802601749)
(-1980.220618 -6.239889687e-13 -4.641374593)
(-1815.211611 0 -5.287094505)
(-18051.68353 0 -8308.400219)
(-31775.39363 0 -8091.393474)
(-51992.62369 0 -7454.615367)
(-74689.30668 1.296916343e-09 -6686.259121)
(-93681.75983 -1.037132521e-09 -5743.835943)
(-112751.6306 0 -4689.922424)
(-131126.1719 -7.590816911e-10 -3619.779708)
(-148228.9978 0 -2611.131504)
(-163362.4307 0 -1707.992019)
(-175620.0628 0 -964.8322192)
(-183940.8363 -2.625550867e-10 -417.2516683)
(-187339.7278 -2.464598854e-10 -51.33275115)
(-185279.3274 0 175.6382826)
(-177970.806 0 315.2921693)
(-166388.166 0 412.8264249)
(-151960.256 1.021184976e-10 494.7233458)
(-136152.5095 9.861157192e-11 563.8046186)
(-120183.3393 0 611.3363085)
(-104921.804 0 636.4141939)
(-90883.29541 0 639.2510641)
(-78299.98213 0 620.3729113)
(-67223.87743 0 585.5882976)
(-57594.8217 0 539.1021875)
(-49294.80076 0 486.2273673)
(-42181.7999 0 430.7437665)
(-36110.41724 0 375.7003946)
(-30942.00448 -2.019241095e-11 323.4213845)
(-26548.74549 0 275.0154419)
(-22817.73107 -9.913505491e-12 231.4834062)
(-19649.61541 0 192.9096857)
(-16959.03474 0 159.4087497)
(-14672.0803 0 130.5986022)
(-12726.46354 0 106.1139309)
(-11069.50285 0 85.5122551)
(-9655.793234 0 68.27184859)
(-8447.620115 0 53.98345338)
(-7413.230143 0 42.19922255)
(-6525.618328 0 32.52417656)
(-5762.263257 0 24.60508728)
(-5104.354064 0 18.17508046)
(-4535.972865 0 12.96808768)
(-4043.676727 1.209402773e-12 8.765984627)
(-3616.189379 -1.213068337e-12 5.38757536)
(-3244.058137 0 2.683345685)
(-2919.339187 0 0.5289936505)
(-2635.315957 0 -1.177842348)
(-2386.389597 0 -2.522057487)
(-2168.062046 6.203589913e-13 -3.57287525)
(-1977.20136 0 -4.388595765)
(-1812.814225 0 -5.02045967)
(-18346.46294 0 -10308.03439)
(-32653.52988 0 -10061.54929)
(-53330.19548 0 -9335.27928)
(-76346.07838 0 -8458.874403)
(-95649.20316 0 -7368.44188)
(-114903.637 0 -6139.868164)
(-133291.862 0 -4850.97556)
(-150274.6811 0 -3609.025576)
(-165197.4611 0 -2475.301288)
(-177143.1541 0 -1501.126226)
(-185090.5118 0 -728.8068464)
(-188130.5799 0 -170.4784185)
(-185783.5815 0 198.3659014)
(-178291.2927 0 427.5092906)
(-166608.9973 0 570.1547674)
(-152119.773 1.021184976e-10 660.2325034)
(-136254.8642 0 711.4716782)
(-120229.7638 0 731.0694974)
(-104918.4266 0 727.29964)
(-90832.10204 0 703.0900939)
(-78208.3477 0 662.5095807)
(-67102.39182 0 610.9256645)
(-57453.83483 0 551.9430776)
(-49144.26468 0 490.4644411)
(-42029.46482 0 429.1596634)
(-35962.57239 0 370.7886772)
(-30802.39599 0 316.6225398)
(-26420.11273 0 267.6063826)
(-22701.54065 0 224.1327033)
(-19546.27514 -9.841595743e-12 186.0476411)
(-16868.35348 0 153.2565662)
(-14593.37641 0 125.2266671)
(-12658.86652 0 101.5941513)
(-11011.78087 0 81.77959574)
(-9606.877816 0 65.24689139)
(-8406.46565 0 51.58813304)
(-7378.743028 0 40.34040004)
(-6496.823734 0 31.11518011)
(-5738.343335 0 23.5712127)
(-5084.588772 0 17.44618166)
(-4519.685086 0 12.48400117)
(-4030.299257 0 8.475854503)
(-3605.243992 0 5.2490235)
(-3235.141143 0 2.661465216)
(-2912.109572 0 0.5953333855)
(-2629.48604 -1.227877028e-12 -1.046250391)
(-2381.717656 0 -2.343573092)
(-2164.343431 0 -3.362021831)
(-1974.254701 0 -4.156641228)
(-1810.46185 0 -4.775637239)
(-18681.4859 0 -12269.33439)
(-33649.12935 0 -11987.63996)
(-54839.04768 0 -11169.15199)
(-78234.89658 0 -10188.72863)
(-97912.46026 0 -8947.935711)
(-117414.8567 0 -7548.027752)
(-135889.0142 0 -6051.33884)
(-152777.9088 0 -4571.23752)
(-167469.6937 0 -3202.901874)
(-179082.4202 0 -2012.308266)
(-186624.8024 0 -1042.166812)
(-189242.9674 0 -314.7341579)
(-186529.329 0 185.8601016)
(-178763.0024 -2.218936483e-10 504.6371874)
(-166893.6903 0 693.5295476)
(-152272.687 1.021184976e-10 793.8099205)
(-136311.3946 0 830.8872036)
(-120218.5703 0 828.9498189)
(-104854.6996 0 801.7079075)
(-90726.82661 0 754.6748906)
(-78073.93444 0 695.7254283)
(-66947.92257 0 629.6789648)
(-57288.81448 0 560.5225544)
(-48977.15991 0 492.0294191)
(-41866.50393 0 426.2035971)
(-35808.40718 0 365.2152301)
(-30659.9377 0 309.6727998)
(-26291.18038 0 260.3418235)
(-22586.34161 0 217.0356396)
(-19444.76564 -9.841595743e-12 179.5604623)
(-16779.9364 0 147.517441)
(-14517.09448 0 120.29035)
(-12593.66663 0 97.44826993)
(-10956.31184 0 78.37023074)
(-9560.003327 0 62.49986236)
(-8367.106948 0 49.41774726)
(-7345.800493 0 38.65912049)
(-6469.345089 0 29.83680617)
(-5715.529347 0 22.63945963)
(-5065.731625 0 16.79143909)
(-4504.134936 0 12.05044046)
(-4017.513476 0 8.217358513)
(-3594.766664 0 5.127391014)
(-3226.588544 0 2.645277143)
(-2905.158266 0 0.658999978)
(-2623.863585 -1.227877028e-12 -0.9233763722)
(-2377.195414 0 -2.177992219)
(-2160.728045 0 -3.166790005)
(-1971.37522 0 -3.941898808)
(-1808.151753 0 -4.548820308)
(-19066.22986 0 -14226.87079)
(-34770.76339 0 -13901.44012)
(-56523.58905 0 -12988.62245)