/*--------------------------------*- C++ -*----------------------------------*\
  =========                 |
  \\      /  F ield         | OpenFOAM: The Open Source CFD Toolbox
   \\    /   O peration     | Website:  https://openfoam.org
    \\  /    A nd           | Version:  7
     \\/     M anipulation  |
\*---------------------------------------------------------------------------*/
FoamFile
{
    version     2.0;
    format      ascii;
    class       volTensorField;
    location    "0.0009";
    object      grad(U);
}
// * * * * * * * * * * * * * * * * * * * * * * * * * * * * * * * * * * * * * //

dimensions      [0 0 -1 0 0 0 0];

internalField   nonuniform List<tensor> 
1167
(
(-0.2405161677 -1.933792997e-13 0.1386974343 6.943527158e-13 -0.3941888419 0 0.01886276599 -2.341738005e-14 1.292681853)
(-0.3181808372 -2.943697407e-13 0.3239670383 4.035552642e-13 -0.3443369558 0 0.04921164442 -4.279438176e-14 1.290906436)
(-0.3116250598 -4.82775092e-13 0.5403150347 3.65487077e-13 -0.328146046 0 0.07756843436 1.085624689e-13 1.287707669)
(-0.3184762613 -1.247102511e-13 0.7875796311 4.35984622e-13 -0.3246690657 0 0.1060454629 -3.321026138e-14 1.285921584)
(-0.3239508756 1.081774885e-13 1.079259736 2.818896946e-13 -0.3235181826 0 0.1325899972 -8.70605228e-14 1.289179814)
(-0.3368048306 -3.445467133e-14 1.433572447 2.396371877e-13 -0.3240800608 0 0.1556057697 -1.181368381e-13 1.302133835)
(-0.3620887891 -3.071930674e-13 1.870847677 2.077640966e-13 -0.3270826916 0 0.1736551444 -1.137836456e-13 1.329379547)
(-0.4027109647 -5.223530391e-13 2.411837933 2.535162018e-13 -0.333319059 0 0.1855658535 -8.447844415e-14 1.374925862)
(-0.4605439182 -2.072266887e-13 3.077238446 2.779801913e-13 -0.343409236 0 0.1905201247 -3.63181748e-14 1.441542923)
(-0.5368643403 -1.540712719e-13 3.888235037 2.454911552e-13 -0.3578403525 0 0.1879239381 -1.013552967e-13 1.530704216)
(-0.6321846892 -3.191588919e-13 4.86808811 2.543983156e-13 -0.3769628291 0 0.1774292725 -6.109059433e-14 1.643012409)
(-0.7464519248 -2.962085911e-13 6.043712792 2.576065391e-13 -0.400984304 0 0.1588489358 -3.42914716e-14 1.77855874)
(-0.8793360418 -3.280960867e-13 7.446876856 2.614354902e-13 -0.4300023173 0 0.1320035986 4.704302525e-15 1.937105432)
(-1.030215928 -2.213584494e-13 9.115197616 2.666339845e-13 -0.4640315158 0 0.09662841719 7.440427398e-14 2.118115199)
(-1.198169987 -1.28549495e-13 11.09327418 2.568204977e-13 -0.5030112747 0 0.05243224823 4.07118608e-14 2.320659753)
(-1.382022532 -2.667999331e-13 13.43398054 2.493127384e-13 -0.546817912 -1.595601525e-12 -0.0007936704665 4.668911136e-14 2.54322615)
(-1.579985743 -1.370078974e-13 16.19976367 2.573025329e-13 -0.5952717181 0 -0.06320740161 1.125648502e-14 2.783595865)
(-1.789225473 4.035487474e-14 19.46409173 2.406253401e-13 -0.6481088838 0 -0.1350719297 -1.445359099e-14 3.038745209)
(-2.006098032 -1.829963005e-14 23.31371191 2.268794088e-13 -0.7049552055 0 -0.2165657227 -2.233937949e-14 3.30459108)
(-2.225991702 -3.681906848e-14 27.85109196 2.212439001e-13 -0.7653381203 0 -0.3076599643 -2.105910869e-14 3.575763802)
(-2.442852926 -3.577107926e-14 33.19689101 2.122552916e-13 -0.8286576444 0 -0.4083268006 -1.356850714e-14 3.845543699)
(-2.649299624 -2.520706819e-14 39.4933228 2.093369252e-13 -0.8941670827 0 -0.5183537912 -4.960456711e-15 4.105585406)
(-2.836466659 -7.611560281e-15 46.9075865 2.003860785e-13 -0.960969592 0 -0.6373703077 3.194577114e-15 4.34589969)
(-2.993851321 1.632280935e-14 55.63568863 1.946233055e-13 -1.027998918 0 -0.7647797003 1.236396014e-14 4.554767076)
(-3.109517922 4.525700517e-14 65.90648097 1.842821468e-13 -1.094014219 0 -0.8997124309 1.983427857e-14 4.718830687)
(-3.170214143 8.26182511e-14 77.9856734 1.79466675e-13 -1.15760393 0 -1.040937312 2.416665059e-14 4.823312946)
(-3.161775844 7.469061844e-14 92.179327 1.676127862e-13 -1.217191559 0 -1.186766941 2.763063158e-14 4.852447922)
(-3.069753456 7.031916223e-14 108.836701 1.611000088e-13 -1.271062964 0 -1.334998678 2.382490018e-14 4.790108132)
(-2.88029301 -7.241959768e-15 128.3519323 1.597391022e-13 -1.317401685 0 -1.482810116 2.317787208e-14 4.620765187)
(-2.581242213 2.670225133e-14 151.1637329 1.561776668e-13 -1.354349282 6.15099734e-13 -1.626722215 1.417692358e-14 4.330594124)
(-2.163413837 1.073984965e-13 177.7529996 1.504427804e-13 -1.380075882 0 -1.762577813 3.75202271e-14 3.908914989)
(-1.621955956 7.411861379e-14 208.6378779 1.401724839e-13 -1.392871792 0 -1.885626747 3.320563288e-14 3.349566434)
(-0.957721784 1.058234148e-13 244.3661425 1.372284772e-13 -1.39124508 0 -1.990669154 3.487017279e-14 2.652398105)
(-0.1783706042 1.333738004e-13 285.5052401 1.297129797e-13 -1.374030739 0 -2.072312611 4.363727482e-14 1.824405617)
(-0.2764251125 -1.859399457e-14 0.1410909605 4.156125608e-13 -0.4528815707 0 0.01610627194 -2.386846841e-13 1.389745152)
(-0.3658399904 -1.903081442e-13 0.3291156292 1.563691294e-13 -0.3956928917 0 0.04203787136 -7.312005691e-13 1.387855906)
(-0.3582215659 -3.197288213e-13 0.5460573804 2.122183028e-13 -0.3772066671 0 0.06643061641 -3.516420273e-13 1.384046818)
(-0.3646807914 -2.772577627e-13 0.7892286489 2.461303256e-13 -0.3731710722 0 0.09129442554 -2.978833062e-13 1.380429245)
(-0.3669612238 -2.387591418e-13 1.070023222 2.41337142e-13 -0.3713260498 0 0.1149788987 -8.191518944e-14 1.379746206)
(-0.3739666735 -2.631010123e-13 1.405079661 2.42965482e-13 -0.3706790959 0 0.1362904373 2.063370485e-14 1.385734127)
(-0.3906531448 -2.850167555e-13 1.814321709 2.490273492e-13 -0.3717989225 0 0.1539676831 1.556721106e-13 1.402600549)
(-0.420288439 -2.875491795e-13 2.319293905 2.548063606e-13 -0.3754091757 0 0.1667066734 2.846632303e-14 1.434411071)
(-0.4652451926 -2.5831355e-13 2.942533441 2.563269974e-13 -0.3821780834 0 0.1735652703 -4.266395827e-14 1.484502521)
(-0.5271239157 -2.434071217e-13 3.707249291 2.551815955e-13 -0.3926550794 0 0.1738225738 3.703632262e-14 1.555044453)
(-0.606788826 -2.361588202e-13 4.638215553 2.543983156e-13 -0.4072616273 0 0.1669842313 3.238253323e-14 1.647097791)
(-0.7043940254 -2.404824103e-13 5.763291751 2.510253502e-13 -0.4262828083 0 0.1527492829 -6.573794362e-14 1.760950319)
(-0.819552516 -2.92640392e-13 7.114945989 2.525431266e-13 -0.4498744114 0 0.1309104926 -8.974230701e-14 1.896391203)
(-0.9515670423 -2.186983918e-13 8.73160373 2.581694135e-13 -0.4780824333 1.733544128e-12 0.1012711093 -1.545853564e-13 2.052816707)
(-1.099563541 -1.728376759e-13 10.65898131 2.49529064e-13 -0.5108708741 0 0.06365600849 -1.054793733e-13 2.229178819)
(-1.262356493 -1.218701654e-13 12.95139696 2.461963291e-13 -0.5481403551 -1.595601525e-12 0.0179232638 -8.172476217e-14 2.423903675)
(-1.437973003 -4.183017638e-14 15.67307263 2.347321353e-13 -0.5897254347 0 -0.03614897039 -1.933225975e-13 2.634811313)
(-1.623564031 -7.932404603e-14 18.89992707 2.275003215e-13 -0.6353614327 0 -0.09882141289 -1.548959455e-13 2.858972899)
(-1.815762126 -9.742354693e-14 22.72185581 2.197894273e-13 -0.6846852146 0 -0.1701816393 -9.741722868e-14 3.092374296)
(-2.010126039 -9.531150486e-14 27.24490915 2.143300282e-13 -0.7372479242 0 -0.2502790061 -6.11291337e-14 3.329861315)
(-2.200857217 -8.313138615e-14 32.59405449 2.095514025e-13 -0.7924702876 0 -0.3391002514 -3.401179856e-14 3.56500601)
(-2.380972604 -6.510208618e-14 38.91641528 2.066870907e-13 -0.8496414626 0 -0.4364366655 -1.349356415e-14 3.789879759)
(-2.542084893 -4.351931828e-14 46.38452827 2.003860785e-13 -0.907905875 0 -0.5419481949 2.811895838e-15 3.995093552)
(-2.674401906 -1.9196244e-14 55.2000041 1.946233055e-13 -0.9662531412 0 -0.6550525243 1.775898668e-14 4.169689088)
(-2.766905878 5.278093913e-15 65.59719494 1.868065597e-13 -1.023514302 0 -0.7748917968 3.15724879e-14 4.301356099)
(-2.807574289 2.985025819e-14 77.84669201 1.844518604e-13 -1.078369762 0 -0.9002620911 4.393134874e-14 4.376615281)
(-2.783741402 5.585488125e-14 92.25822983 1.72542574e-13 -1.129361032 0 -1.029512978 5.702482025e-14 4.381376709)
(-2.682762307 8.416131054e-14 109.1827314 1.684227365e-13 -1.174916933 0 -1.1605234 5.201695473e-14 4.301489851)
(-2.492880738 1.184098239e-13 129.0131536 1.64579681e-13 -1.213394847 0 -1.290600549 4.773596899e-14 4.123722161)
(-2.204191017 7.241519161e-14 152.1833752 1.561776668e-13 -1.243138114 1.230199468e-12 -1.416496689 -2.302106471e-14 3.83673259)
(-1.809766935 2.887031282e-14 179.1651544 1.504427804e-13 -1.262543827 0 -1.534406205 2.495782589e-14 3.432346982)
(-1.30679042 6.683343107e-14 210.462864 1.449240935e-13 -1.270146037 0 -1.640080786 2.697813264e-14 2.906684528)
(-0.6976480957 1.014703294e-13 246.60591 1.395944854e-13 -1.2647015 0 -1.728974869 2.818514293e-14 2.261347069)
(0.009281764944 1.338125732e-13 288.1393236 1.344298153e-13 -1.245282546 0 -1.79650165 2.724498278e-14 1.504249289)
(0.7991383314 1.65326674e-13 335.6136553 1.270555894e-13 -1.211355649 0 -1.838332986 2.245839954e-14 0.6502199051)
(1.65054334 1.98588596e-13 389.5734528 1.174632469e-13 -1.16285412 0 -1.850722859 2.781993243e-14 -0.2789748392)
(2.536039176 2.361204668e-13 450.54561 1.173725039e-13 -1.100222402 0 -1.830884123 3.179651898e-14 -1.254945507)
(3.42271578 2.815468947e-13 519.0291676 1.103246076e-13 -1.024442372 0 -1.777284537 3.611401689e-14 -2.243644197)
(4.273629692 3.324265415e-13 595.485878 9.865035051e-14 -0.9370343754 0 -1.689910945 2.98627243e-14 -3.206313422)
(5.049326794 3.838388948e-13 680.3336526 9.17211571e-14 -0.8400216391 0 -1.570422689 2.337641699e-14 -4.101211719)
(5.709277249 4.372599777e-13 773.9417173 8.718231208e-14 -0.7358787722 0 -1.422208984 1.437496365e-14 -4.885339175)
(6.213453004 4.963739717e-13 876.626207 7.676873071e-14 -0.6274589308 0 -1.250326518 1.319863494e-14 -5.515875655)
(6.523919964 5.615399412e-13 988.6492975 6.633967468e-14 -0.5179089904 0 -1.061370186 7.996962686e-15 -5.951791848)
(6.606362549 6.332112908e-13 1110.22204 5.706490999e-14 -0.4105713062 0 -0.8632150302 2.299895054e-15 -6.155433029)
(6.43212081 7.148696244e-13 1241.508071 4.595667046e-14 -0.3088819048 0 -0.6647151883 -8.837726724e-15 -6.093728147)
(5.979266911 6.171294746e-13 1382.628678 3.537341046e-14 -0.2162462436 3.069692569e-13 -0.4752919711 6.380915793e-14 -5.738839204)
(5.221300325 5.096641165e-13 1533.672895 2.801835309e-14 -0.1359435897 0 -0.3045578472 -1.62524721e-14 -5.068742472)
(4.097837115 5.705318307e-13 1694.721935 2.029494747e-14 -0.07133657927 0 -0.1626145203 -9.388312919e-15 -4.067422854)
(2.584140427 6.249155118e-13 1865.923961 1.249196666e-14 -0.02651406561 0 -0.06140770379 -5.574750353e-15 -2.724485146)
(1.2479057 6.724597121e-13 2047.734785 4.244309962e-15 -0.004662127042 0 -0.01097064775 -1.852283648e-15 -1.033013378)
(-0.3068408975 1.066044306e-12 0.1435247113 -9.121496828e-13 -0.502511602 0 0.01351054764 1.951747003e-14 1.472043453)
(-0.4063537826 -3.862323365e-13 0.3346452162 -1.245490359e-12 -0.4391644748 0 0.03529693911 3.030056606e-14 1.470173435)
(-0.3981832691 -1.165499123e-12 0.5532954863 -1.136883765e-13 -0.4188398241 0 0.05592712185 -1.399866287e-13 1.466202285)
(-0.4048972323 -6.344291297e-13 0.7947262126 1.434729536e-13 -0.4145012594 0 0.07711965378 -4.16919892e-14 1.461740034)
(-0.4053635087 -4.537386701e-13 1.068663208 2.166099758e-13 -0.4123169533 0 0.09763043591 -1.258718218e-14 1.458838029)
(-0.4085169588 -4.778548124e-13 1.389968077 2.529503648e-13 -0.4109881812 0 0.1166274807 -3.209631189e-14 1.46032023)
(-0.4189084273 -2.936797197e-13 1.77753021 2.931862687e-13 -0.4109186239 0 0.1331402434 -1.028890504e-13 1.469822441)
(-0.4398003893 -1.47154957e-13 2.252876228 2.657727103e-13 -0.412707441 0 0.1459397466 -4.756054765e-14 1.491109939)
(-0.4739158632 -2.373633077e-13 2.839556507 2.586678833e-13 -0.4170049699 0 0.1539430769 -2.904792985e-14 1.527712832)
(-0.5232115191 -2.966256825e-13 3.56257841 2.605651735e-13 -0.4243869002 0 0.1563238191 -2.472618661e-14 1.582325398)
(-0.5888825555 -1.033815928e-13 4.448531863 2.664171336e-13 -0.4353279116 0 0.1524609162 -2.355293682e-14 1.656563144)
(-0.6713396804 -4.909082186e-14 5.526688549 2.359826326e-13 -0.4501725574 0 0.1419293031 -1.789961817e-14 1.751078381)
(-0.7703752052 -1.380765234e-13 6.830579882 2.356476358e-13 -0.469135606 0 0.1244631149 -1.36296931e-14 1.865801686)
(-0.8853565199 -1.951397716e-13 8.399621434 2.26004044e-13 -0.4923144177 1.733544128e-12 0.09989164525 -1.462217827e-14 2.000121656)
(-1.015402542 -2.862314955e-13 10.28063963 2.300852409e-13 -0.5197114893 0 0.06809116991 -1.972263972e-14 2.152931102)
(-1.15915043 -6.267512858e-14 12.52926091 2.30614283e-13 -0.5512560683 -1.595601525e-12 0.02891226678 -3.944928814e-14 2.322631655)
(-1.314461426 2.006355529e-14 15.21139452 2.106570445e-13 -0.5867880501 0 -0.01790995109 -1.612054626e-14 2.507075535)
(-1.478722292 -1.825468482e-13 18.40533768 2.056252906e-13 -0.6260477904 0 -0.0725614055 -1.484441994e-14 2.703318221)
(-1.64869086 -2.38015665e-13 22.20391351 2.070274606e-13 -0.6686987675 0 -0.1350712554 -4.394353634e-14 2.907445399)
(-1.819936134 -1.885110379e-13 26.71655115 2.101817051e-13 -0.7143050322 0 -0.2055383902 -4.151379511e-14 3.114531781)
(-1.986992269 -1.519168453e-13 32.07224044 2.095514025e-13 -0.7623075002 0 -0.2839253234 -7.735798762e-15 3.318403224)
(-2.143271311 -1.167428061e-13 38.42254673 2.053621734e-13 -0.8120291734 0 -0.3700556763 1.098311585e-14 3.511564751)
(-2.280892308 -8.68963169e-14 45.94483559 2.003860785e-13 -0.8626552137 0 -0.4635939204 2.284219409e-14 3.685189316)
(-2.390778787 -5.802637435e-14 54.84565582 1.971841385e-13 -0.9132315071 0 -0.5639662928 3.819877955e-14 3.829101444)
(-2.462801863 -2.365404535e-14 65.36403188 1.918553857e-13 -0.9626607751 0 -0.6703281685 5.284452341e-14 3.931996819)
(-2.486107222 1.422530448e-14 77.77446978 1.844518604e-13 -1.00971385 0 -0.781505775 5.952310775e-14 3.981680549)
(-2.449436813 5.350312211e-14 92.38930623 1.774723619e-13 -1.053046581 0 -0.8959110408 6.341672974e-14 3.965619986)
(-2.34180531 9.617754433e-14 109.5600967 1.733045549e-13 -1.091224804 0 -1.011514867 6.646618285e-14 3.871501173)
(-2.153297059 2.093384904e-13 129.677724 1.64579681e-13 -1.122769691 0 -1.125789013 6.834000189e-14 3.688115408)
(-1.875928916 8.651013218e-14 153.1706945 1.585804002e-13 -1.146209542 1.230199468e-12 -1.23573857 6.929307482e-14 3.406265275)
(-1.504624931 -3.767365942e-14 180.5016821 1.504427804e-13 -1.160146227 0 -1.337915838 5.731523069e-14 3.019814357)
(-1.038126668 6.44622665e-14 212.1621245 1.472998983e-13 -1.163327013 0 -1.428556737 5.893566983e-14 2.526664411)
(-0.4798658029 1.051140745e-13 248.6648009 1.443265018e-13 -1.154721129 0 -1.503708993 5.765118396e-14 1.929623903)
(0.1615197861 1.514270062e-13 290.5350169 1.344298153e-13 -1.13359594 0 -1.55949702 5.064795188e-14 1.237075499)
(0.8718128989 1.587689365e-13 338.3014803 1.270555894e-13 -1.099580147 0 -1.592358209 6.327615413e-14 0.4632645124)
(1.631356736 1.642879514e-13 392.4859796 1.245110417e-13 -1.052721895 0 -1.599317602 5.032919552e-14 -0.3716937328)
(2.415546558 2.048952544e-13 453.5931793 1.173725039e-13 -0.9935174403 0 -1.578273805 3.125967304e-14 -1.242254619)
(3.195397022 2.804947214e-13 522.1014048 1.103246076e-13 -0.9229273525 0 -1.528222696 5.410514124e-14 -2.118316638)
(3.938778171 3.608073262e-13 598.4545656 1.033479862e-13 -0.8423700132 0 -1.449482714 2.451212003e-14 -2.966060091)
(4.611665146 4.162844273e-13 683.0571074 9.877663072e-14 -0.7536865745 0 -1.343758033 3.962234163e-14 -3.749414554)
(5.17929262 4.44294298e-13 776.2690466 8.718231208e-14 -0.6590936098 0 -1.214164638 1.144540638e-13 -4.431420395)
(5.607498552 4.797976467e-13 878.4018049 7.91308455e-14 -0.561120102 0 -1.065152369 6.354588593e-14 -4.975377041)
(5.863961259 5.416012503e-13 989.7180588 6.870894877e-14 -0.4625326838 0 -0.9024124102 8.60444771e-15 -5.346226765)
(5.919388349 6.01509337e-13 1110.434362 5.825376228e-14 -0.3662551965 0 -0.7326337082 6.396967454e-14 -5.511801611)
(5.749255703 6.709540996e-13 1240.723659 4.953770971e-14 -0.2752828558 0 -0.5632679412 4.8357129e-14 -5.443660313)
(5.334649183 6.333975196e-13 1380.719633 3.837115711e-14 -0.1925788556 3.069692569e-13 -0.402188489 5.817592481e-14 -5.117683246)
(4.652173253 5.823693773e-13 1530.5263 3.012726138e-14 -0.1209954219 0 -0.2573923372 2.601522384e-14 -4.514518027)
(3.647851404 6.254559493e-13 1690.240873 2.150658613e-14 -0.06346611278 0 -0.1372711979 -5.405260869e-14 -3.619725709)
(2.299113183 6.68170925e-13 1860.024196 1.306324562e-14 -0.02358247676 0 -0.05177036898 -8.686055946e-15 -2.423455075)
(1.109887852 7.05745863e-13 2040.327225 4.445507499e-15 -0.004145684749 0 -0.009230316868 -1.257092573e-14 -0.9186534539)
(-0.3321476408 -4.622643839e-14 0.1458691057 5.464905548e-13 -0.5437467825 0 0.01111421977 4.955150765e-13 1.540480813)
(-0.4402047243 1.511491788e-13 0.340106024 2.239697575e-13 -0.475314458 -2.237512504e-11 0.02907213938 1.552090557e-12 1.53870471)
(-0.4317543094 -2.568021733e-13 0.5609648561 2.189553918e-14 -0.4535606475 0 0.04617300797 8.213099387e-13 1.53485112)
(-0.4389752425 -4.92104839e-13 0.8020834281 2.05314744e-13 -0.4490555266 0 0.06380179892 3.424731471e-13 1.530198048)
(-0.4385247064 -2.491493811e-13 1.071967557 2.324353622e-13 -0.4467265171 0 0.08110188372 1.421078854e-13 1.526205771)
(-0.4393785185 -8.977781276e-14 1.383779019 2.221636427e-13 -0.445048768 -3.408173336e-12 0.0974921242 2.640350717e-14 1.524975341)
(-0.4455183679 -2.694680991e-13 1.75504354 1.932857623e-13 -0.4442942423 2.965162856e-12 0.1122641922 -1.330097832e-13 1.529472888)
(-0.4597902078 -4.256768047e-13 2.206703343 2.30938423e-13 -0.4449080154 0 0.1244127178 -3.129791212e-14 1.543056465)
(-0.4850889978 -3.016930903e-13 2.762587054 2.446225683e-13 -0.4474535483 0 0.1328193323 1.55679948e-14 1.569103829)
(-0.5236939888 -2.540849018e-13 3.448967071 2.454911552e-13 -0.4525023723 0 0.1365931857 -8.794584556e-14 1.610557156)
(-0.5770939556 -2.503529191e-13 4.294176407 2.463857702e-13 -0.4605504552 2.051211615e-12 0.1350131322 -1.157209365e-13 1.669490751)
(-0.6460266229 -2.608952973e-13 5.329187319 2.444441612e-13 -0.4719868169 -1.925467854e-12 0.1275482013 4.990224963e-14 1.746978576)
(-0.7305259862 -2.991776687e-13 6.588955635 2.463184721e-13 -0.487080375 0 0.1138524946 5.265873075e-14 1.843211959)
(-0.8301138753 -2.053435473e-13 8.114118272 2.522442139e-13 -0.5059800799 0 0.09372224593 9.296202369e-14 1.957677475)
(-0.9438903758 -1.176060151e-13 9.952664516 2.446681082e-13 -0.5287346575 0 0.06701869152 8.380185671e-14 2.089295919)
(-1.0702831 -1.325645619e-13 12.16147774 2.368471014e-13 -0.5552996069 -1.595601525e-12 0.03352707127 7.331320322e-14 2.236497349)
(-1.207161666 -9.635032372e-14 14.80823521 2.302180558e-13 -0.5855222146 -1.540805811e-12 -0.006971647852 2.069255476e-13 2.397119853)
(-1.352131785 -1.319337802e-14 17.97352385 2.231253154e-13 -0.6191626768 -1.493335444e-12 -0.05454633796 2.329687788e-13 2.56819313)
(-1.501950589 -3.639016104e-14 21.75273522 2.098634532e-13 -0.655908887 0 -0.1092905035 1.749974695e-13 2.745916383)
(-1.652291458 -1.839981161e-13 26.25848149 2.06033382e-13 -0.695337662 0 -0.1713040776 1.395130342e-13 2.925557666)
(-1.797979027 -2.106973867e-13 31.62349283 2.08199458e-13 -0.7369159608 0 -0.2404941892 1.142939163e-13 3.101204515)
(-1.932760695 -1.409328968e-13 38.0033904 2.080120079e-13 -0.7799965359 0 -0.3167050502 9.945002531e-14 3.265803879)
(-2.049291166 -1.128112018e-13 45.57984979 2.029884951e-13 -0.8238056814 0 -0.3995945656 8.900393799e-14 3.411068761)
(-2.139184511 -9.677647867e-14 54.56368399 2.023058044e-13 -0.8674443453 0 -0.4886082252 7.622151699e-14 3.527610597)
(-2.19317353 -5.051784235e-14 65.19782926 1.969042116e-13 -0.9098856465 0 -0.5829229744 6.782592291e-14 3.60508073)
(-2.201499092 1.604119722e-15 77.75984429 1.919296386e-13 -0.9499883134 0 -0.6814008055 7.161987727e-14 3.632520524)
(-2.154223081 3.688675229e-14 92.56378265 1.848670436e-13 -0.9865174727 0 -0.7825301305 8.064355917e-14 3.598819484)
(-2.041858158 7.048363756e-14 109.96102 1.806272826e-13 -1.018169578 0 -0.8843842041 9.705023553e-14 3.493335424)
(-1.856092223 1.10420978e-13 130.3397488 1.694202599e-13 -1.043617637 0 -0.9846205326 1.243602387e-13 3.306619956)
(-1.590564594 1.049928768e-13 154.1228983 1.657886002e-13 -1.061558937 0 -1.080491885 1.917710148e-13 3.03129468)
(-1.241679028 5.870841077e-14 181.7643326 1.552187416e-13 -1.070777548 0 -1.16890845 1.687777833e-13 2.662863135)
(-0.8093644323 6.596338536e-14 213.7435191 1.544273128e-13 -1.070206044 0 -1.246553688 1.452410334e-13 2.200584652)
(-0.2977049826 1.271313522e-13 250.5583054 1.490585183e-13 -1.058993946 0 -1.310018623 1.38752887e-13 1.648078896)
(0.2847083475 1.15258458e-13 292.7167919 1.39146651e-13 -1.036567262 0 -1.356038649 1.492940101e-13 1.013860104)
(0.9244662318 1.676519825e-13 340.7289228 1.364671145e-13 -1.002681555 -6.023376088e-13 -1.381673804 1.315864709e-13 0.3113896571)
(1.603621387 3.025619232e-13 395.0971165 1.315588365e-13 -0.9574669893 0 -1.384579695 9.789959272e-14 -0.4408699081)
(2.300134632 2.2149246e-13 456.3075111 1.173725039e-13 -0.9014463708 0 -1.363191724 7.114050467e-14 -1.220005655)
(2.988475397 3.069503459e-13 524.8213506 1.173666038e-13 -0.8355452894 6.009170113e-13 -1.316889807 4.913049426e-14 -1.999348632)
(3.640646927 3.796873261e-13 601.0680376 1.033479862e-13 -0.7610779159 0 -1.246190083 5.682173568e-14 -2.749314642)
(4.227141773 6.68914939e-14 685.4410019 9.760071845e-14 -0.6797164377 0 -1.1527614 6.952830916e-14 -3.438626283)
(4.71793354 3.588469802e-13 778.2925595 9.778556625e-14 -0.5934477338 0 -1.039431146 9.039496095e-14 -4.035288409)
(5.083647229 8.799650358e-13 879.930399 8.267401768e-14 -0.5045193007 0 -0.9101114284 9.889439476e-14 -4.507595166)
(5.296510356 5.540792729e-13 990.6178976 6.752431172e-14 -0.4153725319 -3.032670842e-13 -0.7697014373 8.150209046e-14 -4.825342031)
(5.331267753 4.875594702e-13 1110.575809 6.419802374e-14 -0.328577413 0 -0.6238967436 6.007499836e-14 -4.960799335)
(5.166701133 7.356820836e-13 1239.984262 5.192506922e-14 -0.2467594867 0 -0.4789865046 4.258349294e-14 -4.889239107)
(4.786285546 7.06622751e-13 1378.986897 4.10691291e-14 -0.1725132886 0 -0.3415797124 2.712886816e-14 -4.589520052)
(4.169132267 9.586194476e-13 1527.699643 3.072980661e-14 -0.1083366472 0 -0.2183629051 8.222791957e-15 -4.04442497)
(3.26660195 7.041768167e-13 1686.232346 1.484257352e-14 -0.05680762491 1.550897478e-13 -0.1163416532 -1.534847023e-14 -3.240765843)
(2.057945617 4.564219142e-13 1854.755554 1.153983505e-14 -0.02110466918 0 -0.04383260302 -4.025267245e-14 -2.169100772)
(0.9932519947 5.821862392e-13 2033.715031 2.97005889e-15 -0.003709617557 3.924310068e-14 -0.007804645233 -1.349600119e-14 -0.82221579)
(-0.3527713448 -1.635678326e-12 0.1480628915 2.421742422e-12 -0.5772603065 0 0.008943944793 -2.588102422e-13 1.59608663)
(-0.467851698 -3.640775537e-13 0.3452552537 2.256085606e-12 -0.5047443617 0 0.02340814972 1.212836771e-13 1.594457654)
(-0.459259172 8.958519063e-13 0.5684043209 1.006352666e-12 -0.4818770917 -6.898779112e-12 0.0371814457 5.028867968e-13 1.590904759)
(-0.4671657071 5.26986266e-13 0.8100257836 4.798922932e-13 -0.4772811665 0 0.05144938102 2.008731959e-13 1.586441267)
(-0.4664433697 1.078597058e-13 1.077747151 3.254095071e-13 -0.4749523382 0 0.06568119569 4.153062377e-14 1.582067032)
(-0.4659875733 3.631383571e-14 1.383221623 2.695918361e-13 -0.4731558389 0 0.07941161068 1.470749941e-13 1.579387815)
(-0.4693786783 -2.131270186e-13 1.742485536 2.186228473e-13 -0.4720468621 0 0.09208247317 2.757893451e-13 1.580681156)
(-0.4789228778 -4.269757829e-13 2.175606204 2.528711224e-13 -0.4719547655 0 0.1030030511 1.2157549e-13 1.588841606)
(-0.4973544652 -1.132540677e-13 2.706209154 2.656905407e-13 -0.473323473 0 0.1111890571 1.933713439e-14 1.606929291)
(-0.5271726549 -4.131265199e-14 3.361171137 2.261102745e-13 -0.4766804818 0 0.1156833918 8.274417572e-14 1.637866001)
(-0.5701010154 -3.980333635e-13 4.170240764 2.263544068e-13 -0.4825183112 0 0.1157101655 3.823670046e-14 1.683992461)
(-0.6271575991 -3.853704803e-13 5.166127925 2.529056899e-13 -0.4912455702 0 0.1106667778 8.690379723e-15 1.746756466)
(-0.6986919266 -2.314063952e-13 6.385459718 2.489861812e-13 -0.5031697194 0 0.100128252 -4.818734858e-14 1.82666575)
(-0.7844172933 -2.587067154e-13 7.870319191 2.522442139e-13 -0.5184890801 3.467088255e-12 0.08381889034 -6.18625308e-14 1.923412497)
(-0.8833489161 -2.431917828e-13 9.669944031 2.49529064e-13 -0.537293907 0 0.06149802674 2.442502549e-14 2.036044694)
(-0.9938762404 -3.459412064e-13 11.84262194 2.493127384e-13 -0.5595580374 -1.595601525e-12 0.03292665964 7.451420079e-14 2.16303652)
(-1.114114535 -3.358816074e-13 14.45784327 2.603119193e-13 -0.5851518998 0 -0.00201422743 1.063688676e-13 2.302179385)
(-1.241659301 -1.037967369e-13 17.59828125 2.581253648e-13 -0.6138707549 0 -0.0433657738 1.473765088e-13 2.450547424)
(-1.373139961 -1.912217869e-14 21.3617383 2.453133608e-13 -0.6454149139 -1.452028217e-12 -0.0912776389 2.212158532e-13 2.604482609)
(-1.504521992 -4.337509347e-14 25.86381677 2.364544182e-13 -0.6793753102 -1.415960961e-12 -0.1457994784 2.264211937e-13 2.759382698)
(-1.630918488 -5.450818551e-14 31.2405998 2.28478626e-13 -0.7152511383 0 -0.2068418285 1.714324554e-13 2.909613302)
(-1.746364867 -5.396708829e-14 37.65136963 2.225860977e-13 -0.7524248991 0 -0.2742522774 1.565216726e-13 3.048540666)
(-1.844024792 -2.780062034e-14 45.28161204 2.160005781e-13 -0.7901650907 -1.332437301e-12 -0.3476725253 1.185376302e-13 3.168427227)
(-1.916158899 -3.478631501e-15 54.34581797 2.125491363e-13 -0.8276256987 0 -0.4265637675 8.267838933e-14 3.260642637)
(-1.954342976 -1.218078563e-14 65.09014823 2.044774505e-13 -0.8638483468 1.29249944e-12 -0.5101217996 5.538775533e-14 3.315753268)
(-1.949832924 -2.048599632e-14 77.79449438 1.96914824e-13 -0.8977770926 0 -0.5972481249 4.890441651e-14 3.323951127)
(-1.893904025 -1.647434956e-14 92.77389947 1.922617253e-13 -0.9282804107 0 -0.6865106686 5.153074148e-14 3.275425149)
(-1.778397183 -2.627791337e-14 110.3789364 1.855091011e-13 -0.9541779951 0 -0.7761037218 5.861069484e-14 3.161018034)
(-1.596387316 -6.180483224e-14 130.9947339 1.81521707e-13 -0.9742817199 0 -0.8638727588 7.078385309e-14 2.972807716)
(-1.342868635 -3.739488396e-14 155.0385916 1.826077335e-13 -0.9874422812 0 -0.947324507 8.994593785e-14 2.704927352)
(-1.015409155 9.954427893e-14 182.956034 1.743225868e-13 -0.9926041306 -6.11323044e-13 -1.023708136 1.044781627e-13 2.354204677)
(-0.6148052311 1.537753585e-13 215.2155304 1.686821416e-13 -0.9888600641 0 -1.090120481 6.77762837e-14 1.92089628)
(-0.1455157506 9.182145208e-14 252.3016149 1.585225512e-13 -0.9755104385 0 -1.143641232 6.18573427e-14 1.409141022)
(0.3840595611 1.752207703e-13 294.7073999 1.532971578e-13 -0.9521105069 -6.037549601e-13 -1.181520094 6.40908724e-14 0.827336384)
(0.9614450509 3.228961925e-13 342.9266786 1.482315209e-13 -0.9185156553 0 -1.201334064 3.940195986e-14 0.1881244888)
(1.570371666 3.596233661e-13 397.4454454 1.362573664e-13 -0.874911778 0 -1.201237623 4.127739176e-14 -0.4916501095)
(2.191069888 3.655236524e-13 458.7341715 1.267623042e-13 -0.8218299679 0 -1.180076299 5.114467188e-14 -1.191494157)
(2.800987953 3.270745923e-13 527.2398361 1.197139359e-13 -0.7601522261 0 -1.137517571 2.326181961e-14 -1.887719404)
(3.375642125 2.906914428e-13 603.3800519 1.103944399e-13 -0.6910917725 0 -1.074178915 5.66708653e-14 -2.554346919)
(3.889317945 2.987115738e-13 687.5390302 1.046561921e-13 -0.616166542 0 -0.99164718 3.20176744e-14 -3.164107798)
(4.315935078 3.405490034e-13 780.0625208 9.542928755e-14 -0.537160181 0 -0.8924646672 -4.623535679e-14 -3.689135693)
(4.630025493 5.13373586e-13 881.2551333 8.857930466e-14 -0.4560752599 -3.023506932e-13 -0.7800647556 3.780524145e-15 -4.101866404)
(4.807506208 6.850684321e-13 991.3807786 7.700140811e-14 -0.3750754872 0 -0.6586656894 5.494954877e-14 -4.376043302)
(4.826404789 7.476261334e-13 1110.663472 6.479244989e-14 -0.2964307776 0 -0.5331280191 -3.767222541e-16 -4.487502373)
(4.668162799 7.970528433e-13 1239.288953 5.371558884e-14 -0.2224557771 0 -0.4087765592 2.162370088e-14 -4.414554446)
(4.318177645 7.677000825e-13 1377.408741 4.136890376e-14 -0.155436345 3.069692569e-13 -0.2911812789 2.254919607e-14 -4.138472556)
(3.757610491 7.515524853e-13 1525.148233 3.072980661e-14 -0.09757463076 0 -0.1859588546 2.822518472e-14 -3.643767)
(2.942312592 8.219501055e-13 1682.627303 1.999203781e-14 -0.05115236747 0 -0.0989872138 8.759915569e-14 -2.918268)
(1.853074786 6.576317579e-13 1850.024021 8.911951823e-15 -0.01900248379 7.799862109e-14 -0.03725797938 2.574678914e-14 -1.952883886)
(0.8943242402 4.804869748e-13 2027.779004 3.056286406e-15 -0.003340295431 0 -0.006624568311 1.798054504e-14 -0.740311441)
(-0.3691422832 -1.016353324e-12 0.1500313556 -1.193887044e-12 -0.6038992988 0 0.006973636101 -1.900723569e-13 1.639965918)
(-0.4897369526 -1.191003623e-12 0.3498759822 4.984692773e-13 -0.5281177207 0 0.01823202764 -6.6252614e-13 1.638554746)
(-0.4810839562 -2.352898719e-13 0.575240047 7.082364787e-13 -0.5043222687 6.898779112e-12 0.02893704301 -2.931179824e-13 1.635434348)
(-0.4898233477 3.050986469e-13 0.8178278718 4.04445309e-13 -0.4996808604 0 0.04014028149 4.14042679e-16 1.631360255)
(-0.4892555568 -1.897732733e-13 1.084529868 2.650752216e-13 -0.4974524285 0 0.0514611855 1.283701218e-13 1.627050804)
(-0.4881057205 -5.259224998e-13 1.385853648 3.16187956e-13 -0.4956870516 0 0.06256449152 1.827893469e-13 1.623766684)
(-0.4898043599 -1.909669666e-13 1.736491724 3.40240855e-13 -0.4944334653 0 0.07303243055 2.45768901e-13 1.623179373)
(-0.4962241872 6.142869321e-14 2.155363966 2.889955684e-13 -0.4939597145 0 0.08236186573 1.279089332e-13 1.627654751)
(-0.509582937 -2.404791547e-13 2.665592158 2.539861116e-13 -0.494600309 0 0.08980681505 1.06292902e-14 1.639913253)
(-0.532359151 -2.828702202e-13 3.294208698 2.756391918e-13 -0.4967908107 -2.205113534e-12 0.09445620483 1.457226751e-13 1.662688784)
(-0.5665465105 -1.012288081e-13 4.071905715 2.594061564e-13 -0.5009939946 0 0.09549030353 1.479761778e-13 1.698372387)