/*--------------------------------*- C++ -*----------------------------------*\
  =========                 |
  \\      /  F ield         | OpenFOAM: The Open Source CFD Toolbox
   \\    /   O peration     | Website:  https://openfoam.org
    \\  /    A nd           | Version:  7
     \\/     M anipulation  |
\*---------------------------------------------------------------------------*/
FoamFile
{
    version     2.0;
    format      ascii;
    class       volScalarField;
    location    "0.0009";
    object      p;
}
// * * * * * * * * * * * * * * * * * * * * * * * * * * * * * * * * * * * * * //

dimensions      [1 -1 -2 0 0 0 0];

internalField   nonuniform List<scalar> 
1167
(
584653.7198
586529.371
587085.5356
588145.8115
589519.1575
590986.3739
592369.3262
593567.7
594536.0287
595276.7001
595831.4717
596253.8873
596593.2707
596890.4202
597177.4673
597476.1371
597802.1255
598168.078
598581.844
599045.2675
599560.9352
600126.0688
600737.2084
601388.3316
602072.1093
602779.1618
603499.5831
604221.7062
604934.1145
605624.4822
606281.5877
606894.5863
607454.529
607953.9129
572948.0395
574908.8854
575343.5173
576274.1761
577550.0656
578971.4051
580400.6466
581721.7029
582862.0361
583796.5371
584539.8886
585131.9518
585618.5503
586041.7132
586433.3459
586818.1807
587214.2431
587637.5616
588094.5219
588589.0963
589124.3633
589697.6354
590306.7185
590945.209
591606.9268
592282.4972
592963.1153
593637.9807
594296.9737
594929.3317
595525.5866
596076.8382
596576.0701
597017.6607
597398.2029
597715.9789
597971.2938
598165.9315
598302.9952
598386.7203
598422.0128
598414.191
598368.7291
598291.1162
598186.7449
598060.9348
597918.1802
597759.2155
597581.7642
597411.2295
561538.582
563560.0424
563897.2058
564716.8405
565896.0529
567242.5778
568664.1242
570044.8749
571303.1483
572389.0785
573294.2111
574040.7427
574664.9033
575205.6057
575695.6414
576160.9688
576624.1195
577099.6645
577595.195
578117.6641
578668.9056
579247.8799
579852.272
580476.581
581114.9835
581759.0759
582400.6807
583030.4307
583639.2186
584218.1282
584759.0721
585255.1148
585700.7362
586092.0008
586426.7473
586704.2947
586925.6495
587092.9704
587209.4588
587279.1559
587306.5698
587296.4664
587253.7002
587183.0614
587089.2157
586976.7479
586849.5027
586707.9771
586549.9933
586398.0897
550352.6883
552416.378
552672.818
553407.9492
554496.8377
555762.154
557137.1966
558533.8329
559861.4286
561058.326
562095.8678
562977.2212
563726.4877
564376.7236
564958.5603
565500.6701
566026.6528
566550.1856
567081.096
567627.9249
568191.9724
568774.3601
569371.9706
569981.0333
570595.5562
571208.7551
571812.764
572399.9458
572962.0955
573492.1207
573983.1895
574430.1021
574828.586
575176.1383
575471.5203
575714.8603
575907.6212
576052.1624
576151.7121
576210.0589
576231.3178
576219.7505
576179.6712
576115.2708
576030.6001
575929.6275
575815.657
575688.994
575547.5553
575411.4669
539337.7862
541426.287
541620.1397
542287.0753
543292.2285
544482.5504
545796.5684
547176.9015
548536.9427
549807.286
550946.6859
551941.6073
552802.0098
553551.8423
554219.7992
554835.1606
555418.838
555986.0424
556550.0554
557118.0736
557692.5912
558276.1023
558865.4866
559458.4355
560049.1194
560632.2096
561200.4828
561747.7459
562266.9735
562752.4914
563198.847
563602.1592
563959.3414
564268.937
564530.4491
564744.6635
564913.2971
565038.8007
565124.3449
565173.4574
565189.8855
565177.4464
565139.9638
565081.118
565004.4427
564913.3892
564810.8095
564696.8554
564569.534
564446.926
528447.3009
530555.3049
530705.4718
531312.0536
532243.0679
533366.1072
534618.6275
535959.7253
537323.3149
538637.7827
539850.8776
540936.4145
541891.0731
542730.5254
543479.1445
544161.6166
544798.3674
545406.2166
546000.063
546586.1026
547169.6148
547752.3845
548332.8138
548909.0804
549476.4432
550030.4543
550565.0854
551075.2089
551555.1597
552000.4225
552406.8391
552771.6213
553092.6867
553369.379
553601.7959
553791.186
553939.4292
554048.9994
554122.9384
554164.5235
554177.1628
554164.2782
554129.2655
554075.3656
554005.6729
553923.2022
553830.4262
553727.3726
553612.1328
553501.0499
517660.0893
519781.213
519894.2348
520448.2824
521319.5472
522377.0404
523570.7802
524865.9408
526211.1547
527543.4739
528805.8205
529961.1282
530995.5433
531914.8546
532735.8521
533479.0599
534164.0381
534810.2985
535430.5785
536032.1352
536622.7002
537203.1429
537774.1007
538333.4666
538878.3334
539404.5892
539907.8897
540383.7199
540827.9928
541236.9863
541607.8965
541938.687
542228.221
542476.4226
542683.862
542852.0726
542983.0505
543079.2457
543143.5474
543178.9836
543188.6429
543175.619
543142.9297
543093.4339
543029.8506
542954.8256
542870.5129
542776.8401
542671.9773
542570.784
506961.1196
509082.0726
509161.2559
509667.7897
510491.0957
511487.4387
512628.2522
513877.0457
515193.3185
516523.815
517814.2458
519020.5738
520119.8245
521106.5263
521990.2343
522787.2596
523516.7669
524197.6039
524841.0534
525456.8706
526052.4107
526629.4897
527190.3784
527733.0487
528256.2695
528756.3685
529230.554
529674.9682
530086.8985
530463.3847
530802.7619
531103.6132
531365.6414
531589.1684
531775.1394
531925.2658
532041.5794
532126.5312
532182.8191
532213.2303
532220.5616
532207.6235
532177.1041
532131.5329
532073.3082
532004.7623
531927.7802
531842.2084
531746.2903
531653.6143
496325.9186
498438.2103
498488.1102
498957.2745
499738.5646
500681.1388
501769.7103
502973.9597
504257.3494
505575.4966
506877.5425
508117.4716
509264.9416
510306.2301
511243.2504
512087.3735
512857.668
513568.7063
514232.1107
514860.2419
515459.0611
516032.3966
516582.7744
517109.3372
517611.7944
518087.507
518534.6917
518950.4954
519333.1642
519680.6353
519992.0318
520266.5949
520504.6062
520706.7101
520874.2203
521008.8936
521112.755
521188.234
521237.8396
521264.1383
521269.6733
521256.9858
521228.4822
521186.4117
521132.899
521070.0094
520999.3994
520920.8504
520832.6736
520747.3638
485742.3049
487837.0039
487861.1111
488303.7861
489044.7351
489942.2106
490979.1908
492141.1678
493389.4892
494687.2464
495988.8773
497248.364
498430.7358
499514.925
500495.3152
501381.4826
502186.9002
502923.8666
503605.2446
504243.2604
504843.7365
505412.6867
505952.2064
506463.4524
506946.1583
507399.3071
507821.6241
508211.5064
508567.8276
508889.453
509176.11
509427.62
509644.6844
509828.2256
509979.8372
510101.2898
510194.5909
510262.078
510306.1043
510329.0369
510333.1941
510320.8764
510294.2448
510255.3072
510205.9536
510148.0215
510082.973
510010.5376
509929.0893
509850.178
475193.6435
477264.0593
477273.6694
477692.2102
478394.2573
479255.0958
480246.6372
481364.1185
482579.1579
483852.8515
485145.3941
486413.0751
487617.8825
488732.8476
489749.4323
490671.2557
491505.8364
492264.3728
492961.4837
493607.1735
494208.283
494771.966
495300.6106
495797.1116
496261.1866
496693.449
497092.9502
497459.3743
497791.9798
498090.6297
498355.3843
498586.68
498785.4895
498952.9801
499090.8812
499201.0025
499285.3165
499346.0586
499385.4274
499405.5985
499408.7156
499396.858
499371.9688
499335.8461
499290.1795
499236.6114
499176.439
499109.3502
499033.7779
498960.4509
464673.2552
466719.5182
466720.7552
467115.4314
467783.2653
468610.2833
469562.0428
470635.6409
471814.2955
473062.5196
474340.8752
475607.6707
476824.4742
477962.4263
479008.178
479957.4996
480815.3275
481592.4282
482301.988
482952.7648
483553.8823
484111.6703
484629.8025
485111.9311
485558.6324
485971.4683
486350.1749
486695.3199
487006.6747
487284.8584
487530.223
487743.7911
487926.679
488080.2524
488206.3261
488306.706
488383.3697
488438.4186
488473.9034
488491.8242
488494.1767
488482.8443
488459.5786
488425.996
488383.6131
488333.9058
488278.03
488215.6409
488145.2268
488076.7995
454183.2888
456202.0805
456191.5814
456561.6019
457203.7967
457994.847
458913.9741
459950.2964
461090.7839
462309.9334
463569.6617
464829.9961
466052.2379
467206.1269
468271.7367
469241.5324
470117.1437
470909.6317
471628.3457
472282.165
472881.9649
473433.0057
473940.915
474409.1802
474839.7844
475234.6628
475594.4606
475920.3528
476212.7187
476472.6679
476700.9367
476898.9133
477067.8485
477209.361
477325.2313
477417.2416
477487.3831
477537.6197
477569.8683
477585.9792
477587.7948
477577.0333
477555.2827
477524.0027
477484.5602
477438.2869
477386.2182
477327.9837
477262.1241
477198.0215
443719.2462
445702.4504
445681.8079
446029.3215
446649.3126
447406.7941
448296.0314
449298.6168
450405.1546
451593.5297
452831.0454
454080.2663
455301.7292
456462.6427
457540.4957
458523.8173
459413.5602
460216.9913
460941.4575
461597.2926
462194.1873
462737.9197
463235.5963
463690.4822
464106.0756
464484.2577
464826.9076
465135.3496
465410.7466
465654.4849
465867.6711
466051.934
466208.6654
466339.6945
466446.7483
466531.5884
466596.1616
466642.3273
466671.8808
466686.5401
466688.0057
466677.8514
466657.5226
466628.3427
466591.5491
466548.3492
466499.6745
466445.1358
466383.3232
466323.0624
433275.6068
435217.1619
435185.6421
435520.2946
436117.8792
436845.9567
437700.5233
438673.9697
439748.8458
440907.6247
442121.4105
443354.9073
444569.4081
445731.0337
446814.3459
447806.0732
448705.7738
449515.8478
450243.0014
450899.0245
451491.6725
452028.0611
452515.352
452957.4877
453358.8705
453721.6262
454048.6034
454341.2212
454601.4193
454830.6635
455030.5274
455202.7374
455348.8318
455470.7179
455570.1324
455648.8099
455708.6312
455751.3561
455778.6567
455792.1638
455793.4387
455783.9232
455764.9372
455737.6859
455703.2949
455662.8642
455617.236
455566.0073
455507.8157
455450.9912
422848.9176
424741.352
424703.5029
425027.6895
425600.4298
426304.9508
427126.8157
428070.9236
429117.2875
430247.0769
431435.7525
432650.6705
433853.8704
435010.364
436093.612
437090.2414
437994.428
438806.9276
439534.9784
440188.857
440775.7457
441304.4781
441781.3
442211.3762
442599.341
442947.9238
443260.4664
443538.7921
443785.2863
444001.5607
444189.6297
444351.2184
444487.9929
444601.9037
444694.6705
444768.0475
444823.8153
444863.6381
444889.0747
444901.683
444902.8988
444894.0462
444876.3349
444850.8671
444818.6712
444780.7538
444737.8801
444689.6377
444634.7101
444580.9827
412430.1064
414275.9537
414239.8935
414550.6663
415098.5037
415782.5725
416576.9023
417487.9369
418506.079
419609.2823
420772.3822
421966.0605
423153.0453
424299.6609
425379.6933
426376.2048
427280.2738
428091.4858
428818.2996
429468.0742
430048.2468
430568.5734
431034.7536
431453.2436
431828.3786
432163.9235
432463.2374
432728.6194
432962.7534
433167.4823
433345.0372
433497.178
433625.7946
433732.7483
433819.7307
433888.54
433940.8438
433978.222
434002.1421
434014.0672
434015.3323
434007.161
433990.6663
433966.8596
433936.6846
433901.066
433860.7023
433815.1757
433763.2138
433712.3005
402026.1402
403825.255
403789.5018
404086.0747
404614.1853
405273.975
406043.7206
406924.7018
407911.8563
408986.9135
410124.8887
411295.7159
412464.911
413599.682
414672.6573
415663.8606
416563.4014
417371.2688
418093.9134
418737.285
419310.2908
419821.5284
420277.117
420684.2266
421047.1336
421370.5272
421657.5288
421911.2001
422134.1815
422328.5726
422496.7401
422640.4961
422761.9255
422862.7891
422944.7588
423009.6193
423058.958
423094.2734
423116.9579
423128.383
423129.7925
423122.3207
423106.9953
423084.7484
423056.4489
423022.9503
422984.8928
422941.8566
422892.6126
422844.2781
391644.0688
393388.0836
393350.0845
393630.6163
394142.7823
394776.5323
395524.9902
396379.3753
397336.4196
398381.5992
399493.3626
400640.5895
401790.8465
402910.7399
403971.7251
404953.5081
405844.9072
406647.0476
407362.8447
407998.0211
408562.7367
409064.0938
409509.3315
409905.277
410256.6426
410568.5091
410844.0954
411087.0302
411299.7912
411484.9159
411644.7028
411781.055
411896.1058
411991.6093
412069.2145
412130.6586
412177.4582
412211.0229
412232.7115
412243.7958
412245.4336
412238.6791
412224.4852
412203.7144
412177.1702
412145.6433
412109.723
412068.9905
412022.2591
411976.309
381276.5685
382961.3026
382920.6233
383189.123
383685.203
384294.2395
385018.4467
385848.5938
386778.1029
387795.086
388879.3076
390001.637
391129.6685
392230.7285
393276.0555
394244.268
395125.9807
395919.0983
396625.4145
397251.6119
397806.6077
398297.3405
398732.1806
399117.0256
399457.4506
399758.4502
400023.53
400256.4917
400459.8967
400636.6393
400788.8872
400918.636
401028.0213
401118.7693
401192.5658
401251.0535
401295.6821
401327.7826
401348.6798
401359.5564
401361.4929
401355.4718
401342.3795
401323.0166
401298.1289
401268.4516
401234.5295
401195.9473
401151.5599
401107.8344
370925.2035
372544.9092
372500.9114
372762.9833
373239.7975
373827.2773
374523.5341
375330.8211
376233.3676
377221.9554
378278.3109
379374.3492
380478.4294
381558.187
382584.3236
383536.9153
384406.5237
385187.7494
385882.3114
386498.333
387042.6636
387522.474
387946.5049
388320.283
388650.1947
388940.779
389196.0789
389419.8301
389614.7442
389783.8013
389929.1668
390053.0203
390157.3629
390243.8875
390314.3425
390370.2594
390413.0296
390443.9241
390464.2038
390474.9841
390477.2787
390472.0056
390459.9913
390441.9813
390418.6698
390390.7426
390358.7053
390322.148
390279.9674
390238.3369
360584.1407
362134.3857
362094.5334
362348.6983
362803.0958
363372.871
364042.9983
364822.8384
365701.3323
366662.1022
367689.9331
368758.4812
369836.68
370891.9293
371896.8523
372832.6282
373686.4637
374453.0562
375134.8185
375738.9104
376271.1557
376739.9459
377152.9478
377515.8804
377835.4482
378116.0009
378362.1191
378577.2496
378764.3488
378926.3669
379065.4738
379184.0006
379283.8249
379366.6166
379434.1166
379487.7849
379528.9482
379558.8426
379578.6559
379589.4399
379592.1472
379587.6379
379576.6849
379559.9845
379538.185
379511.9281
379481.6842
379447.0512
379406.9671
379367.3276
350254.6031
351736.892
351704.4801
351947.9244
352380.6923
352931.6269
353577.4895
354327.1082
355177.9858
356112.8933
357112.7235
358152.1991
359201.8753
360231.3239
361214.2897
362130.1187
362965.5457
363715.229
364383.1407
364973.8324
365493.0709
365950.2692
366351.8361
366704.1978
367013.6333
367284.621
367521.9423
367728.8864
367908.7613
368064.3049
368197.734
368311.3899
368407.1258
368486.5829
368551.4579
368603.1513
368642.9193
368671.9885
368691.4644
368702.338
368705.5056
368701.7755
368691.8722
368676.4478
368656.1096
368631.4596
368602.937
368570.1487
368532.0743
368494.3438
352975.2456
353627.4216
354203.2326
354709.2849
355154.05
355543.7701
355885.6211
356185.0357
356446.8575
356675.7342
356874.9584
357048.0388
357197.5315
357325.7473
357434.9439
357526.9231
357603.3896
357665.9265
357715.8819
357754.4554
357782.8454
357802.0904
357813.1255
357816.7953
357813.8598
357804.9995
357790.8261
357771.9105
357748.8188
357721.9621
357690.9576
357654.826
357618.9416
)
;

boundaryField
{
    front_top
    {
        type            wedge;
    }
    front_middle
    {
        type            wedge;
    }
    front_bottom
    {
        type            wedge;
    }
    back_top
    {
        type            wedge;
    }
    back_middle
    {
        type            wedge;
    }
    back_bottom
    {
        type            wedge;
    }
    axis_top
    {
        type            symmetryPlane;
    }
    axis_middle
    {
        type            symmetryPlane;
    }
    axis_bottom
    {
        type            symmetryPlane;
    }
    wall_top
    {
        type            fixedFluxPressure;
        gradient        nonuniform 0();
        value           nonuniform 0();
    }
    wall_middle
    {
        type            fixedFluxPressure;
        gradient        nonuniform 0();
        value           nonuniform 0();
    }
    wall_bottom
    {
        type            fixedFluxPressure;
        gradient        uniform 0;
        value           nonuniform List<scalar> 
23
(
597411.2295
586398.0897
575411.4669
564446.926
553501.0499
542570.784
531653.6143
520747.3638
509850.178
498960.4509
488076.7995
477198.0215
466323.0624
455450.9912
444580.9827
433712.3005
422844.2781
411976.309
401107.8344
390238.3369
379367.3276
368494.3438
357618.9416
)
;
    }
    inlet
    {
        type            zeroGradient;
    }
    outlet
    {
        type            fixedValue;
        value           nonuniform 0();
    }
    procBoundary1to0
    {
        type            processor;
        value           nonuniform List<scalar> 
51
(
339944.8105
341356.886
341326.4405
341555.4973
341972.0609
342498.1329
343123.3659
343846.4023
344665.8441
345572.0687
346542.7314
347552.8652
348574.0515
349577.3923
350535.9903
351428.9522
352243.3637
352243.3637
342233.2941
342867.8909
343427.3967
343919.7282
344351.6325
344729.4522
345060.5473
345349.9037
345602.8782
345823.6431
346015.5774
346182.1807
346325.9414
346449.3365
346554.4227
346642.9508
346716.7
346777.1314
346825.5436
346863.0915
346890.9232
346910.0255
346921.2826
346925.4912
346923.3666
346915.5468
346902.603
346885.077
346863.507
346838.2764
346809.0114
346774.7738
346740.6895
)
;
    }
    procBoundary1to2
    {
        type            processor;
        value           nonuniform List<scalar> 
51
(
596751.1743
598519.7241
599219.0449
600417.4897
601872.4542
603317.7024
604576.9191
605579.2332
606314.4899
606822.9899
607168.1446
607409.339
607594.3391
607759.6538
607934.8411
608141.3303
608392.2284
608696.1732
609061.9616
609490.7604
609982.7241
610536.3745
611146.6046
611808.1268
612512.3238
613250.2673
614010.7577
614781.8155
615550.4491
616303.1473
617026.7217
617708.3335
618336.791
618902.3823
608387.6798
608387.6798
608752.7615
609048.43
609275.8811
609437.9841
609539.0769
609584.4427
609579.9865
609531.9092
609446.5114
609330.0421
609188.7012
609027.77
608848.2868
608647.8788
608455.3468
)
;
    }
}


// ************************************************************************* //
