/*--------------------------------*- C++ -*----------------------------------*\
  =========                 |
  \\      /  F ield         | OpenFOAM: The Open Source CFD Toolbox
   \\    /   O peration     | Website:  https://openfoam.org
    \\  /    A nd           | Version:  7
     \\/     M anipulation  |
\*---------------------------------------------------------------------------*/
FoamFile
{
    version     2.0;
    format      ascii;
    class       volScalarField;
    location    "0.0009";
    object      rho;
}
// * * * * * * * * * * * * * * * * * * * * * * * * * * * * * * * * * * * * * //

dimensions      [1 -3 0 0 0 0 0];

internalField   nonuniform List<scalar> 
1167
(
936.6789866
936.6057174
936.4486378
936.2164856
935.91437
935.5466738
935.1175969
934.6309822
934.0906748
933.50042
932.8637232
932.1840183
931.4646186
930.7088046
929.9195621
929.0999467
928.2528704
927.3813633
926.4879483
925.5753751
924.6464182
923.7034692
922.7493073
921.7862943
920.817208
919.8443076
918.8703532
917.8977032
916.9289096
915.9663037
915.0122789
914.0690024
913.1385565
912.2228937
936.5584841
936.4852063
936.3281114
936.0959441
935.7939547
935.4262698
934.9973657
934.5109493
933.9708765
933.3808502
932.7444763
932.0651923
931.3462885
930.5909715
929.8022993
928.9833305
928.1370908
927.2664121
926.3739279
925.4625408
924.5348183
923.5934077
922.6409196
921.6799472
920.713095
919.7428732
918.7718454
917.8025717
916.8374194
915.8788767
914.9291389
913.9904888
913.0648015
912.1541209
911.2599474
910.3837132
909.5266753
908.6897171
907.8736684
907.0790385
906.306086
905.5549709
904.8257413
904.1182059
903.43205
902.7668599
902.1221553
901.4973812
900.8919423
900.3051821
936.4380068
936.364722
936.2076152
935.9755412
935.6735809
935.3060345
934.8771877
934.3909781
933.8511494
933.2614234
932.6254029
931.9465232
931.2280891
930.4732963
929.6852313
928.8669789
928.0216242
927.1518381
926.2604219
925.3502866
924.4239275
923.4842002
922.5335447
921.5747778
920.6103287
919.6429516
918.6750067
917.7092448
916.7478446
915.7934424
914.8480399
913.9140147
912.9930555
912.0872907
911.1980246
910.3267591
909.4745851
908.6424075
907.8310561
907.040931
906.2723226
905.5253822
904.8001842
904.0964887
903.4140195
902.7523724
902.1110822
901.4896026
900.8873502
900.3036748
936.3175596
936.2442696
936.0871546
935.8552082
935.5532542
935.185869
934.7570703
934.2710763
933.7315019
933.1420877
932.5064336
931.8279748
931.1100325
930.3557931
929.568374
928.7509827
927.9064734
927.0376563
926.1474674
925.2386224
924.313811
923.3758386
922.4271885
921.4707493
920.5088877
919.5444605
918.5797859
917.6175855
916.6600979
915.709811
914.7688341
913.839352
912.9231317
912.0221627
911.1377121
910.2713037
909.4238712
908.5963599
907.7895569
907.0038072
906.2394185
905.4965624
904.7752582
904.0753005
903.3964233
902.7382309
902.100272
901.482008
900.8828666
900.3022032
936.197147
936.1238536
935.9668472
935.7349211
935.43298
935.0657633
934.637151
934.1512519
933.6119424
933.0228523
932.3875791
931.7095593
930.9921323
930.2384771
929.4518323
928.635261
927.7916579
926.9239098
926.03501
925.127558
924.2044548
923.2683144
922.3218757
921.3678281
920.4087484
919.4473216
918.4860565
917.527468
916.5739583
915.6278163
914.6912695
913.7663087
912.8547991
911.958535
911.0788301
910.2171541
909.3743516
908.5514146
907.7490156
906.9675276
906.2072501
905.4683765
904.750871
904.0545637
903.3791975
902.7243843
902.089686
901.4745704
900.8784756
900.3007619
936.0767736
936.0035513
935.8466048
935.6146855
935.3128776
934.9457228
934.5173081
934.0315848
933.4924799
932.9037272
932.2688508
931.5912899
930.8744034
930.1214321
929.3355666
928.5198333
927.6771986
926.810678
925.9230637
925.0171047
924.0958151
923.1616221
922.2175136
921.2659767
920.3097892
919.3514634
918.3936918
917.4387813
916.4892918
915.5473137
914.6151894
913.6947198
912.7878676
911.8962379
911.0212276
910.1641491
909.325874
908.5074054
907.7093058
906.9319791
906.1757176
905.4407369
904.7269481
904.0342156
903.3622904
902.7107915
902.0792928
901.4672678
900.8741641
900.2993467
935.9565678
935.8833545
935.7264124
935.4945062
935.1928624
934.8257538
934.3975467
933.9120644
933.3732025
932.7847306
932.1502609
931.4731957
930.7569404
930.0046618
929.2195629
928.404719
927.5631464
926.6978925
925.8116471
924.9073788
923.9878935
923.0557949
922.1140811
921.1651735
920.2119605
919.256836
918.3026091
917.3514484
916.4059845
915.4681908
914.5404584
913.6244436
912.7221925
911.835127
910.9647276
910.112156
909.278314
908.4642175
907.670324
906.8970691
906.1447395
905.4135733
904.7034293
904.0142053
903.3456604
902.6974192
902.069067
901.4600824
900.8699217
900.2979541
935.8364181
935.7632078
935.6062747
935.3744309
935.0729154
934.7059168
934.2778738
933.7926453
933.2540932
932.6659885
932.0319342
931.3553885
930.6397161
929.8881285
929.1038399
928.2899372
927.4495691
926.5855711
925.7007743
924.7982823
923.8806941
922.9508509
922.0115558
921.0654475
920.1152175
919.1634389
918.2127337
917.2654213
916.3239363
915.3903858
914.4669593
913.5553991
912.6576512
911.7750807
910.909213
910.0610642
909.2315704
908.4217568
907.6319854
906.8627223
906.1142765
905.3868285
904.6802657
903.9944921
903.3292738
902.6842407
902.0589884
901.453
900.86574
900.2965815
935.7163203
935.6431154
935.4861962
935.2545154
934.9530414
934.5862401
934.1582962
933.6733353
933.1351089
932.5473887
931.9137821
931.2377688
930.5227091
929.7718497
928.9884158
928.1755758
927.3364037
926.4737304
925.5905317
924.6898236
923.7742176
922.8467147
921.909922
920.9666923
920.0195164
919.07114
918.1239985
917.1805582
916.2430591
915.3137397
914.3945911
913.4874647
912.5941395
911.7160038
910.8545861
910.0107817
909.1856007
908.3799458
907.5942203
906.828877
906.0842515
905.3604561
904.657418
903.975043
903.3131035
902.6712344
902.0490407
901.4460092
900.8616123
900.2952266
935.5962789
935.5230817
935.3662337
935.1346696
934.8332455
934.4666524
934.0388849
933.554142
933.0162581
932.4289415
931.795805
931.1203506
930.4059357
929.6558431
928.8733253
928.0616337
927.2236674
926.3623855
925.4808977
924.5820095
923.6685279
922.7433795
921.8091728
920.8688799
919.9248175
918.9798888
918.0363428
917.0967893
916.1632754
915.2381692
914.3232666
913.4205279
912.5315691
911.6578534
910.8007647
909.9612316
909.140289
908.3387205
907.5569718
906.7954831
906.054617
905.3344186
904.6348543
903.9558313
903.297128
902.6583831
902.0392106
901.4391008
900.8575333
900.2938877
935.476298
935.4031212
935.2464236
935.0148976
934.7135791
934.3471594
933.9196431
933.4350843
932.8975495
932.3106573
931.6780151
931.0031482
930.2894122
929.5401271
928.7586729
927.9480765
927.111376
926.2516038
925.3718425
924.4748466
923.5635989
922.6408419
921.7093769
920.7719802
919.831155
918.889639
917.9497647
917.0140526
916.0845441
915.1636017
914.2529106
913.3545126
912.4698648
911.6005062
910.7476803
909.9123501
909.095577
908.2980286
907.520193
906.7624996
906.0253374
905.3086856
904.612549
903.9368357
903.2813295
902.6456728
902.0294877
901.4322675
900.8534984
900.2925633
935.3564457
935.2833548
935.1266846
934.8952041
934.5940862
934.2277668
933.800516
933.3162771
932.7790058
932.1925462
931.5604243
930.8861753
930.1731674
929.4248343
928.6443713
927.8349215
926.9995447
926.1414012
925.2633757
924.3683481
923.4593927
922.5390913
921.6104232
920.6759711
919.7384388
918.8003492
917.86419
916.9322931
916.0068275
915.0899742
914.1834995
913.289354
912.4089631
911.5439014
910.6952755
909.8640843
909.0514165
908.257827
907.4838467
906.7299212
905.9963833
905.2832321
904.590481
903.9180388
903.2656942
902.6330924
902.0198636
901.4255033
900.8495044
900.2912523
935.2367356
935.1636589
935.007021
934.7755936
934.4746864
934.1084803
933.6815104
933.1976102
932.6607377
932.0746852
931.4430922
930.7695111
930.0573088
929.3098648
928.5304367
927.7221856
926.8882489
926.0317314
925.1555049
924.2626052
923.3559063
922.4381349
921.5122967
920.5808316
919.646624
918.7119824
917.7795471
916.8514623
915.9300232
915.0172319
914.1149617
913.2249964
912.3488099
911.4879874
910.6435022
909.8164268
909.0077679
908.2180801
907.4479011
906.6976971
905.9677318
905.2580386
904.5686339
903.899427
903.2502107
902.6206331
902.0103316
901.4188036
900.8455484
900.2899537
935.1170973
935.0440372
934.8874368
934.6561799
934.355385
933.989422
933.5626331
933.0790904
932.542638
931.9570739
931.3260614
930.65315
929.941742
929.1952297
928.4168838
927.6098833
926.7774891
925.922604
925.048236
924.1575221
923.2531346
922.3380244
921.414986
920.4866005
919.5556826
918.6245196
917.6957969
916.7715173
915.8540852
914.9453272
914.0472234
913.1613939
912.2894129
911.4327192
910.5923191
909.7693121
908.9645976
908.1787586
907.4123304
906.6658005
905.9393646
905.2330895
904.5469946
903.8809893
903.2348704
902.608288
902.0008864
901.4121648
900.8416283
900.288667
934.9975346
934.9244935
934.7679364
934.5368803
934.236187
933.8704901
933.443892
932.960725
932.4247153
931.8396656
931.2092629
930.5370547
929.8264798
929.0809424
928.3037258
927.4981234
926.6672275
925.8140304
924.9416511
924.0530987
923.1510751
922.2386733
921.3184759
920.3932373
919.4655917
918.5379871
917.6129047
916.6924661
915.778972
914.8742182
913.9802425
913.0985045
912.2306801
911.378061
910.5416926
909.7227004
908.9218782
908.1398381
907.3771137
906.6342138
905.9112665
905.2083721
904.5255527
903.8627173
903.2196664
902.5960516
901.991524
901.405584
900.8377424
900.2873914
934.8780511
934.8050319
934.6486413
934.4176773
934.1170975
933.7516813
933.3254198
932.8425209
932.3069776
931.7224693
931.0927072
930.4212371
929.7115344
928.9670152
928.1910276
927.3868345
926.5574743
925.7060183
924.8357075
923.949337
923.0497716
922.1400715
921.222751
920.3006847
919.3763277
918.4522868
917.530841
916.6142555
915.7046493
914.8039145
913.9139809
913.0362919
912.1725762
911.323982
910.4915945
909.6765661
908.8795872
908.101299
907.3422661
906.6029225
905.8834256
905.1838766
904.5043
903.8446042
903.2045931
902.5839197
901.9822412
901.399059
900.8338894
900.2861267
934.7586509
934.6857331
934.529452
934.2985757
933.9982288
933.6330015
933.2070954
932.7245592
932.1894323
931.605494
930.9764044
930.3057082
929.5969178
928.8534966
928.078811
927.2760119
926.4482379
925.5986387
924.73038
923.8462386
922.9492288
922.0422082
921.127844
920.2089257
919.2878694
918.3673941
917.4495783
916.5368292
915.6310868
914.7343568
913.8484077
912.9747258
912.1150727
911.2704558
910.4420344
909.6308881
908.8377059
908.0631252
907.3077431
906.571915
905.8558321
905.1595948
904.4832298
903.8266448
903.1896465
902.5718891
901.9730354
901.3925881
900.8300683
900.2848725
934.6394656
934.5665788
934.4103592
934.1795803
933.8794969
933.5144567
933.0889252
932.6068284
932.0721574
931.4887484
930.8603642
930.190479
929.4826987
928.7404411
927.9670203
927.1656638
926.3395251
925.4918769
924.6256705
923.7438014
922.8493844
921.9450751
921.0337322
920.1179442
919.200269
918.2832865
917.3690964
916.4601606
915.5582568
914.6654988
913.7834968
912.9138403
912.0581454
911.2174602
910.392973
909.5856487
908.796219
908.0253035
907.2735321
906.5411822
905.8284785
905.1355206
904.4623373
903.8088351
903.1748234
902.5599572
901.963905
901.38617
900.8262784
900.2836285
934.5203749
934.4475188
934.2913674
934.0607372
933.7608891
933.3961067
932.9709154
932.4892806
931.9551448
931.3723669
930.7446863
930.075674
929.3688909
928.6277769
927.8556653
927.0557982
926.2314151
925.3856903
924.52158
923.6421117
922.7502337
921.8486652
920.9403661
920.0277236
919.1134497
918.1999433
917.2894414
916.3842263
915.4861351
914.5973167
913.719225
912.8535553
912.0017739
911.1649765
910.3443789
909.5408333
908.7551139
907.9878296
907.2396241
906.5107166
905.8013588
905.1116492
904.4416184
903.7911719
903.1601213
902.5481222
901.9548484
901.3798037
900.8225191
900.2823946
934.4013797
934.3285575
934.1724812
933.9420935
933.6424107
933.2779785
932.8530722
932.3719228
931.8383492
931.2562335
930.6293121
929.9611907
929.2554407
928.5155127
927.7447545
926.9464253
926.1238734
925.2800819
924.4181095
923.5410873
922.6517748
921.7530376
920.8477312
919.9382481
919.0273795
918.1173452
917.2105188
916.3090049
915.4147667
914.5297896
913.6555724
912.7938498
911.9459407
911.112989
910.2962383
909.4964295
908.7143801
907.9507196
907.206012
906.4805125
905.7744683
905.0879769
904.4210704
903.7736529
903.1455384
902.5363827
901.9458648
901.3734886
900.81879
900.2811705
934.2824844
934.2096993
934.0537539
933.8235704
933.5240671
933.1600028
932.7354637
932.2547612
931.7217774
931.1403544
930.5142262
929.8470331
929.1423565
928.4036571
927.634297
926.8376528
926.0168683
925.1750534
924.3153196
923.4407181
922.5540021
921.658148
920.7558168
919.8495586
918.9420421
918.0354746
917.1323099
916.2344774
915.3440692
914.4628989
913.5925274
912.7347078
911.8906319
911.0615208
910.2485382
909.4524269
908.6740089
907.9139349
907.1726899
906.4505651
905.7478034
905.0645007
904.4006909
903.7562766
903.1310735
902.5247378
901.9369533
901.3672242
900.8150908
900.2799563
934.1636935
934.0909585
933.9352176
933.7051732
933.4059075
933.0421857
932.618101
932.1378036
931.6054364
931.0247374
930.3994367
929.7332093
929.0296461
928.2922172
927.5243689
926.7293804
925.9104044
925.0706064
924.2131891
923.3410003
922.4569082
921.5639565
920.6646138
919.7616154
918.8574231
917.9543639
917.0547981
916.1606268
915.2740222
914.3966285
913.5301209
912.6761151
911.8358342
911.0105367
910.201269
909.4088169
908.6339931
907.8774695
907.1396532
906.4208709
905.7213611
905.0412185
904.3804784
903.7390416
903.1167257
902.5131868
901.9281135
901.3610102
900.8114214
900.2787519
934.0450692
933.972445
933.816801
933.586907
933.2879795
932.9245326
932.5009233
932.0211763
931.4893332
930.9093896
930.2849511
929.6197269
928.9173166
928.1812624
927.4149429
926.6216127
925.8044856
924.966793
924.1116733
923.2419272
922.3605763
921.4704571
920.5741137
919.6743791
918.7735093
917.8739771
916.9779681
916.0874618
915.2046106
914.3309639
913.4682866
912.618059
911.781536
910.9600137
910.1544232
909.3655933
908.5943445
907.8413184
907.1068978
906.3914268
905.6951393
905.0181288
904.3604317
903.7219471
903.1024943
902.5017293
901.9193452
901.3548463
900.8077815
900.2775572
924.8636125
924.01077
923.1434954
922.2649103
921.3776419
920.4843681
919.5878374
918.6902881
917.7942733
916.9018062
916.0149913
915.1358209
914.265892
913.4070123
912.5605284
911.7277275
910.9099436
910.1079939
909.3227504
908.5550597
907.8054776
907.0744209
906.3622306
905.6691364
904.9952304
904.34055
903.7049927
903.0883791
902.490365
901.9106481
901.3487325
900.8041713
900.2763722
)
;

boundaryField
{
    front_top
    {
        type            wedge;
    }
    front_middle
    {
        type            wedge;
    }
    front_bottom
    {
        type            wedge;
    }
    back_top
    {
        type            wedge;
    }
    back_middle
    {
        type            wedge;
    }
    back_bottom
    {
        type            wedge;
    }
    axis_top
    {
        type            symmetryPlane;
    }
    axis_middle
    {
        type            symmetryPlane;
    }
    axis_bottom
    {
        type            symmetryPlane;
    }
    wall_top
    {
        type            calculated;
        value           nonuniform 0();
    }
    wall_middle
    {
        type            calculated;
        value           nonuniform 0();
    }
    wall_bottom
    {
        type            calculated;
        value           uniform 900.0184441;
    }
    inlet
    {
        type            calculated;
        value           nonuniform 0();
    }
    outlet
    {
        type            calculated;
        value           nonuniform 0();
    }
    procBoundary1to0
    {
        type            processor;
        value           nonuniform List<scalar> 
51
(
933.9266251
933.8540485
933.698509
933.4687768
933.1702025
932.807049
932.3839369
931.9047663
931.373599
930.794359
930.1707929
929.5066257
928.8054617
928.0707861
927.3059845
926.5143533
925.6991146
925.6991146
924.7610137
923.910479
923.0457532
922.1699028
921.2855021
920.3953366
919.5019805
918.6077785
917.7152393
916.8262992
915.9431549
915.0676406
914.201425
913.3462873
912.5035138
911.6744472
910.860319
910.0619749
909.280283
908.5161159
907.7699448
907.0422204
906.3332808
905.6433513
904.9725224
904.3208328
903.6881779
903.0743798
902.4790939
901.9020222
901.3426687
900.8005906
900.2751969
)
;
    }
    procBoundary1to2
    {
        type            processor;
        value           nonuniform List<scalar> 
51
(
936.7995887
936.7262504
936.5691892
936.3370564
936.0348199
935.6671184
935.2378751
934.7510694
934.2106522
933.6201346
932.9831084
932.3030242
931.583175
930.8267842
930.0370076
929.216792
928.3690477
927.4966785
926.6024265
925.6888094
924.758725
923.8144674
922.8587325
921.893938
920.9227291
919.9473822
918.9706517
917.9947926
917.0225003
916.0559378
915.0976956
914.1498177
913.2145976
912.2938937
911.3237193
911.3237193
910.442398
909.5803627
908.7384794
907.9175835
907.1183008
906.3408605
905.5854338
904.8520433
904.1405483
903.4505942
902.781757
902.1335397
901.5053779
900.896663
900.3067315
)
;
    }
}


// ************************************************************************* //
