/*--------------------------------*- C++ -*----------------------------------*\
  =========                 |
  \\      /  F ield         | OpenFOAM: The Open Source CFD Toolbox
   \\    /   O peration     | Website:  https://openfoam.org
    \\  /    A nd           | Version:  7
     \\/     M anipulation  |
\*---------------------------------------------------------------------------*/
FoamFile
{
    version     2.0;
    format      ascii;
    class       volScalarField;
    location    "0.0009";
    object      T;
}
// * * * * * * * * * * * * * * * * * * * * * * * * * * * * * * * * * * * * * //

dimensions      [0 0 0 1 0 0 0];

internalField   nonuniform List<scalar> 
1167
(
455.2237979
455.3350456
455.5736046
455.926324
456.3856041
456.944981
457.5982925
458.3399369
459.1643192
460.0660002
461.0399059
462.0810661
463.1846853
464.3460051
465.5607032
466.8243318
468.1326429
469.4811819
470.8662543
472.2837884
473.7296462
475.2002561
476.6914132
478.1995333
479.7203491
481.2503743
482.7853027
484.3214266
485.8547001
487.3813934
488.8976469
490.3999301
491.8848201
493.3490757
455.4067717
455.5180611
455.7567048
456.1095379
456.5687443
457.1282479
457.7814644
458.5229971
459.347233
460.2487959
461.2224569
462.2632381
463.3663773
464.5272277
465.7413549
467.0043044
468.3116504
469.6592427
471.0432137
472.4592525
473.9035392
475.372102
476.8609956
478.3662704
479.8839269
481.4100804
482.9407294
484.471844
485.9996653
487.5202111
489.0299324
490.5251119
492.002654
493.45917
494.8921178
496.2990483
497.6777789
499.0267175
500.3443509
501.6296788
502.8821059
504.1011981
505.2867057
506.438773
507.5577521
508.6441641
509.6986476
510.7219715
511.7149803
512.6786277
455.5897542
455.7010829
455.939806
456.2925883
456.7518686
457.3113052
457.9646024
458.7060103
459.5300849
460.4314199
461.404789
462.4452158
463.5479146
464.7082534
465.9217521
467.1839136
468.4902185
469.8367631
471.2194182
472.6338567
474.0763688
475.542655
477.0290327
478.531199
480.045425
481.5674391
483.0935551
484.6194382
486.1416235
487.6558906
489.1589939
490.6470627
492.1172966
493.5661703
494.9914552
496.3905904
497.7616608
499.103041
500.4132195
501.6913747
502.9368616
504.1492629
505.3282882
506.474163
507.5871789
508.6678434
509.7167719
510.7347211
511.7225171
512.6811048
455.7727382
455.8841034
456.1229004
456.4755794
456.9349682
457.4943032
458.1476949
458.8889645
459.7128622
460.6139513
461.5870081
462.6270548
463.7292787
464.88906
466.1018696
467.363019
468.6683424
470.0137195
471.3948095
472.8075853
474.2480329
475.7119269
477.1955142
478.6943755
480.204876
481.7225786
483.2438592
484.7644247
486.2807118
487.7887314
489.2850647
490.7661446
492.2290449
493.6704606
495.0882223
496.4797346
497.8433354
499.1773362
500.4802954
501.7514829
502.9902279
504.1960818
505.3688462
506.5086926
507.6158979
508.6909578
509.7344662
510.7471691
511.7298758
512.6835233
455.9557167
456.0671156
456.3058089
456.6585477
457.118035
457.6772573
458.3305326
459.0718475
459.8955518
460.7963758
461.7690978
462.808736
463.9104482
465.0696244
466.2815461
467.5417451
468.8459918
470.1900446
471.5694712
472.9804224
474.4185522
475.8799299
477.3604003
478.8558513
480.3623154
481.8756207
483.3918395
484.9070004
486.4172783
487.9189959
489.4085443
490.8826627
492.3382668
493.7723627
495.1827069
496.5667903
497.9230956
499.24986
500.5458292
501.810229
503.0424045
504.2418739
505.4085297
506.5424882
507.6440136
508.7135908
509.7517941
510.7593602
511.7370828
512.6858919
456.1386827
456.2500021
456.4886657
456.8414847
457.3008874
457.8601588
458.5133006
459.2545373
460.07814
460.9786781
461.9510404
462.9902393
464.0914005
465.2498169
466.4608418
467.7200616
469.0231337
470.3656149
471.7433814
473.1523498
474.5879941
476.0466719
477.5238349
479.0156842
480.517933
482.0266768
483.5376946
485.0473399
486.5515345
488.0469129
489.5296809
490.9968787
492.4452651
493.8721476
495.2751499
496.6520159
498.0011858
499.3208806
500.6100245
501.8677959
503.0935535
504.286781
505.4474597
506.575652
507.6716102
508.7358097
509.7688069
510.7713302
511.7441593
512.6882177
456.3214407
456.4327751
456.6714933
457.024383
457.4836538
458.0429985
458.6959911
459.4370498
460.2604917
461.1608303
462.1328173
463.1715197
464.2719897
465.4296318
466.6397781
467.8979381
469.1996891
470.5405358
471.9165105
473.3231856
474.7563555
476.2121
477.6858505
479.1739072
480.6718059
482.1758245
483.6815543
485.1855637
486.6836596
488.1726594
489.6486893
491.1090179
492.5502701
493.970046
495.3658352
496.7356241
498.0778061
499.3905824
500.6730482
501.9243331
503.1438066
504.3309175
505.4857343
506.6082664
507.6987555
508.7576688
509.7855459
510.7831082
511.7511224
512.6905062
456.5041606
456.615519
456.8542848
457.2071701
457.6663633
458.2256838
458.8785935
459.6194544
460.4426332
461.3426394
462.3142369
463.3524053
464.4522572
465.6091266
466.8183262
468.0753447
469.3755524
470.7147792
472.088836
473.4930815
474.9236293
476.3761849
477.8464808
479.3304734
480.8240032
482.323063
483.823535
485.3217465
486.8138113
488.2963326
489.7657548
491.2192086
492.6534771
494.0662514
495.4549497
496.8177923
498.1531189
499.459117
500.7350376
501.9799627
503.1932274
504.3743762
505.5234326
506.6403981
507.7255045
508.7792119
509.8020443
510.7947176
511.7579859
512.6927619
456.6868482
456.7982271
457.037033
457.3897607
457.8490085
458.4081715
459.0610971
459.8017388
460.6246299
461.5242767
462.4954347
463.5330488
464.632236
465.7882743
466.9964572
468.2521452
469.5508209
470.888319
472.2602229
473.662024
475.0898135
476.5390437
478.0057496
479.4855489
480.9745929
482.4685996
483.9637418
485.4561117
486.9421283
488.4181843
489.8810375
491.3276437
492.7550519
494.1609163
495.54265
496.8986681
498.2271924
499.5266092
500.7961047
502.034784
503.2419409
504.4172323
505.5606188
506.6721009
507.7519012
508.800474
509.818329
510.806177
511.7647608
512.6949886
456.8694971
456.9808928
457.2196516
457.572292
458.0315813
458.5905702
459.2433936
459.9838915
460.8064687
461.7057262
462.67641
463.7134281
464.8119006
465.9670473
467.1741176
468.4283407
469.7254673
471.061131
472.4307041
473.8300018
475.2548075
476.7006862
478.163667
479.6391767
481.1236366
482.612513
484.1022696
485.5887689
487.0687326
488.5383461
489.9946754
491.4345025
492.8551354
494.2541086
495.6290673
496.9783745
498.300213
499.593162
500.8563415
502.0888782
503.2900242
504.4595467
505.5973446
506.7034178
507.7779812
508.8214834
509.8344213
510.8175015
511.7714561
512.697189
457.0521007
457.1634939
457.4020849
457.7547576
458.2140036
458.772871
459.4254779
460.1658834
460.9881362
461.8869723
462.8571439
463.8935214
464.9912256
466.1454169
467.3511455
468.6039842
469.8994668
471.2331102
472.6003254
473.9970039
475.4186515
476.8611168
478.3201243
479.7914034
481.2710793
482.7548752
484.2391203
485.7198153
487.1936886
488.6569324
490.1067878
491.5399053
492.9538467
494.3460251
495.7143112
497.0570139
498.3722744
499.6588598
500.9158234
502.1423116
503.3375346
504.5013685
505.6336517
506.734384
507.8037728
508.8422628
509.8503385
510.8287032
511.7780787
512.6993656
457.2345552
457.3458462
457.5844566
457.9371504
458.3962082
458.9550654
459.6074335
460.3475387
461.1695974
462.067999
463.0376178
464.0733072
465.1701665
466.3231785
467.5276752
468.7790484
470.0727952
471.4042312
472.7690711
474.1630088
475.5814036
477.0203514
478.4752945
479.9422623
481.4170618
482.8957507
484.3744104
485.8493371
487.3170553
488.7740429
490.2174113
491.6439554
493.0512873
494.4367633
495.7984737
497.1346712
498.4434537
499.7237717
500.9746108
502.1950926
503.3845199
504.5427384
505.6695742
506.7650274
507.8292991
508.8628304
509.8660943
510.8397916
511.7846345
512.7015202
457.4168402
457.5281379
457.7667603
458.1194633
458.5783171
459.1371442
459.7892497
460.5290257
461.3506828
462.2486881
463.2177402
464.2526638
465.3485574
466.5004855
467.7036815
468.9535067
470.2453352
471.5745654
472.9369291
474.3278738
475.743068
477.1783779
478.6292005
480.0917861
481.5616542
483.0351968
484.5082523
485.9774104
487.4389944
488.889764
490.3266594
491.7467409
493.1475431
494.5264051
495.8816316
497.2113579
498.513815
499.787955
501.0327547
502.2473033
503.4310171
504.5836881
505.7051389
506.7953705
507.8545782
508.8832006
509.8816998
510.8507744
511.791128
512.7036542
457.5990623
457.7103633
457.9489895
458.3015228
458.7603226
459.3189211
459.9709164
460.7103337
461.5315561
462.4290399
463.3974452
464.431599
465.5265433
466.6773203
467.8791411
469.1273361
470.4170854
471.7440971
473.1038891
474.4917475
475.9036516
477.3351144
478.7818595
480.2399126
481.7048995
483.173243
484.6407068
486.1041026
487.5595781
489.0041705
490.4346494
491.8483347
493.2426012
494.6150224
495.9638508
497.2871789
498.5834118
499.8514572
501.0902967
502.2989869
503.4770559
504.6242428
505.740367
506.8254308
507.8796246
508.9033847
509.8971634
510.8616577
511.7975625
512.7057689
457.781216
457.8925163
458.1311377
458.4834549
458.9422167
459.5005513
460.1524211
460.8914516
461.7122042
462.609126
463.5768385
464.6101701
465.7041042
466.8536623
468.0540331
469.3003677
470.5881038
471.9128083
473.269823
474.6546296
476.063158
477.4906956
478.9332943
480.3867049
481.8468333
483.3098467
484.7718283
486.2293999
487.6788719
489.117329
490.5414477
491.9488034
493.3366087
494.7026722
496.0451849
497.3621983
498.6522881
499.914317
501.1472705
502.3501721
503.5226607
504.664423
505.7752754
506.8552222
507.9044494
508.9233916
509.9124918
510.872446
511.803941
512.7078652
457.9632954
458.0745909
458.3130193
458.6652859
459.1239915
459.6820398
460.3335606
461.0723685
461.8926144
462.788932
463.7559038
464.7883585
465.881221
467.0294917
468.2282569
469.4727116
470.7583741
472.0806862
473.4347962
474.8165157
476.2215177
477.6451366
479.0835284
480.532252
481.9874917
483.445162
484.9016625
486.3533863
487.7969295
489.2292232
490.6471145
492.0482046
493.4296214
494.7894035
496.125679
497.4364569
498.7204802
499.9765661
501.2036516
502.4008821
503.567851
504.7042449
505.8098776
506.8847558
507.9290613
508.9432282
509.9276903
510.883143
511.8102655
512.7099437
458.1452944
458.2564638
458.4947861
458.8470086
459.3054756
459.8633773
460.5145202
461.2529601
462.0727752
462.9684441
463.9346254
464.9661468
466.0578746
467.2047335
468.4017783
469.6443745
470.9278829
472.2476198
473.5988477
474.9774032
476.3787226
477.7984536
479.2325098
480.6765799
482.1269075
483.579227
485.0302524
486.4761502
487.9137985
489.3399469
490.7516985
492.1465863
493.5216847
494.8752585
496.2053176
497.5099885
498.7880179
500.0382305
501.2595116
502.4511356
503.6126423
504.7437213
505.844184
506.9140399
507.9534673
508.9628998
509.9427628
510.8937515
511.8165376
512.712005
458.3270124
458.4381628
458.676452
459.0286157
459.486797
460.0445546
460.6952897
461.4332438
462.252567
463.1476487
464.1129878
465.1435182
466.2339591
467.3793029
468.5746827
469.8153431
471.0966188
472.4136316
473.7619736
475.1372944
476.5348694
477.9506588
479.3802731
480.8197136
482.2649977
483.7120767
485.1576292
486.597733
488.0295222
489.4495734
490.8552411
492.2438933
493.612837
494.9602723
496.2841633
497.5828213
498.8549258
500.0993311
501.3148712
502.5009474
503.657047
504.7828622
505.8782029
506.9430811
507.9776725
508.9824104
509.9577124
510.9042736
511.8227587
512.7140494
458.5086323
458.6197643
458.85801
459.2100364
459.667975
460.22548
460.8758596
461.6132927
462.4320016
463.3263392
464.2908377
465.3202801
466.4094524
467.5533104
468.7469548
469.9856047
471.2644583
472.5787869
473.9241719
475.2960539
476.6899648
478.1017626
479.5268956
480.961678
482.4018826
483.843743
485.2837194
486.7181716
488.1441385
489.5581402
490.9577786
492.3402534
493.7031105
495.0444746
496.3622662
497.6549788
498.921224
500.1598751
501.3697445
502.5503293
503.7010746
504.8216756
505.9119405
506.9718845
508.0016809
509.0017631
509.9725413
510.9147108
511.8289295
512.7160774
458.6901528
458.8012613
459.0394532
459.3911989
459.8490012
460.4061121
461.0562202
461.7930959
462.6111485
463.5046932
464.4682647
465.4965903
466.5844372
467.7267423
468.9185809
470.1551429
471.4314544
472.7430805
474.0854403
475.4538095
476.8440111
478.2516715
479.6723991
481.1024974
482.537612
483.9742558
485.4086718
486.8374991
488.2575757
489.6656801
491.0593427
492.4356998
493.7925329
495.1278905
496.4396487
497.7264803
498.9869292
500.2198359
501.424143
502.5992908
503.7447328
504.8601674
505.9454015
507.0004538
508.0254953
509.0209601
509.9872512
510.9250643
511.8350509
512.718089
458.8715671
458.9826472
459.2206999
459.5722231
460.0298672
460.5865567
461.2362671
461.9726435
462.7899968
463.682701
464.6452922
465.672442
466.7589001
467.8995846
469.0895462
470.32379
471.5976557
472.9065091
474.2456837
475.6105761
476.9970163
478.4004542
479.8167999
481.2421071
482.6722108
484.1036424
485.5325155
486.9557452
488.3699639
489.7722219
491.1599513
492.5302578
493.8811264
495.2104826
496.5163311
497.7973429
499.0520555
500.2792761
501.4780762
502.6478392
503.7880274
504.8983422
505.9785895
507.0287917
508.0491179
509.040003
510.0018431
510.9353349
511.8411232
512.7200846
459.0528683
459.1639002
459.401701
459.7531009
460.2104979
460.7668043
461.4159827
462.1519237
462.9685358
463.8603504
464.8219073
465.8478225
466.9328284
468.0718258
469.2597327
470.4917011
471.7630548
473.0690697
474.4049345
475.7663589
477.1489914
478.5481726
479.9601116
481.3805685
482.8057013
484.2318507
485.6552762
487.0729363
488.4813352
489.8777913
491.2595545
492.6239496
493.9689118
495.2923071
496.5923287
497.86758
499.1166141
500.3382051
501.5315515
502.6959805
503.8309628
504.9362035
506.011507
507.0569002
508.07255
509.0588928
510.0163179
510.945523
511.8471467
512.722064
459.2339612
459.3448521
459.5825653
459.9338245
460.3908201
460.9468465
461.5954605
462.3307423
463.1467543
464.0376301
464.9980983
466.02272
467.1062109
468.2433586
469.4291818
470.6588685
471.9276446
473.2306808
474.5632616
475.9211681
477.2998056
478.6948357
480.102347
481.5179432
482.9381035
484.3589372
485.7769775
487.1890581
488.591713
489.9824109
491.358258
492.7167952
494.0559075
495.3734006
496.6676535
497.9372015
499.1805859
500.3966308
501.584575
502.7437193
503.8735428
504.9737537
506.044156
507.0847804
508.0957926
509.0776301
510.030676
510.955629
511.8531216
512.7240275
473.3913423
474.720668
476.0750081
477.4496083
478.8404548
480.2434243
481.6542498
483.069437
484.484966
485.8976408
487.3040961
488.7011184
490.0861009
491.4560808
492.8088119
494.1421287
495.4537761
496.7423162
498.0062162
499.2439762
500.4545596
501.6371517
502.7910594
503.9157698
505.0109949
506.0765378
507.1124335
508.1188463
509.0962155
510.0449178
510.9656531
511.8590481
512.7259751
)
;

boundaryField
{
    front_top
    {
        type            wedge;
    }
    front_middle
    {
        type            wedge;
    }
    front_bottom
    {
        type            wedge;
    }
    back_top
    {
        type            wedge;
    }
    back_middle
    {
        type            wedge;
    }
    back_bottom
    {
        type            wedge;
    }
    axis_top
    {
        type            symmetryPlane;
    }
    axis_middle
    {
        type            symmetryPlane;
    }
    axis_bottom
    {
        type            symmetryPlane;
    }
    wall_top
    {
        type            convectiveRadiativeHeatFlux;
        mode            convectiveRadiative;
        kappaMethod     fluidThermo;
        kappa           none;
        alphaAni        Anialpha;
        h               nonuniform 0();
        Ta              constant 513.15;
        emissivityNozzle 0.95;
        emissivityFilament 0.95;
        dNozzle         2;
        dFilament       1.65;
        refValue        nonuniform 0();
        refGradient     nonuniform 0();
        valueFraction   nonuniform 0();
        value           nonuniform 0();
    }
    wall_middle
    {
        type            fixedValue;
        value           nonuniform 0();
    }
    wall_bottom
    {
        type            fixedValue;
        value           uniform 513.15;
    }
    inlet
    {
        type            fixedValue;
        value           nonuniform 0();
    }
    outlet
    {
        type            zeroGradient;
    }
    procBoundary1to0
    {
        type            processor;
        value           nonuniform List<scalar> 
51
(
459.4148248
459.5256713
459.763285
460.1143859
460.5709569
461.1266745
461.7746901
462.5092725
463.3244505
464.214466
465.1738288
466.1970722
467.2789027
468.4141923
469.5979466
470.825286
472.0914207
472.0914207
473.5511338
474.8771532
476.2278028
477.5984107
478.9850433
480.383406
481.7895031
483.1996709
484.6099572
486.0172862
487.4181453
488.8095708
490.1888416
491.5530396
492.9000151
494.2275136
495.533445
496.8163266
498.0746325
499.3068218
500.5119952
501.6892847
502.838003
503.9576455
505.047928
506.108653
507.1398596
508.1417114
509.1146489
510.0590432
510.9755953
511.8649261
512.7279066
)
;
    }
    procBoundary1to2
    {
        type            processor;
        value           nonuniform List<scalar> 
51
(
455.04072
455.152044
455.3905136
455.7431128
456.2024584
456.7616994
457.4150962
458.156841
458.9811789
459.8830299
460.85719
461.8986649
463.0026922
464.1646031
465.3798158
466.6440511
467.9530655
469.3026019
470.688628
472.1074346
473.5546941
475.0269892
476.520248
478.0308024
479.5545967
481.0881218
482.6270849
484.1679457
485.7064367
487.2390986
488.7617638
490.2711009
491.7633537
493.2354335
494.7898281
494.7898281
496.2047365
497.5913354
498.9480587
500.2733834
501.5661188
502.8257147
504.0517164
505.2439135
506.4023659
507.5274882
508.6198164
509.6800142
510.7088647
511.7072326
512.6760814
)
;
    }
}


// ************************************************************************* //
