/*--------------------------------*- C++ -*----------------------------------*\
  =========                 |
  \\      /  F ield         | OpenFOAM: The Open Source CFD Toolbox
   \\    /   O peration     | Website:  https://openfoam.org
    \\  /    A nd           | Version:  7
     \\/     M anipulation  |
\*---------------------------------------------------------------------------*/
FoamFile
{
    version     2.0;
    format      ascii;
    class       volScalarField;
    location    "0.0009";
    object      thermo:mu;
}
// * * * * * * * * * * * * * * * * * * * * * * * * * * * * * * * * * * * * * //

dimensions      [1 -1 -1 0 0 0 0];

internalField   nonuniform List<scalar> 
1167
(
62962.7062
62423.8774
61286.58747
59649.3922
57594.06445
55202.32378
52555.48851
49729.98054
46796.93453
43819.63394
40851.79811
37938.14351
35114.29048
32407.64111
29837.27309
27416.22532
25151.72055
23046.83927
21099.92955
19307.29427
17663.25716
16160.10266
14789.90228
13543.61067
12412.56986
11387.55446
10460.14402
9621.861637
8864.876984
8181.697144
7565.437461
7009.638184
6508.37929
6056.24441
62079.34554
61549.1903
60430.19593
58819.30683
56797.81419
54444.29762
51840.4177
49060.3681
46174.11336
43243.65143
40322.29342
37453.97998
34673.62648
32007.94902
29476.02904
27090.73825
24859.50949
22784.89072
20865.59413
19098.29903
17477.03137
15994.64988
14643.07605
13413.7196
12297.81778
11286.55521
10371.4145
9544.224683
8797.106954
8122.801691
7514.39319
6965.605428
6470.503527
6023.823867
5620.585976
5256.331998
4927.038501
4629.016436
4359.003744
4114.034653
3891.439874
3688.858623
3504.196878
3335.564946
3181.282259
3039.856337
2909.964965
2790.432338
2680.216098
2578.386161
61210.48122
60688.85219
59587.84168
58003.50347
56014.55972
53699.34919
51136.9169
48401.53377
45561.26031
42677.1227
39801.50806
36977.62001
34239.86923
31614.51872
29120.46809
26770.48156
24572.03632
22527.26476
20635.3409
18893.00869
17294.27022
15832.44737
14499.31192
13286.70916
12185.7765
11188.09601
10285.05546
9468.78078
8731.350449
8065.734387
7464.996023
6923.032656
6433.911214
5992.517295
5593.874092
5233.648213
4907.832365
4612.825065
4345.430697
4102.707934
3882.051047
3681.141422
3497.929497
3330.545494
3177.345502
3036.861538
2907.793222
2788.981919
2679.400463
2578.130671
60355.87715
59842.63023
58759.29875
57201.24248
55244.09521
52966.61601
50444.81398
47753.32028
44958.23342
42119.62578
39288.97683
36508.77348
33812.93525
31227.28091
28770.53211
26455.59928
24289.21576
22273.90894
20409.15852
18691.36277
17115.00374
15673.41088
14358.54803
13162.46979
12076.36028
11092.03856
10200.96779
9395.37178
8667.500489
8010.332081
7417.124299
6881.766855
6398.4854
5962.194693
5568.002494
5211.673758
4889.21978
4597.130708
4332.260877
4091.709583
3872.927317
3673.643403
3491.829854
3325.657081
3173.509238
3033.941705
2905.674946
2787.566716
2678.604401
2577.881248
59515.29956
59010.29363
57945.10021
56412.10896
54486.21629
52245.80764
49764.67049
47115.57256
44364.89307
41571.03605
38784.59239
36047.34944
33392.747
30846.16912
28426.42192
26145.76813
24011.00403
22024.83161
20186.8549
18493.30197
16939.13289
15517.45856
14220.74893
13040.89923
11969.48436
10998.25366
10118.99093
9323.854335
8605.358279
7956.452403
7370.59798
6841.679146
6364.090131
5932.747291
5542.882273
5190.323094
4871.126934
4581.873745
4319.441217
4080.995535
3864.032521
3666.328055
3485.874458
3320.88117
3169.759124
3031.086054
2903.602392
2786.181593
2677.825037
2577.636996
58688.51742
58192.10316
57144.37232
55635.894
53741.42091
51536.73434
49095.56897
46488.51102
43781.102
41031.23304
38288.25131
35593.26038
32979.23044
30471.33562
28087.90761
25840.94201
23737.36078
21780.11647
19968.37703
18298.7705
16766.51453
15364.51482
14085.72866
12921.8943
11864.96381
10906.62308
10038.96961
9254.101535
8544.793313
7903.971532
7325.299004
6802.659198
6330.613552
5904.083724
5518.438853
5169.524957
4853.492444
4566.993259
4306.92861
4070.530022
3855.337342
3659.171535
3480.044325
3316.202792
3166.083587
3028.285888
2901.569314
2784.822411
2677.06006
2577.397194
57876.13482
57387.72671
56356.76242
54872.38583
53008.93262
50839.21201
48437.33091
45871.87185
43207.10388
40500.13393
37799.85334
35146.47866
32572.58592
30102.66795
27754.84008
25541.07418
23468.31476
21539.52744
19753.68219
18107.89556
16597.08131
15214.5612
13953.39912
12805.37365
11762.69534
10817.05318
9960.791607
9186.017175
8485.693805
7852.790454
7281.125315
6764.612264
6297.9693
5876.126342
5494.588256
5149.220658
4836.265926
4552.44677
4294.687672
4060.283856
3846.817946
3652.154606
3474.324094
3311.609855
3162.473287
3025.534193
2899.570679
2783.485834
2676.307604
2577.161262
57077.12085
56596.53117
55582.05456
54121.64181
52288.40296
50153.36855
47789.79018
45265.22319
42642.62406
39978.12392
37319.75211
34707.27973
32172.5852
29739.9287
27427.16669
25246.11695
23203.93035
21303.0182
19542.71875
17920.43012
16430.7717
15067.55773
13823.67404
12691.31633
11662.58452
10729.49987
9884.35565
9119.530707
8427.96116
7802.845476
7237.988607
6727.478675
6266.083939
5848.809835
5471.273524
5129.361202
4819.406421
4538.199312
4282.689365
4050.233174
3838.462275
3645.261659
3468.701331
3307.092589
3158.920692
3022.825319
2897.602434
2782.169179
2675.56617
2576.928732
56291.19831
55818.29796
54820.0365
53383.75635
51579.6359
49479.13384
47152.78191
44668.41641
42087.27797
39464.53647
36847.42832
34275.14629
31779.0272
29383.05737
27104.83403
24956.19461
22943.96654
21070.53983
19335.57102
17736.31642
16267.5205
14923.33609
13696.47799
12579.54905
11564.54091
10643.79846
9809.569907
9054.502141
8371.508268
7754.013129
7195.812377
6691.178915
6234.894975
5822.082077
5448.446855
5109.905662
4802.894612
4524.222041
4270.909848
4040.358471
3830.248061
3638.480015
3463.165967
3302.643103
3155.419727
3020.154718
2895.661319
2780.870288
2674.834551
2576.699228
55518.14904
55052.81161
54070.82066
52657.92918
50882.44074
48815.88536
46526.47704
44081.30289
41540.932
38959.25597
36382.73506
33849.99495
31391.8424
29031.99361
26787.83202
24671.20147
22688.37349
20842.04128
19132.11798
17555.49575
16107.3592
14781.82802
13571.74858
12469.9922
11468.48125
10559.86487
9736.351105
8990.850635
8316.257994
7706.221257
7154.530238
6655.640142
6204.349072
5795.91576
5426.06805
5090.819834
4786.68541
4510.491092
4259.329503
4030.643774
3822.161371
3631.799371
3457.709848
3298.255022
3151.965496
3017.518726
2893.744716
2779.587429
2674.111782
2576.472449
54757.75862
54299.92327
53334.37995
51943.95912
50196.89079
48163.44707
45910.68079
43503.78998
41003.45444
38462.16749
35925.57372
33431.74233
31010.9609
28686.67929
26476.33697
24390.9523
22437.09788
20617.5764
18932.22744
17377.91008
15950.1825
14642.97178
13449.51762
12362.56648
11374.39918
10477.62155
9664.6671
8928.503688
8262.160373
7659.406544
7114.084479
6620.810683
6174.400655
5770.248302
5404.103202
5072.075053
4770.754901
4496.986706
4247.932172
4021.075984
3814.19169
3625.211348
3452.326362
3293.923195
3148.554053
3014.914399
2891.850518
2778.319211
2673.397086
2576.248154
54010.21071
53560.13548
52609.97194
51241.64981
49523.0058
47521.6452
45304.90979
42936.23959
40474.77762
37973.15629
35475.84527
33020.30319
30636.35207
28347.38857
26170.00187
24115.39394
22190.08564
20397.09246
18735.84291
17203.51346
15795.87158
14506.69751
13329.59804
12257.20422
11282.16489
10396.99795
9594.427481
8867.396263
8209.169303
7613.513311
7074.448303
6586.645923
6145.010676
5745.046061
5382.523692
5053.647301
4755.08321
4483.692629
4236.704755
4011.652457
3806.330236
3618.709035
3447.010105
3289.643434
3145.182206
3012.339364
2889.977035
2777.064518
2672.689842
2576.026149
53275.33487
52832.4339
51897.39505
50550.80808
48860.11076
46890.30914
44709.00833
42377.93223
39955.21394
37492.38
35033.62949
32615.81797
30268.23198
28013.70784
25868.76612
23844.47261
21947.41345
20180.4147
18542.9052
17032.38604
15644.36202
14372.96111
13211.92434
12153.84045
11191.69723
10317.92971
9525.546899
8807.470026
8157.196332
7568.492474
7035.568464
6553.107197
6116.145568
5720.280324
5361.305258
5035.530357
4739.653669
4470.59522
4225.636124
4002.357505
3798.570127
3612.286945
3441.756764
3285.412399
3141.847409
3009.791729
2888.122921
2775.822467
2671.989558
2575.806282
52552.45927
52116.61385
51196.45113
49871.85971
48208.0259
46269.87233
44122.82117
41828.72395
39444.1167
37019.67153
34598.93425
32218.12742
29906.17162
27685.5573
25572.56616
23578.1288
21708.99142
19967.48379
18353.35365
16864.30526
15495.58876
14241.77737
13096.43702
12052.47686
11102.9345
10240.37014
9457.968794
8748.672423
8106.193448
7524.300877
6997.391797
6520.161689
6087.801913
5695.925816
5340.426952
5017.696115
4724.452186
4457.683049
4214.717084
3993.182508
3790.905719
3605.940651
3436.562889
3281.227429
3138.547643
3007.270001
2886.287116
2774.592358
2671.295845
2575.588433
51841.38
51412.47471
50506.94541
49204.10388
47566.57425
45659.59273
43546.2025
41288.4728
38941.35894
36554.68618
34171.35535
31826.97006
29550.09095
27362.86416
25281.33456
23316.52254
21474.65119
19758.24421
18167.26059
16699.20803
15349.49156
14112.9814
12983.07438
11953.03002
11015.82136
10164.31381
9391.641712
8690.989614
8056.116623
7480.899637
6959.884172
6487.779447
6059.929109
5671.961803
5319.871239
5000.126565
4709.46694
4444.946597
4203.940052
3984.121503
3783.332358
3599.66654
3431.425697
3277.086396
3135.281305
3004.772998
2884.468785
2773.373646
2670.608402
2575.372507
51141.89755
50719.81968
49829.34848
48547.23125
46935.58145
45059.26035
42979.59968
40757.03921
38446.81414
36097.30983
33750.79184
31442.25647
29199.90854
27045.55362
24995.13463
23059.38944
21244.33039
19552.63492
17984.47986
16537.03651
15206.07742
13986.51193
12871.77588
11855.40184
10930.3039
10089.64717
9326.519983
8634.363726
8006.928159
7438.2823
6923.014674
6455.934104
6032.504477
5648.370126
5299.623108
4982.80943
4694.687993
4432.377915
4193.308498
3975.169583
3775.846232
3593.461674
3426.342938
3272.987596
3132.04712
3002.29979
2882.667274
2772.165905
2669.926993
2575.158432
50453.8164
50038.89019
49162.86442
47901.06163
46315.43082
44468.71545
42422.2386
40234.60972
37960.35421
35647.42844
33337.14227
31063.89609
28855.54313
26733.65018
24713.91655
22806.62717
21017.96393
19350.71404
17804.89962
16377.73272
15065.2976
13862.30829
12762.53808
11759.53942
10846.33184
10016.3236
9262.560633
8578.736402
7958.593716
7396.401069
6886.756929
6424.602888
6005.508868
5625.134922
5279.682985
4965.734227
4680.10695
4419.970352
4182.807794
3966.322694
3768.44422
3587.323668
3421.312805
3268.929672
3128.844083
2999.849646
2880.882073
2770.968803
2669.251436
2574.946153
49777.66284
49369.35094
48507.23166
47265.41814
45705.4733
43887.80062
41873.97287
39720.95394
37482.13822
35204.92923
32930.30519
30691.79784
28517.08043
26427.19001
24437.43976
22558.16546
20795.485
19152.37664
17628.45777
16221.23532
14927.01193
13740.31506
12655.29439
11665.39197
10763.92502
9944.299598
9199.727683
8524.072132
7911.081704
7355.2171
6851.087804
6393.796151
5978.925656
5602.242441
5260.03182
4948.891961
4665.716672
4407.718302
4172.43309
3957.577485
3761.123766
3581.25059
3416.333848
3264.911545
3125.671401
2997.421997
2879.112788
2769.782087
2668.581593
2574.735627
49112.52675
48710.70446
47862.26975
46640.3429
45105.44977
43316.61911
41334.65586
39215.6919
37011.96802
34770.16652
32530.48834
30326.23208
28184.43953
26125.86822
24165.63177
22313.9339
20576.97319
18957.47052
17455.09187
16067.61693
14791.16389
13620.47966
12549.94976
11572.91027
10682.98276
9873.53433
9138.037264
8470.338363
7864.363567
7314.70586
6815.986477
6363.466609
5952.74023
5579.680695
5240.654008
4932.274891
4651.511059
4395.619011
4162.180741
3948.931179
3753.882775
3575.24087
3411.404904
3260.932361
3122.528454
2995.016402
2877.359118
2768.605566
2667.917359
2574.526822
48458.205
48062.76912
47227.80149
46025.87126
44515.19768
42755.10557
40804.14377
38718.69135
36549.5034
34342.55419
32137.34831
29966.74083
27857.34606
25829.60407
23898.41829
22073.86889
20362.27655
18765.93122
17284.74082
15916.69539
14657.7023
13502.83212
12446.45166
11482.04682
10603.44868
9803.989404
9077.39719
8417.505064
7818.455666
7274.845123
6781.434158
6333.597485
5926.939656
5557.439152
5221.541093
4915.876312
4637.484867
4383.67649
4152.047677
3940.381461
3746.71952
3569.293237
3406.525042
3256.991447
3119.414764
2992.632527
2875.620835
2767.439096
2667.258659
2574.319715
47814.51733
47425.36671
46603.90702
45421.39327
43934.558
42202.74409
40282.56712
38229.81867
36094.62135
33921.97462
31750.70035
29613.2158
27535.71277
25538.31799
23635.72802
21838.11757
20151.25426
18577.69322
17117.44192
15768.40177
14526.5723
13387.27527
12344.75294
11392.81236
10525.28256
9735.628816
9017.775699
8365.54453
7773.293038
7235.614652
6747.417057
6304.174923
5901.512845
5535.524021
5202.68526
4899.690198
4623.633481
4371.877002
4142.031261
3931.926378
3739.632569
3563.40665
3401.693518
3253.088274
3116.32996
2990.270116
2873.897773
2766.282574
2666.605439
2574.114292
47181.28693
46798.37258
45990.54401
44826.74506
43363.58256
41659.38757
39769.79604
37748.94772
35647.20042
33508.31677
31370.44258
29265.56261
27219.45194
25251.92783
23377.64628
21606.37485
19943.84032
18392.69233
16953.09811
15622.67809
14397.71804
13273.72024
12244.80968
11305.13705
10448.44678
9668.458906
8959.143239
8314.431107
7728.85142
7196.995896
6713.944496
6275.186195
5876.449296
5513.916749
5184.080056
4883.711418
4609.952928
4360.217532
4132.129239
3923.564271
3732.620722
3557.580253
3396.909728
3249.222425
3113.273757
2987.928981
2872.189809
2765.135927
2665.95766
2573.91054
46558.64159
46182.15719
45387.14252
44241.76518
42802.3078
41124.88756
39265.39276
37276.43223
35207.12159
33101.47028
30996.47295
28923.68656
26908.47525
24970.50907
23124.01424
21378.56913
19739.96961
18210.95375
16791.57881
15479.46343
14271.20378
13162.12141
12146.57965
11218.95337
10372.90602
9602.429463
8901.472235
8264.157446
7685.110532
7158.971785
6680.973705
6246.619586
5851.739432
5492.604234
5165.719917
4867.935709
4596.44573
4348.695335
4122.339608
3915.293697
3725.682952
3551.813328
3392.173179
3245.393566
3110.245935
2985.60898
2870.496856
2763.999104
2665.315298
2573.708453
18032.40975
16632.82394
15338.70376
14146.85851
13052.43235
12050.08623
11134.22243
10298.62626
9537.487879
8844.736775
8214.716406
7642.05154
7121.526529
6648.491627
6218.464429
5827.37469
5471.579789
5147.599712
4852.359151
4583.109228
4337.308097
4112.660658
3907.113423
3718.818391
3546.105277
3387.483467
3241.601432
3107.246324
2983.310008
2868.818852
2762.872073
2664.678339
2573.508028
)
;

boundaryField
{
    front_top
    {
        type            wedge;
    }
    front_middle
    {
        type            wedge;
    }
    front_bottom
    {
        type            wedge;
    }
    back_top
    {
        type            wedge;
    }
    back_middle
    {
        type            wedge;
    }
    back_bottom
    {
        type            wedge;
    }
    axis_top
    {
        type            symmetryPlane;
    }
    axis_middle
    {
        type            symmetryPlane;
    }
    axis_bottom
    {
        type            symmetryPlane;
    }
    wall_top
    {
        type            calculated;
        value           nonuniform 0();
    }
    wall_middle
    {
        type            calculated;
        value           nonuniform 0();
    }
    wall_bottom
    {
        type            calculated;
        value           uniform 2530.329233;
    }
    inlet
    {
        type            calculated;
        value           nonuniform 0();
    }
    outlet
    {
        type            calculated;
        value           nonuniform 0();
    }
    procBoundary1to0
    {
        type            processor;
        value           nonuniform List<scalar> 
51
(
45946.4428
45575.93962
44793.53844
43666.29478
42250.16254
40599.09947
38769.22347
36811.64971
34774.72842
32701.46672
30628.74151
28587.5904
26602.93058
24693.94266
22874.66174
21154.6283
19539.5751
19539.5751
17856.90764
16476.77867
15200.41883
14024.63078
12944.60661
11955.25403
11050.90863
10225.60242
9473.605313
8788.912194
8166.05431
7599.656775
7084.658967
6616.486177
6190.710906
5803.368352
5450.837249
5129.714611
4836.977942
4569.934196
4326.053969
4103.091001
3899.022439
3712.026327
3540.455613
3382.840272
3237.84582
3104.274799
2981.031991
2867.155756
2761.754814
2664.046775
2573.309262
)
;
    }
    procBoundary1to2
    {
        type            processor;
        value           nonuniform List<scalar> 
51
(
63861.39735
63313.14855
62157.24402
60493.28214
58403.51088
55972.87234
53282.30951
50410.53176
47430.4864
44405.26523
41390.03513
38430.35756
35562.3545
32813.6735
30204.27059
27746.94405
25448.98172
23313.1674
21338.31593
19520.11152
17853.02066
16329.00632
14939.89597
13676.59857
12530.16599
11491.28313
10551.41088
9701.869142
8934.844631
8242.606751
7618.309507
7055.308354
6547.706016
6089.933529
5648.254933
5648.254933
5279.828138
4946.927695
4645.776332
4373.045019
4125.743907
3901.138397
3696.824188
3510.661079
3340.738428
3185.337317
3042.9395
2912.199806
2791.924357
2681.054873
2578.64883
)
;
    }
}


// ************************************************************************* //
