/*--------------------------------*- C++ -*----------------------------------*\
  =========                 |
  \\      /  F ield         | OpenFOAM: The Open Source CFD Toolbox
   \\    /   O peration     | Website:  https://openfoam.org
    \\  /    A nd           | Version:  7
     \\/     M anipulation  |
\*---------------------------------------------------------------------------*/
FoamFile
{
    version     2.0;
    format      ascii;
    class       volScalarField;
    location    "0.0009";
    object      thermo:alpha;
}
// * * * * * * * * * * * * * * * * * * * * * * * * * * * * * * * * * * * * * //

dimensions      [1 -1 -1 0 0 0 0];

internalField   nonuniform List<scalar> 
1167
(
0.0001192378525
0.0001192264416
0.000119201978
0.0001191658227
0.0001191187713
0.0001190615063
0.0001189904899
0.0001189077751
0.0001188159337
0.0001187156022
0.0001186073765
0.000118483161
0.0001183502812
0.0001182002065
0.0001180434943
0.0001178807511
0.0001177034339
0.0001175178896
0.000117321045
0.0001171136438
0.0001168971593
0.0001166692759
0.0001164336867
0.0001161958191
0.0001159388736
0.0001156795907
0.0001154160663
0.0001151421422
0.0001148659663
0.0001145802752
0.0001142944471
0.000114000414
0.0001137081026
0.0001134186194
0.0001192190854
0.0001192076731
0.0001191832072
0.0001191470495
0.0001191000177
0.0001190427545
0.0001189700529
0.0001188873719
0.0001187955703
0.0001186952777
0.000118586431
0.000118461266
0.0001183267855
0.0001181768095
0.0001180202105
0.0001178575958
0.0001176787844
0.0001174934164
0.0001172951315
0.0001170879999
0.0001168701889
0.0001166426773
0.0001164059285
0.0001161670458
0.0001159122102
0.0001156521455
0.0001153894129
0.000115115023
0.0001148398851
0.0001145540819
0.0001142695383
0.0001139757481
0.0001136849317
0.0001133960096
0.0001131020383
0.0001128035041
0.0001125092114
0.0001122218137
0.0001119307528
0.0001116462404
0.0001113628543
0.0001110828879
0.0001108110791
0.0001105447455
0.0001102788844
0.0001100166856
0.0001097573758
0.0001095060824
0.0001092625659
0.0001090218029
0.0001192003222
0.0001191889088
0.0001191644411
0.0001191282979
0.0001190812707
0.0001190225204
0.000118949625
0.0001188669791
0.000118775219
0.0001186749774
0.0001185644904
0.0001184394
0.0001183033157
0.0001181534438
0.0001179969654
0.0001178341779
0.0001176542014
0.0001174690235
0.0001172693349
0.0001170624878
0.0001168433898
0.000116616285
0.0001163784297
0.000116138591
0.0001158858916
0.0001156251096
0.0001153632112
0.0001150884182
0.0001148143499
0.0001145284857
0.0001142451586
0.0001139517228
0.0001136623918
0.0001133740384
0.0001130816805
0.000112783947
0.0001124913246
0.0001122055685
0.0001119154958
0.0001116325963
0.0001113502696
0.0001110718593
0.0001108015531
0.0001105363309
0.0001102718982
0.0001100108585
0.0001097529221
0.0001095029537
0.0001092607189
0.0001090211744
0.0001191815637
0.0001191701495
0.0001191456805
0.0001191095572
0.0001190625309
0.0001190020946
0.0001189292074
0.0001188465981
0.0001187548813
0.0001186546927
0.0001185425691
0.0001184175562
0.0001182798743
0.0001181301123
0.0001179737621
0.0001178094822
0.0001176296858
0.0001174447141
0.0001172436636
0.0001170371098
0.0001168167779
0.0001165900971
0.0001163516116
0.0001161104449
0.0001158594073
0.0001155984608
0.000115336585
0.0001150622887
0.0001147881377
0.0001145034296
0.0001142202752
0.0001139282667
0.0001136404244
0.0001133526267
0.000113061852
0.0001127649047
0.0001124739103
0.0001121895082
0.0001119006373
0.0001116193044
0.0001113380051
0.0001110611172
0.0001107922624
0.0001105281213
0.0001102650804
0.0001100051707
0.0001097485741
0.0001094998991
0.0001092589155
0.0001090205607
0.0001191628106
0.0001191513959
0.0001191269438
0.0001190908236
0.0001190437994
0.0001189816789
0.0001189088234
0.0001188262303
0.0001187345585
0.000118634425
0.0001185206689
0.0001183957369
0.000118256464
0.000118106818
0.0001179506215
0.000117784845
0.0001176052414
0.0001174201262
0.0001172181054
0.0001170118681
0.0001167903496
0.0001165641117
0.0001163261616
0.0001160825985
0.0001158323125
0.0001155721778
0.0001153098654
0.0001150365988
0.0001147623301
0.0001144788639
0.0001141959073
0.0001139053193
0.0001136189569
0.0001133317084
0.0001130421959
0.0001127463106
0.0001124569062
0.0001121734159
0.0001118861218
0.0001116063148
0.0001113260149
0.0001110506114
0.0001107831725
0.0001105200865
0.000110258406
0.0001099996014
0.0001097443163
0.0001094969076
0.0001092571494
0.0001090199597
0.0001191440636
0.00011913266
0.0001191082172
0.0001190720981
0.0001190236833
0.0001189612744
0.0001188884525
0.0001188058893
0.0001187142522
0.0001186141761
0.0001184987919
0.0001183739445
0.0001182330876
0.0001180835774
0.0001179275357
0.0001177602703
0.000117580873
0.0001173943919
0.0001171926632
0.0001169867435
0.0001167640946
0.0001165383272
0.0001163009414
0.0001160550414
0.000115805537
0.0001155462413
0.0001152835349
0.0001150113168
0.0001147369639
0.0001144547451
0.0001141720059
0.0001138828287
0.0001135979296
0.0001133112275
0.0001130224162
0.0001127281096
0.0001124402598
0.0001121576587
0.000111871904
0.0001115935869
0.0001113142617
0.0001110403093
0.0001107742557
0.0001105122024
0.0001102518552
0.0001099941342
0.000109740136
0.0001094939704
0.0001092554153
0.0001090193695
0.0001191253427
0.0001191139405
0.0001190894984
0.0001190533813
0.0001190032831
0.000118940882
0.0001188680954
0.0001187855731
0.0001186939774
0.000118593848
0.0001184769405
0.0001183519839
0.0001182097641
0.0001180603914
0.000117904502
0.0001177357624
0.0001175565912
0.0001173687591
0.0001171673415
0.0001169602259
0.0001167380131
0.0001165121787
0.0001162759458
0.0001160279882
0.0001157790674
0.0001155206378
0.0001152575698
0.0001149864206
0.0001147120049
0.0001144310398
0.0001141485282
0.0001138607506
0.000113577297
0.0001132911365
0.0001130030151
0.0001127102561
0.0001124239286
0.0001121421956
0.0001118579469
0.0001115810876
0.0001113027152
0.0001110301845
0.0001107654894
0.0001105044492
0.0001102454116
0.0001099887557
0.0001097360231
0.0001094910803
0.0001092537089
0.0001090187889
0.0001191066305
0.0001190952288
0.0001190707881
0.000119034146
0.0001189828944
0.000118920512
0.0001188477533
0.0001187652742
0.0001186737311
0.0001185719685
0.0001184551375
0.0001183285921
0.000118186488
0.0001180372525
0.0001178815239
0.0001177113253
0.0001175324105
0.0001173432317
0.0001171421433
0.0001169338605
0.0001167121061
0.0001164853024
0.0001162511694
0.0001160024483
0.0001157528915
0.0001154953672
0.0001152319489
0.0001149618968
0.0001146874231
0.0001144077292
0.0001141254376
0.0001138390595
0.0001135570205
0.0001132713956
0.0001129839524
0.0001126927121
0.0001124078776
0.0001121269928
0.00011184422
0.00011156879
0.0001112913606
0.0001110202158
0.0001107568556
0.000110496811
0.0001102390624
0.0001099834551
0.0001097319693
0.0001094882317
0.000109252027
0.0001090182165
0.0001190879265
0.0001190765255
0.000119052087
0.0001190137627
0.0001189625182
0.0001189001693
0.0001188274275
0.0001187449938
0.0001186535061
0.0001185501152
0.0001184333668
0.0001183052374
0.000118163255
0.0001180141641
0.0001178586053
0.0001176869776
0.0001175083175
0.0001173178136
0.0001171170884
0.0001169076492
0.0001166863738
0.000116458633
0.0001162266085
0.0001159771569
0.0001157269975
0.0001154703938
0.000115206653
0.0001149377047
0.0001146631921
0.0001143847659
0.0001141027023
0.0001138177171
0.0001135370676
0.0001132519733
0.0001129651944
0.000112675446
0.0001123920924
0.0001121120227
0.0001118306985
0.000111556672
0.0001112801693
0.0001110103859
0.0001107483395
0.0001104892752
0.0001102327971
0.0001099782238
0.0001097279682
0.0001094854199
0.0001092503668
0.0001090176515
0.0001190692312
0.0001190578314
0.0001190327525
0.0001189933912
0.0001189421552
0.0001188798417
0.0001188071299
0.0001187247333
0.0001186333038
0.00011852829
0.0001184116282
0.0001182819228
0.0001181400683
0.0001179911298
0.0001178355288
0.0001176627193
0.0001174843158
0.0001172925081
0.0001170921718
0.0001168815936
0.0001166608316
0.0001164321687
0.0001162020094
0.0001159521071
0.0001157013747
0.0001154457038
0.0001151816649
0.0001149138245
0.0001146392888
0.0001143621249
0.0001140802948
0.000113796688
0.0001135174103
0.0001132328556
0.0001129467131
0.0001126584313
0.0001123765332
0.0001120972623
0.0001118173619
0.0001115447155
0.0001112691236
0.0001110006809
0.0001107399293
0.0001104818314
0.0001102266071
0.0001099730548
0.0001097240144
0.0001094826413
0.0001092487261
0.0001090170931
0.0001190505453
0.0001190390225
0.0001190123871
0.0001189730323
0.0001189218142
0.0001188595303
0.0001187868611
0.0001187044958
0.0001186131257
0.0001185064949
0.0001183899242
0.000118258651
0.0001181169314
0.0001179681531
0.0001178111192
0.0001176385429
0.0001174604089
0.0001172673306
0.0001170673867
0.0001168556954
0.0001166354733
0.0001164059087
0.0001161750084
0.0001159272909
0.0001156760323
0.0001154212848
0.0001151569839
0.0001148902386
0.0001146157007
0.0001143397843
0.0001140581916
0.0001137759485
0.0001134980251
0.000113214002
0.0001129284848
0.0001126416463
0.0001123611798
0.0001120826928
0.0001118041935
0.000111532906
0.0001112582101
0.0001109910893
0.0001107316153
0.0001104744713
0.0001102204858
0.0001099679426
0.0001097201037
0.0001094798928
0.0001092471033
0.0001090165409
0.0001190310886
0.0001190186646
0.0001189920338
0.0001189526868
0.0001189015028
0.0001188392358
0.0001187666118
0.0001186843009
0.0001185927928
0.0001184847317
0.0001183682568
0.0001182354247
0.0001180938497
0.0001179452605
0.0001177867843
0.0001176144521
0.0001174365999
0.0001172422848
0.0001170427353
0.0001168299578
0.0001166102897
0.0001163798502
0.0001161482354
0.0001159027029
0.0001156509459
0.0001153971255
0.000115132589
0.0001148669313
0.0001145924167
0.0001143177254
0.0001140363853
0.0001137554781
0.0001134788921
0.0001131953925
0.0001129104899
0.0001126250726
0.0001123460159
0.0001120682989
0.00011179118
0.0001115208326
0.0001112474179
0.000110981602
0.0001107233898
0.0001104671882
0.0001102144277
0.0001099628826
0.0001097162328
0.0001094771722
0.0001092454968
0.0001090159941
0.0001190107402
0.0001189983186
0.0001189716933
0.0001189323553
0.0001188812071
0.0001188189594
0.0001187463832
0.0001186641298
0.0001185710006
0.0001184630145
0.0001183460062
0.0001182122598
0.0001180708447
0.0001179224321
0.0001177625275
0.0001175904505
0.0001174120213
0.00011721736
0.0001170182194
0.0001168044028
0.00011658528
0.0001163542569
0.0001161216861
0.0001158783375
0.0001156261034
0.000115373216
0.0001151084597
0.0001148438887
0.0001145694059
0.0001142959316
0.0001140148533
0.0001137352594
0.0001134599942
0.00011317701
0.0001128927118
0.0001126087078
0.0001123310277
0.0001120540678
0.0001117783099
0.0001115088216
0.0001112367386
0.0001109722115
0.0001107152467
0.0001104599767
0.0001102084284
0.0001099578713
0.0001097123989
0.0001094744775
0.0001092439056
0.0001090154527
0.000118990404
0.0001189779852
0.0001189513663
0.0001189120573
0.0001188609282
0.0001187987219
0.0001187261763
0.0001186439838
0.0001185492395
0.0001184413434
0.0001183227685
0.000118189155
0.0001180478977
0.00011789967
0.000117738352
0.0001175665412
0.0001173868488
0.0001171925585
0.0001169938403
0.0001167790072
0.0001165604431
0.0001163300641
0.0001160953576
0.0001158533771
0.0001156014973
0.0001153493375
0.0001150845848
0.0001148210987
0.0001145466548
0.0001142743888
0.0001139935725
0.0001137152779
0.0001134404891
0.0001131588399
0.0001128751364
0.0001125925295
0.0001123162037
0.000112039989
0.000111765574
0.0001114969327
0.0001112261651
0.0001109629122
0.000110707181
0.0001104528328
0.0001102024846
0.0001099529059
0.0001097085999
0.0001094718073
0.0001092423289
0.0001090149161
0.0001189700806
0.0001189576651
0.0001189310536
0.0001188917787
0.0001188406669
0.0001187785058
0.0001187059926
0.000118623864
0.000118527511
0.0001184197097
0.0001182995769
0.0001181661031
0.0001180250112
0.0001178769771
0.0001177142605
0.0001175427474
0.0001173617896
0.0001171678829
0.0001169685083
0.0001167537711
0.0001165357782
0.0001163060548
0.0001160692456
0.0001158281157
0.0001155771212
0.0001153246695
0.0001150609546
0.0001147978355
0.0001145241507
0.0001142530844
0.0001139725295
0.0001136955204
0.00011342118
0.0001131408703
0.0001128577522
0.0001125765238
0.0001123015346
0.0001120260538
0.0001117529649
0.0001114851593
0.000111215692
0.0001109536992
0.0001106991889
0.0001104457531
0.0001101965936
0.0001099479842
0.0001097048342
0.0001094691604
0.0001092407659
0.0001090143842
0.0001189497708
0.000118937359
0.0001189107757
0.0001188715165
0.000118820424
0.0001187583106
0.0001186858547
0.0001186037716
0.0001185058165
0.000118398115
0.0001182764335
0.0001181431062
0.0001180021875
0.0001178543556
0.000117690267
0.0001175190539
0.0001173368458
0.0001171433349
0.0001169429048
0.0001167286949
0.0001165106359
0.0001162822266
0.0001160433462
0.0001158030736
0.0001155529689
0.0001153002388
0.0001150375605
0.0001147744035
0.0001145018834
0.0001142312965
0.0001139517126
0.0001136759755
0.0001134020776
0.0001131230911
0.0001128405493
0.000112560682
0.0001122870126
0.0001120122551
0.000111740488
0.0001114734959
0.0001112053148
0.0001109445688
0.0001106912673
0.0001104387349
0.0001101907532
0.0001099431046
0.0001097011005
0.0001094665359
0.0001092392162
0.0001090138568
0.000118929475
0.0001189170805
0.0001188905158
0.0001188512715
0.0001188002186
0.0001187381373
0.0001186657418
0.00011858276
0.0001184841576
0.0001183765611
0.0001182533403
0.0001181201667
0.0001179794292
0.0001178313069
0.000117666376
0.0001174954597
0.0001173120195
0.0001171189306
0.0001169174502
0.000116703779
0.0001164848868
0.0001162585768
0.000116018428
0.0001157782462
0.0001155290346
0.0001152760382
0.0001150143948
0.0001147512063
0.0001144798439
0.0001142094441
0.000113931112
0.0001136566337
0.0001133831725
0.0001131054937
0.0001128235312
0.000112544997
0.0001122726313
0.0001119985872
0.0001117281273
0.0001114619384
0.0001111950298
0.0001109355182
0.0001106834137
0.0001104317763
0.000110184962
0.0001099382657
0.0001096973978
0.0001094639332
0.0001092376793
0.0001090133338
0.0001189092158
0.0001188968266
0.0001188702724
0.0001188310446
0.0001187800365
0.000118717987
0.0001186456552
0.0001185610669
0.0001184625484
0.0001183550494
0.0001182302993
0.0001180972867
0.0001179567497
0.0001178072372
0.0001176425756
0.0001174719665
0.0001172873123
0.0001170946667
0.0001168921449
0.0001166790228
0.0001164593165
0.0001162351035
0.0001159943258
0.0001157536292
0.0001155053324
0.0001152520615
0.0001149914517
0.0001147282363
0.0001144580239
0.0001141878115
0.0001139107194
0.0001136375058
0.000113364457
0.0001130880707
0.0001128066843
0.0001125294625
0.0001122583854
0.0001119850454
0.0001117158782
0.0001114504832
0.0001111848342
0.000110926545
0.0001106756264
0.0001104248757
0.0001101792185
0.0001099334665
0.0001096937254
0.0001094613518
0.000109236155
0.000109012815
0.0001188889727
0.0001188765887
0.0001188500461
0.0001188108436
0.0001187598754
0.0001186978698
0.0001186255958
0.0001185394075
0.0001184409876
0.0001183319625
0.0001182073302
0.000118074491
0.0001179341519
0.0001177832509
0.0001176188681
0.000117448576
0.000117262742
0.0001170705336
0.0001168669892
0.0001166544474
0.0001164339238
0.0001162118049
0.0001159704146
0.000115729218
0.0001154818415
0.0001152283027
0.0001149687442
0.0001147054862
0.0001144364161
0.0001141663912
0.0001138905276
0.0001136185665
0.0001133459241
0.000113070816
0.0001127899979
0.0001125140736
0.0001122442705
0.0001119716281
0.0001117037377
0.0001114391277
0.0001111747257
0.0001109176473
0.0001106679037
0.0001104180318
0.000110173522
0.0001099287063
0.0001096900828
0.0001094587912
0.0001092346429
0.0001090123004
0.0001188687459
0.0001188563675
0.0001188298377
0.0001187906765
0.0001187397364
0.0001186777903
0.0001186055648
0.000118517783
0.0001184194667
0.000118308903
0.0001181844213
0.000118051759
0.0001179116252
0.0001177593498
0.000117595255
0.0001174252427
0.0001172383009
0.0001170465318
0.0001168419834
0.0001166300326
0.0001164087084
0.0001161868211
0.0001159466907
0.0001157050085
0.0001154585534
0.0001152047563
0.0001149462456
0.0001146829496
0.0001144150339
0.0001141451767
0.0001138705303
0.0001135998092
0.0001133275682
0.0001130537244
0.0001127734672
0.0001124988261
0.0001122302832
0.0001119583411
0.0001116917031
0.0001114278696
0.0001111647027
0.0001109088238
0.0001106602448
0.0001104112438
0.0001101678716
0.0001099239845
0.0001096864694
0.0001094562511
0.000109233143
0.00010901179
0.000118848536
0.000118836164
0.0001188096564
0.0001187705298
0.0001187196203
0.0001186577367
0.000118584769
0.0001184961947
0.0001183979871
0.0001182858939
0.0001181615698
0.0001180290918
0.0001178891711
0.0001177355356
0.0001175717385
0.0001174005219
0.0001172139817
0.0001170226619
0.000116817142
0.0001166057763
0.0001163836686
0.0001161611476
0.0001159231512
0.0001156810116
0.0001154354635
0.0001151814172
0.0001149239504
0.000114660621
0.0001143938528
0.0001141241621
0.0001138507239
0.000113581229
0.0001133093847
0.0001130362525
0.0001127570878
0.0001124837164
0.0001122164204
0.0001119451706
0.0001116797723
0.0001114167072
0.0001111547638
0.0001109000734
0.0001106526487
0.0001104045111
0.000110162267
0.0001099193008
0.0001096828851
0.0001094537315
0.0001092316552
0.0001090112837
0.0001188283438
0.0001188159803
0.0001187895075
0.0001187504046
0.0001186995355
0.0001186377101
0.0001185631436
0.000118474644
0.0001183765501
0.0001182629369
0.0001181387771
0.0001180064909
0.0001178667912
0.0001177118099
0.0001175483347
0.0001173759147
0.0001171897855
0.0001169989241
0.00011679246
0.0001165816773
0.0001163588027
0.000116135663
0.000115899794
0.0001156572166
0.0001154125679
0.0001151582948
0.0001149018539
0.0001146384952
0.0001143728665
0.0001141033424
0.0001138311181
0.0001135628213
0.0001132913692
0.0001130187454
0.0001127408564
0.0001124687414
0.0001122026796
0.0001119321144
0.0001116679437
0.0001114056391
0.0001111449078
0.0001108913953
0.0001106451148
0.0001103978332
0.0001101567077
0.0001099146548
0.0001096793296
0.0001094512321
0.0001092301793
0.0001090107814
0.00011880818
0.0001187958353
0.000118769379
0.0001187303016
0.00011867949
0.0001186177113
0.0001185415524
0.0001184531542
0.0001183551568
0.0001182400333
0.0001181160447
0.0001179839577
0.000117844487
0.0001176881875
0.0001175250378
0.0001173514222
0.0001171657132
0.000116974584
0.0001167679265
0.0001165577342
0.0001163355137
0.0001161103656
0.0001158766167
0.0001156336129
0.0001153898632
0.0001151353788
0.0001148799518
0.0001146165748
0.0001143520706
0.000114082713
0.0001138116921
0.0001135445823
0.000113273518
0.0001130013967
0.0001127247703
0.0001124538991
0.000112188787
0.0001119191707
0.0001116562158
0.0001113946643
0.0001111351341
0.000110882789
0.0001106376427
0.0001103912097
0.0001101511936
0.0001099100464
0.0001096758028
0.0001094487529
0.0001092287153
0.0001090102832
0.0001169496482
0.0001167435411
0.000116533946
0.0001163123949
0.0001160852533
0.0001158527728
0.0001156101972
0.0001153673459
0.0001151126574
0.0001148582402
0.0001145948624
0.000114331461
0.0001140622698
0.0001137924419
0.0001135265083
0.0001132558277
0.0001129842034
0.0001127088272
0.0001124391876
0.0001121747214
0.0001119063381
0.0001116445877
0.0001113837819
0.0001111254419
0.000110874254
0.0001106302321
0.0001103846404
0.0001101457244
0.0001099054755
0.0001096723047
0.0001094462938
0.0001092272632
0.0001090097891
)
;

boundaryField
{
    front_top
    {
        type            wedge;
    }
    front_middle
    {
        type            wedge;
    }
    front_bottom
    {
        type            wedge;
    }
    back_top
    {
        type            wedge;
    }
    back_middle
    {
        type            wedge;
    }
    back_bottom
    {
        type            wedge;
    }
    axis_top
    {
        type            symmetryPlane;
    }
    axis_middle
    {
        type            symmetryPlane;
    }
    axis_bottom
    {
        type            symmetryPlane;
    }
    wall_top
    {
        type            calculated;
        value           nonuniform 0();
    }
    wall_middle
    {
        type            calculated;
        value           nonuniform 0();
    }
    wall_bottom
    {
        type            calculated;
        value           uniform 0.0001089022317;
    }
    inlet
    {
        type            calculated;
        value           nonuniform 0();
    }
    outlet
    {
        type            calculated;
        value           nonuniform 0();
    }
    procBoundary1to0
    {
        type            processor;
        value           nonuniform List<scalar> 
51
(
0.0001187880468
0.0001187757102
0.0001187492716
0.0001187102218
0.0001186594702
0.0001185977414
0.0001185199964
0.0001184317044
0.0001183322067
0.0001182171928
0.0001180933774
0.0001179615002
0.0001178210797
0.000117664667
0.0001175018404
0.0001173270452
0.0001171417654
0.0001171417654
0.000116924853
0.0001167193036
0.0001165096064
0.0001162894352
0.0001160603238
0.0001158286833
0.0001155869667
0.0001153445648
0.000115090127
0.0001148367152
0.00011457334
0.000114311034
0.0001140420167
0.0001137733644
0.0001135085964
0.0001132383111
0.0001129671631
0.000112693025
0.0001124246049
0.0001121607777
0.0001118936158
0.0001116330585
0.0001113729913
0.0001111158309
0.0001108657899
0.0001106228828
0.0001103781253
0.0001101403002
0.0001099009421
0.0001096688353
0.0001094438549
0.000109225823
0.000109009299
)
;
    }
    procBoundary1to2
    {
        type            processor;
        value           nonuniform List<scalar> 
51
(
0.0001192566351
0.0001192452134
0.0001192207527
0.0001191846004
0.0001191375302
0.0001190802644
0.0001190109348
0.0001189281876
0.0001188363275
0.0001187359513
0.0001186276696
0.000118505089
0.0001183724495
0.0001182236326
0.0001180668143
0.000117903952
0.0001177281681
0.0001175424403
0.0001173470626
0.0001171394241
0.0001169243006
0.0001166961009
0.0001164617106
0.0001162227456
0.0001159658976
0.0001157074797
0.0001154432041
0.0001151698196
0.0001148926463
0.0001146071297
0.0001143200381
0.000114025803
0.0001137319918
0.0001134419615
0.0001131230041
0.0001131230041
0.0001128236554
0.0001125276467
0.0001122385578
0.0001119464762
0.0001116602979
0.0001113758158
0.0001110942425
0.0001108208827
0.0001105534023
0.0001102860695
0.0001100226774
0.0001097619548
0.0001095092988
0.0001092644646
0.0001090224491
)
;
    }
}


// ************************************************************************* //
