/*--------------------------------*- C++ -*----------------------------------*\
  =========                 |
  \\      /  F ield         | OpenFOAM: The Open Source CFD Toolbox
   \\    /   O peration     | Website:  https://openfoam.org
    \\  /    A nd           | Version:  7
     \\/     M anipulation  |
\*---------------------------------------------------------------------------*/
FoamFile
{
    version     2.0;
    format      ascii;
    class       volScalarField;
    location    "0.0006";
    object      generalizedNewtonian:nu;
}
// * * * * * * * * * * * * * * * * * * * * * * * * * * * * * * * * * * * * * //

dimensions      [0 2 -1 0 0 0 0];

internalField   nonuniform List<scalar> 
1166
(
5379.669822
5360.606937
5323.82686
5267.60334
5195.95189
5110.494325
5013.121236
4905.495658
4789.325444
4666.297325
4537.760804
4405.197991
4269.701142
4132.415866
3994.271218
3856.008116
3718.397453
3581.929917
5108.037278
5090.214484
5056.237844
5003.967914
4937.337947
4857.783408
4767.029228
4666.549085
4557.946914
4442.738905
4322.197506
4197.666279
4070.187497
3940.793176
3810.355192
3679.559245
3549.130795
3419.559248
3291.280838
3164.718488
3040.167367
2917.841623
2797.95295
2680.725495
2566.263785
2454.657624
2345.993119
2240.370446
2137.852867
2038.461488
1942.235235
1849.20951
1759.440649
1672.922227
1589.648213
1509.611975
1432.824826
1359.285429
1288.940848
1221.751255
1157.679968
1096.682514
1038.671012
983.5627708
931.2841302
881.7451712
834.8292292
790.453046
748.6042219
708.7241201
4859.101084
4842.36927
4810.814272
4761.967418
4699.686469
4625.263665
4540.254203
4446.026644
4344.066226
4235.756513
4122.287968
4004.888488
3884.515631
3762.128494
3638.533322
3514.386955
3390.402403
3267.015488
3144.659896
3023.774225
2904.619594
2787.445801
2672.484613
2559.978679
2450.007826
2342.700607
2238.172291
2136.551535
2037.878132
1942.211004
1849.607228
1760.129595
1673.819108
1590.669444
1510.690711
1433.897067
1360.315776
1289.894989
1222.605236
1158.409606
1097.281831
1039.135582
983.8927792
931.4793216
881.819581
834.7938129
790.2960415
748.27377
708.6508928
670.9287878
4629.598279
4613.824092
4584.366637
4538.516022
4480.050514
4410.141144
4330.218113
4241.545146
4145.489112
4043.325922
3936.141598
3825.087627
3711.037406
3594.902254
3477.440197
3359.273558
3241.083343
3123.277249
3006.289279
2890.563137
2776.34846
2663.918833
2553.534523
2445.385491
2339.602527
2236.334
2135.722529
2037.881775
1942.870506
1850.770723
1761.653882
1675.606371
1592.622424
1512.731277
1435.954929
1362.340757
1291.845499
1224.448936
1160.118725
1098.840231
1040.534429
985.1273066
932.546035
882.7259136
835.5501333
790.91304
748.7391684
708.9225958
671.400395
635.7283038
4416.949899
4402.03619
4374.433337
4331.253985
4276.192118
4210.305837
4134.929692
4051.212879
3960.407429
3863.720193
3762.135268
3656.748003
3548.358421
3437.857169
3325.915781
3213.153003
3100.200166
2987.457264
2875.380056
2764.384371
2654.727493
2546.690969
2440.553417
2336.476943
2234.630535
2135.174019
2038.291883
1944.045358
1852.542499
1763.870949
1678.146422
1595.380672
1515.617001
1438.892069
1365.260389
1294.701089
1227.199706
1162.732633
1101.29072
1042.807921
987.2138825
934.4394211
884.4281014
837.0661818
792.2533004
749.9122163
709.9219712
672.1870969
636.6654296
602.9174585
4219.205787
4205.075903
4179.130572
4138.35184
4086.341417
4024.050575
3952.70923
3873.405188
3787.280389
3695.493745
3598.926231
3498.640553
3395.344192
3289.918405
3182.960924
3075.107622
2966.911426
2858.803825
2751.263881
2644.637448
2539.205547
2435.267865
2333.094857
2232.846737
2134.720393
2038.91593
1945.558201
1854.758632
1766.629758
1681.298897
1598.815251
1519.230101
1442.59689
1368.978935
1298.375707
1230.780611
1166.180569
1104.573502
1045.904144
990.1080319
937.121982
886.8959778
839.3200898
794.2987603
751.759015
711.5809217
673.6527324
637.9020605
604.2591876
572.3120794
4034.70602
4021.273237
3996.788721
3958.153352
3908.865934
3849.792044
3782.050327
3706.714474
3624.801542
3537.437121
3445.414548
3349.711925
3251.022446
3150.191092
3047.752002
2944.379846
2840.560189
2736.734922
2633.393894
2530.811928
2429.311543
2329.23313
2230.772106
2134.144881
2039.569856
1947.237423
1857.259567
1769.77666
1684.9294
1602.803515
1523.459203
1446.968111
1373.404543
1302.787137
1235.118528
1170.397184
1108.630403
1049.772187
993.7657375
940.5557986
890.0973998
842.2858517
797.030457
754.2634
713.8677279
675.7328729
639.7724761
605.8886598
574.0054587
543.7643905
3861.959123
3849.136596
3825.928575
3789.208489
3742.364086
3686.180879
3621.685218
3549.945541
3471.864394
3388.45856
3300.546288
3209.002992
3114.534556
3017.875724
2919.588778
2820.354525
2720.577765
2620.747833
2521.272732
2422.46286
2324.677251
2228.207384
2133.262191
2040.083081
1948.920022
1859.895068
1773.172135
1688.908518
1607.226483
1528.195445
1451.905948
1378.445852
1307.852044
1240.137822
1175.314222
1113.399974
1054.357
998.1379894
944.6974756
893.9942602
845.9303695
800.4205578
757.4034954
716.7627198
678.3933971
642.2114568
608.1027916
575.9682158
545.7586023
517.1192246
3699.710171
3687.459086
3665.369098
3630.363143
3585.723088
3532.162761
3470.596062
3402.081815
3327.450013
3247.630922
3163.462242
3075.698238
2985.093675
2892.289821
2797.88914
2702.459049
2606.430924
2510.316887
2414.45429
2319.198837
2224.928168
2131.863795
2040.272237
1950.425384
1862.499073
1776.664028
1693.096834
1611.956758
1533.322819
1457.305296
1384.00787
1313.485082
1245.762248
1180.864056
1118.822485
1059.606235
1003.179336
949.5078989
898.553251
850.2257331
804.4463067
761.1618319
720.2542543
681.6250145
645.1970153
610.8520425
578.480683
548.0133831
519.3719876
492.2258634
3546.859275
3535.15523
3514.097603
3480.614998
3437.954003
3386.772346
3327.888354
3262.272596
3190.785402
3114.23756
3033.49736
2949.212096
2862.178527
2772.929638
2682.122243
2590.216958
2497.702561
2405.048924
2312.586149
2220.716167
2129.74412
2039.930866
1951.573653
1864.905072
1780.09924
1697.353412
1616.865276
1538.723488
1463.059189
1389.993792
1319.599182
1251.913937
1186.977362
1124.836425
1065.465707
1008.842445
954.9459546
903.7387215
855.1413814
809.0830805
765.5174492
724.3259165
685.4163647
648.719596
614.1146787
581.495226
550.7839162
521.8770559
494.7011114
468.9766056
3402.445564
3391.239907
3371.138697
3339.061392
3298.175018
3249.141435
3192.712426
3129.742238
3061.146966
2987.636713
2910.052318
2829.02569
2745.274121
2659.33762
2571.847102
2483.22903
2394.033226
2304.617164
2215.375986
2126.717644
2038.885543
1952.200793
1866.958487
1783.33337
1701.548408
1621.825397
1544.280981
1469.061243
1396.306766
1326.10648
1258.513617
1193.583146
1131.378458
1071.879123
1015.077577
960.9679551
909.5128908
860.6450252
814.3057388
770.4461104
728.9571072
689.751223
652.7676033
617.8804538
584.9906525
554.0250424
524.8633717
497.4181897
471.6424931
447.2359788
3265.63731
3254.890294
3235.654958
3204.91398
3165.636914
3118.54426
3064.364109
3003.866536
2937.926533
2867.252905
2792.568161
2714.577039
2633.862492
2551.046924
2466.642007
2381.149365
2295.049932
2208.707263
2122.571562
2036.937736
1952.127926
1868.48328
1786.202611
1705.525855
1626.698254
1549.868418
1475.195958
1402.842069
1332.912652
1265.476685
1200.608277
1138.380815
1078.786665
1021.832316
967.5281441
915.8360987
866.7026186
820.0830347
775.9244377
734.1287581
694.6178679
657.3287306
622.1414681
588.9630642
557.7207753
528.2938735
500.5910565
474.5413611
450.0597957
426.8953313
3135.673067
3125.3532
3106.90451
3077.412058
3039.715752
2994.408863
2942.316364
2884.150355
2820.654061
2752.616206
2680.633434
2605.456147
2527.577911
2447.680712
2366.17955
2283.648728
2200.465722
2117.081806
2033.876114
1951.158282
1869.294346
1788.536161
1709.128233
1631.340643
1555.355312
1481.344777
1409.491772
1339.919905
1272.714916
1207.972126
1145.772834
1086.125478
1029.05086
974.5774086
922.6654089
873.2768262
826.3824268
781.9243377
739.8172195
699.994632
662.387389
626.8853413
593.4037134
561.86352
532.1515708
504.1814951
477.8660267
453.1080466
429.8541223
407.8568868
3012.136022
3002.19398
2984.435473
2956.08178
2919.863947
2876.285347
2826.102047
2770.088738
2708.897856
2643.282946
2573.864584
2501.274567
2426.117893
2348.919755
2270.201833
2190.44768
2110.055899
2029.51143
1949.103884
1869.221947
1790.175261
1712.207971
1635.615663
1560.615462
1487.392041
1416.150264
1347.032591
1280.142329
1215.597036
1153.485636
1093.834454
1036.679676
982.0691353
929.9602642
880.3325262
833.1739285
788.4205582
746.0014947
705.8634419
667.9298451
632.1018281
598.3042236
566.450261
536.4347115
508.179402
481.5882332
456.5605789
433.0327863
410.9263967
390.0152725
2894.717434
2885.127463
2867.960097
2840.601273
2805.691493
2763.724482
2715.315853
2661.267419
2602.241164
2538.86658
2471.853537
2401.711138
2329.113875
2254.483159
2178.426779
2101.313252
2023.646727
1945.780911
1868.092503
1790.955821
1714.611033
1639.37907
1565.514873
1493.21407
1422.704173
1354.14764
1287.665816
1223.399319
1161.444985
1101.848347
1044.667187
989.951821
937.6758242
887.8315487
840.4253793
795.3860712
752.6591603
712.2060649
673.9416805
637.7798606
603.6563024
571.4754731
541.1410848
512.5832751
485.6982513
460.3911245
436.5956539
414.2116628
393.181255
373.3040371
2782.722178
2773.513572
2756.966417
2730.522279
2696.780554
2656.263717
2609.5674
2557.332605
2500.323786
2439.100208
2374.310079
2306.537257
2236.31257
2164.181024
2090.610238
2016.068378
1940.991121
1865.722628
1790.700372
1716.171006
1642.475765
1569.909995
1498.67856
1429.032018
1361.154259
1295.18483
1231.288022
1169.56914
1110.09415
1052.944356
998.1698576
945.764095
895.7379355
848.0999756
802.7896697
759.7657178
719.0010479
680.4049178
643.9052824
609.4487903
576.930183
546.2656048
517.390281
490.1943646
464.5953307
440.5177257
417.8599933
396.5561967
376.5441124
357.6206982
2675.59621
2666.738581
2650.793269
2625.332183
2592.740367
2553.560606
2508.447332
2457.996432
2402.847649
2343.669787
2280.984651
2215.454183
2147.516682
2077.765408
2006.598124
1934.549972
1861.943618
1789.233638
1716.722135
1644.750222
1573.655874
1503.650946
1435.009312
1367.938047
1302.594706
1239.167622
1177.771383
1118.49344
1061.439594
1006.659601
954.1685279
903.9990462
856.1548647
810.5940032
767.2941003
726.2199136
687.2958617
650.4650117
615.6648621
582.8012828
551.8023565
522.5926428
495.0718928
469.1662506
444.7905259
421.8491345
400.2751296
379.9864053
360.9210309
342.9086645
2573.263148
2564.69772
2549.24299
2524.663414
2493.223451
2455.350398
2411.689604
2362.906176
2309.56088
2252.298732
2191.687188
2128.24665
2062.551487
1995.04643
1926.247719
1856.542615
1786.36794
1716.090795
1646.040457
1576.601312
1507.990681
1440.505847
1374.379128
1309.785601
1246.938209
1185.961423
1126.965042
1070.080403
1015.356714
962.8320805
912.5624949
864.5459131
818.7607337
775.2055298
733.8354845
694.5912453
657.433852
622.2896656
589.0767615
557.7371648
528.1840365
500.3269327
474.1014746
449.4122336
426.1729461
404.3194548
383.7560688
364.4201964
346.2546353
329.0810523
2475.546248
2467.263493
2452.231933
2428.396533
2397.950398
2361.339642
2319.08866
2271.851232
2220.246202
2164.794573
2106.136282
2044.745365
1981.170752
1915.871929
1849.323401
1781.923721
1714.10748
1646.190887
1578.594268
1511.555808
1445.390078
1380.356835
1316.647678
1254.500487
1194.050542
1135.430263
1078.797353
1024.200756
971.7025627
921.3833347
873.2350817
827.2582846
783.4734467
741.8255323
702.2737026
664.7975449
629.3115424
595.7484201
564.0642978
534.1599877
505.9591024
479.4014435
454.3854935
430.8384952
408.6861159
387.8383018
368.2332796
349.7948022
332.4627333
316.0921245
2381.864113
2373.898826
2359.361102
2336.289497
2306.761161
2271.296202
2230.416841
2184.67429
2134.700731
2081.055324
2024.238787
1964.850069
1903.300408
1840.154331
1775.756741
1710.621477
1645.052666
1579.487425
1514.205997
1449.529948
1385.748322
1323.067692
1261.750589
1201.944283
1143.803121
1087.512597
1033.12176
980.7214156
930.4051763
882.1725753
836.0483256
792.0591291
750.1567991
710.3206731
672.5316723
636.7105237
602.8068055
570.7701735
540.5103358
511.9645592
485.0603682
459.7066637
435.8398273
413.3744467
392.2281053
372.3451477
353.6340651
336.0359593
319.4985514
303.8667924
2292.015054
2284.316205
2270.219463
2247.945202
2219.413409
2185.034066
2145.431205
2101.165223
2052.759082
2000.820613
1945.849939
1888.343011
1828.818303
1767.684774
1705.435738
1642.433647
1579.105094
1515.777625
1452.773265
1390.412136
1328.914229
1268.566594
1209.530044
1151.986634
1096.130263
1042.032404
989.8109452
939.5574025
891.295682
845.0753212
800.9145015
758.7877047
718.6950714
680.6063292
644.4615037
610.2264107
577.8384372
547.2220955
518.3277709
491.070447
465.370675
441.1744578
418.3841945
396.9315184
376.751707
357.7587986
339.8948655
323.0897488
307.2894714
292.3666447
2206.085667
2198.634725
2184.902421
2163.296471
2135.652539
2102.399603
2064.026246
2021.137847
1974.286384
1923.958229
1870.742951
1815.079577
1757.462405
1698.339315
1638.141991
1577.272604
1516.108464
1454.968946
1394.207704
1334.056619
1274.82719
1216.695929
1159.872156
1104.558162
1050.850352
998.8932434
948.7765008
900.5493352
854.2869993
809.9991704
767.684312
727.3642326
688.9973619
652.5451406
617.9899303
585.2562415
554.2887311
525.04227
497.4274371
471.382262
446.8408952
423.7155216
401.9458738
381.4556197
362.1682211
344.0292587
326.9553744
310.8949209
295.7963775
281.5267554
2123.708811
2116.536087
2103.225843
2082.27363
2055.441527
2023.215374
1986.065035
1944.511183
1899.119615
1850.41232
1798.840049
1744.973801
1689.209011
1632.045861
1573.854129
1515.062844
1455.983751
1397.006635
1338.372781
1280.417578
1223.335644
1167.362169
1112.708929
1059.497403
1007.898371
958.000136
909.8779142
863.6339624
819.2691502
776.8135546
736.2945867
697.6760513
660.9458867
626.0763216
593.0063927
561.6995059
532.0963381
504.1222864
477.7282486
452.8346471
429.3659569
407.2699314
386.4579911
366.8687263
348.4367137
331.0851741
314.7636787
299.4036076
284.9594223
271.3152139
2024.827828
2004.570424
1978.624954
1947.370967
1911.355163
1871.120258
1827.14673
1779.964154
1730.074178
1677.907462
1624.004034
1568.707285
1512.498954
1455.676426
1398.671504
1341.73133
1285.213449
1229.333043
1174.348816
1120.483218
1067.881691
1016.741953
967.1513617
919.2214126
873.0527206
828.6684813
786.1264204
745.4433936
706.6055316
669.6244656
634.459044
601.0669181
569.4303884
539.4754766
511.146341
484.3999266
459.1498235
435.3385507
412.9007695
391.7576497
371.8565119
353.1194729
335.4807394
318.8864226
303.2627891
288.5653483
274.7402868
261.6766845
)
;

boundaryField
{
    front_top
    {
        type            wedge;
    }
    front_middle
    {
        type            wedge;
    }
    front_bottom
    {
        type            wedge;
    }
    back_top
    {
        type            wedge;
    }
    back_middle
    {
        type            wedge;
    }
    back_bottom
    {
        type            wedge;
    }
    axis_top
    {
        type            symmetryPlane;
    }
    axis_middle
    {
        type            symmetryPlane;
    }
    axis_bottom
    {
        type            symmetryPlane;
    }
    wall_top
    {
        type            calculated;
        value           nonuniform List<scalar> 
23
(
689.341814
652.6219983
618.415107
586.5502469
556.840082
529.1176283
503.2568112
479.1034789
456.530675
435.4427735
415.7031598
397.2312441
379.9244267
363.705372
348.4939222
334.212629
320.8006387
308.1910084
296.3321799
285.1664458
274.6492336
264.7337362
255.3775435
)
;
    }
    wall_middle
    {
        type            calculated;
        value           nonuniform 0();
    }
    wall_bottom
    {
        type            calculated;
        value           nonuniform 0();
    }
    inlet
    {
        type            calculated;
        value           nonuniform 0();
    }
    outlet
    {
        type            calculated;
        value           nonuniform 0();
    }
    procBoundary9to8
    {
        type            processor;
        value           nonuniform List<scalar> 
51
(
2044.693449
2037.756411
2037.756411
1949.790802
1930.13499
1904.984088
1874.718759
1839.820771
1800.801211
1758.223756
1712.537848
1664.247255
1613.820793
1561.658953
1508.240504
1453.889787
1399.047148
1343.987536
1289.080044
1234.563475
1180.717113
1127.775526
1075.908491
1025.334776
976.1494744
928.4990092
882.4803121
838.1422238
795.5695355
754.7691153
715.7521279
678.5505233
643.1133991
609.425103
577.4647417
547.1664669
518.4935359
491.3886876
465.7802814
441.622904
418.8370212
397.3571884
377.1323425
358.0797394
340.1450834
323.2633438
307.3683775
292.4147514
278.3351902
265.0932252
252.5798089
)
;
    }
    procBoundary9to10
    {
        type            processor;
        value           nonuniform List<scalar> 
51
(
5677.677183
5657.185996
5617.222268
5556.486394
5479.067721
5386.809137
5281.775449
5165.886757
5040.970099
4908.963424
4771.280101
4629.586785
4485.005514
4338.803663
4191.940599
4045.246868
3899.548033
3755.348382
3447.064122
3447.064122
3314.2333
3183.728098
3055.758556
2930.514895
2808.178949
2688.864258
2572.638774
2459.568389
2349.699717
2243.125572
2139.822007
2039.812327
1943.111925
1849.742739
1759.731945
1673.049485
1589.682114
1509.6088
1432.840646
1359.345464
1289.070227
1221.965673
1157.998988
1097.105184
1039.195821
984.1837909
931.9971437
882.5345428
835.7069552
791.4777258
749.304428
)
;
    }
}


// ************************************************************************* //
