/*--------------------------------*- C++ -*----------------------------------*\
  =========                 |
  \\      /  F ield         | OpenFOAM: The Open Source CFD Toolbox
   \\    /   O peration     | Website:  https://openfoam.org
    \\  /    A nd           | Version:  7
     \\/     M anipulation  |
\*---------------------------------------------------------------------------*/
FoamFile
{
    version     2.0;
    format      ascii;
    class       volVectorField;
    location    "0.0006";
    object      grad(generalizedNewtonian:nu);
}
// * * * * * * * * * * * * * * * * * * * * * * * * * * * * * * * * * * * * * //

dimensions      [0 1 -1 0 0 0 0];

internalField   nonuniform List<vector> 
1166
(
(-575642.5916 0 3167229.334)
(-1232373.037 0 3152395.701)
(-1982077.332 0 3119111.588)
(-2727492.932 0 3072047.634)
(-3394962.623 -1.056039137e-07 3012072.419)
(-4013366.574 0 2941450.54)
(-4577286.303 0 2862072.04)
(-5085842.793 0 2776417.027)
(-5534417.508 0 2685725.76)
(-5927575.283 0 2592340.606)
(-6265966.249 0 2497045.951)
(-6552773.092 0 2401636.865)
(-6792628.187 4.747149317e-08 2306557.875)
(-6986926.444 0 2213117.714)
(-7143251.915 0 2121804.161)
(-7263253.275 0 2033421.374)
(-7351676.278 0 1948525.742)
(-7414977.061 0 1867199.501)
(-538195.5096 0 2939528.446)
(-1142029.162 0 2926367.511)
(-1838805.636 1.826288479e-07 2896869.45)
(-2536091.691 0 2855224.278)
(-3159029.369 -1.072485491e-07 2802322.795)
(-3738639.68 0 2740024.779)
(-4270157.499 0 2670224.929)
(-4751633.187 0 2594582.964)
(-5178574.763 0 2514356.997)
(-5555090.276 0 2431257.871)
(-5881542.971 0 2346184.153)
(-6160599.133 0 2260570.817)
(-6396662.949 0 2175180.251)
(-6591439.548 0 2091064.205)
(-6751298.854 0 2008916.776)
(-6877745.757 0 1929211.736)
(-6974214.927 0 1852274.61)
(-7046663.636 0 1778417.595)
(-7095487.526 1.921950497e-08 1707780.64)
(-7123390.676 0 1640332.296)
(-7135174.65 0 1576241.042)
(-7132343.886 0 1515280.929)
(-7113794.274 0 1457217.332)
(-7082045.618 0 1401707.762)
(-7040529.538 0 1348943.346)
(-6989350.704 0 1298581.031)
(-6927706.548 0 1250341.501)
(-6855890.384 0 1203762.429)
(-6776094.351 0 1159143.044)
(-6688783.447 0 1116015.566)
(-6593178.674 0 1074189.107)
(-6488315.684 0 1033395.62)
(-6375381.694 0 993529.5832)
(-6256334.041 0 954778.7418)
(-6130999.073 0 916916.5669)
(-5998515.611 0 879787.6474)
(-5858467.562 0 843119.8762)
(-5713184.82 0 807270.5248)
(-5564077.167 0 772222.3084)
(-5410458.885 0 737884.6425)
(-5252474.252 0 704127.7295)
(-5092291.263 0 671255.1797)
(-4931625.661 0 639339.5224)
(-4770022.334 0 608299.6257)
(-4607977.682 0 578071.326)
(-4447662.733 0 548925.1128)
(-4289027.9 0 520886.0562)
(-4127353.819 0 493746.6849)
(-3986271.625 0 467733.6803)
(-3894548.586 0 442596.2787)
(-505251.1541 0 2743769.162)
(-1063655.653 0 2732022.961)
(-1714859.631 0 2706112.404)
(-2370342.529 0 2669306.049)
(-2954246.244 0 2622493.17)
(-3500026.929 0 2567189.75)
(-4002394.911 0 2505084.562)
(-4458722.901 -7.103651739e-08 2437382.033)
(-4865431.953 0 2365442.087)
(-5226018.214 0 2290642.025)
(-5540801.284 -2.757331715e-08 2214052.297)
(-5812712.963 0 2136773.032)
(-6045385.3 0 2059772.985)
(-6240265.213 0 1983743.425)
(-6402763.586 0 1909336.709)
(-6533146.569 0 1836916.651)
(-6635623.617 0 1766739.139)
(-6715924.438 0 1699271.777)
(-6772638.958 0 1634527.235)
(-6809403.383 0 1572386.775)
(-6830404.182 0 1513110.594)
(-6835620.229 0 1456358.243)
(-6824373.77 0 1401850.711)
(-6800526.878 0 1349787.261)
(-6766835.591 -8.687182058e-09 1300013.876)
(-6721728.846 0 1252195.44)
(-6664620.668 0 1206007.835)
(-6597474.448 0 1161375.636)
(-6522098.495 8.328864704e-09 1118322.728)
(-6437565.261 0 1076500.452)
(-6343341.165 0 1035722.35)
(-6239598.973 0 995696.1012)
(-6128458.272 0 956779.3571)
(-6010751.746 0 918765.98)
(-5885507.101 0 881495.3506)
(-5751802.322 0 844657.0904)
(-5611962.582 0 808568.1137)
(-5468011.741 0 773333.09)
(-5319319.422 0 738835.0611)
(-5165665.132 0 704928.6408)
(-5009084.007 0 671859.5408)
(-4851783.664 0 639794.8058)
(-4693395.019 0 608648.2997)
(-4533952.809 0 578316.7758)
(-4375692.959 0 549049.503)
(-4220245.92 0 520934.8011)
(-4064784.421 0 493735.4461)
(-3908124.471 0 467585.188)
(-3772422.887 0 442770.476)
(-3681135.757 0 418635.4357)
(-476333.6634 0 2575203.719)
(-995557.8204 0 2564615.856)
(-1606765.93 0 2541601.69)
(-2225059.195 0 2508597.579)
(-2774325.865 0 2466557.919)
(-3289374.104 0 2416846.409)
(-3764879.912 0 2360747.214)
(-4198414.045 0 2299538.799)
(-4586714.249 6.54485672e-08 2234579.647)
(-4933245.517 0 2166897.553)
(-5237829.671 -2.800273372e-08 2097694.691)
(-5503176.833 0 2027742.364)
(-5732386.656 -2.486206095e-08 1957957.883)
(-5926212.041 0 1888738.825)
(-6089849.552 0 1820871.717)
(-6223272.46 0 1754577.121)
(-6330622.958 0 1690331.673)
(-6416829.482 0 1628343.205)
(-6479626.598 1.982280076e-08 1568482.147)
(-6523001.645 0 1510882.642)
(-6550587.262 0 1455566.156)
(-6561196.474 0 1402348.442)
(-6556425.034 -9.09508478e-09 1350957.007)
(-6539380.423 0 1301859.972)
(-6510659.923 -1.764494599e-08 1254538.461)
(-6469303.496 0 1208810.65)
(-6415805.724 -8.614462062e-09 1164272.633)
(-6352343.584 0 1121318.892)
(-6279465.635 0 1079550.393)
(-6196336.654 0 1038800.577)
(-6102327.494 8.345660861e-09 998726.4975)
(-5999760.228 0 959629.9046)
(-5890279.032 0 921493.0924)
(-5772646.25 0 884066.9094)
(-5645856.038 0 847091.7259)
(-5512123.686 0 810776.192)
(-5373793.039 0 775358.9407)
(-5230373.093 0 740677.0102)
(-5081515.699 0 706610.8346)
(-4929078.531 0 673333.4858)
(-4775502.592 0 641099.0239)
(-4620657.779 0 609807.9079)
(-4464259.04 4.14014205e-09 579333.5322)
(-4308408.649 0 549909.4738)
(-4155148.274 0 521677.2354)
(-4002901.97 0 494388.548)
(-3851972.645 0 468134.1197)
(-3701976.223 0 443161.4265)
(-3569943.199 0 419272.3814)
(-3481213.147 0 396124.8381)
(-450349.7816 0 2427491.198)
(-935115.1308 0 2417765.839)
(-1510673.115 0 2396994.638)
(-2095486.439 0 2366998.161)
(-2613898.613 0 2328821.406)
(-3101302.663 0 2283764.346)
(-3552776.756 0 2233012.434)
(-3966571.42 0 2177604.077)
(-4338616.724 0 2118869.917)
(-4672394.689 0 2057501.224)
(-4967558.207 2.843883754e-08 1994711.271)
(-5226389.667 0 1931024.258)
(-5451220.773 2.524925314e-08 1867422.746)
(-5643366.69 0 1804084.089)
(-5807617.195 0 1741956.116)
(-5943211.738 0 1680957.716)
(-6054421.415 0 1621848.006)
(-6144327.043 0 1564484.413)
(-6211266.268 0 1508600.277)
(-6259585.183 0 1454776.47)
(-6291945.532 0 1402826.561)
(-6306822.005 0 1352595.65)
(-6306886.237 0 1304024.675)
(-6294591.241 0 1257288.454)
(-6269359.61 -8.959870801e-09 1211996.362)
(-6229999.829 0 1167840.988)
(-6179060.86 0 1124932.081)
(-6118378.815 0 1083278.179)
(-6046654.228 0 1042563.207)
(-5963075.284 0 1002517.468)
(-5869814.031 0 963277.7119)
(-5768936.634 0 925046.4379)
(-5659274.607 0 887475.0931)
(-5540049.176 -4.185352847e-09 850361.1534)
(-5413092.548 0 813841.9171)
(-5280719.033 8.338219619e-09 778232.9458)
(-5142911.022 0 743356.9045)
(-4999312.736 -4.165679738e-09 709105.3287)
(-4851540.968 0 675617.0032)
(-4702036.773 0 643184.3334)
(-4551021.782 0 611713.6546)
(-4397999.879 0 581062.3421)
(-4245038.178 0 551453.0989)
(-4094239.795 4.219580043e-09 523065.4251)
(-3944261.764 0 495639.4626)
(-3796333.969 0 469262.9429)
(-3651571.009 0 444148.0378)
(-3506545.758 2.150227726e-09 420095.7475)
(-3378508.945 2.162809647e-09 397148.462)
(-3292226.668 2.176329606e-09 375114.4603)
(-426680.5741 0 2296232.204)
(-880846.1061 3.150491048e-07 2287337.563)
(-1424480.734 1.94274149e-07 2268609.069)
(-1979211.999 0 2241316.895)
(-2470334.868 0 2206634.333)
(-2933893.337 0 2165717.251)
(-3364213.067 0 2119863.301)
(-3760010.997 0 2069523.986)
(-4116989.528 3.375149118e-08 2016111.925)
(-4438796.082 0 1960114.712)
(-4724783.985 0 1902677.884)
(-4977278.916 0 1844508.371)
(-5198076.616 0 1786244.464)
(-5388283.851 0 1728161.805)
(-5552000.471 0 1671085.517)
(-5688815.881 0 1614678.529)
(-5802557.338 0 1559816.254)
(-5893690.37 2.102665328e-08 1506247.885)
(-5963357.115 0 1453769.175)
(-6015841.115 0 1403227.456)
(-6051406.06 0 1354229.915)
(-6069418.607 0 1306421.928)
(-6073120.186 0 1260306.528)
(-6063870.113 0 1215554.717)
(-6039750.882 -9.099408352e-09 1171869.883)
(-6002305.188 0 1129070.679)
(-5953669.874 0 1087590.583)
(-5893687.575 -8.798413689e-09 1046955.056)
(-5821265.61 0 1006966.828)
(-5738026.568 0 967641.195)
(-5646072.481 0 929308.1381)
(-5544886.949 0 891608.6598)
(-5433643.759 0 854355.9792)
(-5313953.757 0 817661.6985)
(-5188082.769 0 781834.8426)
(-5056325.302 0 746759.6162)
(-4918331.147 0 712304.4045)
(-4775638.168 0 678606.765)
(-4630657.762 0 645950.9633)
(-4483765.649 4.238651117e-09 614271.7867)
(-4334426.171 -4.246678804e-09 583416.2172)
(-4184735.999 -2.128598464e-09 553601.0247)
(-4036802.793 0 525028.7082)
(-3889268.086 -4.285294145e-09 497422.8639)
(-3743489.252 -2.151347552e-09 470886.4968)
(-3601502.482 0 445617.4459)
(-3461449.718 0 421407.0584)
(-3321629.599 0 398272.0668)
(-3199029.127 0 376414.5907)
(-3114363.447 0 355346.5305)
(-405630.2 0 2179519.361)
(-832911.338 0 2171545.397)
(-1347867.201 0 2154849.844)
(-1875431.172 0 2130092.985)
(-2342026.468 -1.158639874e-07 2098580.9)
(-2784350.141 0 2061324.855)
(-3195248.687 0 2019566.203)
(-3574194.935 -3.778307558e-08 1973422.719)
(-3917258.53 -3.427712388e-08 1924354.8)
(-4227575.934 0 1873233.34)
(-4505820.254 0 1820435.806)
(-4752695.205 0 1767105.991)
(-4969011.734 0 1713252.371)
(-5157197.918 0 1659772.521)
(-5319455.068 0 1606878.436)
(-5455670.541 0 1554297.458)
(-5570339.371 0 1502934.146)
(-5661938.58 0 1452433.768)
(-5733905.292 -2.076343689e-08 1403234.317)
(-5789617.376 0 1355547.12)
(-5826240.045 0 1308896.365)
(-5846518.399 0 1263336.353)
(-5853129.79 0 1219238.353)
(-5844626.83 0 1176108.341)
(-5821013.809 0 1133621.944)
(-5784889.638 0 1092258.207)
(-5737157.459 0 1051775.706)
(-5676309.386 0 1011895.092)
(-5603560.147 0 972559.1819)
(-5521072.09 0 934120.1319)
(-5428876.373 0 896324.7493)
(-5326053.736 0 858949.9897)
(-5214090.908 0 822099.6544)
(-5095232.038 0 786077.1175)
(-4969991.621 0 750811.556)
(-4837983.803 0 716147.7106)
(-4700765.055 0 682241.2381)
(-4560732.988 0 649366.1575)
(-4418274.178 0 617462.0655)
(-4272939.194 0 586386.7543)
(-4126868.827 0 556355.8901)
(-3982115.981 0 527580.9602)
(-3837326.644 -4.33660103e-09 499764.91)
(-3693894.166 0 473038.9115)
(-3553975.75 0 447594.7417)
(-3416526.853 0 423212.7478)
(-3281289.014 0 399909.8341)
(-3148038.295 0 377848.3987)
(-3029971.677 0 356901.2253)
(-2948150.247 0 336720.9447)
(-387202.2626 0 2075623.716)
(-791006.0306 3.249384243e-07 2068302.04)
(-1279924.115 0 2053469.613)
(-1782467.372 0 2030986.064)
(-2226806.704 -1.176684091e-07 2002195.602)
(-2649705.66 0 1968038.288)
(-3042462.692 0 1929783.992)
(-3405446.8 0 1887525.052)
(-3737111.219 3.481094279e-08 1842418.789)
(-4037474.388 -3.202333469e-08 1795674.641)
(-4307433.995 0 1747017.948)
(-4547861.219 0 1697836.799)
(-4760086.111 0 1647747.883)
(-4946059.68 0 1598012.909)
(-5105227.483 0 1548207.844)
(-5240340.492 0 1499003.129)
(-5354737.622 0 1450729.437)
(-5447164.337 -2.168667513e-08 1402952.714)
(-5521269.999 0 1356617.504)
(-5577233.93 0 1311222.089)
(-5614609.557 0 1266425.717)
(-5636744.667 0 1222966.143)
(-5644195.645 9.675031539e-09 1180400.603)
(-5634905.803 0 1138385.014)
(-5611759.491 0 1097188.203)
(-5576638.025 0 1056926.467)
(-5527817.428 0 1017201.339)
(-5465985.857 0 977896.4255)
(-5393454.994 0 939395.1679)
(-5310759.533 0 901542.6779)
(-5216810.207 0 864070.296)
(-5113028.409 0 827086.4026)
(-5001672.138 0 790893.3639)
(-4883397.205 0 755452.8813)
(-4757754.943 0 720582.5021)
(-4626406.89 0 686470.0822)
(-4491740.667 0 653381.4815)
(-4354027.045 0 621240.9748)
(-4213019.559 0 589936.4215)
(-4070912.092 0 559684.043)
(-3929627.931 0 530691.5256)
(-3787818.631 0 502638.787)
(-3647044.752 0 475699.4951)
(-3509432.251 0 450060.9956)
(-3373863.92 0 425475.5371)
(-3241088.119 0 401993.4114)
(-3112111.962 2.240088762e-09 379755.9429)
(-2984180.74 0 358586.1129)
(-2870217.629 1.1327199e-09 338500.169)
(-2791144.311 1.139800656e-09 319324.5418)
(-369946.4364 0 1982777.011)
(-753679.9533 3.299988895e-07 1975738.49)
(-1219554.314 0 1962208.104)
(-1698851.926 0 1941840.721)
(-2122505.006 5.975046565e-08 1915521.369)
(-2527916.619 0 1884053.563)
(-2905059.598 0 1848745.766)
(-3253795.552 0 1810217.811)
(-3574382.224 3.535307492e-08 1768730.375)
(-3864754.488 0 1725581.614)
(-4126970.041 0 1680456.016)
(-4361021.688 0 1634788.68)
(-4567925.589 0 1588007.976)
(-4749679.279 0 1541384.489)
(-4906547.227 0 1494322.546)
(-5041516.765 0 1448207.711)
(-5154515.601 0 1402509.926)
(-5246936.174 0 1357354.846)
(-5321729.282 0 1313229.707)
(-5376684.454 0 1269558.353)
(-5414627.719 0 1226684.406)
(-5437702.185 0 1184795.288)
(-5443575.917 0 1143336.434)
(-5434121.745 0 1102366.747)
(-5411589.827 0 1062360.101)
(-5375254.541 0 1022844.261)
(-5324779.036 0 983606.2707)
(-5262689.331 0 945081.6505)
(-5189990.212 -9.138065525e-09 907209.9211)
(-5105363.488 0 869665.2446)
(-5010214.248 0 832567.2499)
(-4906840.179 4.485054647e-09 796225.2673)
(-4795972.817 0 760622.84)
(-4677081.373 4.452231249e-09 725547.5206)
(-4552008.594 0 691232.5625)
(-4423125.686 0 657936.2818)
(-4290478.607 4.431526477e-09 625548.552)
(-4154134.063 0 594008.5467)
(-4016339.506 0 563531.9313)
(-3878812.202 0 534302.0824)
(-3740198.902 0 505993.537)
(-3602339.776 0 478820.7878)
(-3467377.712 0 452973.5938)
(-3333828.446 0 428153.9143)
(-3202870.839 2.253433805e-09 404466.5496)
(-3076275.255 2.263663632e-09 382049.722)
(-2952144.032 0 360670.5717)
(-2829309.323 -2.287336677e-09 340360.5705)
(-2720897.29 0 321271.6979)
(-2643889.529 1.15755147e-09 302929.018)
(-353427.4379 0 1899700.502)
(-718887.2383 3.35138164e-07 1893020.519)
(-1165208.369 0 1880311.988)
(-1624077.941 7.588054014e-08 1861597.868)
(-2028310.528 0 1837614.417)
(-2416850.447 -5.10481597e-08 1808690.831)
(-2780521.441 0 1775861.929)
(-3116446.24 0 1740436.762)
(-3425996.369 3.590364998e-08 1701863.706)
(-3706879.672 3.302853953e-08 1661549.113)
(-3961259.096 0 1619475.788)
(-4188676.51 0 1576421.315)
(-4390531.501 0 1532631.204)
(-4568334.501 0 1488747.023)
(-4722647.409 0 1444590.872)
(-4856200.918 0 1401060.138)
(-4967463.876 0 1357397.535)
(-5059474.502 0 1314595.046)
(-5132786.219 2.174870835e-08 1272279.695)
(-5187097.527 1.060424357e-08 1230119.507)
(-5225321.162 1.036781534e-08 1188971.975)
(-5246697.274 1.016054802e-08 1148199.444)
(-5251178.869 0 1107620.887)
(-5241576.76 0 1067858.163)
(-5218169.085 0 1028607.543)
(-5179485.849 0 989542.666)
(-5128300.64 0 951051.7176)
(-5066075.892 0 913212.6445)
(-4991209.575 -4.640189104e-09 875634.0448)
(-4905136.885 0 838454.5239)
(-4810211.718 9.156493389e-09 801995.9114)
(-4707192.897 0 766253.879)
(-4595448.674 0 730984.5406)
(-4477061.613 0 696480.7256)
(-4354377.16 0 662991.4735)
(-4227128.487 0 630353.7961)
(-4095804.936 0 598578.1937)
(-3962686.727 0 567879.8977)
(-3829157.859 0 538383.3811)
(-3693994.661 0 509828.0875)
(-3559339.522 0 482410.4509)
(-3427285.915 0 456345.3737)
(-3295999.464 0 431266.9712)
(-3167017.016 0 407353.5744)
(-3042272.442 0 384742.7241)
(-2920144.997 2.29891705e-09 363145.3569)
(-2800847.595 0 342634.4595)
(-2684472.394 0 323321.9406)
(-2580065.456 0 305007.5957)
(-2506507.033 0 287501.1103)
(-338377.5964 4.979836595e-07 1825185.768)
(-686795.7709 0 1818975.161)
(-1115001.108 0 1807150.202)
(-1556282.394 7.706227421e-08 1789356.241)
(-1943496.066 0 1767397.581)
(-2315797.407 0 1740863.988)
(-2666716.711 0 1710339.1)
(-2990564.627 -4.019230766e-08 1677122.8)
(-3288828.689 0 1641124.797)
(-3560962.672 0 1603002.104)
(-3807319.225 0 1563705.633)
(-4028830.89 0 1522858.076)
(-4226333.235 0 1481850.091)
(-4400180.401 0 1440097.45)
(-4552001.438 0 1398547.032)
(-4682247.583 0 1356927.133)
(-4791644.231 0 1315295.204)
(-4882943.332 -2.271575612e-08 1274335.457)
(-4953644.023 0 1233268.746)
(-5006934.592 0 1192795.795)
(-5044122.4 0 1152799.211)
(-5062819.475 0 1112759.798)
(-5066421.133 0 1073321.281)
(-5056176.747 0 1034429.803)
(-5029899.004 0 995624.9803)
(-4990162.863 0 957227.513)
(-4938627.767 0 919478.3399)
(-4873935.18 0 881908.717)
(-4797374.642 0 844684.6704)
(-4711351.861 0 808145.9871)
(-4616604.538 0 772276.227)
(-4512397.765 -4.625839439e-09 736849.3467)
(-4401112.533 0 702174.7985)
(-4285043.927 4.591985723e-09 668510.6267)
(-4163530.482 0 635624.4824)
(-4037577.943 -4.574164573e-09 603618.0425)
(-3909488.972 0 572704.7232)
(-3780124.674 -2.285200625e-09 542928.3246)
(-3648830.254 0 514117.87)
(-3517783.208 0 486453.5961)
(-3388731.787 0 460136.9709)
(-3259888.616 0 434807.8213)
(-3133155.387 -2.306561868e-09 410650.8825)
(-3010452.696 0 387816.2916)
(-2889784.049 -2.324168553e-09 365991.0024)
(-2772439.26 0 345272.1646)
(-2659374.539 0 325746.928)
(-2547465.126 -1.179567814e-09 307202.8115)
(-2447496.328 1.18646998e-09 289717.4298)
(-2376580.139 0 273102.5952)
(-324528.0178 0 1758389.02)
(-657617.0457 0 1752550.922)
(-1068040.063 0 1741660.474)
(-1493627.309 0 1724623.915)
(-1866745.578 0 1703594.361)
(-2223775.573 0 1679033.482)
(-2561309.714 0 1650452.601)
(-2874046.604 0 1618787.514)
(-3161735.709 0 1585182.51)
(-3425860.639 0 1549115.145)
(-3664844.517 0 1512195.674)
(-3880442.703 0 1473644.31)
(-4072956.412 0 1434933.711)
(-4242780.139 0 1395129.021)
(-4391460.554 0 1355652.554)
(-4518449.451 0 1315529.787)
(-4626148.95 0 1275898.685)
(-4714039.969 0 1236136.687)
(-4782994.654 0 1196355.788)
(-4835372.682 0 1157197.611)
(-4868861.049 0 1117855.488)
(-4886101.447 0 1078791.536)
(-4889079.644 0 1040332.057)
(-4875606.298 0 1001850.302)
(-4847687.134 0 963621.2312)
(-4807196.408 0 925964.6387)
(-4753083.394 0 888445.8348)
(-4686456.393 0 851215.6638)
(-4609778.492 4.785843626e-09 814634.9654)
(-4523643.575 0 778659.2287)
(-4427479.254 0 743104.1249)
(-4323791.438 0 708280.6552)
(-4214646.455 0 674464.5355)
(-4099218.69 0 641333.9107)
(-3979002.498 0 609104.2048)
(-3856303.056 0 577985.8573)
(-3731378.362 0 547923.1934)
(-3604245.112 0 518855.5029)
(-3477121.299 0 490960.8816)
(-3351166.625 0 464350.7131)
(-3225139.091 0 438763.4206)
(-3101025.161 0 414351.928)
(-2980343.665 0 391269.1438)
(-2861353.632 0 369207.4277)
(-2745599.455 0 348262.93)
(-2634216.647 1.185539777e-09 328518.5916)
(-2525263.323 0 309758.2189)
(-2418735.304 1.197937969e-09 292047.7248)
(-2323789.889 0 275425.9495)
(-2255548.074 0 259546.2298)
(-311629.3692 0 1696940.043)
(-630931.589 1.755206089e-07 1691553.032)
(-1024565.169 0 1681670.179)
(-1433299.584 7.94812411e-08 1665692.223)
(-1794153.628 0 1645214.964)
(-2138677.274 0 1621690.221)
(-2462606.578 -4.652015921e-08 1594939.244)
(-2765607.243 4.145393486e-08 1564924.914)
(-3044161.18 0 1533135.172)
(-3300137.584 0 1499276.446)
(-3532449.546 0 1464023.444)
(-3742357.682 0 1427873.026)
(-3929621.046 -1.428597254e-08 1390667.226)
(-4095114.062 1.359870483e-08 1353068.075)
(-4239833.404 -1.30155648e-08 1314998.049)
(-4363709.045 -1.251662068e-08 1276586.604)
(-4468509.683 0 1238378.512)
(-4553108.131 0 1199563.874)
(-4620208.186 0 1161218.857)
(-4669036.573 0 1122712.259)
(-4700300.784 0 1084132.945)
(-4716485.058 -1.064268869e-08 1046126.165)
(-4716163.15 0 1008043.72)
(-4700399.869 0 970042.6191)
(-4671336.058 0 932525.0001)
(-4628227.706 0 895113.7626)
(-4571966.848 0 857927.0314)
(-4505065.492 0 821351.4852)
(-4427930.75 -4.860376432e-09 785306.4018)
(-4340251.66 0 749659.9114)
(-4244606.477 0 714735.1649)
(-4142760.757 0 680776.4435)
(-4033774.747 0 647412.4468)
(-3919658.237 0 614976.4376)
(-3802716.123 0 583671.7906)
(-3682532.002 0 553322.703)
(-3559870.139 4.714102079e-09 524001.534)
(-3436971.176 0 495884.037)
(-3314294.808 2.358424326e-09 468969.465)
(-3191356.759 2.361443386e-09 443115.9311)
(-3070156.456 2.365915783e-09 418464.349)
(-2951570.605 0 395091.6907)
(-2834552.081 0 372778.2118)
(-2720625.176 0 351607.7607)
(-2610404.348 0 331612.7865)
(-2503062.92 1.204002897e-09 312630.6748)
(-2399411.002 0 294724.7502)
(-2298134.235 0 277842.9836)
(-2206983.569 0 261944.5635)
(-2141636.812 0 246861.9235)
(-300220.1729 0 1638078.422)
(-607466.9478 0 1633116.784)
(-985402.1627 0 1624409.511)
(-1377425.274 0 1609909.267)
(-1724913.46 -6.455031117e-08 1590970.99)
(-2058911.337 0 1568267.307)
(-2371859.497 0 1543225.568)
(-2664315.071 0 1515237.613)
(-2934778.419 0 1484850.566)
(-3182589.986 0 1453151.823)
(-3408869.025 3.268244376e-08 1419368.056)
(-3612516.522 0 1385140.203)
(-3794688.189 -1.450845687e-08 1349240.262)
(-3955989.878 0 1313437.249)
(-4096154.531 0 1276421.353)
(-4217096.181 0 1239593.105)
(-4317425.477 0 1202086.748)
(-4399049.991 0 1164574.376)
(-4463289.065 0 1127063.246)
(-4508654.8 -1.128042164e-08 1089118.47)
(-4538199.704 0 1051596.575)
(-4551340.954 0 1014023.45)
(-4548043.434 0 976332.9374)
(-4530748.638 0 939029.653)
(-4499044.118 0 901801.4757)
(-4453554 0 864720.8803)
(-4396828.006 -5.027039051e-09 828204.2712)
(-4329094.006 0 792132.9582)
(-4250328.366 0 756434.261)
(-4163147.902 0 721448.6546)
(-4068980.43 0 687331.5112)
(-3966787.345 -4.845345889e-09 653798.7868)
(-3859154.012 0 621176.9264)
(-3748357.405 0 589705.6765)
(-3633220.658 0 559071.1652)
(-3515339.147 0 529503.69)
(-3396973.842 4.787517719e-09 501172.4901)
(-3277810.652 -2.393638516e-09 473944.0066)
(-3158208.235 0 447819.9984)
(-3040170.107 2.398219611e-09 422934.432)
(-2923847.09 2.402761659e-09 399250.7269)
(-2808988.26 0 376672.4045)
(-2697136.383 0 355278.1395)
(-2588192.703 0 335002.6634)
(-2482076.42 1.21722778e-09 315785.2625)
(-2380108.888 0 297683.2821)
(-2281103.777 0 280551.2486)
(-2184327.721 0 264413.6314)
(-2098044.085 1.24277064e-09 249298.387)
(-2034877.772 -1.250539335e-09 234885.8759)
(-289588.689 0 1583924.671)
(-586889.6376 0 1578858.379)
(-951399.8758 0 1570491.85)
(-1328230.988 0 1557309.721)
(-1661742.795 0 1540218.461)
(-1984662.317 0 1519084.11)
(-2288357.486 0 1495008.136)
(-2570422.308 0 1468923.727)
(-2832912.515 0 1440052.406)
(-3073063.896 -3.568177265e-08 1409732.882)
(-3292435.976 0 1377782.428)
(-3490069.524 0 1344521.515)
(-3667044.419 0 1310473.717)
(-3823283.712 0 1275490.079)
(-3959147.296 0 1239955.991)
(-4075750.883 0 1203966.256)
(-4172492.065 0 1167274.146)
(-4251489.269 0 1130845.308)
(-4311102.153 0 1093660.086)
(-4354134.051 1.145609869e-08 1056705.351)
(-4381000.311 0 1019753.814)
(-4390431.48 0 982457.3803)
(-4385190.518 5.3901675e-09 945443.0341)
(-4365242.109 0 908475.8334)
(-4330882.988 0 871565.7768)
(-4284698.378 0 835162.8945)
(-4226750.95 0 799112.9958)
(-4157299.646 0 763406.1689)
(-4078977.868 0 728399.2159)
(-3992680.546 0 694140.5439)
(-3897913.223 0 660468.0544)
(-3797347.231 0 627680.7185)
(-3692818.364 0 596027.86)
(-3583029.951 0 565157.1565)
(-3470265.893 0 535349.8976)
(-3356767.928 0 506803.7051)
(-3241366.727 0 479263.2179)
(-3125354.972 0 452869.8213)
(-3010739.523 0 427750.5936)
(-2896873.234 0 403743.0423)
(-2784370.008 0 380895.2694)
(-2674798.163 0 359265.5646)
(-2567326.675 1.226819742e-09 338699.8451)
(-2462582.753 0 319234.0227)
(-2361958.522 0 300895.6471)
(-2264071.703 0 283541.1773)
(-2169491.271 0 267180.7547)
(-2078074.611 0 251826.3759)
(-1995129.962 0 237367.2566)
(-1934941.69 0 223645.4274)
(-278072.5907 0 1536439.677)
(-565098.3795 0 1531305.389)
(-918762.1553 0 1522736.075)
(-1283803.029 0 1509423.485)
(-1605076.686 0 1493168.519)
(-1915160.312 0 1473627.58)
(-2209724.483 0 1450524.169)
(-2483293.706 0 1425296.166)
(-2736451.021 -3.939191187e-08 1398111.874)
(-2970025.167 0 1368685.846)
(-3182154.396 0 1338340.491)
(-3374188.791 0 1306003.789)
(-3545653.922 0 1273329.363)
(-3696856.386 0 1239116.135)
(-3828388.033 -1.363318257e-08 1204833.213)
(-3939851.03 0 1169313.816)
(-4033349.536 0 1133833.102)
(-4107579.944 0 1097677.178)
(-4164289.74 0 1061379.812)
(-4204955.24 0 1025161.839)
(-4227323.739 0 988342.9846)
(-4234383.451 0 951691.3416)
(-4226521.365 5.474111863e-09 915067.6893)
(-4203626.82 0 878397.061)
(-4168324.822 0 842169.151)
(-4120541.633 0 806198.6045)
(-4060795.887 -5.184836657e-09 770537.8218)
(-3991713.52 0 735558.7336)
(-3913627.54 0 701194.6143)
(-3826700.537 0 667419.5221)
(-3733618.018 0 634534.4808)
(-3635496.296 0 602658.0359)
(-3531639.322 0 571581.2638)
(-3424524.939 0 541548.5582)
(-3315921.729 0 512755.8219)
(-3204606.409 0 484951.8645)
(-3092540.054 0 458288.8934)
(-2981555.228 0 432890.9496)
(-2870341.772 0 408599.7061)
(-2760439.921 0 385475.1406)
(-2653297.303 0 363566.6264)
(-2547476.002 0 342733.4322)
(-2444358.416 0 323006.9676)
(-2344970.216 0 304411.1202)
(-2248106.365 0 286816.7286)
(-2154931.92 0 270230.8139)
(-2065287.077 0 254654.5368)
(-1977624.565 0 239963.8987)
(-1898952.092 0 226186.9423)
(-1840963.748 0 213111.0014)
(-267474.1377 0 1491555.26)
(-544274.4214 0 1486977.617)
(-884845.8798 0 1479203.222)
(-1238498.799 0 1465928.942)
(-1551389.126 0 1449535.116)
(-1850979.092 0 1430707.106)
(-2134504.812 0 1409094.539)
(-2400556.273 2.204861947e-08 1384519.459)
(-2646004.915 0 1358430.051)
(-2872253.445 0 1330222.923)
(-3077760.914 1.711664928e-08 1300463.735)
(-3263467.362 0 1269616.528)
(-3429376.834 0 1237358.607)
(-3575498.21 0 1204414.982)
(-3701761.843 0 1170429.01)
(-3809149.964 0 1135988.723)
(-3898366.669 0 1101073.48)
(-3969059.846 0 1065530.781)
(-4023121.602 0 1030122.282)
(-4058570.777 0 993869.8233)
(-4078136.298 0 957662.4262)
(-4082663.36 0 921476.9857)
(-4071534.526 0 885124.0535)
(-4047425.996 0 849140.596)
(-4010171.971 0 813315.2013)
(-3960510.4 0 777761.4231)
(-3901035.016 0 742864.9187)
(-3831529.978 0 708436.8643)
(-3752828.746 0 674601.9267)
(-3667598.813 0 641666.6869)
(-3576142.264 0 609584.9953)
(-3478654.834 5.075268352e-09 578328.7521)
(-3377626.996 0 548130.2107)
(-3273906.018 0 519055.7441)
(-3167238.068 0 490996.6656)
(-3059642.442 0 464083.2116)
(-2952010.824 0 438395.3646)
(-2843973.313 0 413814.0945)
(-2737163.793 0 390411.358)
(-2632141.085 -2.512020477e-09 368215.851)
(-2528371.042 0 347099.0427)
(-2427281.246 0 327109.1427)
(-2329050.021 0 308239.4054)
(-2233319.718 0 290390.3089)
(-2141336.133 0 273588.3926)
(-2052562.414 0 257750.3628)
(-1966689.296 0 242837.9327)
(-1883726.577 0 228825.314)
(-1808335.231 0 215676.4997)
(-1753198.559 0 203217.7462)
(-258650.5034 0 1446736.692)
(-527197.1472 0 1442579.064)
(-855313.4701 0 1435973.519)
(-1195075.76 0 1424222.334)
(-1498366.706 -6.866635285e-08 1408711.09)
(-1790460.856 0 1390131.538)
(-2064766.108 0 1369430.482)
(-2321673.433 0 1346193.696)
(-2559946.541 0 1320564.679)
(-2778185.508 1.868747624e-08 1293618.086)
(-2977886.692 -1.738321764e-08 1264497.977)
(-3157473.687 0 1234558.163)
(-3317627.005 0 1203007.481)
(-3458348.274 0 1170804.398)
(-3580019.483 0 1137402.78)
(-3683366.801 0 1103781.705)
(-3767869.18 0 1069138.119)
(-3835277.18 0 1034470.797)
(-3884004.815 0 998921.0379)
(-3916272.987 0 963243.9258)
(-3933463.968 0 927596.5882)
(-3934371.026 0 891639.3911)
(-3921736.369 0 855967.3965)
(-3895346.314 0 820352.5127)
(-3856118.324 0 784963.2638)
(-3806602.477 0 750200.081)
(-3746038.635 -5.347587502e-09 715748.1671)
(-3675940.332 0 681893.0962)
(-3598940.462 0 648947.1511)
(-3514497.821 0 616684.4885)
(-3423743.647 0 585277.744)
(-3329164.322 0 554957.6793)
(-3230616.555 0 525599.0497)
(-3128894.639 0 497301.5497)
(-3026102.795 0 470197.3523)
(-2922064.92 0 444175.6662)
(-2817432.597 0 419313.0077)
(-2713993.009 0 395682.8903)
(-2611291.064 0 373147.414)
(-2509734.055 0 351747.4842)
(-2410862.38 0 331514.0158)
(-2313974.071 0 312334.2333)
(-2219558.086 -1.28503508e-09 294221.392)
(-2128820.324 0 277165.0727)
(-2040661.645 0 261086.0133)
(-1955809.981 -1.300722295e-09 245947.4147)
(-1874444.818 -1.307221934e-09 231708.3564)
(-1795043.762 1.314325049e-09 218328.3113)
(-1723549.066 0 205794.7314)
(-1670489.655 6.651399015e-10 193921.6263)
(-250114.6414 0 1405752.521)
(-511950.2243 0 1401342.022)
(-830220.2712 0 1394601.86)
(-1157921.075 8.720333593e-08 1383523.472)
(-1449494.257 3.486786787e-08 1369485.327)
(-1731843.353 0 1351802.536)
(-1998782.504 0 1331372.813)
(-2246912.908 0 1309038.004)
(-2477823.866 0 1284276.032)
(-2689441.669 0 1257708.372)
(-2881792.535 1.765393706e-08 1229837.287)
(-3055511.212 0 1200076.066)
(-3209837.422 1.567394325e-08 1169629.407)
(-3345277.159 0 1137612.193)
(-3462247.762 0 1105288.011)
(-3560528.928 0 1071721.15)
(-3641274.973 0 1037893.635)
(-3703628.654 0 1003281.39)
(-3748858.297 1.24970112e-08 968257.7328)
(-3778761.81 0 933271.0959)
(-3791913.448 0 897801.5727)
(-3790982.306 0 862516.4085)
(-3775759.889 0 827187.3223)
(-3747280.688 0 792027.2776)
(-3708051.907 0 757461.2188)
(-3656790.678 0 723038.3348)
(-3595665.313 -5.430868736e-09 689213.7582)
(-3527266.894 0 656278.1741)
(-3450209.13 0 623904.35)
(-3366561.564 0 592382.6208)
(-3278785.038 0 561937.2826)
(-3185739.788 0 532355.8251)
(-3089310.907 0 503839.8275)
(-2991632.006 0 476525.597)
(-2891453.128 0 450223.0572)
(-2790520.174 0 425084.0908)
(-2690691.483 2.586053146e-09 401188.2598)
(-2590500.397 0 378363.8436)
(-2491392.579 0 356677.1014)
(-2394844.956 1.295436118e-09 336158.5774)
(-2299492.519 0 316703.1321)
(-2206635.062 0 298319.0489)
(-2117034.331 0 280996.4833)
(-2029801.41 0 264663.8608)
(-1945973.088 2.630019074e-09 249294.0597)
(-1865241.527 0 234821.205)
(-1787264.835 0 221218.1878)
(-1712199.598 1.334793832e-09 208456.115)
(-1643725.658 0 196498.2105)
(-1593170.288 0 185175.8989)
(-240528.0268 0 1368961.018)
(-494366.355 0 1364607.894)
(-803398.208 0 1357636.995)
(-1122156.621 0 1345988.634)
(-1404822.394 0 1331702.694)
(-1676493.07 0 1315059.349)
(-1934803.924 0 1295309.282)
(-2175845.716 0 1273142.709)
(-2398204.783 -2.095186562e-08 1249282.002)
(-2603528.189 0 1223078.81)
(-2789451.567 3.585774534e-08 1195568.158)
(-2957085.059 -1.682979347e-08 1166599.71)
(-3105724.889 -1.59180432e-08 1136386.555)
(-3236116.095 0 1105320.651)
(-3348056.437 0 1073245.657)
(-3441744.9 1.394655548e-08 1040446.27)
(-3517832.773 -1.346760661e-08 1006967.569)
(-3576107.668 0 972738.2627)
(-3618567.138 0 938481.2258)
(-3644076.569 -1.237638438e-08 903590.081)
(-3655006.638 -1.210044515e-08 868772.9039)