/*--------------------------------*- C++ -*----------------------------------*\
  =========                 |
  \\      /  F ield         | OpenFOAM: The Open Source CFD Toolbox
   \\    /   O peration     | Website:  https://openfoam.org
    \\  /    A nd           | Version:  7
     \\/     M anipulation  |
\*---------------------------------------------------------------------------*/
FoamFile
{
    version     2.0;
    format      ascii;
    class       volScalarField;
    location    "0.0006";
    object      p;
}
// * * * * * * * * * * * * * * * * * * * * * * * * * * * * * * * * * * * * * //

dimensions      [1 -1 -2 0 0 0 0];

internalField   nonuniform List<scalar> 
1166
(
1488125.65
1486609.781
1487100.19
1487585.119
1488065.65
1488611.709
1489222.491
1489897.388
1490611.485
1491366.343
1492145.161
1492949.214
1493763.694
1494588.862
1495412.584
1496235.316
1497056.672
1497870.112
1486958.101
1485449.634
1485895.183
1486318.928
1486725.967
1487189.404
1487717.943
1488303.696
1488930.65
1489596.421
1490288.02
1491003.072
1491730.805
1492468.554
1493212.437
1493959.19
1494704.614
1495446.868
1496182.797
1496908.569
1497628.457
1498341.146
1499042.342
1499726.995
1500405.117
1501077.511
1501742.537
1502397.588
1503055.683
1503714.002
1504369.815
1505019.642
1505664.642
1506310.588
1506952.335
1507583.251
1508198.352
1508804.227
1509399.077
1509977.627
1510537.071
1511082.326
1511612.878
1512124.905
1512617.456
1513094.164
1513552.686
1513994.207
1514444.232
1514900.084
1485739.776
1484247.417
1484656.709
1485033.258
1485385.042
1485787.466
1486253.67
1486770.145
1487326.568
1487917.696
1488534.915
1489172.315
1489826.764
1490492.905
1491168.749
1491848.873
1492527.108
1493206.703
1493883.2
1494551.865
1495219.84
1495880.759
1496528.357
1497170.25
1497811.22
1498449.09
1499081.099
1499711.426
1500346.772
1500982.915
1501615.532
1502241.365
1502869.47
1503496.05
1504113.461
1504715.003
1505306.873
1505889.822
1506457.889
1507007.035
1507541.572
1508062.796
1508566.469
1509050.497
1509519.164
1509971.753
1510402.838
1510820.157
1511247.163
1511674.835
1484507.524
1483042.468
1483423.299
1483763.909
1484074.579
1484431.685
1484844.277
1485302.472
1485798.92
1486325.085
1486879.328
1487453.932
1488047.376
1488650.963
1489266.039
1489884.949
1490506.599
1491131.884
1491755.059
1492375.8
1492995.419
1493608.507
1494211.4
1494819.431
1495429.06
1496037.15
1496639.855
1497250.333
1497865.279
1498479.272
1499086.552
1499695.149
1500305.252
1500907.796
1501495.622
1502073.179
1502643.642
1503200.432
1503739.067
1504262.82
1504774.533
1505269.617
1505745.042
1506205.116
1506650.669
1507076.293
1507483.39
1507879.894
1508280.801
1508682.211
1483294.122
1481862.526
1482218.621
1482528.952
1482805.186
1483123.021
1483490.202
1483898.116
1484344.645
1484818.87
1485321.388
1485841.249
1486380.869
1486929.109
1487490.546
1488054.591
1488628.958
1489207.745
1489781.103
1490357.345
1490933.809
1491506.466
1492076.825
1492655.088
1493236.617
1493815.944
1494399.114
1494990.986
1495584.617
1496173.359
1496761.945
1497354.784
1497941.687
1498515.11
1499078.124
1499635.422
1500180.403
1500708.101
1501221.086
1501722.949
1502209.137
1502675.971
1503127.592
1503565.527
1503984.63
1504386.384
1504773.121
1505145.535
1505522.376
1505902.606
1482112.246
1480717.573
1481050.854
1481333.983
1481579.413
1481862.173
1482195.361
1482563.896
1482969.345
1483397.221
1483850.783
1484325.26
1484817.535
1485318.024
1485833.104
1486351.157
1486883.838
1487419.409
1487946.672
1488483.76
1489024.481
1489560.508
1490105.65
1490659.411
1491214.795
1491770.178
1492337.98
1492910.385
1493479.971
1494048.445
1494622.681
1495193.08
1495751.524
1496299.971
1496843.189
1497375.767
1497892.096
1498394.305
1498885.939
1499362.859
1499821.023
1500264.36
1500694.664
1501106.532
1501502.033
1501883.689
1502247.198
1502597.354
1502953.869
1503310.882
1480961.575
1479610.193
1479924.479
1480185.436
1480406.375
1480660.939
1480965.033
1481297.548
1481662.324
1482052.967
1482462.956
1482898.232
1483345.317
1483808.745
1484286.097
1484763.809
1485254.501
1485745.421
1486239.361
1486745.014
1487252.363
1487761.567
1488286.049
1488817.354
1489347.254
1489887.805
1490437.547
1490987.495
1491535.92
1492090.109
1492643.122
1493185.878
1493719.229
1494248.026
1494767.759
1495272.189
1495763.329
1496244.6
1496711.928
1497161.282
1497596.413
1498019.111
1498423.593
1498812.309
1499188.123
1499546.857
1499888.738
1500220.333
1500555.083
1500889.278
1479853.326
1478547.814
1478849.254
1479090.612
1479289.663
1479519.606
1479796.815
1480096.521
1480423.897
1480784.207
1481158.06
1481556.995
1481964.793
1482395.407
1482832.295
1483276.022
1483729.963
1484182.644
1484652.043
1485130.081
1485606.619
1486098.95
1486603.261
1487109.228
1487622.522
1488148.971
1488678.638
1489206.439
1489740.093
1490275.182
1490801.634
1491319.427
1491833.523
1492340.03
1492832.082
1493311.896
1493782.696
1494240.137
1494680.565
1495107.571
1495522.663
1495919.699
1496301.685
1496671.335
1497024.463
1497362.064
1497686.013
1497997.235
1498311.262
1498627.298
1478792.851
1477528.205
1477816.467
1478045.087
1478225.599
1478432.102
1478681.842
1478958.461
1479256.63
1479587.164
1479929.76
1480298.922
1480674.325
1481069.529
1481465.325
1481880.664
1482303.611
1482730.938
1483175.667
1483625.376
1484083.845
1484560.161
1485042.118
1485528.192
1486030.412
1486539.176
1487045.811
1487558.425
1488075.054
1488584.592
1489086.345
1489585.421
1490078.297
1490557.47
1491025.667
1491485.847
1491933.067
1492364.41
1492783.284
1493190.596
1493580.123
1493955.462
1494319.076
1494666.055
1494998.64
1495318.835
1495622.712
1495914.962
1496211.812
1496507.665
1477785.182
1476559.653
1476828.991
1477047.378
1477215.008
1477400.032
1477621.862
1477880.728
1478154.209
1478456.887
1478773.912
1479110.038
1479457.6
1479820.694
1480189.015
1480577.947
1480969.749
1481379.636
1481802.584
1482228.054
1482674.949
1483133.069
1483593.294
1484068.731
1484554.949
1485040.809
1485532.155
1486029.809
1486521.854
1487007.108
1487490.849
1487969.701
1488435.5
1488891.78
1489341.176
1489777.838
1490199.925
1490610.557
1491009.605
1491391.835
1491760.634
1492118.381
1492459.129
1492786.284
1493102.146
1493402.111
1493687.707
1493964.307
1494242.185
1494519.879
1476825.094
1475641.619
1475891.905
1476091.729
1476252.872
1476421.871
1476621.942
1476860.388
1477113.141
1477385.183
1477680.097
1477982.815
1478308.057
1478641.298
1478992.508
1479356.192
1479727.546
1480121.086
1480520.294
1480935.29
1481367.78
1481803.23
1482251.852
1482715.077
1483180.009
1483649.777
1484128.097
1484602.219
1485070.604
1485538.643
1486002.8
1486455.135
1486899.331
1487337.798
1487763.571
1488176.246
1488578.623
1488969.215
1489344.111
1489706.36
1490057.884
1490392.851
1490714.687
1491025.728
1491321.375
1491603.675
1491874.079
1492132.934
1492394.335
1492657.068
1475908.587
1474769.03
1475004.779
1475185.127
1475332.615
1475497.403
1475680.258
1475891.824
1476129.246
1476375.179
1476649.309
1476927.85
1477232.452
1477540.755
1477874.289
1478212.842
1478573.475
1478947.025
1479329.819
1479735.641
1480147.657
1480569.449
1481009.412
1481453.379
1481901.835
1482359.651
1482815.224
1483266.365
1483718.358
1484167.282
1484605.856
1485037.713
1485465.063
1485879.576
1486282.627
1486676.667
1487058.543
1487426.08
1487782.035
1488126.827
1488456.019
1488772.576
1489078.656
1489369.817
1489648.28
1489915.641
1490168.924
1490412.719
1490659.63
1490905.845
1475039.462
1473943.454
1474167.338
1474332.941
1474459.401
1474613.637
1474785.356
1474972.764
1475191.167
1475419.599
1475667.668
1475933.875
1476213.858
1476510.859
1476824.003
1477150.02
1477499.093
1477852.912
1478228.974
1478617.375
1479013.209
1479428.72
1479851.403
1480278.422
1480715.295
1481151.967
1481585.572
1482021.262
1482454.593
1482879.198
1483298.794
1483714.568
1484117.41
1484510.671
1484896.346
1485269.287
1485629.399
1485979.117
1486317.062
1486640.61
1486952.341
1487253.155
1487539.894
1487814.493
1488078.097
1488328.796
1488567.747
1488797.704
1489029.579
1489262.088
1474204.582
1473156.453
1473373.759
1473527.343
1473637.916
1473769.596
1473933.648
1474106.658
1474301.013
1474520.48
1474746.567
1475002.325
1475260.97
1475549.468
1475842.974
1476162.108
1476491.949
1476838.334
1477203.507
1477574.321
1477964.033
1478365.154
1478770.591
1479186.249
1479603.758
1480019.531
1480438.625
1480856.006
1481266.37
1481673.36
1482076.482
1482468.026
1482851.487
1483228.697
1483592.406
1483944.956
1484288.434
1484619.349
1484937.242
1485244.297
1485539.666
1485822.089
1486093.126
1486352.41
1486599.967
1486836.951
1487061.7
1487278.025
1487496.92
1487714.821
1473399.81
1472393.724
1472601.976
1472754.287
1472857.774
1472971.667
1473118.301
1473288.444
1473464.75
1473668.625
1473885.637
1474121.092
1474374.8
1474645.002
1474931.986
1475238.102
1475554.842
1475897.009
1476243.586
1476607.494
1476987.172
1477370.926
1477765.127
1478163.32
1478561.043
1478963.294
1479364.426
1479760.291
1480154.461
1480544.533
1480924.636
1481297.952
1481665.964
1482020.951
1482365.983
1482703.087
1483026.919
1483339.155
1483641.619
1483931.44
1484209.547
1484477.088
1484732.157
1484976.182
1485210.295
1485432.917
1485644.856
1485849.317
1486054.832
1486260.139
1472642.433
1471672.683
1471864.09
1472007.954
1472113.035
1472222.357
1472349.128
1472507.129
1472679.69
1472864.935
1473078.229
1473296.48
1473545.014
1473801.067
1474085.205
1474375.541
1474688.876
1475012.978
1475351.731
1475710.25
1476072.216
1476444.695
1476823.472
1477202.949
1477588.103
1477972.71
1478353.819
1478734.939
1479111.619
1479480.222
1479843.76
1480201.408
1480547.569
1480884.785
1481214.666
1481532.074
1481838.573
1482135.665
1482420.646
1482694.495
1482958.024
1483209.5
1483450.202
1483681.159
1483901.25
1484111.293
1484311.72
1484503.88
1484697.666
1484891.077
1471928.502
1471000.114
1471178.32
1471303.224
1471397.704
1471507.646
1471630.407
1471769.158
1471937.712
1472116.203
1472315.174
1472533.488
1472766.617
1473020.514
1473288.591
1473574.147
1473876.487
1474190.589
1474527.863
1474867.96
1475218.527
1475577.896
1475938.989
1476306.81
1476674.669
1477040.795
1477408.661
1477771.647
1478128.543
1478482.232
1478829.136
1479166.454
1479496.355
1479818.177
1480128.924
1480429.767
1480721.292
1481001.408
1481271.031
1481530.581
1481778.561
1482016.157
1482243.904
1482461.336
1482669.522
1482867.817
1483056.241
1483237.436
1483420.06
1483602.518
1471233.603
1470352.206
1470528.158
1470645.796
1470724.733
1470823.217
1470947.686
1471082.892
1471236.221
1471414.444
1471599.888
1471813.81
1472038.501
1472286.219
1472544.696
1472827.174
1473118.991
1473432.499
1473751.135
1474079.997
1474420.182
1474762.866
1475113.193
1475464.197
1475815.198
1476169.662
1476518.725
1476863.731
1477207.465
1477543.363
1477871.745
1478194.492
1478507.763
1478811.875
1479107.78
1479392.851
1479668.047
1479934.205
1480188.981
1480433.351
1480668.278
1480892.524
1481107.079
1481312.701
1481508.984
1481696.016
1481873.796
1482044.705
1482217.171
1482389.247
1470567.97
1469727.584
1469897.015
1470017.614
1470101.013
1470187.056
1470299.944
1470437.244
1470584.389
1470753.276
1470942.595
1471142.838
1471368.311
1471602.704
1471861.544
1472129.939
1472418.779
1472717.043
1473024.291
1473345.45
1473669.659
1474002.28
1474336.318
1474672.005
1475012.881
1475347.753
1475680.44
1476013.49
1476338.64
1476657.791
1476972.574
1477277.72
1477574.982
1477865.194
1478144.379
1478414.505
1478676.423
1478927.181
1479167.969
1479399.654
1479621.077
1479833.026
1480036.136
1480230.23
1480415.633
1480592.029
1480759.822
1480921.31
1481084.042
1481246.428
1469952.17
1469146.544
1469301.863
1469414.389
1469497.876
1469591.708
1469696.673
1469824.602
1469974.571
1470133.354
1470317.148
1470516.367
1470731.757
1470965.524
1471214.895
1471480.334
1471759.242
1472045.807
1472347.682
1472653.378
1472968.246
1473285.386
1473605.397
1473931.625
1474253.106
1474573.344
1474894.844
1475209.706
1475519.443
1475825.498
1476122.984
1476413.285
1476697.229
1476970.964
1477236.031
1477493.46
1477740.401
1477977.673
1478206.124
1478424.802
1478634.403
1478834.864
1479026.706
1479210.173
1479385.014
1479551.68
1479710.324
1479862.855
1480016.354
1480169.557
1469370.704
1468608.662
1468761.074
1468860.869
1468931.258
1469023.142
1469134.446
1469256.107
1469398.483
1469561.848
1469733.966
1469930.797
1470139.634
1470371.218
1470613.442
1470873.928
1471140.82
1471422.796
1471709.772
1472006.743
1472307.07
1472611.32
1472922.671
1473230.669
1473538.288
1473848.046
1474152.613
1474453.286
1474749.905
1475039.638
1475323.497
1475600.359
1475868.55
1476129.138
1476381.243
1476624.225
1476858.374
1477083.104
1477298.81
1477505.814
1477703.938
1477893.648
1478075.154
1478248.31
1478413.515
1478571.231
1478721.273
1478865.231
1479010.314
1479154.949
1468808.856
1468085.361
1468233.885
1468339.657
1468414.921
1468493.833
1468599.261
1468725.478
1468862.694
1469019.931
1469196.902
1469384.459
1469595.399
1469816.703
1470056.19
1470303.073
1470565.509
1470833.954
1471112.974
1471396.703
1471685.221
1471981.615
1472276.299
1472572.022
1472868.947
1473162.975
1473455.09
1473741.387
1474022.919
1474300.066
1474569.768
1474832.092
1475087.442
1475334.752
1475573.73
1475804.173
1476025.714
1476238.61
1476442.989
1476638.855
1476826.502
1477006.173
1477177.715
1477341.268
1477497.816
1477647.136
1477788.78
1477924.962
1478061.856
1478198.687
1468292.722
1467600.749
1467737.828
1467839.252
1467915.692
1468003.148
1468103.835
1468223.018
1468362.857
1468515.024
1468688.606
1468880.101
1469081.512
1469300.664
1469527.989
1469771.348
1470021.527
1470282.566
1470549.987
1470822.845
1471104.193
1471385.431
1471669.179
1471953.047
1472235.913
1472518.05
1472795.239
1473068.557
1473338.131
1473601.218
1473857.732
1474107.608
1474350.149
1474585.115
1474811.797
1475030.102
1475240.204
1475441.929
1475635.501
1475820.998
1475998.911
1476168.95
1476330.934
1476485.987
1476633.981
1476775.284
1476909.513
1477038.063
1477167.764
1477296.84
1467292.055
1467385.813
1467450.723
1467535.915
1467641.061
1467760.491
1467894.108
1468049.238
1468216.498
1468402.663
1468601.378
1468811.289
1469035.174
1469268.567
1469511.878
1469763.345
1470020.681
1470286.969
1470554.562
1470825.877
1471096.948
1471368.57
1471640.439
1471908.478
1472173.456
1472435.276
1472691.711
1472942.784
1473186.499
1473423.985
1473654.943
1473877.693
1474092.611
1474299.722
1474498.929
1474690.265
1474873.648
1475049.676
1475217.934
1475378.79
1475532.586
1475679.348
1475819.79
1475953.465
1476080.234
1476202.197
1476324.73
1476447.488
)
;

boundaryField
{
    front_top
    {
        type            wedge;
    }
    front_middle
    {
        type            wedge;
    }
    front_bottom
    {
        type            wedge;
    }
    back_top
    {
        type            wedge;
    }
    back_middle
    {
        type            wedge;
    }
    back_bottom
    {
        type            wedge;
    }
    axis_top
    {
        type            symmetryPlane;
    }
    axis_middle
    {
        type            symmetryPlane;
    }
    axis_bottom
    {
        type            symmetryPlane;
    }
    wall_top
    {
        type            fixedFluxPressure;
        gradient        uniform 0;
        value           nonuniform List<scalar> 
23
(
1514900.084
1511674.835
1508682.211
1505902.606
1503310.882
1500889.278
1498627.298
1496507.665
1494519.879
1492657.068
1490905.845
1489262.088
1487714.821
1486260.139
1484891.077
1483602.518
1482389.247
1481246.428
1480169.557
1479154.949
1478198.687
1477296.84
1476447.488
)
;
    }
    wall_middle
    {
        type            fixedFluxPressure;
        gradient        nonuniform 0();
        value           nonuniform 0();
    }
    wall_bottom
    {
        type            fixedFluxPressure;
        gradient        nonuniform 0();
        value           nonuniform 0();
    }
    inlet
    {
        type            zeroGradient;
    }
    outlet
    {
        type            fixedValue;
        value           nonuniform 0();
    }
    procBoundary9to8
    {
        type            processor;
        value           nonuniform List<scalar> 
51
(
1467809.312
1467156.152
1467156.152
1466855.992
1466951.462
1467024.146
1467105.854
1467204.714
1467326.49
1467464.363
1467611.861
1467778.215
1467954.931
1468149.034
1468353.559
1468571.156
1468796.839
1469032.806
1469274.824
1469526.075
1469779.745
1470037.812
1470296.779
1470557.227
1470818.639
1471077.56
1471334.815
1471587.784
1471836.876
1472081.616
1472319.867
1472552.257
1472778.739
1472997.787
1473209.346
1473413.408
1473609.958
1473798.729
1473980.319
1474154.611
1474321.283
1474480.86
1474633.401
1474778.956
1474918.311
1475050.924
1475177.649
1475298.045
1475413.232
1475529.704
1475645.544
)
;
    }
    procBoundary9to10
    {
        type            processor;
        value           nonuniform List<scalar> 
51
(
1489221.105
1487710.523
1488242.182
1488798
1489368.867
1490018.636
1490738.393
1491531.31
1492363.366
1493229.981
1494119.118
1495024.052
1495937.7
1496863.005
1497782.759
1498698.368
1499605.105
1500498.806
1498674.39
1498674.39
1499466.698
1500246.544
1501014.36
1501769.492
1502508.514
1503233.745
1503946.15
1504647.691
1505337.678
1506021.144
1506702.959
1507382.083
1508056.475
1508722.759
1509386.89
1510048.75
1510704.417
1511347.7
1511975.955
1512595.471
1513201.642
1513789.909
1514359.472
1514915.434
1515455.219
1515975.317
1516475.625
1516959.321
1517429.099
1517904.755
1518385.096
)
;
    }
}


// ************************************************************************* //
