/*--------------------------------*- C++ -*----------------------------------*\
  =========                 |
  \\      /  F ield         | OpenFOAM: The Open Source CFD Toolbox
   \\    /   O peration     | Website:  https://openfoam.org
    \\  /    A nd           | Version:  7
     \\/     M anipulation  |
\*---------------------------------------------------------------------------*/
FoamFile
{
    version     2.0;
    format      ascii;
    class       surfaceScalarField;
    location    "0.0006";
    object      phi;
}
// * * * * * * * * * * * * * * * * * * * * * * * * * * * * * * * * * * * * * //

dimensions      [1 0 -1 0 0 0 0];

internalField   nonuniform List<scalar> 
2258
(
4.952964809e-15
4.577703546e-11
1.941305286e-14
1.339490264e-10
4.275654248e-14
2.172023085e-10
7.432624949e-14
2.957386014e-10
1.13434866e-13
3.697532402e-10
1.593647615e-13
4.394352312e-10
2.113393754e-13
5.049675412e-10
2.686366287e-13
5.665267326e-10
3.30440867e-13
6.242835327e-10
3.960193322e-13
6.784028803e-10
4.645617084e-13
7.290436389e-10
5.353532462e-13
7.763594788e-10
6.076057222e-13
8.204980849e-10
6.806269686e-13
8.616021242e-10
7.536616442e-13
8.998089055e-10
8.260190479e-13
9.352504313e-10
8.970588695e-13
9.680542211e-10
9.983424293e-10
5.0530016e-15
4.577198245e-11
1.980346904e-14
1.339342759e-10
4.359770354e-14
2.171785142e-10
7.574157831e-14
2.957064576e-10
1.155074182e-13
3.697134744e-10
1.621323157e-13
4.393886063e-10
2.148326733e-13
5.049148409e-10
2.728364936e-13
5.664687288e-10
3.353298451e-13
6.242210394e-10
4.01547724e-13
6.783366625e-10
4.706818688e-13
7.289745048e-10
5.419823664e-13
7.762881783e-10
6.14666471e-13
8.204254008e-10
6.879960078e-13
8.615287946e-10
7.612479072e-13
8.997356536e-10
8.337284744e-13
9.351779507e-10
9.047543956e-13
9.679831952e-10
9.736756525e-13
9.982735081e-10
1.039861431e-12
1.026166507e-09
1.102662969e-12
1.051775513e-09
1.161529288e-12
1.075209108e-09
1.215916622e-12
1.096571577e-09
1.265290424e-12
1.115963152e-09
1.309037846e-12
1.133480377e-09
1.346749294e-12
1.149215327e-09
1.378022804e-12
1.163256514e-09
1.402508659e-12
1.175688787e-09
1.419782672e-12
1.18659369e-09
1.429768664e-12
1.196049007e-09
1.432329931e-12
1.204129197e-09
1.427381908e-12
1.210905664e-09
1.414826427e-12
1.216446793e-09
1.39462204e-12
1.220818101e-09
1.366963819e-12
1.224081902e-09
1.331963516e-12
1.226297965e-09
1.289686074e-12
1.227523526e-09
1.240053497e-12
1.227813528e-09
1.183287673e-12
1.227220147e-09
1.119570646e-12
1.225793292e-09
1.048998392e-12
1.223580763e-09
9.715729774e-13
1.220628386e-09
8.87542579e-13
1.216979665e-09
7.971478554e-13
1.21267608e-09
7.005171803e-13
1.207757464e-09
5.977257497e-13
1.202261836e-09
4.890861371e-13
1.196225311e-09
3.748673778e-13
1.189682248e-09
2.550923263e-13
1.182665832e-09
1.300104386e-13
1.175207409e-09
1.167336718e-09
5.117992688e-15
4.576686446e-11
2.005429177e-14
1.339193396e-10
4.413469639e-14
2.171544338e-10
7.66392328e-14
2.95673953e-10
1.168128208e-13
3.696733008e-10
1.638666991e-13
4.393415524e-10
2.170137681e-13
5.048616938e-10
2.75446161e-13
5.664102964e-10
3.383484584e-13
6.241581371e-10
4.049226286e-13
6.782700883e-10
4.743641825e-13
7.289050632e-10
5.458790575e-13
7.762166634e-10
6.18705005e-13
8.203525748e-10
6.920836267e-13
8.61455416e-10
7.652994129e-13
8.996624379e-10
8.37649648e-13
9.351056005e-10
9.084093164e-13
9.679124355e-10
9.769455567e-13
9.982049719e-10
1.042622441e-12
1.02610083e-09
1.104766585e-12
1.051713369e-09
1.162860012e-12
1.075151015e-09
1.216334604e-12
1.096518102e-09
1.264562202e-12
1.115914924e-09
1.307063929e-12
1.133437876e-09
1.343452967e-12
1.149178938e-09
1.373356349e-12
1.16322661e-09
1.396400385e-12
1.175665743e-09
1.412316564e-12
1.186577773e-09
1.42103655e-12
1.196040287e-09
1.422451381e-12
1.204127783e-09
1.416482472e-12
1.210911632e-09
1.402976104e-12
1.216460299e-09
1.382115057e-12
1.220838962e-09
1.35402036e-12
1.224109997e-09
1.318752057e-12
1.226333234e-09
1.27619767e-12
1.227566081e-09
1.226512862e-12
1.227863213e-09
1.169911705e-12
1.227276748e-09
1.10649149e-12
1.225856713e-09
1.036236784e-12
1.223651018e-09
9.593387555e-13
1.220705284e-09
8.760678736e-13
1.217062936e-09
7.865658876e-13
1.212765582e-09
6.908793718e-13
1.207853151e-09
5.892836263e-13
1.202363431e-09
4.82078428e-13
1.196332516e-09
3.693010224e-13
1.189795025e-09
2.511469155e-13
1.182783986e-09
1.280282365e-13
1.175330528e-09
1.167464746e-09
5.152174887e-15
4.576171229e-11
2.018582178e-14
1.33904306e-10
4.441501157e-14
2.171302046e-10
7.710468221e-14
2.956412634e-10
1.174829106e-13
3.696329226e-10
1.647547274e-13
4.392942806e-10
2.181085042e-13
5.0480834e-10
2.767200893e-13
5.663516848e-10
3.397728557e-13
6.240950843e-10
4.064328981e-13
6.782034283e-10
4.759076521e-13
7.288355885e-10
5.4738602e-13
7.761451851e-10
6.201148469e-13
8.20279846e-10
6.933017596e-13
8.613822291e-10
7.662408201e-13
8.995894988e-10
8.381904228e-13
9.350336509e-10
9.084492707e-13
9.678421767e-10
9.763787888e-13
9.981370423e-10
1.041309995e-12
1.026035899e-09
1.102615607e-12
1.051652064e-09
1.159733087e-12
1.075093897e-09
1.212084504e-12
1.096465751e-09
1.259020112e-12
1.115867989e-09
1.300207708e-12
1.133396688e-09
1.335249379e-12
1.149143896e-09
1.363813805e-12
1.163198046e-09
1.38547881e-12
1.175644078e-09
1.400185503e-12
1.186563067e-09
1.407822023e-12
1.196032651e-09
1.40830467e-12
1.2041273e-09
1.401439097e-12
1.210918498e-09
1.387314707e-12
1.216474423e-09
1.366087868e-12
1.220860189e-09
1.337790198e-12
1.224138294e-09
1.302313447e-12
1.22636871e-09
1.259732793e-12
1.227608661e-09
1.210286207e-12
1.227912659e-09
1.154056386e-12
1.227332978e-09
1.091029408e-12
1.22591974e-09
1.021337786e-12
1.223720709e-09
9.452724243e-13
1.220781349e-09
8.629787341e-13
1.21714523e-09
7.744809423e-13
1.21285408e-09
6.800226532e-13
1.207947609e-09
5.799245996e-13
1.20246353e-09
4.742289467e-13
1.196438212e-09
3.631096625e-13
1.189906145e-09
2.469649319e-13
1.18290013e-09
1.258777995e-13
1.175451615e-09
1.167590624e-09
5.162809495e-15
4.575654948e-11
2.022576405e-14
1.33889243e-10
4.449646622e-14
2.171059339e-10
7.72309797e-14
2.956085288e-10
1.176470915e-13
3.695925064e-10
1.649428527e-13
4.392469849e-10
2.18293919e-13
5.047549889e-10
2.768575325e-13
5.662931212e-10
3.398249983e-13
6.240321168e-10
4.063452181e-13
6.78136908e-10
4.756346341e-13
7.28766299e-10
5.468518189e-13
7.760739679e-10
6.192546346e-13
8.202074432e-10
6.920179175e-13
8.613094658e-10
7.644522784e-13
8.995170644e-10
8.357616406e-13
9.349623415e-10
9.053094396e-13
9.677726289e-10
9.724447105e-13
9.980699071e-10
1.036422822e-12
1.025971921e-09
1.096675707e-12
1.051591811e-09
1.152619146e-12
1.075037954e-09
1.203671462e-12
1.096414699e-09
1.249279903e-12
1.11582238e-09
1.289120548e-12
1.133356847e-09
1.322838887e-12
1.149110178e-09
1.350041436e-12
1.163170843e-09
1.370500688e-12
1.175623619e-09
1.384155818e-12
1.186549412e-09
1.390891065e-12
1.196025915e-09
1.390518118e-12
1.204127673e-09
1.38301173e-12
1.210926004e-09
1.368556508e-12
1.216488879e-09
1.34715509e-12
1.220881591e-09
1.318696709e-12
1.224166753e-09
1.283193892e-12
1.226404213e-09
1.240882785e-12
1.227650972e-09
1.191839062e-12
1.227961703e-09
1.136042206e-12
1.227388775e-09
1.073585504e-12
1.225982196e-09
1.004756092e-12
1.223789539e-09
9.297015983e-13
1.220856404e-09
8.484298192e-13
1.217226501e-09
7.611580575e-13
1.212941352e-09
6.682185107e-13
1.208040549e-09
5.696489847e-13
1.202562099e-09
4.656148944e-13
1.196542246e-09
3.564922676e-13
1.190015267e-09
2.423820866e-13
1.183014241e-09
1.234300285e-13
1.175570567e-09
1.167714054e-09
5.154659054e-15
4.575139482e-11
2.019231399e-14
1.338742053e-10
4.441707411e-14
2.170817092e-10
7.707937448e-14
2.955758665e-10
1.17390153e-13
3.695521957e-10
1.645356607e-13
4.391998394e-10
2.177090088e-13
5.047018156e-10
2.760459355e-13
5.662347842e-10
3.387465569e-13
6.239694162e-10
4.049362012e-13
6.780707184e-10
4.738124701e-13
7.286974228e-10
5.445622372e-13
7.760032181e-10
6.164187499e-13
8.201355867e-10
6.885473249e-13
8.612373372e-10
7.602664649e-13
8.994453453e-10
8.307531592e-13
9.348918548e-10
8.994097506e-13
9.677039723e-10
9.655594064e-13
9.980037574e-10
1.028390035e-12
1.025909091e-09
1.087408428e-12
1.051532792e-09
1.142060139e-12
1.074983302e-09
1.191687367e-12
1.096365071e-09
1.235927162e-12
1.115778141e-09
1.274435508e-12
1.133318339e-09
1.306845651e-12
1.149077768e-09
1.332769501e-12
1.16314492e-09
1.352179934e-12
1.175604208e-09
1.364934308e-12
1.186536657e-09
1.370845813e-12
1.196020004e-09
1.369798395e-12
1.20412872e-09
1.361960107e-12
1.210933843e-09
1.347324334e-12
1.216503514e-09
1.325771014e-12
1.220903144e-09
1.297275309e-12
1.224195248e-09
1.262030507e-12
1.226439458e-09
1.220121067e-12
1.227692882e-09
1.171512169e-12
1.228010312e-09
1.116276703e-12
1.22744401e-09
1.05467508e-12
1.226043798e-09
9.868557827e-13
1.223857358e-09
9.12815954e-13
1.220930444e-09
8.327519612e-13
1.217306565e-09
7.469985398e-13
1.213027105e-09
6.555803541e-13
1.208131967e-09
5.58659941e-13
1.202659019e-09
4.565974481e-13
1.196644308e-09
3.494949612e-13
1.19012237e-09
2.374977511e-13
1.183126238e-09
1.209547786e-13
1.17568711e-09
1.167835008e-09
5.129325623e-15
4.574626549e-11
2.00941859e-14
1.338592405e-10
4.419879036e-14
2.170576046e-10
7.669267515e-14
2.955433727e-10
1.167848457e-13
3.695121035e-10
1.63655816e-13
4.391529684e-10
2.165127011e-13
5.046489587e-10
2.744726168e-13
5.661768243e-10
3.367140223e-13
6.239071748e-10
4.024024783e-13
6.780050299e-10
4.706741181e-13
7.286291511e-10
5.407770466e-13
7.759331152e-10
6.118611154e-13
8.200645026e-10
6.831745485e-13
8.611660238e-10
7.540113197e-13
8.993745085e-10
8.235208823e-13
9.348223453e-10
8.911036374e-13
9.676363895e-10
9.560022991e-13
9.979388587e-10
1.017539337e-12
1.025847553e-09
1.07522048e-12
1.051475111e-09
1.128443366e-12
1.074930079e-09
1.17663338e-12
1.096316881e-09
1.21951703e-12
1.115735257e-09
1.256740531e-12
1.133281116e-09
1.287841436e-12
1.149046667e-09
1.312688385e-12
1.163120073e-09
1.331174276e-12
1.175585722e-09
1.343108879e-12
1.186524723e-09
1.348311104e-12
1.196014802e-09
1.34688393e-12
1.204130148e-09
1.33883318e-12
1.210941893e-09
1.324023734e-12
1.216518324e-09
1.302396043e-12
1.220924772e-09
1.274104642e-12
1.22422354e-09
1.239235265e-12
1.226474327e-09
1.197731968e-12
1.227734385e-09
1.149652179e-12
1.228058392e-09
1.095233693e-12
1.227498429e-09
1.034611452e-12
1.22610442e-09
9.677775273e-13
1.223924192e-09
8.949126305e-13
1.221003309e-09
8.163456583e-13
1.217385132e-09
7.32079869e-13
1.213111371e-09
6.422805342e-13
1.208221766e-09
5.472983173e-13
1.202754002e-09
4.472203719e-13
1.196744386e-09
3.421969883e-13
1.190227393e-09
2.325691156e-13
1.183235866e-09
1.184624234e-13
1.175801217e-09
1.167953471e-09
5.09038388e-15
4.574117511e-11
1.99423105e-14
1.338443886e-10
4.38699608e-14
2.170336769e-10
7.611878504e-14
2.955111238e-10
1.158976847e-13
3.694723246e-10
1.623863199e-13
4.391064797e-10
2.147993752e-13
5.045965457e-10
2.722431221e-13
5.661193806e-10
3.338666161e-13
6.238455513e-10
3.988980813e-13
6.779399985e-10
4.664220089e-13
7.285616272e-10
5.357119883e-13
7.758638252e-10
6.058652815e-13
8.199943493e-10
6.762190214e-13
8.610956701e-10
7.45949423e-13
8.993047781e-10
8.142991627e-13
9.347539955e-10
8.806276406e-13
9.675700611e-10
9.441110858e-13
9.978753753e-10
1.004264188e-12
1.0257874e-09
1.060534989e-12
1.05141884e-09
1.11223375e-12
1.074878381e-09
1.159039288e-12
1.096270076e-09
1.200611261e-12
1.115693685e-09
1.236500593e-12
1.133245226e-09
1.266427922e-12
1.149016739e-09
1.290317349e-12
1.163096183e-09
1.307972807e-12
1.175568067e-09
1.319149408e-12
1.186513546e-09
1.323887383e-12
1.196010064e-09
1.322200088e-12
1.204131835e-09
1.313932705e-12
1.210950161e-09
1.298993179e-12
1.216533263e-09
1.277500918e-12
1.220946264e-09
1.249536535e-12
1.224251504e-09
1.215016616e-12
1.226508847e-09
1.173987421e-12
1.227775414e-09
1.126667865e-12
1.228105711e-09
1.073166131e-12
1.227551931e-09
1.013474277e-12
1.226164112e-09
9.477622839e-13
1.223989904e-09
8.763453828e-13
1.221074725e-09
7.991974426e-13
1.21746228e-09
7.164917338e-13
1.213194077e-09
6.285755344e-13
1.208309683e-09
5.35505521e-13
1.202847072e-09
4.374422755e-13
1.19684245e-09
3.347254942e-13
1.19033011e-09
2.274570296e-13
1.183343134e-09
1.157710184e-13
1.175912903e-09
1.168069242e-09
5.041686129e-15
4.573613342e-11
1.974831792e-14
1.338296819e-10
4.344224497e-14
2.17009983e-10
7.538080239e-14
2.954791853e-10
1.147653003e-13
3.694329401e-10
1.607752666e-13
4.390604698e-10
2.126108676e-13
5.045447101e-10
2.694188545e-13
5.660625726e-10
3.303153159e-13
6.237846548e-10
3.945463642e-13
6.778757674e-10
4.611822579e-13
7.284949913e-10
5.295207616e-13
7.757954867e-10
5.986352664e-13
8.199252348e-10
6.678682497e-13
8.610264371e-10
7.362955463e-13
8.992363508e-10
8.033228178e-13
9.346869683e-10
8.682209374e-13
9.675051629e-10
9.302500891e-13
9.978133461e-10
9.88946687e-13
1.025728704e-09
1.043672108e-12
1.051364115e-09
1.093903096e-12
1.07482815e-09
1.139358484e-12
1.09622462e-09
1.179602358e-12
1.115653441e-09
1.21421916e-12
1.133210609e-09
1.243138805e-12
1.14898782e-09
1.266169559e-12
1.163073152e-09
1.283002646e-12
1.175551234e-09
1.293617095e-12
1.186502932e-09
1.298030069e-12
1.196005651e-09
1.296062916e-12
1.204133802e-09
1.287592636e-12
1.210958631e-09
1.272706638e-12
1.216548149e-09
1.251474888e-12
1.220967496e-09
1.22378087e-12
1.224279198e-09
1.189663461e-12
1.226542965e-09
1.149326167e-12
1.227815752e-09
1.102838328e-12
1.228152199e-09
1.05019658e-12
1.227604572e-09
9.915647832e-13
1.226222744e-09
9.272311907e-13
1.224054237e-09
8.57145514e-13
1.221144811e-09
7.814874254e-13
1.217537938e-09
7.006068603e-13
1.213274957e-09
6.14515197e-13
1.208395774e-09
5.233884177e-13
1.202938198e-09
4.275714816e-13
1.196938266e-09
3.271273605e-13
1.190430554e-09
2.222069219e-13
1.183448055e-09
1.131462744e-13
1.176021963e-09
1.168182388e-09
4.985125554e-15
4.57311483e-11
1.952398822e-14
1.338151431e-10
4.293586157e-14
2.169865711e-10
7.450127626e-14
2.954476199e-10
1.134234859e-13
3.693940179e-10
1.588750757e-13
4.390150182e-10
2.100254581e-13
5.044935597e-10
2.660941614e-13
5.660065039e-10
3.261584743e-13
6.237245905e-10
3.894573117e-13
6.778124686e-10
4.551022058e-13
7.284293464e-10
5.223154137e-13
7.757282735e-10
5.902461427e-13
8.198573041e-10
6.581713535e-13
8.609585119e-10
7.252193063e-13
8.991693029e-10
7.908272415e-13
9.346213603e-10
8.541572065e-13
9.67441833e-10
9.146850088e-13
9.977528183e-10
9.718740098e-13
1.025671515e-09
1.025022554e-12
1.051310966e-09
1.073857916e-12
1.074779314e-09
1.117983024e-12
1.096180495e-09
1.156889458e-12
1.115614535e-09
1.190425481e-12
1.133177073e-09
1.218426626e-12
1.148959819e-09
1.240560982e-12
1.163051018e-09
1.25672513e-12
1.17553507e-09
1.26693731e-12
1.186492719e-09
1.270991772e-12
1.196001596e-09
1.268735573e-12
1.204136058e-09
1.260226615e-12
1.21096714e-09
1.245519807e-12
1.216562856e-09
1.224460475e-12
1.220988555e-09
1.197083225e-12
1.224306575e-09
1.163579282e-12
1.226576469e-09
1.123968221e-12
1.227855363e-09
1.078255416e-12
1.228197912e-09
1.026603095e-12
1.227656225e-09
9.692419078e-13
1.226280105e-09
9.061386123e-13
1.224117341e-09
8.374588622e-13
1.221213491e-09
7.635618242e-13
1.217611835e-09
6.843993369e-13
1.21335412e-09
6.00167603e-13
1.208480006e-09
5.112237652e-13
1.203027142e-09
4.175774776e-13
1.197031913e-09
3.194018404e-13
1.19052873e-09
2.17030645e-13
1.183550426e-09
1.104976671e-13
1.176128496e-09
1.168292886e-09
4.920954947e-15
4.572622734e-11
1.927155382e-14
1.338007925e-10
4.237145218e-14
2.169634712e-10
7.349486948e-14
2.954164964e-10
1.11890283e-13
3.693556225e-10
1.567092836e-13
4.389701992e-10
2.071144436e-13
5.044431545e-10
2.623413296e-13
5.65951277e-10
3.214923918e-13
6.236654395e-10
3.837250196e-13
6.77750236e-10
4.482661592e-13
7.283648053e-10
5.141945133e-13
7.756623451e-10
5.808193415e-13
8.197906792e-10
6.472710696e-13
8.608920601e-10
7.128752294e-13
8.991036987e-10
7.769332122e-13
9.345573023e-10
8.386845228e-13
9.673800817e-10
8.976961465e-13
9.976938067e-10
9.532679373e-13
1.025615943e-09
1.004957389e-12
1.051259277e-09
1.052443677e-12
1.074731828e-09
1.095174045e-12
1.096137765e-09
1.132888986e-12
1.11557682e-09
1.165445996e-12
1.133144516e-09
1.19249723e-12
1.148932767e-09
1.213853543e-12
1.163029662e-09
1.229532525e-12
1.175519391e-09
1.239298962e-12
1.186482953e-09
1.242970508e-12
1.195997925e-09
1.240577675e-12
1.204138451e-09
1.232143327e-12
1.210975574e-09
1.217496996e-12
1.216577502e-09
1.196657748e-12
1.221009394e-09
1.169807381e-12
1.224333426e-09
1.136906054e-12
1.22660937e-09
1.097971479e-12
1.227894297e-09
1.053168301e-12
1.228242715e-09
1.002657955e-12
1.227706735e-09
9.464290299e-13
1.226336334e-09
8.84637229e-13
1.224179133e-09
8.176139124e-13
1.221280514e-09
7.453068462e-13
1.217684143e-09
6.679043813e-13
1.213431522e-09
5.857618043e-13
1.208562149e-09
4.988633816e-13
1.203114041e-09
4.073882246e-13
1.197123388e-09
3.116538639e-13
1.190624464e-09
2.116995048e-13
1.18365038e-09
1.077164964e-13
1.176232479e-09
1.168400602e-09
4.849337857e-15
4.5721378e-11
1.899024421e-14
1.337866516e-10
4.174927896e-14
2.169407122e-10
7.239222716e-14
2.953858535e-10
1.101742911e-13
3.693178404e-10
1.543026679e-13
4.389260708e-10
2.039077831e-13
5.043935494e-10
2.581753454e-13
5.658970094e-10
3.163148784e-13
6.236072999e-10
3.773839069e-13
6.776891669e-10
4.406919889e-13
7.283014972e-10
5.052662655e-13
7.755977709e-10
5.704875226e-13
8.19725458e-10
6.354092584e-13
8.608271384e-10
6.994993317e-13
8.990396086e-10
7.618966554e-13
9.34494905e-10
8.221047384e-13
9.673198736e-10
8.795213731e-13
9.976363901e-10
9.335136103e-13
1.025561951e-09
9.838117806e-13
1.051208979e-09
1.029871442e-12
1.074685768e-09
1.071296853e-12
1.09609634e-09
1.10796768e-12
1.115540149e-09
1.13952013e-12
1.133112964e-09
1.165698528e-12
1.148906589e-09
1.186478039e-12
1.163008882e-09
1.201614437e-12
1.175504254e-09
1.210895641e-12
1.186473672e-09
1.214326161e-12
1.195994494e-09
1.211888275e-12
1.204140889e-09
1.203403428e-12
1.210984059e-09
1.188870787e-12
1.216592035e-09
1.16846535e-12
1.2210298e-09
1.142079466e-12
1.224359812e-09
1.10974615e-12
1.226641703e-09
1.07163608e-12
1.227932407e-09
1.027830924e-12
1.22828652e-09
9.783450531e-13
1.227756221e-09
9.233463058e-13
1.226391333e-09
8.630839129e-13
1.224239395e-09
7.975391306e-13
1.221346059e-09
7.268823884e-13
1.217754799e-09
6.514523231e-13
1.213506952e-09
5.712381316e-13
1.208642363e-09
4.864070707e-13
1.203198872e-09
3.972601598e-13
1.197212535e-09
3.038413307e-13
1.190717883e-09
2.063467092e-13
1.183747875e-09
1.050319334e-13
1.176333794e-09
1.168505634e-09
4.771613545e-15
4.571660639e-11
1.868519484e-14
1.33772738e-10
4.107602334e-14
2.169183214e-10
7.121736712e-14
2.953557122e-10
1.083367163e-13
3.692807211e-10
1.516886311e-13
4.388827189e-10
2.004241151e-13
5.043448139e-10
2.536641331e-13
5.658437694e-10
3.106661946e-13
6.235502979e-10
3.705183354e-13
6.776293148e-10
4.324324258e-13
7.282395831e-10
4.956186771e-13
7.755345846e-10
5.592744974e-13
8.196618022e-10
6.226725693e-13
8.607637403e-10
6.851271858e-13
8.98977154e-10
7.459092044e-13
9.34434123e-10
8.045709833e-13
9.672612118e-10
8.603486362e-13
9.975806124e-10
9.129048973e-13
1.025509394e-09
9.617688281e-13
1.051160115e-09
1.00642858e-12
1.074641109e-09
1.046738071e-12
1.09605603e-09
1.082344418e-12
1.115504543e-09
1.112927121e-12
1.133082381e-09
1.138411705e-12
1.148881104e-09
1.158546924e-12
1.162988747e-09
1.173090427e-12
1.175489711e-09
1.18202157e-12
1.186464741e-09
1.185278181e-12
1.195991237e-09
1.182673705e-12
1.204143493e-09
1.174199357e-12
1.210992534e-09
1.159999975e-12
1.216606235e-09
1.139906275e-12
1.221049893e-09
1.113968612e-12
1.224385749e-09
1.082366825e-12
1.226673305e-09
1.045093381e-12
1.227969681e-09
1.002191838e-12
1.228329422e-09
9.538461196e-13
1.227804567e-09
9.002122022e-13
1.226444967e-09
8.41309319e-13
1.224298298e-09
7.773179022e-13
1.22141005e-09
7.084985727e-13
1.217823619e-09
6.348772629e-13
1.213580574e-09
5.566274939e-13
1.208720612e-09
4.739923898e-13
1.203281507e-09
3.870410602e-13
1.197299486e-09
2.959932102e-13
1.190808931e-09
2.01024503e-13
1.183842843e-09
1.022753046e-13
1.176432543e-09
1.16860791e-09
4.68548268e-15
4.571192091e-11
1.83498183e-14
1.337590736e-10
4.034550473e-14
2.168963257e-10
6.994611531e-14
2.953261115e-10
1.063829761e-13
3.692442842e-10
1.488712727e-13
4.388402306e-10
1.966509373e-13
5.042970343e-10
2.4882329e-13
5.657915971e-10
3.045722955e-13
6.234945489e-10
3.631499799e-13
6.775707371e-10
4.236095854e-13
7.281791235e-10
4.853492157e-13
7.75472845e-10
5.473928841e-13
8.195997585e-10
6.092466188e-13
8.607018866e-10
6.700139673e-13
8.989163867e-10
7.292428867e-13
9.343748941e-10
7.862397427e-13
9.672042149e-10
8.404901959e-13
9.97526362e-10
8.916182365e-13
1.025458266e-09
9.390199938e-13
1.051112713e-09
9.824744264e-13
1.074597654e-09
1.021667814e-12
1.096016837e-09
1.056213344e-12
1.115469997e-09
1.085986457e-12
1.133052608e-09
1.110729009e-12
1.148856362e-09
1.130167178e-12
1.162969309e-09
1.144255349e-12
1.175475622e-09
1.152884609e-12
1.186456111e-09
1.155860118e-12
1.195988262e-09
1.153170068e-12
1.204146183e-09
1.144887549e-12
1.211000816e-09
1.130846214e-12
1.216620276e-09
1.111081405e-12
1.221069658e-09
1.085786077e-12
1.224411045e-09
1.054855098e-12
1.226704236e-09
1.018363902e-12
1.228006172e-09
9.765163333e-13
1.22837127e-09
9.293650154e-13
1.227851718e-09
8.769713911e-13
1.22649736e-09
8.195363436e-13
1.224355733e-09
7.572177246e-13
1.221472369e-09
6.900902151e-13
1.217890746e-09
6.183536701e-13
1.21365231e-09
5.421503965e-13
1.208796816e-09
4.615952269e-13
1.203362062e-09
3.769376153e-13
1.197384144e-09
2.882593832e-13
1.190897609e-09
1.957435026e-13
1.183935359e-09
9.963247644e-14
1.176528654e-09
1.168707542e-09
4.593124358e-15
4.570732778e-11
1.798625533e-14
1.337456805e-10
3.953991484e-14
2.16874772e-10
6.855815846e-14
2.952970933e-10
1.04272133e-13
3.692085702e-10
1.458749333e-13
4.387986278e-10
1.925957936e-13
5.042503134e-10
2.436542342e-13
5.657405386e-10
2.981301892e-13
6.234400729e-10
3.553148975e-13
6.775135524e-10
4.143528998e-13
7.281200855e-10
4.744947751e-13
7.754127031e-10
5.350085226e-13
8.195392447e-10
5.951876373e-13
8.606417075e-10
6.543599842e-13
8.988572143e-10
7.119784627e-13
9.343172756e-10
7.673443806e-13
9.67148849e-10
8.201709735e-13
9.974735354e-10
8.697838799e-13
1.025408654e-09
9.158747018e-13
1.051066622e-09
9.581713458e-13
1.074555358e-09
9.962195291e-13
1.095978788e-09
1.029843929e-12
1.115436373e-09
1.058781305e-12
1.133023671e-09
1.082724797e-12
1.148832418e-09
1.101603562e-12
1.16295043e-09
1.115261298e-12
1.175461965e-09
1.12349414e-12
1.186447878e-09
1.126288238e-12
1.195985468e-09
1.123637625e-12
1.204148834e-09
1.115387461e-12
1.211009066e-09
1.101552263e-12
1.216634111e-09
1.08230559e-12
1.221088905e-09
1.057510395e-12
1.22443584e-09
1.027237697e-12
1.226734509e-09
9.917076323e-13
1.228041702e-09
9.508765167e-13
1.228412101e-09
9.04842876e-13
1.227897751e-09
8.538330021e-13
1.22654837e-09
7.978908274e-13
1.224411675e-09
7.371443003e-13
1.221533116e-09
6.718142388e-13
1.217956076e-09
6.019515143e-13
1.213722173e-09
5.277107766e-13
1.208871056e-09
4.493242716e-13
1.203440449e-09
3.668728687e-13
1.197466595e-09
2.805333229e-13
1.190983948e-09
1.905365332e-13
1.184025356e-09
9.696403862e-14
1.176622227e-09
1.168804506e-09
4.49830719e-15
4.570282948e-11
1.761027799e-14
1.337325685e-10
3.869594775e-14
2.168536864e-10
6.707285528e-14
2.952687164e-10
1.020103528e-13
3.691736327e-10
1.427124173e-13
4.387579257e-10
1.883462474e-13
5.042046796e-10
2.381786612e-13
5.656907062e-10
2.913820965e-13
6.233868695e-10
3.471010487e-13
6.774578334e-10
4.046939619e-13
7.280624926e-10
4.632237562e-13
7.753541733e-10
5.221776751e-13
8.194802908e-10
5.806787767e-13
8.605832064e-10
6.383080153e-13
8.987995851e-10
6.942653143e-13
9.342613183e-10
7.481745937e-13
9.670949397e-10
7.994522444e-13
9.974222577e-10
8.476530337e-13
1.025360453e-09
8.925511097e-13
1.051021724e-09
9.336230664e-13
1.074514286e-09
9.70641571e-13
1.09594177e-09
1.003341347e-12
1.115403673e-09
1.031380484e-12
1.132995632e-09
1.054662092e-12
1.148809137e-09
1.072983319e-12
1.162932109e-09
1.086129965e-12
1.175448818e-09
1.094086415e-12
1.186439922e-09
1.096765678e-12
1.195982789e-09
1.094024156e-12
1.204151576e-09
1.085886822e-12
1.211017204e-09
1.072430916e-12
1.216647567e-09
1.053546173e-12
1.22110779e-09
1.029283646e-12
1.224460102e-09
9.998331244e-13
1.226763959e-09
9.651459745e-13
1.228076389e-09
9.253105878e-13
1.228451936e-09
8.805242829e-13
1.227942538e-09
8.308224686e-13
1.226598072e-09
7.763326147e-13
1.224466165e-09
7.172487991e-13
1.221592199e-09
6.536229472e-13
1.218019702e-09
5.856014919e-13
1.213790194e-09
5.133968346e-13
1.208943261e-09
4.370939968e-13
1.203516751e-09
3.568584713e-13
1.197546831e-09
2.729101788e-13
1.191067897e-09
1.853380719e-13
1.184112928e-09
9.432204017e-14
1.176713243e-09
1.168898828e-09
4.399195887e-15
4.569843028e-11
1.722114936e-14
1.337197466e-10
3.783610772e-14
2.168330714e-10
6.55484242e-14
2.952410041e-10
9.964247132e-14
3.691395387e-10
1.393751843e-13
4.38718193e-10
1.839322574e-13
5.041601225e-10
2.324857635e-13
5.656421527e-10
2.843449119e-13
6.233350103e-10
3.386462491e-13
6.774035321e-10
3.94668587e-13
7.280064703e-10
4.516975959e-13
7.752971443e-10
5.089927663e-13
8.194229956e-10
5.659544134e-13
8.605262447e-10
6.219190551e-13
8.987436205e-10
6.763368224e-13
9.342069005e-10
7.28723736e-13
9.670425528e-10
7.785059055e-13
9.973724756e-10
8.254890876e-13
1.02531347e-09
8.690904723e-13
1.050978123e-09
9.090289919e-13
1.074474347e-09
9.450415099e-13
1.095905757e-09
9.767486316e-13
1.115371966e-09
1.004025972e-12
1.132968354e-09
1.026626362e-12
1.148786536e-09
1.044323295e-12
1.162914412e-09
1.057098842e-12
1.175436043e-09
1.064784495e-12
1.186432236e-09
1.067246978e-12
1.195980326e-09
1.064526476e-12
1.204154296e-09
1.056593097e-12
1.211025137e-09
1.043367244e-12
1.216660793e-09
1.024914149e-12
1.221126243e-09
1.001321508e-12
1.224483695e-09
9.725730533e-13
1.226792708e-09
9.387527635e-13
1.22811021e-09
9.000102352e-13
1.228490679e-09
8.563849851e-13
1.227986163e-09
8.079996242e-13
1.226646457e-09
7.550214368e-13
1.224519143e-09
6.975032585e-13
1.221649718e-09
6.355922278e-13
1.218081613e-09
5.694592905e-13
1.213856327e-09
4.99203309e-13
1.209013517e-09
4.250224042e-13
1.203590932e-09
3.47036245e-13
1.197624817e-09
2.653867272e-13
1.191149546e-09
1.80233509e-13
1.184198081e-09
9.171685241e-14
1.176801759e-09
1.168990545e-09
4.291806627e-15
4.569413847e-11
1.680279024e-14
1.337072356e-10
3.692569144e-14
2.168129485e-10
6.397531321e-14
2.952139545e-10
9.721605828e-14
3.691062979e-10
1.359153692e-13
4.386794937e-10
1.793383671e-13
5.041166995e-10
2.266621924e-13
5.655948289e-10
2.771075289e-13
6.23284565e-10
3.299999042e-13
6.773506397e-10
3.844608568e-13
7.279520093e-10
4.39935565e-13
7.752416696e-10
4.956189483e-13
8.193673123e-10
5.509968858e-13
8.604708668e-10
6.053408759e-13
8.986892765e-10
6.582717052e-13
9.341539697e-10
7.091289836e-13
9.669916956e-10
7.576519344e-13
9.973239526e-10
8.032756042e-13
1.025267846e-09
8.456458619e-13
1.050935753e-09
8.845070159e-13
1.074435486e-09
9.194393954e-13
1.095870825e-09
9.502890701e-13
1.115341116e-09
9.767682448e-13
1.132941875e-09
9.986356589e-13
1.148764669e-09
1.015869899e-12
1.162897178e-09
1.028221871e-12
1.175423691e-09
1.035566785e-12
1.186424891e-09
1.037960988e-12
1.195977932e-09
1.03526499e-12
1.204156992e-09
1.027428956e-12
1.211032973e-09
1.014547286e-12
1.216673674e-09
9.965748611e-13
1.221144215e-09
9.735406224e-13
1.224506729e-09
9.455744601e-13
1.226820674e-09
9.12679475e-13
1.228143105e-09
8.749466176e-13
1.228528411e-09
8.325518979e-13
1.228028558e-09
7.85520915e-13
1.226693488e-09
7.339633816e-13
1.224570701e-09
6.780599075e-13
1.221705621e-09
6.178750208e-13
1.218141798e-09
5.535527642e-13
1.213920649e-09
4.852721832e-13
1.209081798e-09
4.131532621e-13
1.203663051e-09
3.373389941e-13
1.197700631e-09
2.579683231e-13
1.191228917e-09
1.751831322e-13
1.184280867e-09
8.915107814e-14
1.176887791e-09
1.169079696e-09
4.180666412e-15
4.568995781e-11
1.636660673e-14
1.336950497e-10
3.596158735e-14
2.167933535e-10
6.231114272e-14
2.951876049e-10
9.471660611e-14
3.690738925e-10
1.323972999e-13
4.38641813e-10
1.746263022e-13
5.040744705e-10
2.206883951e-13
5.655487668e-10
2.697628375e-13
6.232354906e-10
3.211467815e-13
6.772992558e-10
3.741611029e-13
7.27898995e-10
4.280183039e-13
7.751878124e-10
4.822034598e-13
8.193131271e-10
5.359454323e-13
8.604171248e-10
5.888393576e-13
8.986363825e-10
6.40212391e-13
9.341025967e-10
6.897177684e-13
9.669421902e-10
7.36845426e-13
9.97276825e-10
7.811462961e-13
1.025223545e-09
8.223789927e-13
1.05089452e-09
8.600807325e-13
1.074397784e-09
8.940656507e-13
1.09583684e-09
9.240102618e-13
1.115311171e-09
9.496553606e-13
1.13291623e-09
9.709755996e-13
1.148743349e-09
9.876434254e-13
1.16288051e-09
9.9954021e-13
1.175411794e-09
1.006715128e-12
1.186417717e-09
1.008965122e-12
1.195975682e-09
1.00624514e-12
1.204159712e-09
9.986452084e-13
1.211040573e-09
9.860549605e-13
1.216686265e-09
9.685115613e-13
1.221161758e-09
9.461499847e-13
1.224529091e-09
9.189116143e-13
1.226847912e-09
8.868919506e-13
1.228175124e-09
8.502653262e-13
1.228565038e-09
8.09028905e-13
1.228069794e-09
7.632891508e-13
1.226739228e-09
7.132081677e-13
1.224620782e-09
6.588506686e-13
1.221759979e-09
6.003492291e-13
1.218200299e-09
5.378642742e-13
1.213983134e-09
4.71516068e-13
1.209148146e-09
4.014559656e-13
1.203733111e-09
3.277867979e-13
1.1977743e-09
2.506587867e-13
1.191306045e-09
1.702289534e-13
1.184361296e-09
8.663121168e-14
1.176971389e-09
1.169166327e-09
4.071636011e-15
4.568588617e-11
1.593607147e-14
1.336831852e-10
3.50006793e-14
2.167742889e-10
6.062629658e-14
2.951619793e-10
9.21334702e-14
3.690423853e-10
1.288146063e-13
4.386051319e-10
1.698866092e-13
5.040333985e-10
2.146345126e-13
5.655040189e-10
2.623726279e-13
6.231877524e-10
3.122860757e-13
6.772493423e-10
3.637711771e-13
7.278475099e-10
4.161246074e-13
7.75135459e-10
4.687091985e-13
8.192605425e-10