/*--------------------------------*- C++ -*----------------------------------*\
  =========                 |
  \\      /  F ield         | OpenFOAM: The Open Source CFD Toolbox
   \\    /   O peration     | Website:  https://openfoam.org
    \\  /    A nd           | Version:  7
     \\/     M anipulation  |
\*---------------------------------------------------------------------------*/
FoamFile
{
    version     2.0;
    format      ascii;
    class       volVectorField;
    location    "0.0021";
    object      grad(generalizedNewtonian:nu);
}
// * * * * * * * * * * * * * * * * * * * * * * * * * * * * * * * * * * * * * //

dimensions      [0 1 -1 0 0 0 0];

internalField   nonuniform List<vector> 
1166
(
(-688318.5434 0 -127571.6115)
(-835986.5483 0 37996.90074)
(-1527634.757 0 373876.8776)
(-2609309.153 0 912409.7339)
(-3617236.481 0 1554384.766)
(-4928534.908 0 2170461.117)
(-6588691.216 0 2853034.051)
(-7614971.645 0 3766374.066)
(-7238929.064 0 4922716.382)
(-8801002.913 0 6209095.417)
(-15028465.2 0 7421248.196)
(-22538956.47 0 8261846.937)
(-26389792.83 0 8128484.577)
(-21232443.86 0 6473317.818)
(-5822911.42 0 3511037.823)
(9226796.808 0 -4117.603478)
(15207949.38 0 -2820038.47)
(15207781.59 0 -3855765.717)
(13597734.25 0 -3652562.533)
(11803344.53 0 -3205508.87)
(10756537.84 0 -2944619.931)
(11346918.04 0 -2698385.163)
(9894826.074 9.737110326e-08 -431806.4366)
(-14233800.24 0 5199710.246)
(-61745495.92 0 11526231.2)
(-88859937.6 0 16537123.45)
(-85093034.31 0 17552657.38)
(-75732910.2 0 15589646.34)
(-68597825.63 0 13645374.61)
(-62941112.37 0 12124913.15)
(-57960537.96 0 10851096.18)
(-53334511.79 0 9726296.208)
(-48990377.27 0 8715998.784)
(-44956875.57 0 7811661.313)
(-1587389.111 0 8649445.53)
(-2783008.31 0 8687616.072)
(-4793548.359 0 8822560.031)
(-6727655.325 -3.759817009e-07 8991666.81)
(-7225140.689 0 9249314.672)
(-7790541.409 0 9568658.279)
(-10140227.18 0 9850947.874)
(-13920964.61 -1.960955909e-07 10001638.13)
(-17628009.96 0 9940175.568)
(-19858215.57 -1.636536383e-07 9341678.125)
(-17955445.21 0 7744470.129)
(-8889572.967 -1.428995899e-07 5126115.268)
(3672008.392 0 1902961.723)
(12144860.17 -1.286558715e-07 -1332268.93)
(14925511.87 0 -3560312.985)
(14608993.9 0 -4159751.559)
(13105943.3 0 -3857077.544)
(11458081.12 1.108286605e-07 -3439753.831)
(10481948.14 1.077630226e-07 -3204027.538)
(10916357.81 0 -3034991.668)
(10566401.79 0 -1254606.667)
(-6796881.483 0 3857950.246)
(-49534832.16 0 10148197.99)
(-81404022.77 0 15549479.27)
(-82485957.8 0 17581070.08)
(-73973712.03 0 16001590.89)
(-66987420.24 0 13979230.27)
(-61573640.14 0 12387073.64)
(-56905849.95 0 11079334.01)
(-52587745.94 0 9936385.772)
(-48493850.38 0 8909987.74)
(-44629593.2 0 7986219.548)
(-41057683.78 0 7161606.543)
(-37812665.62 0 6432378.008)
(-34879777.15 0 5790409.736)
(-32226979.39 2.231704416e-08 5224911.037)
(-29823785.26 0 4725731.618)
(-27647042.05 0 4284197.642)
(-25674866.5 0 3893042.271)
(-23886284.77 0 3545754.443)
(-22263051.08 0 3236889.584)
(-20791039.5 0 2962006.915)
(-19460361.45 -1.125356166e-08 2717521.755)
(-18262158.96 0 2500335.746)
(-17187424.77 0 2307484.834)
(-16225031.18 1.139094083e-08 2136197.431)
(-15354319.4 0 1983963.282)
(-14542186.29 0 1848525.437)
(-13947961.08 0 1728020.738)
(-13685382.18 0 1620357.127)
(-991018.1446 0 11548817.94)
(-1864918.67 0 11395034.26)
(-3181341.39 0 11176106.73)
(-4973565.217 0 10731422.51)
(-6802463.72 0 10139738.47)
(-8254932.651 0 9317867.425)
(-9017377.957 0 8059507.531)
(-8157943.466 0 6251490.752)
(-3434554.807 0 3920555.621)
(4229322.533 0 1217191.142)
(10502966.28 0 -1573696.418)
(13579755.58 0 -3883846.726)
(14375599.23 -1.372629375e-07 -5012514.383)
(13815142.58 0 -5074622.019)
(12501095.63 0 -4679072.766)
(11101981.65 0 -4240610.863)
(10313895.57 0 -3983970.33)
(10707962.74 0 -3791908.719)
(10736059.87 0 -2192499.207)
(-2343251.176 0 2563090.817)
(-39738914.48 0 8780164.664)
(-73302930.75 0 14414734.1)
(-78814875.17 0 17276344.07)
(-71693590.94 0 16252558.03)
(-65027869.74 0 14242610.87)
(-59908370.5 0 12605477.6)
(-55584066.89 0 11281662.25)
(-51610655.99 0 10136878.15)
(-47822848.25 0 9108955.314)
(-44202113.09 0 8177496.102)
(-40796567.7 0 7338726.467)
(-37656077.08 2.292064607e-08 6591978.674)
(-34793609.95 0 5932575.647)
(-32192506.41 0 5350844.726)
(-29826606.51 0 4836756.365)
(-27674268.1 0 4381539.611)
(-25716562.95 0 3977861.115)
(-23935099.85 0 3619324.072)
(-22313006.77 0 3300247.303)
(-20836174.09 0 3015981.383)
(-19495379.53 0 2762739.763)
(-18282870.74 0 2537406.866)
(-17190402.8 0 2337127.677)
(-16208537.63 0 2159130.097)
(-15327890.48 0 2000824.333)
(-14539826.55 0 1859896.836)
(-13825894.19 1.162614544e-08 1734264.593)
(-13154575.77 0 1622117.27)
(-12683418.98 5.878859142e-09 1521818.244)
(-12515359.96 5.915608533e-09 1431347.109)
(-432105.9297 0 2141480.027)
(-790702.7144 0 1930778.983)
(-1218272.675 0 1378394.256)
(-1233594.31 0 603338.5215)
(364933.7697 0 -499439.0347)
(3580504.917 0 -1891758.17)
(6900199.416 0 -3463481.962)
(9485467.407 0 -5109637.136)
(11397218 0 -6565218.739)
(12455317.47 0 -7342090.372)
(12568725.78 0 -7367276.403)
(11943075.68 0 -6972464.62)
(10936794.11 0 -6431630.586)
(9994147.743 0 -5930410.076)
(9560759.579 0 -5607687.615)
(10071030.54 0 -5270856.586)
(10103642.21 0 -3509252.067)
(-879807.4103 0 1184490.283)
(-33721784.05 0 7362995.299)
(-66364964.19 0 13139473.11)
(-74668610.66 0 16591570.88)
(-69135559.96 0 16187617.31)
(-62983758.97 0 14309218.62)
(-58208697.73 0 12678933.72)
(-54235360.34 0 11371693.98)
(-50611400.63 0 10251724.08)
(-47137177.68 0 9246126.412)
(-43770365.43 0 8328088.555)
(-40547027.76 0 7492798.069)
(-37529462.11 0 6741115.788)
(-34752716.69 0 6071851.598)
(-32213354.68 0 5478843.764)
(-29891719.65 0 4953445.134)
(-27767906.32 0 4487238.064)
(-25826920.92 0 4072903.454)
(-24053844.37 0 3704249.314)
(-22433710.61 0 3375652.889)
(-20953177.69 0 3082410.795)
(-19602176.87 0 2820650.567)
(-18374091.34 0 2587248.355)
(-17262577.29 0 2379459.24)
(-16260008.88 0 2194586.921)
(-15357237.45 0 2030061.997)
(-14545455.49 0 1883534.868)
(-13817973.7 0 1752887.865)
(-13166827.98 0 1636235.849)
(-12574821.72 0 1531818.815)
(-12011954.65 0 1438165.754)
(-11632938.08 0 1354107.286)
(-11528506.35 0 1277472.84)
(563810.5203 0 -7928085.609)
(2339844.177 0 -8016032.41)
(3686765.759 -5.362918331e-07 -8503717.952)
(4869422.964 0 -8974796.332)
(6439667.254 -3.149366689e-07 -9509020.394)
(7734006.62 0 -9838350.805)
(8661229.24 0 -9838093.054)
(9156837.544 2.054007675e-07 -9587196.081)
(9156466.755 -1.863413034e-07 -9150921.183)
(8766459.333 -1.714193713e-07 -8593812.568)
(8287108.146 0 -8023915.229)
(7967730.393 0 -7554400.779)
(8025997.57 0 -7226975.141)
(8711648.488 0 -6653887.159)
(8311109.655 0 -4426540.988)
(-2595401.005 0 442076.5241)
(-32282655.26 0 6555746.517)
(-61938016.59 -1.160877295e-07 12321740.77)
(-70785994.56 -1.128766202e-07 16031382.55)
(-66581573.38 -1.100728517e-07 16084434.67)
(-61074220.56 0 14379788.44)
(-56670921.56 0 12776579.32)
(-53022415.93 0 11485912.38)
(-49709418.76 0 10386712.78)
(-46515504.63 0 9400182.836)
(-43387744.81 0 8493694.511)
(-40349993.04 0 7660263.495)
(-37463552.43 2.428793244e-08 6902073.877)
(-34776762.73 0 6221080.091)
(-32300820.67 0 5614628.896)
(-30024940.63 -2.376127377e-08 5075538.634)
(-27932056.83 -4.728023974e-08 4595893.735)
(-26009326.44 0 4168610.132)
(-24244823.31 0 3787675.841)
(-22626020.2 0 3447758.374)
(-21141092.1 0 3144034.306)
(-19780005.05 0 2872531.06)
(-18536593.13 2.335680579e-08 2630007.993)
(-17405645.08 0 2413772.177)
(-16381164.38 -1.170075375e-08 2221301.637)
(-15455551.72 0 2050067.903)
(-14620293.96 0 1897654.03)
(-13868219.61 0 1761899.336)
(-13192282.81 0 1640792.171)
(-12585929.47 0 1532581.352)
(-12042403.5 0 1435646.783)
(-11546046.27 0 1348680.818)
(-11070446.21 6.028122004e-09 1270489.369)
(-10763128.32 0 1200219.084)
(-10701990.64 0 1135458.267)
(218678.4151 0 -10579707.61)
(2502649.719 0 -10460230.31)
(3601493.37 0 -10482480.92)
(3961850.912 0 -10294106.37)
(4808746.875 3.19841369e-07 -10037517.37)
(5250729.03 0 -9706860.979)
(5512537.119 0 -9320222.006)
(5699799.24 4.171991968e-07 -8911841.665)
(5839569.963 0 -8542477.932)
(6046844.097 0 -8255727.03)
(6559358.735 0 -7930203.77)
(7251369.3 0 -6881204.157)
(5479036.547 1.437763699e-07 -3879091.364)
(-7335013.812 -1.368595949e-07 1250104.134)
(-34820040.41 -1.30990778e-07 7164757.9)
(-59537925.85 0 12668607.05)
(-66748245.29 0 16194000.62)
(-63449515.52 0 16345179.73)
(-58769192.35 0 14736225.05)
(-54874294.49 0 13129097.74)
(-51593790.87 0 11814275.97)
(-48596614.05 0 10695306.67)
(-45698660.53 5.259653557e-08 9692865.869)
(-42835269.9 0 8769052.397)
(-40017525.4 0 7914541.029)
(-37296623.89 -5.037692207e-08 7131443.008)
(-34727622.3 2.490855617e-08 6423317.383)
(-32337902.28 0 5790016.042)
(-30127203.52 0 5225816.461)
(-28083165.95 2.428040332e-08 4723215.948)
(-26193476.32 0 4275072.623)
(-24449588.14 0 3875206.136)
(-22842313.27 0 3518295.167)
(-21361799.25 -1.191628988e-08 3199406.526)
(-19998941.97 0 2914378.296)
(-18746980.1 -1.187004366e-08 2659744.179)
(-17601910.71 1.186087405e-08 2432689.903)
(-16559459.01 -1.186027776e-08 2230705.303)
(-15613917.03 0 2051272.508)
(-14757943.58 -1.18829767e-08 1891927.676)
(-13983915.91 0 1750376.719)
(-13285616.48 -1.193496952e-08 1624569.448)
(-12655892.35 0 1512648.188)
(-12088235.56 0 1412876.466)
(-11578245.61 0 1323739.76)
(-11121128.14 0 1243943.614)
(-10702904.96 0 1172272.318)
(-10297515.16 0 1107675.665)
(-10043927.38 0 1049554.66)
(-10015772.74 0 995468.5294)
(-291597.2823 0 -9286458.045)
(1997568.277 0 -9193067.843)
(2735501.147 0 -9141619.274)
(2611995.199 0 -8987352.324)
(3415544.543 0 -8815957.91)
(3982661.378 0 -8647536.54)
(4435604.651 0 -8480113.31)
(4957774.632 2.118482477e-07 -8181197.455)
(5553658.742 0 -7336287.887)
(5319545.531 0 -5179451.242)
(337207.5089 0 -1228423.271)
(-15765347.23 0 3991926.862)
(-40124383.33 0 9489351.124)
(-57685781.04 0 14388300.25)
(-61807774.08 0 17214052.98)
(-59144729.12 0 17053945.84)
(-55484104.8 0 15428195.03)
(-52284509.84 0 13789054.78)
(-49499216.19 0 12414818.34)
(-46913609.92 0 11235544.8)
(-44381391.13 0 10177755.04)
(-41842365.09 0 9203885.792)
(-39301660.21 0 8301934.546)
(-36802831.01 0 7472678.914)
(-34406086.68 5.181459802e-08 6719558.932)
(-32152997.35 0 6043366.458)
(-30053346.65 2.529647238e-08 5440164.64)
(-28098161.38 0 4902768.609)
(-26275982.51 2.483870913e-08 4423683.288)
(-24581717.66 0 3996286.505)
(-23009860.18 0 3614930.848)
(-21553438.87 0 3274595.069)
(-20205631.05 1.21408189e-08 2970693.528)
(-18960485.72 0 2699435.683)
(-17814719.99 0 2457694.116)
(-16765537.02 0 2242823.072)
(-15809094.8 0 2052314.813)
(-14939742.64 0 1883578.323)
(-14150535.28 0 1734175.151)
(-13435406.59 0 1601932.158)
(-12788655.94 1.209089353e-08 1484831.132)
(-12204136.43 0 1381117.473)
(-11675993.88 6.078788685e-09 1289083.809)
(-11199009.16 0 1207355.542)
(-10769719.34 0 1134625.204)
(-10383168.95 0 1069673.452)
(-10025113.13 6.183742397e-09 1011319.372)
(-9674918.926 0 958757.5756)
(-9462752.803 0 911480.1564)
(-9455026.755 0 866977.144)
(-443454.6954 0 -8374211.763)
(1833938.618 0 -8312240.895)
(2532266.373 -5.617400811e-07 -8124643.699)
(2340361.915 0 -7789386.407)
(3096691.274 0 -7129535.598)
(3528530.996 0 -5845158.693)
(3048110.256 0 -3586621.672)
(-476263.3893 0 -180426.6346)
(-10577313.96 0 4161005.163)
(-27730430.31 -1.795536042e-07 8926792.191)
(-44840862.13 0 13601670.19)
(-53921141.16 0 17335376.71)
(-55158155.93 0 18871995.73)
(-53188850.11 0 18072459.46)
(-50691754.44 0 16349932.58)
(-48372694.55 0 14671199.86)
(-46252280.34 -1.254616747e-07 13226047.88)
(-44211849.01 0 11965954.15)
(-42159500.93 0 10831043.82)
(-40044719.57 0 9787217.745)
(-37869574.5 5.636272865e-08 8821000.773)
(-35685350.72 0 7931283.465)
(-33557924.19 0 7120986.881)
(-31528910.9 0 6391573.738)
(-29612153.72 0 5740349.334)
(-27806869.75 0 5159985.187)
(-26107594.97 0 4642650.174)
(-24510763.44 0 4181001.078)
(-23015188.16 2.522553796e-08 3769027.005)
(-21618025.47 2.504255981e-08 3401489.538)
(-20315309.8 0 3073530.821)
(-19103134.83 0 2781033.787)
(-17978956.56 -1.232989551e-08 2520517.875)
(-16942095.67 0 2289081.32)
(-15990720.51 0 2084091.379)
(-15121270.68 -1.22426417e-08 1902927.621)
(-14328114.42 0 1743005.992)
(-13605475.67 0 1601890.881)
(-12949364.71 0 1477442.871)
(-12354395.92 0 1367708.12)
(-11815147.67 0 1270915.153)
(-11326689.69 -6.154802786e-09 1185371.37)
(-10884110.35 1.234691496e-08 1109732.476)
(-10483491.75 0 1042775.265)
(-10120740.86 0 983315.346)
(-9791106.005 0 930229.2961)
(-9483892.855 0 882630.9482)
(-9179518.839 0 839950.6454)
(-8996478.814 0 801735.3164)
(-8996370.454 -6.390818377e-09 765138.0608)
(-721446.711 0 -680636.9567)
(694844.4126 0 -179007.0218)
(162219.3177 0 1165257.458)
(-2339553.006 0 3078808.471)
(-6364510.142 6.700371162e-07 5649765.685)
(-14038503.61 0 8753989.476)
(-24733963.33 0 12221228.52)
(-35517128.06 0 15750050.52)
(-42872705.32 0 18794567.48)
(-45941202.1 0 20506678.2)
(-46233549.51 -1.696231201e-07 20368944.73)
(-45339521.07 0 18918639.84)
(-44108983.85 0 17123861.44)
(-42836051.79 0 15448287.1)
(-41563894.99 0 13969824.22)
(-40227702.67 6.597342451e-08 12657731.12)
(-38793153.84 0 11466737.97)
(-37225700.5 0 10369459.41)
(-35539805.31 6.003709043e-08 9352957.761)
(-33791157.54 5.854581523e-08 8414671.479)
(-32036084.79 0 7557002.489)
(-30320727.05 0 6783168.316)
(-28669645.2 0 6090415.364)
(-27089498.71 0 5471673.489)
(-25577781.67 0 4918861.555)
(-24135849.12 0 4424590.403)
(-22768125.9 0 3982604.947)
(-21474169.44 0 3587521.766)
(-20253930.73 0 3234535.179)
(-19107219.02 0 2919240.219)
(-18033787.92 1.26382039e-08 2637983.144)
(-17034485.45 0 2387660.027)
(-16109702.43 1.252191647e-08 2165698.295)
(-15258229.34 0 1969501.042)
(-14477053.76 0 1796400.844)
(-13761716.33 0 1643863.432)
(-13107869.39 1.242369908e-08 1509574.909)
(-12511783.26 1.242307449e-08 1391479.708)
(-11969007.42 0 1287689.601)
(-11475135.15 0 1196398.297)
(-11025269.73 -1.247042395e-08 1116076.899)
(-10615880.35 0 1045310.66)
(-10244325.62 0 982841.9275)
(-9905778.772 0 927425.2421)
(-9596605.967 0 878109.0022)
(-9313838.127 6.34613737e-09 834058.0581)
(-9048188.931 0 794547.246)
(-8782991.375 6.412504295e-09 759066.3688)
(-8621949.112 0 727436.934)
(-8619841.888 6.490346478e-09 696671.8351)
(-3855262.907 0 16564030.43)
(-7575921.063 0 16989357.02)
(-13052419 0 18178129.43)
(-19303756.84 0 19551666.89)
(-24648864.72 0 21046206.22)
(-29169603.8 0 22246905.82)
(-32435371.58 0 22704269.4)
(-34427843.21 0 22171318.73)
(-35483342.07 0 20823657.56)
(-35942375.06 0 19129999.53)
(-36024940.45 0 17421144)
(-35884759.04 0 15847798.96)
(-35575243.47 0 14424222.52)
(-35068247.45 0 13135145.53)
(-34357385.67 0 11947790.83)
(-33441946.6 6.700086883e-08 10845304.28)
(-32343948.3 0 9818293.713)
(-31120873.71 0 8863673.835)
(-29824402.04 0 7986870.372)
(-28498189.45 0 7190532.336)
(-27182986.05 0 6472907.659)
(-25897920.36 0 5828552.321)
(-24640301.42 0 5249987.753)
(-23412397.92 0 4729726.574)
(-22220960.84 2.713665826e-08 4262181.659)
(-21073165.45 0 3842503.75)
(-19973610.79 -2.649684654e-08 3465878.006)
(-18925480.08 0 3128137.797)
(-17931416.48 2.601736141e-08 2825755.254)
(-16994252.6 0 2555707.068)
(-16117346.13 0 2315356.202)
(-15303052.3 -1.276958316e-08 2102186.403)
(-14550868.1 0 1913652.401)
(-13857409.16 0 1747210.785)
(-13219356.38 0 1600434.25)
(-12634112.28 0 1471128.2)
(-12098278.93 0 1357367.314)
(-11608071.5 0 1257411.054)
(-11160061.77 0 1169544.976)
(-10750611.34 0 1092319.921)
(-10376480.33 6.33231673e-09 1024360.387)
(-10034023.5 0 964493.7789)
(-9718744.134 -6.367240797e-09 911494.6278)
(-9428593.528 0 864332.5671)
(-9162548.541 0 822121.5607)
(-8917336.265 0 784169.6296)
(-8684935.156 0 749899.9389)
(-8451076.992 0 718911.0685)
(-8306048.806 0 691034.0198)
(-8297245.832 0 663510.3053)
(-3614418.218 -2.792175223e-06 24510117.36)
(-7542319.436 0 24308027.15)
(-11919180.41 -5.88395903e-07 24056168.62)
(-16045143.94 0 23395507.8)
(-19344816.43 0 22440267.78)
(-22058526.74 0 21228273.96)
(-24199324.81 0 19847217.12)
(-25845062.78 2.253567229e-07 18411992.23)
(-27112389.07 2.044455141e-07 17010802.23)
(-28042006.92 0 15679609.17)
(-28667225.25 0 14432762.72)
(-29001900 0 13266100.28)
(-29043503.57 0 12165636.34)
(-28820988.7 -7.392686764e-08 11123620.04)
(-28359885.54 0 10140151.7)
(-27716272.2 0 9214235.417)
(-26930572.57 0 8354691.615)
(-26056324.35 0 7565518.404)
(-25143798.69 0 6846778.754)
(-24206893.97 0 6194839.127)
(-23251305.29 0 5605435.885)
(-22284050.63 0 5071496.677)
(-21312188.47 0 4587668.956)
(-20350662.65 0 4149803.45)
(-19410955.73 0 3754080.523)
(-18496517.67 0 3396991.803)
(-17613597.98 0 3075088.709)
(-16768197.68 -2.664765536e-08 2785798.325)
(-15966200.59 0 2526832.43)
(-15211980.65 0 2295995.697)
(-14507302.64 0 2090980.161)
(-13851960.19 -1.29684519e-08 1909337.267)
(-13244305.93 1.29149766e-08 1748572.045)
(-12682178.37 0 1606474.952)
(-12163558.59 0 1481086.285)
(-11686443.5 0 1370541.754)
(-11248745.4 -1.281367619e-08 1273131.593)
(-10847058.78 0 1187239.131)
(-10478129.24 6.410570904e-09 1111524.64)
(-10139256.89 -6.418777188e-09 1044740.341)
(-9826907.846 6.430933872e-09 985655.509)
(-9537778.604 0 933167.7353)
(-9269484.039 6.466401833e-09 886357.7037)
(-9019483.904 0 844464.2606)
(-8786641.22 0 806687.0432)
(-8570341.773 0 772250.5755)
(-8363711.263 6.578047905e-09 740721.5722)
(-8153958.954 -6.613791357e-09 711766.3859)
(-8018426.258 0 685237.359)
(-8000688.167 3.347038494e-09 658579.343)
(-2520561.649 0 19600437.49)
(-5471700.734 0 19344540.91)
(-8660606.691 0 18915728.09)
(-11690711.33 0 18247382.01)
(-14328474.98 0 17449042.55)
(-16645673.46 0 16562572.03)
(-18617937.32 0 15630059.95)
(-20272926.5 0 14683742.57)
(-21600126.49 0 13741531.23)
(-22601946.97 9.550140543e-08 12807438.62)
(-23302581.15 0 11892221.58)
(-23708713.39 0 10994607.12)
(-23851898.71 0 10126788.99)
(-23776948.48 0 9292655.233)
(-23512638.71 0 8503909.488)
(-23111301.3 0 7767654.839)
(-22625211.86 0 7085629.497)
(-22064726.98 0 6459871.357)
(-21437389.38 0 5886618.169)
(-20759708.08 0 5361106.55)
(-20047968.09 0 4879516.173)
(-19311523.81 0 4438491.534)
(-18563104.9 2.885330708e-08 4036040.102)
(-17812424.61 0 3670024.067)
(-17068275 -2.798847165e-08 3337440.463)
(-16338075.02 0 3036136.404)
(-15630977.92 0 2764262.492)
(-14956574.11 0 2520045.251)
(-14318796.1 1.341702016e-08 2301566.504)
(-13718920.72 0 2106606.143)
(-13156881.4 0 1933063.561)
(-12631917.13 0 1778841.314)
(-12143647.01 0 1642025.084)
(-11691248.24 0 1520807.045)
(-11272646.83 0 1413540.112)
(-10885862.39 0 1318676.379)
(-10528187.23 0 1234739.149)
(-10197707.77 0 1160370.391)
(-9892992.136 0 1094347.171)
(-9610283.731 0 1035408.98)
(-9346594.015 0 982709.4064)
(-9100138.86 0 935358.6051)
(-8868760.627 0 892598.7344)
(-8650739.43 0 853736.2585)
(-8444162.274 0 818208.0287)
(-8248741.674 0 785356.6343)
(-8060354.392 0 754634.2338)
(-7867367.989 0 725820.4015)
(-7735627.929 0 698817.3749)
(-7707102.219 0 671479.9665)
(-1938101.398 0 14797664.45)
(-4303020.511 0 14654586.24)
(-6841426.092 0 14394752.66)
(-9281062.285 0 14003650.42)
(-11470995.56 1.781904849e-07 13523273.14)
(-13422873 0 12970610.17)
(-15126136.92 0 12363950.43)
(-16561293.21 2.324306184e-07 11719350.18)
(-17718362.93 0 11045465.69)
(-18612692.96 0 10357626.66)
(-19250599.58 -9.021955736e-08 9665870.65)
(-19661430.31 0 8982295.849)
(-19869965.25 0 8318063.168)
(-19910766.14 0 7683754.831)
(-19830211.88 0 7082499.611)
(-19634262.1 0 6521140.092)
(-19338646.58 0 5997513.464)
(-18964862.35 0 5509231.501)
(-18522665.09 0 5054458.2)
(-18023668.2 0 4633329.474)
(-17480024.12 0 4244013.884)
(-16908498.19 0 3885295.617)
(-16322471.94 0 3555738.391)
(-15729066 0 3253603.144)
(-15138423.39 0 2978185.534)
(-14560345.66 0 2728437.363)
(-14002617.64 0 2503315.275)
(-13469768.3 0 2301088.911)
(-12963329.25 1.362597186e-08 2119792.445)
(-12485032.53 0 1957529.002)
(-12036077.72 0 1812494.564)
(-11616247.46 0 1683052.592)
(-11224729.19 0 1567708.837)
(-10860149.6 0 1465051.542)
(-10521287.72 0 1373637.301)
(-10206314.65 0 1292231.368)
(-9913536.797 -6.607947261e-09 1219618.957)
(-9640588.539 0 1154739.386)
(-9383995.08 0 1096446.065)
(-9143366.879 0 1043773.399)
(-8917541.069 0 995895.6714)
(-8703306.904 0 952221.6014)
(-8499359.953 0 912085.4732)
(-8304361.529 0 874937.7044)
(-8116883.769 0 840262.4645)
(-7935893.65 0 807665.0127)
(-7758382.233 0 776538.0418)
(-7575784.831 0 746792.0241)
(-7444644.166 0 718370.1724)
(-7404179.657 0 689521.1465)
(-1597966.745 1.462335076e-06 11546793.12)
(-3582720.498 -4.997319346e-07 11455623.98)
(-5701911.21 0 11278535.28)
(-7730000.163 0 11015139.33)
(-9570712.626 0 10682081.83)
(-11221264.46 3.044761634e-07 10290520.38)
(-12662872.66 0 9852697.186)
(-13884837.47 0 9378527.345)
(-14883456.47 1.070734544e-07 8878454.268)
(-15671899.24 9.849917275e-08 8367144.68)
(-16266395.96 0 7851057.398)
(-16685479.9 0 7344694.755)
(-16959561.39 0 6851157.671)
(-17095712.81 0 6378711.93)
(-17108899.32 -7.411429824e-08 5928264.827)
(-17022654.87 0 5498485.17)
(-16839643.68 3.441276276e-08 5091977.377)
(-16571354.31 6.670509429e-08 4708683.436)
(-16239444.5 0 4348611.535)
(-15859621.92 0 4011277.864)
(-15440028.1 0 3697312.482)
(-14991803.73 0 3406753.946)
(-14523797.5 -2.97590058e-08 3138712.886)
(-14049820.88 0 2892881.355)
(-13582511.51 2.886702339e-08 2668669.961)
(-13126789.74 0 2465182.946)
(-12686581.4 0 2281329.47)
(-12264295.4 0 2115560.169)
(-11861552.48 0 1966358.284)
(-11479563.58 -1.373779956e-08 1832399.855)
(-11118978.88 0 1712248.66)
(-10780196.37 0 1604546.406)
(-10463452.76 0 1507975.583)
(-10167264.17 0 1421296.881)
(-9889952.789 0 1343538.486)
(-9630349.921 6.716044967e-09 1273603.764)
(-9386263.674 6.710856824e-09 1210469.003)
(-9155406.433 0 1153195.141)
(-8936250.805 0 1101020.424)
(-8726981.999 -6.723362454e-09 1053301.685)
(-8527197.93 0 1009129.213)
(-8335878.233 0 968063.7024)
(-8150723.438 0 929630.7742)
(-7970851.902 0 893361.4838)
(-7795344.786 0 858868.2872)
(-7622522.022 0 825796.0806)
(-7450899.281 0 793824.9092)
(-7274040.958 -3.46381524e-09 762819.6369)
(-7140204.336 0 732699.6944)
(-7087465.193 3.505862921e-09 702128.9187)
(-1359629.025 0 9258821.969)
(-3058592.003 0 9192252.637)
(-4872575.634 0 9057271.892)
(-6609226.943 0 8859888.693)
(-8183223.269 0 8608989.086)
(-9600478.907 0 8314310.819)
(-10850634.39 0 7985081.033)
(-11912797.57 0 7627851.364)
(-12806110.71 0 7254703.36)
(-13530349.9 0 6872819.837)
(-14100379.63 0 6489804.938)
(-14530422.7 0 6110319.118)
(-14821286.94 0 5739474.679)
(-14996802.52 0 5376111.513)
(-15055089.03 0 5025876.463)
(-15012742.63 0 4688921.976)
(-14891979.68 0 4365668.257)
(-14700828.55 0 4058811.078)
(-14446909.98 0 3769596.861)
(-14145898.38 3.211695165e-08 3497877.421)
(-13813093.48 0 3243462.374)
(-13456306.79 0 3007134.667)
(-13086870.45 0 2789256.143)
(-12713654.23 0 2590059.166)
(-12342976.63 0 2408498.087)
(-11980996.77 0 2243468.196)
(-11630535.8 0 2093546.597)
(-11292491.39 0 1957796.453)
(-10969055.35 0 1835148.648)
(-10661600.05 0 1724476.983)
(-10370201.63 0 1624703.319)
(-10094584.53 0 1534786.826)
(-9833924.451 0 1453638.904)
(-9588608.115 0 1380189.751)
(-9357671.685 0 1313499.473)
(-9138137.045 0 1252724.521)
(-8928758.471 0 1197069.051)
(-8728564.621 0 1145847.597)
(-8535902.901 0 1098448.959)
(-8348461.899 0 1054307.219)
(-8166293.965 6.841001384e-09 1012864.593)
(-7989436.585 0 973614.8271)
(-7815901.897 0 936233.7659)
(-7644736.312 0 900370.1144)
(-7475179.713 0 865740.8643)
(-7306476.766 0 832115.0811)
(-7137475.659 0 799313.9944)
(-6961783.557 0 767130.9503)
(-6823329.56 0 735564.2307)
(-6759673.892 0 703693.7957)
(-1182153.696 0 7623629.189)
(-2659088.648 0 7572939.437)
(-4240935.374 0 7466913.612)
(-5752609.318 0 7313792.612)
(-7133674.825 0 7120707.618)
(-8390173.794 0 6895728.277)
(-9494079.401 0 6643207.866)
(-10454239.43 0 6370779.609)
(-11272554.3 0 6087340.126)
(-11946814.78 0 5793176.265)
(-12484166.62 0 5497863.802)
(-12894686.62 0 5199561.489)
(-13180265.74 8.390186498e-08 4904731.457)
(-13354462.81 0 4614698.995)
(-13438287.78 0 4330858.072)
(-13429746 0 4057662.253)
(-13346381.68 0 3795529.35)
(-13204806.93 3.439947607e-08 3544927.639)
(-13011655.1 0 3307479.145)
(-12775008.55 0 3084776.839)
(-12508854.93 0 2876939.299)
(-12227821.87 0 2684093.199)
(-11938044.53 0 2506577.499)
(-11644710.86 0 2343936.533)
(-11351919.88 -1.488657637e-08 2195408.501)
(-11061571.38 0 2060089.306)
(-10778075.43 0 1936852.085)
(-10505447.94 0 1824724.827)
(-10243450.98 -1.427255463e-08 1722948.851)
(-9992576.353 0 1630625.451)
(-9753371.364 0 1546801.658)
(-9525440.144 0 1470641.818)
(-9308067.225 0 1401314.934)
(-9100164.314 0 1338038.767)
(-8901064.621 0 1279701.728)
(-8710027.21 0 1225813.88)
(-8525515.099 6.921509104e-09 1175791.751)
(-8346175.616 6.921161134e-09 1129069.177)
(-8170945.347 0 1085126.935)
(-7997961.864 0 1043548.473)
(-7826868.965 0 1003941.102)
(-7658259.547 0 965899.2762)
(-7490825.383 0 929153.4009)
(-7323762.379 0 893494.4921)
(-7156970.059 0 858764.604)
(-6989520.815 -3.535569181e-09 824728.6282)
(-6819957.333 0 791281.7185)
(-6643418.16 0 758313.453)
(-6500700.765 0 725890.5414)
(-6427511.676 3.615911167e-09 693254.7149)
(-1047879.009 0 6458159.856)
(-2349750.331 0 6418704.63)
(-3751867.205 3.227810984e-07 6335275.041)
(-5106032.992 0 6215696.86)
(-6344940.869 -1.895527726e-07 6065501.67)
(-7466816.266 0 5887752.386)
(-8465068.429 0 5687299.985)
(-9342465.379 0 5472400.194)
(-10085733.62 0 5243211.253)
(-10704183.44 0 5005999.058)
(-11200649.59 0 4762702.317)
(-11579826.67 0 4518053.596)
(-11857266 8.520851956e-08 4272857.61)
(-12033847.85 0 4032893.251)
(-12125640.18 0 3797643.695)
(-12144440.01 -3.732762032e-08 3569386.389)
(-12092996.68 0 3350953.886)
(-11986646.18 3.493519996e-08 3142397.214)
(-11839909.66 0 2944786.754)
(-11660690.9 0 2759469.512)
(-11456624.58 0 2587605.364)
(-11237208.95 0 2428757.022)
(-11010364.28 0 2282097.653)
(-10778312.16 0 2147288.817)
(-10544293.81 0 2023654.049)
(-10311638.17 0 1910533.375)
(-10082228.61 0 1807457.545)
(-9858851.752 0 1713345.912)
(-9643613.748 0 1627302.168)
(-9436048.712 0 1548715.833)
(-9236114.486 0 1476852.475)
(-9043805.154 0 1410944.13)
(-8858130.419 0 1350265.296)
(-8676756.258 0 1294121.898)
(-8500351.864 0 1241888.382)
(-8329358.651 0 1192966.186)
(-8161540.526 0 1146933.817)
(-7995989.755 0 1103339.072)
(-7831854.202 0 1061802.537)
(-7667487.022 0 1021975.673)
(-7502681.643 -7.05573879e-09 983553.8423)
(-7338217.129 0 946290.5613)
(-7173534.592 0 910008.2531)
(-7008466.66 0 874584.3039)
(-6841839.781 0 839862.6585)
(-6673228.899 0 805565.6549)
(-6502475.511 0 771847.2636)
(-6324785.902 0 738607.0941)
(-6177509.034 0 705895.9)
(-6098006.025 0 673084.6578)
(-943245.6791 0 5621968.023)
(-2111318.093 5.315972733e-07 5590340.955)
(-3376854.072 0 5522437.239)
(-4599623.968 0 5424998.728)
(-5713249.665 0 5300238.56)
(-6726188.77 0 5151275.673)
(-7636264.383 0 4984947.509)
(-8431556.365 0 4803847.163)
(-9110229.878 0 4609590.115)
(-9677845.027 0 4409260.857)
(-10137746.47 0 4202186.104)
(-10494922.43 0 3994877.874)
(-10759700.14 -8.653552537e-08 3787178.691)
(-10938739.45 0 3582405.638)
(-11037994.76 0 3382984.985)
(-11073396.04 -3.79089468e-08 3189007.151)
(-11051474.5 0 3002958.52)
(-10980756.53 0 2826866.529)
(-10875502.92 -3.449787371e-08 2660684.955)
(-10745098.88 0 2505288.991)
(-10593922.83 -1.644546326e-08 2360811.475)
(-10425432.89 0 2227290.734)
(-10246224.44 0 2103808.148)
(-10061999.22 0 1989734.949)
(-9874689.156 -1.53538626e-08 1884847.926)
(-9687214.363 0 1788558.902)
(-9500872.533 0 1700243.662)
(-9316526.361 1.484598006e-08 1619377.612)
(-9136511.606 0 1544968.902)
(-8961897.312 0 1476469.928)
(-8791726.712 0 1413267.272)
(-8625188.419 0 1354675.414)
(-8461582.814 0 1300080.525)
(-8300039.161 0 1249011.301)
(-8140140.718 0 1201023.111)
(-7982278.071 0 1155536.702)
(-7825625.574 0 1112233.518)
(-7668844.138 0 1070776.424)
(-7511369.992 0 1030860.592)
(-7351660.252 0 992231.5978)
(-7189939.879 -7.165622243e-09 954584.7408)
(-7027649.536 0 917932.6378)
(-6864379.074 0 882093.7846)
(-6699381.066 0 846936.5448)
(-6531005.233 0 812260.4784)
(-6361034.802 0 778080.8741)
(-6189543.664 0 744460.7181)
(-6010774.928 0 711380.9284)
(-5860216.62 0 678875.1845)
(-5776003.802 0 646473.8609)
(-859329.2314 0 4993244.001)
(-1912502.476 5.398761628e-07 4966482.167)
(-3059110.341 0 4907182.987)
(-4170348.76 0 4822332.08)
(-5177396.346 0 4713448.222)
(-6101603.246 0 4585326.741)
(-6934513.136 0 4441814.701)
(-7659026.888 0 4283806.558)
(-8284758.611 0 4116651.568)
(-8809784.514 0 3942514.302)
(-9238854.823 -9.898494505e-08 3764226.348)
(-9578066.541 0 3584110.049)
(-9830822.409 0 3404979.411)
(-10011034.25 0 3227465.662)
(-10119718.11 -8.006801281e-08 3055012.901)
(-10170515.25 0 2888389.276)
(-10176773.82 0 2729043.546)
(-10141366.78 0 2578532.823)
(-10073637.83 0 2437319.509)
(-9982640.319 0 2304892.275)
(-9871737.749 0 2181367.805)
(-9744337.408 0 2066545.295)
(-9604415.024 0 1960403.558)
(-9458024.359 -1.581793875e-08 1862044.255)
(-9308361.61 0 1771236.594)
(-9156128.556 0 1687486.146)
(-9003299.015 0 1610218.871)
(-8849880.784 0 1538946.977)
(-8697484.835 0 1473089.523)
(-8547656.85 0 1411877.701)
(-8399039.105 0 1354796.359)
(-8251199.716 7.337521944e-09 1301353.333)
(-8104233.077 0 1251116.463)
(-7956657.788 0 1203655.215)
(-7807991.045 0 1158523.623)
(-7659284.625 0 1115407.071)
(-7509796.718 7.249950184e-09 1073981.501)
(-7358475.372 -7.249585702e-09 1033982.596)
(-7204876.06 0 995197.6131)
(-7047115.333 0 957343.2914)
(-6886998.246 0 920408.9498)
(-6726163.441 0 884309.5481)
(-6562785.659 0 848876.4648)
(-6396369.985 0 814017.7014)
(-6226919.131 3.686603909e-09 779567.1019)
(-6056313.707 7.406679684e-09 745781.3163)
(-5884111.379 -3.721845231e-09 712574.6346)
(-5705274.981 0 680020.6816)
(-5552764.603 0 648004.8292)
(-5465304.403 3.787494235e-09 616379.4609)
(-786197.3954 0 4491391.624)
(-1738214.2 -5.482839854e-07 4467791.211)
(-2782321.068 0 4415111.227)