/*--------------------------------*- C++ -*----------------------------------*\
  =========                 |
  \\      /  F ield         | OpenFOAM: The Open Source CFD Toolbox
   \\    /   O peration     | Website:  https://openfoam.org
    \\  /    A nd           | Version:  7
     \\/     M anipulation  |
\*---------------------------------------------------------------------------*/
FoamFile
{
    version     2.0;
    format      ascii;
    class       volScalarField;
    location    "0.0009";
    object      generalizedNewtonian:nu;
}
// * * * * * * * * * * * * * * * * * * * * * * * * * * * * * * * * * * * * * //

dimensions      [0 2 -1 0 0 0 0];

internalField   nonuniform List<scalar> 
1167
(
15.33245647
15.16708802
14.8920789
14.44472941
13.87742137
13.19797981
12.41982865
11.55917264
10.63418137
9.666136502
8.679234116
7.699543018
6.752999752
5.862626713
5.045938294
4.313495439
3.668997141
15.56610274
15.39563319
15.10631912
14.64162448
14.05229153
13.3478548
12.54269271
11.65485686
10.70417181
9.713080398
8.706738735
7.711891801
6.754553704
5.857251243
5.036676047
4.302513289
3.657731631
3.099841136
2.622571662
2.217658383
1.876153962
1.589219731
1.348683708
1.147254976
0.9785888891
0.8372722669
0.7187220312
0.6191074338
0.5352333165
0.4644478663
0.4045585495
0.3537482515
0.3105168637
0.2736243767
0.242043361
0.2149243708
0.1915637381
0.1713756284
0.1538729562
0.138649746
0.1253667836
0.1137399145
0.1035306791
0.09453824243
0.08659309639
0.0795516644
0.07329220893
0.06771061941
0.06271705771
0.05823121026
15.82194292
15.64574942
15.34061468
14.85678203
14.24324033
13.51130679
12.6767016
11.75910359
10.78027501
9.764113994
8.736845691
7.725763791
6.756863056
5.852137362
5.02740559
4.29142597
3.646370599
3.089045431
2.612750167
2.208987395
1.868639782
1.582792403
1.343244451
1.142685882
0.9747778939
0.8341086529
0.7161079554
0.6169578797
0.5334721208
0.4630111153
0.4033903161
0.3528021555
0.3097543442
0.2730124203
0.2415549045
0.2145371483
0.1912595003
0.1711390073
0.1536914729
0.1385132091
0.1252668507
0.1136697623
0.1034847357
0.09451196246
0.08658271394
0.07955411702
0.07330503023
0.06773178487
0.06274492233
0.05826445744
16.10106143
15.91841538
15.59600083
15.09096693
14.45067024
13.68839313
12.8218772
11.87196601
10.86250701
9.819201002
8.769419421
7.740996109
6.759835522
5.847267748
5.018170232
4.280347827
3.635002237
3.078249303
2.602960129
2.200374499
1.861204572
1.576463974
1.337907858
1.138217586
0.971061822
0.8310322198
0.7135733077
0.6148767506
0.531769334
0.4616235309
0.4022629564
0.3518895831
0.3090189343
0.2724221168
0.2410835704
0.2141634478
0.1909654518
0.1709099717
0.1535154879
0.1383804927
0.1251693972
0.1136010319
0.1034394086
0.09448562813
0.08657176336
0.07955560832
0.07331660232
0.06775149372
0.06277118447
0.05829600249
16.40405698
16.21434565
15.8728664
15.3443821
14.67480556
13.87928369
12.97790507
11.99315422
10.95065118
9.87811602
8.804277853
7.757481829
6.763398908
5.842630559
5.009062916
4.269346468
3.623686826
3.067507274
2.593256035
2.191862411
1.853878142
1.570249438
1.332684905
1.133859165
0.9674462693
0.8280456139
0.7111176634
0.6128637012
0.5301243577
0.4602843
0.4011755784
0.3510098013
0.3083099357
0.2718528869
0.2406288536
0.2138026811
0.190681257
0.1706882879
0.1533448306
0.1382514759
0.1250743445
0.1135336817
0.103394646
0.09445920324
0.08656023001
0.07955615972
0.07332693396
0.06776975304
0.06279585142
0.05832585235
16.73171078
16.53423587
16.17174025
15.61736183
14.91568841
14.08384045
13.14428578
12.1220316
11.04430289
9.940615469
8.841220167
7.775041041
6.767471378
5.83829245
5.00015969
4.258475711
3.612468935
3.056873734
2.58367301
2.183479831
1.846686949
1.564166015
1.327585743
1.129618038
0.9639354502
0.8251511559
0.7087415638
0.6109185924
0.5285374709
0.4589928967
0.4001275709
0.3501624881
0.3076268427
0.2713042808
0.2401903866
0.2134545263
0.1904066819
0.1704737839
0.1531793769
0.1381260727
0.1249816418
0.1134677124
0.1033504159
0.09443267323
0.08654810427
0.07955574708
0.07333602198
0.06778656293
0.06281892189
0.05835400351
17.08481594
16.87880853
16.49323719
15.91051627
15.1735375
14.30203324
13.3208247
12.25787497
11.14257775
10.00607467
8.879883468
7.793526591
6.772095362
5.834301445
4.991466192
4.247748726
3.60138305
3.046398383
2.574248434
2.175251148
1.839652453
1.558229081
1.322620775
1.125497407
0.9605315802
0.8223514339
0.706446156
0.609041754
0.5270079592
0.4577489589
0.3991184968
0.3493467875
0.3069691781
0.2707759492
0.2397679899
0.2131187806
0.1901415681
0.1702663491
0.1530190546
0.1380042419
0.1248912761
0.1134030557
0.1033066975
0.09440602896
0.08653537901
0.07955436299
0.07334385794
0.06780191337
0.062840384
0.0583804423
17.46406084
17.24850451
16.83756353
16.22382336
15.44818783
14.53362225
13.50723775
12.40018277
11.24467644
10.07365966
8.919714989
7.81266176
6.777073248
5.830506746
4.982905712
4.237145634
3.590451045
3.036093944
2.564999659
2.167195782
1.832783157
1.552445986
1.317797916
1.121502339
0.9572373097
0.8196473433
0.7042319817
0.6072333364
0.5255354407
0.4565521157
0.3981480129
0.3485623796
0.3063366561
0.2702676697
0.2393615541
0.2127953272
0.1898858301
0.1700659289
0.1528638321
0.1378859715
0.1248032683
0.1133397076
0.1032634828
0.09437926148
0.08652204354
0.07955199431
0.07335042589
0.06781578549
0.06286021609
0.05840514458
17.8702338
17.64388388
17.2051643
16.55720348
15.73922879
14.77769658
13.7028155
12.54849788
11.3501657
10.14287407
8.960203367
7.83200679
6.78208398
5.826717191
4.974387672
4.226644176
3.579689978
3.025976247
2.555936214
2.159331765
1.826091775
1.546824148
1.313122616
1.11763674
0.9540552779
0.8170391802
0.7020991534
0.6054937523
0.5241198496
0.45540222
0.3972163745
0.3478092114
0.3057292247
0.2697793797
0.2389708657
0.2124841211
0.1896394671
0.1698725387
0.1527137351
0.1377712904
0.1247175854
0.1132776741
0.1032207784
0.09435236981
0.08650808849
0.07954862512
0.07335570794
0.06782815232
0.06287838683
0.05842807663
18.30361852
18.06510709
17.59609848
16.91040946
16.04608657
15.03338337
13.9065677
12.7020359
11.45837829
10.21315528
9.000882531
7.851197397
6.786905066
5.822809646
4.965853316
4.216264933
3.569108705
3.016056759
2.547074309
2.151666384
1.819586723
1.541371455
1.308597267
1.113902461
0.9509880131
0.8145282267
0.700048312
0.6038235989
0.5227614064
0.4542993359
0.3963233881
0.3470872444
0.3051468836
0.2693111089
0.2385959718
0.2121852175
0.1894025399
0.1696862407
0.1525688338
0.1376603231
0.1246342774
0.1132169824
0.1031785998
0.09432535749
0.08649350536
0.07954423659
0.07335967923
0.06783897795
0.06289485408
0.05844919226
18.76296653
18.51097514
18.00897406
17.2818497
16.3673379
15.29935679
14.11671272
12.85935466
11.56837794
10.28379873
9.041220675
7.869880215
6.791289967
5.818639418
4.957283996
4.205995584
3.558699144
3.00633272
2.538428032
2.14420768
1.813272402
1.536096003
1.304226769
1.110302196
0.9480373361
0.8121158538
0.6980803077
0.6022225083
0.5214602321
0.4532435867
0.3954688645
0.3463964519
0.3045897045
0.2688632509
0.2382370203
0.2118987401
0.1891751813
0.1695071693
0.152429237
0.1375530834
0.1245534106
0.1131576899
0.1031369826
0.09429823903
0.08647828957
0.07953880603
0.07336229604
0.06784821658
0.06290956688
0.05846843694
19.2460256
18.97902602
18.44177867
17.66961515
16.70082211
15.57357
14.33122711
13.01837249
11.67869131
10.35392609
9.080661199
7.887669249
6.795020032
5.814162937
4.948673848
4.195816466
3.548447428
2.996807085
2.530001636
2.136962656
1.807154698
1.530999324
1.300013532
1.106838174
0.9452031113
0.8098022822
0.6961956452
0.600690827
0.5202165461
0.45223534
0.3946531033
0.3457371432
0.3040579344
0.2684357483
0.2378942006
0.211624906
0.1889575932
0.1693355222
0.1522951979
0.1374497176
0.124475092
0.1130998769
0.1030959809
0.0942710412
0.08646244216
0.07953231144
0.07336351708
0.06785581174
0.06292245732
0.05848573398
19.74985127
19.46617884
18.89150921
18.07089017
17.04374151
15.85354592
14.54806194
13.17692779
11.78721893
10.42212028
9.118412918
7.904186997
6.797995456
5.809335267
4.939956814
4.185681422
3.538331866
2.987483177
2.521792707
2.129929682
1.801236147
1.526081275
1.295957409
1.103512241
0.942486025
0.8075878181
0.6943957396
0.5992290006
0.5190306886
0.4512753305
0.3938764805
0.3451096517
0.3035519053
0.2680288994
0.2375678083
0.2113640057
0.1887500535
0.1691715401
0.1521668677
0.1373503995
0.1243994696
0.1130436551
0.1030556685
0.09424380177
0.08644596712
0.0795247272
0.07336329273
0.06786169666
0.06293344891
0.0585010043
20.26978362
19.96752414
19.3537335
18.48101629
17.39183528
16.13543005
14.76424093
13.33283491
11.89217775
10.48685226
9.15345742
7.918865875
6.799842798
5.803890571
4.930969076
4.175501239
3.528312832
2.978339931
2.513789674
2.123100678
1.795516488
1.521342207
1.292058721
1.100324637
0.9398868257
0.8054730876
0.6926796219
0.5978372307
0.5179029779
0.4503632647
0.3931391988
0.3445143269
0.3030722175
0.267643118
0.2372582321
0.2111164188
0.1885529307
0.1690155932
0.1520445263
0.1372553876
0.1243267621
0.1129891969
0.1030161694
0.09421659606
0.08642889316
0.07951603905
0.07336157099
0.06786578747
0.06294243125
0.05851411409
20.79859167
20.47555019
19.8221682
18.89412837
17.73974606
16.41431224
14.97605019
13.48356276
11.99181233
10.5469061
9.184879234
7.931037675
6.800101669
5.79753916
4.921543803
4.165184444
3.5183674
2.969357728
2.505979317
2.116471026
1.789988431
1.516779086
1.288316597
1.097273241
0.9374046369
0.8034579638
0.6910473738
0.5965156033
0.5168336625
0.4494994851
0.3924416313
0.3439515474
0.3026191795
0.2672787868
0.2369658629
0.2108825251
0.1883665941
0.1688680802
0.1519284863
0.1371649521
0.1242572001
0.1129366874
0.1029776181
0.0941895049
0.08641124752
0.07950622445
0.07335828772
0.06786799126
0.0629492999
0.05852496652
21.32539181
20.97899736
20.28657855
19.30105846
18.08005602
16.68422746
15.17861799
13.62573437
12.08384672
10.60075936
9.211706485
7.940068759
6.798391675
5.790058763
4.911543119
4.154670936
3.508439735
2.96049784
2.498336528
2.110034014
1.784645328
1.512385922
1.284730025
1.094356567
0.9350384196
0.8015435504
0.6894991634
0.5952644346
0.5158239903
0.4486847234
0.3917844975
0.343422014
0.3021933251
0.2669365644
0.2366913695
0.210662976
0.188191646
0.1687294695
0.1518192569
0.1370795644
0.1241911963
0.112886473
0.1029402883
0.09416272391
0.08639314424
0.07949531502
0.07335339393
0.06786818194
0.0629538537
0.05853328243
21.83303031
21.46107206
20.73290907
19.68922895
18.40222112
16.93693458
15.36520429
13.75475217
12.16558681
10.64669281
9.232782844
7.945227428
6.79423212
5.781132718
4.900806038
4.143878072
3.498467502
2.951715102
2.490835892
2.103768001
1.779475723
1.508155893
1.281292629
1.091571605
0.9327863529
0.799726893
0.6880339459
0.5940831729
0.5148729295
0.4479186961
0.3911677771
0.3429259854
0.3017948674
0.2666166906
0.2364350208
0.2104580821
0.1880285137
0.1686000945
0.1517171519
0.1369995271
0.1241290323
0.1128388005
0.102904378
0.09413638973
0.08637464844
0.07948330122
0.07334681421
0.06786624392
0.0629559829
0.058539018
22.29573003
21.8975686
21.14147118
20.04247749
18.69273602
17.1618662
15.5278039
13.86413179
12.23261829
10.6820433
9.246434227
7.945377175
6.786865007
5.770313021
4.889067604
4.132597316
3.488302004
2.942909172
2.483418851
2.09762936
1.774448674
1.504069864
1.27799047
1.088909154
0.9306429495
0.7980047234
0.686649896
0.5929710906
0.5139803044
0.4472017368
0.3905921549
0.3424645095
0.3014248497
0.2663202631
0.2361979408
0.2102689428
0.1878782083
0.1684809701
0.1516231424
0.1369257503
0.1240715456
0.1127944219
0.1028705382
0.09411103218
0.0863561465
0.07947040149
0.07333857321
0.06786198012
0.06295523294
0.05854141235
22.68745166
22.26007732
21.48596962
20.33828868
18.93388971
17.34606164
15.65737714
13.94704135
12.27957079
10.70324379
9.250484031
7.939180982
6.775488381
5.757070478
4.875899936
4.120506553
3.477715297
2.933925157
2.475971698
2.091537514
1.769505924
1.500088893
1.274793611
1.086346749
0.9285936024
0.7963649603
0.6853377371
0.5919217578
0.5131407636
0.4465296629
0.3900542783
0.3420345882
0.3010810895
0.2660455896
0.2359788037
0.2100945219
0.1877398839
0.1683715067
0.1515368245
0.1368579806
0.1240186055
0.1127533003
0.1028387916
0.09408669566
0.08633766504
0.0794565945
0.07332859922
0.06785531993
0.06295166733
0.05854086921
22.93148272
22.49289469
21.72120645
20.53714414
19.09156053
17.46078763
15.73151086
13.98692848
12.29417591
10.70105828
9.238347209
7.922126928
6.756965772
5.739180889
4.859743132
4.106527298
3.465966514
2.924269015
2.468145268
2.085247727
1.764478213
1.49609127
1.271619461
1.083827632
0.9265969139
0.794780573
0.6840795907
0.5909231496
0.5123470189
0.4458983527
0.3895522715
0.341635749
0.3007640718
0.2657937938
0.2357791693
0.209936777
0.1876154572
0.1682736426
0.1514601297
0.1367981064
0.12397203
0.1127171603
0.1028107428
0.09406482397
0.08632042044
0.07944276308
0.07331728392
0.06784594724
0.06294397906
0.05853475953
23.18178908
22.69939375
21.9263466
20.69855364
19.2078162
17.53302014
15.76609302
13.99216585
12.27979927
10.67583889
9.20866787
7.892172796
6.72916053
5.714709118
4.838979374
4.089347283
3.452018491
2.913113039
2.459296402
2.078263731
1.758989199
1.491784958
1.268241662
1.081177642
0.9245174399
0.7931457156
0.6827925069
0.58990952
0.5115471213
0.4452665137
0.3890534662
0.3412414744
0.3004523678
0.2655475275
0.2355849155
0.2097840504
0.1874955757
0.1681798183
0.1513869702
0.1367412756
0.1239280154
0.1126830918
0.1027842411
0.09404390251
0.0863034206
0.07942834653
0.07330446966
0.06783422344
0.06293343435
0.05852595018
22.71655931
22.21616398
21.47166791
20.30509141
18.88129824
17.2669396
15.55198096
13.82046867
12.14193712
10.56559632
9.121063341
7.822971129
6.674836003
5.672324788
4.806085944
4.063943211
3.43251041
2.898172617
2.447863042
2.06951447
1.752296881
1.486657143
1.264304252
1.07815055
0.9221833018
0.7913411921
0.6813951192
0.5888249036
0.5107033563
0.4446091922
0.3885414803
0.3408421565
0.3001408881
0.2653048013
0.235396217
0.2096378618
0.1873826597
0.1680930149
0.1513206484
0.1366909523
0.1238900886
0.1126546293
0.1027627967
0.09402737625
0.08628993165
0.07941613972
0.07329186016
0.06781966526
0.06291569645
0.05850428244
22.44339606
22.07055951
21.36104249
20.1120131
18.61817277
16.96784953
15.24965512
13.53916174
11.89452189
10.35686677
8.950663428
7.687330523
6.568913743
5.590805212
4.744043224
4.017146164
3.397411111
2.8719248
2.428258205
2.054878511
1.741359263
1.47846176
1.258144663
1.073507784
0.9186686679
0.7886693271
0.6793572285
0.587263605
0.5095025171
0.4436826058
0.3878249784
0.3402864218
0.2997089964
0.2649688555
0.2351351308
0.2094349658
0.187225266
0.1679713082
0.1512269809
0.1366193106
0.1238357021
0.1126136618
0.1027320848
0.09400422542
0.08627194412
0.07940110436
0.07327771809
0.06780466696
0.06289886474
0.0584860568
24.6737118
23.60486621
22.41507614
20.81238311
19.02670479
17.16043339
15.30003297
13.50703599
11.82177823
10.26946538
8.863653713
7.608507831
6.50140785
5.535096818
4.699273174
3.981817735
3.369871994
2.850637922
2.41190376
2.04237701
1.731820383
1.471186541
1.252598194
1.069275076
0.9154326867
0.7861908854
0.6774571722
0.5858031629
0.5083779834
0.4428164077
0.3871565825
0.3397702923
0.2993104899
0.2646615517
0.234898975
0.2092539397
0.1870871969
0.1678667765
0.151148652
0.1365614322
0.1237937392
0.1125840077
0.1027118085
0.09399085191
0.08626318925
0.07939448945
0.07326986118
0.06779012787
0.06286908154
0.05843112546
)
;

boundaryField
{
    front_top
    {
        type            wedge;
    }
    front_middle
    {
        type            wedge;
    }
    front_bottom
    {
        type            wedge;
    }
    back_top
    {
        type            wedge;
    }
    back_middle
    {
        type            wedge;
    }
    back_bottom
    {
        type            wedge;
    }
    axis_top
    {
        type            symmetryPlane;
    }
    axis_middle
    {
        type            symmetryPlane;
    }
    axis_bottom
    {
        type            symmetryPlane;
    }
    wall_top
    {
        type            calculated;
        value           nonuniform 0();
    }
    wall_middle
    {
        type            calculated;
        value           nonuniform 0();
    }
    wall_bottom
    {
        type            calculated;
        value           nonuniform List<scalar> 
23
(
0.0561887658
0.0562242199
0.05625793727
0.05628992444
0.05632017679
0.05634867987
0.05637540848
0.0564003281
0.05642339103
0.05644454168
0.05646369991
0.05648078698
0.05649565903
0.05650822703
0.05651817539
0.05652550483
0.05652930394
0.05653018415
0.05652484225
0.05651705827
0.05649358539
0.05647507261
0.05640657974
)
;
    }
    inlet
    {
        type            calculated;
        value           nonuniform 0();
    }
    outlet
    {
        type            calculated;
        value           nonuniform List<scalar> 
50
(
25.02622592
23.95396466
22.74523704
21.10186177
19.27109796
17.35896509
15.45592054
13.62581289
11.91000176
10.33352236
8.909186515
7.640264466
6.523186912
5.54981329
4.70908797
3.988284503
3.374087704
2.853363474
2.413654499
2.043495605
1.732532181
1.471638949
1.252886374
1.06945951
0.9155518201
0.7862690984
0.6775096425
0.5858393531
0.5084038067
0.4428355099
0.3871711871
0.339781775
0.2993197142
0.2646690614
0.2349051149
0.2092589416
0.1870912261
0.1678699586
0.1511510889
0.1365632124
0.1237949426
0.1125847102
0.1027120841
0.09399077537
0.08626283892
0.07939395065
0.07326923395
0.06778954025
0.06286868433
0.05843099098
)
;
    }
    procBoundary0to1
    {
        type            processor;
        value           nonuniform List<scalar> 
51
(
15.12005578
14.95925563
14.69714662
14.26567662
13.71833006
13.06177972
12.30812301
11.47193065
10.57026939
9.623472092
8.654606142
7.688973888
6.752372493
5.868323556
5.055166361
4.324288736
3.680074895
3.110566768
3.110566768
2.632359842
2.226345232
1.883718129
1.595720381
1.354208684
1.151914603
0.9824914119
0.8405211469
0.7214134347
0.6213251801
0.5370535113
0.465935295
0.4057687983
0.3547289063
0.3113074986
0.2742588508
0.2425496217
0.2153254579
0.1918785694
0.1716201618
0.1540601776
0.1387902718
0.125469309
0.1138115533
0.103577246
0.094564496
0.08660292495
0.07954824343
0.07327812399
0.06768797935
0.06268757122
0.05819624152
)
;
    }
}


// ************************************************************************* //
