/*--------------------------------*- C++ -*----------------------------------*\
  =========                 |
  \\      /  F ield         | OpenFOAM: The Open Source CFD Toolbox
   \\    /   O peration     | Website:  https://openfoam.org
    \\  /    A nd           | Version:  7
     \\/     M anipulation  |
\*---------------------------------------------------------------------------*/
FoamFile
{
    version     2.0;
    format      ascii;
    class       volTensorField;
    location    "0.0009";
    object      grad(U);
}
// * * * * * * * * * * * * * * * * * * * * * * * * * * * * * * * * * * * * * //

dimensions      [0 0 -1 0 0 0 0];

internalField   nonuniform List<tensor> 
1167
(
(-0.2565130508 -1.185890592e-12 0.1410790441 -3.691558684e-12 -0.418601983 0 -0.00847257802 -1.921131794e-13 1.329580123)
(-0.3426522682 -6.673801583e-13 0.3313162152 -1.891451915e-13 -0.3666347224 0 -0.02210230771 -7.62639187e-13 1.331454717)
(-0.3416946411 -4.362659864e-13 0.5455180905 -1.10319832e-13 -0.3517609148 0 -0.03483825853 -6.724890112e-13 1.335378979)
(-0.3548013766 -4.943792157e-13 0.7742216564 1.335782672e-13 -0.350987165 0 -0.04770967605 -2.861514617e-13 1.341052044)
(-0.3628453964 -5.055662309e-13 1.023433306 1.612211236e-13 -0.3524989449 0 -0.06026146818 9.141561113e-14 1.348321357)
(-0.3710141875 -5.282822084e-13 1.300934853 2.587748798e-13 -0.3547953928 0 -0.07232091183 7.348898222e-14 1.356986223)
(-0.3804335425 -2.483741275e-13 1.617018008 2.736405175e-13 -0.3576766439 0 -0.08387268063 2.272687395e-13 1.366760125)
(-0.3909235617 -1.02799449e-13 1.984868256 2.580317575e-13 -0.3610528789 0 -0.09495315997 6.020679948e-14 1.37733509)
(-0.4020856678 -3.4692888e-13 2.421809355 2.375999109e-13 -0.364835096 2.397067081e-12 -0.1054567829 -1.168525125e-13 1.388429654)
(-0.4136259504 -3.707266376e-13 2.95025956 2.72409045e-13 -0.3689283074 -2.205113534e-12 -0.1153820988 3.519402287e-14 1.399684047)
(-0.4254090393 -1.246336174e-13 3.599121863 2.614092928e-13 -0.3732587856 0 -0.1247857379 1.106815526e-13 1.410645854)
(-0.4372242665 -2.575367609e-14 4.405203663 2.482048406e-13 -0.3777697006 0 -0.1337284681 4.987464097e-14 1.42085791)
(-0.4487154185 -7.00039168e-14 5.414415099 2.285337449e-13 -0.3824001148 0 -0.1422973071 -2.164037116e-14 1.429883535)
(-0.4594765368 -2.876548867e-13 6.682819765 2.26004044e-13 -0.3870809091 1.733544128e-12 -0.1505982954 -1.298873523e-13 1.437305883)
(-0.4691413614 -3.842884617e-13 8.277644295 2.341360374e-13 -0.3917378637 0 -0.1587298312 -1.297613656e-13 1.44267777)
(-0.4774139407 -2.647684847e-13 10.27838642 2.423008176e-13 -0.3962987881 -1.595601525e-12 -0.1667601528 -1.951911267e-13 1.44547141)
(-0.4839276255 -1.969589569e-13 12.77806164 2.369891751e-13 -0.4006963579 0 -0.1747263403 -2.121469878e-13 1.445057074)
(-0.238763962 -7.380814826e-15 0.1386044052 5.784607518e-13 -0.3895648924 -6.547496343e-11 -0.008772269424 1.347228829e-12 1.281202046)
(-0.3191642278 2.162705303e-13 0.3256975115 2.014362148e-13 -0.3412416399 0 -0.02286542671 6.675694258e-13 1.283193863)
(-0.3188185618 -1.712414723e-13 0.5366334264 -2.27376753e-14 -0.3275507654 -6.898779112e-12 -0.03598958474 7.611291998e-13 1.287355529)
(-0.3317309116 -9.593823732e-13 0.7621434074 1.484202969e-13 -0.3270943483 0 -0.04930635026 4.542076753e-13 1.29338519)
(-0.3400865415 -6.969245542e-13 1.008350791 3.877219659e-13 -0.3288067252 0 -0.06233765226 4.64546187e-13 1.30116942)
(-0.3487612936 -2.563591037e-13 1.283184622 3.552954137e-13 -0.3313116886 0 -0.07487952017 2.044454235e-13 1.31042242)
(-0.3586840127 -4.025514205e-14 1.597091862 3.489278556e-13 -0.3344158933 0 -0.08687437446 1.077857796e-13 1.320915745)
(-0.3697380422 2.147623012e-13 1.963332667 2.793193775e-13 -0.3380144634 0 -0.09838024057 1.123041974e-13 1.332254179)
(-0.381598586 -2.421273761e-13 2.399249035 2.241398174e-13 -0.3420377585 -2.397067081e-12 -0.1093750637 1.611491644e-13 1.344099058)
(-0.393875933 -6.119750706e-13 2.927443846 2.691788982e-13 -0.3463934112 0 -0.1198128054 -4.056373965e-14 1.356074461)
(-0.406316313 -3.555645256e-13 3.576988389 2.914563379e-13 -0.3509997877 0 -0.1297142445 -1.19274311e-14 1.367727779)
(-0.4186240508 -5.74935899e-15 4.384759356 2.829911251e-13 -0.3557847208 0 -0.1391480991 3.357784393e-14 1.378573006)
(-0.4304365042 1.467847873e-13 5.396700661 2.516538903e-13 -0.3606739342 -1.821156068e-12 -0.1481969109 1.143806513e-13 1.388119306)
(-0.4413825178 3.149415553e-15 6.668946422 2.268505011e-13 -0.3655910651 1.733544128e-12 -0.1569375292 6.708737036e-14 1.395882771)
(-0.4511118553 -7.382893079e-14 8.268872351 2.203633293e-13 -0.3704593181 0 -0.16543201 -1.962172204e-14 1.401368414)
(-0.4593453617 -8.167487743e-14 10.27619687 2.087994184e-13 -0.3752043038 0 -0.1737215726 -1.135643208e-13 1.404036195)
(-0.4656226094 -2.466271463e-13 12.78416328 2.053906184e-13 -0.3797592666 0 -0.1818791034 -9.648805085e-14 1.403295738)
(-0.4691519071 -3.074851758e-13 15.90103538 2.121877999e-13 -0.3840409917 0 -0.1900381418 -1.105027712e-13 1.39850938)
(-0.4692608664 -2.265636831e-13 19.75206501 2.155354384e-13 -0.3879455245 0 -0.1982341961 -1.529112005e-13 1.388829531)
(-0.4652289533 -1.523563493e-13 24.48119025 2.13638641e-13 -0.3913735424 0 -0.2063995704 -1.693761832e-13 1.373250272)
(-0.4559116584 -1.109716736e-13 30.25240931 2.088754302e-13 -0.3942087424 0 -0.2145433322 -1.649547804e-13 1.350691267)
(-0.4402124995 -7.626166749e-14 37.25142831 2.080120079e-13 -0.3963103127 1.356715262e-12 -0.2226081955 -1.990272538e-13 1.319922403)
(-0.4170310428 -4.561599181e-14 45.68668008 2.003860785e-13 -0.3975348761 0 -0.2304536556 -1.71129579e-13 1.279671843)
(-0.3851298064 -3.544402895e-14 55.78984538 1.939830973e-13 -0.3977238312 0 -0.2379529817 -1.226885289e-13 1.22872529)
(-0.3434565618 -3.650044768e-14 67.81611087 1.893309727e-13 -0.3967120681 0 -0.2448911954 -8.69116433e-14 1.165911575)
(-0.2910404545 -5.735275694e-14 82.04364081 1.844518604e-13 -0.3943376926 0 -0.2510798273 -9.46728091e-14 1.090256645)
(-0.2272023828 1.605310304e-14 98.77280389 1.811697027e-13 -0.3904401719 0 -0.2563024739 -9.795732556e-14 1.000979399)
(-0.1515722532 1.039829713e-13 118.3245244 1.720841003e-13 -0.3848791147 0 -0.2603117792 -1.15146482e-13 0.8976448432)
(-0.06400490485 1.569004619e-13 141.0382579 1.657898257e-13 -0.377530413 0 -0.2628781213 -1.426455013e-13 0.7802182924)
(0.03515309455 2.000310698e-13 167.2693922 1.579797168e-13 -0.3682957307 1.230199468e-12 -0.263742147 -1.392078761e-13 0.6490570459)
(0.1451342422 1.161656969e-13 197.3858391 1.480547997e-13 -0.3571108312 0 -0.26272424 -1.41669136e-13 0.5050313885)
(0.2646399322 8.068107855e-14 231.7650094 1.437361911e-13 -0.3439473622 0 -0.2596708243 -1.281923371e-13 0.3494739167)
(0.391907368 1.554599107e-13 270.7898034 1.366369751e-13 -0.3288231079 0 -0.2544280545 -1.193317768e-13 0.1843071862)
(0.5248214388 1.743432731e-13 314.8446017 1.297129797e-13 -0.3117982418 0 -0.2469337085 -1.142481493e-13 0.01196775404)
(0.6607025709 1.881018296e-13 364.3118124 1.247027081e-13 -0.2929782965 0 -0.2371802701 -1.061309788e-13 -0.1646916947)
(0.7962990843 2.459851309e-13 419.5667547 1.168759307e-13 -0.2725187377 0 -0.2252020088 -9.892054542e-14 -0.3422612297)
(0.9280420117 3.081601335e-13 480.9734288 1.097432911e-13 -0.250626164 0 -0.2111235538 -9.413671983e-14 -0.5167907371)
(1.052089122 2.829010807e-13 548.8822519 1.021089453e-13 -0.2275515149 0 -0.1951352582 -9.311953655e-14 -0.6839627675)
(1.164212005 3.530555391e-13 623.6264308 9.630153264e-14 -0.2035897375 6.012973745e-13 -0.1774928709 -9.723282834e-14 -0.8392031321)
(1.259884105 2.98369365e-13 705.5182029 8.584159574e-14 -0.1790778679 0 -0.1585170336 -8.052298866e-14 -0.9775528754)
(1.334349402 3.813357506e-13 794.8466094 8.246975467e-14 -0.1543915243 -6.032073484e-13 -0.1385886307 -6.357031909e-14 -1.09376585)
(1.382656697 5.442200601e-13 891.875591 7.056817938e-14 -0.1299411288 0 -0.1181424125 -6.36763196e-14 -1.182379659)
(1.399695209 4.917059343e-13 996.8426707 6.308192279e-14 -0.1061680844 3.032670842e-13 -0.09765593473 -7.406681075e-14 -1.23776423)
(1.380318195 5.542483949e-13 1109.958945 5.379556619e-14 -0.08354076693 0 -0.07764632057 -6.363752212e-14 -1.254171863)
(1.319608625 4.36577878e-13 1231.410223 4.461378074e-14 -0.06254802055 0 -0.05866901017 -5.350539182e-14 -1.225830512)
(1.212917426 5.822972101e-13 1361.358596 3.99449741e-14 -0.04368900006 3.069692569e-13 -0.04130444165 -4.325373452e-14 -1.14699287)
(1.053412852 7.105784536e-13 1499.947028 2.741580786e-14 -0.0274679583 0 -0.02614018429 -3.030442059e-14 -1.011877158)
(0.8260129684 5.726085663e-13 1647.314113 1.972699185e-14 -0.01445091812 0 -0.01382062889 2.949355368e-14 -0.814697937)
(0.5227576831 6.060079261e-13 1803.637895 1.197781559e-14 -0.005408423762 0 -0.005174796607 -1.033629545e-14 -0.5496962772)
(0.2550620109 6.452241041e-13 1969.27426 4.062274094e-15 -0.0009632010135 0 -0.0009144515449 -3.29884331e-15 -0.2109917361)
(-0.2204671885 5.452065954e-13 0.1359896866 5.367995888e-12 -0.3596040696 0 -0.009028710538 9.560087413e-14 1.231288691)
(-0.2950105658 1.051985428e-13 0.3197527853 1.31650516e-12 -0.3150557148 0 -0.02351369397 2.483401018e-13 1.233375749)
(-0.2952441492 3.194524954e-14 0.5272020282 9.280340066e-13 -0.3026264707 0 -0.03698402396 4.711213145e-13 1.237765512)
(-0.3078360718 -2.226546023e-14 0.7492747774 5.800759936e-13 -0.3024705379 -5.066079466e-12 -0.05073127983 4.144402415e-13 1.24418258)
(-0.3164523243 -1.319136362e-14 0.992285678 5.217432067e-13 -0.3043552685 4.051298909e-12 -0.06418575667 -1.12719445e-13 1.252455447)
(-0.3256740463 1.113385941e-13 1.264263442 3.885783564e-13 -0.3070470806 0 -0.07715657698 -1.084315173e-13 1.262268817)
(-0.3361839766 -8.574878298e-14 1.575797396 3.322777712e-13 -0.3103732486 2.965162856e-12 -0.08957637986 -1.778971795e-13 1.273404296)
(-0.3477610725 -2.095518992e-13 1.940325452 3.109282678e-13 -0.3142026361 0 -0.1014653543 2.894674302e-15 1.285490389)
(-0.3602012528 -2.583089779e-14 2.375223617 3.043151568e-13 -0.318457511 -2.397067081e-12 -0.1128831284 1.68175331e-13 1.298098011)
(-0.3731269891 -4.49160742e-14 2.903218239 2.562583111e-13 -0.3230589569 0 -0.1237835937 -3.802810117e-14 1.310806924)
(-0.3861775789 -2.763966258e-13 3.553524666 2.594061564e-13 -0.3279204772 2.051211615e-12 -0.1341679619 -2.118077788e-13 1.323148589)
(-0.3990095043 -2.894933545e-13 4.363136036 2.604270487e-13 -0.332961294 1.925467854e-12 -0.1440806955 -2.139907226e-13 1.334610704)
(-0.4112350194 -1.317163992e-13 5.378074604 2.605462539e-13 -0.3380993686 0 -0.1535807638 -6.92774372e-14 1.344667018)
(-0.4224752036 2.562516592e-15 6.654535394 2.446261e-13 -0.3432515407 0 -0.1627297316 5.931117916e-14 1.352793627)
(-0.432426348 1.121247811e-14 8.259995941 2.292750816e-13 -0.348336618 0 -0.1715689395 5.435279521e-14 1.358462424)
(-0.4407531805 -1.003908322e-13 10.27430409 2.142531345e-13 -0.3532818746 0 -0.1801357819 9.121526775e-14 1.361141199)
(-0.4468643116 -2.020182836e-13 12.7908511 2.136664309e-13 -0.3580118245 -3.081611623e-12 -0.1885549115 1.12435466e-13 1.360303378)
(-0.4501058319 -1.500426315e-13 15.91830744 2.121877999e-13 -0.3624332027 0 -0.1969148291 2.839497326e-14 1.355322051)
(-0.4499949547 -1.050383533e-13 19.78244019 2.084454569e-13 -0.3664500397 0 -0.2051614087 -2.772162379e-14 1.345390164)
(-0.4457786949 -5.982929832e-14 24.52751575 2.039592204e-13 -0.3699711802 0 -0.2132921589 -6.133618408e-14 1.329600258)
(-0.4363842773 1.229160507e-15 30.31795986 1.973839017e-13 -0.3728825329 0 -0.2213175765 -7.909305302e-14 1.306979496)
(-0.4208609741 -5.347671365e-14 37.33990068 1.881382492e-13 -0.3750544248 0 -0.2291132209 -9.393722244e-14 1.276405601)
(-0.3981471337 -1.126040758e-13 45.80192584 1.867233913e-13 -0.3763542602 0 -0.2365856409 -9.697410653e-14 1.236741263)
(-0.3671735737 -6.202392464e-14 55.93576395 1.837397654e-13 -0.3766331379 0 -0.2436250696 -1.013056389e-13 1.186853893)
(-0.3270022872 -1.995864004e-14 67.99646233 1.779711143e-13 -0.3757437668 0 -0.2500278708 -1.085953581e-13 1.125693088)
(-0.2766990146 -5.546262194e-15 82.26191085 1.719888969e-13 -0.3735366302 0 -0.2556125456 -1.261113031e-13 1.052396552)
(-0.215663581 3.414744636e-14 99.03193819 1.694614566e-13 -0.3698655752 1.262025684e-12 -0.2601457852 -1.601058439e-13 0.9662629369)
(-0.1435385199 1.078743623e-13 118.6265714 1.611000088e-13 -0.3646025292 0 -0.2634296006 -1.376776967e-13 0.8669230295)
(-0.06026973175 8.074997863e-14 141.3842368 1.542934509e-13 -0.3576338149 1.239188186e-12 -0.2652688143 -1.235085987e-13 0.7543326315)
(0.03380336942 3.794863891e-14 167.6590672 1.483687835e-13 -0.3488741055 0 -0.2654264285 -7.534043266e-14 0.628872587)
(0.1380326665 6.795134169e-14 197.8176039 1.432788384e-13 -0.3382655147 0 -0.2637261993 -5.790795205e-14 0.4913786968)
(0.2511568788 1.024136603e-13 232.2355744 1.389845815e-13 -0.3257835197 0 -0.26002217 -6.88018465e-14 0.3430815583)
(0.3715106231 1.360085042e-13 271.2939795 1.324964607e-13 -0.3114485499 0 -0.2542023866 -6.916483617e-14 0.1857986112)
(0.4971463946 1.6783632e-13 315.3755074 1.26175353e-13 -0.2953189941 0 -0.2462115035 -6.203265022e-14 0.02181013773)
(0.625523797 2.005107508e-13 364.86064 1.194087252e-13 -0.2774952871 0 -0.2360446516 -6.391761353e-14 -0.1462161779)
(0.7536199121 2.372987008e-13 420.1224388 1.133520333e-13 -0.2581258557 0 -0.2237366597 -6.131588412e-14 -0.315049011)
(0.8781348363 2.780478967e-13 481.5228253 1.06222116e-13 -0.237404476 0 -0.2094265468 -5.442520998e-14 -0.4809944503)
(0.9954427043 3.211025348e-13 549.4104479 9.800111415e-14 -0.2155669532 0 -0.1933063197 -4.263144192e-14 -0.6400456494)
(1.101560841 3.172096883e-13 624.1165829 9.101669243e-14 -0.192890716 0 -0.175624952 -5.265582787e-14 -0.7878728678)
(1.1922255 3.051601435e-13 705.9513774 8.378374927e-14 -0.1696927961 0 -0.1566936537 -3.019815765e-14 -0.9197906483)
(1.262941464 3.644543598e-13 795.2019527 7.746266242e-14 -0.1463267201 0 -0.1368814896 -6.410176333e-14 -1.030835)
(1.308997759 4.911514836e-13 892.1304274 6.938712198e-14 -0.1231792415 -3.023506932e-13 -0.1166071017 -3.081032091e-14 -1.115822159)
(1.325525123 5.166472295e-13 996.9725509 5.982417091e-14 -0.1006673625 3.032670842e-13 -0.09632870594 -3.121945722e-14 -1.169375572)
(1.307627939 4.792322797e-13 1109.937862 5.156646814e-14 -0.07923397982 0 -0.07655441884 -2.038285752e-14 -1.185998833)
(1.250623153 5.073421629e-13 1231.210906 4.356931095e-14 -0.05934186692 0 -0.05782299422 -7.91953999e-15 -1.160197062)
(1.15005031 5.284258877e-13 1360.95233 3.574812879e-14 -0.04146394511 0 -0.04069728367 -7.832731331e-14 -1.08648793)
(0.999336315 3.555816363e-13 1499.30343 2.801835309e-14 -0.02607917777 0 -0.02575180884 6.228078882e-15 -0.9592982411)
(0.7840334393 5.898677614e-13 1646.40129 2.525509321e-14 -0.01372641964 0 -0.01361330246 5.435279873e-15 -0.7730005409)
(0.4964895345 8.194420983e-13 1802.422209 1.220632718e-14 -0.005140639847 0 -0.005096736725 2.397913603e-15 -0.521994609)
(0.2424734052 6.57333571e-13 1967.718899 4.131735149e-15 -0.0009164704022 0 -0.000900586794 6.682919381e-16 -0.2005559617)
(-0.2017158802 -3.980410506e-13 0.1332716935 1.224858172e-12 -0.3288422839 0 -0.009225065565 -7.024807583e-13 1.179970328)
(-0.2702371654 -4.688659956e-13 0.3135201712 7.627262777e-13 -0.2882002943 0 -0.02402982984 -4.314023739e-13 1.182145828)
(-0.2709851225 -3.969249066e-13 0.5172001841 6.214964581e-13 -0.2770586724 0 -0.03786889598 -4.235076299e-13 1.186774498)
(-0.2832437117 1.653386164e-13 0.7356162441 5.565761133e-13 -0.2771756142 0 -0.05201864188 -2.553464911e-13 1.193572821)
(-0.2921445148 1.757174248e-13 0.9752880604 3.021659709e-13 -0.2792357486 0 -0.06580874285 -3.016577373e-13 1.202291684)
(-0.3018415524 -1.267116408e-13 1.244279206 2.862333075e-13 -0.282111369 0 -0.07912919746 -1.841989442e-13 1.212653521)
(-0.3129157517 -2.769525778e-13 1.553241556 2.511990994e-13 -0.2856412467 0 -0.09196968906 -1.145946692e-13 1.224378082)
(-0.3250237929 -4.479207045e-13 1.915889621 2.812546157e-13 -0.2896950401 0 -0.1042457382 -9.231305015e-14 1.237152731)
(-0.3379780348 -1.291716341e-13 2.349740373 2.95536835e-13 -0.294172672 0 -0.1160264755 -1.014524078e-13 1.250496767)
(-0.3514906647 1.422810258e-13 2.877573939 2.530281643e-13 -0.2990038769 0 -0.1273367629 -1.625842209e-14 1.263926861)
(-0.3651322803 -1.165105474e-14 3.528747803 2.188426455e-13 -0.3041047959 0 -0.1381534898 -4.947834644e-14 1.276940238)
(-0.378487148 -3.111255243e-13 4.340369495 2.14358726e-13 -0.3093879219 0 -0.1484998651 -9.882570902e-14 1.289001475)
(-0.3911472786 -4.278130029e-13 5.358530996 2.303122176e-13 -0.314763784 0 -0.1584246259 -1.422609683e-13 1.29955868)
(-0.4027681366 -2.533113781e-13 6.639501536 2.429331859e-13 -0.3201440558 1.733544128e-12 -0.1679610626 -1.124811423e-13 1.308060121)
(-0.4130400433 -1.462843884e-13 8.250810498 2.341360374e-13 -0.3254480431 0 -0.177137818 -7.946049807e-14 1.313970301)
(-0.4214840308 -2.101194794e-13 10.2723137 2.313933853e-13 -0.3305991046 -1.595601525e-12 -0.1860497492 -3.755488774e-14 1.316798184)
(-0.4275122184 -9.769631879e-14 12.79762219 2.309704024e-13 -0.3355080124 0 -0.1947976862 -5.878081708e-14 1.316043722)
(-0.4307257635 1.500988856e-14 15.93581652 2.187503092e-13 -0.3400813243 0 -0.2033771106 -7.165387678e-14 1.311064366)
(-0.4306506737 -1.6420508e-14 19.81301078 2.09154455e-13 -0.3442368028 0 -0.2117334048 -7.343257148e-14 1.301119689)
(-0.4264213857 -2.991262361e-14 24.57379029 2.018850588e-13 -0.3478822495 0 -0.2199021249 -6.95131589e-14 1.285418942)
(-0.4171991672 -3.137990004e-14 30.38296642 1.933280681e-13 -0.3509045777 0 -0.227874205 -5.890587983e-14 1.263036783)
(-0.4021532902 -3.233367385e-14 37.42697079 1.881382492e-13 -0.3531909268 0 -0.2355186047 -3.776047745e-14 1.232959457)
(-0.3801800842 -2.682598482e-14 45.9146196 1.834703705e-13 -0.3546160687 0 -0.2427503286 -5.605471024e-14 1.194188813)
(-0.350361696 -5.209194405e-15 56.07773743 1.766974747e-13 -0.3550398976 0 -0.2494290747 -6.684594095e-14 1.145674008)
(-0.3118764364 2.943751491e-14 68.17116647 1.710289787e-13 -0.3543293484 0 -0.2553991955 -7.302576046e-14 1.086464452)
(-0.2638972825 8.18636576e-14 82.47248178 1.645111188e-13 -0.3523470766 0 -0.2605001958 -7.575853934e-14 1.015770229)
(-0.2058526368 4.477369068e-14 99.28099977 1.559045401e-13 -0.3489626722 0 -0.2644988981 -8.377074848e-14 0.9329862469)
(-0.1373398291 2.394427067e-15 118.9160533 1.519465992e-13 -0.3440572797 0 -0.267208801 -7.699684074e-14 0.8378054806)
(-0.0583954522 -2.19161462e-14 141.7151067 1.47637655e-13 -0.3375259373 0 -0.2684342358 -6.134881319e-14 0.7301705402)
(0.03061660714 1.176846586e-14 168.0310278 1.465667335e-13 -0.3292940245 6.15099734e-13 -0.2679871074 -6.450639132e-14 0.6104619132)
(0.1291185758 9.834679059e-14 198.2291097 1.390998723e-13 -0.3193104027 0 -0.2657074157 -7.00849513e-14 0.4794742235)
(0.2359404611 1.139643871e-13 232.6835408 1.330450695e-13 -0.3075548064 0 -0.2614385309 -7.084372274e-14 0.3383737782)
(0.3495419066 1.343616562e-13 271.773573 1.277644442e-13 -0.2940481937 0 -0.2551002749 -6.892466796e-14 0.1888609102)
(0.4680991333 1.5844756e-13 315.8802981 1.220481218e-13 -0.2788465251 0 -0.2466541794 -6.554178116e-14 0.03305344857)
(0.5891937187 1.855984466e-13 365.3822764 1.158794033e-13 -0.2620453045 0 -0.2360968856 -6.144981194e-14 -0.1265456632)
(0.7100338071 2.150351712e-13 420.6504904 1.098281359e-13 -0.2437860891 0 -0.2234755201 -5.573780787e-14 -0.2868739277)
(0.8275831546 2.462736469e-13 482.0451436 1.027009409e-13 -0.224249893 0 -0.2089242156 -4.857866947e-14 -0.4444849045)
(0.9384163548 2.780929469e-13 549.9130767 9.62406151e-14 -0.203657746 0 -0.1926328487 -4.00814091e-14 -0.5956736289)
(1.03878344 3.087852538e-13 624.5835569 8.98422835e-14 -0.1822701698 0 -0.1748479946 -3.125191215e-14 -0.7363394688)
(1.124672541 3.412654733e-13 706.3648065 8.231385893e-14 -0.1603849135 0 -0.1558754845 -3.532982664e-14 -0.8620591587)
(1.191832534 3.799695001e-13 795.5420992 7.481184888e-14 -0.1383342516 0 -0.1360750138 -4.091696132e-14 -0.9681401439)
(1.235784441 4.26913322e-13 892.375709 6.732027154e-14 -0.1164823651 0 -0.1158483784 -3.873345256e-14 -1.04966209)
(1.25192213 4.526259265e-13 997.0996704 5.923185239e-14 -0.09522275133 0 -0.09565085387 -2.002176983e-14 -1.101495484)
(1.235599901 4.665560261e-13 1109.922151 5.141786161e-14 -0.07497305462 0 -0.07598306115 -2.204392688e-14 -1.118426987)
(1.182334004 6.630503427e-13 1231.026408 4.371852092e-14 -0.05617076391 0 -0.05737574433 -2.615139748e-14 -1.095239248)
(1.087858564 5.186169036e-13 1360.571524 3.117656515e-14 -0.03926368078 3.069692569e-13 -0.0403754118 -3.438194124e-14 -1.02664625)
(0.9458594254 3.8216409e-13 1498.697072 2.816898939e-14 -0.02470591529 0 -0.02554723587 -2.386931619e-14 -0.9072964574)
(0.7425219999 5.882524158e-13 1645.538594 2.029494747e-14 -0.01301006925 0 -0.01350472276 -6.457625656e-14 -0.7317687306)
(0.4705167829 6.25614566e-13 1801.270665 1.221584849e-14 -0.004875874545 0 -0.005056104031 -9.008526774e-15 -0.4946060237)
(0.2300266915 6.580578059e-13 1966.242926 4.126944731e-15 -0.0008702662339 0 -0.000893404031 -2.968737411e-15 -0.1902385961)
(-0.182601219 -1.445527461e-13 0.130430995 6.434002144e-13 -0.2975608751 0 -0.009383898746 -2.489227366e-13 1.127431425)
(-0.2448538126 -2.974645019e-13 0.3069485789 3.434658171e-13 -0.2608500885 0 -0.02447875102 -7.605941233e-13 1.129730402)
(-0.2460493358 -3.143560915e-13 0.5066474415 3.494864907e-13 -0.2509263144 0 -0.03865896626 -3.932923672e-13 1.134625692)
(-0.2580437293 -2.012044391e-13 0.7212608421 3.296167426e-13 -0.2512850609 0 -0.05312616479 -3.359056522e-13 1.141763859)
(-0.267263251 -1.659057625e-13 0.9574024411 2.878242145e-13 -0.2535308518 0 -0.06722370214 -8.973980505e-14 1.150885087)
(-0.2773201647 -2.286625924e-13 1.223249247 2.708399465e-13 -0.256588883 0 -0.08086365402 -1.205873464e-13 1.16176809)
(-0.2888967877 -2.537059438e-13 1.529529375 2.692970172e-13 -0.260295437 0 -0.09406133065 7.658509398e-14 1.174044311)
(-0.3016088767 -2.316975252e-13 1.890142943 2.67062869e-13 -0.2645591496 0 -0.1067156518 -2.042942691e-14 1.187405742)
(-0.3150647547 -1.828839908e-13 2.322866373 2.615939905e-13 -0.2692595718 0 -0.1188332585 -7.606044687e-14 1.201414096)
(-0.3290614327 -1.386944273e-13 2.850577795 2.508747331e-13 -0.2743091209 0 -0.1304886415 2.190579769e-14 1.215522019)
(-0.3432350986 -1.075776157e-13 3.502710594 2.388740089e-13 -0.2796324456 0 -0.1416901329 1.705378718e-13 1.22917203)
(-0.3570976594 -9.806504062e-14 4.316478907 2.279911888e-13 -0.2851414361 0 -0.1524403082 7.26044401e-14 1.241801663)
(-0.370236617 -1.080109557e-13 5.338068921 2.187521449e-13 -0.2907412348 0 -0.1627536954 -6.376890215e-14 1.252837757)
(-0.382307182 -1.324201114e-13 6.623776838 2.124607305e-13 -0.2963435301 1.733544128e-12 -0.1726567106 -1.874288931e-13 1.261718987)
(-0.3928604392 -1.531857747e-13 8.241086115 2.082109398e-13 -0.3018643424 0 -0.1822191892 -1.724826907e-13 1.267944533)
(-0.4013905837 -1.425376801e-13 10.26990708 2.049039068e-13 -0.3072122596 -1.595601525e-12 -0.1915378804 -1.952246619e-13 1.271045108)
(-0.407514995 -1.251106823e-13 12.80412123 2.016288855e-13 -0.3122954766 0 -0.2006285117 -2.500344124e-13 1.270491619)
(-0.4109238734 -1.167999901e-13 15.95311447 1.968752783e-13 -0.3170308824 0 -0.2094339385 -2.11061216e-13 1.265671604)
(-0.4110400443 -1.103994594e-13 19.84320014 1.928474975e-13 -0.3213411836 0 -0.2179674325 -1.487779442e-13 1.255922493)
(-0.4070123516 -9.507249015e-14 24.61932048 1.894400894e-13 -0.3251320836 0 -0.2262616067 -1.114720655e-13 1.240543889)
(-0.3981768507 -7.701528943e-14 30.44670441 1.858923732e-13 -0.3282954637 0 -0.2342290039 -8.828037117e-14 1.218666725)
(-0.3837827027 -5.84225107e-14 37.51195669 1.808512043e-13 -0.330729538 0 -0.2417982328 -7.36284039e-14 1.189370326)
(-0.3628289772 -3.915061306e-14 46.02408508 1.763137249e-13 -0.3323171219 0 -0.2488954937 -6.667350599e-14 1.151747554)
(-0.3344611786 -1.83597219e-14 56.21502614 1.715758088e-13 -0.332932323 0 -0.2553344942 -6.225816036e-14 1.104861079)
(-0.2978397074 3.360131716e-15 68.33948085 1.659801527e-13 -0.3324505432 0 -0.2609875108 -5.737760103e-14 1.047870481)
(-0.2522925423 2.359686887e-14 82.67472799 1.607722297e-13 -0.330743098 0 -0.2657048012 -4.949013634e-14 0.9800248826)
(-0.1973484921 3.677000683e-14 99.51954576 1.546720931e-13 -0.3276940176 0 -0.2692846425 -3.476077668e-14 0.9007857839)
(-0.1326189768 4.491010766e-14 119.1926483 1.4950569e-13 -0.323195058 0 -0.2715452607 -5.02724127e-14 0.8098906656)
(-0.05812073773 4.624667291e-14 142.0306316 1.434021485e-13 -0.3171519705 0 -0.272271921 -6.383978495e-14 0.7073182902)
(0.02584120566 6.336387926e-14 168.3851891 1.405599001e-13 -0.3094961336 6.15099734e-13 -0.2713177035 -1.040983167e-13 0.59343699)
(0.1186436641 8.639522732e-14 198.6204332 1.331299207e-13 -0.3001811143 0 -0.2685476158 -8.533678356e-14 0.4689636739)
(0.2192052177 9.879659024e-14 233.1091109 1.28887411e-13 -0.2891927308 0 -0.263801421 -7.426360638e-14 0.3350339351)
(0.3261680003 1.197133157e-13 272.2289011 1.236239299e-13 -0.2765508045 0 -0.2570152823 -6.784346098e-14 0.1932371329)
(0.4377900299 1.444916687e-13 316.3593934 1.185104951e-13 -0.262308032 0 -0.2481620902 -6.500240528e-14 0.04550976182)
(0.5517824387 1.692787793e-13 365.8772967 1.11761861e-13 -0.2465554499 0 -0.2372377573 -6.590080235e-14 -0.1057855152)
(0.6655628731 1.955562318e-13 421.151665 1.057169222e-13 -0.2294267432 0 -0.2243076331 -5.52219944e-14 -0.2577781166)
(0.7763194073 2.263357952e-13 482.5411354 1.003534908e-13 -0.2110914711 0 -0.2094996708 -4.444875358e-14 -0.4072522213)
(0.8808503965 2.628536269e-13 550.3908145 9.330645e-14 -0.1917564293 0 -0.1930000294 -3.04424748e-14 -0.5507513712)
(0.9756399688 3.016155102e-13 625.0280113 8.661265893e-14 -0.1716654652 0 -0.175053885 -3.593348965e-14 -0.6844229168)
(1.056913665 3.389630279e-13 706.7591033 7.996203439e-14 -0.1510974461 0 -0.1559630302 -3.993335246e-14 -0.8041025158)
(1.120637765 3.761460122e-13 795.8675591 7.216103534e-14 -0.1303640533 0 -0.136078397 -4.495825041e-14 -0.9053583216)
(1.162593077 4.145946858e-13 892.6118574 6.495815675e-14 -0.1098080496 0 -0.1157936496 -4.204756928e-14 -0.9835076373)
(1.178444803 4.561674013e-13 997.2244491 5.745489682e-14 -0.08979905032 0 -0.0955667378 -3.43264752e-14 -1.033702267)
(1.163777607 5.023935663e-13 1109.91218 4.918876356e-14 -0.07073021194 0 -0.07588982068 -3.373540779e-14 -1.05103939)
(1.11430433 5.548330441e-13 1230.856841 4.088353151e-14 -0.05301393715 0 -0.0572906689 -3.630792698e-14 -1.030525642)
(1.025938205 5.184968766e-13 1360.215977 3.215083281e-14 -0.03707362535 0 -0.04031007787 -3.047164221e-15 -0.9670665948)
(0.8926299387 4.784825481e-13 1498.127644 2.538221772e-14 -0.0233390765 0 -0.02550397297 -3.317652933e-14 -0.8555357203)
(0.7012051814 5.243108185e-13 1644.725673 1.847748949e-14 -0.01229706298 0 -0.01348245373 -2.241275497e-14 -0.6907309234)
(0.4446653069 5.678763199e-13 1800.182788 1.125419557e-14 -0.00461233627 0 -0.005048555774 -1.238797915e-14 -0.4673453519)
(0.2176376877 6.071435966e-13 1964.845729 3.825148425e-15 -0.0008242768377 0 -0.0008922780537 -3.906682421e-15 -0.1799681376)
(-0.163108046 9.103681405e-13 0.1273975 -4.510794981e-13 -0.2657308565 0 -0.009556407039 6.505501404e-15 1.073946914)
(-0.2189509891 -5.076748749e-13 0.299981037 -9.539199731e-13 -0.2329820077 0 -0.02493484813 7.120668122e-14 1.076372724)
(-0.2206401218 -1.068234868e-12 0.495564612 8.463468027e-14 -0.22427988 0 -0.03936425322 1.405650062e-13 1.081500039)
(-0.2323381228 -4.094125817e-13 0.7062675908 2.257225348e-13 -0.2249003531 0 -0.05404203047 -1.359201655e-14 1.088932268)
(-0.2418146778 -1.751649271e-13 0.9387107528 2.324353622e-13 -0.2273185518 0 -0.06841185247 -3.827203413e-14 1.098433195)
(-0.2522309048 -4.623021873e-13 1.201277173 2.096825392e-13 -0.230547163 0 -0.08233296175 -3.487131362e-14 1.109773393)
(-0.264240047 -4.338968728e-13 1.504825005 2.931862687e-13 -0.2344245291 0 -0.0958020849 -4.293591824e-14 1.122558696)
(-0.2775023929 -1.589717531e-13 1.863298462 2.715784248e-13 -0.2388753413 0 -0.1088150858 -4.132390315e-14 1.136429428)
(-0.2915066821 -2.255657232e-13 2.294757723 2.633496549e-13 -0.2437845912 0 -0.1212982233 -2.080585937e-14 1.15098089)
(-0.3059672437 -3.531143464e-13 2.822318509 2.616418891e-13 -0.24904737 0 -0.1332804913 -1.121131543e-13 1.165669943)
(-0.3205872301 -9.555684145e-14 3.475493454 2.779351676e-13 -0.2545806208 0 -0.144816511 -9.155670998e-14 1.179892097)
(-0.3349371823 1.761276004e-13 4.291553485 2.378629723e-13 -0.2602991643 0 -0.1559247098 -7.017644114e-14 1.193039352)
(-0.3485587217 1.190942796e-13 5.316723324 2.11638254e-13 -0.2661115543 0 -0.1666091223 -5.50542462e-14 1.204528384)
(-0.3609834057 -2.917962442e-14 6.607255285 1.904528461e-13 -0.2719246489 1.733544128e-12 -0.1769187643 -3.859581129e-14 1.213821999)
(-0.371739048 -1.267915126e-13 8.230617506 1.895772759e-13 -0.2776426649 0 -0.1869272448 -4.042891631e-14 1.220432371)
(-0.3804548622 -3.532133351e-14 10.26686586 1.823099399e-13 -0.2831705193 -1.595601525e-12 -0.1966543428 -4.127851718e-14 1.223868573)
(-0.3868782145 -6.736955112e-14 12.81007696 1.737920617e-13 -0.2884232498 0 -0.2060679099 -4.35096474e-14 1.223599808)
(-0.3906133614 -2.205091414e-13 15.96980062 1.713544089e-13 -0.2933268655 0 -0.2151318492 -4.45304422e-14 1.219068772)
(-0.3909847816 -2.496289716e-13 19.87254357 1.772495382e-13 -0.2977998151 0 -0.223897946 -4.843734645e-14 1.209707212)
(-0.387371653 -1.743416517e-13 24.66359895 1.783778944e-13 -0.3017464242 0 -0.232368974 -5.089685769e-14 1.194836677)
(-0.379190218 -1.234619776e-13 30.50855026 1.764287615e-13 -0.305074095 0 -0.2404086964 -5.157553922e-14 1.173672875)
(-0.3655999827 -8.575281053e-14 37.59419984 1.735641595e-13 -0.3076842064 0 -0.247977542 -5.121631729e-14 1.145409545)
(-0.3458171132 -5.555231829e-14 46.12970364 1.711088917e-13 -0.309464141 0 -0.2550043682 -5.237139809e-14 1.10918417)
(-0.3190934134 -2.92788986e-14 56.34701486 1.664541429e-13 -0.3103044334 0 -0.2613157428 -5.33229027e-14 1.064157771)