/*--------------------------------*- C++ -*----------------------------------*\
  =========                 |
  \\      /  F ield         | OpenFOAM: The Open Source CFD Toolbox
   \\    /   O peration     | Website:  https://openfoam.org
    \\  /    A nd           | Version:  7
     \\/     M anipulation  |
\*---------------------------------------------------------------------------*/
FoamFile
{
    version     2.0;
    format      ascii;
    class       volScalarField;
    location    "0.0009";
    object      p;
}
// * * * * * * * * * * * * * * * * * * * * * * * * * * * * * * * * * * * * * //

dimensions      [1 -1 -2 0 0 0 0];

internalField   nonuniform List<scalar> 
1167
(
339944.8105
341356.886
341326.4405
341555.4973
341972.0609
342498.1329
343123.3659
343846.4023
344665.8441
345572.0687
346542.7314
347552.8652
348574.0515
349577.3923
350535.9903
351428.9522
352243.3637
329655.2155
330989.5681
330960.6139
331174.6722
331575.7693
332075.8458
332680.3298
333377.5553
334168.1231
335042.9496
335982.6056
336962.7373
337954.8851
338929.704
339861.1099
340728.9547
341520.2829
342233.2941
342867.8909
343427.3967
343919.7282
344351.6325
344729.4522
345060.5473
345349.9037
345602.8782
345823.6431
346015.5774
346182.1807
346325.9414
346449.3365
346554.4227
346642.9508
346716.7
346777.1314
346825.5436
346863.0915
346890.9232
346910.0255
346921.2826
346925.4912
346923.3666
346915.5468
346902.603
346885.077
346863.507
346838.2764
346809.0114
346774.7738
346740.6895
319384.1435
320634.69
320604.6243
320811.4837
321194.3677
321669.811
322245.9679
322919.057
323681.1252
324525.402
325433.6683
326381.9354
327342.3933
328286.5299
329188.7438
330028.9028
330796.9372
331489.0825
332104.5734
332647.1922
333124.793
333543.0422
333908.9971
334229.2201
334508.6436
334752.8604
334965.6329
335150.6379
335311.0905
335449.4558
335568.3077
335669.5643
335754.9401
335826.1856
335884.6949
335931.6978
335968.3545
335995.7342
336014.772
336026.3051
336031.0861
336029.7877
336023.0041
336011.2759
335995.1197
335975.0476
335951.4161
335923.8601
335891.4829
335859.1668
309130.9923
310289.6016
310261.3619
310462.0832
310821.8711
311276.1983
311822.641
312469.6776
313203.8737
314016.8383
314892.4584
315807.6396
316735.1596
317646.9593
318517.5914
319329.3666
320072.9618
320742.3648
321337.1691
321862.6391
322324.6545
322728.7067
323082.5576
323391.7612
323661.4376
323896.9185
324101.8443
324280.1487
324434.6995
324567.9636
324682.4812
324780.1119
324862.5494
324931.4727
324988.2148
325033.9357
325069.8078
325096.8189
325115.8543
325127.7071
325133.0873
325132.6254
325126.8787
325116.367
325101.5766
325082.9859
325060.9329
325035.0666
325004.5297
324973.9634
298887.6599
299956.2192
299937.5753
300127.3346
300461.4526
300896.0314
301415.0846
302029.7546
302735.7963
303517.9
304359.867
305240.5109
306133.2445
307009.9992
307848.1177
308631.3675
309348.0933
309993.1289
310566.4671
311073.7676
311519.4295
311909.1868
312250.4081
312548.2329
312808.2522
313035.1002
313232.4104
313404.0819
313552.8303
313681.2344
313791.613
313885.7591
313965.4391
314032.1874
314087.2883
314131.8557
314167.0226
314193.7265
314212.8068
314225.0132
314231.0126
314231.3916
314226.6909
314217.4025
314203.9788
314186.8645
314166.3818
314142.1962
314113.4915
314084.6684
288662.8442
289640.9819
289629.7802
289806.2761
290118.1674
290527.568
291019.7947
291601.8366
292275.0861
293025.1754
293833.489
294678.1589
295533.9283
296375.3497
297180.9154
297933.4364
298621.6397
299240.7541
299792.6063
300280.546
300708.8639
301084.2433
301412.5816
301698.9366
301949.1723
302167.3089
302357.1599
302522.3095
302665.3721
302789.0694
302895.4567
302986.2658
303063.3093
303127.9886
303181.5293
303225.0281
303259.5556
303286.0029
303305.166
303317.752
303324.3849
303325.6185
303321.9757
303313.9169
303301.8637
303286.2318
303267.3236
303244.8205
303217.9503
303190.8739
278465.5681
279343.7029
279335.6906
279494.9086
279788.1101
280167.7799
280635.4531
281186.9381
281824.8694
282539.3386
283311.9733
284119.8793
284938.5308
285744.3913
286515.4226
287235.2386
287893.3655
288485.9774
289015.3257
289483.0979
289893.5996
290254.0509
290569.1065
290844.0411
291084.2677
291293.5718
291476.0292
291634.737
291772.258
291891.2916
291993.7746
292081.3781
292155.8539
292218.5299
292270.5545
292313.0427
292346.9774
292373.2031
292392.4744
292405.4556
292412.7278
292414.8333
292412.2617
292405.4421
292394.7678
292380.6277
292363.3042
292342.4955
292317.4745
292292.1597
268288.7336
269060.9642
269054.957
269199.4735
269472.7104
269821.9967
270261.6053
270782.8514
271386.6349
272064.0254
272798.4882
273568.2504
274348.8775
275116.5748
275850.9429
276536.5353
277163.1215
277729.2131
278234.6127
278681.0696
279073.8155
279418.646
279719.8977
279983.336
280213.4704
280413.972
280588.9482
280741.1822
280873.2508
280987.6635
281086.2561
281170.732
281242.6987
281303.4207
281353.9822
281395.491
281428.8573
281454.8802
281474.2726
281487.6572
281495.5806
281498.5688
281497.0792
281491.5109
281482.2298
281469.598
281453.8775
281434.7845
281411.6379
281388.1098
258134.3261
258793.0403
258786.5764
258923.3658
259172.1126
259492.376
259896.8358
260388.6472
260957.6443
261597.4063
262292.7276
263022.3021
263762.4394
264490.4104
265186.6784
265836.1225
266431.2783
266969.7425
267450.2598
267874.6727
268249.191
268577.9954
268865.2421
269116.8587
269336.6607
269528.3914
269695.7885
269841.4557
269968.1189
270077.9352
270172.6382
270254.0211
270323.5024
270382.2901
270431.4225
270471.9584
270504.7605
270530.5836
270550.095
270563.8726
270572.4568
270576.3374
270575.9402
270571.6365
270563.7668
270552.6658
270538.5734
270521.2265
270499.9914
270478.2867
247995.4994
248532.8632
248534.2795
248661.3301
248880.3361
249175.1501
249544.5618
250002.3098
250537.2727
251138.3474
251792.7718
252480.5325
253178.7827
253865.5583
254521.7757
255134.585
255698.0041
256207.3589
256661.8732
257064.3551
257419.7908
257731.8676
258005.1249
258244.5579
258453.7202
258636.6212
258796.3744
258935.4543
259056.6464
259161.8435
259252.6878
259330.9548
259397.933
259454.7446
259502.4509
259542.011
259574.2407
259599.8532
259619.4732
259633.6378
259642.8804
259647.6559
259648.3592
259645.3349
259638.8982
259629.3569
259616.929
259601.3706
259582.0951
259562.261
237870.4901
238288.2731
238302.6887
238415.2527
238603.676
238872.0529
239208.0881
239626.0828
240124.2379
240687.2106
241299.4611
241943.6075
242598.0122
243241.088
243856.4299
244432.8625
244962.7412
245441.857
245869.4899
246249.721
246585.4787
246880.2871
247139.3154
247366.3286
247564.7236
247738.5711
247890.5413
248023.0146
248138.6172
248239.1126
248326.0808
248401.182
248465.6162
248520.4159
248566.6647
248605.2186
248636.846
248662.2152
248681.9068
248696.45
248706.3418
248712.007
248713.8135
248712.0811
248707.1005
248699.1527
248688.4344
248674.7185
248657.4652
248639.5632
227769.3972
228065.5157
228085.9093
228180.171
228343.7398
228578.3295
228882.8589
229262.406
229718.2101
230239.9032
230809.7105
231408.8952
232017.4842
232616.6465
233191.3323
233729.8907
234224.9433
234672.7398
235073.621
235430.7344
235746.2186
236023.5968
236267.8235
236481.9953
236669.5704
236834.0958
236978.0048
237103.8301
237213.7546
237309.4124
237392.4607
237464.3367
237526.1709
237578.9371
237623.6661
237661.1583
237692.1338
237717.2138
237736.9343
237751.8259
237762.3462
237768.89
237771.7997
237771.3721
237767.8742
237761.5603
237752.6047
237740.7966
237725.6425
237709.7488
217693.217
217856.9218
217882.0931
217956.1659
218096.2185
218294.3778
218568.1734
218909.9597
219322.6174
219798.8561
220323.47
220876.4187
221438.7685
221993.7881
222526.3074
223025.3952
223484.6142
223900.2086
224274.0481
224607.1906
224901.5905
225161.4692
225390.4614
225591.3663
225767.9593
225922.9698
226058.6492
226177.6648
226281.7794
226372.4989
226451.5199
226520.0691
226579.1893
226629.8512
226672.9863
226709.3429
226739.5934
226764.3143
226784.0168
226799.2077
226810.3154
226817.7092
226821.7092
226822.591
226820.5993
226815.962
226808.8304
226799.01
226786.054
226772.2678
207636.6894
207660.8367
207688.4074
207749.5389
207863.5474
208026.0188
208262.5469
208567.1033
208937.178
209367.4111
209843.8595
210348.6707
210863.609
211372.0983
211860.6013
212319.0272
212740.9824
213124.7615
213470.6166
213779.0879
214051.9518
214293.8303
214507.1907
214694.5894
214859.8153
215005.0524
215132.3901
215244.3233
215342.4446
215428.1313
215502.964
215568.0532
215624.3329
215672.7956
215714.2452
215749.3783
215778.817
215803.0881
215822.7069
215838.1389
215849.7852
215857.9934
215863.0648
215865.2575
215864.7965
215861.8842
215856.649
215848.9115
215838.2709
215826.7111
197598.5006
197474.0568
197505.7711
197557.712
197641.0018
197771.1302
197966.2166
198233.2155
198559.4353
198942.1891
199369.3525
199824.1297
200289.4745
200750.1344
201193.5844
201610.0577
201994.4698
202346.0417
202662.9497
202945.8527
203197.3542
203420.5594
203617.6701
203791.462
203944.9236
204079.971
204198.8326
204303.4785
204395.3413
204475.8601
204546.35
204607.8291
204661.1479
204707.2643
204746.8912
204780.67
204809.1726
204832.8808
204852.3064
204867.8787
204879.9748
204888.9245
204895.0155
204898.4934
204899.5683
204898.4211
204895.1591
204889.6217
204881.4552
204872.2859
187567.7326
187294.3643
187340.1114
187378.7434
187427.5194
187528.3152
187682.8119
187905.1483
188188.8096
188522.9027
188898.7517
189301.7511
189716.1618
190127.7792
190524.6692
190898.3911
191245.7144
191563.7152
191850.8379
192107.5585
192337.2626
192541.3051
192721.6756
192881.5522
193022.933
193147.5049
193257.6466
193354.7824
193440.1802
193515.3614
193581.3461
193639.0543
193689.3009
193732.9439
193770.6309
193802.9411
193830.3893
193853.4494
193872.5902
193888.2144
193900.6798
193910.3032
193917.3637
193922.1016
193924.7195
193925.3834
193924.1832
193920.979
193915.4629
193908.8726
177552.013
177131.9349
177192.3769
177215.3447
177231.6138
177299.5818
177413.6006
177587.1193
177823.8899
178109.9951
178433.1752
178782.5968
179144.3711
179504.895
179853.9626
180185.3085
180494.4715
180777.965
181034.4164
181265.1069
181472.1715
181656.4692
181819.8333
181965.21
182094.0859
182207.928
182308.8958
182398.1814
182476.884
182546.4057
182607.5986
182661.2478
182708.1907
182749.1291
182784.647
182815.263
182841.4312
182863.6319
182882.2829
182897.7603
182910.4061
182920.5291
182928.4086
182934.2897
182938.3811
182940.8481
182941.7791
182941.0745
182938.4843
182934.7765
167566.0148
166994.3446
167062.744
167063.7171
167053.9537
167081.2797
167157.3229
167283.7731
167466.3143
167699.3243
167969.1729
168263.6568
168570.7913
168879.4696
169180.9436
169469.1622
169738.8028
169986.9544
170212.0119
170416.2596
170600.029
170763.8946
170910.1642
171040.6524
171156.5607
171259.5651
171351.1664
171432.3745
171504.2981
171568.053
171624.3673
171673.9056
171717.4863
171755.6747
171788.9853
171817.8758
171842.7474
171864.0554
171882.1767
171897.46
171910.2301
171920.7899
171929.4236
171936.392
171941.9254
171946.2084
171949.3476
171951.2994
171951.8816
171951.3602
157628.6066
156897.2817
156969.6964
156945.6346
156906.7615
156889.2072
156924.1182
157001.5554
157129.2436
157303.9698
157516.7908
157754.4106
158005.9432
158262.2512
158514.9347
158757.8139
158986.3975
159197.5998
159391.0819
159567.5517
159726.8841
159869.3702
159997.5871
160112.2883
160214.3926
160305.766
160387.2371
160459.6194
160524.0926
160581.4161
160632.206
160677.0503
160716.6605
160751.5169
160782.0538
160808.6538
160831.714
160851.6224
160868.7193
160883.327
160895.755
160906.3029
160915.2669
160922.937
160929.5888
160935.4639
160940.747
160945.5463
160949.8298
160953.1527
147723.0273
146866.0743
146938.4381
146894.519
146811.7944
146739.9202
146714.4969
146735.3255
146801.4191
146912.6915
147061.4057
147237.2943
147430.2521
147631.2252
147832.5723
148028.8846
148215.5455
148389.6302
148551.6639
148700.239
148835.1386
148957.0714
149067.4805
149166.824
149255.8539
149336.0506
149407.9722
149472.2159
149529.8419
149581.3613
149627.2317
149668.0525
149704.338
149736.4867
149764.8522
149789.7381
149811.5305
149830.5401
149847.0603
149861.3778
149873.7761
149884.5426
149893.9788
149902.4047
149910.1548
149917.5573
149924.9223
149932.5713
149940.712
149948.2841
138341.5763
137113.8304
137112.1966
137021.5154
136880.2287
136755.9539
136668.6331
136630.9545
136631.7817
136673.1528
136750.2765
136854.8095
136978.2561
137113.0117
137252.5367
137391.8477
137526.304
137654.8498
137776.0845
137888.3335
137991.0573
138085.4783
138171.5575
138249.4373
138320.0573
138384.0715
138441.7699
138493.7076
138540.5657
138582.6641
138620.2821
138653.9822
138684.0698
138710.8395
138734.5522
138755.4497
138773.8429
138789.9802
138804.1006
138816.4446
138827.2591
138836.8059
138845.379
138853.3176
138861.0165
138868.9292
138877.6355
138888.0274
138900.9853
138914.3037
127122.9252
126602.6379
126792.5703
126692.1975
126488.272
126302.9981
126150.5689
126050.7611
126001.3627
125993.9672
126025.6301
126088.7141
126174.6606
126275.7164
126384.9813
126496.8058
126608.3284
126717.4292
126821.4359
126918.6695
127008.9033
127092.7811
127169.7513
127239.7844
127304.0357
127362.5926
127415.6119
127463.8466
127507.6356
127547.247
127582.9208
127615.1553
127644.1969
127670.278
127693.5915
127714.3955
127732.9202
127749.3672
127763.9319
127776.8107
127788.2071
127798.3429
127807.4792
127815.9416
127824.1436
127832.6129
127842.1334
127854.1363
127870.4621
127888.8586
126100.7084
123645.505
123025.5356
122369.0513
121639.2246
120929.6379
120257.8936
119644.0014
119101.5799
118627.3793
118218.7745
117873.7431
117587.4162
117352.6235
117162.2707
117010.7337
116892.8319
116801.9094
116732.858
116680.8373
116643.8054
116618.4822
116601.8065
116592.0074
116587.8661
116587.7692
116590.388
116595.3704
116601.8536
116609.1736
116617.0154
116625.1169
116633.2105
116641.0892
116648.5625
116655.633
116662.2396
116668.3578
116673.9904
116679.1659
116683.9378
116688.3899
116692.6544
116696.9321
116701.509
116706.8083
116713.8021
116725.1698
116745.1657
116770.4523
102779.9209
102980.6904
103374.0864
103480.1898
103528.69
103597.3297
103689.1332
103800.0429
103926.367
104062.0698
104197.8551
104330.5103
104457.6832
104576.8369
104686.8234
104788.4268
104881.1594
104965.0513
105040.6572
105108.2556
105169.5173
105224.7097
105274.1771
105318.8442
105359.2658
105395.8
105428.7394
105458.6976
105485.8739
105510.4473
105532.7753
105553.0235
105571.3558
105587.9113
105602.7891
105616.151
105628.095
105638.7141
105648.0964
105656.3275
105663.4927
105669.6814
105674.9977
105679.5734
105683.5723
105687.2026
105691.0087
105697.0488
105710.002
105730.7487
)
;

boundaryField
{
    front_top
    {
        type            wedge;
    }
    front_middle
    {
        type            wedge;
    }
    front_bottom
    {
        type            wedge;
    }
    back_top
    {
        type            wedge;
    }
    back_middle
    {
        type            wedge;
    }
    back_bottom
    {
        type            wedge;
    }
    axis_top
    {
        type            symmetryPlane;
    }
    axis_middle
    {
        type            symmetryPlane;
    }
    axis_bottom
    {
        type            symmetryPlane;
    }
    wall_top
    {
        type            fixedFluxPressure;
        gradient        nonuniform 0();
        value           nonuniform 0();
    }
    wall_middle
    {
        type            fixedFluxPressure;
        gradient        nonuniform 0();
        value           nonuniform 0();
    }
    wall_bottom
    {
        type            fixedFluxPressure;
        gradient        uniform 0;
        value           nonuniform List<scalar> 
23
(
346740.6895
335859.1668
324973.9634
314084.6684
303190.8739
292292.1597
281388.1098
270478.2867
259562.261
248639.5632
237709.7488
226772.2678
215826.7111
204872.2859
193908.8726
182934.7765
171951.3602
160953.1527
149948.2841
138914.3037
127888.8586
116770.4523
105730.7487
)
;
    }
    inlet
    {
        type            zeroGradient;
    }
    outlet
    {
        type            fixedValue;
        value           uniform 100000;
    }
    procBoundary0to1
    {
        type            processor;
        value           nonuniform List<scalar> 
51
(
350254.6031
351736.892
351704.4801
351947.9244
352380.6923
352931.6269
353577.4895
354327.1082
355177.9858
356112.8933
357112.7235
358152.1991
359201.8753
360231.3239
361214.2897
362130.1187
362965.5457
352975.2456
352975.2456
353627.4216
354203.2326
354709.2849
355154.05
355543.7701
355885.6211
356185.0357
356446.8575
356675.7342
356874.9584
357048.0388
357197.5315
357325.7473
357434.9439
357526.9231
357603.3896
357665.9265
357715.8819
357754.4554
357782.8454
357802.0904
357813.1255
357816.7953
357813.8598
357804.9995
357790.8261
357771.9105
357748.8188
357721.9621
357690.9576
357654.826
357618.9416
)
;
    }
}


// ************************************************************************* //
