/*--------------------------------*- C++ -*----------------------------------*\
  =========                 |
  \\      /  F ield         | OpenFOAM: The Open Source CFD Toolbox
   \\    /   O peration     | Website:  https://openfoam.org
    \\  /    A nd           | Version:  7
     \\/     M anipulation  |
\*---------------------------------------------------------------------------*/
FoamFile
{
    version     2.0;
    format      ascii;
    class       volScalarField;
    location    "0.0009";
    object      rho;
}
// * * * * * * * * * * * * * * * * * * * * * * * * * * * * * * * * * * * * * //

dimensions      [1 -3 0 0 0 0 0];

internalField   nonuniform List<scalar> 
1167
(
933.9266251
933.8540485
933.698509
933.4687768
933.1702025
932.807049
932.3839369
931.9047663
931.373599
930.794359
930.1707929
929.5066257
928.8054617
928.0707861
927.3059845
926.5143533
925.6991146
933.8082992
933.7357737
933.5803466
933.3508918
933.0525827
932.6898527
932.2671473
931.7885792
931.2581183
930.6796839
930.0570552
929.3939659
928.6940291
927.9607411
927.1974976
926.4076048
925.5943615
924.7610137
923.910479
923.0457532
922.1699028
921.2855021
920.3953366
919.5019805
918.6077785
917.7152393
916.8262992
915.9431549
915.0676406
914.201425
913.3462873
912.5035138
911.6744472
910.860319
910.0619749
909.280283
908.5161159
907.7699448
907.0422204
906.3332808
905.6433513
904.9725224
904.3208328
903.6881779
903.0743798
902.4790939
901.9020222
901.3426687
900.8005906
900.2751969
933.6900962
933.6176256
933.462319
933.2331789
932.9351254
932.5728538
932.1505605
931.6726207
931.1428948
930.5652979
929.9436413
929.2816666
928.5829946
927.8511324
927.0894858
926.301373
925.4901957
924.6589962
923.8107992
922.9486942
922.0755472
921.1940291
920.3069794
919.4167999
918.5259884
917.636863
916.7514353
915.8719411
915.0000587
914.1375671
913.2861021
912.4470065
911.6216451
910.8111336
910.016361
909.2381868
908.4775098
907.7347177
907.0102948
906.3045764
905.6177833
904.9500047
904.3012801
903.671514
903.0605049
902.4679158
901.8934675
901.3366549
900.7970394
900.2740313
933.572021
933.4996091
933.3445418
933.1156178
932.8178355
932.4560412
932.0342923
931.5568969
931.0279349
930.4512072
929.8305569
929.1697328
928.4723628
927.7419642
926.981952
926.1957569
925.3865782
924.5575584
923.711749
922.8522637
921.9818364
921.1032842
920.2192892
919.3322861
918.4448587
917.5591367
916.677265
915.8013376
914.9330643
914.0742696
913.2264479
912.3909989
911.5693096
910.762382
909.9711475
909.1964957
908.4392389
907.6997945
906.9786429
906.2761167
905.5924324
904.9276774
904.2819056
903.654996
903.0467507
902.4568315
901.8849839
901.3306912
900.7935178
900.2728754
933.4540786
933.3817991
933.226928
932.9982141
932.7008184
932.33942
931.9182508
931.4414636
930.9132438
930.3374173
929.7178075
929.0581697
928.3621385
927.6332412
926.8749731
926.0906545
925.2835082
924.4566981
923.6133725
922.7564569
921.8887652
921.0132027
920.1322571
919.2484544
918.36438
917.4820502
916.6037254
915.7313359
914.8666483
914.0115239
913.1673172
912.3354951
911.5174347
910.7140589
909.9263306
909.1551736
908.4013009
907.6651737
906.9472639
906.2479013
905.5672982
904.9055448
904.2627013
903.6386178
903.0331127
902.4458519
901.8765719
901.3247777
900.7900259
900.2717293
933.3363938
933.2641901
933.1094643
932.8809731
932.5840077
932.222996
931.8024299
931.3263522
930.7988642
930.2239335
929.6053979
928.9469818
928.2523257
927.5250363
926.768508
925.9860665
925.1809845
924.356433
923.5155954
922.6612701
921.7963508
920.9237646
920.0458739
919.1653285
918.284543
917.4055943
916.5308001
915.6619293
914.8008524
913.9493218
913.1087035
912.2805178
911.4660142
910.6661596
909.8819065
909.1142129
908.363694
907.6308541
906.9161569
906.2199298
905.5423807
904.8836202
904.2436617
903.6223798
903.0195912
902.4349662
901.8682318
901.3189148
900.7865638
900.270593
933.2188613
933.1467279
932.992156
932.7639304
932.4673802
932.1068086
931.6868348
931.211492
930.684841
930.1108399
929.4933794
928.8362283
928.1430296
927.4173183
926.662526
925.8819937
925.0790066
924.2568199
923.4184154
922.5667014
921.7046376
920.8349602
919.9601303
919.0828412
918.2053387
917.3298035
916.4584808
915.5931095
914.7356314
913.8876567
913.0505997
912.226021
911.4150441
910.6186806
909.8378885
909.0736116
908.3264165
907.5968347
906.8853215
906.1922019
905.5176868
904.861886
904.2247873
903.6062824
903.0061868
902.4241747
901.8599638
901.3131026
900.7831318
900.2694665
933.1014768
933.0294179
932.8750086
932.647158
932.3509407
931.9909168
931.5714705
931.0968881
930.5711028
929.9981019
929.3817819
928.725918
928.0341606
927.3100511
926.5570281
925.7784372
924.9776141
924.1577764
923.3218283
922.4727438
921.6135465
920.7467847
919.8750501
919.0009843
918.1267587
917.2546564
916.3867591
915.5248685
914.6709665
913.8265227
912.9930004
912.1720001
911.3645208
910.5716188
909.7942841
909.0333678
908.2894672
907.5631146
906.8547573
906.1647178
905.4932264
904.8403426
904.2060785
903.5903263
902.9929
902.4134778
901.8517685
901.3073415
900.7797298
900.2683499
932.9842458
932.9122654
932.7580641
932.5305631
932.2346945
931.8752381
931.4563758
930.9825456
930.4576545
929.8856847
929.2705376
928.6159935
927.9257104
927.2032363
926.4520155
925.6753973
924.8768238
924.0592984
923.2258275
922.3794635
921.5230731
920.6592329
919.7906438
918.9197505
918.048795
917.1801143
916.3156275
915.4572237
914.6068509
913.7659141
912.935938
912.1184508
911.3144409
910.5249716
909.7510649
908.9934802
908.2528454
907.5296936
906.8244642
906.137481
905.4689832
904.8189905
904.1875358
903.5745119
902.9797314
902.4028761
901.8436487
901.3016316
900.7763582
900.2672433
932.8671735
932.7952757
932.6413814
932.4141506
932.1186686
931.7597783
931.3416138
930.8684686
930.3445005
929.7735922
929.1596497
928.5064578
927.8176817
927.0968754
926.3474883
925.5729641
924.7765737
923.9613832
923.1304093
922.2867976
921.433211
920.5722987
919.7068561
918.8391326
917.9714729
917.1061697
916.2450788
915.3901846
914.5432789
913.7058258
912.8793908
912.0653696
911.2648015
910.4787368
909.7082293
908.9539477
908.2165504
907.4965714
906.7944424
906.1105122
905.4449577
904.7978304
904.16916
903.55884
902.9666814
902.3923701
901.8356073
901.2959734
900.773017
900.2661467
932.750311
932.6785782
932.5248741
932.2979257
932.0029465
931.6445418
931.2270972
930.7547437
930.2316449
929.6618281
929.0491213
928.3973134
927.7100763
926.9909694
926.2435074
925.4710581
924.6768621
923.8640294
923.0356323
922.1947249
921.3439546
920.486035
919.6236792
918.7591233
917.8947921
917.0328158
916.1751064
915.3237038
914.4802448
913.6462529
912.8233341
912.0127532
911.2156001
910.4329548
909.665776
908.9147696
908.180582
907.4637483
906.7646925
906.0837882
905.4211507
904.7768631
904.1509521
903.5433115
902.953751
902.3819604
901.8276397
901.2903672
900.7697066
900.2650602
932.6337002
932.5620569
932.4085472
932.1818935
931.887433
931.5295334
931.1128307
930.6413259
930.1191622
929.5503959
928.9389555
928.288563
927.6028967
926.8855826
926.1400518
925.3696634
924.5776869
923.7672344
922.9414663
922.1032406
921.2552979
920.4004045
919.5411064
918.6797158
917.8187059
916.9600461
916.1057105
915.2577756
914.4177438
913.5872019
912.7677644
911.9605986
911.1668346
910.3875836
909.6237044
908.8759458
908.1449407
907.4312253
906.7352379
906.0573094
905.3975631
904.7560897
904.1329129
903.5279273
902.940941
902.3716478
901.8197465
901.2848133
900.7664272
900.2639839
932.517263
932.4457129
932.2924058
932.0661356
931.7721333
931.4148368
930.9988181
930.5281872
930.0070331
929.4394019
928.8292175
928.180272
927.4962428
926.7806921
926.0370786
925.2687782
924.4790454
923.671055
922.8478713
922.0123401
921.1672464
920.3153725
919.4591332
918.6009416
917.7432072
916.8878541
916.03694
915.1923948
914.3557711
913.5287018
912.7126785
911.9089036
911.1185032
910.3426201
909.5820139
908.8374765
908.109627
907.3990031
906.7060637
906.0310774
905.3741963
904.7355115
904.1150439
903.5126886
902.9282526
902.3614333
901.8119286
901.2793125
900.763179
900.2629178
932.4010042
932.3295512
932.1764549
931.9506252
931.6570524
931.3004235
930.885064
930.4153317
929.8952144
929.328761
928.7198993
928.0724263
927.3900231
926.6762568
925.9345876
925.1684006
924.3809346
923.5754554
922.7548422
921.9220172
921.0798498
920.2309351
919.377755
918.5227968
917.6682901
916.8162341
915.9687281
915.1275568
914.294323
913.4707053
912.6580742
911.857667
911.0706326
910.2980631
909.5407043
908.7993618
908.0746416
907.3670907
906.6771645
906.0050942
905.3510524
904.7151306
904.097347
903.4975973
902.9156873
902.3513181
901.8041868
901.2738653
900.7599626
900.2618622
932.2849288
932.2135766
932.0607816
931.8353221
931.5421946
931.1862515
930.7716374
930.3027634
929.7837093
929.2184616
928.6109509
927.9649788
927.2842305
926.5722764
925.8325779
925.0685288
924.2834441
923.4804021
922.6623751
921.8322684
920.9930359
920.1470859
919.2969657
918.4452364
917.5939501
916.7451812
915.9010702
915.0632576
914.233396
913.4132099
912.6039496
911.8068874
911.0232125
910.2539125
909.499776
908.7616028
908.0399859
907.3355044
906.6485427
905.9793622
905.3281338
904.6949494
904.0798246
903.4826555
902.9032469
902.3413039
901.7965224
901.2684727
900.7567785
900.2608171
932.1690417
932.0978374
931.9453475
931.7202316
931.4276297
931.0723249
930.6585264
930.190486
929.6725209
929.1085061
928.502374
927.8579311
927.1788656
926.4687509
925.7310494
924.9692103
924.1864821
923.3858929
922.5704692
921.7431668
920.9067968
920.063818
919.2168148
918.3682557
917.5201843
916.6747549
915.8339608
914.9994928
914.1730383
913.356213
912.5503029
911.7565636
910.9762243
910.2101694
909.4592304
908.7242011
908.0056622
907.304224
906.6202009
905.9538845
905.3054437
904.6749711
904.0624795
903.4678659
902.8909339
902.3313927
901.7889372
901.2631359
900.7536273
900.2597829
932.0534377
931.9823732
931.8301186
931.6053583
931.3133566
930.9586478
930.545686
930.0786155
929.5616522
928.9988966
928.3941705
927.7512842
927.0739289
926.3656805
925.6300343
924.8704431
924.0900416
923.2919242
922.4791195
921.6546452
920.8211288
919.9811262
919.1372641
918.2918497
917.4469874
916.6048894
915.7673974
914.9362598
914.1132031
913.299713
912.4971331
911.7067109
910.9296685
910.1668353
909.4190695
908.6871596
907.971696
907.273253
906.592143
905.9286651
905.2829863
904.6551998
904.0453158
903.4532323
902.8787517
902.3215874
901.7814333
901.2578565
900.7505101
900.2587599
931.9380631
931.8671107
931.7150995
931.4907067
931.1993195
930.8452245
930.43312
929.9670468
929.4511957
928.8896356
928.286342
927.6450392
926.9694207
926.2631061
925.5295694
924.7721757
923.9941199
923.1984911
922.3883849
921.5666857
920.7360289
919.8990149
919.0582857
918.2160138
917.3743549
916.5355788
915.7013773
914.8735565
914.0538812
913.2437089
912.4444398
911.6573464
910.8835466
910.1239123
909.3792964
908.6504817
907.9380804
907.242596
906.5643739
905.9037091
905.2607667
904.6356406
904.0283385
903.4387592
902.8667044
902.3118914
901.7740136
901.2526365
900.7474281
900.2577484
931.8228913
931.7520549
931.6002954
931.3764023
931.0855221
930.7321631
930.3208322
929.855779
929.3410908
928.7808381
928.1789544
927.5392535
926.8654248
926.1610433
925.4295801
924.6744054
923.8987142
923.10559
922.298218
921.4792838
920.6514935
919.8175396
918.9798755
918.1407437
917.3023531
916.4668204
915.6358992
914.8114205
913.9950707
913.1881999
912.3922235
911.6084389
910.8378608
910.0814038
909.3399151
908.6141724
907.9048091
907.212259
906.5369002
905.8790234
905.238792
904.6163005
904.0115544
903.4244532
902.8547979
902.3023099
901.7666821
901.247479
900.744383
900.2567491
931.7079273
931.6372106
931.4857124
931.2623317
930.9719688
930.619372
930.2088261
929.7448151
929.2313135
928.672393
928.0719899
927.4339199
926.7618754
926.0594308
925.3300641
924.5771295
923.8038225
923.0133024
922.2085911
921.3924334
920.5675169
919.7366266
918.9020285
918.0660346
917.2309075
916.3986105
915.5709598
914.7498278
913.93677
913.133185
912.3404901
911.5599887
910.7926128
910.0393124
909.3009296
908.5782677
907.8718858
907.1822468
906.5097273
905.8546139
905.2170685
904.5971861
903.9949699
903.4103204
902.8430378
902.2928477
901.759443
901.2423869
900.7413768
900.2557625
931.5931761
931.5225829
931.3714764
931.1484947
930.8586633
930.5068457
930.0971974
929.634157
929.121865
928.5643003
927.965402
927.3289875
926.6587508
925.9582658
925.2310176
924.4803435
923.7094637
922.9215474
922.1194985
921.3061284
920.4841533
919.6562672
918.8247368
917.9918928
917.1600108
916.3309425
915.506553
914.6887555
913.8789762
913.0786624
912.2892727
911.5119939
910.7478019
909.9976386
909.2623412
908.5427389
907.8393152
907.1525644
906.4828607
905.8304868
905.1956026
904.5783039
903.9785916
903.3963671
902.8314299
902.2835102
901.7523004
901.2373632
900.7384111
900.2547893
931.4786518
931.4082623
931.2574673
931.0348949
930.7456994
930.3945863
929.9858778
929.5238191
929.0127443
928.4565581
927.8591878
927.2244517
926.5560455
925.8575418
925.1324324
924.3840377
923.6156655
922.8303027
922.0309277
921.2203542
920.4013494
919.5764451
918.747983
917.9183423
917.0896445
916.2637974
915.4426981
914.6281838
913.8216692
913.0246112
912.2385086
911.4644338
910.7034062
909.9563596
909.2241355
908.5075605
907.8070719
907.1231857
906.456274
905.8066156
905.1743688
904.55963
903.962398
903.3825752
902.8199602
902.2742871
901.745248
901.2324091
900.7354849
900.2538292
931.3644236
931.2941635
931.1436479
930.921495
930.6329706
930.2825558
929.8748051
929.413849
928.9039119
928.3491261
927.7533061
927.1202706
926.4537163
925.7572143
925.0342624
924.2882511
923.5223119
922.739513
921.9428183
921.1350865
920.3190109
919.4970832
918.6716807
917.8452303
917.0197004
916.1970545
915.3792448
914.5679635
913.7646839
912.9708515
912.1880002
911.4170949
910.6591972
909.9152338
909.1860804
908.4724749
907.7748968
907.0938558
906.4297229
905.7827733
905.1531641
904.5409917
903.9462511
903.3688435
902.8085633
902.2651448
901.7382762
901.2275256
900.7326059
900.2528858
931.2222839
931.1521872
931.0020252
930.7804591
930.4927262
930.1432403
929.736654
929.2770902
928.7687136
928.2155918
927.6216971
926.9908018
926.3265762
925.6326209
924.9124531
924.169336
923.4064459
922.6268693
921.8335455
921.0294353
920.2170078
919.3988362
918.5773599
917.7548847
916.933376
916.1148027
915.301186
914.4940397
913.6949096
912.9052915
912.1265678
911.359764
910.6059275
909.865974
909.1408169
908.4310842
907.7373007
907.0599624
906.3994311
905.7559693
905.1297217
904.5207732
903.929102
903.354595
902.7970306
902.256134
901.7315845
901.2229541
900.7299667
900.2520324
)
;

boundaryField
{
    front_top
    {
        type            wedge;
    }
    front_middle
    {
        type            wedge;
    }
    front_bottom
    {
        type            wedge;
    }
    back_top
    {
        type            wedge;
    }
    back_middle
    {
        type            wedge;
    }
    back_bottom
    {
        type            wedge;
    }
    axis_top
    {
        type            symmetryPlane;
    }
    axis_middle
    {
        type            symmetryPlane;
    }
    axis_bottom
    {
        type            symmetryPlane;
    }
    wall_top
    {
        type            calculated;
        value           nonuniform 0();
    }
    wall_middle
    {
        type            calculated;
        value           nonuniform 0();
    }
    wall_bottom
    {
        type            calculated;
        value           uniform 900.0184441;
    }
    inlet
    {
        type            calculated;
        value           nonuniform 0();
    }
    outlet
    {
        type            calculated;
        value           nonuniform List<scalar> 
50
(
931.2222839
931.1521872
931.0020252
930.7804591
930.4927262
930.1432403
929.736654
929.2770902
928.7687136
928.2155918
927.6216971
926.9908018
926.3265762
925.6326209
924.9124531
924.169336
923.4064459
922.6268693
921.8335455
921.0294353
920.2170078
919.3988362
918.5773599
917.7548847
916.933376
916.1148027
915.301186
914.4940397
913.6949096
912.9052915
912.1265678
911.359764
910.6059275
909.865974
909.1408169
908.4310842
907.7373007
907.0599624
906.3994311
905.7559693
905.1297217
904.5207732
903.929102
903.354595
902.7970306
902.256134
901.7315845
901.2229541
900.7299667
900.2520324
)
;
    }
    procBoundary0to1
    {
        type            processor;
        value           nonuniform List<scalar> 
51
(
934.0450692
933.972445
933.816801
933.586907
933.2879795
932.9245326
932.5009233
932.0211763
931.4893332
930.9093896
930.2849511
929.6197269
928.9173166
928.1812624
927.4149429
926.6216127
925.8044856
924.8636125
924.8636125
924.01077
923.1434954
922.2649103
921.3776419
920.4843681
919.5878374
918.6902881
917.7942733
916.9018062
916.0149913
915.1358209
914.265892
913.4070123
912.5605284
911.7277275
910.9099436
910.1079939
909.3227504
908.5550597
907.8054776
907.0744209
906.3622306
905.6691364
904.9952304
904.34055
903.7049927
903.0883791
902.490365
901.9106481
901.3487325
900.8041713
900.2763722
)
;
    }
}


// ************************************************************************* //
