/*--------------------------------*- C++ -*----------------------------------*\
  =========                 |
  \\      /  F ield         | OpenFOAM: The Open Source CFD Toolbox
   \\    /   O peration     | Website:  https://openfoam.org
    \\  /    A nd           | Version:  7
     \\/     M anipulation  |
\*---------------------------------------------------------------------------*/
FoamFile
{
    version     2.0;
    format      ascii;
    class       volScalarField;
    location    "0.0009";
    object      T;
}
// * * * * * * * * * * * * * * * * * * * * * * * * * * * * * * * * * * * * * //

dimensions      [0 0 0 1 0 0 0];

internalField   nonuniform List<scalar> 
1167
(
459.4148248
459.5256713
459.763285
460.1143859
460.5709569
461.1266745
461.7746901
462.5092725
463.3244505
464.214466
465.1738288
466.1970722
467.2789027
468.4141923
469.5979466
470.825286
472.0914207
459.5955539
459.7063503
459.9438524
460.2946181
460.7508986
461.306108
461.9536631
462.6875052
463.5018017
464.3907991
465.3489547
466.3707863
467.4509838
468.5843995
469.7660205
470.9909492
472.2542733
473.5511338
474.8771532
476.2278028
477.5984107
478.9850433
480.383406
481.7895031
483.1996709
484.6099572
486.0172862
487.4181453
488.8095708
490.1888416
491.5530396
492.9000151
494.2275136
495.533445
496.8163266
498.0746325
499.3068218
500.5119952
501.6892847
502.838003
503.9576455
505.047928
506.108653
507.1398596
508.1417114
509.1146489
510.0590432
510.9755953
511.8649261
512.7279066
459.776141
459.8868816
460.1242596
460.4746326
460.9306372
461.4852841
462.1323701
462.8654315
463.6788016
464.5667308
465.5236248
466.5439865
467.6224914
468.753972
469.9333975
471.1558484
472.4162495
473.7100551
475.0327186
476.3795614
477.7462224
479.1286143
480.5223544
481.9237161
483.3287922
484.7339295
486.1359322
487.5312239
488.9170874
490.2906257
491.6491492
492.9904179
494.3121422
495.6124174
496.889693
498.1424572
499.3691277
500.5689411
501.7409763
502.8845516
503.999171
505.0845536
506.1405016
507.1670408
508.164374
509.1329308
510.0730523
510.9854556
511.8707557
512.7298223
459.9565785
460.0672573
460.3043294
460.6544604
461.1101646
461.6642199
462.3106332
463.043042
463.8554403
464.7422516
465.6978298
466.7166646
467.7934176
468.922903
470.1000725
471.3198295
472.5774093
473.8681081
475.1873346
476.5303691
477.893054
479.2710706
480.6602803
482.056903
483.4568939
484.8568948
486.2534982
487.6433506
489.0236851
490.3915309
491.7444234
493.0800323
494.3960324
495.690702
496.9624226
498.2096353
499.4308978
500.6254
501.7922282
502.9307063
504.0403463
505.1208712
506.1720615
507.1939849
508.1868401
509.1510596
510.0869452
510.995234
511.8765368
512.731722
460.1368585
460.2473629
460.4841949
460.8340925
461.2893196
461.8429071
462.4885931
463.2202506
464.0317094
464.9173523
465.8715611
466.8888123
467.9637548
469.0911845
470.2659259
471.4830501
472.7377534
474.0252958
475.3409319
476.6802327
478.038913
479.4125132
480.7971972
482.1890393
483.5839899
484.9788684
486.3700831
487.7545388
489.1293778
490.4915701
491.8388738
493.1688516
494.479194
495.7683066
497.0345214
498.2762251
499.4921358
500.6813743
501.8430419
502.9764677
504.0811718
505.1568741
506.2033454
507.2207021
508.2091172
509.1690176
510.1007211
511.00493
511.8822691
512.7336057
460.3167903
460.4272066
460.663876
461.0135208
461.4682033
462.0213369
462.6662588
463.3970087
464.2075431
465.0920248
466.0448106
467.0604222
468.1334963
469.2587034
470.4310207
471.6455087
472.8972829
474.1815898
475.4936257
476.8291571
478.1837719
479.552973
480.9331188
482.320087
483.7100946
485.0998646
486.4857127
487.8647987
489.2340989
490.5907563
491.9325106
493.256839
494.5616365
495.8452387
497.1059953
498.3422382
499.5528445
500.736866
501.8934185
503.0218363
504.1216477
505.1925402
506.2343622
507.2471915
508.2312045
509.1868226
510.1143796
511.0145434
511.8879526
512.7354732
460.4965346
460.606871
460.8433646
461.1926907
461.6468512
462.1994484
462.8436224
463.5734248
464.382872
465.2661391
466.2174991
467.2314024
468.302479
469.4255072
470.5954042
471.8072033
473.0559985
474.3369012
475.6454192
476.9771451
478.3275604
479.6924646
481.0680593
482.4501513
483.8352216
485.2198282
486.6003998
487.9741428
489.3379198
490.6890995
492.0253445
493.3440678
494.643366
495.9215039
497.1768228
498.4076782
499.6130263
500.7918765
501.9433588
503.0668125
504.1617624
505.2278983
506.2651113
507.2734524
508.2531013
509.2044739
510.1279202
511.0240737
511.8935868
512.7373246
460.6760976
460.7863479
461.022652
461.3714916
461.8252558
462.3771511
463.0206757
463.7494904
464.5578054
465.439748
466.38958
467.4017391
468.4708411
469.5916516
470.759074
471.968132
473.2138377
474.4913576
475.7963182
477.1242067
478.4704019
479.830995
481.2019809
482.5792446
483.9593837
485.3387923
486.7141568
488.0825835
489.4408703
490.7866088
492.1173841
493.4305454
494.7243882
495.9971068
497.2469916
498.4725477
499.6726831
500.846407
501.9928632
503.1113962
504.2015001
505.2629477
506.2955919
507.2994838
508.2748066
509.2219708
510.1413422
511.0335204
511.8991716
512.7391597
460.855471
460.9656289
461.2016738
461.5500655
462.0034085
462.5545711
463.1973589
463.9251978
464.7323356
465.612905
466.5611574
467.5715202
468.6385946
469.7571333
470.922028
472.1282936
473.3707737
474.6449651
475.9463325
477.270238
478.6123028
479.9685719
481.334866
482.7073782
484.082593
485.4568181
486.8269957
488.1900929
489.5429605
490.883293
492.2085775
493.5162779
494.8047081
496.0720513
497.3165471
498.5368488
499.7318161
500.9004579
502.0419318
503.1555813
504.2408871
505.2976876
506.3258031
507.3252849
508.2963196
509.2393125
510.1546405
511.0428831
511.9047067
512.7409785
461.0346465
461.1447055
461.3803396
461.7284044
462.1812681
462.7316994
463.3735748
464.1005402
464.9064555
465.7856035
466.7322261
467.7407409
468.8057353
469.9219498
471.0842656
472.2875477
473.5269025
474.7977272
476.0954675
477.4153368
478.7532725
480.1052042
481.4668014
482.8345626
484.2048091
485.5739168
486.9389271
488.2966553
489.6441995
490.97916
492.2989586
493.601271
494.8843303
496.1463409
497.3854919
498.600583
499.7904261
500.9540294
502.0905641
503.1993342
504.2799224
505.3321168
506.3557436
507.3508543
508.3176393
509.2564981
510.1678108
511.0521613
511.9101918
512.7427808
461.2135457
461.3233798
461.5587814
461.9065005
462.358706
462.9085288
463.5494572
464.2753841
465.0801582
465.9578375
466.9027807
467.9093968
468.9722598
470.0860992
471.2456915
472.4460169
473.6822263
474.9496454
476.2436309
477.5595356
478.8933192
480.2408082
481.5977989
482.960809
484.3260319
485.6900987
487.0499613
488.4023457
489.7445956
491.0742172
492.3885668
493.6855298
494.9632585
496.2199105
497.4538276
498.6637513
499.8485133
501.0071211
502.1387593
503.2426926
504.3186047
505.3662337
506.3854118
507.3761909
508.3387642
509.2735264
510.1808604
511.0613544
511.9156265
512.7445665
461.3921045
461.5018289
461.7369914
462.0843455
462.5358682
463.0850519
463.7249988
464.4497986
465.2533292
466.1296013
467.0728164
468.0774833
469.1381636
470.2494808
471.406338
472.6037258
473.8367477
475.1007237
476.3908691
477.7028414
479.032452
480.375442
481.7278683
483.0861276
484.4463349
485.8053738
487.1600975
488.5071728
489.8441565
491.1684539
492.4774075
493.7690586
495.0414961
496.2928272
497.5215554
498.7263537
499.9060768
501.0597312
502.1864793
503.2856557
504.3569327
505.4000369
506.4148062
507.4012928
508.3596931
509.2903964
510.1937884
511.0704617
511.9210104
512.7463355
461.5704419
461.6800509
461.9149617
462.2618143
462.7127461
463.2611397
463.9001931
464.6238262
465.4259973
466.3007305
467.2422317
468.2448989
469.3032919
470.4121301
471.5662711
472.7606767
473.9904706
475.2508724
476.5372444
477.8452609
479.1706614
480.5091597
481.8570165
483.2104682
484.5657285
485.9197518
487.2692576
488.6111443
489.9428891
491.2618234
492.5654854
493.8518608
495.1190453
496.3650958
497.5886758
498.78839
499.9631158
501.1118585
502.233748
503.3282209
504.3949038
505.4335238
506.4439245
507.4261579
508.3804239
509.3071062
510.2065934
511.0794822
511.926343
512.7480876
461.7485505
461.8580381
462.0926842
462.4389477
462.889332
463.436836
464.0750331
464.7974603
465.598229
466.4713561
467.4110388
468.4116649
469.4677857
470.5741101
471.7254907
472.9168718
474.1433989
475.4001469
476.6827641
477.9868033
479.3078692
480.6419667
481.9852499
483.3338365
484.684222
486.0332415
487.3775473
488.7142674
490.0407994
491.3544009
492.6528037
493.9339382
495.1958634
496.4367182
497.6551891
498.8498595
500.0196288
501.1634882
502.280574
503.3703848
504.4325147
505.4666912
506.4727635
507.4507836
508.4009543
509.323654
510.2192739
511.0884148
511.9316235
512.7498226
461.9264224
462.0357827
462.2700255
462.6158068
463.0656191
463.6122046
464.2494122
464.9706946
465.7700189
466.6414955
467.5793145
468.5778537
469.6316556
470.7354209
471.8839975
473.0723134
474.2953926
475.548599
476.8274339
478.1274736
479.4441879
480.7738727
482.112578
483.456303
484.8018218
486.1458499
487.4849734
488.8165482
490.1378924
491.4461903
492.7393654
494.0152925
495.2719665
496.5076943
497.7210944
498.9107605
500.0756135
501.2145939
502.3269538
503.4121434
504.4697613
505.4995351
506.5013194
507.4751662
508.421281
509.340037
510.2318277
511.097258
511.936851
512.7515402
462.10405
462.2132107
462.4470437
462.7923836
463.2415001
463.7872392
464.4233485
465.1435229
465.9413618
466.8111447
467.7470557
468.7434626
469.7949002
470.8960618
472.0417911
473.2269273
474.4465942
475.6962318
476.9712544
478.2671565
479.5796295
480.9048881
482.2389222
483.5778745
484.9185322
486.2574829
487.5915443
488.917993
490.2340908
491.5371952
492.8251729
494.0959256
495.3473843
496.5780221
497.7863895
498.9710901
500.1310663
501.2652083
502.3728826
503.4534918
504.5066385
505.5320503
506.5295873
507.4993011
508.4414001
509.3562518
510.2442522
511.1060098
511.9420244
512.75324
462.2812877
462.3902612
462.6237911
462.9686706
463.4169761
463.9619332
464.5969108
465.3157664
466.112253
466.9802998
467.914259
468.9084892
469.9575182
471.0560324
472.1988215
473.3807158
474.597014
475.8430502
477.1142329
478.4059571
479.7141994
481.0350206
482.364342
483.6985586
485.034361
486.3682437
487.6972638
489.0186057
490.3294692
491.627418
492.9102276
494.1758127
495.4221157
496.6476991
497.8510705
499.0308437
500.1859456
501.3153254
502.4183541
503.4944232
504.5431392
505.56423
506.5575606
507.5231822
508.461306
509.3722938
510.2565436
511.1146676
511.9471422
512.7549214
462.4582177
462.5670461
462.8002602
463.1446608
463.5921327
464.1362798
464.7700929
465.4875866
466.2825495
467.148957
468.0809216
469.0729318
470.1195087
471.2152685
472.3550305
473.5337587
474.7466558
475.9890616
477.2562767
478.5439027
479.8479015
481.1642628
482.4888809
483.8183623
485.1493151
486.4781415
487.8021354
489.1183896
490.4240416
491.71686
492.9945298
494.254926
495.4961583
496.7167215
497.9151329
499.0900156
500.2402625
501.3649379
502.4633604
503.5349294
504.5792554
505.596066
506.5852313
507.5468022
508.4809921
509.3881571
510.2686974
511.123228
511.9522021
512.7565838
462.6348802
462.7435575
462.976443
463.3201611
463.7669639
464.3101122
464.9428889
465.6589843
466.4523442
467.3169382
468.2469414
469.236701
470.2807416
471.3737453
472.5105337
473.6860599
474.8955235
476.1342708
477.3974596
478.6809999
479.9807416
481.2925268
482.6125452
483.9372917
485.2632889
486.5871801
487.906161
489.2172841
490.5178109
491.8055222
493.0780786
494.3333154
495.5695082
496.7850839
497.9785696
499.1485977
500.294027
501.4140358
502.5078908
503.5749992
504.6149751
505.6275465
506.6125881
507.5701503
508.5004488
509.4038337
510.2807068
511.1316862
511.9572015
512.7582263
462.8112675
462.919788
463.1523298
463.4953455
463.9414627
464.4835712
465.115293
465.829955
466.6216736
467.4844144
468.4123451
469.3998073
470.4413181
471.5315579
472.6653343
473.8376228
475.0436197
476.27855
477.5378244
478.8172579
480.1127274
481.4199281
482.7353421
484.0553539
485.3764
486.6953653
488.0093456
489.3153271
490.6107793
491.8934057
493.1608641
494.4109802
495.6421625
496.852782
498.0413743
499.2065314
500.3472329
501.4626113
502.5519363
503.6146226
504.6502883
505.6586611
506.6396206
507.5932165
508.5196666
509.4193152
510.2925651
511.1400371
511.9621371
512.7598478
462.9873718
463.0957294
463.327727
463.6702138
464.1156231
464.656665
465.2871573
466.000495
466.7905358
467.6513855
468.5772044
469.5623294
470.6012716
471.6887097
472.8194376
473.988454
475.1909145
476.4220253
477.6773793
478.9526856
480.2437738
481.5464798
482.8572837
484.1725388
485.4886596
486.8027068
488.1116985
489.4125549
490.7029513
491.9805133
493.2428333
494.4879231
495.714122
496.9198143
498.1035445
499.2638632
500.3998729
501.5106563
502.5954878
503.65379
504.6851845
505.689399
506.6663179
507.6159903
508.5386361
509.4345932
510.3042656
511.1482759
511.9670063
512.7614474
463.163171
463.2712426
463.5028187
463.8447604
464.2893008
464.8293898
465.458587
466.170582
466.9589317
467.8178537
468.7415235
469.7242736
470.7606102
471.8452107
472.9728558
474.1385683
475.337364
476.5647309
477.8161438
479.0873055
480.373964
481.6722073
482.9783968
484.2888078
485.6000965
486.9092346
488.2131885
489.5089985
490.7943582
492.0668781
493.324086
494.5641772
495.7854219
496.9862179
498.1651035
499.3206341
500.4519876
501.5582127
502.6385882
503.6925438
504.719705
505.7197991
506.6927151
507.6385015
508.5573804
509.4496842
510.3158184
511.1564007
511.9718107
512.7630254
463.338559
463.4464584
463.6776618
464.0190425
464.4626589
465.0018041
465.6296774
466.3401422
467.1269224
467.9838813
468.9053657
469.8857048
470.9194003
472.0011295
473.1256607
474.2879046
475.4831487
476.7067531
477.9542117
479.2211556
480.5034455
481.7972317
483.0988178
484.4044021
485.7108818
487.0151398
488.3140542
489.6048953
490.8852635
492.1527874
493.4049384
494.6400845
495.8564287
497.052381
498.226425
499.3772596
500.5039957
501.6056931
502.6816335
503.7312528
504.7541798
505.7501426
506.7190371
507.6609151
508.5760062
509.4646433
510.3272394
511.1644098
511.9765374
512.7645759
463.5568625
463.6645437
463.8952745
464.2358566
464.6783899
465.2162675
465.8425347
466.551063
467.3356652
468.1903011
469.1090703
470.0863702
471.1167397
472.1948067
473.3153056
474.473342
475.6641308
476.883
478.1254794
479.387037
480.6638827
481.9520369
483.2477033
484.547269
485.8476353
487.1456752
488.4381561
489.7226313
490.9965857
492.2575675
493.5032899
494.7320246
495.9419978
497.131638
498.2993686
499.4440666
500.5647711
501.6605652
502.7307463
503.7747729
504.7922946
505.7830602
506.746994
507.684173
508.5948543
509.4793876
510.3382018
511.1719074
511.9808706
512.7659785
)
;

boundaryField
{
    front_top
    {
        type            wedge;
    }
    front_middle
    {
        type            wedge;
    }
    front_bottom
    {
        type            wedge;
    }
    back_top
    {
        type            wedge;
    }
    back_middle
    {
        type            wedge;
    }
    back_bottom
    {
        type            wedge;
    }
    axis_top
    {
        type            symmetryPlane;
    }
    axis_middle
    {
        type            symmetryPlane;
    }
    axis_bottom
    {
        type            symmetryPlane;
    }
    wall_top
    {
        type            convectiveRadiativeHeatFlux;
        mode            convectiveRadiative;
        kappaMethod     fluidThermo;
        kappa           none;
        alphaAni        Anialpha;
        h               nonuniform 0();
        Ta              constant 513.15;
        emissivityNozzle 0.95;
        emissivityFilament 0.95;
        dNozzle         2;
        dFilament       1.65;
        refValue        nonuniform 0();
        refGradient     nonuniform 0();
        valueFraction   nonuniform 0();
        value           nonuniform 0();
    }
    wall_middle
    {
        type            fixedValue;
        value           nonuniform 0();
    }
    wall_bottom
    {
        type            fixedValue;
        value           uniform 513.15;
    }
    inlet
    {
        type            fixedValue;
        value           nonuniform 0();
    }
    outlet
    {
        type            zeroGradient;
    }
    procBoundary0to1
    {
        type            processor;
        value           nonuniform List<scalar> 
51
(
459.2339612
459.3448521
459.5825653
459.9338245
460.3908201
460.9468465
461.5954605
462.3307423
463.1467543
464.0376301
464.9980983
466.02272
467.1062109
468.2433586
469.4291818
470.6588685
471.9276446
473.3913423
473.3913423
474.720668
476.0750081
477.4496083
478.8404548
480.2434243
481.6542498
483.069437
484.484966
485.8976408
487.3040961
488.7011184
490.0861009
491.4560808
492.8088119
494.1421287
495.4537761
496.7423162
498.0062162
499.2439762
500.4545596
501.6371517
502.7910594
503.9157698
505.0109949
506.0765378
507.1124335
508.1188463
509.0962155
510.0449178
510.9656531
511.8590481
512.7259751
)
;
    }
}


// ************************************************************************* //
