/*--------------------------------*- C++ -*----------------------------------*\
  =========                 |
  \\      /  F ield         | OpenFOAM: The Open Source CFD Toolbox
   \\    /   O peration     | Website:  https://openfoam.org
    \\  /    A nd           | Version:  7
     \\/     M anipulation  |
\*---------------------------------------------------------------------------*/
FoamFile
{
    version     2.0;
    format      ascii;
    class       volScalarField;
    location    "0.0009";
    object      thermo:mu;
}
// * * * * * * * * * * * * * * * * * * * * * * * * * * * * * * * * * * * * * //

dimensions      [1 -1 -1 0 0 0 0];

internalField   nonuniform List<scalar> 
1167
(
45946.4428
45575.93962
44793.53844
43666.29478
42250.16254
40599.09947
38769.22347
36811.64971
34774.72842
32701.46672
30628.74151
28587.5904
26602.93058
24693.94266
22874.66174
21154.6283
19539.5751
45344.17044
44979.55521
44209.57095
43100.67278
41707.00112
40082.37083
38281.15176
36354.47226
34349.43683
32308.29819
30267.41795
28257.33163
26302.56464
24422.01223
22629.51119
20934.47958
19342.71786
17856.90764
16476.77867
15200.41883
14024.63078
12944.60661
11955.25403
11050.90863
10225.60242
9473.605313
8788.912194
8166.05431
7599.656775
7084.658967
6616.486177
6190.710906
5803.368352
5450.837249
5129.714611
4836.977942
4569.934196
4326.053969
4103.091001
3899.022439
3712.026327
3540.455613
3382.840272
3237.84582
3104.274799
2981.031991
2867.155756
2761.754814
2664.046775
2573.309262
44751.66114
44392.84228
43635.08198
42544.35611
41172.67536
39574.1284
37801.04586
35904.77412
33931.1221
31921.60194
29912.06693
27932.55633
26007.20769
24154.63671
22388.48566
20718.05822
19149.26842
17684.38623
16323.38737
15064.55064
13904.47179
12838.59916
11862.01025
10968.97848
10153.81955
9410.754564
8733.975204
8118.151446
7557.909708
7048.363518
6584.946188
6163.350006
5779.693828
5430.370966
5112.060238
4821.788757
4556.918214
4314.931236
4093.629424
3891.019906
3705.306195
3534.863976
3378.243382
3234.129066
3101.333064
2978.774843
2865.507525
2760.647307
2663.420599
2573.112156
44168.75439
43815.64191
43070.44233
41997.07049
40647.03903
39074.15972
37329.21825
35462.43229
33519.66931
31541.27075
29562.58759
27613.16958
25716.77175
23891.73457
22151.50872
20505.48732
18959.08649
17514.78375
16172.62619
14930.97607
13786.33311
12734.44624
11770.31867
10888.39875
10083.20485
9348.912425
8679.948517
8070.9883
7516.794386
7012.604753
6553.861094
6136.373258
5756.342253
5410.175685
5094.632546
4806.801994
4544.059059
4303.938307
4084.274824
3883.105087
3698.657539
3529.330124
3373.695784
3230.449944
3098.420234
2976.538673
2863.874146
2759.549549
2662.799812
2572.91671
43595.29265
43248.13199
42515.04299
41458.6701
40130.38647
38582.32718
36865.13306
35027.5127
33114.96302
31167.19741
29218.87973
27299.07795
25431.17058
23633.22747
21918.66541
20296.4851
18772.1053
17348.03875
16024.50898
14799.64449
13670.17028
12632.03964
11680.14194
10809.16002
10013.73052
9288.054591
8626.772346
8024.548069
7476.296349
6977.370683
6523.221202
6109.777978
5733.307247
5390.24648
5077.42779
4792.00287
4531.354679
4293.073717
4075.026183
3875.277294
3692.0799
3523.854791
3369.195435
3226.80692
3095.535256
2974.32563
2862.255647
2758.461567
2662.184434
2572.722931
43031.68963
42690.09382
41968.64516
40929.0086
39622.24899
38098.49815
36408.61591
34599.98227
32717.01808
30799.27521
28880.84387
26990.18877
25150.31772
23379.19708
21689.78255
20090.9817
18588.25959
17184.12396
15878.87316
14670.50814
13555.9672
12531.32457
11591.44364
10731.26103
9945.369553
9228.157889
8574.421666
7978.815694
7436.431982
6942.649637
6493.017488
6083.570435
5710.582532
5370.578591
5060.442394
4777.387035
4518.803142
4282.33609
4065.88254
3867.53587
3685.572835
3518.441018
3364.740826
3223.199974
3092.678143
2972.133456
2860.652065
2757.38339
2661.574483
2572.530827
42477.25104
42141.08951
41431.10162
40408.0765
39122.36098
37622.67852
35959.53954
34179.43324
32325.85235
30437.65034
28548.5184
26686.55968
24874.38231
23129.47957
21464.71513
19888.9093
18407.48616
17023.07472
15735.66741
14543.52261
13443.74126
12432.25971
11504.1882
10654.61618
9878.095774
9169.233618
8522.877893
7933.775393
7397.165231
6908.431211
6463.240933
6057.724193
5688.162959
5351.167846
5043.679262
4762.952061
4506.402665
4271.724149
4056.84301
3859.880222
3679.13778
3513.084129
3360.331847
3219.629074
3089.848909
2969.962184
2859.063435
2756.315052
2660.969983
2572.340405
41931.78272
41600.97186
40902.26859
39896.01695
38630.58461
37154.94706
35517.77901
33765.74852
31941.0872
30082.0848
28221.87448
26388.10669
24603.0394
22883.905
21243.38978
19690.20192
18229.79388
16864.70282
15594.83897
14418.63809
13333.35949
12334.80976
11418.37393
10579.19649
9811.884133
9111.249783
8472.122943
7889.411868
7358.476419
6874.705532
6433.883375
6032.23281
5666.04356
5332.010371
5027.139109
4748.695718
4494.151613
4261.236729
4047.906788
3852.309816
3672.776888
3507.783943
3355.968414
3216.094199
3087.04757
2967.811847
2857.489796
2755.256585
2660.370954
2572.151673
41395.13842
41069.59587
40382.16535
39392.25201
38146.78663
36694.81365
35083.33824
33358.81155
31562.61359
29732.349
27900.60094
26094.572
24336.17769
22642.39511
21025.73448
19494.7938
18055.15046
16708.94969
15456.33294
14295.90163
13224.78275
12238.94017
11333.98608
10504.97449
9746.710742
9054.161741
8422.139492
7845.726527
7320.353744
6841.463061
6404.956013
6007.090232
5644.219608
5313.102527
5010.809072
4734.615941
4482.048484
4250.872769
4039.073153
3844.825142
3666.485508
3502.540312
3351.65047
3212.595348
3084.274155
2965.682489
2855.931712
2754.208026
2659.777423
2571.96464
40867.17472
40546.81947
39870.87762
38896.64394
37670.92303
36242.15409
34656.30542
32958.50579
31190.32252
29388.34025
27584.60083
25805.86583
24073.71434
22404.87251
20811.67694
19302.78794
17883.38939
16555.76095
15320.09988
14175.19067
13117.9705
12144.61622
11250.94489
10431.92372
9682.579538
8997.949959
8372.911037
7802.715688
7282.785961
6808.694691
6376.442682
5982.290714
5622.686625
5294.440881
4994.686564
4720.710817
4470.091902
4240.63131
4030.341466
3837.431334
3660.263418
3497.353135
3347.377991
3209.132546
3081.528715
2963.574169
2854.389674
2753.169422
2659.189418
2571.779316
40347.95188
40033.04346
39367.85709
38409.05832
37203.17484
35796.84172
34236.21098
32564.99961
30824.10671
29049.95705
27273.77878
25521.89941
23815.56693
22171.26053
20601.26908
19113.96918
17714.45198
16405.08546
15186.17953
14056.44025
13012.88423
12051.86716
11169.21943
10360.01804
9619.473314
8942.595667
8324.421823
7760.339452
7245.762348
6776.391749
6348.325916
5957.828796
5601.44037
5276.039126
4978.769187
4706.978595
4458.280624
4230.511508
4021.711184
3830.121483
3654.110451
3492.222357
3343.150996
3205.705853
3078.811327
2961.486966
2852.862781
2752.140825
2658.606973
2571.595713
39837.47958
39527.58402
38872.96728
37929.36246
36742.99966
35358.75214
33822.93707
32178.00151
30464.0833
28717.09953
26968.04134
25242.58605
23561.65639
21941.62191
20394.39546
18928.24574
17548.28031
16256.87105
15054.48552
13939.60824
12909.48564
11960.62513
11088.78092
10289.23245
9557.337508
8888.080814
8276.661014
7718.585334
7209.272679
6744.551759
6320.599146
5933.699321
5580.476873
5257.877922
4963.054734
4693.417724
4446.613636
4220.5128
4013.188415
3822.895202
3648.026436
3487.147943
3338.969528
3202.315355
3076.122097
2959.420983
2851.351124
2751.122303
2658.03013
2571.413845
39335.24877
39030.28687
38386.07409
37457.73539
36290.27299
34928.05872
33416.36584
31797.28919
30110.06699
28389.97047
26667.46625
24967.99911
23312.13121
21715.82699
20190.90174
18745.55443
17384.81683
16111.157
14924.92038
13824.65375
12807.7512
11870.82706
11009.60314
10219.57636
9496.151037
8834.38783
8229.651311
7677.441387
7173.307208
6713.184381
6293.25618
5909.897455
5559.792429
5239.953605
4947.541184
4680.026778
4435.089963
4210.634512
4004.768172
3815.75242
3642.011388
3482.129977
3334.833722
3198.961208
3073.461179
2957.376363
2849.85482
2750.113944
2657.458942
2571.23373
38841.12274
38541.01708
37907.04544
36993.90821
35844.87029
34504.50648
33016.38268
31422.75403
29761.80296
28068.20553
26371.9271
24698.00758
23066.69165
21493.71241
19990.72174
18565.83373
17224.0051
15967.84163
14797.43804
13711.53502
12707.70754
11782.44399
10931.66058
10151.02768
9435.894174
8781.500028
8183.336299
7636.896212
7137.856721
6682.258432
6266.291337
5886.41899
5539.395388
5222.26335
4932.226566
4666.804416
4423.708723
4200.878555
3996.44823
3808.693191
3636.06546
3477.168673
3330.743815
3195.643654
3070.828801
2955.353304
2848.374029
2749.115865
2656.89348
2571.055391
38354.9677
38059.64198
37436.08274
36537.5698
35406.66736
34087.80222
32623.09847
31054.28895
29419.18935
27751.66628
26081.18998
24432.40386
22825.24129
21275.2061
19793.78983
18389.02338
17065.93911
15826.83012
14671.99466
13600.21449
12609.24274
11695.44492
10854.92668
10083.52919
9376.548903
8729.401864
8137.702922
7596.939046
7102.91251
6651.766996
6239.699202
5863.259711
5519.278422
5204.804849
4917.10922
4653.749529
4412.469249
4191.248976
3988.228558
3801.71768
3630.188935
3472.264374
3326.700173
3192.363048
3068.225287
2953.35208
2846.908969
2748.128219
2656.333834
2570.878857
37876.65193
37586.20665
36972.87175
36088.59634
34975.78604
33677.82829
32236.33759
30691.78804
29082.1254
27440.2572
25795.16613
24171.10588
22587.70379
21060.23818
19600.04326
18215.15025
16910.41859
15688.07606
14548.55201
13490.74939
12512.32025
11609.7991
10779.42777
10017.06009
9318.098774
8678.124463
8092.737764
7557.559272
7068.495414
6621.703442
6213.474552
5840.415499
5499.430674
5187.576258
4902.187859
4640.861317
4401.371147
4181.738738
3980.109315
3794.826216
3624.382247
3467.417568
3322.703296
3189.119866
3065.651064
2951.373056
2845.459927
2747.151213
2655.780127
2570.704168
37406.40842
37120.71354
36517.12618
35646.86508
34552.07627
33274.46936
31855.81996
30335.50245
28750.51184
27133.88474
25513.76825
23914.03272
22354.0045
20848.74028
19409.48087
18044.1542
16757.38472
15551.53278
14427.06703
13383.0241
12416.90906
11525.47827
10705.10772
9951.599651
9260.52585
8627.608246
8048.429617
7518.74734
7034.571952
6592.061599
6187.612607
5817.889829
5479.849653
5170.575969
4887.461528
4628.139328
4390.421594
4172.348095
3972.090971
3788.019418
3618.646107
3462.629001
3318.753916
3185.914795
3063.106741
2949.41674
2844.0273
2746.185127
2655.232521
2570.531378
36943.8607
36662.71488
36068.7216
35212.25354
34135.19266
32877.61307
31481.43748
29984.97608
28424.51412
26832.45719
25236.9106
23661.10474
22124.06979
20640.72846
19222.10954
17875.89161
16606.78693
15417.1523
14307.58138
13276.98632
12322.97992
11442.46457
10631.92129
9887.127893
9203.813146
8577.837694
8004.767539
7480.494297
7001.130666
6562.835768
6162.109015
5795.686901
5460.533182
5153.802619
4872.929517
4615.583365
4379.617199
4163.077542
3964.174236
3781.29814
3612.981445
3457.899628
3314.852966
3182.748703
3060.593093
2947.483787
2842.611605
2745.230329
2654.691236
2570.360556
36488.75531
36212.08708
35627.53739
34785.09151
33725.0175
32487.505
31113.08407
29640.09485
28103.84275
26536.19001
24964.67116
23412.37563
21898.00794
20436.1655
19037.72972
17710.30654
16458.57535
15284.89018
14189.99672
13172.60093
12230.50312
11360.79138
10559.8462
9823.625727
9147.998899
8528.799979
7961.741561
7442.815448
6968.164292
6534.020539
6136.959847
5773.789161
5441.479537
5137.255311
4858.5916
4603.193733
4368.954854
4153.928096
3956.360349
3774.663759
3607.389709
3453.2309
3311.001844
3179.622881
3058.111256
2945.575145
2841.213576
2744.287333
2654.156566
2570.191797
36040.96907
35768.70763
35193.45809
34364.81046
33321.43713
32103.69738
30750.65449
29300.75845
27788.32505
26244.68103
24696.91356
23167.74609
21675.60131
20234.86277
18856.28048
17547.34462
16312.70298
15154.82209
14074.24312
13069.83179
12139.44807
11280.36296
10488.86001
9761.074087
9093.012038
8480.481801
7919.340631
7405.688659
6935.66592
6505.610465
6112.163925
5752.19353
5422.6867
5120.932941
4844.44749
4590.981367
4358.434685
4144.900344
3948.650207
3768.117379
3601.872122
3448.624091
3307.201813
3176.538529
3055.662322
2943.691757
2839.833976
2743.356694
2653.628846
2570.02521
35600.38136
35332.45734
34766.81484
33951.27806
32924.3385
31726.05005
30394.33868
28966.86599
27477.8643
25957.83796
24433.43493
22927.01871
21456.73343
20036.75337
18677.69998
17386.94935
16169.15536
15026.79457
13960.28099
12968.64369
12049.84829
11201.1502
10418.93816
9699.4632
9038.834609
8432.868254
7877.552166
7369.09277
6903.628012
6477.599733
6087.732904
5730.895903
5404.151835
5104.83364
4830.495993
4578.935036
4348.057059
4135.994933
3941.044724
3761.660115
3596.429935
3444.080518
3303.45419
3173.496903
3053.247426
2941.834585
2838.473553
2742.43893
2653.108365
2569.860884
35166.90819
34903.53725
34347.01604
33544.37781
32533.91872
31354.45226
30043.79861
28638.35495
27172.36101
25675.56644
24174.146
22690.10896
21241.32545
19841.76416
18501.92008
17229.05737
16027.93112
14900.7401
13848.0628
12868.99252
11961.62225
11123.11734
10350.04822
9638.798361
8985.44059
8385.935994
7836.380231
7333.009183
6872.033848
6449.972904
6063.633011
5709.883955
5385.863295
5088.946446
4816.730193
4567.044806
4337.8129
4127.203265
3933.535797
3755.284441
3591.056304
3439.594143
3299.753862
3170.493905
3050.863516
2940.00157
2837.131102
2741.534237
2652.594922
2569.698781
34740.6683
34481.4861
33933.79628
33143.85168
32149.68311
30988.66424
29698.72994
28315.26025
26871.6108
25397.67501
23918.86808
22456.85054
21029.22308
19649.75191
18328.80744
17073.68543
15888.81502
14776.5483
13737.48281
12770.82397
11874.64772
11046.17067
10282.09714
9578.940231
8932.737245
8339.591799
7795.720333
7297.343049
6840.787608
6422.634241
6039.767413
5689.061051
5367.725164
5073.177016
4803.06532
4555.222776
4327.619256
4118.448572
3926.054049
3748.929463
3585.699691
3435.123328
3296.069182
3167.507419
3048.496964
2938.18597
2835.804727
2740.642787
2652.089905
2569.539524
34218.65644
33964.59401
33427.70115
32653.47086
31679.02523
30540.71285
29275.9735
27919.38154
26503.40319
25057.15507
23605.94847
22170.87714
20769.14359
19414.32539
18116.64733
16883.08389
15718.12192
14624.15309
13601.78498
12650.4113
11767.93529
10951.78393
10198.82814
9505.580079
8868.195873
8282.896327
7746.044845
7253.84263
6802.758972
6389.481448
6010.890945
5663.964231
5345.966456
5054.365536
4786.872469
4541.323396
4315.744515
4108.359431
3917.539092
3741.800456
3579.788972
3430.281372
3292.161208
3164.412115
3046.104474
2936.397816
2834.532351
2739.808604
2651.62704
2569.395467
)
;

boundaryField
{
    front_top
    {
        type            wedge;
    }
    front_middle
    {
        type            wedge;
    }
    front_bottom
    {
        type            wedge;
    }
    back_top
    {
        type            wedge;
    }
    back_middle
    {
        type            wedge;
    }
    back_bottom
    {
        type            wedge;
    }
    axis_top
    {
        type            symmetryPlane;
    }
    axis_middle
    {
        type            symmetryPlane;
    }
    axis_bottom
    {
        type            symmetryPlane;
    }
    wall_top
    {
        type            calculated;
        value           nonuniform 0();
    }
    wall_middle
    {
        type            calculated;
        value           nonuniform 0();
    }
    wall_bottom
    {
        type            calculated;
        value           uniform 2530.329233;
    }
    inlet
    {
        type            calculated;
        value           nonuniform 0();
    }
    outlet
    {
        type            calculated;
        value           nonuniform List<scalar> 
50
(
34218.65644
33964.59401
33427.70115
32653.47086
31679.02523
30540.71285
29275.9735
27919.38154
26503.40319
25057.15507
23605.94847
22170.87714
20769.14359
19414.32539
18116.64733
16883.08389
15718.12192
14624.15309
13601.78498
12650.4113
11767.93529
10951.78393
10198.82814
9505.580079
8868.195873
8282.896327
7746.044845
7253.84263
6802.758972
6389.481448
6010.890945
5663.964231
5345.966456
5054.365536
4786.872469
4541.323396
4315.744515
4108.359431
3917.539092
3741.800456
3579.788972
3430.281372
3292.161208
3164.412115
3046.104474
2936.397816
2834.532351
2739.808604
2651.62704
2569.395467
)
;
    }
    procBoundary0to1
    {
        type            processor;
        value           nonuniform List<scalar> 
51
(
46558.64159
46182.15719
45387.14252
44241.76518
42802.3078
41124.88756
39265.39276
37276.43223
35207.12159
33101.47028
30996.47295
28923.68656
26908.47525
24970.50907
23124.01424
21378.56913
19739.96961
18032.40975
18032.40975
16632.82394
15338.70376
14146.85851
13052.43235
12050.08623
11134.22243
10298.62626
9537.487879
8844.736775
8214.716406
7642.05154
7121.526529
6648.491627
6218.464429
5827.37469
5471.579789
5147.599712
4852.359151
4583.109228
4337.308097
4112.660658
3907.113423
3718.818391
3546.105277
3387.483467
3241.601432
3107.246324
2983.310008
2868.818852
2762.872073
2664.678339
2573.508028
)
;
    }
}


// ************************************************************************* //
