/*--------------------------------*- C++ -*----------------------------------*\
  =========                 |
  \\      /  F ield         | OpenFOAM: The Open Source CFD Toolbox
   \\    /   O peration     | Website:  https://openfoam.org
    \\  /    A nd           | Version:  7
     \\/     M anipulation  |
\*---------------------------------------------------------------------------*/
FoamFile
{
    version     2.0;
    format      ascii;
    class       volScalarField;
    location    "0.0009";
    object      thermo:alpha;
}
// * * * * * * * * * * * * * * * * * * * * * * * * * * * * * * * * * * * * * //

dimensions      [1 -1 -1 0 0 0 0];

internalField   nonuniform List<scalar> 
1167
(
0.0001187880468
0.0001187757102
0.0001187492716
0.0001187102218
0.0001186594702
0.0001185977414
0.0001185199964
0.0001184317044
0.0001183322067
0.0001182171928
0.0001180933774
0.0001179615002
0.0001178210797
0.000117664667
0.0001175018404
0.0001173270452
0.0001171417654
0.0001187679337
0.0001187556058
0.0001187291863
0.0001186901836
0.0001186394771
0.0001185763643
0.0001184984766
0.0001184102957
0.0001183092768
0.0001181944228
0.0001180707935
0.0001179391304
0.0001177973556
0.0001176412383
0.0001174787435
0.0001173027843
0.000117117958
0.000116924853
0.0001167193036
0.0001165096064
0.0001162894352
0.0001160603238
0.0001158286833
0.0001155869667
0.0001153445648
0.000115090127
0.0001148367152
0.00011457334
0.000114311034
0.0001140420167
0.0001137733644
0.0001135085964
0.0001132383111
0.0001129671631
0.000112693025
0.0001124246049
0.0001121607777
0.0001118936158
0.0001116330585
0.0001113729913
0.0001111158309
0.0001108657899
0.0001106228828
0.0001103781253
0.0001101403002
0.0001099009421
0.0001096688353
0.0001094438549
0.000109225823
0.000109009299
0.0001187478414
0.0001187355229
0.0001187091239
0.0001186701747
0.0001186195116
0.000118554806
0.0001184769943
0.0001183889291
0.0001182863979
0.0001181717102
0.0001180482739
0.0001179168321
0.0001177737162
0.0001176179025
0.0001174557476
0.0001172786409
0.0001170942841
0.0001169001983
0.0001166952138
0.0001164847494
0.0001162666331
0.0001160355747
0.0001158047763
0.0001155639192
0.0001153212487
0.0001150677841
0.0001148153736
0.0001145520042
0.0001142907863
0.0001140219549
0.0001137544564
0.0001134908439
0.0001132209517
0.0001129502737
0.000112677362
0.0001124101498
0.0001121469551
0.0001118810029
0.0001116216277
0.0001113622921
0.0001111063008
0.0001108573968
0.0001106155948
0.0001103716686
0.0001101347943
0.0001098964461
0.0001096653944
0.0001094414361
0.0001092243946
0.0001090088129
0.0001187277709
0.0001187154624
0.0001186891041
0.0001186501916
0.0001185995746
0.000118533282
0.0001184555706
0.0001183676057
0.0001182635713
0.0001181490562
0.0001180258198
0.0001178946065
0.0001177501626
0.0001175946604
0.0001174328536
0.0001172546374
0.0001170707348
0.0001168756836
0.0001166712762
0.0001164600534
0.0001162439868
0.0001160121377
0.0001157810498
0.0001155410521
0.0001152981208
0.0001150456265
0.0001147932809
0.0001145308512
0.0001142707145
0.0001140020691
0.0001137357153
0.0001134732483
0.0001132037457
0.0001129335331
0.0001126618364
0.0001123958337
0.0001121332524
0.0001118684989
0.0001116102949
0.0001113516842
0.0001110968516
0.0001108490746
0.0001106081738
0.0001103652685
0.0001101292622
0.0001098919879
0.0001096619822
0.0001094390374
0.0001092229782
0.0001090083309
0.000118707723
0.000118695437
0.000118669112
0.0001186302353
0.0001185783846
0.0001185117933
0.0001184341887
0.0001183456815
0.0001182407982
0.000118126462
0.0001180034322
0.0001178724544
0.0001177266957
0.0001175715132
0.0001174090031
0.0001172307506
0.00011704731
0.0001168513086
0.0001166475014
0.000116435517
0.000116221495
0.0001159890677
0.0001157575014
0.0001155183696
0.0001152751786
0.0001150236512
0.0001147712482
0.0001145098785
0.0001142508161
0.0001139823568
0.0001137171386
0.0001134556391
0.0001131866911
0.0001129169398
0.000112646447
0.0001123816443
0.0001121196689
0.0001118561031
0.0001115990598
0.0001113411674
0.0001110874833
0.000110840825
0.0001106007328
0.0001103589225
0.0001101237768
0.0001098875717
0.0001096585988
0.0001094366589
0.0001092215737
0.000109007853
0.0001186877189
0.0001186754457
0.0001186491455
0.0001186103066
0.0001185568609
0.0001184903409
0.0001184128474
0.0001183228249
0.0001182180868
0.0001181039285
0.000117981112
0.0001178503768
0.0001177033164
0.0001175484762
0.0001173848067
0.0001172069807
0.0001170240093
0.0001168270773
0.0001166238714
0.0001164111395
0.0001161985394
0.0001159661624
0.0001157341285
0.000115495878
0.0001152524192
0.0001150018557
0.0001147493996
0.000114489084
0.0001142303341
0.0001139628151
0.0001136987243
0.0001134375645
0.0001131697859
0.0001129004919
0.0001126311924
0.0001123675791
0.0001121062039
0.0001118438151
0.0001115879221
0.0001113307414
0.0001110781956
0.000110832653
0.0001105933556
0.0001103526308
0.0001101183382
0.0001098831933
0.0001096552442
0.0001094343007
0.0001092201812
0.0001090073791
0.0001186677406
0.0001186554794
0.0001186292053
0.0001185900134
0.000118535371
0.0001184689321
0.0001183915478
0.0001183000181
0.0001181954463
0.0001180814725
0.0001179588695
0.0001178276294
0.0001176800471
0.0001175255429
0.00011736072
0.000117183328
0.0001170008326
0.0001168030037
0.0001166003857
0.0001163869203
0.0001161737253
0.0001159434194
0.0001157109286
0.0001154735592
0.0001152298402
0.0001149802498
0.0001147277325
0.0001144684654
0.0001142098441
0.0001139434422
0.0001136804702
0.000113419648
0.0001131530288
0.0001128841884
0.0001126160773
0.0001123536373
0.0001120928569
0.0001118316346
0.0001115768817
0.0001113204063
0.0001110689914
0.0001108245519
0.0001105860424
0.0001103463936
0.0001101129468
0.0001098788528
0.0001096519187
0.000109431963
0.0001092188007
0.0001090069094
0.0001186477875
0.000118635539
0.0001186092925
0.0001185684968
0.0001185139158
0.0001184475778
0.0001183702907
0.0001182772623
0.0001181728623
0.0001180590872
0.0001179367106
0.0001178041442
0.0001176568688
0.0001175027056
0.0001173367433
0.0001171597925
0.0001169771985
0.0001167790677
0.0001165770434
0.0001163628576
0.0001161490794
0.0001159208375
0.0001156879082
0.000115451411
0.0001152074392
0.0001149588275
0.0001147062445
0.0001144480202
0.0001141895287
0.0001139242361
0.0001136623746
0.0001134018878
0.0001131364185
0.0001128680281
0.0001126011042
0.0001123398182
0.0001120796275
0.0001118195614
0.0001115659383
0.000111310162
0.0001110598741
0.0001108165219
0.0001105787934
0.0001103402112
0.0001101076026
0.0001098745503
0.0001096486224
0.0001094296458
0.0001092174324
0.0001090064438
0.0001186278605
0.0001186156253
0.0001185889322
0.0001185470129
0.0001184924962
0.0001184262628
0.0001183486421
0.0001182545583
0.0001181503359
0.0001180367655
0.0001179146218
0.0001177807411
0.0001176337796
0.0001174799646
0.0001173128769
0.0001171363745
0.0001169528403
0.0001167552683
0.0001165538427
0.0001163400773
0.0001161246007
0.0001158984153
0.0001156650702
0.0001154294313
0.0001151852139
0.0001149375775
0.0001146849332
0.0001144277536
0.0001141693859
0.0001139051951
0.0001136444476
0.0001133842828
0.000113119954
0.0001128520102
0.0001125862634
0.0001123261214
0.0001120665152
0.0001118075951
0.000111555092
0.0001113000099
0.0001110508378
0.0001108085632
0.0001105716087
0.0001103340837
0.000110102306
0.0001098702862
0.0001096453565
0.0001094273492
0.0001092160763
0.0001090059823
0.0001186079605
0.0001185957393
0.0001185674322
0.0001185255626
0.0001184711172
0.000118404988
0.0001183258548
0.0001182319071
0.0001181278679
0.0001180145083
0.0001178926038
0.0001177574208
0.0001176107802
0.0001174573202
0.0001172891209
0.0001171130943
0.0001169286127
0.000116731605
0.0001165307828
0.0001163176835
0.0001161002874
0.0001158761512
0.0001156423996
0.0001154076183
0.0001151631715
0.0001149164979
0.0001146637966
0.0001144076684
0.0001141494139
0.0001138863175
0.0001136266825
0.0001133668316
0.0001131036344
0.0001128361339
0.0001125715543
0.0001123125465
0.0001120535199
0.0001117957359
0.0001115443429
0.0001112899576
0.0001110418826
0.0001108006761
0.0001105644888
0.0001103280113
0.0001100970571
0.0001098660605
0.0001096421221
0.0001094250733
0.0001092147324
0.000109005525
0.0001185875034
0.0001185742859
0.0001185459644
0.0001185041469
0.0001184497941
0.0001183837545
0.0001183031163
0.0001182093257
0.0001181054592
0.0001179923163
0.0001178706571
0.0001177341838
0.0001175878708
0.0001174347727
0.000117265489
0.000117089934
0.0001169045152
0.0001167080773
0.0001165070136
0.000116295433
0.000116076138
0.000115853223
0.0001156198942
0.00011538597
0.0001151413118
0.0001148955867
0.0001146428326
0.0001143877506
0.0001141296109
0.0001138676019
0.0001136090716
0.0001133495332
0.0001130874587
0.000112820413
0.0001125569765
0.0001122990934
0.0001120406416
0.0001117839837
0.0001115336911
0.0001112799967
0.0001110330089
0.0001107928608
0.0001105574338
0.0001103219945
0.0001100918562
0.0001098618735
0.0001096389175
0.0001094228184
0.0001092134009
0.0001090050719
0.0001185660166
0.0001185528156
0.00011852453
0.0001184827668
0.0001184285095
0.0001183625629
0.0001182804274
0.0001181868054
0.0001180831245
0.0001179701902
0.0001178487825
0.0001177110307
0.0001175650522
0.0001174114136
0.0001172419765
0.0001170668899
0.0001168805473
0.0001166846846
0.0001164828975
0.0001162733248
0.0001160521508
0.0001158300537
0.0001155975522
0.0001153644845
0.0001151196217
0.000114874842
0.0001146220414
0.0001143679982
0.0001141099753
0.0001138490502
0.0001135916135
0.0001133323866
0.0001130714263
0.0001128048332
0.0001125425298
0.0001122857619
0.0001120278804
0.000111772339
0.0001115228142
0.0001112701271
0.000111024217
0.0001107851178
0.0001105504442
0.0001103160337
0.0001100867039
0.0001098577256
0.0001096357427
0.0001094205846
0.0001092120819
0.0001090046231
0.0001185445618
0.000118531378
0.0001185031296
0.0001184614371
0.0001184072643
0.0001183403937
0.000118257789
0.0001181643404
0.00011806086
0.0001179481511
0.0001178261361
0.0001176879754
0.0001175423454
0.000117387575
0.0001172185736
0.0001170439615
0.0001168567085
0.0001166614408
0.0001164589276
0.0001162513576
0.0001160285177
0.0001158070464
0.0001155753725
0.0001153426149
0.0001150980991
0.000114854262
0.0001146014375
0.0001143484099
0.0001140905058
0.0001138306715
0.0001135743075
0.0001133153911
0.0001130555367
0.0001127893934
0.0001125282139
0.000112272552
0.0001120152365
0.000111760802
0.0001115119399
0.0001112603495
0.0001110155074
0.0001107774476
0.0001105435206
0.0001103101292
0.0001100816004
0.0001098536172
0.0001096325982
0.000109418372
0.0001092107754
0.0001090041785
0.0001185231399
0.0001185099739
0.0001184817644
0.0001184401531
0.0001183860594
0.0001183176756
0.0001182352018
0.0001181419317
0.0001180386572
0.0001179261821
0.0001178028621
0.0001176650149
0.0001175197311
0.0001173638398
0.0001171952803
0.0001170211485
0.0001168329978
0.000116638337
0.0001164351026
0.0001162295299
0.0001160061352
0.0001157841999
0.0001155533538
0.0001153203379
0.0001150767422
0.000114833845
0.000114581001
0.0001143289842
0.000114071201
0.0001138124511
0.0001135571528
0.0001132985463
0.0001130393807
0.0001127740932
0.0001125140288
0.000112259464
0.0001120027102
0.0001117493759
0.0001115011682
0.0001112506646
0.0001110068808
0.0001107698509
0.0001105366636
0.0001103042819
0.0001100765464
0.0001098495487
0.0001096294843
0.0001094161811
0.0001092094817
0.0001090037383
0.0001185017517
0.0001184886044
0.0001184604504
0.0001184189072
0.0001183648956
0.0001182950055
0.0001182126797
0.00011811958
0.0001180165166
0.0001179042809
0.0001177796668
0.0001176421392
0.0001174972077
0.000117340208
0.0001171720963
0.0001169984505
0.0001168094371
0.0001166153653
0.0001164114216
0.000116207841
0.000115983902
0.0001157615126
0.0001155314944
0.0001152982275
0.0001150555499
0.0001148135898
0.0001145607304
0.0001143097199
0.0001140520599
0.0001137943881
0.0001135401488
0.0001132818518
0.0001130230973
0.0001127589326
0.0001124999746
0.0001122464981
0.0001119903018
0.0001117380666
0.0001114904998
0.0001112410733
0.0001109983382
0.0001107623287
0.0001105298743
0.0001102984924
0.0001100715426
0.0001098455208
0.0001096264016
0.0001094140121
0.000109208201
0.0001090033025
0.0001184803983
0.0001184672782
0.0001184391804
0.0001183977005
0.0001183429335
0.0001182723841
0.0001181902203
0.0001180972861
0.0001179944389
0.000117882448
0.0001177565507
0.0001176193486
0.0001174747753
0.0001173166796
0.0001171490218
0.0001169751666
0.0001167860041
0.0001165925251
0.0001163878843
0.0001161841488
0.0001159618159
0.0001157389826
0.0001155098077
0.0001152762824
0.0001150345212
0.0001147925278
0.0001145406242
0.0001142906157
0.0001140330976
0.0001137764817
0.0001135232949
0.0001132653071
0.0001130069623
0.0001127439118
0.0001124860518
0.000112233655
0.0001119780124
0.0001117268667
0.0001114799357
0.0001112315769
0.0001109898808
0.000110754882
0.0001105231536
0.0001102927619
0.0001100665902
0.0001098415343
0.0001096233506
0.0001094118655
0.0001092069336
0.0001090028713
0.000118459097
0.0001184460026
0.0001184179482
0.0001183765339
0.0001183202433
0.0001182498123
0.0001181678145
0.000118075073
0.0001179724247
0.0001178606839
0.000117733514
0.0001175966433
0.0001174524341
0.0001172932546
0.0001171260639
0.0001169512974
0.0001167626971
0.0001165698154
0.0001163644894
0.0001161601981
0.0001159398761
0.0001157166084
0.0001154882834
0.0001152545011
0.0001150136547
0.0001147715958
0.0001145206815
0.0001142716709
0.0001140142995
0.0001137587315
0.0001135065908
0.0001132489172
0.0001129909757
0.0001127290315
0.0001124722612
0.0001122209354
0.0001119658509
0.0001117157777
0.0001114694776
0.0001112221767
0.0001109815101
0.0001107475125
0.0001105165033
0.0001102870919
0.0001100616903
0.0001098375905
0.0001096203324
0.000109409742
0.0001092056798
0.0001090024447
0.0001184378379
0.0001184247642
0.0001183967547
0.0001183554081
0.0001182975999
0.0001182272908
0.0001181454633
0.0001180529198
0.0001179504923
0.0001178389889
0.0001177105572
0.0001175740236
0.0001174301842
0.0001172699424
0.0001171032311
0.0001169275489
0.0001167395155
0.0001165472352
0.0001163422323
0.0001161363995
0.0001159180818
0.0001156943913
0.000115466914
0.0001152328822
0.0001149929491
0.0001147508301
0.0001145009016
0.0001142528847
0.0001139956627
0.0001137411369
0.0001134900365
0.0001132326879
0.0001129751381
0.0001127142924
0.0001124586037
0.0001122083408
0.000111953815
0.0001117048011
0.000111459127
0.0001112128746
0.000110973228
0.0001107402221
0.0001105099251
0.000110281484
0.0001100568446
0.0001098336906
0.0001096173481
0.0001094076425
0.0001092044401
0.0001090020229
0.0001184166163
0.000118403564
0.0001183756008
0.0001183327614
0.0001182750042
0.0001182048412
0.0001181231673
0.0001180308263
0.0001179286297
0.0001178158354
0.0001176876942
0.0001175515017
0.0001174068315
0.0001172467464
0.0001170805063
0.0001169039205
0.0001167164586
0.0001165247836
0.0001163204424
0.0001161127518
0.0001158964321
0.0001156723463
0.0001154456983
0.0001152114247
0.0001149724233
0.0001147302298
0.0001144812841
0.000114233653
0.0001139771865
0.0001137236979
0.0001134736319
0.0001132166088
0.0001129594503
0.0001126996956
0.0001124450807
0.0001121958726
0.0001119419023
0.000111693939
0.0001114488865
0.0001112036734
0.0001109650372
0.0001107330133
0.0001105034218
0.0001102759409
0.0001100520556
0.0001098298367
0.0001096143993
0.000109405568
0.0001092032154
0.0001090016061
0.0001183954329
0.0001183824027
0.0001183544659
0.0001183101114
0.0001182524569
0.0001181824453
0.0001181009273
0.0001180087932
0.0001179068322
0.0001177927473
0.0001176649213
0.000117529076
0.0001173832976
0.0001172236527
0.0001170578891
0.0001168804116
0.0001166935259
0.0001165012937
0.0001162987829
0.0001160892533
0.0001158749254
0.0001156504534
0.000115424635
0.0001151901272
0.000114952056
0.0001147097938
0.000114461828
0.0001142143027
0.0001139588705
0.0001137064142
0.00011345728
0.0001132006801
0.0001129439127
0.000112685242
0.0001124316936
0.0001121830298
0.0001119301142
0.0001116831933
0.0001114387582
0.0001111945751
0.0001109569401
0.0001107258887
0.0001104969959
0.0001102704649
0.0001100473255
0.0001098260309
0.0001096114876
0.0001094035199
0.0001092020062
0.0001090011947
0.0001183742887
0.0001183612812
0.0001183317831
0.0001182875078
0.0001182299589
0.0001181601019
0.0001180787621
0.0001179868208
0.0001178851
0.0001177697342
0.0001176422286
0.0001175067357
0.0001173598603
0.0001172006607
0.0001170353786
0.0001168570212
0.000116670722
0.0001164777951
0.0001162772526
0.0001160659024
0.0001158527126
0.0001156287103
0.0001154037219
0.0001151689913
0.0001149318452
0.0001146895202
0.0001144425314
0.0001141951159
0.0001139407137
0.0001136892851
0.0001134404415
0.0001131849011
0.0001129285253
0.0001126709318
0.0001124184429
0.0001121703089
0.0001119184524
0.0001116725656
0.000111428744
0.000111185582
0.0001109489389
0.0001107188506
0.0001104906498
0.0001102650585
0.0001100426566
0.0001098222751
0.0001096086147
0.0001094014993
0.0001092008134
0.0001090007889
0.0001183530637
0.0001183390872
0.0001183091453
0.0001182649513
0.0001182075286
0.0001181378116
0.0001180566584
0.000117964912
0.0001178634329
0.0001177467957
0.0001176196154
0.0001174844799
0.0001173365183
0.000117177769
0.000117012973
0.0001168337467
0.0001166480536
0.000116454427
0.0001162558483
0.0001160426951
0.0001158303081
0.0001156071126
0.0001153829544
0.0001151480239
0.0001149117856
0.0001146694033
0.0001144234002
0.0001141760865
0.0001139227099
0.0001136723041
0.000113423752
0.0001131692649
0.0001129132804
0.0001126567571
0.0001124053236
0.0001121577134
0.0001119069078
0.0001116620466
0.0001114188342
0.0001111766843
0.0001109410243
0.0001107118901
0.0001104843753
0.0001102597145
0.0001100380433
0.0001098185654
0.0001096057781
0.0001093995067
0.0001091996364
0.0001090003885
0.0001183303824
0.0001183164316
0.0001182865452
0.0001182424345
0.0001181851451
0.0001181155667
0.0001180346036
0.0001179430762
0.000117841823
0.0001177239233
0.000117597073
0.0001174622996
0.0001173132618
0.0001171549674
0.0001169906617
0.0001168105977
0.0001166254926
0.0001164311755
0.0001162345556
0.0001160202802
0.0001158080295
0.0001155856394
0.000115362309
0.0001151271816
0.0001148918464
0.0001146494068
0.0001144043893
0.0001141571674
0.0001139048071
0.0001136554147
0.0001134071466
0.0001131537015
0.0001128980997
0.0001126426351
0.0001123922559
0.0001121451511
0.0001118953876
0.0001116515451
0.0001114089375
0.0001111677974
0.0001109331205
0.0001107049429
0.0001104781189
0.0001102543939
0.0001100334592
0.0001098148882
0.0001096029739
0.0001093975424
0.0001091984784
0.0001089999951
0.0001183021591
0.0001182882406
0.0001182584245
0.0001182144303
0.000118157298
0.0001180879041
0.0001180071722
0.0001179159212
0.0001178132535
0.0001176954937
0.0001175690533
0.0001174347355
0.0001172843664
0.0001171266508
0.0001169614489
0.0001167818593
0.000116597491
0.0001164023272
0.0001162081485
0.0001159932226
0.0001157804302
0.0001155590564
0.0001153358908
0.0001151014265
0.0001148672375
0.0001146247638
0.0001143810026
0.0001141339431
0.0001138828865
0.000113634818
0.0001133869497
0.0001131348531
0.0001128798076
0.0001126257199
0.0001123767131
0.0001121303313
0.0001118819265
0.0001116394097
0.0001113976466
0.0001111578065
0.0001109243826
0.0001106974067
0.0001104714742
0.0001102488731
0.0001100288205
0.0001098112639
0.0001096002824
0.0001093957037
0.0001091974169
0.0001089996392
)
;

boundaryField
{
    front_top
    {
        type            wedge;
    }
    front_middle
    {
        type            wedge;
    }
    front_bottom
    {
        type            wedge;
    }
    back_top
    {
        type            wedge;
    }
    back_middle
    {
        type            wedge;
    }
    back_bottom
    {
        type            wedge;
    }
    axis_top
    {
        type            symmetryPlane;
    }
    axis_middle
    {
        type            symmetryPlane;
    }
    axis_bottom
    {
        type            symmetryPlane;
    }
    wall_top
    {
        type            calculated;
        value           nonuniform 0();
    }
    wall_middle
    {
        type            calculated;
        value           nonuniform 0();
    }
    wall_bottom
    {
        type            calculated;
        value           uniform 0.0001089022317;
    }
    inlet
    {
        type            calculated;
        value           nonuniform 0();
    }
    outlet
    {
        type            calculated;
        value           nonuniform List<scalar> 
50
(
0.0001183021591
0.0001182882406
0.0001182584245
0.0001182144303
0.000118157298
0.0001180879041
0.0001180071722
0.0001179159212
0.0001178132535
0.0001176954937
0.0001175690533
0.0001174347355
0.0001172843664
0.0001171266508
0.0001169614489
0.0001167818593
0.000116597491
0.0001164023272
0.0001162081485
0.0001159932226
0.0001157804302
0.0001155590564
0.0001153358908
0.0001151014265
0.0001148672375
0.0001146247638
0.0001143810026
0.0001141339431
0.0001138828865
0.000113634818
0.0001133869497
0.0001131348531
0.0001128798076
0.0001126257199
0.0001123767131
0.0001121303313
0.0001118819265
0.0001116394097
0.0001113976466
0.0001111578065
0.0001109243826
0.0001106974067
0.0001104714742
0.0001102488731
0.0001100288205
0.0001098112639
0.0001096002824
0.0001093957037
0.0001091974169
0.0001089996392
)
;
    }
    procBoundary0to1
    {
        type            processor;
        value           nonuniform List<scalar> 
51
(
0.00011880818
0.0001187958353
0.000118769379
0.0001187303016
0.00011867949
0.0001186177113
0.0001185415524
0.0001184531542
0.0001183551568
0.0001182400333
0.0001181160447
0.0001179839577
0.000117844487
0.0001176881875
0.0001175250378
0.0001173514222
0.0001171657132
0.0001169496482
0.0001169496482
0.0001167435411
0.000116533946
0.0001163123949
0.0001160852533
0.0001158527728
0.0001156101972
0.0001153673459
0.0001151126574
0.0001148582402
0.0001145948624
0.000114331461
0.0001140622698
0.0001137924419
0.0001135265083
0.0001132558277
0.0001129842034
0.0001127088272
0.0001124391876
0.0001121747214
0.0001119063381
0.0001116445877
0.0001113837819
0.0001111254419
0.000110874254
0.0001106302321
0.0001103846404
0.0001101457244
0.0001099054755
0.0001096723047
0.0001094462938
0.0001092272632
0.0001090097891
)
;
    }
}


// ************************************************************************* //
