/*--------------------------------*- C++ -*----------------------------------*\
  =========                 |
  \\      /  F ield         | OpenFOAM: The Open Source CFD Toolbox
   \\    /   O peration     | Website:  https://openfoam.org
    \\  /    A nd           | Version:  7
     \\/     M anipulation  |
\*---------------------------------------------------------------------------*/
FoamFile
{
    version     2.0;
    format      ascii;
    class       volVectorField;
    location    "0.0009";
    object      U;
}
// * * * * * * * * * * * * * * * * * * * * * * * * * * * * * * * * * * * * * //

dimensions      [0 1 -1 0 0 0 0];

internalField   nonuniform List<vector> 
1167
(
(-1.244820085e-06 1.097942301e-17 -0.05026977229)
(-3.250647798e-06 1.673047042e-18 -0.05026866802)
(-5.153097573e-06 1.635250328e-18 -0.05026625794)
(-7.13400626e-06 -2.72242225e-18 -0.05026261369)
(-9.128491344e-06 -4.19760824e-18 -0.05025770158)
(-1.112789438e-05 -8.09798206e-18 -0.05025144765)
(-1.313771855e-05 -1.003992747e-17 -0.05024373017)
(-1.516340875e-05 -1.080135572e-17 -0.05023437503)
(-1.720825345e-05 -1.113196945e-17 -0.05022314099)
(-1.927314644e-05 -1.422374161e-17 -0.05020970252)
(-2.135808903e-05 -1.495070675e-17 -0.05019362846)
(-2.346253294e-05 -1.545913817e-17 -0.0501743551)
(-2.558445201e-05 -1.522491818e-17 -0.05015115606)
(-2.772000772e-05 -1.608664926e-17 -0.05012311009)
(-2.986365074e-05 -1.787570588e-17 -0.05008906798)
(-3.200864177e-05 -1.960222192e-17 -0.05004761845)
(-3.414740113e-05 -2.028066024e-17 -0.04999705292)
(-1.158470868e-06 -1.725883105e-18 -0.05028283022)
(-3.025508272e-06 -1.78723144e-18 -0.05028174531)
(-4.798432637e-06 3.169515921e-19 -0.05027937567)
(-6.64837168e-06 -3.010239356e-18 -0.05027578987)
(-8.514945613e-06 -1.00701421e-17 -0.05027095308)
(-1.039134542e-05 -1.116029763e-17 -0.05026478882)
(-1.228333457e-05 -1.28041767e-17 -0.05025717284)
(-1.419584712e-05 -1.174126036e-17 -0.05024792727)
(-1.613296665e-05 -1.057045341e-17 -0.05023680782)
(-1.809590321e-05 -1.40078238e-17 -0.05022348546)
(-2.008441597e-05 -1.674273546e-17 -0.0502075245)
(-2.20970891e-05 -1.758257441e-17 -0.05018835646)
(-2.413086347e-05 -1.685243698e-17 -0.05016525029)
(-2.618105649e-05 -1.618578651e-17 -0.0501372802)
(-2.824150718e-05 -1.678291537e-17 -0.05010329217)
(-3.030486217e-05 -1.68749128e-17 -0.05006186958)
(-3.23631392e-05 -1.750036255e-17 -0.05001129769)
(-3.440579547e-05 -1.902321555e-17 -0.04994952711)
(-3.641902455e-05 -2.016817753e-17 -0.04987413418)
(-3.838787138e-05 -2.095412156e-17 -0.04978227722)
(-4.029419533e-05 -2.144349114e-17 -0.04967065302)
(-4.211559625e-05 -2.186222116e-17 -0.04953545299)
(-4.382742632e-05 -2.20595279e-17 -0.04937231793)
(-4.540139015e-05 -2.222146793e-17 -0.04917629795)
(-4.680637502e-05 -2.233380531e-17 -0.04894181529)
(-4.800961304e-05 -2.249667485e-17 -0.04866263387)
(-4.897660943e-05 -2.275828187e-17 -0.04833183703)
(-4.967368638e-05 -2.239065531e-17 -0.04794181272)
(-5.006792033e-05 -2.201189035e-17 -0.04748425189)
(-5.012879175e-05 -2.12915518e-17 -0.04695015512)
(-4.982984905e-05 -2.062800393e-17 -0.04632985406)
(-4.914957879e-05 -2.049390828e-17 -0.04561304456)
(-4.807351545e-05 -2.009497235e-17 -0.0447888291)
(-4.659442464e-05 -1.948132729e-17 -0.04384577468)
(-4.471339842e-05 -1.897477176e-17 -0.04277197737)
(-4.244121943e-05 -1.829976459e-17 -0.04155513597)
(-3.979923614e-05 -1.74575336e-17 -0.04018264026)
(-3.681892646e-05 -1.643392644e-17 -0.03864166004)
(-3.354236679e-05 -1.576824437e-17 -0.03691923464)
(-3.002239747e-05 -1.438263093e-17 -0.03500236996)
(-2.63224549e-05 -1.404194602e-17 -0.03287813532)
(-2.251627094e-05 -1.225839901e-17 -0.03053375776)
(-1.868747922e-05 -1.102851789e-17 -0.02795671325)
(-1.49291074e-05 -9.596316356e-18 -0.02513481204)
(-1.134253813e-05 -8.081394516e-18 -0.02205627427)
(-8.035685173e-06 -7.306497152e-18 -0.01870979423)
(-5.121930461e-06 -5.117404053e-18 -0.01508459433)
(-2.730678054e-06 -3.721894464e-18 -0.0111704544)
(-1.035221202e-06 -2.29148956e-18 -0.006957683704)
(-1.866784678e-07 -7.870756758e-19 -0.002436937236)
(-1.069374697e-06 -1.596515358e-17 -0.05029539634)
(-2.793339264e-06 -1.167834148e-17 -0.05029433189)
(-4.433305879e-06 -1.358733367e-17 -0.05029200506)
(-6.147879255e-06 -1.180656988e-17 -0.0502884814)
(-7.881738298e-06 -1.348853198e-17 -0.05028372496)
(-9.630303981e-06 -1.218689053e-17 -0.0502776561)
(-1.140023106e-05 -1.219564942e-17 -0.05027014849)
(-1.319580394e-05 -1.304743966e-17 -0.05026102011)
(-1.502075218e-05 -1.435495274e-17 -0.05025002297)
(-1.687689034e-05 -1.341246333e-17 -0.05023682401)
(-1.876380414e-05 -1.471215813e-17 -0.05022098302)
(-2.067957096e-05 -1.613069505e-17 -0.05020192656)
(-2.262051379e-05 -1.751253121e-17 -0.05017891844)
(-2.458125713e-05 -1.742839667e-17 -0.05015102775)
(-2.655501054e-05 -1.748327144e-17 -0.05011709535)
(-2.853421032e-05 -1.73309355e-17 -0.05007569918)
(-3.050981906e-05 -1.835089923e-17 -0.05002511884)
(-3.246997824e-05 -1.91167374e-17 -0.04996329887)
(-3.440110054e-05 -1.965337234e-17 -0.04988780722)
(-3.628862082e-05 -2.001175273e-17 -0.0497957926)
(-3.811432879e-05 -2.015598653e-17 -0.04968394175)
(-3.985674918e-05 -2.000753887e-17 -0.04954843423)
(-4.149230571e-05 -2.056882725e-17 -0.04938489869)
(-4.299382309e-05 -2.089865457e-17 -0.04918837366)
(-4.433241405e-05 -2.105127178e-17 -0.04895327039)
(-4.547713649e-05 -2.105244812e-17 -0.04867334366)
(-4.639574286e-05 -2.10911897e-17 -0.04834166923)
(-4.705672767e-05 -2.080838922e-17 -0.04795063104)
(-4.742924209e-05 -2.032055529e-17 -0.0474919198)
(-4.748531119e-05 -2.023203998e-17 -0.04695653982)
(-4.720024727e-05 -2.005929897e-17 -0.04633483128)
(-4.655399206e-05 -1.977265457e-17 -0.04561650271)
(-4.553337742e-05 -1.937889553e-17 -0.04479067536)
(-4.413180312e-05 -1.888524397e-17 -0.04384593984)
(-4.235043169e-05 -1.830366238e-17 -0.04277041976)
(-4.019971682e-05 -1.762444879e-17 -0.04155184698)
(-3.769964256e-05 -1.683912038e-17 -0.04017764951)
(-3.487976691e-05 -1.594012512e-17 -0.03863503895)
(-3.177965268e-05 -1.492978207e-17 -0.03691109898)
(-2.844899055e-05 -1.40846932e-17 -0.03499288367)
(-2.494747368e-05 -1.318116912e-17 -0.03286751335)
(-2.134456737e-05 -1.203759206e-17 -0.03052226829)
(-1.771925392e-05 -1.047504575e-17 -0.02794467937)
(-1.415946535e-05 -9.232775601e-18 -0.02512261317)
(-1.076113013e-05 -7.926686028e-18 -0.02204434629)
(-7.626432476e-06 -6.584502555e-18 -0.01869862897)
(-4.862965553e-06 -5.219275672e-18 -0.01507474037)
(-2.593775188e-06 -4.78332414e-18 -0.01116251746)
(-9.839649396e-07 -2.335251674e-18 -0.006952326287)
(-1.776215848e-07 -8.011203784e-19 -0.002434879889)
(-9.778966573e-07 -3.637900588e-18 -0.05030745599)
(-2.555234393e-06 -6.754033476e-18 -0.05030641282)
(-4.058752158e-06 -9.105474697e-18 -0.05030413098)
(-5.633746084e-06 -1.129903875e-17 -0.05030067352)
(-7.231230479e-06 -7.8157532e-18 -0.05029600218)
(-8.848213879e-06 -8.991667285e-18 -0.0502900342)
(-1.049180697e-05 -9.246239013e-18 -0.05028264093)
(-1.216654004e-05 -1.179915385e-17 -0.05027363708)
(-1.387530409e-05 -1.393396003e-17 -0.05026276978)
(-1.562023133e-05 -1.324725853e-17 -0.0502497016)
(-1.740105673e-05 -1.250657989e-17 -0.05023398747)
(-1.921547519e-05 -1.330275996e-17 -0.05021504868)
(-2.105924819e-05 -1.546688823e-17 -0.05019214363)
(-2.292646185e-05 -1.737201009e-17 -0.05016433607)
(-2.481012838e-05 -1.786997127e-17 -0.05013046141)
(-2.670214653e-05 -1.869921816e-17 -0.05008909241)
(-2.859204097e-05 -1.974907187e-17 -0.05003850376)
(-3.046749889e-05 -1.959111502e-17 -0.04997663355)
(-3.231579638e-05 -1.961374941e-17 -0.04990104199)
(-3.41220282e-05 -1.972740236e-17 -0.04980886923)
(-3.58678438e-05 -1.986163007e-17 -0.04969679261)
(-3.753333184e-05 -1.998347672e-17 -0.04956098111)
(-3.90957135e-05 -2.012004577e-17 -0.04939705275)
(-4.052888876e-05 -2.019535515e-17 -0.04920003502)
(-4.18058176e-05 -2.016189815e-17 -0.04896432916)
(-4.289736213e-05 -1.997444372e-17 -0.04868368181)
(-4.377369373e-05 -1.955615988e-17 -0.04835116228)
(-4.440509437e-05 -1.963710138e-17 -0.04795915118)
(-4.476254405e-05 -1.954171838e-17 -0.04749933855)
(-4.482026318e-05 -1.978474315e-17 -0.04696273257)
(-4.455532507e-05 -1.946984237e-17 -0.04633968163)
(-4.394913539e-05 -1.911787135e-17 -0.0456199062)
(-4.298946772e-05 -1.871167562e-17 -0.04479254507)
(-4.167019457e-05 -1.824067312e-17 -0.04384621088)
(-3.999250539e-05 -1.769641949e-17 -0.04276905305)
(-3.796648624e-05 -1.707344796e-17 -0.04154883499)
(-3.56107052e-05 -1.63690294e-17 -0.04017302037)
(-3.295280007e-05 -1.55812976e-17 -0.03862885912)
(-3.002986775e-05 -1.471512782e-17 -0.03690347718)
(-2.68885244e-05 -1.377866778e-17 -0.03498397415)
(-2.358482511e-05 -1.275991075e-17 -0.03285751862)
(-2.018412891e-05 -1.164219146e-17 -0.03051144131)
(-1.67609051e-05 -1.040412875e-17 -0.02793332574)
(-1.339801903e-05 -9.188658454e-18 -0.02511109206)
(-1.018607824e-05 -7.923003142e-18 -0.02203307033)
(-7.2217395e-06 -5.739950886e-18 -0.01868806447)
(-4.606894285e-06 -5.241965631e-18 -0.01506540836)
(-2.458412005e-06 -3.830600061e-18 -0.01115499439)
(-9.332864673e-07 -2.339447832e-18 -0.006947243812)
(-1.686667319e-07 -8.004415145e-19 -0.002432926117)
(-8.848733856e-07 -1.915538412e-18 -0.05031899574)
(-2.312742667e-06 -3.050293996e-18 -0.05031797481)
(-3.675927959e-06 -5.117181069e-18 -0.05031574055)
(-5.107506417e-06 -6.699635077e-18 -0.05031235285)
(-6.565563441e-06 -7.455377234e-18 -0.0503077708)
(-8.047720032e-06 -8.502911647e-18 -0.05030190917)
(-9.560837283e-06 -9.903761463e-18 -0.05029463605)
(-1.111088918e-05 -1.120117866e-17 -0.05028576317)
(-1.270022267e-05 -1.232590458e-17 -0.0502750329)
(-1.433015508e-05 -1.308729189e-17 -0.05026210255)
(-1.600073434e-05 -1.37225912e-17 -0.05024652182)
(-1.770957366e-05 -1.415418087e-17 -0.05022770659)
(-1.945202127e-05 -1.466731184e-17 -0.05020490962)
(-2.122203588e-05 -1.517877382e-17 -0.05017718895)
(-2.301225418e-05 -1.589406148e-17 -0.05014337475)
(-2.481321533e-05 -1.657983775e-17 -0.05010203514)
(-2.661386534e-05 -1.717528289e-17 -0.05005143971)
(-2.840243603e-05 -1.768365987e-17 -0.04998952016)
(-3.016643245e-05 -1.818472501e-17 -0.04991382961)
(-3.189057832e-05 -1.862149376e-17 -0.04982150098)
(-3.355684469e-05 -1.897786893e-17 -0.04970920249)
(-3.514637709e-05 -1.925232932e-17 -0.04957309342)
(-3.663729914e-05 -1.944773305e-17 -0.04940878247)
(-3.800524159e-05 -1.956173575e-17 -0.04921128714)
(-3.922443014e-05 -1.959075657e-17 -0.04897499968)
(-4.026713258e-05 -1.953727256e-17 -0.04869365907)
(-4.11057649e-05 -1.941576991e-17 -0.04836032895)
(-4.171255165e-05 -1.926845241e-17 -0.04796738715)
(-4.206055737e-05 -1.909357903e-17 -0.04750652321)
(-4.212556904e-05 -1.894191216e-17 -0.04696874906)
(-4.188609896e-05 -1.865759757e-17 -0.04634442077)
(-4.132522144e-05 -1.835578012e-17 -0.04562327019)
(-4.043137192e-05 -1.800040217e-17 -0.04479445258)
(-3.919871953e-05 -1.757440725e-17 -0.04384660091)
(-3.762849397e-05 -1.707466615e-17 -0.04276788885)
(-3.573020642e-05 -1.650969363e-17 -0.0415461095)
(-3.352115825e-05 -1.586754699e-17 -0.04016875981)
(-3.102710994e-05 -1.513849693e-17 -0.03862312548)
(-2.828269279e-05 -1.430474383e-17 -0.03689637219)
(-2.533148086e-05 -1.337809666e-17 -0.03497564248)
(-2.22259734e-05 -1.236282989e-17 -0.03284815055)
(-1.90275998e-05 -1.126292195e-17 -0.03050127504)
(-1.580623684e-05 -1.007461035e-17 -0.02792264946)
(-1.263980413e-05 -8.791896351e-18 -0.02510024463)
(-9.613615239e-06 -7.403657535e-18 -0.02202244151)
(-6.81892424e-06 -5.89686373e-18 -0.01867809605)
(-4.352020836e-06 -4.741889348e-18 -0.01505659445)
(-2.323680733e-06 -3.491799009e-18 -0.01114788208)
(-8.82842859e-07 -2.155081139e-18 -0.006942434167)
(-1.597535042e-07 -7.417456302e-19 -0.002431075117)
(-7.902186824e-07 1.340554145e-18 -0.05033000462)
(-2.065659372e-06 8.457848991e-18 -0.05032900743)
(-3.285572833e-06 -1.239627353e-18 -0.05032682349)
(-4.571222788e-06 -4.580921192e-18 -0.0503235088)
(-5.886756436e-06 -6.020957099e-18 -0.05031901989)
(-7.230940799e-06 -6.579920357e-18 -0.05031326956)
(-8.610580361e-06 -1.077794584e-17 -0.05030612181)
(-1.0032227e-05 -1.139056531e-17 -0.05029738519)
(-1.149863892e-05 -1.241275109e-17 -0.05028679806)
(-1.30104585e-05 -1.368537173e-17 -0.05027401204)
(-1.456725407e-05 -1.591733732e-17 -0.05025857091)
(-1.616666903e-05 -1.475484876e-17 -0.05023988471)
(-1.780417428e-05 -1.419151019e-17 -0.05021720038)
(-1.947332764e-05 -1.362343223e-17 -0.05018957045)
(-2.11657446e-05 -1.442031746e-17 -0.05015582031)
(-2.287138892e-05 -1.479472492e-17 -0.05011451331)
(-2.457947074e-05 -1.474838362e-17 -0.05006391359)
(-2.627882012e-05 -1.53698907e-17 -0.05000194699)
(-2.795644773e-05 -1.663819435e-17 -0.04992616044)
(-2.959679606e-05 -1.749796499e-17 -0.04983368011)
(-3.118326372e-05 -1.809602265e-17 -0.04972116595)
(-3.269736718e-05 -1.851090864e-17 -0.04958476851)
(-3.411780362e-05 -1.878657565e-17 -0.0494200877)
(-3.542219887e-05 -1.895019194e-17 -0.04922213225)
(-3.658606738e-05 -1.901434613e-17 -0.04898528657)
(-3.75832661e-05 -1.898463651e-17 -0.0487032823)
(-3.838800088e-05 -1.886093982e-17 -0.048369178)
(-3.897418915e-05 -1.863165312e-17 -0.04797534899)
(-3.931710563e-05 -1.826492268e-17 -0.04751348491)
(-3.939390911e-05 -1.770277682e-17 -0.04697460131)
(-3.918437275e-05 -1.776310446e-17 -0.0463490609)
(-3.867310697e-05 -1.763259922e-17 -0.04562660687)
(-3.784916207e-05 -1.735480641e-17 -0.04479640982)
(-3.670695277e-05 -1.694062398e-17 -0.04384712108)
(-3.524775024e-05 -1.637840344e-17 -0.04276693733)
(-3.348033357e-05 -1.596900901e-17 -0.04154367943)
(-3.142071179e-05 -1.548005433e-17 -0.04016487533)
(-2.909279948e-05 -1.49724481e-17 -0.0386178441)
(-2.652879005e-05 -1.399645802e-17 -0.03688978873)
(-2.376926379e-05 -1.298000073e-17 -0.0349678921)
(-2.086325717e-05 -1.186074575e-17 -0.03283941145)
(-1.786825591e-05 -1.080123907e-17 -0.03049177116)
(-1.484957034e-05 -9.717599247e-18 -0.0279126517)
(-1.188022261e-05 -8.513949627e-18 -0.02509007128)
(-9.040264867e-06 -7.19684409e-18 -0.02201245981)
(-6.415537942e-06 -5.679007601e-18 -0.01866872314)
(-4.096814825e-06 -4.578435044e-18 -0.01504829765)
(-2.18876293e-06 -3.382344962e-18 -0.01114117977)
(-8.323153519e-07 -2.091688249e-18 -0.006937896905)
(-1.508211709e-07 -7.223078661e-19 -0.002429326754)
(-6.937452448e-07 -2.04564844e-18 -0.05034047468)
(-1.814045705e-06 -4.474427621e-18 -0.05033950226)
(-2.888642895e-06 -7.928481193e-18 -0.05033737055)
(-4.026665808e-06 -6.427790705e-18 -0.0503341315)
(-5.197326392e-06 -6.689936552e-18 -0.05032973946)
(-6.401060797e-06 -7.805485374e-18 -0.05032410464)
(-7.644795585e-06 -9.045047554e-18 -0.05031708722)
(-8.934587462e-06 -1.03747006e-17 -0.05030849176)
(-1.02742582e-05 -1.190978739e-17 -0.05029805252)
(-1.166454525e-05 -1.08450263e-17 -0.05028541594)
(-1.310440412e-05 -1.1891457e-17 -0.05027011966)
(-1.459107946e-05 -1.275065205e-17 -0.05025156738)
(-1.611983883e-05 -1.356622692e-17 -0.05022900019)
(-1.768366059e-05 -1.44068576e-17 -0.05020146539)
(-1.927370928e-05 -1.508548315e-17 -0.0501677834)
(-2.088012848e-05 -1.575426741e-17 -0.05012651251)
(-2.249250714e-05 -1.630508994e-17 -0.05007591171)
(-2.409979904e-05 -1.679305102e-17 -0.05001390153)
(-2.568847353e-05 -1.721598162e-17 -0.04993802376)
(-2.724319884e-05 -1.760356027e-17 -0.04984539771)
(-2.874867076e-05 -1.794635815e-17 -0.04973267595)
(-3.018682625e-05 -1.822800297e-17 -0.04959600161)
(-3.153721177e-05 -1.840030508e-17 -0.04943096615)
(-3.277892673e-05 -1.84952777e-17 -0.0492325703)
(-3.388882151e-05 -1.852652685e-17 -0.0489951915)
(-3.484280351e-05 -1.850218388e-17 -0.04871255499)
(-3.561646148e-05 -1.842801365e-17 -0.04837771487)
(-3.618514477e-05 -1.830934233e-17 -0.04798304386)
(-3.652614074e-05 -1.815013348e-17 -0.04752023201)
(-3.661813906e-05 -1.794892248e-17 -0.04698029844)
(-3.644222077e-05 -1.806856813e-17 -0.04635361194)
(-3.598410006e-05 -1.764219351e-17 -0.04562992628)
(-3.523350577e-05 -1.727852988e-17 -0.04479842637)
(-3.418514292e-05 -1.696648786e-17 -0.04384778062)
(-3.284031939e-05 -1.641046455e-17 -0.04276620737)
(-3.120690682e-05 -1.564851358e-17 -0.04154155322)
(-2.929956834e-05 -1.485733615e-17 -0.04016137463)
(-2.714040606e-05 -1.400441527e-17 -0.03861302197)
(-2.475920562e-05 -1.335536346e-17 -0.03688373311)
(-2.219360165e-05 -1.263481702e-17 -0.03496072879)
(-1.948927636e-05 -1.187271077e-17 -0.03283130685)
(-1.669960158e-05 -1.143021479e-17 -0.03048293458)
(-1.388541295e-05 -9.523265168e-18 -0.02790333642)
(-1.111478743e-05 -8.211468823e-18 -0.02508057554)
(-8.46254379e-06 -6.770875189e-18 -0.02200312845)
(-6.009099093e-06 -5.668286688e-18 -0.01865994856)
(-3.839686627e-06 -4.543616449e-18 -0.01504052034)
(-2.052834718e-06 -3.314732457e-18 -0.0111348893)
(-7.814144344e-07 -1.995792851e-18 -0.006933633247)
(-1.418254587e-07 -5.958554825e-19 -0.002427681484)
(-5.96139533e-07 2.590115155e-18 -0.05035039914)
(-1.559543746e-06 -9.647398713e-18 -0.05034945209)
(-2.487449935e-06 -2.672387035e-18 -0.05034737399)
(-3.476023925e-06 -4.361215436e-18 -0.05034421265)
(-4.499605346e-06 -4.306739286e-18 -0.05033992086)
(-5.560528466e-06 -8.07389867e-18 -0.05033440529)
(-6.666131059e-06 -6.842557045e-18 -0.05032752295)
(-7.821762101e-06 -8.444023011e-18 -0.05031907335)
(-9.031549771e-06 -9.407931702e-18 -0.05030878634)
(-1.029663056e-05 -1.048107954e-17 -0.05029630326)
(-1.161587893e-05 -8.86537645e-18 -0.05028115589)
(-1.298601927e-05 -1.100069472e-17 -0.05026274174)
(-1.440171887e-05 -1.274250013e-17 -0.05024029594)
(-1.585578528e-05 -1.468114017e-17 -0.05021286036)
(-1.733949895e-05 -1.554807448e-17 -0.05017925025)
(-1.884310334e-05 -1.707643128e-17 -0.05013801901)
(-2.035661494e-05 -1.789871778e-17 -0.05008742076)
(-2.186851517e-05 -1.814764638e-17 -0.0500253716)
(-2.336502014e-05 -1.772020285e-17 -0.04994940835)
(-2.483213317e-05 -1.765569875e-17 -0.04985664406)
(-2.625490926e-05 -1.783025339e-17 -0.04974372454)
(-2.761566229e-05 -1.825796839e-17 -0.04960678625)
(-2.889568275e-05 -1.803384712e-17 -0.04944141309)
(-3.007503705e-05 -1.793778798e-17 -0.04924259869)
(-3.113162893e-05 -1.787595606e-17 -0.04900471381)
(-3.204339486e-05 -1.780969168e-17 -0.04872147817)
(-3.27874584e-05 -1.77254145e-17 -0.0483859421)
(-3.33408e-05 -1.762363777e-17 -0.04799047579)
(-3.368228816e-05 -1.752258556e-17 -0.04752676976)
(-3.379202215e-05 -1.746010823e-17 -0.04698584652)
(-3.365263267e-05 -1.660231188e-17 -0.04635808063)
(-3.325067008e-05 -1.647429939e-17 -0.04563323572)
(-3.257639139e-05 -1.603226877e-17 -0.04480050983)
(-3.162485048e-05 -1.554805895e-17 -0.04384858722)
(-3.039730634e-05 -1.522162615e-17 -0.04276570677)
(-2.890077827e-05 -1.456261468e-17 -0.04153973879)
(-2.714859645e-05 -1.384456974e-17 -0.04015826556)
(-2.516103871e-05 -1.304830014e-17 -0.03860866682)
(-2.296549646e-05 -1.269238118e-17 -0.03687821303)
(-2.05966929e-05 -1.189041212e-17 -0.03495416026)
(-1.809689757e-05 -1.111559083e-17 -0.03282384465)
(-1.551537147e-05 -1.017767517e-17 -0.03047477335)
(-1.29084276e-05 -9.136932689e-18 -0.02789471147)
(-1.033916706e-05 -7.975914365e-18 -0.02507176494)
(-7.877124215e-06 -6.78368469e-18 -0.02199445445)
(-5.597228306e-06 -5.654997952e-18 -0.01865177868)
(-3.579115491e-06 -4.477889213e-18 -0.01503326803)
(-1.915076807e-06 -3.256643132e-18 -0.01112901503)
(-7.298227496e-07 -1.99045405e-18 -0.006929646088)
(-1.327058214e-07 -6.772756765e-19 -0.0024261404)
(-4.977670858e-07 -3.43348775e-18 -0.05035977269)
(-1.303174385e-06 -6.930887968e-18 -0.05035885159)
(-2.08371499e-06 -8.03966489e-18 -0.05035682825)
(-2.921226282e-06 -7.911590728e-18 -0.05035374688)
(-3.795829236e-06 -8.587723542e-18 -0.05034955815)
(-4.711893065e-06 -9.037123024e-18 -0.05034416488)
(-5.677423485e-06 -9.052255983e-18 -0.05033742112)
(-6.697092219e-06 -8.844796798e-18 -0.05032912154)
(-7.774377555e-06 -8.177253104e-18 -0.05031899072)
(-8.911058276e-06 -9.669453715e-18 -0.05030666474)
(-1.010593936e-05 -1.048003278e-17 -0.05029166961)
(-1.135546157e-05 -1.126553304e-17 -0.05027339684)
(-1.265405318e-05 -1.182504248e-17 -0.05025107564)
(-1.399439667e-05 -1.192906453e-17 -0.05022374234)
(-1.536781897e-05 -1.320945435e-17 -0.05019020719)
(-1.676507466e-05 -1.411067375e-17 -0.05014901886)
(-1.817607155e-05 -1.475687713e-17 -0.05009842716)
(-1.958865135e-05 -1.530812205e-17 -0.05003634437)
(-2.098963532e-05 -1.568774049e-17 -0.04996030217)
(-2.236635835e-05 -1.597075634e-17 -0.04986740799)
(-2.370410773e-05 -1.618900954e-17 -0.04975430208)
(-2.498561094e-05 -1.634964062e-17 -0.04961711428)
(-2.619384159e-05 -1.651400579e-17 -0.04945142181)
(-2.730993557e-05 -1.662597063e-17 -0.04925221227)
(-2.831312767e-05 -1.668714925e-17 -0.04901385012)
(-2.918291811e-05 -1.668998371e-17 -0.04873005005)
(-2.989791639e-05 -1.66158118e-17 -0.04839385908)
(-3.043712932e-05 -1.641969916e-17 -0.04799764533)
(-3.078066896e-05 -1.61183065e-17 -0.0475330999)
(-3.090983224e-05 -1.570576074e-17 -0.04699124819)
(-3.0808976e-05 -1.502517661e-17 -0.04636247055)
(-3.046538477e-05 -1.481535381e-17 -0.0456365398)
(-2.986976828e-05 -1.445185608e-17 -0.04480266559)
(-2.901756542e-05 -1.394532621e-17 -0.04384954711)
(-2.790985306e-05 -1.360543631e-17 -0.04276544218)
(-2.655290605e-05 -1.314101623e-17 -0.04153824301)
(-2.495876142e-05 -1.256949863e-17 -0.04015555561)
(-2.314584716e-05 -1.190215782e-17 -0.03860478689)
(-2.113917503e-05 -1.114706426e-17 -0.03687323747)
(-1.897067165e-05 -1.058950836e-17 -0.03494819632)
(-1.667896299e-05 -9.931094617e-18 -0.03281703508)
(-1.430924053e-05 -8.961716941e-18 -0.03046729778)
(-1.191320165e-05 -7.863147751e-18 -0.02788678745)
(-9.548924157e-06 -6.827040583e-18 -0.02506365013)
(-7.280564982e-06 -5.653501677e-18 -0.02198644814)
(-5.177449555e-06 -4.655157659e-18 -0.01864422308)
(-3.313516715e-06 -3.764452199e-18 -0.0150265491)
(-1.774653801e-06 -2.778650349e-18 -0.01112356371)
(-6.772420964e-07 -1.716153973e-18 -0.00692593989)
(-1.234161926e-07 -5.902704876e-19 -0.00242470515)
(-3.991736201e-07 -1.05494694e-17 -0.05036859122)
(-1.046439653e-06 -1.082662023e-17 -0.05036769633)
(-1.678740754e-06 -1.167549621e-17 -0.05036572884)
(-2.363701868e-06 -8.051416895e-18 -0.05036272955)
(-3.088549388e-06 -1.355198843e-17 -0.05035864604)
(-3.858641164e-06 -1.157066387e-17 -0.05035337755)
(-4.681962354e-06 -1.188762988e-17 -0.05034677479)
(-5.563705614e-06 -1.036195749e-17 -0.05033862838)
(-6.506383352e-06 -9.313913042e-18 -0.05032865692)
(-7.511723906e-06 -1.051675071e-17 -0.05031649082)
(-8.578867838e-06 -1.112651492e-17 -0.0503016504)
(-9.704116211e-06 -1.151559673e-17 -0.05028352123)
(-1.088169693e-05 -1.161204117e-17 -0.05026132678)
(-1.210425614e-05 -1.113310897e-17 -0.05023409802)
(-1.336351717e-05 -1.162899006e-17 -0.05020064023)
(-1.465053089e-05 -1.12753916e-17 -0.05015949778)
(-1.595454356e-05 -1.128595423e-17 -0.05010891705)
(-1.726348514e-05 -1.285508215e-17 -0.05004680626)
(-1.856554727e-05 -1.37674746e-17 -0.04997069225)
(-1.984848409e-05 -1.428881949e-17 -0.04987767746)
(-2.109786254e-05 -1.45203433e-17 -0.0497643974)
(-2.229781858e-05 -1.44369584e-17 -0.04962697577)
(-2.343224319e-05 -1.494700202e-17 -0.04946098377)
(-2.448323135e-05 -1.526071513e-17 -0.04926140359)
(-2.543201808e-05 -1.548523246e-17 -0.04902259418)
(-2.625931777e-05 -1.569297542e-17 -0.04873826586)
(-2.694499803e-05 -1.597290524e-17 -0.0484014623)
(-2.747011786e-05 -1.558348371e-17 -0.04800455024)
(-2.781615186e-05 -1.527809927e-17 -0.04753922149)
(-2.796563303e-05 -1.430532725e-17 -0.04699650368)
(-2.790435564e-05 -1.410633209e-17 -0.04636678296)
(-2.762044879e-05 -1.385788625e-17 -0.04563984063)
(-2.710517433e-05 -1.354359044e-17 -0.04480489673)
(-2.635446681e-05 -1.316319708e-17 -0.04385066434)
(-2.536900064e-05 -1.272469525e-17 -0.04276541875)
(-2.415424334e-05 -1.221344523e-17 -0.04153707211)
(-2.272102466e-05 -1.161730648e-17 -0.04015325214)
(-2.108597194e-05 -1.091706667e-17 -0.03860139069)
(-1.927174461e-05 -1.007493361e-17 -0.03686881616)
(-1.730744749e-05 -9.53909676e-18 -0.03494284828)
(-1.522803445e-05 -8.846744716e-18 -0.03281089102)
(-1.307455919e-05 -8.151146715e-18 -0.03046052159)
(-1.089402383e-05 -7.344111586e-18 -0.02787957864)
(-8.739372974e-06 -6.577680771e-18 -0.02505624562)
(-6.66924432e-06 -5.780095782e-18 -0.02197912378)
(-4.747187601e-06 -4.774987356e-18 -0.01863729511)
(-3.041238701e-06 -3.774326393e-18 -0.01502037544)
(-1.630684239e-06 -2.74862905e-18 -0.01111854493)
(-6.23322086e-07 -1.684932576e-18 -0.006922521063)
(-1.138860921e-07 -5.775851899e-19 -0.002423378155)
(-3.00929298e-07 -2.252815446e-18 -0.05037685227)
(-7.902060341e-07 -3.081820909e-18 -0.05037598405)
(-1.27344095e-06 -1.477908376e-18 -0.05037407386)
(-1.805214829e-06 -5.364108654e-18 -0.05037115803)
(-2.379845001e-06 -7.280241091e-18 -0.05036718101)
(-3.003095905e-06 -8.148585864e-18 -0.05036203929)
(-3.682476354e-06 -8.777523598e-18 -0.05035557912)
(-4.424275721e-06 -9.458136413e-18 -0.05034758737)
(-5.230686503e-06 -1.036667707e-17 -0.05033777729)
(-6.102381954e-06 -1.166635099e-17 -0.05032577291)
(-7.038616798e-06 -1.144000693e-17 -0.05031108857)
(-8.035982985e-06 -1.171906377e-17 -0.05029310414)
(-9.088667499e-06 -1.229151024e-17 -0.05027103752)
(-1.018963164e-05 -1.322721066e-17 -0.05024391444)
(-1.133086957e-05 -1.296577859e-17 -0.05021053567)
(-1.250289971e-05 -1.301889411e-17 -0.05016944203)
(-1.369495628e-05 -1.329620957e-17 -0.05011887653)
(-1.489595003e-05 -1.3480353e-17 -0.0500567432)
(-1.60951874e-05 -1.371287133e-17 -0.04998056465)
(-1.728050151e-05 -1.389646357e-17 -0.04988743927)
(-1.843779873e-05 -1.402359791e-17 -0.04977399782)
(-1.95530912e-05 -1.410635709e-17 -0.04963635879)
(-2.061100231e-05 -1.418998029e-17 -0.04947008823)
(-2.159447129e-05 -1.423525142e-17 -0.04927016304)
(-2.248672828e-05 -1.422267193e-17 -0.04903093748)
(-2.326984973e-05 -1.413738119e-17 -0.0487461183)
(-2.392511685e-05 -1.396317274e-17 -0.0484087459)
(-2.443526869e-05 -1.37876379e-17 -0.04801118583)
(-2.4783268e-05 -1.34930237e-17 -0.04754513077)
(-2.49531165e-05 -1.318644955e-17 -0.0470016105)
(-2.493175397e-05 -1.309776846e-17 -0.04637101646)
(-2.470818226e-05 -1.290897242e-17 -0.04564313769)
(-2.427432837e-05 -1.264013684e-17 -0.04480720373)
(-2.362660758e-05 -1.230377509e-17 -0.04385194092)
(-2.276529004e-05 -1.190548145e-17 -0.04276564031)
(-2.169505436e-05 -1.144654856e-17 -0.0415362314)
(-2.042555642e-05 -1.09287466e-17 -0.04015136214)
(-1.897168154e-05 -1.035446565e-17 -0.03859848714)
(-1.735386829e-05 -9.728728502e-18 -0.03686496014)
(-1.559815366e-05 -9.06887003e-18 -0.03493812881)
(-1.373589217e-05 -8.376897229e-18 -0.03280542648)
(-1.180391037e-05 -7.691449516e-18 -0.03045446049)
(-9.844439076e-06 -6.981539399e-18 -0.02787310211)
(-7.905144857e-06 -6.24494556e-18 -0.02504956922)
(-6.038950186e-06 -5.486653562e-18 -0.0219724992)
(-4.303390834e-06 -4.612216503e-18 -0.01863101174)
(-2.760309013e-06 -3.635386722e-18 -0.01501476192)
(-1.482124788e-06 -2.640035453e-18 -0.01111397044)
(-5.676831603e-07 -1.615168533e-18 -0.006919397392)
(-1.040554542e-07 -5.531287917e-19 -0.002422162307)
(-2.028728337e-07 -2.185402316e-18 -0.05038455709)
(-5.34145116e-07 -3.809683555e-18 -0.05038371612)
(-8.684368283e-07 -5.199641678e-18 -0.05038186392)
(-1.247773449e-06 -7.73616597e-18 -0.05037903211)
(-1.671880555e-06 -4.566758562e-18 -0.05037516218)
(-2.147651733e-06 -5.569006442e-18 -0.05037014795)
(-2.682385483e-06 -5.484620679e-18 -0.0503638309)
(-3.282155142e-06 -7.641131122e-18 -0.05035599373)
(-3.949948522e-06 -9.400855896e-18 -0.05034634497)
(-4.685996286e-06 -8.473225434e-18 -0.05033450257)
(-5.48878159e-06 -9.671398569e-18 -0.05031997443)
(-6.354975049e-06 -1.070771599e-17 -0.05030213459)
(-7.279256392e-06 -1.182005547e-17 -0.05028019557)
(-8.254731167e-06 -1.325238632e-17 -0.05025317833)
(-9.273079077e-06 -1.346225414e-17 -0.05021987989)
(-1.032485922e-05 -1.440997027e-17 -0.05017883769)
(-1.140008673e-05 -1.507844356e-17 -0.05012829108)
(-1.248876729e-05 -1.411896842e-17 -0.05006614043)
(-1.358063725e-05 -1.368833972e-17 -0.04998990472)
(-1.466364681e-05 -1.349464088e-17 -0.04989667904)
(-1.572479194e-05 -1.340377844e-17 -0.04978308957)
(-1.675141762e-05 -1.334700881e-17 -0.04964525015)
(-1.772905985e-05 -1.328587333e-17 -0.04947872263)
(-1.864203219e-05 -1.318601987e-17 -0.049278479)
(-1.94749469e-05 -1.300799844e-17 -0.04903886938)
(-2.021124433e-05 -1.270036471e-17 -0.04875359741)
(-2.08342356e-05 -1.218097505e-17 -0.04841570079)
(-2.132792059e-05 -1.220281209e-17 -0.04801754412)
(-2.167651814e-05 -1.199952515e-17 -0.0475508208)
(-2.186592387e-05 -1.23444575e-17 -0.04700656283)
(-2.188407773e-05 -1.215862926e-17 -0.0463751666)
(-2.17207659e-05 -1.194639333e-17 -0.04564642802)
(-2.13687314e-05 -1.169072245e-17 -0.04480958539)
(-2.082472989e-05 -1.138536069e-17 -0.04385337714)
(-2.008885496e-05 -1.102904397e-17 -0.0427661086)
(-1.91651169e-05 -1.062333267e-17 -0.04153572477)
(-1.806199091e-05 -1.016751242e-17 -0.04014989182)
(-1.679265464e-05 -9.662665521e-18 -0.03859608494)
(-1.537538223e-05 -9.11050754e-18 -0.03686168109)
(-1.383309356e-05 -8.512526651e-18 -0.03493405276)
(-1.219350211e-05 -7.870736599e-18 -0.03280065882)
(-1.048913246e-05 -7.186566269e-18 -0.03044913409)
(-8.757324997e-06 -6.455822311e-18 -0.02786737932)
(-7.040285282e-06 -5.672469254e-18 -0.02504364366)
(-5.384970326e-06 -4.828243191e-18 -0.02196659744)
(-3.84259344e-06 -3.90971555e-18 -0.01862539519)
(-2.468452123e-06 -3.138112293e-18 -0.01500972859)
(-1.32771184e-06 -2.304700039e-18 -0.0111098566)
(-5.098184663e-07 -1.41924817e-18 -0.006916580024)
(-9.382053556e-08 -4.876094441e-19 -0.00242106192)
(-1.051278732e-07 -1.912479525e-18 -0.05039170886)
(-2.791480742e-07 -3.040169694e-18 -0.0503908951)
(-4.654546112e-07 -3.855095556e-18 -0.05038910049)
(-6.931631107e-07 -4.634761801e-18 -0.05038635212)
(-9.66943971e-07 -4.893616053e-18 -0.05038258912)
(-1.2950177e-06 -5.445333836e-18 -0.0503777018)
(-1.684522779e-06 -6.101431024e-18 -0.05037152753)
(-2.140729357e-06 -6.947471893e-18 -0.05036384383)
(-2.66746312e-06 -7.718834163e-18 -0.05035435443)
(-3.265161801e-06 -8.247010825e-18 -0.05034267192)