/*--------------------------------*- C++ -*----------------------------------*\
  =========                 |
  \\      /  F ield         | OpenFOAM: The Open Source CFD Toolbox
   \\    /   O peration     | Website:  https://openfoam.org
    \\  /    A nd           | Version:  7
     \\/     M anipulation  |
\*---------------------------------------------------------------------------*/
FoamFile
{
    version     2.0;
    format      ascii;
    class       volScalarField;
    location    "0.0024";
    object      thermo:alpha;
}
// * * * * * * * * * * * * * * * * * * * * * * * * * * * * * * * * * * * * * //

dimensions      [1 -1 -1 0 0 0 0];

internalField   nonuniform List<scalar> 
1167
(
0.0001211498205
0.0001211472214
0.0001211386686
0.000121136027
0.000121130369
0.0001211220149
0.0001211111496
0.0001210979368
0.0001210825389
0.0001210651084
0.0001210457723
0.000121024664
0.0001209991537
0.0001209714901
0.0001209418874
0.0001209073826
0.0001208713514
0.0001208367024
0.0001208023069
0.0001207649757
0.0001207241513
0.0001206808293
0.0001206335511
0.0001205870269
0.0001205430623
0.0001204966166
0.0001204466203
0.0001203961636
0.0001203453295
0.0001202942048
0.0001202428516
0.0001201873763
0.0001201306659
0.0001200788503
0.0001200268142
0.0001199704119
0.0001199156361
0.0001198649118
0.000119812498
0.0001197576514
0.0001197060058
0.0001196573113
0.0001196093079
0.0001195620465
0.0001195126999
0.0001194625125
0.0001194158658
0.0001193720259
0.000119327178
0.0001192809118
0.0001192355842
0.0001191911819
0.0001211275962
0.000121124905
0.000121119141
0.00012111063
0.0001210995597
0.0001210860999
0.0001210704196
0.0001210526512
0.0001210329352
0.0001210099731
0.000120983518
0.0001209552798
0.0001209229966
0.0001208877375
0.0001208517852
0.0001208177527
0.0001207825299
0.000120741783
0.0001206998973
0.0001206526785
0.0001206040601
0.0001205592206
0.0001205136846
0.0001204626535
0.0001204109609
0.0001203587286
0.0001203060086
0.0001202528954
0.0001201962776
0.0001201372422
0.0001200825384
0.0001200281748
0.0001199689097
0.000119911529
0.0001198579344
0.0001198015613
0.0001197433543
0.0001196899232
0.0001196381121
0.0001195870432
0.0001195360029
0.0001194817299
0.0001194297375
0.0001193825218
0.0001193352902
0.0001192859504
0.0001192379516
0.0001191913312
0.0001191460185
0.0001191020052
0.0001211165915
0.0001211138429
0.000121107956
0.0001210992629
0.0001210879558
0.0001210742189
0.0001210581943
0.0001210400304
0.0001210196166
0.000120994517
0.0001209674379
0.0001209377283
0.0001209033489
0.0001208671838
0.0001208326514
0.00012079768
0.000120758879
0.0001207168929
0.0001206712024
0.000120622051
0.0001205747298
0.0001205285354
0.0001204777192
0.0001204246166
0.0001203707583
0.000120316174
0.000120260977
0.0001202026028
0.0001201407492
0.0001200829189
0.0001200252418
0.0001199623568
0.0001199020527
0.0001198447017
0.0001197826578
0.0001197209853
0.0001196642732
0.0001196080376
0.0001195524276
0.0001194929363
0.0001194343959
0.0001193816887
0.0001193284718
0.0001192734789
0.0001192202177
0.000119168812
0.0001191193418
0.0001190718473
0.0001190250058
0.0001189773831
0.000121105643
0.0001211028284
0.0001210968002
0.0001210878989
0.0001210763319
0.0001210622577
0.0001210458344
0.0001210272113
0.0001210044166
0.0001209786553
0.0001209508438
0.0001209182021
0.0001208828339
0.0001208470721
0.0001208124241
0.0001207755795
0.0001207335327
0.0001206893511
0.0001206396604
0.0001205898649
0.0001205427472
0.0001204922061
0.0001204375699
0.0001203818965
0.0001203252249
0.0001202676671
0.0001202070296
0.0001201419133
0.0001200806912
0.0001200188198
0.0001199515829
0.0001198879677
0.0001198250321
0.0001197565576
0.0001196919366
0.0001196295473
0.0001195673481
0.0001195016075
0.0001194348589
0.0001193744122
0.0001193117027
0.0001192478007
0.0001191856892
0.0001191256303
0.0001190679409
0.0001190103377
0.0001189533073
0.0001188995048
0.0001188489753
0.0001188016547
0.0001210947397
0.0001210918497
0.0001210856648
0.0001210765352
0.0001210646539
0.0001210501929
0.0001210333113
0.0001210131105
0.0001209888585
0.0001209623298
0.0001209322848
0.000120897868
0.0001208613394
0.0001208268441
0.0001207909636
0.0001207499816
0.0001207062907
0.0001206571587
0.000120605308
0.0001205568582
0.000120506537
0.0001204502898
0.0001203926871
0.0001203337821
0.0001202736502
0.0001202103966
0.0001201416657
0.00012007679
0.0001200100382
0.000119937822
0.0001198704894
0.0001197998216
0.0001197254462
0.0001196566045
0.0001195872468
0.0001195148293
0.0001194382673
0.0001193684774
0.0001192941087
0.0001192184159
0.0001191438455
0.0001190708773
0.0001189962693
0.0001189217167
0.0001188506164
0.0001187835103
0.0001187209127
0.0001186632459
0.0001186107188
0.000118560718
0.0001210838783
0.0001210809071
0.0001210745433
0.0001210651419
0.0001210529034
0.0001210380017
0.000121020447
0.0001209979321
0.0001209728945
0.0001209454826
0.0001209122731
0.0001208766319
0.0001208409962
0.0001208054562
0.000120766382
0.0001207225727
0.0001206747999
0.000120622248
0.0001205711958
0.0001205206099
0.0001204632684
0.000120403696
0.0001203424849
0.0001202796656
0.0001202136277
0.0001201410554
0.0001200722951
0.0001200002382
0.0001199232202
0.0001198511659
0.0001197719015
0.0001196933827
0.0001196171688
0.0001195392476
0.0001194528304
0.0001193723089
0.0001192864454
0.0001191976033
0.0001191085632
0.0001190178613
0.0001189217762
0.0001188272278
0.0001187350258
0.0001186461012
0.0001185586634
0.0001184728137
0.0001183940582
0.000118321004
0.0001182545559
0.0001181981797
0.0001210730497
0.0001210699823
0.0001210634124
0.0001210537045
0.0001210410625
0.0001210256623
0.00012100571
0.0001209824107
0.000120956478
0.0001209259901
0.0001208914503
0.0001208549006
0.0001208198585
0.000120782792
0.0001207390548
0.0001206928023
0.0001206396701
0.0001205860587
0.0001205343728
0.0001204769729
0.000120415469
0.0001203519664
0.0001202864461
0.0001202176521
0.0001201411528
0.0001200683249
0.0001199908338
0.0001199095275
0.000119831336
0.0001197434215
0.0001196603516
0.0001195762126
0.0001194845279
0.0001193923471
0.0001192975098
0.0001191961947
0.0001190930225
0.0001189834684
0.0001188677422
0.0001187511407
0.0001186343255
0.0001185116857
0.000118387631
0.0001182601201
0.0001181356209
0.0001180189868
0.0001179128055
0.0001178183784
0.0001177353465
0.0001176708764
0.0001210622367
0.0001210590617
0.0001210522609
0.0001210422092
0.0001210291142
0.0001210119648
0.0001209906944
0.0001209665095
0.0001209389039
0.000120905723
0.0001208697417
0.0001208341835
0.0001207975575
0.0001207558401
0.0001207098815
0.0001206577954
0.0001206017351
0.0001205490446
0.0001204918168
0.0001204285062
0.0001203628041
0.0001202946668
0.0001202233338
0.000120142963
0.0001200659399
0.0001199831782
0.0001198974029
0.0001198116131
0.0001197179365
0.0001196286252
0.0001195355582
0.00011943173
0.0001193319443
0.0001192203637
0.0001191053642
0.0001189820726
0.0001188492245
0.0001187128905
0.0001185715175
0.0001184171769
0.0001182530427
0.0001180823801
0.0001179114292
0.0001177351046
0.0001175581251
0.000117387125
0.0001172215074
0.0001170767673
0.0001169585801
0.0001168721219
0.0001210514311
0.0001210481361
0.0001210410782
0.0001210306433
0.0001210163968
0.000120997495
0.0001209753722
0.0001209501938
0.0001209193155
0.0001208846858
0.0001208483917
0.000120812427
0.0001207729742
0.0001207271598
0.0001206767793
0.0001206202019
0.0001205648708
0.0001205081381
0.0001204432168
0.0001203754882
0.0001203049072
0.0001202314213
0.0001201473621
0.0001200660694
0.0001199784627
0.0001198881093
0.0001197951785
0.0001196966539
0.0001196002394
0.0001194955948
0.0001193865557
0.0001192713786
0.000119147696
0.0001190172821
0.0001188716708
0.0001187204929
0.0001185610113
0.00011838475
0.0001181903724
0.0001179869553
0.0001177726269
0.0001175411728
0.0001172960246
0.0001170389903
0.0001167676174
0.0001164950357
0.0001162279172
0.000115970574
0.0001157599401
0.0001156180349
0.0001210406258
0.0001210371976
0.0001210298547
0.0001210186214
0.000121002484
0.0001209827887
0.0001209597169
0.0001209320208
0.0001208990747
0.0001208628228
0.0001208273416
0.0001207895595
0.0001207450309
0.000120696687
0.0001206398779
0.0001205820214
0.000120525162
0.0001204599067
0.0001203904015
0.0001203176275
0.0001202415227
0.0001201550584
0.0001200694677
0.000119977656
0.0001198826726
0.0001197833477
0.000119679916
0.000119576798
0.0001194615674
0.0001193472105
0.0001192179964
0.000119083006
0.000118932947
0.0001187721123
0.0001186039999
0.0001184142844
0.0001182043034
0.0001179798857
0.0001177383978
0.0001174750916
0.0001171842549
0.0001168693782
0.0001165267887
0.0001161539999
0.000115744808
0.0001153083755
0.0001148397572
0.0001143511563
0.0001138806262
0.0001135253715
0.0001210302134
0.0001210266923
0.000121018793
0.000121006069
0.0001209894666
0.000120969189
0.000120945414
0.0001209150378
0.0001208810092
0.000120845226
0.000120808924
0.0001207681607
0.0001207209467
0.0001206677408
0.0001206083899
0.0001205511626
0.0001204888204
0.0001204190507
0.0001203457221
0.0001202687215
0.0001201836003
0.0001200938172
0.0001200022649
0.0001199026734
0.0001198022779
0.0001196938865
0.0001195870553
0.0001194682083
0.0001193485582
0.0001192135079
0.0001190719369
0.0001189128765
0.0001187431431
0.0001185626513
0.0001183602944
0.0001181319142
0.0001178916527
0.0001176247776
0.0001173342564
0.0001170141288
0.0001166566589
0.0001162675197
0.0001158328389
0.0001153512888
0.0001148063512
0.0001141825508
0.0001134657267
0.0001126021224
0.0001115478823
0.0001101695603
0.0001210198654
0.0001210157847
0.000121007033
0.0001209940774
0.0001209771634
0.0001209564907
0.0001209306759
0.0001208995955
0.000120864802
0.0001208300332
0.0001207928173
0.0001207489041
0.0001207003466
0.0001206432065
0.0001205838991
0.0001205254434
0.0001204578906
0.0001203854767
0.000120309185
0.0001202286576
0.0001201358605
0.0001200464606
0.0001199454175
0.0001198462695
0.0001197345838
0.0001196267952
0.0001195109128
0.0001193862376
0.0001192534604
0.0001191101906
0.0001189525312
0.000118780477
0.0001185999693
0.0001183951104
0.0001181661032
0.0001179224068
0.0001176540448
0.0001173616498
0.0001170379661
0.0001166788233
0.0001162875904
0.0001158549642
0.0001153765524
0.0001148422512
0.00011424296
0.0001135671683
0.0001127971045
0.000111915106
0.0001108890997
0.0001096724682
0.0001210081465
0.00012100399
0.0001209950725
0.0001209818656
0.0001209646134
0.0001209433352
0.000120915524
0.0001208837416
0.0001208493216
0.00012081436
0.0001207753983
0.0001207289474
0.0001206770388
0.0001206176852
0.0001205591237
0.0001204967553
0.0001204256221
0.0001203504459
0.0001202711022
0.0001201830827
0.000120089972
0.0001199937319
0.0001198904516
0.0001197833038
0.0001196710376
0.0001195580254
0.000119429995
0.0001193011861
0.0001191573699
0.0001190033807
0.0001188306349
0.0001186494775
0.0001184481198
0.0001182227088
0.000117978806
0.0001177147651
0.0001174273676
0.0001171057998
0.0001167546086
0.0001163696288
0.0001159509775
0.0001154909441
0.0001149835027
0.0001144225729
0.0001138013034
0.0001131210596
0.0001123548073
0.0001115099607
0.0001105668984
0.0001095008564
0.000120996238
0.0001209919962
0.0001209828932
0.0001209694058
0.0001209517773
0.0001209283965
0.0001208999342
0.0001208673762
0.0001208339718
0.0001207980744
0.000120755912
0.0001207080865
0.0001206521806
0.000120591939
0.0001205330621
0.0001204654322
0.0001203916525
0.00012031354
0.0001202309368
0.0001201351139
0.000120042555
0.0001199370499
0.0001198344006
0.0001197179375
0.0001196052897
0.0001194811546
0.0001193532287
0.0001192101861
0.0001190595525
0.0001188889007
0.0001187081866
0.0001185124893
0.0001182931807
0.000118050817
0.0001177942619
0.0001175099902
0.0001171984625
0.0001168594371
0.0001164895163
0.0001160851376
0.0001156452981
0.0001151672866
0.0001146442328
0.0001140719005
0.0001134550803
0.0001127711276
0.0001120338012
0.0001112296987
0.0001103636737
0.00010941354
0.0001209841306
0.000120979794
0.0001209704857
0.0001209566886
0.0001209378729
0.0001209130717
0.0001208838946
0.0001208514225
0.0001208180823
0.0001207810155
0.0001207356248
0.0001206851993
0.0001206261811
0.000120566685
0.000120504627
0.00012043255
0.0001203559899
0.0001202748312
0.0001201847142
0.0001200887826
0.0001199890199
0.0001198826616
0.0001197704411
0.0001196550653
0.0001195367278
0.000119404481
0.0001192673822
0.0001191176255
0.0001189533364
0.00011877387
0.0001185852501
0.0001183723078
0.0001181338747
0.0001178834849
0.0001176066313
0.0001173071741
0.0001169823223
0.000116623241
0.0001162407283
0.0001158202892
0.000115370046
0.0001148794116
0.0001143481698
0.0001137736812
0.0001131626328
0.0001124945705
0.0001117858542
0.0001110259749
0.0001102229446
0.0001093578947
0.0001209718154
0.000120967375
0.000120957842
0.0001209435528
0.0001209227956
0.0001208973544
0.0001208674001
0.0001208359474
0.0001208016532
0.0001207613411
0.0001207145445
0.0001206600614
0.0001205992964
0.0001205403124
0.0001204729381
0.0001203981998
0.0001203187193
0.000120234393
0.0001201364806
0.0001200412449
0.0001199323962
0.0001198261625
0.0001197068663
0.0001195903512
0.0001194601967
0.0001193280754
0.0001191796516
0.0001190226008
0.0001188448888
0.0001186590383
0.000118453945
0.0001182249776
0.00011797829
0.0001177129723
0.0001174265963
0.0001171091276
0.0001167666383
0.0001163967335
0.0001159989963
0.0001155722951
0.000115112396
0.000114617324
0.0001140853986
0.0001135213722
0.0001129144691
0.0001122703286
0.000111589537
0.0001108687391
0.0001101165501
0.0001093178209
0.0001209592843
0.0001209547312
0.0001209449537
0.0001209286789
0.0001209073721
0.00012088124
0.0001208513883
0.0001208200049
0.0001207846879
0.0001207409797
0.0001206922641
0.0001206339515
0.0001205739332
0.0001205125436
0.0001204399398
0.0001203624465
0.0001202799681
0.0001201885011
0.0001200901746
0.0001199879233
0.000119878963
0.0001197630913
0.0001196451581
0.0001195220775
0.0001193876027
0.0001192448027
0.0001190910592
0.0001189200697
0.0001187365638
0.000118540829
0.0001183220765
0.0001180793428
0.0001178261866
0.0001175454203
0.0001172428593
0.0001169172759
0.0001165641564
0.0001161891003
0.0001157785155
0.0001153467061
0.0001148804825
0.0001143823495
0.0001138517157
0.0001132971283
0.000112700005
0.0001120786524
0.0001114244271
0.0001107421068
0.0001100298838
0.0001092868503
0.0001209465292
0.0001209414752
0.0001209302101
0.0001209134936
0.0001208915975
0.0001208647258
0.0001208359194
0.000120803598
0.0001207653308
0.0001207199443
0.0001206671833
0.0001206069002
0.0001205476325
0.0001204809578
0.0001204057203
0.0001203253635
0.0001202398065
0.0001201406944
0.0001200431746
0.000119932106
0.0001198231783
0.0001197014858
0.0001195821312
0.0001194478998
0.0001193124828
0.0001191607694
0.0001189985487
0.0001188175989
0.0001186288972
0.0001184187174
0.0001181850121
0.0001179372533
0.0001176690693
0.0001173814534
0.000117067464
0.0001167283493
0.000116365287
0.0001159798122
0.0001155686308
0.0001151302978
0.0001146639264
0.0001141689249
0.000113645421
0.0001130989417
0.0001125150745
0.0001119126345
0.0001112834368
0.0001106368069
0.000109958711
0.0001092618046
0.0001209321467
0.0001209267565
0.0001209151784
0.0001208979913
0.0001208754682
0.0001208490444
0.0001208200462
0.0001207867322
0.0001207451099
0.0001206982518
0.0001206412871
0.0001205812018
0.000120520438
0.0001204482926
0.0001203703642
0.0001202870938
0.0001201950972
0.0001200947334
0.0001199910452
0.0001198798336
0.0001197616565
0.0001196415187
0.0001195153945
0.0001193790444
0.000119232691
0.0001190763526
0.0001189014298
0.0001187156512
0.0001185162206
0.0001182941586
0.0001180508788
0.0001177961884
0.0001175172434
0.0001172163314
0.000116894793
0.0001165495911
0.0001161843931
0.0001157883856
0.0001153747457
0.0001149320717
0.0001144641812
0.0001139709501
0.0001134614862
0.000112918295
0.0001123532165
0.0001117686794
0.0001111623524
0.00011054457
0.0001098986418
0.0001092408947
0.0001209173054
0.0001209117618
0.0001208998522
0.0001208821675
0.0001208589817
0.0001208336583
0.0001208037724
0.0001207678249
0.0001207243198
0.0001206736769
0.0001206146076
0.0001205552847
0.0001204898481
0.0001204146245
0.0001203339328
0.0001202476948
0.0001201482787
0.0001200487984
0.0001199366223
0.0001198257963
0.000119701985
0.0001195806421
0.0001194440198
0.0001193063855
0.0001191525472
0.0001189874683
0.0001188047175
0.0001186146163
0.0001184023106
0.0001181670957
0.0001179200132
0.0001176524509
0.0001173671012
0.0001170580762
0.0001167255095
0.0001163720161
0.0001159986132
0.0001156039113
0.0001151866325
0.0001147465334
0.0001142818326
0.0001137915622
0.0001132884833
0.0001127550592
0.0001122098014
0.0001116420926
0.0001110565717
0.0001104637615
0.0001098469304
0.0001092230216
0.0001209021893
0.0001208964843
0.0001208842261
0.0001208660182
0.0001208440028
0.0001208179183
0.0001207871035
0.000120747891
0.0001207029773
0.0001206482383
0.0001205886094
0.0001205286352
0.0001204578732
0.000120380056
0.000120296554
0.0001202048993
0.0001201028138
0.0001199987417
0.0001198855365
0.000119766322
0.0001196441811
0.0001195165176
0.0001193784267
0.0001192302848
0.0001190723728
0.0001188956366
0.000118708764
0.0001185080825
0.0001182853344
0.0001180427982
0.0001177893186
0.0001175133032
0.0001172166113
0.000116901456
0.0001165643565
0.0001162112414
0.000115829415
0.0001154314582
0.0001150108111
0.0001145696194
0.0001141080924
0.0001136279954
0.0001131316482
0.0001126080512
0.0001120765828
0.0001115293185
0.0001109629973
0.0001103926112
0.0001098016487
0.0001092074657
0.0001208867916
0.0001208809178
0.0001208682952
0.0001208505818
0.0001208287167
0.0001208018276
0.0001207685334
0.0001207274746
0.0001206794199
0.0001206221509
0.0001205633076
0.0001204997201
0.0001204250856
0.0001203446318
0.0001202582972
0.000120159507
0.000120058353
0.0001199461657
0.000119834165
0.0001197084018
0.0001195857876
0.0001194482573
0.0001193092404
0.0001191541423
0.0001189880487
0.0001188044449
0.0001186138907
0.0001184015716
0.0001181670438
0.0001179215119
0.000117656704
0.0001173756398
0.0001170719025
0.0001167473209
0.0001164043462
0.0001160424678
0.0001156631829
0.0001152654583
0.0001148470314
0.0001144057056
0.000113946421
0.0001134780754
0.0001129859292
0.000112474711
0.0001119557316
0.0001114239507
0.0001108792558
0.0001103292656
0.0001097614746
0.0001091937323
0.0001208711061
0.0001208650569
0.0001208528162
0.0001208356473
0.0001208131131
0.0001207853904
0.0001207489606
0.0001207065907
0.0001206545966
0.0001205960441
0.0001205374093
0.0001204686968
0.00012039159
0.0001203084564
0.0001202180521
0.0001201145531
0.0001200111479
0.0001198961562
0.000119777109
0.0001196530694
0.0001195252226
0.0001193853814
0.0001192369556
0.000119078222
0.0001189013657
0.0001187141794
0.0001185140626
0.0001182924912
0.0001180513623
0.000117800858
0.000117528148
0.0001172370991
0.0001169294548
0.0001165999324
0.0001162558188
0.0001158898423
0.0001155064769
0.0001151057983
0.0001146880388
0.0001142533575
0.0001137968487
0.0001133344689
0.0001128489375
0.0001123529488
0.0001118458777
0.0001113284676
0.000110803693
0.0001102722955
0.0001097254572
0.0001091814686
0.0001157387843
0.000115358594
0.0001149557562
0.0001145376179
0.0001141047962
0.0001136579775
0.0001132008546
0.0001127227642
0.000112241177
0.0001117453393
0.0001112414243
0.0001107350091
0.0001102206373
0.0001096928895
0.0001091704154
)
;

boundaryField
{
    front_top
    {
        type            wedge;
    }
    front_middle
    {
        type            wedge;
    }
    front_bottom
    {
        type            wedge;
    }
    back_top
    {
        type            wedge;
    }
    back_middle
    {
        type            wedge;
    }
    back_bottom
    {
        type            wedge;
    }
    axis_top
    {
        type            symmetryPlane;
    }
    axis_middle
    {
        type            symmetryPlane;
    }
    axis_bottom
    {
        type            symmetryPlane;
    }
    wall_top
    {
        type            calculated;
        value           nonuniform List<scalar> 10(0.0001191692339 0.0001190804268 0.0001189543614 0.0001187793574 0.0001185375897 0.0001181747725 0.0001176479709 0.0001168494701 0.000115597823 0.0001135103618);
    }
    wall_middle
    {
        type            calculated;
        value           uniform 0.0001089022317;
    }
    wall_bottom
    {
        type            calculated;
        value           nonuniform 0();
    }
    inlet
    {
        type            calculated;
        value           nonuniform 0();
    }
    outlet
    {
        type            calculated;
        value           nonuniform 0();
    }
    procBoundary5to4
    {
        type            processor;
        value           nonuniform List<scalar> 
51
(
0.0001208555458
0.0001208500094
0.0001208381086
0.0001208204186
0.0001207971939
0.0001207669232
0.0001207289721
0.0001206840257
0.0001206292327
0.0001205715064
0.000120510429
0.0001204370243
0.0001203574258
0.0001202716162
0.0001201744057
0.0001200718668
0.0001199607506
0.0001198470994
0.0001197206501
0.0001195973931
0.0001194602911
0.0001193205635
0.0001191648722
0.0001189992896
0.0001188154869
0.0001186250934
0.0001184143411
0.0001181820702
0.0001179384814
0.0001176777971
0.0001174022106
0.0001171035615
0.0001167875706
0.0001164552829
0.0001161064596
0.0001161064596
0.0001155944244
0.0001152117036
0.0001148145407
0.0001143965642
0.0001139656901
0.000113528722
0.0001130768628
0.00011260602
0.0001121356528
0.000111652933
0.000111161598
0.0001106721641
0.0001101734855
0.000109663232
0.0001091603771
)
;
    }
    procBoundary5to6
    {
        type            processor;
        value           nonuniform List<scalar> 
51
(
0.0001211610706
0.0001211585038
0.000121141654
0.000121141654
0.000121133434
0.0001211227437
0.0001211097447
0.0001210945886
0.0001210774364
0.000121058421
0.0001210376671
0.0001210144125
0.0001209872278
0.0001209584765
0.0001209262452
0.0001208908788
0.0001208546833
0.0001208209566
0.0001207862366
0.0001207467277
0.0001207058449
0.0001206606285
0.0001206136084
0.0001205694648
0.0001205260125
0.0001204784255
0.0001204292952
0.00012037987
0.000120330187
0.0001202803684
0.0001202303371
0.0001201754372
0.0001201211944
0.0001200714444
0.0001200207371
0.0001199664896
0.0001199141035
0.0001198654623
0.0001198154286
0.0001197629194
0.0001197128956
0.0001196662647
0.00011962024
0.0001195748653
0.0001195287157
0.0001194802817
0.0001194334036
0.0001193907642
0.0001193487805
0.0001193034053
0.0001192586321
)
;
    }
}


// ************************************************************************* //
