/*--------------------------------*- C++ -*----------------------------------*\
  =========                 |
  \\      /  F ield         | OpenFOAM: The Open Source CFD Toolbox
   \\    /   O peration     | Website:  https://openfoam.org
    \\  /    A nd           | Version:  7
     \\/     M anipulation  |
\*---------------------------------------------------------------------------*/
FoamFile
{
    version     2.0;
    format      ascii;
    class       volScalarField;
    location    "0.0012";
    object      generalizedNewtonian:nu;
}
// * * * * * * * * * * * * * * * * * * * * * * * * * * * * * * * * * * * * * //

dimensions      [0 2 -1 0 0 0 0];

internalField   nonuniform List<scalar> 
1167
(
412.9166511
411.5923293
409.388306
405.5585772
400.7825054
395.0945871
388.5931211
381.3961414
373.6157288
365.3633042
356.7304133
347.7992853
338.6578323
329.3729447
320.0007932
310.609271
301.2310141
291.9149906
282.6900639
384.4229423
383.1466732
381.290577
377.7779319
373.4509505
368.2961647
362.4063271
355.8902123
348.8533928
341.3899316
333.5787115
325.5008855
317.2346086
308.8313754
300.3525878
291.8439002
283.3419983
274.8920132
266.5115986
258.2370267
250.0790707
242.0628005
234.1953571
226.492999
218.9593991
211.6056041
204.4327242
197.447983
190.6493264
184.0421248
177.6217838
171.3922839
165.3476197
159.491145
153.8150795
148.3223578
143.0050145
137.8662879
132.8979881
128.103625
123.4754781
119.017683
114.7234648
110.5965568
106.6310716
102.8299889
99.1880994
95.71152
92.40430372
89.20372972
355.9220715
354.6901977
353.1600565
349.9452891
346.0388652
341.3951841
336.090937
330.2281946
323.9013197
317.1872381
310.1610725
302.904127
295.4701582
287.912473
280.2888503
272.6297824
264.9778235
257.3597695
249.8014096
242.3273555
234.9494692
227.6899912
220.5515853
213.5532614
206.692321
199.985053
193.4263309
187.0285519
180.7851567
174.7058681
168.7836814
163.0255206
157.4252942
151.987503
146.7064631
141.5851384
136.6191416
131.8105091
127.1557444
122.6564989
118.3102116
114.118651
110.0795257
106.1944031
102.4609071
98.8799852
95.44839442
92.17182755
89.05581623
86.03017647
327.7538877
326.5679194
325.3338783
322.403461
318.8978957
314.7371451
309.9861085
304.7397005
299.0755706
293.0664308
286.7868961
280.2989292
273.6517985
266.9001866
260.0828018
253.2328722
246.3889083
239.5673699
232.7985281
226.0935474
219.472124
212.94334
206.5185677
200.2047722
194.0084447
187.9351498
181.9884048
176.1715382
170.4865613
164.935147
159.5184836
154.2371041
149.092296
144.0831964
139.2111436
134.474916
129.8765833
125.4146219
121.0913833
116.9053944
112.8594224
108.9522162
105.1858957
101.5591446
98.07340923
94.72657627
91.51857354
88.4526431
85.53792899
82.69614346
300.2465492
299.1135452
298.146254
295.4868801
292.3551119
288.64374
284.4077973
279.7287286
274.6793465
269.3287254
263.7432987
257.9711486
252.0614309
246.0619271
240.0016033
233.9171087
227.8319798
221.7673999
215.7456415
209.7748878
203.8760716
198.0500433
192.3129537
186.6632519
181.1131387
175.6604672
170.3142913
165.0713295
159.9394439
154.9144194
150.0032543
145.2016658
140.5164546
135.9427035
131.4872193
127.1454439
122.9245589
118.8203628
114.8395088
110.9785226
107.2436939
103.6318239
100.1481307
96.78910191
93.55920465
90.45365075
87.47520213
84.62496396
81.91535747
79.26211723
273.7034416
272.6283067
271.8911691
269.4833103
266.6952365
263.3961024
259.6288792
255.4703627
250.9868233
246.2460213
241.2964635
236.1840565
230.9587372
225.652683
220.2962632
214.9220863
209.5453894
204.1907587
198.8688953
193.5941333
188.3758626
183.2205534
178.1363663
173.125004
168.193994
163.3425485
158.5767752
153.8947267
149.3018193
144.7957915
140.3813479
136.0570201
131.8267663
127.6896824
123.6494892
119.7063975
115.8639716
112.1230488
108.4870118
104.9569868
101.5361469
98.22513384
95.02638661
91.93980801
88.96706821
86.10611388
83.35773844
80.72502423
78.2205683
75.75756087
248.3640242
247.3489419
246.8037192
244.6293411
242.1515647
239.2244029
235.8832866
232.198648
228.2362018
224.0466544
219.67579
215.1693522
210.5666126
205.8953728
201.187793
196.4643898
191.7429412
187.042813
182.3703167
177.7424165
173.1599568
168.6334288
164.1631135
159.75549
155.4106381
151.132487
146.9204914
142.7776383
138.7032096
134.6998736
130.7672525
126.9084976
123.1231756
119.414918
115.7838637
112.2344916
108.767227
105.38686
102.0939211
98.89325763
95.78531932
92.77395888
89.85911161
87.04362761
84.32682327
81.70928475
79.18950368
76.77339061
74.47200005
72.19913013
224.4062595
223.4549833
223.0659905
221.1047427
218.9073907
216.3162927
213.3600423
210.1073119
206.6119984
202.9192776
199.07165
195.1134163
191.0728757
186.9783735
182.8577782
178.7257532
174.6025611
170.4982925
166.4232667
162.3864805
158.3906051
154.4432961
150.5425794
146.6957775
142.898518
139.1573033
135.4667216
131.8329515
128.2506497
124.7258497
121.2542752
117.8420952
114.4858797
111.1918934
107.9582606
104.791511
101.6907368
98.66239761
95.70606837
92.82800462
90.02767784
87.31035463
84.67483263
82.12567351
79.66057541
77.28224528
74.98730121
72.78413165
70.68224028
68.59664137
201.9585958
201.0734781
200.8103515
199.046506
197.1020147
194.8124598
192.2038145
189.3365141
186.2578446
183.0093277
179.633604
176.1634773
172.6259136
169.0500452
165.4542406
161.8544759
158.2678067
154.7001944
151.1642807
147.6619534
144.1993646
140.7777134
137.3989342
134.0639646
130.7722887
127.5244901
124.3190709
121.1568442
118.0361905
114.9584538
111.9229081
108.9313612
105.9839852
103.0833778
100.2310049
97.43011745
94.68295646
91.99304779
89.36297163
86.79626864
84.29503737
81.86218226
79.49899206
77.2078221
74.98861987
72.84216804
70.76688828
68.77070681
66.86345645
64.96088245
181.1102002
180.2928337
180.1289618
178.5460881
176.8273097
174.808058
172.5081625
169.9821246
167.2732537
164.421489
161.4630531
158.4255566
155.3359239
152.2183882
149.0877811
145.9617474
142.8502216
139.7614565
136.7039123
133.6784249
130.6920727
127.741686
124.8317742
121.9585709
119.1242096
116.3248719
113.5618541
110.8317006
108.1355912
105.4710497
102.8399368
100.2405631
97.67566427
95.14479709
92.65185676
90.19730921
87.78573044
85.41809653
83.09925871
80.83038178
78.615628
76.45580062
74.3541972
72.31124887
70.32889281
68.4061343
66.54329667
64.74693978
63.02844831
61.30326885
161.9060113
161.155943
161.0673564
159.648659
158.1318102
156.3511387
154.3233897
152.098902
149.7174827
147.2165594
144.6246224
141.9676406
139.27273
136.5568428
133.8354281
131.124088
128.4293494
125.7614319
123.1235174
120.5194455
117.9512869
115.4184972
112.9225407
110.4602485
108.032522
105.6348901
103.2684643
100.9284422
98.6163407
96.32819618
94.06619186
91.82732977
89.61466616
87.42672197
85.26752669
83.13674356
81.03900983
78.97467318
76.94869348
74.96153112
73.01769667
71.11718185
69.26407006
67.45758489
65.70105498
63.99203147
62.33241843
60.72749909
59.18982305
57.63597022
144.3476381
143.6628662
143.6301499
142.3612524
141.0215643
139.4507934
137.6630565
135.7044233
133.61299
131.4181502
129.1465924
126.8239921
124.4717966
122.1053427
119.740943
117.388792
115.0566747
112.7530416
110.4792416
108.2408686
106.036322
103.8675264
101.7324241
99.63035176
97.55881329
95.51588973
93.49921131
91.50646214
89.53590971
87.58579046
85.65512572
83.74299643
81.84957516
79.97524159
78.12127926
76.28907069
74.48068819
72.69815654
70.94403959
69.2203041
67.52936572
65.87274559
64.25262667
62.66973082
61.12563445
59.61929301
58.15184012
56.72884917
55.36266368
53.97292003
128.403211
127.781641
127.7883478
126.6537369
125.4708357
124.0851302
122.5087734
120.7852927
118.9464127
117.0185889
115.0263573
112.9943421
110.9388235
108.8751659
106.8180486
104.7750507
102.7554989
100.7639846
98.80384182
96.87824009
94.98612218
93.12962744
91.30506
89.51341464
87.74985272
86.01436518
84.30213348
82.61269233
80.94191961
79.28965907
77.65253968
76.03112699
74.42329613
72.83071738
71.25240466
69.69091676
68.14614035
66.62124347
65.11670218
63.63554159
62.17831593
60.74765601
59.34404541
57.96939771
56.6237752
55.30741175
54.02017561
52.76870294
51.56353039
50.3299703
114.0133831
113.4517871
113.4860204
112.4729836
111.4287465
110.2059837
108.8162705
107.2981371
105.6792563
103.9837612
102.2355226
100.4536799
98.65379116
96.85138704
95.05694881
93.27863355
91.52519417
89.79928355
88.10586574
86.44547197
84.81929687
83.22699163
81.66705472
80.13837457
78.63783598
77.16407819
75.71316461
74.28383488
72.87228575
71.47768123
70.09669063
68.7292562
67.37310392
66.0291758
64.69620264
63.37598781
62.06805405
60.7748988
59.4964457
58.23530552
56.99134955
55.76721169
54.56238953
53.37936971
52.21702163
51.07653935
49.95668814
48.8648338
47.80972655
46.72308916
101.101516
100.5963618
100.6489303
99.74552105
98.82356959
97.74459882
96.51853572
95.17931969
93.75206035
92.259211
90.72172177
89.15571449
87.57622743
85.99704801
84.42670988
82.87436493
81.34581259
79.84485939
78.37575943
76.93840594
75.53542539
74.16473428
72.82665541
71.51843744
70.2389057
68.98497307
67.75461792
66.54487355
65.35360179
64.17815734
63.01669954
61.86734728
60.72905345
59.60083801
58.48244715
57.37372033
56.27508205
55.18706715
54.11034372
53.04570426
51.99379093
50.95554842
49.93127871
48.92187196
47.92704178
46.94711154
45.98112738
45.0360394
44.11929291
43.16936431
89.57626085
89.12354637
89.18735369
88.38230588
87.5685769
86.61594156
85.53272778
84.34988351
83.08981494
81.77362964
80.41795506
79.03794586
77.64832778
76.25952302
74.88014874
73.51913142
72.18040783
70.86907962
69.58745151
68.33707554
67.11922585
65.93287227
64.77830307
63.65274789
62.55598145
61.48414468
60.43665071
59.40944454
58.40172222
57.40964217
56.4325524
55.46727679
54.51371938
53.56944989
52.63496784
51.70855443
50.79125877
49.88198294
48.98189102
48.09021347
47.20810058
46.33500124
45.47177696
44.61794439
43.7739282
42.93894407
42.1128002
41.30102832
40.5108328
39.68654872
79.33601378
78.93147075
79.00140605
78.28492558
77.56636619
76.7242405
75.76635123
74.72044486
73.60723739
72.44388879
71.24560924
70.02664148
68.79961624
67.57353944
66.35744556
65.15784253
63.97921991
62.82666969
61.70145408
60.60641873
59.54151656
58.5073256
57.50299115
56.52752309
55.57951407
54.65692573
53.75808351
52.88051065
52.02245051
51.18130103
50.35554829
49.54293148
48.74240864
47.95217442
47.17170141
46.39964677
45.63601172
44.87975001
44.13110569
43.38912644
42.65429299
41.92557843
41.20356544
40.48700865
39.77664727
39.0707723
38.36976655
37.6778098
37.00170385
36.29202723
70.27418779
69.91371479
69.98649454
69.34871923
68.71384896
67.9690374
67.12135987
66.19599536
65.21084618
64.18054692
63.11891741
62.03950343
60.95214738
59.86557926
58.78850971
57.72574898
56.68265254
55.66269955
54.66812801
53.70138787
52.76239991
51.85268163
50.97068405
50.11680497
49.28889673
48.48641623
47.7069859
46.9495448
46.21158274
45.49183475
44.78797059
44.09887718
43.42253996
42.75809747
42.10389282
41.45935373
40.8232016
40.19494646
39.57350737
38.95841336
38.34879352
37.74407213
37.14349848
36.54634902
35.95219151
35.35981402
34.76897566
34.18336458
33.60868897
33.00247706
62.28301596
61.96236377
62.03536799
61.46805285
60.90719081
60.24825287
59.49783602
58.67860652
57.80525227
56.89109711
55.94900722
54.99013472
54.02335654
53.05731549
52.09863508
51.15225747
50.22363756
49.31504621
48.42968755
47.56892038
46.73392467
45.92526328
45.14269388
44.38619442
43.65450047
42.94716916
42.26238491
41.59941335
40.95610658
40.33162516
39.72383101
39.13197037
38.55402163
37.98937493
37.43615503
36.89394946
36.36098382
35.83687019
35.31980384
34.80948971
34.30406705
33.80326851
33.30521202
32.80958059
32.314931
31.82053865
31.32530868
30.83293624
30.34716615
29.8334706
55.25661983
54.97189761
55.04373981
54.53943022
54.04406247
53.4610491
52.79689312
52.07059881
51.29540167
50.48311209
49.64551006
48.79148786
47.92940362
47.06732081
46.21038949
45.36399727
44.5321558
43.71763563
42.92354373
42.15077377
41.40132889
40.67508571
39.97292748
39.29421231
38.63895406
38.00617787
37.39537243
36.80528833
36.23509318
35.68345358
35.14946557
34.63180458
34.12956309
33.64144683
33.16656559
32.70367665
32.25177885
31.80954933
31.375829
30.94927036
30.52852843
30.11223249
29.69888108
29.28739151
28.87634375
28.46472005
28.05119327
27.6390559
27.23038059
26.79826108
49.09384917
48.84137885
48.91129095
48.46319711
48.02584946
47.51041569
46.92198857
46.27764936
45.58894612
44.86670942
44.120315
43.35797316
42.58759901
41.81541853
41.04645363
40.28602092
39.53694901
38.80262974
38.0851545
37.38621189
36.70719056
36.04857392
35.41122324
34.7947661
34.19964495
33.62500727
33.07096949
32.53635937
32.02107283
31.52385342
31.04449702
30.58171921
30.13523216
29.70371646
29.28681012
28.88309374
28.49197197
28.11179035
27.74174842
27.37992404
27.02533599
26.67580018
26.3302682
25.98676555
25.6443044
25.30105566
24.95625991
24.61178197
24.26921229
23.9078596
43.69923862
43.47557468
43.54318272
43.14522443
42.75959652
42.30361764
41.78216783
41.21030938
40.59826725
39.95527303
39.28920405
38.60757173
37.91744046
37.22383031
36.53186557
35.8455569
35.16791088
34.50219601
33.8498773
33.21319898
32.5928579
31.99015661
31.40532729
30.83897509
30.29101553
29.7616435
29.25050677
28.75755308
28.28229076
27.82459716
27.38389528
26.96001975
26.55229388
26.16049622
25.78381549
25.42181004
25.07337198
24.73773547
24.41346568
24.09939579
23.79374653
23.49499284
23.20132415
22.91117119
22.62294041
22.33500273
22.04635502
21.75817099
21.47123515
21.17071556
38.98408822
38.786057
38.85135194
38.49824787
38.15810123
37.75476954
37.29271791
36.78516117
36.24120504
35.66812539
35.07307343
34.46298725
33.84332452
33.21883083
32.59436194
31.97285217
31.35764552
30.75103418
30.15496771
29.57112833
29.00048176
28.44424615
27.90271614
27.37673906
26.8662602
26.37183625
25.89321487
25.43075548
24.98419965
24.55379511
24.13932776
23.74093408
23.35841725
22.99178982
22.64075812
22.30502686
21.98402796
21.6770653
21.38314695
21.10106996
20.82933573
20.56639445
20.31048105
20.05999169
19.81312506
19.56841161
19.32444048
19.08225055
18.84115123
18.59252619
34.75496098
34.44150352
34.14168212
33.78508801
33.3758075
32.92565238
32.44182632
31.93078969
31.39893682
30.85213264
30.29492957
29.73194147
29.16681157
28.60250608
28.04208927
27.48723506
26.94020951
26.40199138
25.87409705
25.35708355
24.85193271
24.35892045
23.87874264
23.41144472
22.95760313
22.51715703
22.09072778
21.67820881
21.28028829
20.89688084
20.52861493
20.17548004
19.83787142
19.51565634
19.20887263
18.91706744
18.63972904
18.37587294
18.12442149
17.88393322
17.6529303
17.42968274
17.21262599
16.99994398
16.79064141
16.58464428
16.38101339
16.17554152
)
;

boundaryField
{
    front_top
    {
        type            wedge;
    }
    front_middle
    {
        type            wedge;
    }
    front_bottom
    {
        type            wedge;
    }
    back_top
    {
        type            wedge;
    }
    back_middle
    {
        type            wedge;
    }
    back_bottom
    {
        type            wedge;
    }
    axis_top
    {
        type            symmetryPlane;
    }
    axis_middle
    {
        type            symmetryPlane;
    }
    axis_bottom
    {
        type            symmetryPlane;
    }
    wall_top
    {
        type            calculated;
        value           nonuniform List<scalar> 
23
(
87.61483841
84.52352913
81.27672223
77.9328753
74.51966972
71.05133746
67.53788246
63.98966786
60.41773592
56.83393987
53.2520243
49.68628785
46.15252421
42.66755896
39.24883808
35.91353306
32.67844376
29.55845448
26.56695893
23.71518777
21.01206385
18.46315156
16.07123515
)
;
    }
    wall_middle
    {
        type            calculated;
        value           nonuniform 0();
    }
    wall_bottom
    {
        type            calculated;
        value           nonuniform 0();
    }
    inlet
    {
        type            calculated;
        value           nonuniform 0();
    }
    outlet
    {
        type            calculated;
        value           nonuniform 0();
    }
    procBoundary6to5
    {
        type            processor;
        value           nonuniform List<scalar> 
51
(
34.86719471
34.69197227
34.69197227
31.18041963
30.90220522
30.63817188
30.32310243
29.96088187
29.56159766
29.13122465
28.67542922
28.19999618
27.70940884
27.20790416
26.69962998
26.18734708
25.67413983
25.16215365
24.65337125
24.14940431
23.65144399
23.16066781
22.67774505
22.20350728
21.73839295
21.2829576
20.83755095
20.40256868
19.97846108
19.56555683
19.16448484
18.77553329
18.39956065
18.03686637
17.68830821
17.35421607
17.03522781
16.7315821
16.44346315
16.1707319
15.91298994
15.66960797
15.43956242
15.22170416
15.01453568
14.81654433
14.62610435
14.44204547
14.26395163
14.08974228
13.91997841
)
;
    }
    procBoundary6to7
    {
        type            processor;
        value           nonuniform List<scalar> 
51
(
441.0457101
439.6678232
437.1057638
432.9408183
427.6984169
421.4481309
414.3122285
406.4135402
397.870392
388.7989315
379.3168292
369.5086894
359.4616247
349.2699585
338.9874527
328.6830263
318.4084769
308.2025332
298.1162292
273.5868215
273.5868215
264.6303649
255.8365728
247.2266593
238.8063743
230.5920429
222.5838835
214.7939781
207.2196963
199.868029
192.734815
185.8232282
179.1284196
172.6504448
166.384835
160.3287328
154.4778386
148.8280536
143.3757835
138.1160995
133.0460166
128.1606118
123.4580127
118.934115
114.5873503
110.4144187
106.4139562
102.5836335
98.92495114
95.44309514
92.08424051
)
;
    }
}


// ************************************************************************* //
