/*--------------------------------*- C++ -*----------------------------------*\
  =========                 |
  \\      /  F ield         | OpenFOAM: The Open Source CFD Toolbox
   \\    /   O peration     | Website:  https://openfoam.org
    \\  /    A nd           | Version:  7
     \\/     M anipulation  |
\*---------------------------------------------------------------------------*/
FoamFile
{
    version     2.0;
    format      ascii;
    class       volTensorField;
    location    "0.0012";
    object      grad(U);
}
// * * * * * * * * * * * * * * * * * * * * * * * * * * * * * * * * * * * * * //

dimensions      [0 0 -1 0 0 0 0];

internalField   nonuniform List<tensor> 
1167
(
(-0.003605422878 3.59156364e-16 -8.11272586e-05 -3.919526343e-15 -0.005929256409 0 0.0007860509848 -7.369139226e-16 0.02181201884)
(-0.004786839165 -2.335196586e-15 -0.0003421437303 -1.627358993e-15 -0.005168506251 0 0.002041563534 -2.203100451e-15 0.02178106374)
(-0.004722739112 -8.099514603e-16 -0.0006133738713 6.484195004e-16 -0.004934328147 0 0.003216845699 -4.943185456e-15 0.02175562179)
(-0.004817150845 5.063352564e-15 -0.0008136691463 -4.534887588e-17 -0.004897169246 0 0.004422399633 -2.352553531e-15 0.0217089741)
(-0.004800663769 2.046941474e-15 -0.0009958845547 -1.686326898e-15 -0.004878005782 0 0.005600173417 4.133506283e-16 0.02164208287)
(-0.004760686373 7.478971394e-16 -0.0011561801 -8.999911081e-16 -0.004860196887 0 0.006738432091 -1.099518075e-15 0.02155471535)
(-0.004705445268 2.372787109e-15 -0.001291595771 -1.340400116e-15 -0.004841263488 0 0.007833113607 -1.419068219e-15 0.02144570346)
(-0.004632278433 1.070460328e-16 -0.001399191714 -1.289033336e-15 -0.004819424062 0 0.008881790189 2.947941047e-16 0.0213121487)
(-0.004541554314 2.472082172e-15 -0.001475486145 -1.072864112e-15 -0.00479378782 0 0.009883134348 6.643370043e-16 0.02114995262)
(-0.004429984136 2.816414358e-15 -0.001520417809 -1.490295652e-15 -0.004763954059 0 0.01083305813 2.037796704e-15 0.02095705914)
(-0.00429302155 9.328434815e-16 -0.001536280221 -1.404644529e-15 -0.004729093353 0 0.011726152 1.804960412e-15 0.02073323338)
(-0.004132245555 1.68511675e-15 -0.001521577816 -1.404715612e-15 -0.004688529208 0 0.01256157269 7.533984099e-16 0.02047534506)
(-0.003946554752 1.73782189e-16 -0.001476473951 -1.434578656e-15 -0.004642212713 0 0.01333708184 6.217224061e-16 0.02018112648)
(-0.003731761011 -1.148724453e-15 -0.001404677443 -1.241421938e-15 -0.004589674638 0 0.01404779706 8.75259323e-16 0.01985157686)
(-0.003489147766 -8.262629763e-16 -0.001306098292 -1.128777887e-15 -0.004530520933 0 0.01469339737 6.689666897e-16 0.01948433069)
(-0.003218108013 6.846905819e-16 -0.001183520957 -1.014091918e-15 -0.004464714463 0 0.01527111379 2.694838768e-16 0.01907935307)
(-0.002918442873 5.71889655e-16 -0.001040074762 -1.075813621e-15 -0.004391995937 0 0.0157786936 1.01087735e-15 0.01863737346)
(-0.00259125912 -7.558411097e-16 -0.0008773502347 -9.758313408e-16 -0.004312410111 0 0.01621579525 1.208528753e-15 0.01815759489)
(-0.002236372397 -2.529388856e-16 -0.0006993173423 -9.098454381e-16 -0.004225923474 0 0.01658045972 1.581112196e-15 0.01764261637)
(-0.0048818171 4.346026194e-15 -4.816427087e-05 -8.705167394e-15 -0.008030662986 0 0.0009836124717 -1.193035328e-15 0.0252394105)
(-0.006479179179 7.239340913e-15 -0.0002995889927 -6.750656288e-15 -0.006999043614 0 0.002554232723 -3.823686526e-15 0.02519731841)
(-0.006387074165 -7.161044352e-16 -0.0005549818822 -7.212337941e-15 -0.006680155908 6.422116567e-14 0.00402443257 -9.820131689e-15 0.02515731533)
(-0.006505807827 -6.81777794e-15 -0.0007239251539 -3.120234862e-15 -0.006627188668 4.716045017e-14 0.005532371807 -9.777055584e-15 0.02508775946)
(-0.006469712175 -1.019835132e-16 -0.0008748766737 -1.123311262e-15 -0.006597340739 -3.77137945e-14 0.007003459359 -1.283780716e-15 0.02499089114)
(-0.00639875694 4.19804038e-15 -0.001001404091 -1.812523007e-15 -0.006567935818 6.345379691e-14 0.008423624542 -3.573439291e-15 0.02486667398)
(-0.006307859443 1.062706484e-16 -0.001097258647 -2.035173736e-15 -0.006536063895 0 0.009790282903 -9.92335795e-16 0.02471167023)
(-0.006194610427 -1.133834996e-15 -0.001158152828 -1.429210084e-15 -0.006500060687 0 0.01110105333 1.28414493e-15 0.02452165842)
(-0.006055373235 -7.345890027e-16 -0.001182960143 -1.307487132e-15 -0.006458937726 0 0.01235113267 2.304193986e-15 0.02429393624)
(-0.005885028212 7.008418253e-18 -0.001173527108 -1.022367695e-15 -0.006411638686 -2.05275396e-14 0.01353390529 4.930563685e-15 0.02402791736)
(-0.005683766001 2.500106837e-15 -0.0011289516 -1.081544641e-15 -0.006357147492 0 0.01464666806 4.107096648e-15 0.02372091947)
(-0.00545229052 2.109153501e-15 -0.001047833176 -1.242798179e-15 -0.006295238227 0 0.01568771815 4.037582469e-15 0.02336910522)
(-0.005185609432 9.433960552e-17 -0.0009340086045 -1.225137609e-15 -0.006225571582 -1.695325556e-14 0.01665097916 3.709702052e-15 0.02297286145)
(-0.00488352913 -5.665089154e-17 -0.0007889890205 -1.087401628e-15 -0.006147509324 0 0.01753384752 2.525620594e-15 0.02253102622)
(-0.004546948676 9.472942751e-16 -0.0006135890068 -1.055855289e-15 -0.006061002684 0 0.01833484351 1.175849692e-15 0.02204151013)
(-0.004173589263 -3.974826184e-16 -0.0004123202561 -1.058895962e-15 -0.005965828565 2.970710863e-14 0.01904978171 6.766612205e-16 0.02150626028)
(-0.003765093801 -1.321636371e-15 -0.0001869489305 -9.244806609e-16 -0.005861823861 -1.434345753e-14 0.01967813133 2.012697257e-15 0.02092402956)
(-0.003322095577 -9.81920737e-16 5.821845245e-05 -8.416955884e-16 -0.005749087473 0 0.0202173558 1.116772427e-15 0.02029642418)
(-0.002845464656 -3.438372697e-16 0.0003195184765 -7.392121018e-16 -0.005627615893 0 0.02066646436 4.135689744e-16 0.01962483583)
(-0.002336907103 1.44401428e-15 0.0005932072783 -7.33722974e-16 -0.005497613747 0 0.02102485753 1.754559764e-17 0.01891065064)
(-0.0017981048 1.859962744e-15 0.0008746364866 -8.180468512e-16 -0.005359247783 0 0.02129184925 -1.130334791e-16 0.0181570375)
(-0.001231405628 1.253488338e-15 0.001159910483 -8.263604102e-16 -0.005212828276 0 0.0214678928 -4.530332804e-16 0.01736565438)
(-0.0006391148007 5.744817136e-16 0.001444290282 -8.236860019e-16 -0.00505866174 1.240374215e-14 0.02155321366 -1.267836502e-15 0.01654081712)
(-2.432705696e-05 5.412653015e-17 0.001723642957 -8.105244187e-16 -0.004897150026 0 0.02154896049 -1.289597813e-16 0.01568477426)
(0.0006096368726 -1.82675147e-17 0.001993589582 -7.754973075e-16 -0.004728725548 0 0.02145645328 6.232508381e-16 0.01480255909)
(0.001258995233 9.906892614e-17 0.002250004691 -7.773239804e-16 -0.004553894916 -1.188029486e-14 0.02127751709 1.36739948e-15 0.01389707143)
(0.001920278809 -1.788611201e-16 0.00248882557 -7.342672494e-16 -0.004373199165 0 0.02101424881 9.768414073e-16 0.0129738766)
(0.002589655169 3.712722572e-16 0.002706186596 -7.157611648e-16 -0.004187207252 0 0.0206690143 5.867149777e-16 0.01203653696)
(0.003263011297 1.245070059e-15 0.002898767615 -7.097146866e-16 -0.003996524584 0 0.02024475602 2.146870542e-16 0.01109084701)
(0.003936089465 1.17434326e-15 0.003063328223 -7.38117431e-16 -0.003801782083 0 0.01974442654 2.889983313e-16 0.01014084713)
(0.004604710614 1.25443497e-15 0.003197351766 -7.447003471e-16 -0.003603636912 0 0.01917156937 1.946336164e-16 0.009192468879)
(0.005264281532 8.522741823e-16 0.003298554598 -7.630197872e-16 -0.003402753474 0 0.0185297466 -7.939066171e-17 0.008250095325)
(0.005910380157 2.194143282e-16 0.003365416977 -7.433544929e-16 -0.003199828675 1.127696297e-14 0.01782305003 -3.064083993e-16 0.007319546241)
(0.006538837995 1.373666944e-16 0.003396661255 -7.299923848e-16 -0.00299554829 0 0.017055435 -1.266725484e-16 0.006405440307)
(0.007145466618 2.18999107e-16 0.003391924799 -7.282787122e-16 -0.002790608784 0 0.01623139435 -8.687106286e-17 0.005513346812)
(0.007725899908 1.553553462e-16 0.003351355709 -7.052898858e-16 -0.002585692014 0 0.01535547262 -1.383782935e-16 0.004647868011)
(0.008275873248 4.737299893e-16 0.00327576991 -7.047450495e-16 -0.00238149135 0 0.01443249033 -2.599599736e-16 0.003814172498)
(0.008791501113 8.152259444e-16 0.003166539904 -6.992467541e-16 -0.002178678202 5.593974032e-15 0.01346730075 -5.935918346e-16 0.003016702869)
(0.009269089836 8.93343429e-16 0.00302573739 -6.996893314e-16 -0.001977916822 5.597514651e-15 0.01246498648 -6.016500715e-16 0.002260120655)
(0.009705190195 1.665460855e-16 0.002856042483 -7.060583365e-16 -0.001779842909 0 0.01143068931 -2.446639668e-16 0.001548526079)
(0.01009634388 -4.784944882e-16 0.002660821349 -6.882026554e-16 -0.001585076346 0 0.01036976424 2.840485875e-17 0.0008859779896)
(0.01043953367 -1.863863891e-16 0.002444028891 -6.706667479e-16 -0.001394211059 0 0.009287624539 -2.724608236e-16 0.0002760584343)
(0.0107321274 1.319250875e-18 0.002210104443 -6.589146576e-16 -0.001207812523 0 0.008189651024 -5.034541803e-16 -0.0002778411779)
(0.01097184951 7.094184067e-17 0.001964188805 -6.50192129e-16 -0.00102641198 0 0.007081363159 -7.547667353e-16 -0.0007728237228)
(0.01115656868 2.974667982e-16 0.001711941819 -6.389422641e-16 -0.0008505062765 5.68936416e-15 0.005968266486 -1.099499249e-15 -0.001206267501)
(0.01128525526 2.835955034e-16 0.001459631519 -6.37656914e-16 -0.0006805595218 5.715191947e-15 0.004855904083 -1.164906364e-15 -0.00157614104)
(0.01135665444 -7.008675292e-17 0.001213696408 -6.324295542e-16 -0.0005169770711 0 0.003749448629 -8.906388718e-16 -0.001880694308)
(0.01136244536 1.708956009e-16 0.0009809878711 -6.224719432e-16 -0.0003601453136 0 0.002654184316 -7.9355628e-16 -0.002118866383)
(0.01128280313 3.811852473e-16 0.0007700705304 -6.211507648e-16 -0.0002105802997 0 0.001576885766 -7.882329249e-16 -0.002289771553)
(0.01124977731 1.263261999e-16 0.0003346077933 -6.16114787e-16 -6.905053484e-05 0 0.0005267691115 -7.866009921e-16 -0.002393589546)
(-0.006452377058 5.15458668e-15 -4.924991465e-06 -9.653025039e-15 -0.01061747147 0 0.001227513465 9.624853609e-16 0.02946135243)
(-0.008560880959 9.30178097e-15 -0.0002402215407 -7.77247306e-15 -0.0092518259 0 0.00318680537 3.078039812e-15 0.02940664616)
(-0.00843323692 5.541915791e-15 -0.0004723194854 -8.932897616e-15 -0.008828127273 -6.522129881e-14 0.005019701356 7.755227299e-15 0.02935025354)
(-0.008579824926 -6.888325613e-15 -0.000599984982 -6.852150119e-15 -0.008755142596 0 0.006899011606 1.57011288e-15 0.02925398916)
(-0.008518320899 -4.816678974e-15 -0.0007087070938 -2.375118366e-15 -0.008711212828 3.830112137e-14 0.008731579983 -2.300712467e-15 0.029120628)
(-0.008410955059 8.911215825e-19 -0.000787694098 -2.517264829e-15 -0.008666955159 0 0.01050142868 2.118283754e-15 0.02894857538)
(-0.008278187878 -4.079519278e-15 -0.0008284821084 -1.752047075e-15 -0.008619221778 -2.803275319e-14 0.012206038 6.040222075e-15 0.02873364659)
(-0.008113511797 -4.279289774e-15 -0.0008286506382 -8.538044409e-16 -0.008565955069 0 0.01383974636 4.805213108e-15 0.02847268759)
(-0.007910744326 -2.695853277e-15 -0.000789152121 -4.204855085e-16 -0.008505361837 -2.266195583e-14 0.01539459282 5.902850278e-15 0.02816454622)
(-0.007668799295 4.447681116e-16 -0.0007093557174 -1.628689093e-16 -0.00843596976 0 0.01686563903 4.559124821e-15 0.02780675977)
(-0.007389090528 2.190876097e-15 -0.0005865734595 -4.16629863e-16 -0.008357188493 0 0.01825097933 4.983656532e-15 0.02739472219)
(-0.007067442779 2.282617148e-15 -0.000423417908 -4.799735251e-16 -0.008268706068 -1.820344036e-14 0.01954425298 6.718786668e-15 0.02692719095)
(-0.006700936666 2.455676756e-15 -0.0002233422089 -6.725497297e-16 -0.008169774643 -1.721727308e-14 0.02073965406 6.716106201e-15 0.02640407736)
(-0.006291310678 2.703088103e-15 1.388549607e-05 -7.522288833e-16 -0.00806006931 0 0.02183603719 4.648341146e-15 0.02582226462)
(-0.005836647131 2.008076223e-15 0.0002837529106 -9.037943673e-16 -0.00793949367 0 0.02282833925 3.70153073e-15 0.02518244303)
(-0.005337353457 -7.243954435e-16 0.0005826323491 -8.986105768e-16 -0.007807739666 -1.508487263e-14 0.02371365072 3.148946952e-15 0.02448508184)
(-0.004794959742 -6.570922397e-17 0.0009077891525 -7.397219361e-16 -0.007664921538 0 0.02449056828 1.762631719e-15 0.02372970168)
(-0.004209419386 1.835576418e-15 0.001253564715 -7.996549205e-16 -0.007511049743 0 0.02515592829 6.391274455e-16 0.02291948901)
(-0.003583114393 1.556197116e-15 0.001616241176 -8.043471929e-16 -0.007346278289 1.372752543e-14 0.02570934597 -1.040981466e-15 0.02205466956)
(-0.002917748575 1.090378517e-15 0.001990088225 -8.23586218e-16 -0.007170873666 2.677308848e-14 0.02614912059 -1.632584624e-15 0.02113920297)
(-0.002215895408 1.127627929e-15 0.002370549204 -8.691305033e-16 -0.006985121712 0 0.02647565709 -3.514852253e-16 0.02017508859)
(-0.00148045185 1.990552455e-15 0.002752015753 -8.893327948e-16 -0.00678944423 0 0.02668876747 3.203205829e-16 0.01916651406)
(-0.0007144891779 3.212369383e-17 0.00312932091 -9.472285007e-16 -0.006584274248 0 0.02678948537 7.352496446e-16 0.01811704937)
(7.807449493e-05 -1.944996705e-15 0.003497078167 -8.352520311e-16 -0.006370146089 0 0.02677895652 7.473732611e-16 0.0170312324)
(0.0008931714675 -1.390817301e-15 0.003850129879 -7.637084427e-16 -0.006147636851 0 0.02665918123 7.337203306e-16 0.01591367467)
(0.001726388656 -2.263419243e-16 0.004183300076 -6.716041604e-16 -0.005917394386 0 0.02643234705 6.698280452e-16 0.01476944291)
(0.002573502246 9.293741335e-16 0.004491516955 -6.990958002e-16 -0.005680102362 -1.193123499e-14 0.02610113468 5.623118005e-16 0.01360388149)
(0.003429728515 9.570863902e-16 0.004770148343 -7.038314608e-16 -0.005436475288 1.181513796e-14 0.02566863936 -4.969197835e-17 0.01242259207)
(0.004290190785 9.378286807e-16 0.005014853308 -7.207672605e-16 -0.005187273986 0 0.02513844646 3.502890005e-16 0.01123129147)
(0.005149856788 1.073364019e-15 0.005221712585 -7.155390407e-16 -0.00493327487 0 0.0245143887 5.904210595e-16 0.0100360609)
(0.006003541968 1.371869993e-15 0.005387185836 -7.22433683e-16 -0.004675288629 0 0.02380066498 8.005930939e-16 0.008842794717)
(0.006845806845 1.256485708e-15 0.005508502749 -7.412110827e-16 -0.004414134159 -5.750001126e-15 0.02300192838 1.086038411e-15 0.00765789144)
(0.007671488181 4.913385944e-16 0.005583160721 -7.381547051e-16 -0.004150660531 0 0.02212294277 7.591452836e-16 0.006487265614)
(0.008475524297 2.262752849e-16 0.005609510484 -7.246383258e-16 -0.003885700961 0 0.02116882464 4.707057315e-16 0.005337506423)
(0.00925266425 5.563879527e-16 0.005586422401 -7.34059333e-16 -0.003620103192 0 0.02014488681 2.534968819e-16 0.004214354179)
(0.009997589094 8.453476761e-16 0.005513716808 -7.218260593e-16 -0.003354701758 0 0.01905685229 4.491703007e-17 0.003124349374)
(0.01070514395 8.650236658e-16 0.005391666409 -7.157202299e-16 -0.003090340182 5.681376089e-15 0.0179105218 -1.995779634e-16 0.00207299354)
(0.01137051844 3.606594372e-16 0.005221490405 -7.267801278e-16 -0.002827837922 0 0.01671202767 1.313320398e-17 0.001066599945)
(0.011989043 -5.580672408e-16 0.005004911098 -7.161372293e-16 -0.002568005562 0 0.01546752539 2.829086358e-17 0.0001102883682)
(0.01255620567 -1.045193447e-15 0.004744593347 -6.892611796e-16 -0.002311624248 -5.69196329e-15 0.01418348125 1.45508681e-16 -0.0007900574647)
(0.01306749832 1.177611387e-16 0.004443810569 -6.515829909e-16 -0.002059459768 5.702743442e-15 0.01286646314 -3.031065455e-16 -0.001629847597)
(0.01351907837 9.524533047e-16 0.004106635357 -6.699454603e-16 -0.001812249658 0 0.01152318703 -3.568588053e-16 -0.00240380402)
(0.01390739504 1.086350278e-15 0.003737791618 -6.691761093e-16 -0.001570695561 0 0.01016039559 -4.214019404e-16 -0.003107978369)
(0.01422912975 1.558856416e-15 0.003342770401 -6.827966443e-16 -0.001335465479 0 0.008784887723 -4.170330231e-16 -0.003737957995)
(0.01448129059 1.166058934e-15 0.002927888799 -6.883904957e-16 -0.001107189419 5.777966128e-15 0.007403605147 -4.462567645e-16 -0.004290642193)
(0.0146624366 1.944555381e-17 0.002500082415 -6.929325955e-16 -0.0008864593547 0 0.006023326919 -1.892076679e-16 -0.004762676503)
(0.01477084686 -3.192367366e-16 0.002066799194 -6.7788157e-16 -0.0006737928731 0 0.004650609774 -6.97888089e-17 -0.005151969849)
(0.01479469212 1.874826734e-16 0.001635737827 -6.658145555e-16 -0.0004696862086 5.864895525e-15 0.003291873408 -1.376191157e-16 -0.005456397868)
(0.01470700077 2.68558619e-16 0.001217109991 -6.632294575e-16 -0.0002748290374 0 0.001955694961 1.096797166e-16 -0.005674904219)
(0.01468739605 9.058559829e-17 0.000504671619 -6.566872266e-16 -9.024426463e-05 0 0.0006529574972 2.504010661e-16 -0.00580691358)
(-0.008378871516 6.09487675e-16 4.93717818e-05 -4.220625336e-15 -0.0137917392 0 0.00152733137 1.53884908e-15 0.03465347654)
(-0.01111337537 -1.616765488e-15 -0.0001626860034 -1.993048698e-15 -0.01201556038 0 0.003964414726 4.672675101e-15 0.03458362746)
(-0.01094118161 2.987021084e-15 -0.0003616286282 9.702693972e-17 -0.01146249801 0 0.006243664586 1.005147376e-14 0.03450717987)
(-0.01112215432 5.322732567e-15 -0.0004336550506 -2.13753555e-15 -0.01136446247 -9.728161792e-14 0.00858099222 1.224583626e-14 0.03437673929)
(-0.01103086183 -1.693639694e-15 -0.0004841297696 -2.374122578e-15 -0.01130316362 0 0.01086092604 4.479902663e-15 0.03419545449)
(-0.01088006736 -6.515032154e-15 -0.0004984827585 -8.947640786e-16 -0.01124095029 0 0.01306374719 6.305140663e-15 0.03396165615)
(-0.01069413191 -3.081443134e-15 -0.0004683658789 2.224166893e-16 -0.01117404449 -2.846933623e-14 0.01518430369 7.166431138e-15 0.03367214013)
(-0.01046251517 -1.157304855e-15 -0.0003929825288 1.48645992e-16 -0.01109929868 0 0.01721373923 4.172241055e-15 0.03332498164)
(-0.0101816113 -2.819970672e-16 -0.0002715118297 4.27034164e-16 -0.01101418785 0 0.01914461247 2.710071468e-15 0.03291745853)
(-0.009853457558 1.181098186e-15 -0.0001005731055 2.274324734e-16 -0.01091748646 0 0.02097346354 1.81987994e-15 0.03244441546)
(-0.009475067071 -6.129658382e-16 0.0001194159002 1.53861262e-16 -0.01080876953 0 0.02269400181 2.959422661e-15 0.0319028253)
(-0.009040885251 -2.837103464e-16 0.0003840842055 2.888584586e-16 -0.01068717558 0 0.02429764197 3.819379711e-15 0.03129286643)
(-0.008552521876 3.251834774e-15 0.0006928206627 1.536804094e-16 -0.0105519899 -1.748541547e-14 0.0257812212 5.677888907e-15 0.03061150408)
(-0.008009647844 4.41734561e-15 0.001043085835 -1.950495629e-16 -0.01040317572 0 0.02714033277 4.630298766e-15 0.02985721012)
(-0.007409928905 3.217893079e-15 0.001429163018 -4.044851249e-16 -0.01024039034 -1.593049107e-14 0.02836889587 5.033790137e-15 0.02903182755)
(-0.006755754011 2.626663029e-15 0.001848483675 -5.385868927e-16 -0.01006352542 0 0.02946527689 3.517868019e-15 0.02813400926)
(-0.006047523673 2.634709546e-15 0.002294993405 -6.356666381e-16 -0.009872733162 0 0.03042522029 2.007137366e-15 0.02716616803)
(-0.005286940748 3.577451817e-15 0.002763478252 -7.280975207e-16 -0.009668066104 0 0.03124671371 1.787778446e-15 0.02613031779)
(-0.004476441614 3.351710046e-15 0.003248629064 -8.985615355e-16 -0.00944987704 0 0.03192837362 1.614157508e-15 0.02502853742)
(-0.00361862304 2.183085061e-16 0.003743767935 -9.824531037e-16 -0.009218460367 0 0.03246874024 1.527590622e-15 0.02386531942)
(-0.002717134356 -1.438287815e-15 0.004243336569 -8.567055954e-16 -0.008974329234 0 0.03286813837 1.210204716e-15 0.02264309731)
(-0.001775116223 -6.02453469e-16 0.004740411668 -7.886952705e-16 -0.008717996359 0 0.03312646163 1.982037764e-15 0.02136796961)
(-0.0007968703064 -1.70318209e-16 0.005229001031 -7.495953267e-16 -0.008450083979 -1.279309358e-14 0.03324520117 3.11882114e-15 0.02004337666)
(0.0002129285913 2.713241933e-17 0.005702490722 -7.130303755e-16 -0.008171270446 0 0.03322587388 1.921089939e-15 0.0186761986)
(0.001249167666 1.041458386e-16 0.006154749336 -7.028897327e-16 -0.007882321429 0 0.0330710882 1.162585702e-15 0.017270831)
(0.002306765926 4.14674378e-16 0.006579432166 -6.461656543e-16 -0.007584050482 0 0.03278363752 5.420377118e-16 0.01583477071)
(0.003380434896 1.22072333e-15 0.006970490326 -6.863174236e-16 -0.007277319105 0 0.03236698262 5.352166863e-16 0.01437325509)
(0.004464381376 7.534941239e-16 0.007322279418 -7.147929556e-16 -0.006963021731 0 0.03182512316 5.756119918e-16 0.01289415878)
(0.005552730209 -1.406979659e-17 0.007629376011 -6.971357277e-16 -0.006642103372 0 0.03116245836 6.536538002e-16 0.01140330559)
(0.006639570409 2.706362015e-16 0.007886960562 -6.690096261e-16 -0.006315523545 0 0.03038391718 7.88534331e-16 0.009908927242)
(0.007718530987 2.406955738e-16 0.008090527256 -6.534381047e-16 -0.00598427206 0 0.02949470923 1.005963225e-15 0.008417247038)
(0.008783225682 9.665386759e-16 0.008236391246 -6.501063569e-16 -0.005649359481 -5.839551837e-15 0.02850065104 1.384143137e-15 0.006936611105)
(0.009827518274 1.527530982e-15 0.008321129597 -6.701423383e-16 -0.005311809694 0 0.02740757748 1.01959982e-15 0.005473579241)
(0.01084524697 1.229090156e-15 0.008342369905 -6.906362448e-16 -0.004972642135 0 0.0262219433 7.584318442e-16 0.004036497917)
(0.01182996268 1.161510413e-15 0.008298230235 -7.003102888e-16 -0.004632880097 0 0.0249503017 5.741692159e-16 0.002632008319)
(0.01277518615 1.183811987e-15 0.008187846907 -7.217898364e-16 -0.004293546313 0 0.02359977027 4.29108987e-16 0.001268275366)
(0.01367457372 5.359718815e-16 0.00801084301 -7.212322539e-16 -0.003955659759 0 0.02217747053 2.912038552e-16 -4.808455284e-05)
(0.01452219004 2.846113894e-16 0.007767880881 -7.099273074e-16 -0.003620226434 0 0.02069098965 2.654820108e-16 -0.00130919385)
(0.01531220606 5.532309185e-16 0.007460295778 -6.991008252e-16 -0.003288228405 0 0.01914797481 1.180090205e-16 -0.002508621345)
(0.01603875052 9.698592918e-16 0.007090439366 -6.999957564e-16 -0.0029606286 0 0.0175564668 -3.791651727e-16 -0.003639026637)
(0.01669620235 7.538587477e-16 0.006661424413 -7.01321496e-16 -0.002638366629 1.158311632e-14 0.01592459901 -7.834513551e-16 -0.004694425258)
(0.01727947173 1.284293283e-16 0.006177243699 -7.030585206e-16 -0.00232235376 0 0.01426063231 -4.258838656e-16 -0.005668188686)
(0.01778398413 1.693163293e-16 0.005642872509 -6.881283978e-16 -0.002013461726 5.82349983e-15 0.01257296363 -2.975217747e-16 -0.006555034546)
(0.01820513149 1.597973498e-16 0.005064183648 -6.820160477e-16 -0.001712520916 0 0.0108700095 1.402189334e-16 -0.007349321191)
(0.01853893942 -3.048064189e-16 0.004448121357 -6.819202458e-16 -0.001420327918 0 0.009160322033 5.797988443e-16 -0.008046834134)
(0.01878345128 -7.336027295e-16 0.003802382721 -6.591119689e-16 -0.001137624695 -1.178918177e-14 0.00745215348 8.669662109e-16 -0.008643137769)
(0.0189364114 -2.0893954e-16 0.003135501967 -6.378184115e-16 -0.0008650700165 0 0.005753606031 7.436069353e-16 -0.00913532713)
(0.01898168244 -3.449381792e-16 0.002456179409 -6.340133604e-16 -0.0006032877875 0 0.004072449737 9.552885819e-16 -0.009520399857)
(0.01888415345 -7.265781879e-16 0.00177643129 -6.128578933e-16 -0.0003531842508 -5.99108814e-15 0.002419279588 1.323337607e-15 -0.009796794192)
(0.01887899802 -2.789377213e-16 0.0007168652088 -5.993951521e-16 -0.0001160726006 -6.028539087e-15 0.0008070915332 1.426818886e-15 -0.0099632814)
(-0.01073556217 -3.836561071e-16 0.0001176985466 -2.493878857e-15 -0.01767583324 0 0.001895913372 4.029007196e-16 0.04102154691)
(-0.01423593942 -1.613360455e-15 -6.170194426e-05 -4.793890236e-16 -0.01539678457 0 0.004920250902 9.20763956e-16 0.04093206942)
(-0.01401006382 -3.053618454e-15 -0.0002142972704 5.912278002e-16 -0.01468539428 0 0.007748922139 7.699864251e-17 0.04082888244)
(-0.01423423092 1.284875284e-15 -0.0002119061411 1.495456515e-15 -0.01455705703 0 0.01065137931 3.75680198e-15 0.04065396447)
(-0.01410718836 1.644743821e-15 -0.0001857659798 0 -0.01447491482 0 0.01348283642 4.929001054e-15 0.04041185282)
(-0.01390164449 -3.410313209e-15 -0.0001181422947 2.596281381e-16 -0.01439107097 0 0.01621738385 2.853860698e-15 0.04010252391)
(-0.01364716194 -1.039678718e-15 -2.073235786e-07 9.317568359e-16 -0.01430043798 0 0.01884741559 6.259145753e-16 0.03972326584)
(-0.01333312456 1.502630955e-15 0.0001704154712 5.535232873e-16 -0.01419876815 0 0.02136384397 7.408894496e-16 0.03927070785)
(-0.01295919028 4.446960035e-16 0.0003976548496 4.336844834e-16 -0.01408341538 0 0.0237605643 -3.691124681e-16 0.03873922005)
(-0.01252434339 2.870774838e-18 0.0006830507482 3.359626782e-16 -0.01395338604 0 0.02603036781 3.72571957e-16 0.03812393057)
(-0.0120218702 -6.069470218e-16 0.001022629576 3.515791171e-16 -0.01380767383 0 0.02816240538 1.28531081e-15 0.03742424571)
(-0.01145093822 -1.642648406e-15 0.001414526718 3.666961627e-16 -0.01364512439 0 0.03015019958 1.519950373e-16 0.03663793538)
(-0.01081309775 1.439244884e-15 0.001857968388 5.202457211e-16 -0.01346545978 0 0.03198951545 5.110046836e-16 0.035761304)
(-0.01010482436 3.606223789e-15 0.002346512805 1.650726024e-16 -0.01326842429 0 0.03367190143 1.899812083e-15 0.03479561872)
(-0.009327389439 3.770099884e-15 0.002875867163 0 -0.01305363023 0 0.03519297476 2.720149137e-15 0.03374076504)
(-0.008482660938 3.928025578e-15 0.003441437847 -3.342621658e-16 -0.0128212679 -1.555838445e-14 0.03654895319 3.560396429e-15 0.03259677094)
(-0.00757087428 2.602237538e-15 0.004035568479 -3.814708465e-16 -0.01257139187 0 0.03773466132 2.870960599e-15 0.03136757422)
(-0.006595506688 2.480405793e-15 0.004652971694 -5.119174952e-16 -0.01230427964 0 0.03874863085 2.886494126e-15 0.03005416929)
(-0.005559062685 1.998482661e-15 0.005285707216 -6.083700528e-16 -0.01202037232 0 0.03958774968 3.682045299e-15 0.02866169802)
(-0.004465420898 1.747569003e-15 0.005927273669 -6.741575093e-16 -0.01172013964 -1.380674579e-14 0.04025186634 4.425759311e-15 0.02719370983)
(-0.003318770718 2.883936987e-16 0.006569794533 -6.591267463e-16 -0.01140426026 0 0.04074018948 3.083728932e-15 0.02565564191)
(-0.002123613003 -1.308881154e-15 0.007205598929 -6.459498686e-16 -0.01107341512 0 0.04105340575 2.372942319e-15 0.02405326851)
(-0.0008854314064 2.20351685e-16 0.007827230182 -5.836395506e-16 -0.01072844448 0 0.04119301196 1.966185225e-15 0.02239245625)
(0.0003900400669 1.522716345e-15 0.008427017272 -5.992838002e-16 -0.01037022487 0 0.04116139562 1.619421664e-15 0.02068043949)
(0.001696552388 1.10758044e-15 0.008997545936 -6.3999092e-16 -0.009999748641 0 0.04096166001 1.23217303e-15 0.01892370769)
(0.003028067214 9.112149508e-16 0.009531246088 -6.076190446e-16 -0.009618040382 0 0.04059755922 9.197163685e-16 0.01713050636)
(0.004377964985 8.694262735e-16 0.0100209926 -6.48936278e-16 -0.009226183243 0 0.04007347732 7.706198637e-16 0.01530798704)
(0.005739395311 7.272262278e-16 0.01045994702 -6.188209885e-16 -0.008825299247 0 0.0393946119 9.192418055e-16 0.01346491972)
(0.007105271491 5.084777538e-16 0.01084154673 -6.607929183e-16 -0.008416551595 0 0.03856644783 5.018879291e-16 0.01160904707)
(0.008468444129 3.622961698e-16 0.01115977922 -6.325711716e-16 -0.008001129674 0 0.03759525482 4.940178207e-16 0.009749496562)
(0.009821284546 1.503273701e-16 0.01140916628 -6.286872074e-16 -0.007580243981 0 0.03648765244 4.617382096e-16 0.00789449135)
(0.01115631771 1.25008102e-15 0.01158475132 -6.02315672e-16 -0.007155134881 0 0.03525085043 3.54998133e-16 0.006053299453)
(0.01246614373 1.810580722e-15 0.01168217078 -6.690434163e-16 -0.006727038478 0 0.03389221161 5.755528559e-16 0.004234572049)
(0.01374319165 1.186922219e-15 0.01169792764 -6.439005875e-16 -0.006297201354 0 0.03241976246 6.49278657e-16 0.002447551342)
(0.0149796268 1.278370276e-15 0.01162929786 -6.768027145e-16 -0.005866862731 0 0.0308417649 7.135807245e-16 0.0007011137892)
(0.0161676356 1.47544528e-15 0.01147434338 -6.757624611e-16 -0.005437271576 0 0.02916700283 7.968025202e-16 -0.000995622498)
(0.01729960708 1.224320349e-15 0.011231896 -6.98129941e-16 -0.005009659374 0 0.0274043744 9.179794413e-16 -0.002633690706)
(0.01836804098 7.610378211e-16 0.01090167142 -6.980948434e-16 -0.004585250146 5.859419014e-15 0.02556316839 5.48424312e-16 -0.004204234849)
(0.01936556733 9.778440114e-16 0.01048449233 -7.099881129e-16 -0.004165241333 0 0.02365297789 6.053812014e-16 -0.00569846843)
(0.02028476994 1.128692284e-15 0.00998209297 -7.108969812e-16 -0.003750813437 0 0.02168370187 5.462961529e-16 -0.007107998077)
(0.02111871642 2.134217145e-16 0.009397314763 -7.237311631e-16 -0.003343119731 0 0.01966542301 7.472730033e-16 -0.008424531747)
(0.02186091637 -2.528963798e-16 0.008733973503 -6.96733069e-16 -0.002943278193 0 0.01760830559 6.42656596e-16 -0.009640393774)
(0.02250532319 -3.645776537e-16 0.007997182583 -6.930692321e-16 -0.002552365951 0 0.0155226568 6.102346088e-16 -0.0107482055)
(0.02304599927 -7.13693515e-16 0.007193274165 -6.665546945e-16 -0.002171413804 0 0.01341891864 5.666197964e-16 -0.01174136367)
(0.02347807799 -7.507707119e-16 0.006329783678 -6.488924982e-16 -0.001801412483 0 0.01130744399 5.563079634e-16 -0.01261381494)
(0.02379893343 -4.131593535e-16 0.005415440175 -6.3137696e-16 -0.00144328086 0 0.009198372283 3.333534847e-16 -0.0133603698)
(0.02400575854 -5.698606339e-16 0.00445990332 -6.1690603e-16 -0.001097843638 6.016302617e-15 0.007101496497 1.101798891e-16 -0.01397671951)
(0.02407723482 -1.429633868e-15 0.003473189702 -5.95152455e-16 -0.0007658730129 0 0.005026319054 2.152910062e-16 -0.01445933749)
(0.02396866351 -1.065056459e-15 0.002469186576 -5.674405747e-16 -0.000448532606 0 0.00298561995 7.137465966e-17 -0.01480568495)
(0.02397851512 -2.081830259e-16 0.0009793885179 -5.549193363e-16 -0.0001474753589 0 0.0009951900201 8.801784627e-17 -0.01501422367)
(-0.01361269142 -2.959527472e-16 0.000204042669 -2.374423712e-15 -0.02241915969 0 0.002348923351 -6.260116575e-17 0.04880488333)
(-0.01804827006 -9.257958668e-16 6.994438179e-05 -5.409500528e-16 -0.01952519882 0 0.006094875487 -2.578407687e-16 0.04869091843)
(-0.01775853588 -1.166210649e-15 -2.022865051e-05 2.001452019e-16 -0.01862044759 0 0.009598711306 -9.052476925e-16 0.04855404323)
(-0.01803644164 -2.544800375e-16 7.750122127e-05 4.409264947e-16 -0.01845585306 0 0.01319526936 -2.173457198e-15 0.04832449159)