/*--------------------------------*- C++ -*----------------------------------*\
  =========                 |
  \\      /  F ield         | OpenFOAM: The Open Source CFD Toolbox
   \\    /   O peration     | Website:  https://openfoam.org
    \\  /    A nd           | Version:  7
     \\/     M anipulation  |
\*---------------------------------------------------------------------------*/
FoamFile
{
    version     2.0;
    format      ascii;
    class       volScalarField;
    location    "0.0012";
    object      p;
}
// * * * * * * * * * * * * * * * * * * * * * * * * * * * * * * * * * * * * * //

dimensions      [1 -1 -2 0 0 0 0];

internalField   nonuniform List<scalar> 
1167
(
1469017.19
1469536.986
1469332.421
1469180.484
1469024.592
1468839.092
1468631.237
1468406.208
1468164.849
1467911.492
1467655.361
1467395.549
1467132.582
1466876.28
1466622.935
1466375.881
1466138.347
1465906.758
1465687.953
1469352.996
1470017.88
1469773.219
1469606.084
1469442.534
1469249.635
1469030.919
1468790.879
1468533.614
1468268.125
1467997.041
1467718.901
1467442.625
1467170.118
1466899.059
1466638.105
1466383.133
1466137.91
1465902.818
1465677.094
1465463.535
1465258.89
1465067.043
1464883.569
1464712.323
1464548.555
1464395.902
1464250.112
1464114.054
1463983.961
1463862.209
1463745.629
1463635.837
1463530.588
1463430.955
1463335.246
1463244.004
1463156.171
1463072.02
1462990.914
1462912.92
1462837.629
1462765.172
1462695.29
1462628.141
1462563.495
1462501.897
1462442.418
1462383.134
1462324.276
1469612.862
1470437.924
1470152.031
1469972.919
1469805.583
1469604.57
1469374.278
1469121.389
1468854.605
1468578.546
1468292.828
1468003.111
1467716.151
1467429.269
1467147.984
1466874.469
1466606.52
1466350.74
1466102.503
1465866.899
1465640.849
1465426.723
1465223.02
1465030.31
1464847.636
1464674.823
1464511.204
1464356.471
1464209.615
1464070.578
1463938.068
1463812.235
1463691.539
1463576.662
1463465.762
1463359.756
1463256.672
1463157.772
1463061.089
1462968.062
1462876.74
1462788.664
1462702.21
1462618.805
1462537.054
1462458.338
1462381.876
1462308.067
1462232.829
1462158.088
1469782.738
1470781.93
1470453.119
1470262.602
1470090.908
1469882.123
1469642.627
1469383.429
1469110.671
1468825.082
1468529.941
1468234.709
1467938.771
1467643.402
1467356.027
1467073.406
1466799.994
1466536.366
1466281.809
1466039.846
1465806.592
1465586.864
1465375.902
1465177.858
1464987.97
1464809.831
1464639.115
1464478.774
1464324.647
1464179.493
1464039.357
1463906.557
1463777.66
1463654.814
1463534.85
1463419.626
1463306.385
1463196.886
1463088.88
1462983.884
1462879.996
1462778.709
1462678.523
1462580.876
1462484.337
1462390.581
1462298.684
1462209.369
1462117.154
1462025.076
1469843.887
1471029.187
1470653.552
1470451.822
1470276.685
1470063.098
1469820.729
1469559.747
1469282.661
1468991.239
1468694.871
1468396.93
1468096.368
1467800.573
1467510.539
1467225.567
1466951.778
1466685.48
1466431.236
1466187.057
1465954.277
1465732.827
1465521.855
1465322.057
1465131.505
1464951.269
1464779.166
1464615.991
1464459.614
1464310.629
1464167.098
1464029.23
1463895.664
1463766.29
1463640.084
1463516.671
1463395.509
1463276.15
1463158.401
1463041.795
1462926.371
1462811.898
1462698.564
1462586.282
1462475.226
1462365.779
1462258.396
1462152.677
1462042.971
1461932.099
1469773.495
1471156.976
1470731.111
1470518.712
1470344.195
1470131.573
1469890.821
1469629.775
1469351.043
1469062.168
1468769.388
1468472.592
1468175.957
1467885.092
1467597.945
1467319.466
1467050.242
1466789.617
1466541.442
1466301.807
1466075.571
1465858.477
1465653.656
1465457.632
1465272.363
1465095.1
1464927.076
1464765.635
1464611.88
1464463.141
1464320.392
1464181.031
1464046.256
1463913.391
1463783.695
1463654.591
1463527.591
1463400.311
1463274.298
1463147.486
1463021.478
1462894.692
1462768.69
1462642.139
1462516.63
1462391.334
1462268.165
1462145.409
1462017.521
1461886.446
1469549.717
1471142.89
1470665.361
1470446.156
1470277.25
1470069.32
1469832.134
1469573.975
1469301.178
1469021.68
1468736.637
1468447.677
1468162.889
1467882.223
1467606.513
1467341.154
1467083.292
1466836.887
1466600.816
1466375.381
1466161.626
1465957.399
1465764.682
1465580.026
1465405.852
1465238.35
1465079.76
1464926.221
1464779.829
1464636.847
1464498.987
1464363.013
1464230.399
1464098.294
1463967.827
1463836.69
1463705.918
1463573.679
1463440.974
1463306.324
1463170.873
1463033.533
1462895.551
1462755.947
1462616.177
1462475.567
1462336.322
1462196.453
1462049.68
1461897.628
1469156.305
1470970.732
1470440.578
1470218.049
1470057.327
1469856.229
1469625.706
1469377.095
1469118.189
1468851.952
1468579.924
1468308.483
1468041.469
1467777.892
1467523.059
1467277.36
1467040.207
1466815.364
1466599.38
1466396.106
1466202.262
1466019.393
1465845.553
1465680.772
1465523.91
1465374.237
1465230.784
1465092.558
1464958.687
1464828.059
1464699.766
1464572.984
1464446.718
1464320.315
1464192.755
1464063.74
1463932.364
1463798.639
1463661.806
1463522.131
1463379.221
1463233.517
1463084.905
1462933.855
1462780.61
1462625.836
1462470.818
1462314.358
1462148.396
1461975.276
1468579.246
1470625.181
1470040.153
1469815.777
1469665.9
1469474.636
1469256.599
1469025.144
1468784.525
1468536.776
1468286.28
1468039.697
1467796.894
1467560.04
1467333.575
1467115.339
1466908.661
1466712.928
1466527.514
1466354.094
1466189.348
1466035.816
1465889.477
1465752.52
1465621.093
1465496.907
1465376.191
1465260.459
1465146.137
1465034.446
1464922.144
1464810.435
1464696.281
1464580.745
1464461.186
1464338.736
1464211.156
1464079.681
1463942.427
1463800.792
1463653.409
1463501.753
1463344.783
1463184.071
1463018.876
1462851.086
1462681.045
1462508.559
1462323.346
1462129.173
1467802.119
1470088.827
1469447.238
1469223.586
1469087.365
1468911.207
1468712.605
1468503.245
1468286.01
1468063.754
1467843.713
1467628.23
1467417.326
1467216.532
1467025.88
1466844.91
1466677.005
1466519.099
1466373.659
1466238.397
1466113.237
1465997.284
1465888.787
1465787.723
1465691.552
1465600.544
1465511.793
1465425.804
1465339.586
1465253.577
1465165.103
1465074.575
1464979.573
1464880.421
1464775.137
1464664.137
1464545.86
1464420.87
1464287.956
1464147.975
1464000.106
1463845.446
1463683.356
1463515.241
1463340.504
1463161.116
1462977.556
1462789.855
1462586.029
1462370.892
1466813.145
1469348.923
1468648.763
1468428.248
1468310.941
1468155.936
1467981.579
1467799.008
1467610.833
1467422.974
1467239.903
1467062.317
1466893.33
1466736.313
1466589.671
1466456.152
1466335.321
1466225.738
1466129.06
1466041.633
1465965.373
1465896.363
1465835.342
1465779.289
1465728.007
1465678.987
1465631.635
1465583.799
1465534.637
1465482.263
1465425.971
1465364.026
1465295.823
1465219.819
1465135.71
1465042.23
1464939.382
1464826.2
1464702.973
1464569.213
1464425.425
1464271.505
1464108.082
1463935.477
1463754.297
1463565.544
1463370.702
1463169.239
1462948.184
1462712.554
1465601.582
1468394.353
1467635.297
1467422.451
1467329.146
1467199.402
1467053.594
1466902.961
1466751.888
1466605.799
1466466.394
1466334.889
1466216.581
1466111.115
1466018.267
1465940.815
1465875.949
1465824.902
1465785.925
1465757.499
1465739.25
1465727.864
1465723.763
1465723.02
1465726.134
1465729.165
1465732.576
1465732.598
1465729.556
1465720.071
1465704.533
1465679.853
1465646.431
1465601.605
1465545.966
1465477.303
1465396.436
1465301.576
1465193.823
1465071.944
1464937.228
1464788.832
1464628.267
1464455.033
1464270.745
1464075.477
1463871.835
1463658.458
1463421.89
1463166.765
1464163.221
1467220.59
1466402.381
1466201.354
1466135.259
1466034.71
1465922.314
1465810.594
1465704.445
1465606.181
1465517.289
1465441.602
1465381.459
1465335.709
1465306.632
1465293.706
1465294.893
1465311.501
1465339.833
1465380.349
1465429.681
1465486.711
1465549.111
1465614.786
1465681.946
1465748.042
1465811.751
1465870.336
1465922.738
1465966.428
1466000.584
1466022.892
1466032.72
1466028.153
1466008.868
1465973.377
1465921.697
1465852.732
1465766.947
1465663.663
1465543.714
1465406.67
1465253.807
1465084.801
1464901.209
1464703.145
1464493.598
1464270.927
1464020.852
1463747.874
1462497.114
1465825.66
1464947.088
1464760.802
1464725.795
1464658.831
1464585.858
1464520.553
1464465.269
1464421.44
1464391.49
1464379.634
1464385.41
1464408.869
1464452.041
1464512.287
1464589.831
1464683.087
1464789.382
1464908.285
1465035.527
1465170.955
1465310.214
1465452.679
1465594.26
1465734.015
1465868.368
1465996.119
1466114.184
1466221.467
1466315.26
1466394.601
1466457.197
1466502.419
1466528.441
1466535.01
1466520.775
1466485.853
1466429.505
1466352.145
1466253.528
1466134.281
1465994.698
1465835.498
1465657.292
1465460.989
1465249.187
1465020.656
1464759.644
1464471.377
1460602.849
1464208.452
1463269.017
1463101.171
1463101.136
1463072.899
1463046.122
1463033.211
1463035.087
1463052.855
1463090.675
1463149.855
1463229.545
1463331.644
1463455.347
1463598.254
1463761.128
1463940.207
1464134.571
1464341.182
1464557.342
1464780.891
1465008.127
1465237.407
1465464.514
1465688.271
1465904.353
1466111.758
1466306.525
1466487.842
1466652.123
1466798.742
1466924.621
1467029.494
1467110.835
1467168.781
1467201.351
1467209.123
1467190.759
1467147.18
1467077.526
1466983.054
1466863.354
1466719.936
1466552.557
1466362.938
1466153.062
1465922.465
1465653.569
1465353.22
1458484.851
1462372.776
1461371.965
1461226.083
1461265.595
1461281.931
1461307.051
1461352.23
1461417.507
1461505.262
1461618.167
1461755.887
1461918.6
1462107.477
1462319.951
1462555.479
1462812.356
1463087.065
1463378.739
1463682.765
1463997.759
1464319.303
1464645.082
1464971.269
1465295.05
1465613.103
1465922.383
1466219.992
1466503.034
1466769.026
1467015.296
1467239.776
1467440.229
1467615.101
1467762.662
1467881.913
1467971.629
1468031.456
1468060.676
1468059.484
1468027.517
1467965.529
1467873.421
1467752.398
1467602.242
1467424.771
1467221.85
1466993.372
1466720.34
1466411.411
1456150.109
1460324.984
1459262.366
1459143.082
1459227.085
1459292.964
1459375.154
1459484.34
1459620.355
1459785.769
1459980.87
1460204.928
1460459.419
1460743.044
1461053.188
1461389.938
1461749.417
1462129.648
1462527.575
1462939.336
1463362.579
1463792.384
1464226.675
1464660.325
1465091.264
1465514.485
1465927.894
1466326.872
1466709.449
1467071.481
1467411.177
1467724.942
1468011.39
1468267.553
1468492.539
1468684.036
1468841.677
1468963.931
1469050.886
1469101.663
1469116.713
1469095.8
1469039.628
1468948.44
1468822.792
1468663.707
1468473.68
1468252.112
1467979.551
1467666.017
1453608.809
1458075.15
1456950.964
1456862.737
1456995.297
1457115.192
1457259.875
1457439.383
1457653.822
1457903.498
1458187.809
1458506.877
1458860.841
1459247.024
1459664.252
1460110.462
1460581.571
1461076.149
1461589.332
1462118.458
1462659.137
1463207.683
1463760.136
1464312.238
1464860.446
1465400.237
1465928.383
1466440.486
1466933.672
1467403.802
1467848.358
1468263.663
1468647.718
1468997.431
1469311.41
1469587.184
1469824.063
1470020.268
1470175.749
1470289.252
1470361.348
1470391.228
1470379.968
1470327.086
1470233.679
1470099.984
1469929.141
1469719.769
1469452.737
1469139.204
1450874.543
1455636.134
1454450.453
1454396.956
1454581.926
1454760.523
1454973.045
1455229.857
1455529.204
1455869.928
1456250.947
1456672.987
1457133.976
1457631.066
1458163.507
1458727.217
1459319.409
1459936.771
1460574.639
1461230.149
1461897.82
1462574.73
1463255.269
1463936.127
1464612.027
1465279.371
1465933.251
1466570.127
1467185.462
1467775.887
1468337.308
1468866.763
1469360.741
1469816.835
1470232.202
1470605.059
1470933.386
1471216.038
1471451.73
1471639.86
1471779.86
1471871.573
1471915.036
1471910.223
1471857.519
1471757.35
1471612.605
1471421.592
1471165.483
1470857.231
1447962.144
1453021.921
1451774.511
1451759.794
1452001.065
1452242.748
1452529.222
1452869.555
1453259.848
1453698.064
1454183.797
1454715.872
1455291.175
1455907.862
1456563.23
1457252.787
1457974.396
1458722.92
1459494.774
1460285.351
1461090.031
1461904.5
1462723.529
1463543.067
1464357.601
1465163.207
1465954.431
1466727.562
1467477.34
1468200.272
1468891.494
1469547.919
1470165.251
1470740.955
1471271.393
1471754.728
1472188.121
1472570.446
1472899.54
1473175.002
1473395.269
1473560.587
1473669.888
1473723.629
1473721.202
1473663.513
1473552.495
1473386.912
1473147.563
1472850.914
1444887.96
1450248.467
1448939.31
1448967.264
1449268.317
1449578.053
1449944.077
1450373.216
1450860.287
1451402.89
1452000.247
1452649.223
1453346.506
1454090.26
1454875.979
1455700.186
1456559.076
1457447.445
1458361.843
1459296.444
1460247.413
1461208.922
1462176.654
1463144.987
1464109.271
1465064.057
1466004.679
1466925.874
1467823.061
1468691.216
1469526.065
1470322.991
1471078.216
1471787.665
1472448.183
1473056.457
1473610.053
1474106.414
1474543.777
1474920.377
1475235.078
1475486.805
1475674.81
1475798.588
1475857.578
1475852.128
1475783.843
1475651.2
1475435.425
1475157.217
1441670.213
1447333.253
1445962.168
1446036.371
1446401.125
1446783.476
1447233.477
1447756.526
1448346.07
1448999.808
1449714.868
1450487.226
1451314.127
1452191.882
1453115.505
1454082.004
1455085.877
1456122.857
1457187.94
1458275.953
1459382.098
1460500.636
1461626.897
1462754.842
1463879.754
1464995.574
1466097.597
1467179.85
1468237.611
1469265.158
1470257.924
1471210.609
1472118.982
1472978.296
1473784.874
1474534.729
1475224.829
1475851.917
1476413.695
1476907.657
1477332.244
1477685.502
1477966.453
1478173.703
1478306.618
1478364.643
1478349.394
1478258.018
1478073.788
1477821.314
1438327.594
1444294.306
1442861.288
1442985.653
1443417.467
1443875.838
1444413.99
1445035.502
1445733.343
1446503.712
1447342.193
1448244.555
1449207.476
1450225.703
1451295.002
1452410.807
1453567.501
1454760.968
1455985.063
1457235.35
1458505.72
1459791.31
1461086.101
1462384.898
1463681.665
1464971.124
1466247.192
1467504.552
1468737.066
1469939.537
1471105.935
1472231.275
1473309.895
1474337.135
1475307.958
1476218.222
1477063.563
1477840.455
1478545.333
1479175.367
1479727.699
1480200.065
1480590.322
1480896.787
1481117.821
1481252.698
1481301.892
1481262.008
1481118.047
1480900.364
1439655.652
1439833.642
1440334.832
1440872.327
1441502.29
1442226.815
1443037.82
1443929.569
1444896.697
1445935.134
1447039.737
1448204.803
1449426.257
1450698.027
1452015.28
1453372.462
1454764.115
1456184.913
1457629.003
1459091.129
1460565.204
1462045.812
1463526.789
1465002.54
1466466.851
1467913.845
1469337.342
1470731.263
1472089.597
1473406.136
1474675.114
1475890.621
1477047.229
1478139.508
1479162.462
1480111.345
1480981.784
1481769.74
1482471.398
1483083.475
1483602.862
1484027.012
1484353.45
1484580.783
1484708.381
1484731.775
1484638.791
1484466.415
)
;

boundaryField
{
    front_top
    {
        type            wedge;
    }
    front_middle
    {
        type            wedge;
    }
    front_bottom
    {
        type            wedge;
    }
    back_top
    {
        type            wedge;
    }
    back_middle
    {
        type            wedge;
    }
    back_bottom
    {
        type            wedge;
    }
    axis_top
    {
        type            symmetryPlane;
    }
    axis_middle
    {
        type            symmetryPlane;
    }
    axis_bottom
    {
        type            symmetryPlane;
    }
    wall_top
    {
        type            fixedFluxPressure;
        gradient        uniform 0;
        value           nonuniform List<scalar> 
23
(
1462324.276
1462158.088
1462025.076
1461932.099
1461886.446
1461897.628
1461975.276
1462129.173
1462370.892
1462712.554
1463166.765
1463747.874
1464471.377
1465353.22
1466411.411
1467666.017
1469139.204
1470857.231
1472850.914
1475157.217
1477821.314
1480900.364
1484466.415
)
;
    }
    wall_middle
    {
        type            fixedFluxPressure;
        gradient        nonuniform 0();
        value           nonuniform 0();
    }
    wall_bottom
    {
        type            fixedFluxPressure;
        gradient        nonuniform 0();
        value           nonuniform 0();
    }
    inlet
    {
        type            zeroGradient;
    }
    outlet
    {
        type            fixedValue;
        value           nonuniform 0();
    }
    procBoundary6to5
    {
        type            processor;
        value           nonuniform List<scalar> 
51
(
1434879.67
1441150.629
1441150.629
1436363.682
1436598.041
1437170.719
1437789.939
1438514.996
1439346.591
1440274.413
1441291.516
1442392.337
1443571.603
1444822.871
1446140.908
1447520.071
1448954.286
1450438.68
1451966.758
1453533.743
1455133.235
1456760.249
1458408.449
1460072.63
1461746.405
1463424.335
1465099.967
1466767.486
1468420.298
1470052.265
1471656.67
1473227.039
1474756.639
1476238.807
1477666.943
1479034.526
1480335.047
1481562.437
1482710.538
1483773.854
1484746.664
1485624.111
1486401.324
1487074.217
1487638.774
1488091.77
1488430.632
1488653.829
1488754.936
1488725.945
1488611.784
)
;
    }
    procBoundary6to7
    {
        type            processor;
        value           nonuniform List<scalar> 
51
(
1468626.257
1469013.982
1468845.081
1468709.548
1468566.161
1468392.7
1468195.821
1467984.349
1467761.495
1467526.389
1467284.843
1467044.414
1466801.579
1466561.272
1466328.495
1466098.332
1465879.047
1465666.819
1465464.497
1465476.393
1465476.393
1465277.622
1465087.425
1464909.173
1464739.865
1464581.504
1464431.398
1464291.164
1464158.33
1464034.464
1463916.741
1463807.135
1463702.491
1463604.985
1463511.416
1463424.295
1463340.376
1463261.882
1463186.034
1463114.928
1463046.119
1462981.536
1462918.939
1462860.154
1462803.329
1462750.072
1462698.752
1462650.975
1462604.896
1462560.116
1462516.028
)
;
    }
}


// ************************************************************************* //
