/*--------------------------------*- C++ -*----------------------------------*\
  =========                 |
  \\      /  F ield         | OpenFOAM: The Open Source CFD Toolbox
   \\    /   O peration     | Website:  https://openfoam.org
    \\  /    A nd           | Version:  7
     \\/     M anipulation  |
\*---------------------------------------------------------------------------*/
FoamFile
{
    version     2.0;
    format      ascii;
    class       volScalarField;
    location    "0.0012";
    object      thermo:mu;
}
// * * * * * * * * * * * * * * * * * * * * * * * * * * * * * * * * * * * * * //

dimensions      [1 -1 -1 0 0 0 0];

internalField   nonuniform List<scalar> 
1167
(
681465.3083
678632.4289
672606.1453
663815.9927
652574.2458
639206.8223
624006.3212
607271.4425
589291.9951
570359.6467
550721.8901
530602.638
510229.9778
489784.0229
469414.6651
449288.6525
429496.0714
410149.9874
391323.1275
663671.0821
660929.94
655098.5437
646599.1322
635735.0577
622796.9049
608080.1306
591874.9207
574472.6444
556140.3612
537111.1163
517617.3226
497877.3469
478048.3894
458302.7211
438772.7107
419562.5553
400787.5563
382500.1639
364782.1833
347661.2935
331183.1613
315359.3415
300208.3707
285728.3043
271920.992
258773.9586
246278.01
234412.0639
223161.5789
212499.7288
202409.1929
192860.4565
183835.5808
175303.1492
167245.5957
159631.9031
152445.8107
145657.2763
139251.3238
133199.5521
127488.6059
122092.5682
116998.8533
112184.195
107637.1889
103337.5097
99274.46928
95430.30541
91794.5791
646720.7132
644070.2601
638431.4717
630205.0788
619681.7715
607147.8584
592888.7746
577192.6241
560337.6308
542564.7658
524112.1356
505222.9582
486070.7717
466830.0202
447674.1287
428709.3797
410063.2259
391820.5292
374054.3934
356831.7101
340184.192
324159.6826
308761.2366
294018.8983
279918.1607
266474.9629
253664.3577
241489.5617
229920.1853
218951.2354
208549.7751
198704.7336
189384.1602
180572.6339
172239.3852
164366.8396
156926.8812
149901.1651
143263.9152
136996.9152
131076.747
125486.4553
120204.7356
115215.8612
110500.464
106044.9049
101831.3981
97848.3248
94078.7393
90513.20456
630572.855
628004.1256
622538.9813
614565.3583
604364.4233
592213.031
578393.2234
563185.1334
546836.0629
529593.3269
511702.9225
493371.0446
474776.636
456106.5179
437498.1964
419074.243
400960.6531
383224.4537
365958.0699
349203.5305
333013.76
317415.0494
302429.8075
288070.1006
274338.8959
261236.6941
248753.6674
236880.2094
225599.601
214895.4055
204747.0505
195133.9488
186034.6302
177425.4309
169284.916
161588.6195
154316.4656
147444.0825
140952.758
134818.9873
129025.7306
123551.3393
118379.9275
113491.7874
108872.4106
104504.585
100374.8037
96468.10724
92771.43765
89272.58112
615160.9855
612669.5479
607368.6518
599634.1642
589738.2803
577955.6155
564558.5633
549798.8715
533929.1874
517196.434
499834.0526
482028.159
463970.0024
445834.7368
427746.8088
409846.5557
392230.0401
374982.7793
358185.588
341878.3748
326123.9191
310931.5882
296340.7994
282346.7575
268968.8228
256192.9011
244023.3639
232438.5531
221434.6147
210984.3306
201078.7831
191688.3612
182801.4868
174386.7206
166431.4515
158904.6942
151793.9546
145069.4249
138718.3218
132713.2298
127041.9121
121679.4695
116614.1419
111823.1706
107296.3716
103013.1869
98964.16585
95131.17491
91504.86076
88070.36038
600440.8983
598022.5686
592877.0479
585368.8163
575771.3529
564340.6063
551330.935
536996.0198
521581.549
505341.7192
488469.4364
471162.7575
453621.604
435986.3894
418397.7382
400991.0197
383847.7241
367070.7341
350716.1424
334844.3113
319496.4174
304698.8987
290478.26
276838.6718
263794.1589
251334.2489
239461.4518
228156.7713
217414.8218
207211.5989
197536.0489
188362.9439
179676.9692
171452.5543
163672.3099
156312.0621
149353.5905
142774.1558
136555.591
130676.8667
125120.995
119868.5096
114903.6097
110208.4055
105769.1084
101569.1337
97596.6211
93835.64359
90276.51118
86904.35901
586371.3966
584022.2078
579028.8004
571744.8202
562423.6389
551316.4419
538673.5913
524741.0731
509774.6848
493985.0887
477577.7781
460756.1851
443694.4957
426534.5562
409428.9148
392483.5624
375796.5409
359462.0152
343529.5548
328073.0914
313113.52
298694.8982
284826.6676
271529.051
258801.2878
246646.889
235056.0607
224022.5381
213529.9174
203565.7761
194109.8598
185146.7984
176653.3124
168612.6497
161000.7485
153801.0543
146989.5128
140550.0986
134459.5319
128702.8595
123258.5566
118112.3279
113244.5312
108641.9211
104287.2634
100168.0661
96269.25557
92578.62686
89083.82053
85773.12018
572927.7163
570647.0638
565794.162
558712.0557
549648.5916
538847.5692
526551.9775
513014.2206
498458.3131
483095.5629
467131.6652
450771.085
434161.6033
417459.2487
400807.0945
384300.9656
368054.0285
352135.8791
336614.6114
321546.2143
306961.4387
292901.4671
279371.8823
266400.6442
253976.7402
242115.312
230795.2836
220022.2929
209769.5038
200035.4434
190791.2533
182030.4075
173722.9992
165859.1873
158410.4693
151365.2133
144696.4027
138391.6188
132425.5801
126786.316
121450.5251
116406.6454
111633.1577
107119.9848
102847.3367
98806.39129
94979.0076
91356.54064
87924.07401
84672.90648
560064.145
557845.0767
553123.1159
546231.8046
537411.9868
526900.5298
514944.3073
501772.7267
487601.9018
472643.6903
457111.961
441176.8979
424996.9098
408736.036
392508.5898
376425.3454
360592.9486
345071.9258
329944.2193
315245.4221
301023.4775
287302.2634
274103.1204
261438.9772
249312.6346
237726.62
226672.3
216144.5849
206127.4931
196610.5931
187574.6133
179004.9025
170880.3997
163184.3953
155896.051
148997.7314
142469.1865
136292.7314
130449.2143
124922.0208
119693.0736
114746.8666
110066.571
105638.5964
101447.178
97480.55732
93723.46835
90166.2683
86794.62506
83600.94685
547741.7464
545580.7994
540982.4395
534271.2724
525681.5784
515453.7844
503814.277
490982.728
477176.3702
462609.9429
447478.8987
431947.4688
416182.8299
400333.7538
384510.2677
368835.6585
353392.1826
338256.1039
323497.8996
309153.0771
295277.5208
281880.8119
268998.4814
256629.1267
244788.6062
233467.4802
222669.084
212377.5591
202587.8819
193280.5726
184445.7326
176060.8784
168113.3724
160579.9244
153447.0008
146691.2127
140298.7689
134246.9457
128522.4529
123104.2087
117979.1346
113127.9478
108538.3162
104193.2682
100081.0068
96186.62864
92498.47964
89004.30853
85692.84
82554.12271
535928.8959
533822.7205
529340.8643
522799.5402
514438.4653
504473.2707
493125.9711
480615.6599
467156.1707
452963.1066
438206.2713
423057.4193
407691.3434
392228.762
376793.5108
361503.554
346430.6513
331664.9167
317256.3022
303257.1543
289705.7796
276625.0721
264041.8036
251958.3718
240389.9173
229325.6347
218772.0814
208709.8168
199138.54
190035.0803
181393.7567
173189.1469
165412.1892
158037.6598
151054.622
144438.4675
138177.377
132247.8449
126638.3998
121327.0207
116302.5655
111544.458
107042.9489
102778.8629
98743.8729
94920.048
91299.2114
87866.59255
84613.86332
81528.79676
524595.808
522541.1399
518174.8934
511802.8295
503646.2906
493923.3952
482851.4911
470644.1619
457523.27
443671.5574
429268.6149
414491.8891
399493.5409
384397.6844
369337.605
354407.1056
339691.2465
325274.4105
311199.5992
297530.8841
284289.8971
271514.2575
259216.0448
247410.6625
236100.8465
225287.7831
214966.8227
205129.5519
195766.2546
186863.2373
178406.6018
170379.4674
162765.8774
155548.04
148708.9846
142230.6905
136096.0443
130287.5298
124789.0094
119583.578
114656.1347
109990.7066
105574.0258
101390.9565
97429.98342
93676.3189
90120.50454
86748.5785
83553.06805
80520.57926
513726.983
511723.5742
507460.3183
501237.699
493272.3153
483777.0682
472964.105
461052.6978
448239.7679
434709.9028
420642.344
406217.9245
391565.5714
376821.3328
362113.0589
347524.1056
333153.0195
319063.5279
305313.1282
291954.3208
279012.2315
266527.4058
254502.9493
242964.9565
231904.2883
221333.5632
211237.3699
201617.8369
192456.1286
183747.6269
175470.5104
167616.096
160161.7395
153096.7921
146398.4244
140054.9586
134044.1478
128354.2534
122964.586
117863.1818
113031.0946
108456.8073
104123.6154
100020.3233
96132.2288
92448.13729
88955.95262
85644.75606
82504.69664
79524.87054
503285.681
501327.2509
497159.7519
491076.8968
483290.3959
474008.3405
463445.5686
451806.6957
439280.5143
426053.2873
412311.8748
398209.271
383883.6012
369478.1117
355096.7935
340834.3643
326788.2843
313010.345
299571.2266
286506.3776
273855.6038
261644.3187
249888.1203
238601.878
227785.1554
217444.489
207568.496
198157.1812
189193.3563
180671.6928
172571.2913
164883.4903
157586.3916
150669.4023
144110.3732
137897.7705
132009.9188
126435.5774
121154.0484
116154.3935
111417.0169
106932.3269
102681.8464
98657.44689
94841.57609
91226.45006
87797.37627
84546.4092
81461.36094
78534.06635
493243.0369
491326.4458
487248.0565
481295.335
473675.5074
464598.1438
454268.5841
442878.803
430620.9125
417682.7275
404241.9428
390441.7756
376428.3141
362337.6344
348265.1742
334318.3263
320573.7862
307095.2574
293948.9576
281164.4764
268792.1692
256842.8369
245344.5979
234299.8554
223719.8156
213599.617
203938.6788
194727.3138
185957.683
177615.9401
169689.6742
162163.0148
155021.4932
148248.174
141827.5308
135742.4435
129977.2901
124515.8923
119342.7408
114442.6991
109800.8582
105403.8949
101237.4871
97290.03726
93547.40701
90000.0712
86634.57802
83443.3732
80413.37721
77538.64734
483575.1326
481697.2304
477701.2823
471869.0336
464409.7794
455523.1036
445403.1243
434244.906
422236.7939
409574.2389
396408.3198
382891.1523
369176.0214
355375.5516
341595.2577
327944.6387
314485.0881
301294.5668
288421.8296
275910.0319
263797.5111
252101.0804
240847.4224
230035.3908
219682.351
209774.8615
200321.9647
191304.4438
182723.5485
174557.0781
166800.893
159431.9946
152443.1741
145811.2022
139527.0426
133568.0281
127924.4843
122575.2857
117510.0333
112709.3959
108163.0912
103854.038
99772.02143
95901.96408
92233.4845
88754.17426
85453.76958
82322.12401
79348.91725
76526.3106
474259.2141
472416.8143
468496.9786
462783.4331
455470.0637
446752.5237
436825.7715
425881.3809
414114.7749
401697.4332
388786.7195
375538.7846
362096.1001
348566.8168
335067.7881
321687.6889
308497.8531
295577.5267
282963.4427
270711.447
258844.6615
247392.7398
236369.162
225784.8315
215644.9087
205947.1142
196690.3333
187864.3842
179462.7967
171470.2226
163876.9443
156665.3676
149823.8109
143333.5211
137181.8697
131349.9255
125825.3787
120589.6651
115630.8758
110931.1579
106480.0041
102260.3584
98263.20037
94471.81237
90878.77871
87468.90096
84235.05936
81164.44654
78249.70112
75480.47591
465278.5396
463470.9199
459624.811
454011.6119
446827.1321
438263.8779
428513.6777
417770.389
406221.1462
394028.3337
381352.7126
368357.8075
355163.1853
341886.5899
328648.3655
315520.5461
302589.3146
289916.0297
277548.8136
265538.2746
253903.9526
242683.712
231878.7885
221511.6352
211575.4323
202078.9658
193010.7112
184370.1855
176141.6553
168318.6843
160883.5689
153826.6046
147128.9805
140779.0499
134757.8245
129052.9338
123646.3612
118525.2048
113672.6502
109075.995
104720.322
100593.165
96681.38111
92972.46066
89455.5647
86118.58481
82952.76547
79946.07402
77091.98109
74378.63514
456614.501
454835.6852
451051.0935
445528.0379
438459.5129
430035.3006
420446.129
409889.2749
398531.6375
386542.9824
374089.6362
361318.5228
348351.2812
335315.0595
322309.4016
309415.091
296723.5537
284279.901
272146.6343
260358.4566
248948.2936
237939.9318
227345.6647
217179.7422
207439.8457
198132.3951
189246.3954
180781.6284
172721.2909
165060.6341
157780.3281
150872.6947
144317.0715
138104.0333
132212.6207
126633.0711
121344.9094
116338.1878
111593.1872
107100.9608
102842.8075
98810.69903
94987.1278
91363.93167
87926.59529
84666.70837
81572.19358
78634.44643
75843.80104
73191.22318
448239.6022
446486.1587
442755.8254
437312.3915
430346.4708
422045.5532
412609.028
402209.5003
391023.0937
379218.203
366966.5741
354395.2551
341635.1354
328816.1254
316022.1641
303348.8926
290869.4342
278638.981
266719.5532
255136.8773
243934.8537
233123.4433
222727.5134
212748.2214
203195.2399
194063.4595
185352.5564
177051.8445
169154.468
161646.5276
154517.6298
147751.7932
141336.5163
135254.8318
129493.4093
124035.6248
118867.656
113973.5311
109339.6343
104951.5247
100795.8676
96859.73558
93129.78311
89595.17292
86243.04508
83064.53951
80046.93221
77183.5531
74462.02983
71876.40473
440135.1035
438403.4782
434719.8835
429345.1653
422468.0015
414284.2598
404971.2309
394709.0182
383672.5923
372038.5949
359956.3964
347562.0017
334993.8782
322361.2823
309756.7579
297282.5555
284994.0968
272961.9229
261231.3757
249840.9549
238823.6866
228195.6172
217978.7149
208173.047
198791.037
189823.259
181273.9937
173127.4078
165381.8701
158018.721
151032.2844
144402.3926
138120.6959
132166.6462
126530.8127
121193.0961
116143.2945
111362.0449
106839.7019
102557.7838
98507.53107
94671.03
91040.11216
87599.00341
84339.45874
81248.0717
78316.39782
75533.42297
72890.27964
70378.60262
432283.1866
430569.6852
426925.0109
421607.6654
414814.3384
406721.3951
397512.0372
387366.2235
376462.1631
364970.8111
353034.2108
340795.1347
328391.7762
315921.4259
303490.6854
291183.5476
279064.8094
267206.8936
255643.5726
244425.8005
233571.6765
223110.9178
213051.0674
203405.4656
194173.6043
185358.1106
176951.2779
168948.7435
161338.2087
154111.5499
147253.2234
140752.8945
134593.0737
128762.6076
123243.5711
118024.2152
113086.7207
108419.5212
104005.8405
99834.27869
95889.1303
92158.87651
88629.83109
85290.66335
82129.54101
79135.15528
76297.76854
73605.87437
71051.98965
68624.9732
424666.9373
422967.7116
419356.9557
414092.5129
407358.2496
399337.1002
390211.3638
380160.037
369370.1448
357991.4709
346175.2901
334072.5309
321801.052
309467.2968
297184.2508
285018.5432
273050.8732
261336.1603
249921.2662
238847.1362
228136.5337
217817.3676
207895.2529
198386.5691
189286.7044
180602.0244
172321.1218
164442.8928
156952.9481
149844.7723
143102.4722
136715.7066
130668.3688
124948.1287
119539.2333
114427.95
109599.3207
105039.5733
100734.5021
96670.54891
92833.75594
89211.65049
85790.88358
82560.20643
79506.45104
76620.01026
73887.63643
71301.57261
68849.34653
66524.04044
412003.1609
406771.7419
400080.8442
392112.9368
383049.8421
373079.3834
362369.4151
351077.6943
339359.9018
327361.3212
315194.1543
302977.661
290805.8835
278756.0503
266909.9595
255311.3029
244020.0474
233060.9976
222471.8862
212264.6691
202459.7943
193059.0223
184071.5067
175489.7961
167315.9028
159536.1735
152148.8743
145135.8253
138492.7506
132199.6657
126249.3126
120623.14
115310.8676
110295.5218
105565.5554
101105.4677
96902.90029
92943.07644
89213.75265
85701.13464
82393.42316
79277.13541
76341.43435
73572.75421
70961.63666
68494.78596
66164.46272
63957.81612
)
;

boundaryField
{
    front_top
    {
        type            wedge;
    }
    front_middle
    {
        type            wedge;
    }
    front_bottom
    {
        type            wedge;
    }
    back_top
    {
        type            wedge;
    }
    back_middle
    {
        type            wedge;
    }
    back_bottom
    {
        type            wedge;
    }
    axis_top
    {
        type            symmetryPlane;
    }
    axis_middle
    {
        type            symmetryPlane;
    }
    axis_bottom
    {
        type            symmetryPlane;
    }
    wall_top
    {
        type            calculated;
        value           nonuniform List<scalar> 
23
(
90041.83161
88793.50089
87584.73984
86413.94594
85278.77563
84176.2157
83103.78699
82058.79579
81038.20847
80038.69487
79056.70409
78085.93457
77119.55091
76148.57304
75160.99599
74140.63651
73066.60889
71908.17304
70624.91934
69162.85938
67451.91227
65400.43768
62894.16793
)
;
    }
    wall_middle
    {
        type            calculated;
        value           nonuniform 0();
    }
    wall_bottom
    {
        type            calculated;
        value           nonuniform 0();
    }
    inlet
    {
        type            calculated;
        value           nonuniform 0();
    }
    outlet
    {
        type            calculated;
        value           nonuniform 0();
    }
    procBoundary6to5
    {
        type            processor;
        value           nonuniform List<scalar> 
51
(
417276.4138
415589.8062
415589.8062
404840.4547
399629.2284
392965.3565
385031.3214
376014.2041
366095.506
355439.1775
344207.3421
332564.5508
320636.3168
308545.6383
296415.07
284324.7535
272367.4718
260606.716
249100.7923
237897.1564
227028.6312
216527.0216
206407.1358
196686.8462
187370.1904
178462.6115
169961.3377
161862.4932
154160.4854
146844.2858
139907.1945
133332.9177
127115.2862
121235.5967
115685.8131
110448.4805
105513.3758
100865.4584
96492.50435
92380.90502
88517.60293
84890.41083
81485.82002
78292.18008
75296.02839
72485.5681
69848.14423
67371.83852
65045.04492
62855.16874
60792.32516
)
;
    }
    procBoundary6to7
    {
        type            processor;
        value           nonuniform List<scalar> 
51
(
700151.7086
697221.7428
690989.2222
681898.9701
670274.7078
656435.6045
640715.7792
623420.9963
604843.8468
585268.6711
564984.6936
544212.4942
523166.0612
502067.9851
481056.6187
460286.8305
439884.0243
419933.6666
400539.3956
373076.2117
373076.2117
355461.9199
338503.8954
322235.214
306654.4562
291777.5339
277588.3815
264089.8418
251257.3088
239082.3504
227536.548
216604.3596
206255.959
196471.2374
187221.692
178484.0186
170231.26
162439.2012
155083.5092
148140.0957
141586.8998
135400.7445
129561.8869
124049.0664
118844.2689
113928.1746
109284.514
104896.52
100749.2183
96828.17181
93119.04666
)
;
    }
}


// ************************************************************************* //
