/*--------------------------------*- C++ -*----------------------------------*\
  =========                 |
  \\      /  F ield         | OpenFOAM: The Open Source CFD Toolbox
   \\    /   O peration     | Website:  https://openfoam.org
    \\  /    A nd           | Version:  7
     \\/     M anipulation  |
\*---------------------------------------------------------------------------*/
FoamFile
{
    version     2.0;
    format      ascii;
    class       surfaceScalarField;
    location    "0.0027";
    object      phi;
}
// * * * * * * * * * * * * * * * * * * * * * * * * * * * * * * * * * * * * * //

dimensions      [1 0 -1 0 0 0 0];

internalField   nonuniform List<scalar> 
2259
(
7.470014475e-11
2.688055855e-12
7.20120889e-11
1.052002075e-11
2.105816974e-10
2.310694246e-11
3.409676931e-10
4.001617528e-11
4.632483873e-10
6.078232429e-11
5.775345406e-10
8.491575204e-11
6.839627296e-10
1.119092771e-10
7.826876332e-10
1.412439981e-10
8.738781737e-10
1.723945696e-10
9.577134418e-10
2.048337295e-10
1.03437895e-09
2.380364256e-10
1.104063734e-09
2.714836215e-10
1.166957809e-09
3.04665952e-10
1.223250429e-09
3.370872096e-10
1.273128195e-09
3.682680837e-10
1.316774092e-09
3.977495878e-10
1.354366981e-09
4.250974928e-10
1.386080624e-09
4.499057498e-10
1.41208447e-09
4.718016453e-10
1.432543142e-09
4.904499291e-10
1.447617011e-09
5.055576912e-10
1.457463219e-09
5.168795093e-10
1.462236171e-09
5.242223076e-10
1.462088144e-09
5.274496728e-10
1.45717103e-09
5.264867471e-10
1.447636245e-09
5.213236276e-10
1.433636221e-09
5.120180066e-10
1.415324774e-09
4.986970293e-10
1.39285713e-09
4.815575011e-10
1.366390321e-09
4.608641304e-10
1.336082034e-09
4.369462892e-10
1.302089523e-09
4.101928521e-10
1.264566943e-09
3.810442722e-10
1.223662274e-09
3.499836811e-10
1.179512002e-09
3.175257893e-10
1.13223503e-09
2.842057878e-10
1.081924416e-09
2.505681319e-10
1.0286386e-09
2.171574105e-10
9.723922405e-10
1.845132879e-10
9.131492546e-10
1.531689648e-10
8.508222761e-10
1.236530389e-10
7.85281085e-10
9.649043379e-11
7.163737932e-10
7.219687547e-11
6.439602139e-10
5.125856393e-11
5.679536281e-10
3.408739786e-11
4.883656774e-10
2.093794953e-11
4.05350244e-10
1.176600313e-11
3.192504422e-10
6.004856611e-12
2.306608579e-10
2.252628925e-12
1.404946878e-10
4.862284647e-11
3.258160635e-12
6.875392829e-11
1.276404836e-11
2.010758097e-10
2.807145939e-11
3.256602821e-10
4.86952548e-11
4.42624592e-10
7.412162015e-11
5.521081753e-10
1.038158513e-10
6.542684984e-10
1.372279583e-10
7.492755262e-10
1.737978138e-10
8.373083184e-10
2.129594695e-10
9.185517861e-10
2.541447538e-10
9.93193665e-10
2.967863831e-10
1.061422105e-09
3.403206323e-10
1.12342356e-09
3.841898343e-10
1.179381227e-09
4.278443466e-10
1.229473682e-09
4.707449651e-10
1.273873474e-09
5.123649017e-10
1.312747044e-09
5.521921188e-10
1.346253407e-09
5.897318166e-10
1.374544772e-09
6.245092803e-10
1.397765679e-09
6.560729041e-10
1.416053388e-09
6.839980667e-10
1.429538056e-09
7.078911429e-10
1.438343095e-09
7.273941376e-10
1.442585149e-09
7.421900051e-10
1.442375163e-09
7.520080637e-10
1.437818187e-09
7.566303261e-10
1.429013958e-09
7.558973558e-10
1.416057744e-09
7.49714483e-10
1.399040003e-09
7.380581456e-10
1.378046657e-09
7.209805752e-10
1.353159604e-09
6.986149736e-10
1.324455124e-09
6.711780171e-10
1.292003899e-09
6.389717905e-10
1.2558685e-09
6.023830294e-10
1.216100762e-09
5.618805286e-10
1.17273753e-09
5.180103892e-10
1.125794555e-09
4.713898557e-10
1.075259133e-09
4.227006806e-10
1.021081416e-09
3.726841878e-10
9.631657476e-10
3.221400872e-10
9.013663774e-10
2.719290169e-10
8.354921562e-10
2.229763018e-10
7.653265092e-10
1.762682455e-10
6.906682715e-10
1.32831599e-10
6.113902762e-10
9.369405072e-11
5.275032271e-10
5.984961277e-11
4.391946834e-10
3.229533201e-11
3.468047243e-10
1.22374007e-11
2.507187902e-10
1.550161159e-12
1.51181928e-10
5.017300817e-11
3.792390061e-12
6.496153824e-11
1.485916569e-11
1.900090341e-10
3.2704932e-11
3.078145158e-10
5.680353664e-11
4.185259873e-10
8.660557166e-11
5.223061403e-10
1.215453588e-10
6.193287114e-10
1.610456226e-10
7.097752623e-10
2.045218742e-10
7.938320667e-10
2.513859582e-10
8.716877022e-10
3.010488329e-10
9.435307907e-10
3.529228484e-10
1.009548089e-09
4.064235741e-10
1.069922834e-09
4.609713673e-10
1.124833434e-09
5.159924403e-10
1.174452609e-09
5.70919762e-10
1.218946152e-09
6.251942549e-10
1.258472551e-09
6.782650398e-10
1.293182622e-09
7.295905317e-10
1.32321928e-09
7.786389636e-10
1.348717247e-09
8.248890761e-10
1.369803275e-09
8.678315661e-10
1.386595566e-09
9.069699457e-10
1.399204715e-09
9.418224138e-10
1.407732682e-09
9.719244096e-10
1.412273167e-09
9.968312185e-10
1.412911377e-09
1.016122057e-09
1.409723119e-09
1.029404875e-09
1.402774927e-09
1.036322057e-09
1.392122821e-09
1.036557306e-09
1.377811408e-09
1.029843602e-09
1.359873307e-09
1.01597175e-09
1.338326975e-09
9.947998251e-10
1.313175824e-09
9.662634504e-10
1.284404875e-09
9.303860612e-10
1.251978152e-09
8.872894382e-10
1.215834154e-09
8.37204849e-10
1.175879144e-09
7.804847727e-10
1.131979209e-09
7.176172734e-10
1.083948916e-09
6.492458463e-10
1.031537176e-09
5.762003884e-10
9.744118363e-10
4.995475308e-10
9.121450148e-10
4.206656284e-10
8.442084128e-10
3.41343968e-10
7.699899331e-10
2.638864037e-10
6.888478417e-10
1.911733262e-10
6.002163057e-10
1.266009293e-10
5.037670813e-10
7.372869358e-11
3.996769605e-10
3.524091673e-11
2.892065669e-10
1.073899536e-11
1.756838485e-10
6.091200151e-11
4.25197255e-12
6.070956572e-11
1.667402455e-11
1.775869821e-10
3.673512984e-11
2.877534105e-10
6.388279919e-11
3.913783179e-10
9.755013798e-11
4.886388015e-10
1.371610219e-10
5.797178275e-10
1.821343288e-10
6.648019554e-10
2.318872475e-10
7.440791478e-10
2.858382421e-10
8.177367076e-10
3.434092037e-10
8.859598289e-10
4.040271798e-10
9.489301131e-10
4.671256252e-10
1.006824389e-09
5.321452869e-10
1.059813772e-09
5.985347872e-10
1.108063109e-09
6.657505335e-10
1.151730406e-09
7.332566569e-10
1.190966428e-09
8.005244771e-10
1.225914801e-09
8.670318586e-10
1.256711899e-09
9.322619449e-10
1.283487161e-09
9.95701929e-10
1.306363291e-09
1.056841638e-09
1.325455856e-09
1.115171981e-09
1.340874372e-09
1.170183274e-09
1.352721388e-09
1.221363531e-09
1.361092909e-09
1.268197442e-09
1.366077466e-09
1.310164623e-09
1.367755938e-09
1.346739442e-09
1.366200109e-09
1.377390349e-09
1.361471912e-09
1.401580134e-09
1.353621623e-09
1.41876691e-09
1.342686532e-09
1.42840572e-09
1.328688166e-09
1.429951019e-09
1.311630525e-09
1.422859812e-09
1.29149608e-09
1.406595895e-09
1.26824207e-09
1.38063596e-09
1.241794089e-09
1.34447644e-09
1.212038665e-09
1.297644311e-09
1.178811339e-09
1.239711133e-09
1.141882094e-09
1.170315084e-09
1.100933226e-09
1.089195557e-09
1.055531364e-09
9.962523819e-10
1.00508819e-09
8.916470395e-10
9.48813756e-10
7.759725701e-10
8.856644029e-10
6.505223994e-10
8.142980125e-10
5.176879426e-10
7.330507629e-10
3.815044731e-10
6.399505507e-10
2.483567372e-10
5.328246959e-10
1.281289335e-10
4.094343697e-10
3.766193362e-11
2.661508472e-10
9.857393331e-11
4.585948308e-12
5.612361741e-11
1.798553858e-11
1.641873918e-10
3.96447983e-11
2.660941508e-10
6.899803988e-11
3.620250763e-10
1.054722103e-10
4.52164631e-10
1.484909137e-10
5.36699124e-10
1.974778399e-10
6.158150291e-10
2.518590397e-10
6.896979482e-10
3.11064946e-10
7.585308013e-10
3.745318711e-10
8.224929038e-10
4.417029773e-10
8.817590071e-10
5.120288865e-10
9.364984792e-10
5.849679417e-10
9.868747172e-10
6.599862606e-10
1.03304479e-09
7.365575628e-10
1.075159104e-09
8.14162736e-10
1.113361255e-09
8.922897955e-10
1.147787742e-09
9.704338403e-10
1.178567854e-09
1.048097019e-09
1.205823983e-09
1.124789266e-09
1.229671044e-09
1.200028854e-09
1.250216268e-09
1.273343389e-09
1.267559838e-09
1.344270728e-09
1.281794048e-09
1.412359073e-09
1.293004566e-09
1.477166653e-09
1.301269885e-09
1.53825991e-09
1.306662682e-09
1.595210275e-09
1.309249744e-09
1.647589123e-09
1.309093064e-09
1.694961153e-09
1.306249594e-09
1.73687546e-09
1.300772225e-09
1.772855275e-09
1.29270835e-09
1.802385182e-09
1.282100618e-09
1.824896498e-09
1.268984764e-09
1.839749831e-09
1.253388738e-09
1.846215079e-09
1.235328842e-09
1.843448238e-09
1.214805506e-09
1.830463556e-09
1.191796021e-09
1.806100838e-09
1.166244812e-09
1.768983796e-09
1.138050269e-09
1.717466971e-09
1.107048189e-09
1.649566766e-09
1.072988395e-09
1.562879714e-09
1.035500809e-09
1.454507716e-09
9.940364001e-10
1.32105622e-09
9.477495084e-10
1.158838365e-09
8.952686172e-10
9.645058532e-10
8.342830626e-10
7.364556317e-10
7.608749168e-10
4.779330847e-10
6.679569162e-10
2.053101997e-10
5.387737318e-10
3.038841326e-10
-4.60098714e-13
5.658371612e-11
-1.809501481e-12
1.655367946e-10
-4.01266785e-12
2.682973172e-10
-7.044954918e-12
3.650573633e-10
-1.088921989e-11
4.56008896e-10
-1.553469977e-11
5.413446038e-10
-2.097596001e-11
6.212562893e-10
-2.721152025e-11
6.959335084e-10
-3.424279047e-11
7.655620716e-10
-4.207285356e-11
8.303229669e-10
-5.070547743e-11
8.90391631e-10
-6.014415365e-11
9.459371554e-10
-7.039120445e-11
9.97121768e-10
-8.144688663e-11
1.044100472e-09
-9.330846271e-11
1.08702068e-09
-1.059690289e-10
1.126021821e-09
-1.194163284e-10
1.161235041e-09
-1.336314855e-10
1.192783011e-09
-1.485875671e-10
1.220780065e-09
-1.642479988e-10
1.245331476e-09
-1.805658497e-10
1.266534119e-09
-1.974830212e-10
1.284477009e-09
-2.149307684e-10
1.299241796e-09
-2.32830525e-10
1.310904322e-09
-2.510957451e-10
1.319535106e-09
-2.69633792e-10
1.325200729e-09
-2.883477929e-10
1.327963745e-09
-3.071375448e-10
1.327882816e-09
-3.258995032e-10
1.325011552e-09
-3.445252358e-10
1.319397958e-09
-3.628990765e-10
1.311082191e-09
-3.808949233e-10
1.300096465e-09
-3.983733505e-10
1.286463192e-09
-4.151785297e-10
1.270193917e-09
-4.311352664e-10
1.251285579e-09
-4.460440243e-10
1.229714264e-09
-4.596727911e-10
1.205424788e-09
-4.717427232e-10
1.178314744e-09
-4.8190571e-10
1.148213255e-09
-4.897090423e-10
1.114851521e-09
-4.945385892e-10
1.077817942e-09
-4.955210288e-10
1.036483248e-09
-4.913484473e-10
9.898638186e-10
-4.799803325e-10
9.363813934e-10
-4.581930798e-10
8.734813645e-10
-4.210000082e-10
7.970899909e-10
-3.610446865e-10
7.009195952e-10
-2.686306832e-10
5.755429128e-10
-1.355498469e-10
4.056928955e-10
1.683342857e-10
-3.568682564e-13
5.694058438e-11
-1.40614536e-12
1.665860717e-10
-3.123078489e-12
2.700142503e-10
-5.491691429e-12
3.674259763e-10
-8.503205635e-12
4.590204102e-10
-1.215443443e-11
5.449958326e-10
-1.6446548e-11
6.255484029e-10
-2.138344396e-11
7.008704044e-10
-2.697054315e-11
7.711491708e-10
-3.321351469e-11
8.365659384e-10
-4.011691807e-11
8.972950344e-10
-4.768286987e-11
9.535031072e-10
-5.590963342e-11
1.005348532e-09
-6.479008293e-11
1.052980922e-09
-7.430990355e-11
1.096540501e-09
-8.444586238e-11
1.13615778e-09
-9.516436961e-11
1.171953549e-09
-1.064207151e-10
1.204039356e-09
-1.181588038e-10
1.232518153e-09
-1.303125433e-10
1.257485215e-09
-1.428087646e-10
1.279030341e-09
-1.55570491e-10
1.297238736e-09
-1.685219467e-10
1.312193251e-09
-1.815922259e-10
1.323974601e-09
-1.947191958e-10
1.332662076e-09
-2.078509344e-10
1.338332467e-09
-2.209461584e-10
1.341058969e-09
-2.33971817e-10
1.340908475e-09
-2.468998537e-10
1.337939589e-09
-2.597014297e-10
1.332199534e-09
-2.723409477e-10
1.323721709e-09
-2.847682927e-10
1.312523811e-09
-2.969118061e-10
1.298606705e-09
-3.086703003e-10
1.281952411e-09
-3.199058112e-10
1.26252109e-09
-3.304341564e-10
1.240242609e-09
-3.400123418e-10
1.215002973e-09
-3.483183532e-10
1.186620756e-09
-3.54919072e-10
1.154813974e-09
-3.592183399e-10
1.119150789e-09
-3.603761428e-10
1.078975745e-09
-3.571913977e-10
1.033298503e-09
-3.479565494e-10
9.806289703e-10
-3.303324738e-10
9.187573179e-10
-3.013655001e-10
8.445143908e-10
-2.578784271e-10
7.536029178e-10
-1.976381908e-10
6.406793591e-10
-1.222216133e-10
5.001263354e-10
-4.494206283e-11
3.284133451e-10
1.233922229e-10
-2.663076224e-13
5.7206892e-11
-1.04891817e-12
1.673686823e-10
-2.332060364e-12
2.712973925e-10
-4.107218118e-12
3.69201134e-10
-6.371889862e-12
4.612850819e-10
-9.12786911e-12
5.477518119e-10
-1.237980216e-11
6.288003359e-10
-1.613341011e-11
7.046240123e-10
-2.039386719e-11
7.754096279e-10
-2.516421118e-11
8.413362824e-10
-3.044355063e-11
9.025743738e-10
-3.622527241e-11
9.59284829e-10
-4.249534332e-11
1.011618602e-09
-4.92309056e-11
1.059716484e-09
-5.639947768e-11
1.103709073e-09
-6.395936022e-11
1.143717662e-09
-7.18613457e-11
1.179855534e-09
-8.005172016e-11
1.212229731e-09
-8.847602503e-11
1.240942458e-09
-9.708379083e-11
1.266092981e-09
-1.058317964e-10
1.287778346e-09
-1.146865584e-10
1.306093498e-09
-1.236248839e-10
1.321131577e-09
-1.326323957e-10
1.332982113e-09
-1.417012084e-10
1.341730889e-09
-1.508260056e-10
1.347457264e-09
-1.60000389e-10
1.350233352e-09
-1.692125718e-10
1.350120658e-09
-1.784416674e-10
1.347168684e-09
-1.876539677e-10
1.341411834e-09
-1.967991926e-10
1.332866934e-09
-2.058061986e-10
1.321530817e-09
-2.145771301e-10
1.307377636e-09
-2.229800175e-10
1.290355298e-09
-2.308384969e-10
1.270379569e-09
-2.379193667e-10
1.247323479e-09
-2.439157645e-10
1.220999371e-09
-2.484258337e-10
1.191130825e-09
-2.509233485e-10
1.157311489e-09
-2.507204297e-10
1.11894787e-09
-2.469268299e-10
1.075182145e-09
-2.384284973e-10
1.02480017e-09
-2.239358747e-10
9.661363478e-10
-2.021860997e-10
8.970075428e-10
-1.723989947e-10
8.147272858e-10
-1.350450788e-10
7.16249002e-10
-9.28272124e-11
5.984614928e-10
-5.128483787e-11
4.585839609e-10
-1.731869696e-11
2.944472042e-10
1.06073526e-10
-1.893048527e-13
5.739619685e-11
-7.467001021e-13
1.679260775e-10
-1.663424406e-12
2.722141168e-10
-2.936851245e-12
3.704745609e-10
-4.569072965e-12
4.629173036e-10
-6.565116553e-12
5.497478555e-10
-8.930938991e-12
6.311661584e-10
-1.167156234e-11
7.073646357e-10
-1.478899438e-11
7.785270599e-10
-1.828037231e-11
8.448276603e-10
-2.213641896e-11
9.064304205e-10
-2.634048323e-11
9.634888933e-10
-3.086859193e-11
1.016146711e-09
-3.569073853e-11
1.06453863e-09
-4.077361916e-11
1.108791953e-09
-4.608432354e-11
1.149028367e-09
-5.15942946e-11
1.185365505e-09
-5.728256889e-11
1.217918005e-09
-6.313813445e-11
1.246798024e-09
-6.916033131e-11
1.272115178e-09
-7.535719246e-11
1.293975207e-09
-8.17432764e-11
1.312479582e-09
-8.833530748e-11
1.327723608e-09
-9.514887866e-11
1.339795684e-09
-1.02194234e-10
1.348776244e-09
-1.094737982e-10
1.354736829e-09
-1.16979261e-10
1.357738815e-09
-1.246903798e-10
1.357831777e-09
-1.325723549e-10
1.355050659e-09
-1.405745076e-10
1.349413987e-09
-1.486271061e-10
1.340919532e-09
-1.56638348e-10
1.329542059e-09
-1.644889983e-10
1.315228287e-09
-1.720254826e-10
1.297891783e-09
-1.790499e-10
1.277403986e-09
-1.853071984e-10
1.253580777e-09
-1.904692098e-10
1.226161383e-09
-1.941160604e-10
1.194777675e-09
-1.957172874e-10
1.158912716e-09
-1.946189837e-10
1.117849566e-09
-1.900511088e-10
1.07061427e-09
-1.811786228e-10
1.015927684e-09
-1.672245879e-10
9.521823129e-10
-1.476875357e-10
8.774704906e-10
-1.226458793e-10
7.896856294e-10
-9.310791947e-11
6.867110422e-10
-6.135022764e-11
5.66703801e-10
-3.12358253e-11
4.284695586e-10
-8.678079425e-12
2.718894584e-10
9.739544655e-11
-1.268814713e-13
5.752307832e-11
-5.011365901e-13
1.683003326e-10
-1.119351377e-12
2.728323316e-10
-1.98289778e-12
3.713381073e-10
-3.09617678e-12
4.640305826e-10
-4.464617301e-12
5.51116296e-10
-6.092207467e-12
6.327937485e-10
-7.979791604e-12
7.092522198e-10
-1.012348214e-11
7.806707504e-10
-1.251408334e-11
8.472182615e-10
-1.513765421e-11
9.090539913e-10
-1.797732388e-11
9.66328563e-10
-2.101610211e-11
1.019185489e-09
-2.424008256e-11
1.067762611e-09
-2.764136053e-11
1.112193231e-09
-3.122001386e-11
1.15260702e-09
-3.498435005e-11
1.189129841e-09
-3.895006415e-11
1.221883719e-09
-4.313826652e-11
1.250986226e-09
-4.757228477e-11
1.276549196e-09
-5.227514238e-11
1.298678065e-09
-5.726691148e-11
1.317471351e-09
-6.256246886e-11
1.333019165e-09
-6.816986654e-11
1.345403082e-09
-7.408829742e-11
1.354694675e-09
-8.030651335e-11
1.360955044e-09
-8.680094782e-11
1.36423325e-09
-9.35343131e-11
1.364565142e-09
-1.004540555e-10
1.361970402e-09
-1.074905267e-10
1.356450458e-09
-1.14555097e-10
1.347984103e-09
-1.215365365e-10
1.336523498e-09
-1.282970093e-10
1.32198876e-09
-1.346649888e-10
1.304259762e-09
-1.404274163e-10
1.283166414e-09
-1.453186627e-10
1.258472023e-09
-1.490100249e-10
1.229852745e-09
-1.511000891e-10
1.19686774e-09
-1.511135295e-10
1.158926156e-09
-1.485152725e-10
1.115251309e-09
-1.427549061e-10
1.064853904e-09
-1.33351631e-10
1.006524409e-09
-1.200282557e-10
9.388589376e-10
-1.028844789e-10
8.603267137e-10
-8.257988857e-11
7.693810391e-10
-6.047230212e-11
6.646034557e-10
-3.862982057e-11
5.448613195e-10
-1.961067484e-11
4.094504128e-10
-5.884145478e-12
2.58162929e-10
9.151130107e-11
-7.834866135e-14
5.760142698e-11
-3.10013189e-13
1.685319972e-10
-6.949779637e-13
2.732172963e-10
-1.236262815e-12
3.718793921e-10
-1.93797811e-12
4.647322979e-10
-2.803315585e-12
5.519816335e-10
-3.832888272e-12
6.338233212e-10
-5.024279171e-12
7.104436107e-10
-6.37277124e-12
7.820192425e-10
-7.872874155e-12
8.487183644e-10
-9.520657145e-12
9.107017743e-10
-1.131610413e-11
9.6812401e-10
-1.326490082e-11
1.021134286e-09
-1.537919215e-11
1.069876902e-09
-1.767729545e-11
1.114491334e-09
-2.018219257e-11
1.155111917e-09
-2.291960862e-11
1.191867257e-09
-2.591611322e-11
1.224880224e-09
-2.919710288e-11
1.254267216e-09
-3.278499222e-11
1.280137085e-09
-3.669821824e-11
1.302591291e-09
-4.094934187e-11
1.321722474e-09
-4.554445835e-11
1.337614282e-09
-5.048163019e-11
1.350340254e-09
-5.575041502e-11
1.35996346e-09
-6.133016813e-11
1.366534797e-09
-6.718938426e-11
1.370092466e-09
-7.328364402e-11
1.370659402e-09
-7.955470388e-11
1.368241461e-09
-8.592785e-11
1.362823604e-09
-9.231000369e-11
1.354366256e-09
-9.858605906e-11
1.342799554e-09
-1.046146162e-10
1.328017317e-09
-1.10222297e-10
1.309867443e-09
-1.151968363e-10
1.288140953e-09
-1.192802663e-10
1.262555453e-09
-1.221635062e-10
1.232735985e-09
-1.234871507e-10
1.198191384e-09
-1.228526252e-10
1.15829163e-09
-1.198515476e-10
1.112250232e-09
-1.141180258e-10
1.059120382e-09
-1.054054927e-10
9.97811876e-10
-9.368188085e-11
9.271353257e-10
-7.922669845e-11
8.458715313e-10
-6.270929321e-11
7.528636339e-10
-4.522648314e-11
6.471206457e-10
-2.828624647e-11
5.279210828e-10
-1.373767189e-11
3.949018383e-10
-3.688240477e-12
2.481134976e-10
8.782306059e-11
-4.229486165e-14
5.764372185e-11
-1.677670557e-13
1.686574693e-10
-3.777922165e-13
2.734273215e-10
-6.750764219e-13
3.721766763e-10
-1.062451686e-12
4.651196732e-10
-1.541927004e-12
5.524611088e-10
-2.114968844e-12
6.343963631e-10
-2.783464262e-12
7.111121061e-10
-3.551414162e-12
7.827871924e-10
-4.426421959e-12
8.495933722e-10
-5.420578936e-12
9.116959313e-10
-6.550712705e-12
9.692541437e-10
-7.837810247e-12
1.022421384e-09
-9.30593271e-12
1.071345025e-09
-1.098087076e-11
1.116166273e-09
-1.28888034e-11
1.15701985e-09
-1.505522235e-11
1.194033676e-09
-1.750372546e-11
1.227328727e-09
-2.025449937e-11
1.25701799e-09
-2.332370493e-11
1.283206291e-09
-2.672255654e-11
1.305990143e-09
-3.045644975e-11
1.325456367e-09
-3.452459661e-11
1.341682429e-09
-3.891883394e-11
1.354734491e-09
-4.362329431e-11
1.36466792e-09
-4.861285421e-11
1.371524357e-09
-5.385226536e-11
1.375331877e-09
-5.929440502e-11
1.376101541e-09
-6.487857484e-11
1.373825631e-09
-7.052841174e-11
1.368473441e-09
-7.614904653e-11
1.359986891e-09
-8.162438872e-11
1.348274896e-09
-8.681263434e-11
1.333205562e-09
-9.154266962e-11
1.314597478e-09
-9.56091792e-11
1.292207463e-09
-9.877042053e-11
1.265716695e-09
-1.007489604e-10
1.234714525e-09
-1.012406711e-10
1.198683095e-09
-9.993419106e-11
1.15698515e-09
-9.654573691e-11
1.108861778e-09
-9.086781399e-11
1.053442459e-09
-8.282982342e-11
9.897738854e-10
-7.256030747e-11
9.168658098e-10
-6.043887793e-11
8.337501017e-10
-4.712387002e-11
7.39548626e-10
-3.354233766e-11
6.335391133e-10
-2.083230923e-11
5.152110544e-10
-1.023200008e-11
3.843015291e-10
-2.911937221e-12
2.407934347e-10
8.491112337e-11
-1.691251759e-14
5.766063436e-11
-6.782223412e-14
1.687083791e-10
-1.548511676e-13
2.735143504e-10
-2.81045972e-13
3.723028711e-10
-4.504521807e-13
4.652890794e-10
-6.681955009e-13
5.526788521e-10
-9.415078724e-13
6.346696754e-10
-1.280401974e-12
7.114510002e-10
-1.698204975e-12
7.832049954e-10
-2.211647658e-12
8.501068149e-10
-2.840453919e-12
9.123247376e-10
-3.606792606e-12
9.700204824e-10
-4.53457144e-12
1.023349162e-09
-5.648544595e-12
1.072458998e-09
-6.973275301e-12
1.117491003e-09
-8.532291816e-12
1.158578866e-09
-1.034733425e-11
1.195848719e-09
-1.243749334e-11
1.229418886e-09
-1.481850513e-11
1.259399001e-09
-1.750247334e-11
1.285890259e-09
-2.049681934e-11
1.308984489e-09
-2.380413041e-11
1.328763679e-09
-2.742116146e-11
1.34529946e-09
-3.133833783e-11
1.358651667e-09
-3.553865314e-11
1.368868236e-09
-3.999680112e-11
1.375982505e-09
-4.467749119e-11
1.380012567e-09
-4.953431323e-11
1.380958364e-09
-5.450728083e-11
1.378798599e-09
-5.952132403e-11
1.373487484e-09
-6.448314194e-11
1.364948709e-09
-6.92789169e-11
1.353070671e-09
-7.377100639e-11
1.337697652e-09
-7.779535727e-11
1.318621829e-09
-8.115995088e-11
1.295572057e-09
-8.364561936e-11
1.268202363e-09
-8.501209031e-11
1.236080996e-09
-8.501071971e-11
1.198681724e-09
-8.340679048e-11
1.155381221e-09
-8.001098756e-11
1.105465975e-09
-7.471809953e-11
1.048149571e-09
-6.754828212e-11
9.82604068e-10
-5.868283532e-11
9.08000363e-10
-4.848784303e-11
8.235551095e-10
-3.751880785e-11
7.285795908e-10
-2.6503394e-11
6.225236994e-10
-1.63027216e-11
5.05010382e-10
-7.857272596e-12
3.758560801e-10
-2.134288536e-12
2.350704507e-10
8.277683483e-11
-1.871799602e-15
5.766250616e-11
-8.354186922e-15
1.687148614e-10
-2.280303942e-14
2.735287993e-10
-5.015043361e-14
3.723302185e-10
-9.722189857e-14
4.653361509e-10
-1.729567522e-13
5.52754587e-10
-2.887075003e-13
6.347854262e-10
-4.584097821e-13
7.116207025e-10
-6.985494095e-13
7.83445135e-10
-1.027936283e-12
8.504362018e-10
-1.46728728e-12
9.127640886e-10
-2.038533034e-12
9.705917282e-10
-2.764140394e-12
1.02407477e-09
-3.666442127e-12
1.0733613e-09
-4.767123367e-12
1.118591684e-09
-6.086598446e-12
1.159898341e-09
-7.643583699e-12
1.197405704e-09
-9.454221337e-12
1.231229524e-09
-1.153193651e-11
1.261476717e-09
-1.38868236e-11
1.288245146e-09
-1.652484614e-11
1.311622511e-09
-1.944771076e-11
1.331686543e-09
-2.2651527e-11
1.348503276e-09
-2.612667169e-11
1.362126812e-09
-2.985613397e-11
1.372597698e-09
-3.381504749e-11
1.379941419e-09
-3.796865188e-11
1.384166171e-09
-4.227124004e-11
1.385260952e-09
-4.6663955e-11
1.383191314e-09
-5.107294719e-11
1.377896476e-09
-5.540719926e-11
1.369282961e-09
-5.955612889e-11
1.3572196e-09
-6.33880869e-11
1.34152961e-09
-6.674879951e-11
1.321982541e-09
-6.946283318e-11
1.29828609e-09
-7.133690923e-11
1.270076439e-09
-7.216922802e-11
1.236913314e-09
-7.17635798e-11
1.198276076e-09
-6.995095129e-11
1.153568592e-09
-6.661538456e-11
1.102130408e-09
-6.172293086e-11
1.043257118e-09
-5.534844201e-11
9.762295792e-10
-4.769528532e-11
9.003472063e-10
-3.910436828e-11
8.149641924e-10
-3.004887743e-11
7.195240999e-10
-2.111386316e-11
6.135886852e-10
-1.296137281e-11
4.968578916e-10
-6.284030142e-12
3.691787374e-10
-1.750151724e-12
2.305365723e-10
8.102668311e-11
4.166204146e-15
5.765833996e-11
1.578963389e-14
1.68703238e-10
3.105490362e-14
2.73513534e-10
4.421033259e-14
3.723170631e-10
4.75725426e-14
4.653327887e-10
3.112630843e-14
5.527710332e-10
-1.734794955e-14
6.348339005e-10
-1.123572524e-13
7.117157118e-10
-2.702439572e-13
7.836030217e-10
-5.089217087e-13
8.506748795e-10
-8.475123784e-13
9.131026792e-10
-1.305902703e-12
9.710501185e-10
-1.90424336e-12
1.024673111e-09
-2.662478669e-12
1.074119535e-09
-3.599917072e-12
1.119529123e-09
-4.734843042e-12
1.161033267e-09
-6.08393295e-12
1.198754794e-09
-7.661826557e-12
1.232807417e-09
-9.480869901e-12
1.26329576e-09
-1.155022775e-11
1.290314504e-09
-1.387559576e-11
1.313947879e-09
-1.645845389e-11
1.334269401e-09
-1.929521477e-11
1.351340037e-09
-2.237656724e-11
1.365208164e-09
-2.568624279e-11
1.375907373e-09
-2.920001017e-11
1.383455186e-09
-3.288428098e-11
1.387850442e-09
-3.669443834e-11
1.389071109e-09
-4.0573451e-11
1.387070326e-09
-4.444960143e-11
1.381772627e-09
-4.823534387e-11
1.373068704e-09
-5.18251986e-11
1.360809455e-09
-5.509548417e-11
1.344799895e-09
-5.790439569e-11
1.324791453e-09
-6.009495443e-11
1.300476649e-09
-6.150060161e-11
1.271482086e-09
-6.195519531e-11
1.237367908e-09
-6.130704549e-11
1.197627926e-09
-5.943733018e-11
1.151698877e-09
-5.628010396e-11
1.098973182e-09
-5.18426303e-11
1.038819644e-09
-4.622180212e-11
9.70608751e-10
-3.961427161e-11
8.937396758e-10
-3.231813765e-11
8.076680584e-10
-2.472516991e-11
7.119311322e-10
-1.730403138e-11
6.061675466e-10
-1.057655144e-11
4.901304117e-10
-5.090319418e-12
3.636925054e-10
-1.393748971e-12
2.268400018e-10
7.963293413e-11
5.18704058e-15
5.765315292e-11
1.975000981e-14
1.686886751e-10
4.037837171e-14
2.734929057e-10
6.188055886e-14
3.722955609e-10
7.713778521e-14
4.653175314e-10
7.68388785e-14
5.527713321e-10
4.970933752e-14
6.3486103e-10
-1.744246305e-14
7.117828636e-10
-1.394441555e-13
7.837250234e-10
-3.323750663e-13
8.508678104e-10
-6.132958663e-13
9.133836e-10
-9.999165653e-13
9.714367392e-10
-1.510217884e-12
1.025183412e-09
-2.16208701e-12
1.074771404e-09
-2.973009694e-12
1.120340046e-09
-3.959607909e-12
1.162019866e-09
-5.137148533e-12
1.199932335e-09
-6.519300725e-12
1.234189569e-09
-8.11761445e-12
1.264894074e-09
-9.940702333e-12
1.292137592e-09
-1.199413615e-11
1.316001313e-09
-1.427920786e-11
1.336554473e-09
-1.679267577e-11
1.353853505e-09
-1.952543058e-11
1.367940919e-09
-2.246189962e-11
1.378843843e-09
-2.557839712e-11
1.386571684e-09
-2.884243802e-11
1.391114483e-09
-3.22106215e-11
1.392439293e-09
-3.562778443e-11
1.390487489e-09
-3.902497352e-11
1.385169816e-09
-4.231857096e-11
1.376362301e-09
-4.540937017e-11
1.363900254e-09
-4.818275531e-11
1.347573281e-09
-5.051060475e-11
1.327119302e-09
-5.225485055e-11
1.302220895e-09
-5.32745607e-11
1.272501796e-09
-5.343536583e-11
1.237528713e-09
-5.262252911e-11
1.19681509e-09
-5.075555153e-11
1.149831899e-09
-4.78034155e-11
1.096021046e-09
-4.37984062e-11
1.034814635e-09
-3.884585674e-11
9.656562015e-10
-3.31289507e-11
8.880227697e-10
-2.69070141e-11
8.014461218e-10
-2.050740761e-11
7.055315257e-10
-1.431140434e-11
5.999715433e-10
-8.735762965e-12
4.845547703e-10
-4.211640242e-12
3.591683827e-10
-1.162986926e-12
2.237913485e-10
7.846994721e-11
4.153637078e-15
5.764899928e-11
1.569858977e-14
1.686771301e-10
3.204706216e-14
2.734765572e-10
4.898226672e-14
3.722786257e-10
6.041201737e-14
4.653061017e-10
5.836680768e-14
5.527733773e-10
3.305339722e-14
6.348863434e-10
-2.689752549e-14
7.118428145e-10
-1.34379174e-13
7.838325051e-10
-3.034609381e-13
8.510368922e-10
-5.491369994e-13
9.136292761e-10
-8.870842892e-13
9.717746865e-10
-1.333347483e-12
1.025629675e-09
-1.904061615e-12
1.075342118e-09
-2.615104467e-12
1.121051088e-09
-3.4816253e-12
1.162886386e-09
-4.517786503e-12
1.200968496e-09
-5.736398802e-12
1.235408182e-09
-7.148158532e-12
1.266305833e-09
-8.761301299e-12
1.293750735e-09
-1.058109386e-11
1.317821106e-09
-1.260875347e-11
1.338582133e-09
-1.484120897e-11
1.35608596e-09
-1.726962187e-11
1.370369332e-09
-1.9878968e-11
1.381453189e-09
-2.264635191e-11
1.389339068e-09
-2.554030582e-11
1.394008437e-09
-2.851910287e-11
1.39541809e-09
-3.152965511e-11
1.393498042e-09
-3.450645315e-11
1.388146614e-09
-3.737055198e-11
1.3792264e-09
-4.002991448e-11
1.366559617e-09
-4.237990778e-11
1.349923274e-09
-4.430642106e-11
1.329045816e-09
-4.568982485e-11
1.303604299e-09
-4.641233462e-11
1.273224306e-09
-4.636657504e-11
1.237482954e-09
-4.546686648e-11
1.195915381e-09
-4.366041483e-11
1.148025448e-09
-4.093869789e-11
1.093299329e-09
-3.734658955e-11
1.031222526e-09
-3.298798902e-11
9.61297601e-10
-2.802758788e-11
8.830623686e-10
-2.268791543e-11
7.961064494e-10
-1.724210684e-11
7.000857171e-10
-1.200290479e-11
5.947323413e-10
-7.309396582e-12
4.798612621e-10
-3.512836662e-12
3.553718227e-10
-9.638993762e-13
2.212424112e-10
7.750604783e-11
2.464733235e-15
5.764653455e-11
9.251371681e-15
1.686703435e-10
1.847658487e-14
2.73467332e-10
2.682998437e-14
3.722702723e-10
2.928731951e-14
4.653036443e-10
1.926546321e-14
5.527833992e-10
-1.150899059e-14
6.349171179e-10
-7.270663726e-14
7.119040122e-10
-1.753190783e-13
7.839351175e-10
-3.315198744e-13
8.51193093e-10
-5.54430062e-13
9.138521863e-10
-8.578777757e-13
9.720781342e-10
-1.256173095e-12
1.02602797e-09
-1.763808287e-12
1.075849753e-09
-2.395103744e-12
1.121682384e-09
-3.16392577e-12
1.163655208e-09
-4.083348468e-12
1.201887919e-09
-5.165215691e-12
1.236490049e-09
-6.419405159e-12
1.267560023e-09
-7.853719733e-12
1.295185049e-09
-9.472899992e-12
1.319440286e-09
-1.127813519e-11
1.340387368e-09
-1.326621387e-11
1.358074039e-09
-1.542866794e-11
1.372531786e-09
-1.775076416e-11
1.383775285e-09
-2.021050208e-11
1.391798805e-09
-2.277737035e-11
1.396575305e-09
-2.541148976e-11
1.398052209e-09
-2.806211616e-11
1.396148668e-09
-3.066748527e-11
1.390751983e-09
-3.315391628e-11
1.381712831e-09
-3.543685989e-11
1.36884256e-09
-3.742203846e-11
1.351908452e-09
-3.900888724e-11
1.330632664e-09
-4.009497801e-11
1.304690389e-09
-4.05827827e-11
1.273712111e-09
-4.038737271e-11
1.237287544e-09
-3.944566135e-11
1.19497367e-09
-3.77249816e-11
1.146304768e-09
-3.523138021e-11
1.090805727e-09
-3.201555967e-11
1.028006706e-09
-2.817606665e-11
9.574581079e-10
-2.385941163e-11
8.787457136e-10
-1.92568272e-11
7.915038649e-10
-1.459797456e-11
6.954268644e-10
-1.014223252e-11
5.902765993e-10
-6.168472268e-12
4.758875018e-10
-2.964185244e-12
3.521675357e-10
-8.150830231e-13
2.19093309e-10
7.66909648e-11
6.26952785e-16
5.764590759e-11
2.190510231e-15
1.686687799e-10
3.518288726e-15
2.734660042e-10
2.20761939e-15
3.72271583e-10
-5.687269237e-15
4.653115392e-10
-2.554938531e-14
5.528032613e-10
-6.428166085e-14
6.349558501e-10
-1.300950188e-13
7.119698255e-10
-2.323769277e-13
7.840373994e-10
-3.816204501e-13
8.513423365e-10
-5.892682062e-13
9.14059834e-10