/*--------------------------------*- C++ -*----------------------------------*\
  =========                 |
  \\      /  F ield         | OpenFOAM: The Open Source CFD Toolbox
   \\    /   O peration     | Website:  https://openfoam.org
    \\  /    A nd           | Version:  7
     \\/     M anipulation  |
\*---------------------------------------------------------------------------*/
FoamFile
{
    version     2.0;
    format      ascii;
    class       volScalarField;
    location    "0.0027";
    object      rho;
}
// * * * * * * * * * * * * * * * * * * * * * * * * * * * * * * * * * * * * * //

dimensions      [1 -3 0 0 0 0 0];

internalField   nonuniform List<scalar> 
1167
(
940.0195145
939.8180384
939.7252047
939.52614
939.2320402
938.8493486
938.3838651
937.8409978
937.2261675
936.5447075
935.8017921
935.0026082
934.152261
933.2559818
932.3187339
931.3455187
930.3412304
929.3106475
928.2584173
927.1893036
926.1074164
925.0170116
923.9222756
922.8267609
921.7341095
920.647727
919.5706519
918.5056428
917.4553363
916.4220631
915.4077224
914.414259
913.4430664
912.4955023
911.5725992
910.6751429
909.8036478
908.9586719
908.1402462
907.3484458
906.5832536
905.8442896
905.1311497
904.4433596
903.7803218
903.1413458
902.5255844
901.9322256
901.360296
900.8089013
900.2770911
939.6167251
939.5276328
939.3366036
939.0544337
938.6869785
938.2400264
937.71854
937.1276282
936.4722714
935.7573154
934.9875855
934.1678105
933.3027891
932.3971581
931.4553993
930.4822252
929.4817476
928.4585824
927.4167674
926.3603299
925.293319
924.2193249
923.1419189
922.0646487
920.9905136
919.9224744
918.8635117
917.8159911
916.7822459
915.764517
914.7645262
913.7840702
912.824526
911.8872499
910.9732277
910.0833569
909.2182074
908.3785558
907.5645253
906.776381
906.0143618
905.2782953
904.5680291
903.8833201
903.2237941
902.5889037
901.978075
901.3905477
900.8255382
900.2820753
939.4156178
939.3310282
939.1497046
938.8815605
938.5324712
938.1075048
937.611633
937.0494559
936.4255764
935.744482
935.0106103
934.228291
933.4018054
932.5355397
931.6334636
930.6997383
929.7383004
928.7530698
927.747906
926.7264298
925.6920886
924.6485258
923.5987455
922.5459256
921.4930696
920.4427873
919.3977933
918.3604525
917.332866
916.3172361
915.3152474
914.3285985
913.3588206
912.4071539
911.4749066
910.5628983
909.6721482
908.8033818
907.9572355
907.1345068
906.3356019
905.5611059
904.8116459
904.0877033
903.389714
902.7180074
902.0727624
901.4538494
900.8608128
900.2927892
939.2147521
939.1352802
938.9648005
938.7126469
938.3844932
937.9847477
937.5181481
936.9889817
936.4014016
935.7595302
935.0674165
934.3289967
933.5480996
932.7286226
931.8743596
930.9887885
930.0755232
929.1381237
928.1798737
927.2042289
926.2141208
925.2127668
924.2029799
923.1874925
922.1690523
921.1499368
920.1326264
919.1191256
918.1114629
917.1114441
916.1205359
915.1404377
914.1721272
913.2169235
912.2756258
911.3491513
910.4379522
909.5427595
908.6638496
907.801798
906.9569404
906.1297886
905.3212471
904.5321319
903.7638655
903.0183731
902.297969
901.6054463
900.9439237
900.3164445
939.0155887
938.9422383
938.784858
938.5522178
938.2491554
937.8800052
937.4488593
936.9598039
936.416467
935.8225715
935.1817496
934.4975253
933.7733001
933.0124463
932.2182622
931.394001
930.5427776
929.6674839
928.7712328
927.8568998
926.9270857
925.9846529
925.0318927
924.0715024
923.1054412
922.1362228
921.1655471
920.1955332
919.2276988
918.2638231
917.3050537
916.3527689
915.407794
914.4710841
913.5430213
912.6241401
911.7143315
910.8136567
909.9214129
909.0371106
908.1596829
907.287967
906.4206979
905.5563459
904.6938684
903.8323789
902.9721644
902.1150065
901.2648296
900.4287407
938.8521965
938.7802622
938.6261924
938.3984598
938.1016843
937.7403321
937.3181456
936.8391536
936.3069366
935.7250303
935.0969462
934.4260747
933.715696
932.9690604
932.1893334
931.3796574
930.5429772
929.6820972
928.79999
927.8994658
926.982992
926.0533361
925.1127594
924.1637635
923.2084083
922.2489328
921.2871687
920.3249895
919.3639727
918.4056906
917.4512676
916.5019233
915.5583565
914.6213884
913.6912619
912.7683193
911.8524834
910.9435697
910.0411814
909.1448457
908.2542437
907.3688342
906.488748
905.6139375
904.7450526
903.8827158
903.0271715
902.1772534
901.3279219
900.4677523
938.7313187
938.6592314
938.5047829
938.276402
937.978881
937.6165961
937.1933829
936.7130393
936.1793804
935.5958455
934.9659246
934.292988
933.5803144
932.8311629
932.0487814
931.2361751
930.396273
929.5319745
928.6463995
927.7420754
926.8217594
925.8880235
924.9432811
923.9899994
923.0301788
922.0661277
921.0995472
920.1322999
919.1658625
918.2017118
917.2409019
916.2844609
915.3331124
914.38744
913.4477982
912.514462
911.58754
910.6671169
909.7532429
908.8462959
907.9466274
907.0552694
906.1732098
905.3022582
904.4440357
903.6004565
902.7731249
901.9629421
901.1706128
900.3973057
938.6105961
938.5381732
938.3829246
938.1533769
937.8544909
937.4903868
937.0651942
936.5825578
936.0461953
935.4597704
934.8267198
934.1503902
933.4340967
932.6812148
931.8948447
931.0780504
930.2338182
929.3652849
928.4752433
927.5664451
926.6417494
925.7034741
924.754367
923.7964869
922.8321854
921.8633383
920.8919898
919.9195297
918.9477517
917.977689
917.0106655
916.0473735
915.0887845
914.1353252
913.1876636
912.2462311
911.3116323
910.3843936
909.4654875
908.5559775
907.6574694
906.7716023
905.9007277
905.0468147
904.2121175
903.3985171
902.6071503
901.8387697
901.0936302
900.3713601
938.4898986
938.417165
938.2612344
938.0307007
937.7306383
937.364994
936.9380978
936.4535258
935.9149996
935.3261498
934.6905045
934.0114543
933.2923375
932.5364683
931.7470229
930.9271067
930.0798221
929.2081826
928.3149834
927.4031857
926.4753046
925.5339317
924.5815612
923.6203595
922.6525227
921.6799791
920.7045591
919.7278381
918.7512544
917.7761565
916.803511
915.8344402
914.8696363
913.9101233
912.9564605
912.0098968
911.0711744
910.1418115
909.2231006
908.317205
907.4259128
906.5517058
905.6967002
904.8629406
904.0522452
903.2655405
902.5031627
901.7649421
901.0499237
900.3570413
938.3691766
938.2962107
938.1397697
937.9086185
937.6075881
937.2409239
936.8126747
936.3267223
935.7866724
935.1961805
934.5587859
933.8779089
933.1569263
932.3991632
931.6078057
930.7860308
929.9369209
929.063362
928.168292
927.2545663
926.3245966
925.381173
924.4264344
923.4628098
922.4921648
921.5166721
920.5378255
919.5575148
918.5769027
917.5975162
916.6203656
915.6466473
914.6774196
913.7137442
912.7568868
911.808153
910.8691754
909.9415832
909.0275258
908.1290795
907.2485324
906.3880509
905.5494398
904.7343443
903.9435715
903.177419
902.4355667
901.7174005
901.021793
900.3477926
938.2484233
938.175294
938.018525
937.7869491
937.4852446
937.1179223
936.6887983
936.2019325
935.6609444
935.0694697
934.4310547
933.7491406
933.0271273
932.2683334
931.4759482
930.6532469
929.8030564
928.9283732
928.0322435
927.1172044
926.1859
925.2408765
924.2843954
923.3187403
922.3458685
921.3677842
920.3861508
919.4026359
918.4187449
917.4357695
916.4551761
915.4780483
914.5059987
913.5401561
912.5823169
911.6340591
910.6974071
909.7742924
908.8670726
907.9777535
907.1086694
906.2614086
905.4375153
904.6379317
903.862974
903.1125292
902.3860424
901.6826593
901.0013132
900.3410795
938.1276373
938.0543987
937.897524
937.6656011
937.3634874
936.9957722
936.5662175
936.0787513
935.5372805
934.9453203
934.3064141
933.6240114
932.9015225
932.142248
931.3494929
930.5262431
929.6754589
928.8001983
927.9033348
926.9873858
926.0551402
925.1088644
924.1510435
923.1836778
922.208998
921.2287257
920.2448
919.2587023
918.2722551
917.286705
916.3037154
915.3247091
914.3513094
913.3852418
912.4283189
911.4826492
910.5501788
909.63324
908.73391
907.8542844
906.9961737
906.1609215
905.3497263
904.5629435
903.8006449
903.0625016
902.3478757
901.6558477
900.9854691
900.3358753
938.0068633
937.9336369
937.7766213
937.5444854
937.2422543
936.8742416
936.4445049
935.9568416
935.4150654
934.8229359
934.1838627
933.5012971
932.7786681
932.0193374
931.2263856
930.4028792
929.5517851
928.6762576
927.7788886
926.8623842
925.9293768
924.9821675
924.0232664
923.0545635
922.078403
921.0964638
920.1106973
919.1227804
918.1344356
917.1473125
916.1629924
915.1833936
914.2101004
913.2453061
912.2908725
911.349127
910.4220505
909.5119934
908.6208336
907.7505984
906.9025991
906.0780286
905.2776426
904.5015742
903.7497198
903.0216883
902.3167297
901.6339933
900.9725767
900.3316463
937.8861471
937.8128789
937.6557734
937.4235118
937.1212745
936.7530971
936.3233285
935.8356422
935.2938571
934.7016581
934.0625793
933.3800656
932.6575222
931.898197
931.1052273
930.281648
929.4305427
928.5548276
927.6571552
926.740343
925.8067674
924.8589638
923.8991787
922.929555
921.9522098
920.9691124
919.9820265
918.99296
918.0035243
917.0157584
916.0312559
915.0521485
914.0803036
913.1178813
912.1671208
911.2301571
910.3091871
909.4062374
908.5232164
907.661746
906.8229539
906.0078561
905.2168245
904.4499099
903.7068953
902.9873775
902.2905394
901.6156037
900.9617185
900.3280819
937.7654012
937.6921053
937.5349422
937.3027027
937.0004178
936.6322518
936.2024257
935.7148023
935.1731016
934.5809977
933.9420271
933.259642
932.5372304
931.7780239
930.9851577
930.1616616
929.3106737
928.4349081
927.5371573
926.6201627
925.6862272
924.7380651
923.7776733
922.8074543
921.8293174
920.8455318
919.8577393
918.8681383
917.8784983
916.8908396
915.9071456
914.9294698
913.9600455
913.0009035
912.0545699
911.1229421
910.2083561
909.3125017
908.437293
907.5839712
906.7535424
905.946879
905.1640725
904.4051383
903.669809
902.9576568
902.2678567
901.5996836
900.9523243
900.3249994
937.6446278
937.5713109
937.4141055
937.1819537
936.8796056
936.5115134
936.0816408
935.5941235
935.0525546
934.4605979
933.8217934
933.1396009
932.4173919
931.6583833
930.8657096
930.0424957
929.191638
928.315949
927.4183246
926.5012517
925.5672471
924.6188547
923.6582019
922.6876409
921.7092101
920.725083
919.7372042
918.7476374
917.7585053
916.7717339
915.7896587
914.8142628
913.8479755
912.8928538
911.9513603
911.0254412
910.117232
909.2283189
908.3605233
907.5147705
906.6920293
905.8929006
905.1174343
904.3655809
903.6370721
902.9314028
902.2478167
901.5856152
900.9440204
900.322274
937.5238313
937.4504967
937.2933676
937.0612016
936.7588039
936.3908024
935.9610226
935.4735154
934.932105
934.3403271
933.7017257
933.0197693
932.2978136
931.539062
930.7467393
929.9237975
929.073163
928.1977046
927.3002873
926.3832871
925.4494186
924.5009882
923.5403766
922.5697527
921.5914155
920.6073827
919.6199368
918.6310012
917.6430084
916.6578762
915.6780116
914.7056023
913.7429484
912.792324
911.8559469
910.9358801
910.0339675
909.1518312
908.2909714
907.4522579
906.6365736
905.8442988
905.0754693
904.3299957
903.6076227
902.907784
902.2297881
901.5729602
900.9365522
900.3198232
937.4030176
937.3297353
937.17265
936.9404425
936.638102
936.2701027
935.8404417
935.3530128
934.8117104
934.2201333
933.5817616
932.9000736
932.1784105
931.4200345
930.6280725
929.8054402
928.9551081
928.0800522
927.1828797
926.266131
925.3325304
924.3842722
923.4239564
922.4535803
921.4756985
920.4922373
919.5056509
918.5179776
917.5315772
916.5486778
915.5715461
914.6026171
913.6440111
912.6981797
911.7670863
910.8528858
909.9571432
909.0815148
908.2272135
907.3950732
906.5859161
905.7999393
905.0371823
904.2975324
903.5807552
902.8862331
902.213336
901.5614104
900.9297356
900.3175861
937.2823176
937.2090395
937.0519242
936.8196794
936.5174362
936.1494124
935.71988
935.2326099
934.6914283
934.099999
933.4618782
932.7804966
932.059229
931.3012378
930.5096248
929.6873598
928.8374527
927.9628303
927.0660099
926.1497226
925.216477
924.2687004
923.3088178
922.3390939
921.3619103
920.379475
919.3941171
918.4081703
917.4238428
916.4436443
915.4696956
914.5046071
913.5503866
912.6094856
911.6837851
910.7753586
909.8856223
909.0162312
908.1681418
907.3422005
906.5390923
905.7589558
905.0018141
904.2675691
903.5559289
902.8663165
902.19813
901.5507353
900.9234353
900.3155185
937.1616312
937.0883386
936.9311952
936.6989483
936.396776
936.0287788
935.5993383
935.1122363
934.5712483
933.9800462
933.3421822
932.6611323
931.9402073
931.1825925
930.3913689
929.5695228
928.7201714
927.845992
926.9496266
926.0339285
925.1011974
924.1541052
923.1948858
922.2260946
921.2499335
920.2688819
919.2851413
918.3013243
917.3195285
916.3423587
915.3720182
914.4109625
913.461364
912.5254567
911.6051948
910.7024098
909.8185362
908.9550891
908.1128999
907.292822
906.4953714
905.7206961
904.9687955
904.2395937
903.5327429
902.8477121
902.1839238
901.540761
900.9175484
900.3135864
937.0409443
936.967638
936.8104687
936.5783244
936.2761262
935.9082497
935.4788202
934.9918947
934.4511108
933.8601489
933.2225755
932.541857
931.8212968
931.0640875
930.2732902
929.4519994
928.6031746
927.7295165
926.8338177
925.9187159
924.9866875
924.0404368
923.0821214
922.1145108
921.1397078
920.1603283
919.1786407
918.1972058
917.2183247
916.2444434
915.27797
914.3211483
913.3762955
912.4454282
911.5305658
910.6333095
909.7551439
908.8973739
908.0608075
907.246287
906.4541788
905.6846491
904.9376815
904.2132254
903.5108832
902.8301682
902.1705252
901.5313531
900.9119956
900.311764
936.9202622
936.8469433
936.689792
936.4577121
936.1554926
935.7877427
935.358392
934.871589
934.331019
933.7403092
933.1030402
932.4226699
931.7024954
930.9457185
930.1554149
929.3347259
928.4864529
927.6133922
926.7184559
925.8040731
924.8729778
923.9276685
922.9705712
922.0042806
921.0311718
920.0536956
919.0743689
918.095599
917.1199067
916.1495579
915.187146
914.234698
913.2946617
912.3688394
911.4593108
910.5674594
909.6948225
908.8425124
908.0113235
907.2020962
906.4150636
905.6504152
904.9081267
904.1881696
903.4901058
902.8134889
902.1577849
901.5224064
900.9067149
900.3100308
936.7995903
936.7262614
936.5692205
936.3371174
936.0349192
935.6672641
935.2380743
934.7513286
934.2109775
933.6205305
932.983579
932.3035728
931.5838041
930.8274946
930.0378008
929.2176677
928.3700048
927.4977141
926.6035388
925.6899945
924.7599769
923.8157818
922.8601017
921.895356
920.9241862
919.9488709
918.9721612
917.996313
917.0240224
916.0574498
915.0991881
914.151279
913.2160191
912.2952643
911.390938
910.5043648
909.6370871
908.7900397
907.9640423
907.1598501
906.3776656
905.6176763
904.8798803
904.1641924
903.4702168
902.7975191
902.1455845
901.5138382
900.9016572
900.3083708
911.3250391
910.4436499
909.581541
908.7395785
907.9185975
907.1192274
906.3416971
905.5861788
904.8526954
904.1411082
903.4510628
902.7821357
902.1338303
901.5055825
900.8967838
900.3067712
)
;

boundaryField
{
    front_top
    {
        type            wedge;
    }
    front_middle
    {
        type            wedge;
    }
    front_bottom
    {
        type            wedge;
    }
    back_top
    {
        type            wedge;
    }
    back_middle
    {
        type            wedge;
    }
    back_bottom
    {
        type            wedge;
    }
    axis_top
    {
        type            symmetryPlane;
    }
    axis_middle
    {
        type            symmetryPlane;
    }
    axis_bottom
    {
        type            symmetryPlane;
    }
    wall_top
    {
        type            calculated;
        value           nonuniform 0();
    }
    wall_middle
    {
        type            calculated;
        value           uniform 900.0184441;
    }
    wall_bottom
    {
        type            calculated;
        value           uniform 900.0184441;
    }
    inlet
    {
        type            calculated;
        value           nonuniform 0();
    }
    outlet
    {
        type            calculated;
        value           nonuniform 0();
    }
    procBoundary2to1
    {
        type            processor;
        value           nonuniform List<scalar> 
51
(
936.6789872
936.6057275
936.4486683
936.2165461
935.9144692
935.5468198
935.1177969
934.6312427
934.0910014
933.5008182
932.8641968
932.1845705
931.4652514
930.7095203
929.9203613
929.1008293
928.2538354
927.3824076
926.48907
925.5765693
924.6476812
923.7047941
922.7506886
921.7877233
920.8186778
919.8458075
918.8718751
917.8992355
916.9304432
915.9678265
915.0137816
914.0704731
913.1399867
912.2242723
912.2242723
911.2612733
910.3849707
909.5278588
908.6908207
907.8746867
907.0799689
906.3069261
905.555719
904.8263961
904.1187682
903.4325206
902.7672403
902.1224471
901.4975867
900.8920637
900.305222
)
;
    }
    procBoundary2to3
    {
        type            processor;
        value           nonuniform List<scalar> 
51
(
940.2213064
939.9236882
939.9236882
939.7182331
939.4145855
939.01972
938.5394281
937.9795522
937.3457536
936.6436821
935.8787992
935.0566113
934.1825606
933.2622057
932.3008942
931.3039791
930.2766181
929.2240282
928.1510888
927.0627506
925.9635535
924.8578677
923.7498699
922.6435733
921.5425324
920.4500892
919.3694126
918.3032774
917.2540506
916.2239886
915.2149908
914.2284947
913.266057
912.3284902
911.4168226
910.5313392
909.6725701
908.8405645
908.0352226
907.2564908
906.5039314
905.7770628
905.075301
904.3980225
903.7445033
903.113971
902.5055373
901.9184038
901.351646
900.8044483
900.2759095
)
;
    }
}


// ************************************************************************* //
