/*--------------------------------*- C++ -*----------------------------------*\
  =========                 |
  \\      /  F ield         | OpenFOAM: The Open Source CFD Toolbox
   \\    /   O peration     | Website:  https://openfoam.org
    \\  /    A nd           | Version:  7
     \\/     M anipulation  |
\*---------------------------------------------------------------------------*/
FoamFile
{
    version     2.0;
    format      ascii;
    class       volScalarField;
    location    "0.0027";
    object      T;
}
// * * * * * * * * * * * * * * * * * * * * * * * * * * * * * * * * * * * * * //

dimensions      [0 0 0 1 0 0 0];

internalField   nonuniform List<scalar> 
1167
(
450.1701404
450.4739218
450.6139384
450.9142712
451.3582185
451.9363125
452.6401075
453.4617868
454.393538
455.4276934
456.556827
457.7734847
459.0703179
460.4397585
461.8746124
463.3675855
464.9115014
466.4993099
468.1241076
469.778753
471.4570568
473.152546
474.8587957
476.5703116
478.2814067
479.9867114
481.6813837
483.3609793
485.021207
486.6582236
488.2688399
489.84977
491.3985838
492.9128938
494.390819
495.8308669
497.2319766
498.5930165
499.9137054
501.1936968
502.432799
503.6314158
504.7900011
505.9091333
506.9896026
508.0323624
509.0386347
510.0095969
510.9467027
511.8512887
512.7247951
450.777588
450.9120186
451.2003468
451.6264522
452.1817312
452.8577279
453.6472693
454.5429842
455.5377079
456.6244826
457.7963748
459.0465827
460.3681757
461.7544403
463.1988655
464.6945457
466.2354539
467.8147398
469.4263924
471.0643675
472.7225329
474.3954166
476.0775261
477.7633537
479.4482017
481.127389
482.7961603
484.4506889
486.0871664
487.7018984
489.2919867
490.8543914
492.386722
493.8866052
495.3522487
496.7819936
498.174702
499.528901
500.8441701
502.1198638
503.3553816
504.5507952
505.7061521
506.8216552
507.8977301
508.9350955
509.9345243
510.8971055
511.8239789
512.7166039
451.0810732
451.2087639
451.4825549
451.887635
452.4153443
453.0582853
453.8092372
454.6615638
455.6086364
456.6440053
457.7612921
458.9542712
460.216773
461.542443
462.925535
464.3599765
465.8400021
467.359833
468.9137398
470.4963176
472.1023861
473.7264149
475.3638223
477.0097135
478.6594222
480.3088584
481.9537296
483.5902567
485.2150443
486.8245074
488.4158534
489.9862452
491.5330906
493.0542444
494.5474378
496.011173
497.4436225
498.8434243
500.2093545
501.5399251
502.834278
504.0912649
505.3096676
506.4885045
507.6268692
508.7240311
509.7795096
510.7933342
511.7660785
512.6989961
451.3843237
451.5043397
451.7618613
452.1429283
452.6391573
453.2441155
453.9509004
454.7533107
455.6453601
456.6211135
457.6747447
458.8005905
459.9931379
461.2467498
462.5559235
463.9156138
465.3205371
466.7654598
468.2455382
469.7556272
471.2913548
472.8478686
474.4209061
476.0062943
477.5997993
479.1978881
480.7966769
482.3929978
483.9836173
485.5656265
487.1366296
488.6938411
490.2356029
491.7596992
493.2647297
494.7490957
496.2119346
497.6519309
499.0684954
500.4605534
501.8274139
503.168098
504.4809856
505.7645925
507.0164395
508.2332137
509.4109498
510.5448788
511.6296764
512.6601212
451.6851323
451.7959499
452.0337785
452.3854835
452.8439142
453.4027138
454.0559161
454.7975812
455.6224741
456.5252207
457.5005834
458.5434835
459.6490181
460.8123153
462.0285979
463.2931367
464.6013909
465.9491373
467.3317854
468.745081
470.1851652
471.6477445
473.1293802
474.6259736
476.1345459
477.6512246
479.1733828
480.697711
482.2218205
483.7428892
485.2590709
486.7681386
488.268726
489.7592498
491.2390284
492.7071322
494.1636562
495.608424
497.0424878
498.4665653
499.882313
501.2915562
502.6963005
504.0989969
505.5013229
506.9047143
508.3087006
509.7103614
511.1032401
512.4756032
451.9320087
452.0407246
452.2736298
452.6180303
453.0670953
453.614258
454.2540711
454.9806697
455.7888789
456.6735971
457.6297586
458.6524771
459.7370249
460.8787067
462.0729412
463.3151618
464.6010839
465.9266155
467.2873801
468.6792243
470.0984967
471.541053
473.0035061
474.4820664
475.9736052
477.4746869
478.982487
480.4940911
482.0070273
483.5188111
485.0276459
486.5315693
488.0294305
489.5198749
491.0024598
492.4765803
493.9422999
495.3998549
496.8498258
498.2929209
499.7296056
501.1607097
502.5859802
504.0054521
505.4180265
506.8226404
508.2188415
509.6084829
510.9997832
512.4115126
452.1147036
452.2236788
452.4572169
452.8026872
453.2529978
453.8017171
454.4432562
455.1721002
455.9827185
456.8701562
457.8293808
458.8555373
459.9439015
461.089766
462.2884239
463.5355205
464.8267968
466.1580168
467.5245777
468.9227633
470.3484755
471.7978736
473.2673352
474.7531245
476.2522059
477.7610364
479.2769965
480.7971906
482.3193072
483.8410151
485.3606326
486.8765055
488.3874499
489.8924956
491.3910299
492.8825633
494.3668691
495.843758
497.313095
498.7742161
500.2264953
501.6682005
503.0976582
504.5118475
505.9080324
507.2829798
508.6339411
509.9593016
511.2577609
512.5272506
452.2972109
452.4067216
452.6415302
452.9888564
453.4413522
453.9929743
454.6376887
455.3702139
456.1851684
457.0772578
458.0415321
459.0731736
460.1674044
461.3193402
462.5245017
463.7784454
465.076826
466.4150422
467.7889953
469.1946234
470.62767
472.0846879
473.5615341
475.0551084
476.561827
478.0788226
479.6029392
481.1320241
482.6632693
484.1950453
485.7252475
487.2527574
488.7760018
490.2942641
491.8064358
493.3117787
494.8092709
496.2980085
497.7763626
499.2425449
500.6938765
502.1276053
503.5398029
504.9271346
506.2857796
507.6125012
508.9052616
510.162643
511.3840409
512.5698817
452.479727
452.5897361
452.8256372
453.1745459
453.6289423
454.183045
454.8305171
455.5661811
456.3846508
457.2806825
458.2491885
459.2852849
460.384159
461.5410207
462.7512749
464.0104152
465.3139174
466.657369
468.0366677
469.4474268
470.8859216
472.3482801
473.8307527
475.3300722
476.8428976
478.3662806
479.8974018
481.4338192
482.9732868
484.5136809
486.0534653
487.5908432
489.1246873
490.6533318
492.1758401
493.6901633
495.1950496
496.6879894
498.1668176
499.6279464
501.0683683
502.4839303
503.8710435
505.2262131
506.5462916
507.8295707
509.0753021
510.2835677
511.4557452
512.5934098
452.6623274
452.7727162
453.0094506
453.3593848
453.8153662
454.371161
455.0208581
455.7588164
456.5798255
457.4786041
458.4500474
459.4892262
460.5912686
461.7513681
462.9649137
464.2272883
465.5339975
466.8808242
468.2634456
469.677638
471.1198363
472.5858608
474.0725146
475.5761219
477.0938595
478.6223984
480.159449
481.7020782
483.2484758
484.7962398
486.3437663
487.8891428
489.4306597
490.9665883
492.4948589
494.0133218
495.5192841
497.0100379
498.4820157
499.9317416
501.3553714
502.7492323
504.110215
505.4354522
506.723428
507.9734544
509.185856
510.3614482
511.5018999
512.6086073
452.8450221
452.9556865
453.1929785
453.5436465
454.0007678
454.557706
455.2089017
455.9484437
456.7710992
457.6716167
458.6448799
459.6859274
460.789851
461.9518533
463.1673174
464.4314743
465.7402214
467.0891717
468.4738342
469.8904768
471.3351752
472.8041286
474.2939503
475.8011928
477.322891
478.8559816
480.3979113
481.9460985
483.4981954
485.0521726
486.6057053
488.1570581
489.7036377
491.2436015
492.7740237
494.2923048
495.7951077
497.2792182
498.7407115
500.1762022
501.5817501
502.9545988
504.2920482
505.5923643
506.8548282
508.0794236
509.2668641
510.4183648
511.5355031
512.6196386
453.0278132
453.1386715
453.3761848
453.727469
454.185329
454.743008
455.3950278
456.135676
456.9592828
457.8607782
458.8350496
459.8771216
460.9820693
462.1451213
463.3614824
464.6268267
465.9368463
467.2870586
468.6732386
470.0916856
471.5382508
473.0095683
474.5019051
476.0122565
477.5372319
479.074212
480.6202132
482.1729477
483.729569
485.2881181
486.8459576
488.4008102
489.9500594
491.4909039
493.0203795
494.5350238
496.0316079
497.5062563
498.9554766
500.3757217
501.7638835
503.1175921
504.434702
505.7144311
506.956461
508.1611323
509.3293003
510.4622933
511.5615014
512.6281905
453.2106332
453.3215017
453.5592896
453.9109871
454.3691436
454.9274182
455.5798837
456.3210242
457.1453105
458.0472997
459.0220811
460.0646757
461.1701285
462.3335734
463.5505575
464.8166312
466.1274762
467.4784601
468.8657928
470.2854816
471.7336209
473.2067916
474.7012228
476.2140825
477.7418045
479.2818374
480.8311791
482.387235
483.9473155
485.5088239
487.0692487
488.6255214
490.1750798
491.7143668
493.2403273
494.7491346
496.2374891
497.7014714
499.1378958
500.5433146
501.9154175
503.2520742
504.5518561
505.814344
507.039509
508.2277984
509.3802554
510.4981019
511.5826568
512.63514
453.3934129
453.5043731
453.7423585
454.0943372
454.5526214
455.1112903
455.763973
456.5053403
457.3298538
458.2321828
459.2072258
460.2500119
461.3556209
462.5193597
463.736688
465.0032036
466.3144076
467.6660341
469.0541994
470.4747385
471.9241424
473.398629
474.894838
476.4095444
477.9395371
479.4818106
481.0336576
482.5919621
484.154208
485.7171802
487.2783426
488.8342816
490.3819757
491.9179106
493.438417
494.9399629
496.4188901
497.8717879
499.2954123
500.6869619
502.044419
503.3659387
504.6507151
505.8984671
507.109354
508.2838474
509.4231056
510.5282346
511.6004748
512.6409973
453.5762846
453.6873153
453.9254492
454.2774853
454.7359598
455.2947556
455.9476941
456.6891573
457.5137552
458.4161723
459.391302
460.4341608
461.5398533
462.7037104
463.9211938
465.1879081
466.4992695
467.8513229
469.2399683
470.6611581
472.1114976
473.5869271
475.0844744
476.6005107
478.1321496
479.6759157
481.2292919
482.7888609
484.3518546
485.915083
487.4753873
489.02947
490.5737193
492.1048168
493.6186242
495.1119788
496.5809901
498.0227793
499.4340876
500.8127229
502.1568635
503.4648965
504.7364737
505.9713748
507.1698455
508.3324018
509.4602191
510.5543218
511.6158908
512.6460628
453.759245
453.8703363
454.1085956
454.4605894
454.919278
455.4781058
456.1312835
456.8727766
457.6973866
458.5998119
459.5749393
460.617772
461.7234387
462.8872914
464.1047916
465.3713967
466.6828934
468.0351751
469.4239809
470.8456565
472.296476
473.7726437
475.2709852
476.7879489
478.3204466
479.8651519
481.4190706
482.9789947
484.5415953
486.1038265
487.6619653
489.2128183
490.7524532
492.2775004
493.7839138
495.2684446
496.7275156
498.1584093
499.5580114
500.9246379
502.2565272
503.5525076
504.8123014
506.0357975
507.2232469
508.3752954
509.4930101
510.5773757
511.6295177
512.6505414
453.9422875
454.0534342
454.2916394
454.6437455
455.1026275
455.6614617
456.3146667
457.0563358
457.8809168
458.7833019
459.7583701
460.8011099
461.9066726
463.0704295
464.287702
465.5542119
466.8656992
468.2179693
469.6068084
471.0287334
472.4797109
473.9563139
475.4549732
476.9724227
478.5051654
480.0501177
481.603752
483.163078
484.7242735
486.2842995
487.8393136
489.3857902
490.9199943
492.4382025
493.9367513
495.4121985
496.8614287
498.2816632
499.6703022
501.0257514
502.3463883
503.6314008
504.8805377
506.093756
507.2712888
508.4138857
509.5225111
510.598114
511.6417736
512.6545689
454.1254033
454.2364994
454.4746995
454.8269592
455.2858728
455.8448478
456.4980404
457.2397815
458.0644105
458.9667217
459.9416897
460.9842869
462.0896849
463.2531633
464.4701923
465.7365486
467.0479032
468.3998947
469.7887068
471.2106016
472.6615295
474.1382374
475.6368133
477.1542576
478.6866724
480.2311143
481.7837835
483.3415042
484.9005645
486.4574293
488.0084715
489.5497659
491.0778562
492.5887291
494.0791209
495.5454373
496.985006
498.3949909
499.7732537
501.118259
502.4284838
503.7034152
504.9427991
506.1466336
507.3151215
508.449099
509.5494335
510.6170415
511.6529603
512.6582452
454.308394
454.4195123
454.6578193
455.0102264
455.4691105
456.0282668
456.6814324
457.4231226
458.24778
459.1500978
460.1249332
461.1673291
462.2724043
463.4355894
464.6523922
465.918505
467.2295365
468.5812003
469.9698177
471.3913546
472.8420951
474.3184228
475.8166968
477.3334986
478.8651983
480.4084088
481.9595228
483.5148951
485.0710477
486.6239947
488.1703336
489.7058542
491.2272727
492.7305698
494.2126087
495.6699211
497.100071
498.5002229
499.8686513
501.2038016
502.5043747
503.7699552
505.0003188
506.1954426
507.3556266
508.4816434
509.5743176
510.6345362
511.6632997
512.6616431
454.4914111
454.6025801
454.8409911
455.1934922
455.652387
456.2116469
456.8648411
457.6064665
458.4310409
459.3332439
460.3079371
461.3500927
462.4549254
463.6178294
464.8343434
466.1001323
467.4106383
468.761958
470.15022
471.571199
473.0215016
474.4971299
475.9947392
477.5104548
479.0409254
480.5823348
482.1312727
483.6836497
485.2361571
486.7846527
488.3255978
489.8550215
491.3693733
492.8649752
494.3385698
495.7870729
497.2080178
498.5987928
499.9578751
501.2836998
502.5752436
503.8320783
505.0540211
506.2410163
507.3934573
508.512045
509.5975664
510.6508827
511.672961
512.6648181
454.6744762
454.7856945
455.0242063
455.3766425
455.8356949
456.3949154
457.0482611
457.7898087
458.6142841
459.5163523
460.4908515
461.5327666
462.6373224
463.7999003
465.0160678
466.2813222
467.5913463
468.9422
470.329777
471.7501846
473.1997547
474.6744356
476.1710004
477.6852371
479.2139462
480.7530941
482.2991609
483.8481342
485.396379
486.9399986
488.4751242
489.9981161
491.5051882
492.993005
494.4582019
495.8980614
497.3100355
498.6918503
500.0420219
501.3590053
502.6420204
503.8906134
505.1046294
506.2839746
507.4291258
508.5407148
509.6194941
510.6663014
511.682074
512.667813
454.857581
454.9688472
455.2073931
455.5598223
456.0190254
456.5781975
457.2315916
457.9731435
458.7975046
459.6994199
460.6737035
461.7153522
462.8195987
463.9818086
465.1975255
466.4621724
467.7716747
469.1219435
470.5086853
471.9283295
473.3768055
474.8503805
476.345406
477.8579406
479.3843552
480.9208711
482.4635733
484.0086868
485.5522244
487.0905693
488.6195538
490.1358778
491.6355431
493.1155531
494.5724438
496.0038452
497.4071243
498.7803175
500.1219643
501.430524
502.7054353
503.9462086
505.1527049
506.3247968
507.46303
508.5679727
509.6403451
510.6809643
511.6907407
512.6706613
455.0407177
455.1520277
455.3904675
455.7430227
456.2023115
456.7614836
457.4148008
458.1564564
458.9806957
459.882441
460.856489
461.8978466
463.0017524
464.16354
465.3786269
466.6427362
467.9516256
469.301041
470.6869484
472.1056414
473.552796
475.0249922
476.5181635
478.0286392
479.5523692
481.085841
482.6247673
484.1656066
485.7040898
487.2367625
488.7594529
490.2688336
491.7611438
493.2332982
494.6820814
496.1052168
497.5000631
498.8649426
500.1983562
501.4989023
502.7660712
503.9993799
505.1986549
506.3638638
507.4954859
508.5940721
509.660313
510.6950073
511.6990413
512.6733893
494.7877677
496.2027784
497.5894887
498.9463331
500.2717884
501.5646587
502.8243942
504.0505386
505.2428809
506.4014778
507.5267438
508.6192139
509.6795513
510.7085384
511.7070396
512.676018
)
;

boundaryField
{
    front_top
    {
        type            wedge;
    }
    front_middle
    {
        type            wedge;
    }
    front_bottom
    {
        type            wedge;
    }
    back_top
    {
        type            wedge;
    }
    back_middle
    {
        type            wedge;
    }
    back_bottom
    {
        type            wedge;
    }
    axis_top
    {
        type            symmetryPlane;
    }
    axis_middle
    {
        type            symmetryPlane;
    }
    axis_bottom
    {
        type            symmetryPlane;
    }
    wall_top
    {
        type            convectiveRadiativeHeatFlux;
        mode            convectiveRadiative;
        kappaMethod     fluidThermo;
        kappa           none;
        alphaAni        Anialpha;
        h               nonuniform 0();
        Ta              constant 513.15;
        emissivityNozzle 0.95;
        emissivityFilament 0.95;
        dNozzle         2;
        dFilament       1.65;
        refValue        nonuniform 0();
        refGradient     nonuniform 0();
        valueFraction   nonuniform 0();
        value           nonuniform 0();
    }
    wall_middle
    {
        type            fixedValue;
        value           uniform 513.15;
    }
    wall_bottom
    {
        type            fixedValue;
        value           uniform 513.15;
    }
    inlet
    {
        type            fixedValue;
        value           nonuniform 0();
    }
    outlet
    {
        type            zeroGradient;
    }
    procBoundary2to1
    {
        type            processor;
        value           nonuniform List<scalar> 
51
(
455.2237971
455.3350306
455.5735594
455.9262345
456.3854573
456.9447647
457.597996
458.3395503
459.1638339
460.0654077
461.0392003
462.0802421
463.1837397
464.3449339
465.5595049
466.8230062
468.1311909
469.4796076
470.8645599
472.281981
473.7277308
475.1982428
476.6893098
478.1973528
479.7181016
481.2480759
482.7829655
484.3190685
485.852335
487.3790401
488.8953198
490.3976478
491.8825962
493.3469277
493.3469277
494.8900476
496.2970812
497.675924
499.0249845
500.342749
501.6282126
502.8807798
504.1000153
505.2856687
506.4378811
507.5570045
508.6435591
509.6981827
510.7216437
511.7147864
512.678564
)
;
    }
    procBoundary2to3
    {
        type            processor;
        value           nonuniform List<scalar> 
51
(
449.8660134
450.3146091
450.3146091
450.6244545
451.0826314
451.6788912
452.4048239
453.2519817
454.2122142
455.2774003
456.439703
457.6912061
459.0240686
460.4302399
461.9019516
463.4313793
465.0109456
466.6329239
468.2900457
469.9748692
471.680523
473.400336
475.127875
476.8569011
478.5818351
480.297378
481.9984544
483.6805646
485.3398151
486.9724551
488.5752715
490.1457639
491.6812254
493.1801232
494.6405728
496.0618764
497.4429434
498.7834588
500.0833538
501.3424923
502.5613677
503.7405564
504.8808115
505.982963
507.0480165
508.0770688
509.0714186
510.03223
510.9608848
511.8585985
512.7267371
)
;
    }
}


// ************************************************************************* //
