/*--------------------------------*- C++ -*----------------------------------*\
  =========                 |
  \\      /  F ield         | OpenFOAM: The Open Source CFD Toolbox
   \\    /   O peration     | Website:  https://openfoam.org
    \\  /    A nd           | Version:  7
     \\/     M anipulation  |
\*---------------------------------------------------------------------------*/
FoamFile
{
    version     2.0;
    format      ascii;
    class       volScalarField;
    location    "0.0018";
    object      generalizedNewtonian:nu;
}
// * * * * * * * * * * * * * * * * * * * * * * * * * * * * * * * * * * * * * //

dimensions      [0 2 -1 0 0 0 0];

internalField   nonuniform List<scalar> 
1167
(
18.05586314
17.83451854
17.45048527
16.7890339
15.88337124
14.74144919
13.41941924
12.00810125
10.60213904
9.273646253
8.063379089
6.986403198
6.041734075
5.220182998
4.509117141
3.895210545
3.365790058
2.909443403
2.516019314
2.176700317
1.88390754
1.631111627
1.412749369
1.224049062
1.060947555
0.9199530165
0.7980880422
0.6927867888
0.601843431
0.5233492038
0.4556506557
0.3973074589
0.347063389
0.3038202866
17.1563659
16.96486844
16.65100854
16.09980796
15.34913296
14.39091438
13.25064287
11.98851962
10.68305204
9.40823322
8.216926917
7.137454117
6.178975068
5.338777733
4.607992803
3.975317574
3.429089998
2.958205961
2.552525773
2.203115968
1.902162707
1.642907023
1.419535624
1.227058137
1.061196611
0.9182806368
0.7951627107
0.6891376001
0.5978717464
0.5193529917
0.4518366285
0.3938110972
0.3439606384
0.3011438634
0.2643658579
0.2327641106
0.205592087
0.1822045317
0.16204686
0.1446429448
0.1295856041
0.116528168
0.1051760334
0.09527892094
0.08662468304
0.07903366728
0.07235367721
0.06645531153
0.06122716999
0.05656928828
16.44896186
16.27655923
16.00742282
15.52741347
14.88026439
14.05342268
13.05543315
11.92344414
10.71714417
9.503830118
8.341085833
7.26706999
6.300427711
5.44537908
4.697445709
4.047849273
3.486205228
3.001874399
2.584849334
2.22612338
1.917685853
1.652565325
1.42470424
1.22889752
1.060655575
0.9161320188
0.7920127594
0.6854570765
0.5940092967
0.5155602286
0.448281244
0.3905970087
0.3411400072
0.2987326148
0.2623527591
0.2311216392
0.2042822975
0.1811855014
0.1612762754
0.1440801654
0.1291936873
0.1162744694
0.1050324159
0.09522144566
0.08663347715
0.07909243498
0.07244922556
0.06657708911
0.06136691675
0.05672091433
15.88901009
15.72927671
15.48962722
15.05687971
14.4797539
13.74564015
12.85534159
11.83076612
10.71506195
9.565010321
8.437100996
7.375180268
6.405702123
5.539648382
4.777289648
4.112768514
3.537156434
3.040509681
2.613092501
2.245850283
1.930623802
1.660231094
1.428392328
1.229688497
1.059427009
0.9135861602
0.788694448
0.6817772893
0.5902683822
0.511964656
0.4449655518
0.3876365651
0.3385683144
0.2965514992
0.2605434019
0.2296528561
0.2031155805
0.1802804694
0.1605932445
0.1435819611
0.1288469837
0.1160501482
0.1049053756
0.09517060192
0.08664135573
0.07914472775
0.07253435884
0.06668580667
0.06149196587
0.05685692977
15.44450128
15.29334183
15.07374041
14.67300612
14.14378508
13.47490332
12.664632
11.72542394
10.687876
9.598006603
8.507674082
7.462647796
6.494939409
5.62154407
4.847535653
4.170096505
3.582012471
3.074235773
2.637395411
2.262447507
1.941127693
1.666051218
1.43073744
1.229549075
1.057607765
0.9107146908
0.7852547548
0.678123402
0.5866540128
0.5085572249
0.4418688848
0.3849030469
0.3362153624
0.2945701201
0.2589091708
0.2283320117
0.2020698839
0.1794713769
0.1599834959
0.1431375601
0.1285377642
0.1158499731
0.1047918334
0.09512496354
0.08664814583
0.07919129618
0.07261048007
0.06678329986
0.06160441167
0.05697955928
15.09163641
14.94655277
14.74065052
14.36184735
13.86587415
13.24303626
12.49131616
11.61826713
10.64548728
9.609633141
8.556519936
7.531117821
6.568768331
5.691364836
4.908340989
4.219946193
3.620894435
3.103214102
2.65793063
2.276092135
1.949365365
1.67018081
1.431871327
1.228590343
1.055281948
0.9075789388
0.7817312644
0.6745135705
0.5831677584
0.5053270254
0.4389717285
0.3823718495
0.3340542665
0.2927620524
0.2574256619
0.2271374374
0.2011268113
0.1787431161
0.1594352869
0.1427381618
0.1282597507
0.1156697668
0.1046893189
0.09508340238
0.08665374465
0.07923279598
0.07267878487
0.06687113005
0.06170604756
0.05709073483
14.81314644
14.67236401
14.47567372
14.11189115
13.63899374
13.04861697
12.33920486
11.51633172
10.59569332
9.606272377
8.587808084
7.582921162
6.628432491
5.749739985
4.960015753
4.262521961
3.65400615
3.1276266
2.67487858
2.286973938
1.955509693
1.672776158
1.431924601
1.226917138
1.052528003
0.9042331597
0.7781560835
0.6709618395
0.5798088463
0.5022628845
0.4362558883
0.3800210233
0.3320618559
0.2911046986
0.2560718894
0.2260509855
0.2002711443
0.1780833718
0.1589390239
0.142376602
0.1280078642
0.1155061814
0.1045958806
0.09504506214
0.08665813039
0.07926982095
0.07274030322
0.06695061909
0.06179837462
0.05719205511
14.59611127
14.45828977
14.2675295
13.91392143
13.45674206
12.88902978
12.20979031
11.42401674
10.54403466
9.593199099
8.605620676
7.62076772
6.675467118
5.797443685
5.002979244
4.298118352
3.681612054
3.147707007
2.688451708
2.295274443
1.959726503
1.673982998
1.431017235
1.224626359
1.04941567
0.9007253171
0.774555462
0.6674785684
0.5765743875
0.4993537551
0.4337042987
0.3778311619
0.3302178073
0.2895785792
0.2548302062
0.2250573697
0.1994901531
0.1774819124
0.1584867795
0.1420470028
0.1277780341
0.1153565035
0.1045099436
0.09500926946
0.08666131717
0.0793028922
0.07279591593
0.06702289024
0.06188266799
0.05728488307
14.43055347
14.2946111
14.10730452
13.76030103
13.31345563
12.76116614
12.10300885
11.34401022
10.4947729
9.574786867
8.613537807
7.647096227
6.711349162
5.835338753
5.037765568
4.327135186
3.704001134
3.163699471
2.698884603
2.301198811
1.962190892
1.673942815
1.42926398
1.221801827
1.046005789
0.8970921589
0.7709495774
0.6640684549
0.5734595285
0.4965868596
0.4313008269
0.3757842587
0.3285041594
0.2881668682
0.2536855451
0.2241437047
0.1987734095
0.176930256
0.158071999
0.1417445072
0.1275667868
0.1152185099
0.1044302457
0.09497550435
0.08666334856
0.07933246904
0.07284637716
0.06708889533
0.06196000144
0.05737035983
14.30898999
14.17399931
13.98824946
13.64495509
13.20430554
12.66179475
12.01793027
11.27767685
10.45089292
9.55462372
8.614794139
7.66434855
6.737733475
5.86448593
5.065081207
4.350067622
3.721534135
3.175886084
2.706407478
2.304945347
1.963077606
1.672795412
1.426773927
1.218523799
1.042353275
0.893367424
0.767355214
0.6607354851
0.5704591327
0.4939511409
0.4290310251
0.3738642625
0.3269053219
0.2868555046
0.2526252117
0.2232991077
0.1981117356
0.1764212796
0.1576892489
0.1414651098
0.1273713028
0.1150903794
0.1043557574
0.09494335345
0.08666427921
0.07935895091
0.0728923306
0.06714944183
0.06203128364
0.0574494504
14.22536221
14.0906695
13.90501491
13.56304812
13.12529437
12.58815482
11.95318951
11.22538189
10.41421923
9.535338211
8.612123229
7.674842773
6.756305935
5.88605189
5.085777567
4.367479374
3.73461107
3.18459626
2.711278314
2.306717892
1.962545534
1.670667562
1.423648948
1.214863781
1.038508194
0.8895799755
0.7637870632
0.6574821373
0.5675682598
0.4914364868
0.4268821876
0.372057603
0.3254079537
0.2856318018
0.2516383689
0.2225144519
0.1974976541
0.1759490546
0.1573339942
0.141205481
0.127189263
0.1149706182
0.1042856427
0.09491249247
0.08666417257
0.07938268634
0.07293432632
0.06720521466
0.06209728251
0.05752296854
14.17466237
14.0399088
13.8530454
13.51047108
13.07301214
12.53771006
11.90709743
11.18675454
10.38573321
9.518807087
8.607672243
7.680524892
6.76866332
5.901310979
5.100707008
4.379949861
3.743656556
3.190159563
2.71375778
2.306728669
1.960759792
1.667685177
1.419976081
1.210884735
1.034509675
0.8857528866
0.7602544834
0.6543087141
0.5647812904
0.4890331631
0.4248431721
0.370352285
0.3240004543
0.2844851711
0.2507157739
0.2217819677
0.1969248458
0.1755086009
0.1570024593
0.1409629468
0.1270187525
0.1148579886
0.1042192146
0.09488266261
0.08666309322
0.07940397696
0.0729728332
0.06725679445
0.06215864752
0.05759160194
14.15322589
14.01798373
13.8287872
13.4840606
13.04465571
12.50826423
11.87821393
11.16095609
10.3655582
9.506064946
8.603011262
7.683114002
6.776385515
5.91141444
5.110666853
4.388044866
3.749117087
3.192901049
2.714091197
2.30517985
1.957875018
1.663966526
1.415840638
1.206645049
1.030394301
0.8819065978
0.7567651242
0.6512148738
0.5620915713
0.4867320937
0.4229034142
0.3687376334
0.3226727026
0.2834064975
0.249849578
0.2210953005
0.1963880254
0.1750957513
0.1566914686
0.1407351208
0.1268581678
0.114751475
0.1041559142
0.0948536586
0.0866611039
0.07942308239
0.07300824981
0.06730467234
0.06221592637
0.05765592908
14.15823897
14.02205425
13.82945697
13.4813171
13.03800782
12.49818659
11.86553212
11.14746747
10.35357001
9.49759091
8.599185435
7.683890524
6.780604114
5.917261201
5.116352912
4.392320494
3.751423161
3.193148203
2.712530029
2.302250478
1.954026958
1.659616608
1.411317146
1.202198052
1.026194464
0.8780590844
0.7533260468
0.648200301
0.5594940639
0.4845254157
0.4210534367
0.3672044036
0.3214165046
0.2823880955
0.2490330931
0.2204487378
0.195882696
0.1747070097
0.1563983722
0.1405200524
0.1267061738
0.1146502292
0.1040952774
0.09482531377
0.08665826247
0.07944022493
0.07304091416
0.06734926319
0.06226958057
0.05771643646
14.18758723
14.05000939
13.85304244
13.50023948
13.05134036
12.50583448
11.86800595
11.14595776
10.34997566
9.493917601
8.596962488
7.683734076
6.78218776
5.919633615
5.118432763
4.393345665
3.75099002
3.191209773
2.70932593
2.29812991
1.949354012
1.654729014
1.406471841
1.197586421
1.021936469
0.8742257739
0.7499423606
0.6452647183
0.5569839439
0.4824061604
0.4192854334
0.3657446798
0.3202240147
0.2814233406
0.2482606778
0.219837527
0.1954050636
0.1743394168
0.1561209356
0.1403161211
0.1265616563
0.114553546
0.1040369215
0.09479749411
0.08665462224
0.07945559485
0.07307111265
0.06739091709
0.06231999874
0.05777353325
14.23967378
14.10026545
13.89818344
13.53944697
13.08326603
12.52995653
11.88478222
11.1560574
10.35483854
9.495463236
8.596988958
7.683426768
6.781960826
5.919292642
5.117585483
4.391639729
3.748212984
3.187387887
2.704700104
2.292986987
1.943989081
1.649398563
1.40136931
1.192850403
1.017644518
0.8704166983
0.7466175421
0.6424061162
0.5545564192
0.4803685826
0.4175925453
0.3643515807
0.3190887856
0.280506537
0.2475274833
0.2192576634
0.1949519118
0.1739904878
0.155857403
0.1401219801
0.1264236789
0.1144608341
0.1039805279
0.09477009041
0.08665023094
0.07946935409
0.07309908719
0.06742992874
0.06236750747
0.05782756307
14.31287328
14.17143897
13.96341582
13.59754741
13.13264277
12.56966116
11.91488706
11.17718086
10.3680515
9.502479179
8.599749853
7.683572397
6.78056617
5.916918192
5.114433339
4.387682821
3.743454718
3.181982245
2.698873553
2.286979915
1.938045401
1.643705671
1.396068018
1.188027337
1.013341017
0.8666434626
0.7433553755
0.6396227098
0.5522072585
0.4784067142
0.4159686077
0.3630191026
0.3180053012
0.2796328667
0.2468296292
0.2187058139
0.1945205616
0.1736581263
0.1556060909
0.1399364836
0.1262914686
0.1143716067
0.1039258341
0.09474301353
0.08664512997
0.07948163928
0.07312504098
0.06746654518
0.06241238
0.05787881283
14.40635018
14.26261699
14.04776832
13.67363559
13.19856796
12.62413702
11.95751893
11.20858626
10.38927426
9.515012748
8.605571516
7.684678933
6.77865913
5.913179353
5.10949981
4.381891844
3.737058346
3.17525892
2.692049315
2.280262576
1.931628665
1.637723108
1.390615164
1.183147381
1.009046244
0.8629156189
0.7401591818
0.6369137454
0.5499330285
0.4765153698
0.4144083208
0.3617427234
0.3169689737
0.2787982209
0.2461635263
0.2181791176
0.1941087504
0.1733405776
0.1553656678
0.139758674
0.1261643712
0.1142854522
0.1038726189
0.09471618875
0.08663935424
0.07949256489
0.07314914391
0.06750097254
0.06245484394
0.05792752108
14.51961984
14.37327531
14.15069434
13.76726744
13.28051146
12.69290912
12.01230502
11.2497132
10.4178679
9.532775715
8.614570146
7.687201812
6.776797381
5.908546145
5.103186486
4.374610908
3.729334552
3.167449311
2.684397974
2.272973208
1.924838118
1.631520426
1.385054945
1.178238051
1.00477334
0.8592398376
0.7370324361
0.634278115
0.5477305839
0.4746905223
0.4129072638
0.360517562
0.3159757909
0.2779991333
0.2455261268
0.2176751362
0.1937145468
0.1730363699
0.1551350181
0.1395877466
0.1260418383
0.1142020266
0.1038206984
0.09468955416
0.08663293313
0.07950222641
0.07317153733
0.06753338205
0.06249508807
0.05797388541
14.65237876
14.50303583
14.27178442
13.87801319
13.37808402
12.77560217
12.07899076
11.30039784
10.45366718
9.555547694
8.626663956
7.691190014
6.775131928
5.903253107
5.095772656
4.366135774
3.720539281
3.158760014
2.676079105
2.265219357
1.917753469
1.625160014
1.379428478
1.173325333
1.000536693
0.8556227343
0.7339747594
0.6317140751
0.5455979943
0.4729287045
0.4114615983
0.3593398029
0.315022291
0.2772326043
0.2449149104
0.2171918067
0.1933363308
0.172744367
0.1549132152
0.1394230225
0.1259234074
0.114121041
0.103769918
0.09466305778
0.08662589068
0.07951070269
0.07319233794
0.0675639149
0.06253326784
0.05801806836
14.80483578
14.65201081
14.41114053
14.00576909
13.49109537
12.87182767
12.157399
11.36064551
10.49672095
9.583384295
8.641883264
7.696709297
6.77380256
5.897517181
5.087523818
4.356770697
3.710910762
3.149372684
2.667247041
2.257114224
1.910451492
1.618689848
1.373768008
1.168432352
0.9963493479
0.8520709435
0.7309883305
0.6292207552
0.5435317635
0.4712265426
0.4100679807
0.3582062277
0.3141056025
0.2764963952
0.2443278163
0.2167274366
0.1929727403
0.1724633803
0.1546994634
0.1392639454
0.1258086994
0.1140422564
0.103720149
0.09463665527
0.08661824556
0.07951805772
0.07321164091
0.06759268627
0.06256950987
0.05806020188
14.97716695
14.82045447
14.56899983
14.15063293
13.61954134
12.98152537
12.24733435
11.43036762
10.5469886
9.616263908
8.660278502
7.703899716
6.77300454
5.891573847
5.078740248
4.346754349
3.700648108
3.139451587
2.658027033
2.248753614
1.903004468
1.612157804
1.368104097
1.163576021
0.9922210349
0.8485905924
0.7280750278
0.6267976148
0.5415297168
0.4695813187
0.4087241656
0.3571142469
0.3132232927
0.2757882377
0.2437630636
0.2162805973
0.192622645
0.1721925342
0.1544931062
0.1391100437
0.1256973935
0.1139654716
0.1036712831
0.09461030878
0.08661001194
0.07952434288
0.07322952297
0.06761978901
0.06260391603
0.05810039191
15.16943117
15.00858093
14.74540714
14.31258368
13.76340618
13.10461694
12.34836293
11.50925317
10.60440754
9.654233783
8.681892149
7.712792696
6.772844111
5.885666772
5.069673601
4.336292724
3.689917769
3.12915125
2.64853025
2.240215773
1.895476621
1.605607891
1.362466222
1.158773068
0.9881610511
0.8451853031
0.7252358113
0.6244444179
0.5395904169
0.4679909514
0.4074272372
0.3560615761
0.3123733385
0.275106247
0.2432191371
0.2158500786
0.1922851639
0.1719310971
0.1542935921
0.1389609242
0.1255892236
0.11389052
0.1036232303
0.09458398623
0.08660120013
0.07952959851
0.07324604486
0.06764529667
0.06263656696
0.05813872218
3.1186032
2.638860279
2.231577414
1.887912653
1.599072296
1.35688025
1.15403943
0.9841783359
0.8418581994
0.7224715048
0.6221610256
0.5377125219
0.466453623
0.406175197
0.3550462644
0.3115539999
0.2744489422
0.2426948083
0.215434888
0.1919595267
0.1716784651
0.1541004696
0.1388162631
0.1254839697
0.1138172638
0.1035759164
0.09455766057
0.08659181712
0.07953385527
0.07326125311
0.06766926579
0.06266752459
0.05817525668
)
;

boundaryField
{
    front_top
    {
        type            wedge;
    }
    front_middle
    {
        type            wedge;
    }
    front_bottom
    {
        type            wedge;
    }
    back_top
    {
        type            wedge;
    }
    back_middle
    {
        type            wedge;
    }
    back_bottom
    {
        type            wedge;
    }
    axis_top
    {
        type            symmetryPlane;
    }
    axis_middle
    {
        type            symmetryPlane;
    }
    axis_bottom
    {
        type            symmetryPlane;
    }
    wall_top
    {
        type            calculated;
        value           nonuniform 0();
    }
    wall_middle
    {
        type            calculated;
        value           nonuniform 0();
    }
    wall_bottom
    {
        type            calculated;
        value           nonuniform List<scalar> 
23
(
0.05446130309
0.05461704966
0.05475692596
0.05488318862
0.05499781282
0.05510242425
0.05519841221
0.05528693672
0.05536897886
0.05544536524
0.05551679439
0.05558385326
0.05564703506
0.05570675443
0.05576335955
0.05581714084
0.05586833957
0.05591715546
0.05596375272
0.0560082644
0.05605079725
0.0560914355
0.05613024339
)
;
    }
    inlet
    {
        type            calculated;
        value           nonuniform 0();
    }
    outlet
    {
        type            calculated;
        value           nonuniform 0();
    }
    procBoundary1to0
    {
        type            processor;
        value           nonuniform List<scalar> 
51
(
15.3821369
15.2167446
14.94066251
14.49195386
13.92280044
13.24109854
12.46032215
11.59671897
10.66851084
9.69705474
8.706643806
7.723457936
6.773546377
5.880029947
5.06049439
4.32553935
3.678872348
3.678872348
3.107901267
2.629091277
2.22290577
1.880360679
1.592581422
1.351363115
1.149386076
0.9802807908
0.8386133536
0.7197833678
0.6199459317
0.5358944734
0.4649679084
0.4049663425
0.3540667271
0.3107642418
0.2738151634
0.2421890851
0.2150342059
0.19164499
0.1714341343
0.1539133741
0.1386757993
0.1253814534
0.1137455905
0.1035292792
0.09453130758
0.0865818657
0.0795371347
0.0732751818
0.06769173818
0.06269683478
0.05821004269
)
;
    }
    procBoundary1to2
    {
        type            processor;
        value           nonuniform List<scalar> 
51
(
19.21055503
18.94007128
18.44133063
17.60385493
16.46596754
15.07431326
13.53302976
11.96420814
10.46672855
9.098108573
7.880598972
6.814560841
5.889347186
5.090068085
4.401110242
3.80765509
3.296353465
2.855565252
2.475249149
2.146768746
1.862794467
1.617049697
1.404214447
1.219751346
1.059802129
0.9210638151
0.8007252522
0.6963646992
0.605906957
0.5275512495
0.459741619
0.4011159205
0.3504850974
0.3068016488
0.2666166214
0.2666166214
0.2346111852
0.2070717556
0.1833597505
0.1629227058
0.1452837881
0.130032473
0.1168177486
0.1053402146
0.09534497891
0.08661535549
0.07896764274
0.07224610046
0.06631829074
0.06107016689
0.05639924608
)
;
    }
}


// ************************************************************************* //
