/*--------------------------------*- C++ -*----------------------------------*\
  =========                 |
  \\      /  F ield         | OpenFOAM: The Open Source CFD Toolbox
   \\    /   O peration     | Website:  https://openfoam.org
    \\  /    A nd           | Version:  7
     \\/     M anipulation  |
\*---------------------------------------------------------------------------*/
FoamFile
{
    version     2.0;
    format      ascii;
    class       volScalarField;
    location    "0.0018";
    object      rho;
}
// * * * * * * * * * * * * * * * * * * * * * * * * * * * * * * * * * * * * * //

dimensions      [1 -3 0 0 0 0 0];

internalField   nonuniform List<scalar> 
1167
(
936.6789872
936.6057275
936.4486681
936.2165456
935.9144685
935.5468187
935.1177953
934.6312406
934.0909988
933.5008151
932.864193
932.1845662
931.4652464
930.7095146
929.920355
929.1008224
928.2538278
927.3823994
926.4890612
925.5765599
924.6476712
923.7047837
922.7506777
921.787712
920.8186662
919.8457957
918.8718632
917.8992235
916.9304311
915.9678145
915.0137697
914.0704615
913.1399754
912.2242615
936.5584837
936.4852154
936.3281409
936.0960037
935.794053
935.4264149
934.9975648
934.5112089
933.9712023
933.3812472
932.7449486
932.0657433
931.3469207
930.5916867
929.8030981
928.9842128
928.1380546
927.2674564
926.3750498
925.4637352
924.5360815
923.5947328
922.642301
921.6813762
920.7145644
919.7443724
918.7733662
917.8041023
916.8389508
915.8803968
914.9306384
913.9919559
913.0662277
912.1554953
911.2612628
910.3849608
909.5278495
908.690812
907.8746787
907.0799616
906.3069195
905.5557131
904.8263909
904.1187638
903.4325169
902.7672373
902.1224448
901.497585
900.8920628
900.3052216
936.4380054
936.3647302
936.207644
935.9756002
935.6736791
935.3061798
934.8773876
934.3912389
933.8514771
933.2618228
932.6258782
931.9470779
931.2287257
930.4740165
929.6860359
928.8678669
928.0225952
927.1528903
926.2615512
925.3514901
924.4252003
923.4855352
922.5349362
921.5762168
920.6118083
919.6444607
918.676537
917.7107845
916.7493846
915.7949703
914.8495453
913.9154885
912.9944877
912.0886706
911.199345
910.3280111
909.4757633
908.6435062
907.8320698
907.0418572
906.2731589
905.5261269
904.8008361
904.0970485
903.414488
902.752751
902.1113727
901.4898071
900.8874711
900.3037145
936.3175571
936.2442768
936.0871826
935.8552667
935.5533522
935.1860146
934.757271
934.2713385
933.7318314
933.1424896
932.506912
931.8285333
931.1106735
930.3565184
929.5691844
928.751877
927.9074515
927.0387161
926.1486048
925.2398344
924.3150914
923.3771827
922.4285879
921.4721974
920.5103747
919.5459783
918.581323
917.619133
916.6616437
915.7113457
914.7703456
913.8408314
912.9245675
912.0235471
911.1390366
910.2725594
909.4250527
908.5974605
907.7905734
907.0047359
906.2402569
905.4973084
904.7759118
904.0758618
903.3968932
902.7386106
902.1005633
901.4822131
900.8829878
900.302243
936.1971433
936.1238598
935.9668744
935.734979
935.4330778
935.0659091
934.6373522
934.1515154
933.6122738
933.0232567
932.3880606
931.7101215
930.9927777
930.2392074
929.4526474
928.6361616
927.7926427
926.9249759
926.0361552
925.1287781
924.2057435
923.269667
922.3232834
921.3692845
920.4102434
919.4488472
918.4876009
917.5290223
916.5755103
915.6293567
914.6927861
913.7677926
912.8562389
911.9599229
911.0801564
910.2184126
909.3755356
908.5525176
907.750034
906.9684582
906.2080902
905.4691239
904.7515259
904.0551262
903.3796683
902.7247648
902.0899779
901.4747759
900.878597
900.3008017
936.0767687
936.0035564
935.8466311
935.6147428
935.3129751
934.9458688
934.51751
934.0318493
933.4928131
932.904134
932.2693355
931.5918559
930.8750531
930.1221666
929.3363872
928.5207399
927.67819
926.811751
925.9242162
925.0183311
924.0971115
923.1629824
922.2189291
921.2674406
920.3112914
919.3529958
918.3952425
917.4403414
916.4908491
915.5488587
914.6167101
913.6962073
912.7893105
911.8976286
911.0225563
910.1654096
909.3270599
908.5085099
907.7103257
906.9329109
906.1765589
905.4414855
904.727604
904.0347788
903.3627619
902.7111726
902.0795851
901.4674736
900.8742857
900.2993866
935.9565617
935.8833585
935.7264377
935.4945629
935.1929596
934.8259
934.3977493
933.9123301
933.3735373
932.7851395
932.1507486
931.4737647
930.7575937
930.0054011
929.2203889
928.4056314
927.5641431
926.6989721
925.8128065
924.9086123
923.9891971
923.0571609
922.1155036
921.1666429
920.213469
919.2583727
918.3041652
917.3530119
916.4075462
915.4697382
914.5419824
913.6259339
912.7236378
911.8365196
910.966058
910.113418
909.2795011
908.4653231
907.6713449
906.8980018
906.1455815
905.4143225
904.7040857
904.0147691
903.3461323
902.6978006
902.0693596
901.4602884
900.8700434
900.2979941
935.8364107
935.7632105
935.6062989
935.3744868
935.0730123
934.7060629
934.278077
933.7929122
933.2544297
932.6663997
932.0324244
931.3559611
930.6403736
929.8888725
929.1046711
928.2908553
927.4505719
926.5866571
925.7019402
924.7995226
923.8820044
922.9522236
922.0129847
921.0669229
920.1167317
919.1649808
918.2142946
917.266989
916.3255015
915.3919362
914.4684859
913.5568901
912.6590982
911.7764747
910.9105445
910.062327
909.232757
908.4228629
907.6330067
906.8636554
906.1151181
905.3875779
904.6809224
903.9950561
903.3297458
902.6846222
902.0592811
901.453206
900.8658618
900.2966215
935.7163116
935.6431168
935.4862194
935.2545706
934.9531378
934.5863863
934.1585
933.6736033
933.135447
932.5478022
931.9142751
931.2383448
930.5233706
929.7725983
928.9892521
928.1764984
927.3374122
926.4748224
925.5917026
924.6910701
923.775534
922.8480934
921.9113567
920.9681731
920.0210356
919.0726864
918.1255633
917.1821292
916.2446272
915.3152924
914.3961195
913.4889571
912.5955875
911.7173972
910.8559179
910.0120448
909.1867874
908.381052
907.5952416
906.8298101
906.085093
905.3612055
904.6580746
903.9756069
903.3135756
902.6716159
902.0493333
901.4462152
900.8617341
900.2952666
935.5962687
935.5230818
935.3662558
935.1347239
934.8333416
934.4667986
934.039089
933.5544111
933.0165979
932.4293572
931.7963008
931.12093
930.4066011
929.6565961
928.8741656
928.0625616
927.2246814
926.3634832
925.4820744
924.5832617
923.6698488
922.7447635
921.8106112
920.8703655
919.926341
918.981439
918.0379108
917.098363
916.1648457
915.2397236
914.3247962
913.4220211
912.5330175
911.6592469
910.8020965
909.9624945
909.1414753
908.3398264
907.5579926
906.7964157
906.0554581
905.3351676
904.6355106
903.956395
903.2975998
902.6587644
902.0395032
901.4393067
900.857655
900.2939277
935.4762864
935.4031199
935.2464445
935.0149511
934.7136745
934.3473055
933.9198476
933.435354
932.8978908
932.3110751
931.6785136
931.0037308
930.2900814
929.5408843
928.7595177
927.9490093
927.1123952
926.2527058
925.3730246
924.4761041
923.5649249
922.6422309
921.7108198
920.77347
919.8326808
918.8911924
917.951334
917.0156284
916.0861144
915.1651572
914.2544408
913.356006
912.4713131
911.6018994
910.7490116
909.9136123
909.0967626
908.2991336
907.5212131
906.7634315
906.0261778
905.309434
904.6132047
903.9373989
903.2818009
902.6460537
902.02978
901.4324732
900.85362
900.2926032
935.3564326
935.2833521
935.1267043
934.8952566
934.594181
934.2279127
933.8007208
933.3165477
932.7793482
932.1929659
931.5609253
930.886761
930.1738394
929.4255947
928.6452205
927.8358589
927.0005688
926.1425082
925.2645628
924.3696093
923.4607235
922.5404847
921.6118701
920.6774646
919.7399678
918.8019052
917.8657613
916.9338705
916.0083988
915.0915302
914.1850283
913.2908471
912.4104108
911.5452937
910.6966059
909.8653454
909.052601
908.2589309
907.4848657
906.730851
905.9972227
905.2839796
904.5911359
903.9186013
903.266165
902.6334729
902.0201556
901.4257088
900.8496258
900.2912921
935.2367209
935.1636547
935.0070393
934.7756451
934.4747806
934.108626
933.6817154
933.1978814
932.6610813
932.0751063
931.443595
930.770099
930.0579842
929.3106289
928.53129
927.7231273
926.8892765
926.0328429
925.1566965
924.2638709
923.3572413
922.4395308
921.5137472
920.582328
919.6481554
918.7135405
917.7811198
916.8530407
915.9315949
915.0187878
914.1164901
913.2264888
912.3502566
911.4893785
910.6448311
909.8176852
909.0089508
908.2191825
907.4489186
906.6986256
905.96857
905.258785
904.5692879
903.8999886
903.2506808
902.621013
902.0106231
901.4190088
900.8456696
900.2899935
935.117081
935.0440314
934.8874538
934.6562302
934.3554784
933.9895673
933.5628382
933.0793623
932.5429827
931.9574967
931.3265664
930.6537406
929.9424204
929.1959973
928.4177408
927.6108291
926.7785208
925.9237198
925.0494318
924.1587918
923.2544734
922.3394237
921.4164393
920.4880979
919.5572161
918.6260776
917.6973706
916.773096
915.8556569
914.9468827
914.0487509
913.162885
912.2908568
911.4341086
910.5936462
909.7705687
908.9657787
908.1798591
907.4133461
906.6667274
905.9402012
905.2338345
904.5476474
903.8815499
903.2353397
902.6086672
902.0011774
901.4123697
900.8417493
900.2887067
934.9975165
934.9244862
934.7679519
934.5369294
934.2362796
933.8706349
933.4440969
932.9609973
932.425061
931.8400898
931.2097699
930.5376477
929.8271611
929.0817132
928.3045863
927.4990719
926.668263
925.8151499
924.9428494
924.0543718
923.152417
922.2400754
921.3199317
920.3947367
919.4671265
918.539546
917.6144787
916.6940433
915.7805431
914.8757726
913.9817685
913.099994
912.2321221
911.3794484
910.5430176
909.7239548
908.9230571
908.1409365
907.3781274
906.6351388
905.9121014
905.2091156
904.5262041
903.8632767
903.2201346
902.59643
901.9918143
901.4057884
900.8378631
900.2874311
934.8780313
934.8050229
934.6486553
934.4177252
934.1171892
933.7518256
933.3256246
932.8427936
932.3073241
931.7228949
931.0932159
930.4218323
929.7122182
928.9677889
928.1918904
927.3877864
926.5585132
925.7071412
924.8369091
923.9506132
923.0511149
922.1414761
921.2242087
920.3021855
919.3778635
918.453846
917.5324149
916.615832
915.7062193
914.805466
913.9155052
913.0377793
912.1740159
911.3253669
910.492917
909.677818
908.8807636
908.102395
907.3432766
906.6038453
905.8842585
905.1846183
904.5049498
903.8451623
903.2050602
902.5842972
901.9825308
901.3992629
900.8340098
900.2861663
934.7586292
934.6857223
934.5294644
934.2986223
933.9983193
933.6331451
933.2072999
932.7248318
932.1897795
931.6059206
930.9769146
930.3063054
929.597604
928.8542721
928.0796766
927.2769666
926.4492797
925.5997634
924.7315843
923.8475173
922.9505743
922.0436147
921.1293017
920.2104274
919.2894056
918.3689532
917.4511515
916.5384045
915.6326552
914.7359064
913.8499298
912.9762106
912.1165097
911.2718379
910.4433527
909.6321371
908.8388795
908.0642185
907.3087511
906.5728355
905.8566629
905.1603346
904.4838779
903.8272014
903.1901124
902.5722655
901.9733243
901.3927914
900.8301885
900.2849119
934.639442
934.5665661
934.4103699
934.1796254
933.8795863
933.5145995
933.0891294
932.6071011
932.0725046
931.4891759
930.8608757
930.1910777
929.4833861
928.7412189
927.9678884
927.1666211
926.3405695
925.493004
924.6268771
923.7450822
922.8507317
921.9464829
921.0351909
920.1194461
919.2018035
918.2848449
917.370667
916.4617344
915.5598231
914.667046
913.7850161
912.9153207
912.0595793
911.2188391
910.3942881
909.5868945
908.7973896
908.0263939
907.2745373
906.5421
905.829307
905.1362583
904.4629835
903.80939
903.1752878
902.5603325
901.964193
901.3863727
900.8263982
900.2836678
934.5203493
934.4475042
934.2913764
934.0607808
933.7609772
933.3962485
932.9711191
932.4895531
931.9554923
931.3727946
930.7451983
930.0762735
929.36958
928.6285565
927.8565354
927.0567576
926.2324606
925.3868194
924.5227885
923.6433929
922.7515822
921.8500737
920.941825
920.0292254
919.1149835
918.2015005
917.2910103
916.3857979
915.487699
914.598861
913.7207413
912.8550324
912.0032043
911.1663519
910.3456905
909.5420756
908.756281
907.9889156
907.2406262
906.5116316
905.8021847
905.1123845
904.4422626
903.791725
903.1605842
902.5484963
901.9551355
901.3800058
900.8226385
900.2824338
934.4013521
934.328541
934.1724883
933.9421354
933.6424975
933.2781192
932.8532752
932.372195
931.8386968
931.2566616
930.6298249
929.9617913
929.2561311
928.5162938
927.7456262
926.9473855
926.1249206
925.2812125
924.4193192
923.5423694
922.6531239
921.7544449
920.84919
919.9397492
919.028912
918.1189007
917.2120855
916.3105739
915.416326
914.5313305
913.6570851
912.7953231
911.9473673
911.1143605
910.2975459
909.497668
908.7155436
907.9518021
907.2070108
906.4814244
905.7752913
905.0887096
904.4217123
903.7742042
903.1459997
902.5367555
901.9461508
901.37369
900.818909
900.2812096
934.2824547
934.2096808
934.0537591
933.8236107
933.5241525
933.1601424
932.7356656
932.2550329
931.7221249
931.1407827
930.5147395
929.8476345
929.1430478
928.4044393
927.6351699
926.8386142
926.0179167
925.1761851
924.3165289
923.4420006
922.5553513
921.659555
920.7572748
919.8510571
918.9435729
918.0370278
917.1338739
916.2360433
915.345625
914.4644362
913.5940346
912.7361769
911.8920542
911.0628867
910.2498416
909.4536613
908.6751683
907.9150136
907.1736851
906.4514738
905.7486234
905.0652307
904.4013304
903.7568258
903.1315331
902.5251092
901.9372382
901.3674248
900.8152093
900.2799952
934.1636615
934.0909378
933.9352208
933.7052116
933.4059911
933.042324
932.6183019
932.1380743
931.6057835
931.0251656
930.3999502
929.7338111
929.030338
928.2930002
927.5252417
926.7303426
925.9114534
925.0717386
924.2143986
923.3422828
922.4582568
921.5653626
920.6660705
919.763112
918.8589515
917.9559129
917.0563588
916.162189
915.275574
914.3981615
913.5316237
912.6775796
911.8372517
911.0118979
910.2025679
909.4100468
908.6351482
907.8785441
907.1406445
906.421776
905.7221779
905.0419457
904.3811154
903.7395886
903.1171834
902.5135567
901.9283973
901.3612099
900.8115394
900.2787906
934.045035
933.9724221
933.8168021
933.5869435
933.2880615
932.9246693
932.501123
932.0214461
931.4896796
930.9098174
930.2854645
929.6203288
928.9180088
928.1820449
927.4158161
926.6225752
925.8055348
924.9679239
924.1128826
923.243209
922.3619226
921.4718616
920.5755683
919.6758732
918.7750349
917.8755227
916.9795251
916.0890184
915.206158
914.3324921
913.4697844
912.6195184
911.7829484
910.9613699
910.1557171
909.3668183
908.595494
907.8423887
907.1078852
906.3923282
905.6959527
905.0188529
904.361066
903.7224918
903.1029501
902.5020976
901.9196277
901.3550452
900.8078991
900.2775958
924.8647429
924.0119783
923.1447759
922.2662549
921.3790443
920.4858187
919.5893285
918.6918101
917.795815
916.9033588
916.0165431
915.1373633
914.2674149
913.4085047
912.5619824
911.7291345
910.9112943
910.1092824
909.3239703
908.5562043
907.8065433
907.0754039
906.363128
905.6699462
904.9959512
904.3411814
903.7055348
903.0888328
902.4907316
901.9109293
901.3489305
900.8042883
900.2764106
)
;

boundaryField
{
    front_top
    {
        type            wedge;
    }
    front_middle
    {
        type            wedge;
    }
    front_bottom
    {
        type            wedge;
    }
    back_top
    {
        type            wedge;
    }
    back_middle
    {
        type            wedge;
    }
    back_bottom
    {
        type            wedge;
    }
    axis_top
    {
        type            symmetryPlane;
    }
    axis_middle
    {
        type            symmetryPlane;
    }
    axis_bottom
    {
        type            symmetryPlane;
    }
    wall_top
    {
        type            calculated;
        value           nonuniform 0();
    }
    wall_middle
    {
        type            calculated;
        value           nonuniform 0();
    }
    wall_bottom
    {
        type            calculated;
        value           uniform 900.0184441;
    }
    inlet
    {
        type            calculated;
        value           nonuniform 0();
    }
    outlet
    {
        type            calculated;
        value           nonuniform 0();
    }
    procBoundary1to0
    {
        type            processor;
        value           nonuniform List<scalar> 
51
(
933.9265886
933.8540233
933.698508
933.4688112
933.1702826
932.8071842
932.3841352
931.905035
931.3739442
930.7947858
930.1713053
929.5072267
928.806153
928.0715685
927.3068576
926.5153155
925.7001634
925.7001634
924.7621429
923.9116859
923.0470306
922.1712451
921.2869018
920.396784
919.503468
918.609295
917.7167765
916.827847
915.9447016
915.0691775
914.2029407
913.3477739
912.5049618
911.6758469
910.8616638
910.0632577
909.2814974
908.5172551
907.7710055
907.0431987
906.3341739
905.6441571
904.9732397
904.3214611
903.6887174
903.0748313
902.4794587
901.9023021
901.3428657
900.800707
900.2752351
)
;
    }
    procBoundary1to2
    {
        type            processor;
        value           nonuniform List<scalar> 
51
(
936.7995903
936.7262613
936.5692202
936.3371169
936.0349185
935.667263
935.2380727
934.7513265
934.2109749
933.6205274
932.9835753
932.3035684
931.5837991
930.827489
930.0377945
929.2176608
928.3699973
927.4977059
926.60353
925.6899852
924.7599671
923.8157715
922.8600909
921.8953448
920.9241747
919.9488592
918.9721493
917.996301
917.0240104
916.0574379
915.0991764
914.1512675
913.2160079
912.2952535
911.3250287
911.3250287
910.44364
909.5815318
908.7395698
907.9185896
907.1192201
906.3416905
905.5861729
904.8526902
904.1411038
903.4510591
902.7821327
902.133828
901.5055808
900.8967829
900.3067709
)
;
    }
}


// ************************************************************************* //
