/*--------------------------------*- C++ -*----------------------------------*\
  =========                 |
  \\      /  F ield         | OpenFOAM: The Open Source CFD Toolbox
   \\    /   O peration     | Website:  https://openfoam.org
    \\  /    A nd           | Version:  7
     \\/     M anipulation  |
\*---------------------------------------------------------------------------*/
FoamFile
{
    version     2.0;
    format      ascii;
    class       volScalarField;
    location    "0.0018";
    object      T;
}
// * * * * * * * * * * * * * * * * * * * * * * * * * * * * * * * * * * * * * //

dimensions      [0 0 0 1 0 0 0];

internalField   nonuniform List<scalar> 
1167
(
455.2237971
455.3350307
455.5735598
455.9262352
456.3854584
456.9447664
457.5979983
458.3395534
459.1638377
460.0654124
461.0392059
462.0802487
463.1837472
464.3449424
465.5595144
466.8230166
468.1312023
469.47962
470.8645732
472.2819953
473.7277459
475.1982587
476.6893264
478.19737
479.7181193
481.248094
482.782984
484.3190872
485.8523537
487.3790587
488.8953382
490.3976659
491.8826138
493.3469446
455.4067723
455.5180476
455.7566611
456.1094497
456.5685988
457.1280329
457.7811691
458.5226117
459.3467487
460.2482051
461.221753
462.2624157
463.3654323
464.5261571
465.740157
467.0029788
468.3101998
469.657668
471.0415187
472.4574444
473.9016231
475.370088
476.8588916
478.3640895
479.8816794
481.4077825
482.9383936
484.469488
485.9973032
487.5178616
489.02761
490.5228349
492.000436
493.4570282
494.8900639
496.2970967
497.6759387
499.0249982
500.3427617
501.6282242
502.8807903
504.1000246
505.2856769
506.4378881
507.5570104
508.6435638
509.6981864
510.7216463
511.7147879
512.6785645
455.5897564
455.7010707
455.9397634
456.2925009
456.7517232
457.3110899
457.9643058
458.7056229
459.5295977
460.4308253
461.4040804
462.4443877
463.5469628
464.7071748
465.9205451
467.1825793
468.4887566
469.8351761
471.2177116
472.6320344
474.0744377
475.5406255
477.0269128
478.5290022
480.0431616
481.5651256
483.0912042
484.6170679
486.1392478
487.6535285
489.1566619
490.644775
492.1150689
493.5640197
494.9893933
496.3886315
497.7598139
499.1013156
500.4116247
501.689915
502.9355415
504.1480854
505.3272558
506.4732751
507.5864346
508.667241
509.7163091
510.7343948
511.722324
512.6810413
455.772742
455.8840927
456.122859
456.4754928
456.9348231
457.4940875
458.1473972
458.888575
459.7123722
460.6133528
461.5862947
462.6262209
463.7283201
464.8879736
466.1006538
467.3616748
468.6668696
470.0121206
471.3930902
472.8057497
474.2460898
475.709883
477.1933818
478.6921642
480.2026007
481.7202512
483.2414973
484.7620417
486.2783266
487.7863584
489.2827227
490.7638478
492.2268113
493.6683027
495.0861539
496.4777698
497.8414832
499.1756076
500.4786963
501.7500193
502.9889042
504.1949022
505.3678111
506.5078022
507.6151515
508.6903537
509.7340021
510.7468419
511.7296822
512.6834596
455.9557221
456.0671064
456.3057688
456.6584619
457.1178901
457.6770411
458.330234
459.071456
459.8950588
460.7957735
461.7683796
462.8078963
463.9094828
465.0685302
466.2803228
467.5403912
468.8445084
470.1884359
471.5677398
472.9785741
474.416596
475.8778727
477.3582547
478.8536269
480.3600273
481.873281
483.3894659
484.9046066
486.414883
487.9166137
489.4061941
490.8803585
492.3360266
493.770199
495.1806352
496.5648209
497.9212393
499.2481277
500.5442267
501.8087623
503.0410781
504.2406918
505.4074924
506.541596
507.6432657
508.7129854
509.751329
510.7590323
511.7368888
512.6858281
456.1386898
456.2499946
456.4886268
456.8413998
457.3007429
457.8599423
458.5130009
459.2541442
460.0776441
460.9780721
461.9503174
462.9893938
464.0904284
465.2487161
466.4596099
467.7186982
469.0216401
470.3639953
471.7416386
473.1504915
474.5860257
476.0446025
477.5216771
479.013448
480.5156334
482.0243263
483.5353109
485.0449366
486.5491307
488.044523
489.5273239
490.9945686
492.4430198
493.8699794
495.2730743
496.650043
497.9993263
499.3191455
500.6084195
501.866327
503.0922252
504.2855972
505.4464209
506.5747584
507.6708611
508.7352035
509.7683411
510.7710018
511.743965
512.6881538
456.3214497
456.4327693
456.6714559
457.0242991
457.4835097
458.0427816
458.6956903
459.4366548
460.2599936
461.1602211
462.1320896
463.1706695
464.2710119
465.4285235
466.6385378
467.8965656
469.1981872
470.5389058
471.9147567
473.321316
474.7543758
476.2100213
477.6836815
479.1716621
480.6694961
482.1734667
483.6791617
485.1831548
486.6812486
488.1702655
489.6463268
491.106703
492.5480207
493.9678743
495.3637567
496.7336488
498.0759445
499.3888454
500.6714417
501.9228629
503.142477
504.3297327
505.4846945
506.607372
507.6980058
508.757062
509.7850797
510.7827796
511.7509279
512.6904422
456.5041715
456.615515
456.8542489
457.2070873
457.6662197
458.2254669
458.8782916
459.6190575
460.4421323
461.3420265
462.3135053
463.3515495
464.451273
465.608011
466.8170777
468.0739633
469.374041
470.7131392
472.0870719
473.4912014
474.921639
476.3740957
477.8443016
479.3282186
480.8216843
482.3206968
483.8211347
485.3193307
486.8113944
488.2939337
489.763388
491.2168923
492.6512248
494.0640774
495.4528693
496.8158154
498.151258
499.4573791
500.7334302
501.9784917
503.1918985
504.3731909
505.5223924
506.6395034
507.7247545
508.7786048
509.8015779
510.7943888
511.7577913
512.692698
456.6868611
456.7982249
457.0369986
457.3896789
457.8488654
458.4079545
459.0607944
459.8013402
460.6241263
461.5236602
462.4946986
463.5321875
464.6312454
465.7871515
466.9952008
468.2507567
469.5493004
470.8866695
472.2584509
473.660134
475.0878133
476.5369449
478.0035611
479.4832854
480.9722659
482.4662261
483.961335
485.4536903
486.9397066
488.4157814
489.8786674
491.3253249
492.7527977
494.158743
495.5405687
496.8966905
498.2253311
499.5248711
500.7944972
502.0333129
503.2406121
504.416047
505.5595786
506.6712061
507.7511512
508.799867
509.8178626
510.8058482
511.7645663
512.6949246
456.8695121
456.9808926
457.2196189
457.5722115
458.0314388
458.5903531
459.2430904
459.9834912
460.8059626
461.7051064
462.6756696
463.7125617
464.8109039
465.9659177
467.172855
468.4269441
469.7239381
471.0594725
472.4289229
473.8281026
475.2528002
476.6985787
478.1614724
479.6369053
481.1213025
482.6101331
484.0998573
485.5863429
487.0663071
488.5359402
489.9923032
491.4321821
492.8528801
494.2519348
495.6269857
496.9763971
498.2983521
499.5914242
500.8547345
502.0874077
503.2886959
504.4583618
505.5963049
506.7025235
507.7772315
508.8208767
509.8339551
510.8171729
511.7712616
512.6971251
457.0521179
457.1634957
457.402054
457.7546783
458.2138621
458.772654
459.425174
460.1654821
460.9876277
461.8863491
462.8563993
463.8926499
464.9902231
466.1442807
467.3498757
468.6025797
469.8979294
471.2314449
472.5985356
473.9950962
475.4166359
476.8590014
478.3179222
479.7891251
481.2687412
482.75249
484.2367058
485.7173856
487.1912626
488.6545245
490.1044141
491.5375842
492.9515913
494.3438516
495.7122303
497.0550373
498.3704144
499.6571232
500.9142175
502.1408422
503.3362073
504.5001846
505.6326128
506.7334904
507.8030237
508.8416566
509.8498727
510.8283748
511.7778845
512.6993017
457.2345747
457.3458502
457.5844275
457.9370725
458.3960674
458.9548485
459.607129
460.347136
461.1690873
462.0673728
463.0368693
464.072431
465.1691595
466.3220373
467.5263985
468.7776366
470.0712502
471.402558
472.7672735
474.1610952
475.5793804
477.0182288
478.4730858
479.939978
481.4147184
482.893361
484.3719924
485.8469047
487.3146274
488.7716338
490.2150395
491.6416345
493.0490325
494.4345907
495.7963941
497.1326961
498.4415953
499.7220367
500.9730066
502.1936262
503.3831941
504.5415558
505.6685365
506.7641348
507.8285509
508.8622249
509.8656291
510.8394636
511.7844405
512.7014564
457.416862
457.5281441
457.766733
458.1193869
458.5781773
459.1369277
459.7889448
460.5286218
461.3501707
462.2480597
463.2169888
464.2517839
465.3475452
466.4993383
467.7023983
468.952088
470.2437845
471.5728848
472.935124
474.3259529
475.7410379
477.1762508
478.626986
480.0894967
481.5593065
483.0328036
484.5058315
485.9749761
487.4365654
488.8873546
490.324288
491.7444208
493.1452897
494.5242343
495.879554
497.2093868
498.5119588
499.7862223
501.0311527
502.245839
503.4296931
504.5825072
505.7041027
506.7944792
507.8538312
508.882596
509.8812353
510.850447
511.7909342
512.7035905
457.5990865
457.7103718
457.9489643
458.3014481
458.7601838
459.3187052
459.9706113
460.7099288
461.5310422
462.4284089
463.3966903
464.430715
465.5255262
466.6761677
467.8778519
469.125911
470.4155281
471.7424098
473.1020773
474.4898202
475.9016154
477.3329818
478.7796401
480.2376213
481.7025483
483.1708493
484.6382841
486.1016672
487.5571488
489.0017615
490.432279
491.8460163
493.2403519
494.6128538
495.9617756
497.2852105
498.5815584
499.8497271
501.0886973
502.297525
503.4757342
504.623064
505.7393326
506.8245412
507.8788789
508.9027813
509.8966998
510.8613308
511.7973691
512.7057054
457.7812428
457.8925273
458.1311146
458.4833819
458.9420791
459.5003361
460.1521162
460.8910459
461.7116887
462.6084926
463.5760805
464.6092822
465.7030826
466.8525045
468.0527384
469.2989381
470.5865404
471.9111149
473.2680069
474.6526964
476.0611164
477.4885582
478.9310707
480.3844101
481.8444795
483.3074512
484.7694046
486.2269666
487.6764431
489.1149212
490.5390792
491.9464873
493.3343621
494.7005066
496.0431129
497.3602332
498.6504379
499.9125901
501.1456741
502.3487131
503.5213417
504.6632466
505.7742432
506.8543345
507.9037052
508.9227894
509.9120292
510.8721199
511.803748
512.7078018
457.9633248
458.0746043
458.3129985
458.6652148
459.1238554
459.6818253
460.3332558
461.0719622
461.8920975
462.7882965
463.7551431
464.7874671
465.8801952
467.0283294
468.2269585
469.4712767
470.7568052
472.0789873
473.4329749
474.8145775
476.2194736
477.642995
479.0813015
480.5299546
481.985136
483.4427655
484.8992386
486.3509535
487.794502
489.2268195
490.6447483
492.0458914
493.4273781
494.7872415
496.1236107
497.4344955
498.7186338
499.9748429
501.2020602
502.3994264
503.566535
504.7030712
505.8088478
506.8838701
507.928319
508.9426275
509.9272288
510.8828177
511.810073
512.7098804
458.1453266
458.2564798
458.4947676
458.8469395
459.3053411
459.8631637
460.5142157
461.2525539
462.0722573
462.9678068
463.9338621
464.9652523
466.0568451
467.2035682
468.4004754
469.6429349
470.9263091
472.2459179
473.5970217
474.9754607
476.3766747
477.7963087
479.2302823
480.6742807
482.1245507
483.5768303
485.0278291
486.4737188
487.911373
489.3375459
490.7493355
492.1442767
493.5194453
494.8731006
496.2032556
497.5080314
498.7861757
500.0365114
501.2579242
502.4496835
503.6113297
504.7425506
505.8431569
506.9131565
507.9527269
508.9623006
509.9423025
510.8934271
511.8163456
512.7119419
458.3270474
458.4381816
458.676436
459.0285487
459.4866642
460.0443421
460.6949857
461.4328374
462.2520488
463.14701
464.1122224
465.142621
466.2329275
467.3781339
468.5733758
469.8138993
471.0950407
472.4119255
473.7601438
475.1353484
476.5328184
477.9485115
479.3780438
480.8174135
482.2626431
483.7096806
485.1552097
486.5953037
488.0270995
489.4471757
490.852882
492.2415903
493.6106021
494.9581191
496.282106
497.580869
498.8530883
500.0976165
501.313288
502.4994993
503.655738
504.7816949
505.8771788
506.9422004
507.9769343
508.981813
509.9572535
510.9039501
511.8225673
512.7139865
458.5086703
458.6197858
458.8579967
459.2099717
459.6678439
460.2252691
460.8755563
461.6128864
462.4314829
463.3257
464.2900714
465.3193815
466.4084181
467.5521383
468.7456445
469.9841574
471.2628783
472.5770774
473.9223388
475.2941069
476.6879115
478.0996136
479.5246654
480.9593777
482.3995286
483.8413483
485.281302
486.7157452
488.1417194
489.5557466
490.9554241
492.3379553
493.7008808
495.0423267
496.3602143
497.6530318
498.9193917
500.1581672
501.368166
502.5488856
503.6997697
504.820512
505.9109195
506.9710066
508.000945
509.0011676
509.9720839
510.9143884
511.8287388
512.7160147
458.6901938
458.8012859
459.0394425
459.3911366
459.8488721
460.4059027
461.0559178
461.7926899
462.6106296
463.5040532
464.4674971
465.4956899
466.5834007
467.7255676
468.9172678
470.1536941
471.4298715
472.7413683
474.0836049
475.4518606
476.8419565
478.249524
479.6701687
481.1001978
482.5352594
483.9718634
485.4062574
486.8350764
488.2551632
489.6632913
491.0569933
492.4334073
493.790309
495.1257485
496.4376028
497.7245392
498.9851026
500.2181334
501.4225697
502.5978519
503.7434322
504.8590077
505.944384
506.9995789
508.024762
509.0203667
509.9867953
510.924743
511.8348608
512.7180266
458.8716113
458.9826748
459.2206921
459.5721633
460.0297402
460.586349
461.2359662
461.9722382
462.789478
463.6820605
464.6445236
465.6715403
466.7578618
467.8984079
469.088231
470.322339
471.5960707
472.904795
474.2438485
475.6086261
476.9949611
478.3983067
479.8145703
481.2398111
482.6698605
484.101253
485.5301048
486.9533268
488.3675564
489.7698386
491.15761
492.5279714
493.8789089
495.2083492
496.5142916
497.7954081
499.0502349
500.2775795
501.4765083
502.6464054
503.7867314
504.8971867
505.9775758
507.02792
508.0483873
509.0394118
510.001389
510.9350148
511.8409338
512.7200223
459.0529158
459.163931
459.4016962
459.7530438
460.2103734
460.7665984
461.4156833
462.1515198
462.9680174
463.85971
464.8211382
465.8469199
466.931789
468.0706478
469.2584173
470.4902486
471.7614684
473.0673545
474.4030986
475.7644087
477.1469366
478.5460261
479.9578836
481.3782749
482.8033542
484.2294674
485.6528701
487.0705232
488.4789334
489.8754143
491.2572199
492.6216701
493.9667014
495.2901807
496.5902961
497.8656519
499.1148001
500.3365147
501.5299895
502.6945522
503.8296719
504.9350525
506.0104973
507.0560319
508.0718223
509.0583039
510.0158656
510.9452042
511.8469581
512.722002
459.234012
459.3448861
459.5825635
459.9337703
460.3906981
460.9466427
461.5951627
462.3303396
463.1462367
464.03699
464.9973292
466.021817
467.1051709
468.2421811
469.4278656
470.6574152
471.9260576
473.2289669
474.5614257
475.9192185
477.2977539
478.6926911
480.1001216
481.5156529
482.9357605
484.3565587
485.7745769
487.1866534
488.5893178
489.9800409
491.3559307
492.7145233
494.0537047
495.3712818
496.6656285
497.9352809
499.1787807
500.3949471
501.5830194
502.7422969
503.8722572
504.9726076
506.0431506
507.0839159
508.095068
509.0770438
510.0302257
510.9553116
511.8529338
512.7239658
473.389629
474.7188331
476.0730599
477.4475587
478.8383131
480.2412046
481.6519636
483.0670988
484.4825931
485.8952465
487.3016982
488.6987306
490.0837386
491.4537615
492.8065483
494.1399343
495.4516656
496.7402993
498.0043035
499.2421785
500.4528831
501.6356028
502.7896431
503.9144899
505.0098538
506.0755369
507.1115728
508.1181251
509.0956319
510.0444695
510.9653371
511.8588612
512.7259136
)
;

boundaryField
{
    front_top
    {
        type            wedge;
    }
    front_middle
    {
        type            wedge;
    }
    front_bottom
    {
        type            wedge;
    }
    back_top
    {
        type            wedge;
    }
    back_middle
    {
        type            wedge;
    }
    back_bottom
    {
        type            wedge;
    }
    axis_top
    {
        type            symmetryPlane;
    }
    axis_middle
    {
        type            symmetryPlane;
    }
    axis_bottom
    {
        type            symmetryPlane;
    }
    wall_top
    {
        type            convectiveRadiativeHeatFlux;
        mode            convectiveRadiative;
        kappaMethod     fluidThermo;
        kappa           none;
        alphaAni        Anialpha;
        h               nonuniform 0();
        Ta              constant 513.15;
        emissivityNozzle 0.95;
        emissivityFilament 0.95;
        dNozzle         2;
        dFilament       1.65;
        refValue        nonuniform 0();
        refGradient     nonuniform 0();
        valueFraction   nonuniform 0();
        value           nonuniform 0();
    }
    wall_middle
    {
        type            fixedValue;
        value           nonuniform 0();
    }
    wall_bottom
    {
        type            fixedValue;
        value           uniform 513.15;
    }
    inlet
    {
        type            fixedValue;
        value           nonuniform 0();
    }
    outlet
    {
        type            zeroGradient;
    }
    procBoundary1to0
    {
        type            processor;
        value           nonuniform List<scalar> 
51
(
459.4148791
459.5257087
459.7632865
460.1143347
460.5708376
461.1264731
461.7743943
462.5088713
463.3239346
464.2138274
465.1730609
466.1961704
467.2778638
468.4130146
469.5966303
470.8238328
472.0898339
472.0898339
473.5494219
474.8753202
476.225859
477.5963641
478.9829053
480.3811907
481.7872221
483.1973409
484.6075908
486.014899
487.4157551
488.8071912
490.1864902
491.5507291
492.8977604
494.2253303
495.5313435
496.8143185
498.0727283
499.3050323
500.5103264
501.687743
502.8365934
503.9563717
505.0467924
506.1076569
507.1390031
508.1409936
509.1140682
510.058597
510.9752808
511.8647401
512.7278455
)
;
    }
    procBoundary1to2
    {
        type            processor;
        value           nonuniform List<scalar> 
51
(
455.0407178
455.1520278
455.3904678
455.7430234
456.2023126
456.7614853
457.4148032
458.1564594
458.9806995
459.8824457
460.8564945
461.897853
463.0017598
464.1635484
465.3786363
466.6427465
467.9516369
469.3010533
470.6869617
472.1056556
473.552811
475.0250079
476.51818
478.0286563
479.5523868
481.085859
482.6247856
484.1656251
485.7041084
487.236781
488.7594711
490.2688515
491.7611612
493.2333151
494.787784
494.787784
496.2027939
497.5895033
498.9463468
500.271801
501.5646702
502.8244047
504.0505479
505.2428891
506.4014848
507.5267497
508.6192187
509.679555
510.708541
511.7070411
512.6760185
)
;
    }
}


// ************************************************************************* //
