/*--------------------------------*- C++ -*----------------------------------*\
  =========                 |
  \\      /  F ield         | OpenFOAM: The Open Source CFD Toolbox
   \\    /   O peration     | Website:  https://openfoam.org
    \\  /    A nd           | Version:  7
     \\/     M anipulation  |
\*---------------------------------------------------------------------------*/
FoamFile
{
    version     2.0;
    format      ascii;
    class       volScalarField;
    location    "0.0015";
    object      generalizedNewtonian:nu;
}
// * * * * * * * * * * * * * * * * * * * * * * * * * * * * * * * * * * * * * //

dimensions      [0 2 -1 0 0 0 0];

internalField   nonuniform List<scalar> 
1167
(
18.05373164
17.83240781
17.44845794
16.78712441
15.88162074
14.73988547
13.41805183
12.00692357
10.6011349
9.27279603
8.062663274
6.98580366
6.04123435
5.219768282
4.508774309
3.894928117
3.365558118
2.909253471
2.515864182
2.176573923
1.8838048
1.631028311
1.412681961
1.223994658
1.060903755
0.919917849
0.7980598867
0.6927643193
0.6018255619
0.5233350503
0.4556394962
0.3972987079
0.3470565707
0.3038150164
17.15438606
16.96290314
16.64910717
16.09799669
15.34744652
14.38938131
13.24928033
11.98733111
10.68202969
9.407362527
8.216190955
7.136835941
6.178458717
5.338348594
4.60763775
3.975025004
3.428849795
2.958009388
2.552365377
2.202985456
1.902056783
1.642821274
1.419466376
1.227002355
1.06115179
0.9182447199
0.7951340099
0.6891147369
0.5978535949
0.5193386368
0.4518253261
0.393802245
0.3439537484
0.3011385425
0.264361789
0.232761039
0.2055898078
0.1822028809
0.1620457067
0.144642184
0.129585152
0.1165279579
0.1051760123
0.09527904622
0.08662492102
0.07903399112
0.07235406558
0.06645574753
0.0612276403
0.05656978264
16.44710034
16.27470871
16.00562418
15.52568726
14.87863953
14.05192533
13.05408327
11.9222517
10.71610841
9.502942022
8.340331762
7.266434663
6.299895919
5.444936501
4.697079263
4.047547261
3.48595733
3.001671652
2.584684064
2.225989065
1.917577
1.652477344
1.42463331
1.228840484
1.060609827
0.9160954228
0.7919835647
0.6854338562
0.5939908883
0.5155456896
0.4482698102
0.390588062
0.3411330495
0.2987272454
0.2623486554
0.2311185429
0.2042800012
0.1811838393
0.1612751153
0.1440794014
0.1291932351
0.1162742616
0.105032399
0.09522157692
0.08663372248
0.07909276728
0.07244962326
0.06657753509
0.06136739753
0.0567214195
15.88724083
15.72751638
15.48791104
15.05522458
14.47818418
13.74417896
12.85400887
11.82957523
10.71401737
9.564108056
8.436331
7.374529344
6.405156094
5.53919335
4.776912631
4.11245773
3.536901393
3.040301218
2.612922728
2.245712466
1.930512263
1.660141072
1.428319869
1.229630322
1.059380422
0.9135489492
0.7886648067
0.6817537449
0.5902497403
0.5119499478
0.4449539956
0.3876275297
0.3385612925
0.2965460828
0.260539264
0.2296497352
0.2031132668
0.1802787958
0.1605920773
0.1435811936
0.1288465309
0.1160499424
0.1049053627
0.09517073884
0.08664160809
0.07914506817
0.07253476552
0.06668626228
0.06149245675
0.05685744538
15.44280389
15.29165212
15.07208973
14.67140902
14.14226259
13.47347577
12.66331805
11.72423827
10.68682646
9.597093284
8.506890415
7.461982896
6.49438036
5.621077553
4.847148866
4.169777605
3.581750825
3.074022044
2.637221498
2.26230648
1.941013697
1.665959337
1.430663587
1.229489865
1.057560416
0.9106769216
0.7852247065
0.6780995616
0.5866351558
0.5085423601
0.4418572142
0.3848939275
0.3362082787
0.2945646582
0.2589049997
0.2283288665
0.2020675529
0.1794696915
0.1599823214
0.1431367889
0.1285373107
0.115849769
0.1047918242
0.09512510585
0.08664840492
0.07919164441
0.07261089539
0.06678376477
0.06160491231
0.05698008499
15.08999488
14.94491813
14.73905149
14.36029687
13.86439087
13.24163827
12.49002055
11.61708864
10.64443568
9.608711527
8.555724786
7.530440575
6.568197499
5.690887811
4.9079452
4.219619805
3.620626709
3.102995527
2.657752916
2.275948175
1.949249129
1.670087237
1.431796209
1.228530195
1.055233908
0.9075406623
0.7817008451
0.6744894591
0.583148703
0.505312015
0.4389599505
0.3823626505
0.3340471237
0.2927565463
0.2574214581
0.2271342681
0.2011244631
0.178741419
0.1594341049
0.1427373866
0.1282592963
0.1156695642
0.1046893133
0.09508354983
0.08665401021
0.07923315174
0.07267920856
0.06687160394
0.06170655765
0.0570912703
14.81154807
14.67077198
14.47411496
14.11037755
13.63754222
13.04724388
12.33792591
11.51516103
10.59464154
9.605344682
8.587003429
7.582233159
6.627851109
5.749253389
4.9596117
4.262188687
3.653732845
3.127403585
2.674697389
2.286827295
1.955391413
1.672681048
1.431848333
1.226856138
1.052479334
0.9041944224
0.7781253251
0.6709374798
0.5797896073
0.5022477389
0.4362440092
0.3800117486
0.3320546561
0.2910991498
0.2560676535
0.2260477924
0.200268779
0.1780816627
0.1589378344
0.1423758229
0.1280074087
0.1155059802
0.1045958783
0.09504521452
0.08665840219
0.07927018399
0.072740735
0.06695110169
0.06179889386
0.05719260005
14.59454578
14.45673023
14.26600163
13.9124364
13.45531559
12.88767693
12.2085256
11.42285355
10.5429838
9.59226701
8.604808232
7.620070403
6.674876313
5.796948407
5.002567647
4.297778782
3.681333639
3.147479931
2.688267346
2.295125358
1.959606365
1.67388649
1.430939923
1.224564585
1.049366428
0.9006861576
0.7745243923
0.6674539784
0.5765549775
0.4993384817
0.4336923237
0.3778218153
0.3302105527
0.2895729887
0.2548259389
0.2250541533
0.199487771
0.1774801917
0.1584855824
0.1420462197
0.1277775775
0.1153563035
0.1045099444
0.0950094266
0.08666159501
0.07930326229
0.07279635556
0.06702338128
0.06188319611
0.05728543721
14.42901246
14.29307577
14.10579982
13.75883758
13.31204836
12.75982911
12.10175567
11.34285355
10.49372339
9.573851592
8.612718994
7.646390905
6.710750015
5.834835663
5.037347135
4.326789899
3.703718065
3.163468691
2.698697356
2.301047508
1.962069069
1.673845037
1.429185721
1.221739348
1.045956025
0.8970526129
0.770918221
0.6640436514
0.5734399588
0.4965714658
0.4312887606
0.3757748426
0.3284968518
0.2881612376
0.2536812472
0.2241404654
0.1987710108
0.1769285237
0.1580707945
0.14174372
0.127566329
0.115218311
0.1044302496
0.09497566608
0.08666363226
0.07933284598
0.07284682441
0.06708939457
0.06196053819
0.05737092289
14.30746651
14.17248132
13.98676146
13.64350733
13.20291237
12.66046954
12.01668585
11.2765253
10.44984458
9.553685949
8.613970047
7.663636368
6.73712701
5.863975874
5.064656628
4.349717153
3.721246838
3.175651943
2.706217609
2.304792027
1.962954253
1.672696482
1.426694808
1.21846068
1.042303035
0.893327523
0.7673235928
0.6607104832
0.5704394134
0.4939356336
0.4290188721
0.3738547797
0.3268979631
0.2868498348
0.2526208839
0.223295846
0.1981093206
0.1764195359
0.1576880371
0.1414643187
0.1273708438
0.1150901816
0.1043557642
0.09494351965
0.08666456859
0.07935933451
0.07289278525
0.06714994905
0.06203182879
0.05745002216
14.22385047
14.08916311
13.90353815
13.56161103
13.1239109
12.58683783
11.9519512
11.22423385
10.41317151
9.534398233
8.611294629
7.674124659
6.755693059
5.885535668
5.085347478
4.367124223
3.73431994
3.184359076
2.711086069
2.306562744
1.962420791
1.670567585
1.423569043
1.214800074
1.038457517
0.8895397472
0.7637551973
0.65745695
0.5675484005
0.491420872
0.4268699518
0.3720480563
0.3254005455
0.2856260939
0.2516340121
0.2225111684
0.1974952231
0.1759472997
0.1573327752
0.141204686
0.1271888028
0.1149704215
0.1042856524
0.09491266301
0.08666446748
0.07938307642
0.07293478818
0.06720572965
0.06209783583
0.05752354876
14.17315764
14.03840926
13.8515754
13.50904046
13.0716346
12.53639812
11.90586284
11.18560839
10.38468532
9.517864845
8.606839601
7.679801573
6.768044815
5.900789297
5.100271989
4.379590497
3.743361973
3.189919623
2.71356338
2.306571869
1.960633791
1.667584249
1.419895462
1.210820492
1.034458595
0.8857123556
0.7602223886
0.654283353
0.564761298
0.4890174458
0.4248308576
0.3703426769
0.3239929983
0.2844794263
0.2507113887
0.2217786629
0.1969223992
0.1755068351
0.1570012332
0.1409621481
0.1270182911
0.1148577929
0.1042192271
0.09488283737
0.08666339352
0.07940437334
0.07297330209
0.06725731701
0.06215920881
0.0575921904
14.15172425
14.01648713
13.82732018
13.4826329
13.04328089
12.50695459
11.87698092
11.15981038
10.3645093
9.505120208
8.602174841
7.682386038
6.775761998
5.910887864
5.110227405
4.387681714
3.748819399
3.192658626
2.713894849
2.305021546
1.95774787
1.663864734
1.415759365
1.206580314
1.030342851
0.8818657865
0.7567328162
0.6511893494
0.562071453
0.4867162788
0.4228910238
0.368727966
0.3226652004
0.2834007168
0.2498451654
0.2210919752
0.1963855636
0.175093975
0.1566902357
0.1407343183
0.1268577053
0.1147512802
0.1041559294
0.09485383748
0.08666140946
0.07942348493
0.07300872555
0.06730520227
0.06221649542
0.05765652558
14.1567371
14.02055727
13.82798976
13.47988929
13.03663296
12.49687685
11.86429875
11.14632088
10.35251937
9.496643441
8.598345375
7.683158288
6.779976076
5.916730237
5.115909496
4.391953943
3.751122672
3.192903536
2.712331922
2.302090813
1.953898768
1.659514023
1.411235274
1.202132866
1.026142671
0.8780180137
0.7532935394
0.648174623
0.5594738264
0.4845095079
0.4210409735
0.3671946792
0.3214089582
0.2823822801
0.2490286538
0.2204453924
0.1958802195
0.174705223
0.1563971328
0.1405192464
0.1267057102
0.1146500354
0.1040952953
0.09482549669
0.08665857316
0.07944063348
0.07304139658
0.06734980032
0.06227015719
0.0577170408
14.18608234
14.04850921
13.85157234
13.49880901
13.04996313
12.50452256
11.86677051
11.144809
10.34892252
9.492967107
8.596118846
7.68299786
6.781555623
5.919098715
5.1179858
4.392976083
3.75068702
3.190963082
2.709126236
2.297969015
1.949224878
1.654625709
1.406389421
1.197520818
1.021884358
0.8741844595
0.7499096658
0.6452388958
0.5569635933
0.4823901638
0.4192729004
0.3657349005
0.3202164252
0.2814174917
0.2482562127
0.2198341622
0.1954025729
0.1743376201
0.1561196897
0.1403153116
0.1265611918
0.1145533532
0.104036942
0.09479768097
0.08665493795
0.07945600926
0.07307160159
0.06739146123
0.06232058275
0.05777414525
14.23816351
14.09875969
13.89670816
13.53801167
13.08188443
12.5286407
11.88354318
11.15490527
10.3537821
9.494509331
8.596141707
7.682686795
6.781324935
5.918754196
5.117135356
4.391267426
3.747907724
3.187139376
2.704498972
2.292824972
1.943859091
1.649294601
1.401286388
1.192784416
1.017592113
0.8703751566
0.7465846709
0.642380156
0.5545359607
0.4803525018
0.4175799455
0.3643417487
0.3190811546
0.2805006557
0.2475229933
0.2192542797
0.1949494071
0.1739886815
0.155856151
0.1401211673
0.1264232133
0.1144606423
0.103980551
0.09477028115
0.08665055155
0.07946977422
0.07309958249
0.06743047974
0.0623680987
0.05782818254
14.31135576
14.16992574
13.96193354
13.59610555
13.13125517
12.56833995
11.91364317
11.17602434
10.36699104
9.501521482
8.59889891
7.682828802
6.779926806
5.916376552
5.113980364
4.387308065
3.743147421
3.181732099
2.698671125
2.286816887
1.937914624
1.643601104
1.395984635
1.187960995
1.013288337
0.8666017083
0.7433223386
0.6395966196
0.5521866975
0.4783905523
0.4159559436
0.3630092197
0.3179976301
0.2796269542
0.2468251153
0.2187024119
0.1945180436
0.1736563107
0.1556048329
0.1399356676
0.1262910022
0.1143714159
0.1039258596
0.09474320805
0.08664545537
0.079482065
0.07312554249
0.06746710286
0.06241297826
0.05787943958
14.404824
14.26109482
14.0462776
13.67218578
13.19717303
12.62280921
11.95626919
11.20742451
10.38820915
9.514050877
8.604716764
7.68393182
6.778016543
5.912634787
5.109044245
4.38151487
3.736749213
3.175007291
2.69184571
2.280098628
1.931497173
1.637617987
1.390531352
1.183080707
1.008993309
0.8628736651
0.7401259897
0.6368875323
0.5499123701
0.4764991304
0.4143955951
0.3617327921
0.3169612641
0.2787922782
0.2461589891
0.218175698
0.1941062195
0.1733387531
0.1553644042
0.139757855
0.126163904
0.1142852623
0.103872647
0.09471638699
0.08663968433
0.07949299607
0.07314965149
0.06750153674
0.06245544906
0.05792815494
14.51808394
14.37174307
14.14919406
13.76580853
13.27910814
12.69157373
12.01104859
11.24854559
10.41679765
9.531809362
8.613711479
7.686451251
6.776151717
5.907998843
5.102728539
4.374231924
3.729023772
3.167196343
2.6841933
2.272808422
1.924705973
1.631414798
1.384970739
1.178171071
1.004720166
0.8591976963
0.7369990963
0.634251785
0.5477098325
0.4746742088
0.4128944792
0.3605075838
0.3159680442
0.2779931616
0.2455215672
0.2176716997
0.1937120035
0.1730345369
0.155133749
0.1395869247
0.1260413703
0.1142018377
0.1038207289
0.09468975604
0.0866332678
0.07950266292
0.07317205082
0.06753395261
0.06249569988
0.05797452621
14.65083241
14.5014927
14.27027379
13.87654439
13.37667153
12.77425845
12.07772697
11.29922388
10.45259148
9.554576682
8.625801311
7.690436036
6.774483305
5.902703247
5.095312526
4.365754974
3.720227005
3.158505832
2.675873462
2.265053806
1.917620724
1.625053922
1.379343909
1.173258069
1.000483295
0.8555804169
0.7339412797
0.6316876339
0.5455771551
0.4729123204
0.4114487572
0.3593297798
0.3150145088
0.2772266046
0.2449103293
0.217188354
0.1933337757
0.1727425257
0.1549119409
0.1394221979
0.1259229387
0.1141208532
0.103769951
0.09466326322
0.08662622982
0.07951114439
0.07319285719
0.06756449165
0.06253388618
0.05801871592
14.80327855
14.65045632
14.40961903
14.00428987
13.48967319
12.87047513
12.15612737
11.35946479
10.49563955
9.582408504
8.641016625
7.695951976
6.773151127
5.896964954
5.087061704
4.356388246
3.710597122
3.149117394
2.667040519
2.256947977
1.910318198
1.618583324
1.3736831
1.168364825
0.996295742
0.8520284607
0.7309547192
0.6291942088
0.54351084
0.471210091
0.4100550861
0.3581961615
0.3140977861
0.2764903692
0.2443232146
0.2167239683
0.1929701738
0.1724615312
0.1546981841
0.1392631182
0.1258082301
0.1140420696
0.1037201844
0.09463686419
0.08661858907
0.07951850449
0.07321216577
0.06759326906
0.06257013454
0.05806085602
14.97559876
14.81888845
14.56746729
14.14914308
13.61810921
12.98016374
12.24605455
11.42917984
10.54590127
9.615283241
8.659407876
7.703139133
6.772350424
5.891019411
5.078276324
4.346370395
3.70033323
3.139195297
2.65781971
2.24858673
1.902870672
1.612050883
1.368018877
1.163508246
0.9921672327
0.8485479551
0.7280412924
0.6267709689
0.5415087133
0.4695648028
0.4087112194
0.3571041396
0.3132154437
0.2757821861
0.243758442
0.216277114
0.1926200676
0.1721906776
0.1544918221
0.1391092141
0.1256969237
0.1139652859
0.1036713208
0.09461052113
0.08661035972
0.07952479458
0.0732300533
0.06762037766
0.06260454687
0.05810105245
15.16785249
15.00700371
14.7438638
14.31108337
13.76196415
13.1032462
12.34707495
11.50805819
10.60331413
9.65324815
8.681017547
7.712028944
6.772187458
5.885110297
5.069208004
4.335907391
3.689601764
3.128894056
2.648322198
2.240048305
1.895342364
1.605500605
1.362380712
1.158705063
0.9881070658
0.845142519
0.7252019584
0.6244176786
0.5395693376
0.4679743744
0.4074142419
0.3560514295
0.3123654584
0.2751001709
0.2432144966
0.2158465811
0.1922825763
0.1719292333
0.1542923036
0.1389600923
0.1255887534
0.1138903355
0.1036232704
0.0945842019
0.08660155205
0.079530055
0.07324658048
0.06764589101
0.0626372038
0.05813938892
3.118345175
2.63865156
2.231409414
1.887777972
1.598964673
1.356794475
1.153971212
0.9841241802
0.8418152782
0.7224375415
0.6221341972
0.5376913708
0.4664369881
0.406162155
0.3550360804
0.3115460901
0.2744428427
0.2426901499
0.215431377
0.1919569292
0.1716765945
0.1540991768
0.1388154291
0.1254834992
0.1138170804
0.1035759587
0.0945578795
0.08659217308
0.07953431642
0.07326179388
0.06766986566
0.06266816724
0.05817592944
)
;

boundaryField
{
    front_top
    {
        type            wedge;
    }
    front_middle
    {
        type            wedge;
    }
    front_bottom
    {
        type            wedge;
    }
    back_top
    {
        type            wedge;
    }
    back_middle
    {
        type            wedge;
    }
    back_bottom
    {
        type            wedge;
    }
    axis_top
    {
        type            symmetryPlane;
    }
    axis_middle
    {
        type            symmetryPlane;
    }
    axis_bottom
    {
        type            symmetryPlane;
    }
    wall_top
    {
        type            calculated;
        value           nonuniform 0();
    }
    wall_middle
    {
        type            calculated;
        value           nonuniform 0();
    }
    wall_bottom
    {
        type            calculated;
        value           nonuniform List<scalar> 
23
(
0.05446180577
0.05461756328
0.05475745013
0.05488372301
0.05499835708
0.0551029781
0.05519897536
0.05528750891
0.05536955984
0.05544595478
0.05551739228
0.05558445929
0.05564764903
0.05570737615
0.05576398884
0.05581777751
0.05586898344
0.05591780636
0.05596441046
0.05600892881
0.05605146813
0.05609211268
0.05613092667
)
;
    }
    inlet
    {
        type            calculated;
        value           nonuniform 0();
    }
    outlet
    {
        type            calculated;
        value           nonuniform 0();
    }
    procBoundary1to0
    {
        type            processor;
        value           nonuniform List<scalar> 
51
(
15.38054868
15.21515701
14.93910902
14.49044356
13.92134886
13.23971891
12.45902614
11.59551688
10.66741135
9.696064124
8.705765263
7.722691119
6.772887333
5.879471559
5.060027237
4.325152746
3.678555314
3.678555314
3.107642489
2.628881948
2.222737286
1.880225611
1.592473489
1.351277091
1.149317659
0.980226477
0.8385703044
0.7197493008
0.6199190191
0.5358732541
0.464951219
0.4049532562
0.3540565076
0.3107563041
0.2738090419
0.2421844096
0.215030682
0.1916423832
0.1714322572
0.1539120773
0.1386749633
0.1253809825
0.1137454081
0.1035293238
0.09453152969
0.08658222558
0.07953760037
0.07327572755
0.0676923434
0.06269748305
0.05821072129
)
;
    }
    procBoundary1to2
    {
        type            processor;
        value           nonuniform List<scalar> 
51
(
19.20822974
18.93777828
18.43915324
17.601839
16.46415825
15.07273024
13.53166815
11.9630486
10.46574699
9.097281547
7.879905273
6.813981509
5.88886534
5.089668814
4.400780475
3.80738351
3.296130382
2.855382447
2.47509968
2.146646793
1.862695175
1.616969024
1.404149048
1.219698449
1.059759451
0.9210294729
0.800697699
0.6963426649
0.6058893994
0.5275373172
0.4597306154
0.4011072788
0.3504783553
0.3067964316
0.2666125881
0.2666125881
0.2346081384
0.2070694932
0.1833581107
0.1629215588
0.1452830299
0.1300320206
0.1168175359
0.1053401887
0.09534509781
0.08661558573
0.07896795774
0.07224647912
0.06631871636
0.06107062632
0.05639972922
)
;
    }
}


// ************************************************************************* //
