/*--------------------------------*- C++ -*----------------------------------*\
  =========                 |
  \\      /  F ield         | OpenFOAM: The Open Source CFD Toolbox
   \\    /   O peration     | Website:  https://openfoam.org
    \\  /    A nd           | Version:  7
     \\/     M anipulation  |
\*---------------------------------------------------------------------------*/
FoamFile
{
    version     2.0;
    format      ascii;
    class       volVectorField;
    location    "0.0015";
    object      grad(generalizedNewtonian:nu);
}
// * * * * * * * * * * * * * * * * * * * * * * * * * * * * * * * * * * * * * //

dimensions      [0 1 -1 0 0 0 0];

internalField   nonuniform List<vector> 
1167
(
(-28275.59753 0 102692.1843)
(-56020.53355 0 98743.75713)
(-94943.78715 0 89502.30335)
(-141881.8775 0 75192.11545)
(-187570.8336 0 55835.58651)
(-228913.7261 0 34167.44649)
(-257916.6075 0 14119.39056)
(-270286.8038 0 -1214.125539)
(-266948.6676 0 -10814.13526)
(-252342.1311 0 -15504.049)
(-231552.068 0 -16814.28413)
(-208497.0723 0 -16142.72163)
(-185586.8619 0 -14479.66886)
(-164085.1219 -2.218936483e-10 -12433.98902)
(-144539.9566 0 -10342.86376)
(-127087.2372 1.021184976e-10 -8382.074729)
(-111649.442 0 -6635.970664)
(-98069.75475 0 -5131.347055)
(-86165.71877 0 -3863.284853)
(-75739.7378 0 -2816.933146)
(-66610.1985 0 -1968.080414)
(-58611.77628 0 -1292.612459)
(-51596.50441 0 -765.866428)
(-45435.53369 0 -365.1952958)
(-40017.05917 0 -69.61694888)
(-35244.59821 0 139.237651)
(-31034.56204 0 278.1844577)
(-27316.86499 0 361.3964039)
(-24031.05965 0 401.7902239)
(-21126.03536 -9.841595743e-12 409.9340161)
(-18558.1553 0 395.2644644)
(-16290.23004 0 365.2516897)
(-14289.86861 0 326.2303415)
(-12528.90368 0 282.894451)
(-24463.22212 0 80331.56501)
(-46540.6444 0 77884.95517)
(-78652.14256 0 72141.68816)
(-117838.9978 0 63071.85723)
(-156620.5306 0 50149.06073)
(-195136.7889 0 34398.00691)
(-226921.7834 0 18198.42812)
(-246565.0454 0 4233.593316)
(-252085.6935 0 -5748.675753)
(-245250.8534 0 -11507.29959)
(-229964.0166 0 -13883.42443)
(-210223.8019 0 -14031.55013)
(-189021.7903 0 -12933.07844)
(-168205.3196 0 -11258.41093)
(-148744.4979 0 -9415.247703)
(-131043.6935 1.021184976e-10 -7630.957204)
(-115199.6619 0 -6019.960568)
(-101160.9771 0 -4620.909039)
(-88792.01563 0 -3440.994121)
(-77924.8868 0 -2470.757141)
(-68393.35693 0 -1688.609999)
(-60036.76752 0 -1072.451651)
(-52708.54763 0 -597.5674623)
(-46278.32456 0 -242.2913384)
(-40631.74665 0 14.6964063)
(-35669.03831 0 191.1213138)
(-31303.58857 0 303.8161)
(-27461.64355 0 366.5231542)
(-24079.54831 0 391.733678)
(-21102.66858 -9.841595743e-12 389.4680381)
(-18484.0963 0 368.4842987)
(-16183.17794 0 335.5322927)
(-14164.28352 0 296.1760608)
(-12396.0408 0 254.3885503)
(-10850.66585 0 213.1966337)
(-9502.622889 0 174.479776)
(-8329.046049 0 139.4746008)
(-7309.115974 0 108.7135686)
(-6423.939423 0 82.32217348)
(-5656.615134 0 60.18142125)
(-4991.834013 0 41.9392753)
(-4415.908986 0 27.16371063)
(-3916.862147 0 15.38948334)
(-3484.216801 0 6.176044111)
(-3108.787668 0 -0.9068374511)
(-2782.620944 -1.227877028e-12 -6.240476864)
(-2498.95472 0 -10.15720696)
(-2252.31578 0 -12.94093698)
(-2039.066614 0 -14.83856044)
(-1858.513455 0 -16.0845143)
(-22024.1824 0 63357.26148)
(-40493.61011 0 61769.33809)
(-68176.91317 0 58059.80689)
(-101976.0601 0 52138.60572)
(-135097.5243 0 43463.11667)
(-169768.9823 0 32260.11733)
(-201330.5231 0 19763.57333)
(-224713.9012 0 7887.794316)
(-236546.6156 0 -1599.383701)
(-236416.359 0 -7837.276428)
(-226601.131 0 -11007.00223)
(-210552.9789 0 -11884.67012)
(-191468.7248 0 -11334.86886)
(-171646.5203 -2.218936483e-10 -10042.2378)
(-152468.3409 0 -8463.744024)
(-134640.892 1.021184976e-10 -6871.636279)
(-118469.2063 0 -5402.579884)
(-104021.267 0 -4114.591511)
(-91220.09955 0 -3027.867519)
(-79936.1697 0 -2136.350494)
(-70021.29146 0 -1422.773962)
(-61323.11562 0 -865.9899392)
(-53697.97343 0 -442.6746334)
(-47014.2598 0 -131.398336)
(-41155.22202 0 88.56838635)
(-36017.71557 0 234.7885359)
(-31511.90285 0 323.460159)
(-27560.02478 0 368.0495981)
(-24094.81431 0 380.1927319)
(-21057.78434 -9.841595743e-12 369.4344532)
(-18398.49856 0 343.5665235)
(-16072.66152 0 308.7357647)
(-14041.35929 0 269.6227942)
(-12270.13788 0 229.6229857)
(-10728.58755 0 191.1262496)
(-9388.86564 0 155.5651887)
(-8226.324694 0 123.8270458)
(-7218.611788 0 96.20425451)
(-6345.925029 0 72.68147042)
(-5590.652 0 53.04951614)
(-4936.982202 0 36.93105492)
(-4371.016485 0 23.9007754)
(-3880.719231 0 13.53247715)
(-3455.616674 0 5.415368808)
(-3086.565526 0 -0.834353544)
(-2765.725581 -1.227877028e-12 -5.553852358)
(-2486.454339 0 -9.034996755)
(-2243.384032 0 -11.52573767)
(-2032.922172 0 -13.24082272)
(-1854.304775 0 -14.38313702)
(-20405.86563 0 50214.8222)
(-36500.97404 5.72803201e-09 49152.82961)
(-61238.1098 0 46676.72216)
(-91318.07603 0 42713.91217)
(-120160.8628 0 36818.84685)
(-151147.7426 8.72492374e-10 28922.47829)
(-181073.2501 -7.590816911e-10 19538.26123)
(-205796.9265 0 9900.671911)
(-221628.0621 0 1464.097555)
(-226763.6797 0 -4707.563114)
(-221926.8877 -2.625550867e-10 -8327.932662)
(-209650.016 2.464598854e-10 -9777.411669)
(-192954.6241 0 -9724.222035)
(-174386.5334 0 -8807.052597)
(-155678.5322 0 -7503.480135)
(-137856.0696 1.021184976e-10 -6111.517214)
(-121446.993 9.861157192e-11 -4789.674774)
(-106641.16 9.557346841e-11 -3617.519642)
(-93442.15206 0 -2626.871656)
(-81768.28282 0 -1815.870719)
(-71492.00252 0 -1171.834853)
(-62472.04435 0 -674.0996555)
(-54567.75922 0 -301.5138152)
(-47647.81609 0 -32.46902957)
(-41593.07087 0 152.4705277)
(-36296.84513 0 270.9250584)
(-31665.92853 0 337.9429087)
(-27618.12465 0 366.7147303)
(-24082.29808 0 367.7866269)
(-20995.88969 0 350.1664723)
(-18304.65227 0 320.6298035)
(-15960.80495 0 284.7067248)
(-13922.07049 0 246.2385369)
(-12151.30293 0 208.1293577)
(-10615.48702 4.818700871e-12 172.1827844)
(-9284.931172 0 139.4838193)
(-8133.444415 0 110.6224128)
(-7137.430617 -4.807336091e-12 85.70738877)
(-6276.363848 0 64.63969666)
(-5532.06572 0 47.13062689)
(-4888.377231 1.206414697e-12 32.79622093)
(-4331.301822 0 21.22463077)
(-3848.76564 1.213068337e-12 12.0287399)
(-3430.298693 0 4.823553889)
(-3066.848487 -1.222328066e-12 -0.7341220009)
(-2750.679734 0 -4.943856431)
(-2475.2598 0 -8.06360674)
(-2235.317126 -6.203589913e-13 -10.31148354)
(-2027.302196 0 -11.87573915)
(-1850.395416 -6.278896109e-13 -12.93327437)
(-19310.64941 0 39862.29725)
(-33789.21006 0 39129.91261)
(-56532.33895 1.766087453e-09 37442.97747)
(-84052.30346 0 34746.38556)
(-109766.4774 0 30689.66581)
(-137627.2873 0 25127.0347)
(-165467.5481 7.590816911e-10 18199.41568)
(-190142.3801 0 10624.32949)
(-208185.2514 0 3479.084456)
(-217120.8974 0 -2230.17357)
(-216479.6391 0 -5969.689305)
(-207775.5626 0 -7795.561545)
(-193572.8859 0 -8152.070247)
(-176438.5372 -2.218936483e-10 -7584.72306)
(-158368.3437 0 -6551.628451)
(-140682.6682 1.021184976e-10 -5358.103768)
(-124121.336 0 -4186.265824)
(-109012.5274 0 -3134.715458)
(-95455.02386 4.646490293e-11 -2241.509401)
(-83419.93551 4.531075074e-11 -1511.785464)
(-72805.98495 0 -936.8433273)
(-63485.2612 0 -497.3082496)
(-55321.59922 4.263799363e-11 -173.817006)
(-48184.26183 0 55.00633455)
(-41951.41601 -2.067999104e-11 207.3257292)
(-36513.12202 0 300.4143415)
(-31772.0151 0 348.1980798)
(-27641.78866 0 363.2142916)
(-24046.84259 0 355.0518651)
(-20920.6934 0 331.8966385)
(-18205.14814 9.781168704e-12 299.7022571)
(-15849.0333 0 263.2439576)
(-13806.97132 0 225.7084441)
(-12039.28391 9.660079362e-12 189.4768244)
(-10510.62309 0 155.8902986)
(-9189.75484 0 125.773355)
(-8049.136002 0 99.44018682)
(-7064.265492 0 76.868844)
(-6214.008896 0 57.89862035)
(-5479.716185 0 42.19034982)
(-4845.03576 0 29.36173354)
(-4295.923825 1.209402773e-12 19.01891001)
(-3820.300619 0 10.80247271)
(-3407.71758 0 4.359450484)
(-3049.220497 0 -0.6201062105)
(-2737.176582 0 -4.404178609)
(-2465.155953 0 -7.22215226)
(-2227.975488 0 -9.267082869)
(-2022.126741 -6.239889687e-13 -10.70504486)
(-1846.7448 0 -11.69124606)
(-18534.52498 0 31562.79134)
(-31920.71974 0 31044.00693)
(-53311.22634 -1.766087453e-09 29898.7385)
(-79032.60574 0 28051.57321)
(-102476.8748 0 25236.01858)
(-127880.4142 0 21311.59429)
(-153681.3525 0 16269.60689)
(-177587.2508 0 10453.86179)
(-196622.0465 -6.136491728e-10 4609.246174)
(-208104.1033 0 -412.5698659)
(-210779.8798 0 -4005.650698)
(-205244.8145 0 -6012.513142)
(-193462.9564 0 -6673.53749)
(-177852.5078 -2.218936483e-10 -6408.791801)
(-160557.7763 0 -5623.141704)
(-143124.5517 1.021184976e-10 -4620.554085)
(-126486.6364 0 -3599.101004)
(-111129.5041 0 -2669.077052)
(-97256.88755 0 -1873.794572)
(-84891.73279 0 -1226.040751)
(-73965.93538 0 -718.8857734)
(-64367.29113 0 -336.0855121)
(-55965.0746 0 -59.23732511)
(-48629.77712 0 131.68633)
(-42236.80414 0 254.0541117)
(-36672.79517 0 324.1249578)
(-31836.0575 0 354.9690701)
(-27636.02945 0 358.1040946)
(-23992.56506 0 342.2774222)
(-20835.23635 -9.841595743e-12 314.7310609)
(-18101.99604 -9.781168704e-12 280.6602486)
(-15738.4463 0 244.1089447)
(-13696.33335 0 207.6811322)
(-11933.69005 -9.660079362e-12 173.2754217)
(-10413.23819 0 141.8673121)
(-9102.362674 0 114.0537011)
(-7972.317244 0 89.93869879)
(-6997.998076 0 69.4014399)
(-6157.781422 0 52.22434999)
(-5432.651168 0 38.04829837)
(-4806.137141 0 26.49509845)
(-4264.19399 0 17.18944116)
(-3794.762517 0 9.797295873)
(-3387.429095 0 3.9945661)
(-3033.340593 0 -0.4998634084)
(-2724.963316 0 -3.926979033)
(-2455.963193 0 -6.491980218)
(-2221.238383 0 -8.366846166)
(-2017.319573 0 -9.699077315)
(-1843.305904 0 -10.62575276)
(-17985.08591 1.676159064e-08 24772.45515)
(-30648.8895 0 24409.39473)
(-51118.02855 1.766087453e-09 23652.49276)
(-75564.76907 0 22393.02346)
(-97368.09385 1.037132521e-09 20453.7637)
(-120907.3767 0 17698.06657)
(-144928.8587 0 14074.74791)
(-167760.8996 0 9711.754269)
(-187011.9279 6.136491728e-10 5072.593838)
(-200077.8474 -5.645090647e-10 822.2258401)
(-205237.2426 0 -2454.172289)
(-202357.4984 0 -4481.491403)
(-192802.412 2.331079767e-10 -5333.940693)
(-178727.6422 -2.218936483e-10 -5303.029797)
(-162292.6026 0 -4731.122366)
(-145193.2313 0 -3907.948829)
(-128545.5051 0 -3035.346479)
(-112994.7356 0 -2224.220212)
(-98846.79023 0 -1525.721507)
(-86184.65523 0 -958.8591599)
(-74975.94608 0 -517.8617772)
(-65123.42454 0 -189.9626115)
(-56504.71745 0 42.81431654)
(-48991.11068 0 198.2804927)
(-42455.89505 0 293.3739597)
(-36782.08115 0 342.7252356)
(-31863.54616 0 358.8226382)
(-27605.42152 0 351.7740349)
(-23923.0354 0 329.6862712)
(-20742.03073 -9.841595743e-12 298.6766659)
(-17996.7764 0 263.3813421)
(-15629.78489 0 227.0417626)
(-13590.25102 0 191.8285471)
(-11834.17787 0 159.1778794)
(-10322.62217 0 129.7759568)
(-9021.820838 0 104.0057377)
(-7902.02626 0 81.83460591)
(-6937.683574 0 63.06136471)
(-6106.800159 -2.405189498e-12 47.42612301)
(-5390.084043 0 34.55834725)
(-4771.004008 1.206414697e-12 24.08593756)
(-4235.546801 0 15.66303494)
(-3771.692428 -1.213068337e-12 8.968442787)
(-3369.071156 0 3.706161719)
(-3018.931605 0 -0.3792402048)
(-2713.835168 -1.227877028e-12 -3.505527791)
(-2447.537147 0 -5.857349852)
(-2215.010677 0 -7.588867124)
(-2012.823777 0 -8.831923046)
(-1840.047034 0 -9.708345074)
(-17606.85707 0 19126.78017)
(-29816.48371 0 18884.81039)
(-49655.94129 -1.766087453e-09 18415.75722)
(-73207.21659 0 17576.99848)
(-93834.00553 0 16274.69282)
(-115976.3712 0 14370.73855)
(-138555.8775 0 11808.51203)
(-160283.4197 0 8615.37417)
(-179275.4887 0 5045.90774)
(-193191.1468 0 1574.654503)
(-200112.6474 0 -1285.778259)
(-199376.1839 0 -3207.887267)
(-191793.6936 0 -4144.945297)
(-179182.3329 -2.218936483e-10 -4279.113689)
(-163624.5205 0 -3886.771737)
(-146905.6659 1.021184976e-10 -3230.060595)
(-130304.8467 0 -2499.260968)
(-114614.2043 0 -1803.255279)
(-100230.9087 0 -1199.998365)
(-87304.25509 0 -711.010671)
(-75840.40743 0 -333.8828)
(-65759.39067 0 -58.1994837)
(-56946.72013 0 133.130635)
(-49274.7709 0 255.8395159)
(-42615.12372 0 326.1654285)
(-36846.81924 0 357.0904792)
(-31859.61025 0 360.3552053)
(-27554.01959 0 344.6914174)
(-23841.28048 0 317.4824285)
(-20643.12226 -9.841595743e-12 283.8136549)
(-17890.7118 0 247.762428)
(-15523.53462 0 211.8453028)
(-13488.73103 0 177.8902145)
(-11740.32748 0 146.8956093)
(-10238.10735 0 119.3203136)
(-8947.332772 0 95.36635277)
(-7837.429455 0 74.88840996)
(-6882.51551 0 57.65695387)
(-6060.320432 0 43.3519952)
(-5351.34258 0 31.6051457)
(-4739.07507 -1.206414697e-12 22.05398324)
(-4209.530929 0 14.38345934)
(-3750.714537 0 8.281438197)
(-3352.345585 0 3.477421984)
(-3005.76523 1.222328066e-12 -0.2615032483)
(-2703.623394 0 -3.133099571)
(-2439.758409 0 -5.304470726)
(-2209.212735 0 -6.914644294)
(-2008.590046 0 -8.082216686)
(-1836.938836 0 -8.916142121)
(-17366.82077 0 14353.96333)
(-29320.66747 0 14212.44572)
(-48736.88689 0 13962.00877)
(-71664.03431 1.296916343e-09 13446.45355)
(-91459.36979 -1.037132521e-09 12620.16111)
(-112566.6756 0 11360.36977)
(-134018.0627 -7.590816911e-10 9591.987501)
(-154745.511 0 7316.412795)
(-173254.4168 6.136491728e-10 4656.961078)
(-187515.5667 0 1929.053061)
(-195603.7322 0 -458.0907656)
(-196517.6181 0 -2178.298247)
(-190601.5715 0 -3112.534844)
(-179316.8056 0 -3351.373364)
(-164603.5274 0 -3104.44906)
(-148289.0878 1.021184976e-10 -2596.918574)
(-131782.1312 1.972231438e-10 -1995.659988)
(-115994.0979 0 -1408.600571)
(-101413.8929 0 -897.5131507)
(-88257.67477 0 -483.3334159)
(-76567.116 0 -167.3943901)
(-66282.68962 0 59.50039313)
(-57298.41456 0 212.2557229)
(-49487.70982 0 305.1952793)
(-42720.69638 0 353.1696709)
(-36872.44962 0 367.9317308)
(-31828.63159 -1.009620547e-11 360.0399766)
(-27485.2972 0 337.1747608)
(-23749.77786 -9.913505491e-12 305.7782077)
(-20540.1312 0 270.1424067)
(-17784.56956 0 233.6725771)
(-15419.96524 0 198.3517784)
(-13391.58962 0 165.6294835)
(-11651.6859 0 136.1576978)
(-10159.06663 0 110.2527516)
(-8878.146833 0 87.91536525)
(-7777.801889 0 68.92252052)
(-6831.842935 0 53.03279039)
(-6017.722139 0 39.87726768)
(-5315.890153 0 29.09504954)
(-4709.882536 0 20.3366853)
(-4185.746597 0 13.30609407)
(-3731.515177 0 7.709010912)
(-3337.00742 0 3.295347408)
(-2993.654289 0 -0.1486787708)
(-2694.189643 0 -2.803610854)
(-2432.529309 0 -4.821484608)
(-2203.780014 0 -6.328388506)
(-2004.579471 0 -7.431633816)
(-1833.959322 0 -8.22924751)
(-17245.26066 0 10258.09963)
(-29089.73668 0 10195.63315)
(-48249.81571 0 10113.08315)
(-70758.94627 0 9861.327638)
(-89983.54419 0 9406.873414)
(-110313.5279 0 8649.56388)
(-130882.6016 0 7490.223444)
(-150774.8036 0 5930.985047)
(-168735.8788 0 4027.593561)
(-183030.1404 0 1972.667927)
(-191828.461 0 71.2182829)
(-193945.0757 0 -1386.68771)
(-189370.833 0 -2247.152172)
(-179232.0298 -2.218936483e-10 -2535.000255)
(-165291.0053 0 -2400.017187)
(-149381.7733 1.021184976e-10 -2016.71621)
(-133001.3695 0 -1530.093788)
(-117149.431 0 -1044.519257)
(-102405.558 0 -619.4356087)
(-89051.54808 0 -275.7617638)
(-77163.25697 0 -17.5861257)
(-66701.48995 0 163.8726425)
(-57567.35464 0 280.8338844)
(-49636.92544 0 346.9636937)
(-42778.73271 0 374.9254185)
(-36864.08108 0 375.643283)
(-31774.66963 0 358.1511853)
(-27402.30027 0 329.33507)
(-23650.65558 0 294.5779153)
(-20434.39829 -9.841595743e-12 257.5296922)
(-17679.08125 0 220.9404406)
(-15319.24302 0 186.3393143)
(-13298.51958 0 154.8153172)
(-11567.80197 0 126.757186)
(-10084.99376 0 102.3617567)
(-8813.694011 0 81.46484836)
(-7722.522547 0 63.78938256)
(-6785.037583 0 49.06119919)
(-5978.472158 0 36.90096371)
(-5283.271374 0 26.95170033)
(-4683.038691 0 18.87630912)
(-4163.870224 0 12.39447825)
(-3713.835058 0 7.22985875)
(-3322.853226 0 3.150153909)
(-2982.443428 0 -0.04176113769)
(-2685.419237 -1.227877028e-12 -2.511521752)
(-2425.768937 0 -4.39818844)
(-2198.659 0 -5.816753542)
(-2000.75965 0 -6.86488204)
(-1831.090015 0 -7.63129331)
(-17207.21058 0 6715.443635)
(-29058.54763 0 6703.60258)
(-48110.56405 0 6759.303025)
(-70368.54307 0 6723.34342)
(-89215.33715 0 6563.888545)
(-108972.5887 0 6203.570838)
(-128853.284 0 5541.15047)
(-148066.5889 0 4545.845148)
(-165501.5384 0 3257.963192)
(-179647.1981 0 1791.055188)
(-188820.3266 0 356.5223243)
(-191767.6377 0 -808.2602564)
(-188222.3449 0 -1545.890227)
(-179016.8701 -2.218936483e-10 -1840.67114)
(-165752.7889 0 -1780.768031)
(-150233.6182 1.021184976e-10 -1493.667166)
(-133988.8713 0 -1105.756729)
(-118096.6282 0 -713.3840316)
(-103220.6472 0 -367.2885663)
(-89697.74365 0 -88.99212292)
(-77638.22028 0 116.0230693)
(-67022.87684 0 255.6116584)
(-57760.57171 0 339.967333)
(-49729.09407 0 382.0093691)
(-42794.85123 0 392.2220051)
(-36826.44472 0 380.7583698)
(-31701.32881 0 355.060208)
(-27307.75274 0 321.3565094)
(-23545.69587 0 283.9057701)
(-20327.04058 -9.841595743e-12 245.9093882)
(-17574.75215 0 209.4007246)
(-15221.4605 0 175.6051405)
(-13209.38453 0 145.248237)
(-11488.28212 0 118.5204264)
(-10015.32354 0 95.47475789)
(-8753.430606 0 75.85915441)
(-7671.064178 0 59.34606829)
(-6741.605409 0 45.63503687)
(-5942.126005 0 34.34019113)
(-5253.100173 0 25.10852954)
(-4658.217716 0 17.62763558)
(-4143.633662 0 11.61943703)
(-3697.458767 0 6.826854416)
(-3309.714251 0 3.034113968)
(-2972.00405 0 0.05875373381)
(-2677.217432 -1.227877028e-12 -2.251941475)
(-2419.410583 0 -4.025842109)
(-2193.805706 0 -5.368397957)
(-1997.104096 0 -6.36900095)
(-1828.315957 0 -7.108412084)
(-17215.00518 0 3606.310977)
(-29189.58105 0 3633.79887)
(-48262.78154 0 3810.898807)
(-70388.46563 0 3948.906704)
(-89010.73563 0 4031.500367)
(-108384.9303 0 3994.161905)
(-127723.6252 0 3748.513983)
(-146364.4861 0 3221.173221)
(-163333.7327 0 2433.110825)
(-177253.2063 0 1463.901272)
(-186574.1065 0 455.9893889)
(-190042.7258 0 -413.0689413)
(-187226.7467 0 -1003.446954)
(-178751.5363 -2.218936483e-10 -1267.609788)
(-166064.3734 0 -1243.996344)
(-150891.9 1.021184976e-10 -1027.874539)
(-134772.8141 0 -724.9729422)
(-118854.5717 0 -414.9774725)
(-103872.924 0 -140.4390177)
(-90207.72597 0 77.05989528)
(-78002.53954 0 233.6460661)
(-67256.57749 0 335.1425527)
(-57886.01705 0 390.4838789)
(-49770.41293 0 410.9879964)
(-42774.28858 0 405.7333143)
(-36763.53181 0 383.6980354)
(-31611.71209 0 351.119054)
(-27203.7341 0 313.3800288)
(-23436.31944 0 273.8473741)
(-20218.84987 -9.841595743e-12 235.2296569)
(-17471.91408 0 198.9464006)
(-15126.68335 0 166.0045128)
(-13123.96758 0 136.7672521)
(-11412.75783 0 111.2688524)
(-9949.607757 0 89.44233409)
(-8696.88336 0 70.95966091)
(-7622.966968 0 55.4829758)
(-6701.119325 0 42.66623668)
(-5908.28909 0 32.12697194)
(-5225.052869 0 23.51838466)
(-4635.164546 0 16.55487483)
(-4124.814867 0 10.95706425)
(-3682.206019 0 6.486149972)
(-3297.449476 0 2.941276116)
(-2962.22904 0 0.1529010373)
(-2669.505513 -1.227877028e-12 -2.020425387)
(-2413.398923 0 -3.696868431)
(-2189.183665 0 -4.973631337)
(-1993.590797 0 -5.932979368)
(-1825.624631 0 -6.648841115)
(-17277.44582 0 821.0267086)
(-29468.92503 0 892.5997036)
(-48653.99837 0 1179.2819)
(-70752.07182 1.296916343e-09 1457.558566)
(-89280.1748 -1.037132521e-09 1750.081859)
(-108423.6218 0 1976.063791)
(-127366.612 0 2078.204147)
(-145516.7445 0 1964.375645)
(-162049.5818 6.136491728e-10 1608.297272)
(-175705.6346 -5.645090647e-10 1061.070209)
(-185021.8328 0 424.7113027)
(-188770.3739 0 -167.8357761)
(-186444.8524 0 -596.5630616)
(-178519.7491 0 -797.0469797)
(-166289.3671 0 -781.8753586)
(-151395.346 1.021184976e-10 -618.1723446)
(-135380.5227 1.972231438e-10 -388.0349753)
(-119446.4001 0 -149.1956175)
(-104376.7627 0 61.57291635)
(-90592.39325 0 224.0527983)
(-78266.44278 0 336.7511804)
(-67411.22003 0 403.511303)
(-57951.27645 0 433.0093702)
(-49767.17028 0 434.3812918)
(-42722.03046 0 415.7962004)
(-36679.21869 0 384.7170952)
(-31508.65007 -2.019241095e-11 346.4424603)
(-27092.23367 0 305.4365004)
(-23323.75663 -9.913505491e-12 264.3735774)
(-20110.38996 0 225.3968954)
(-17370.79928 0 189.4942089)
(-15034.84311 0 157.3998848)
(-13042.02872 0 129.2020061)
(-11340.87403 0 104.8573061)
(-9887.407197 0 84.13674703)
(-8643.638438 0 66.66352613)
(-7577.870045 0 52.10898313)
(-6663.225107 0 40.08060522)
(-5876.657075 0 30.2050238)
(-5198.855201 0 22.14508556)
(-4613.636027 0 15.62904359)
(-4107.225066 0 10.38787648)
(-3667.927542 0 6.196590976)
(-3285.942247 0 2.867033639)
(-2953.029544 0 0.2410178997)
(-2662.218105 0 -1.813006769)
(-2407.688053 0 -3.404724259)
(-2184.76276 0 -4.624165349)
(-1990.20179 0 -5.54741929)
(-1823.006065 0 -6.242520195)
(-17397.88375 1.676159064e-08 -1717.904608)
(-29892.51 0 -1601.103712)
(-49251.68312 1.766087453e-09 -1212.607848)
(-71408.9124 0 -808.8057948)
(-89942.59357 1.037132521e-09 -334.111928)
(-108976.5348 0 121.6018192)
(-127678.2823 0 510.5207086)
(-145439.1195 0 750.0690945)
(-161550.5896 6.136491728e-10 779.3387536)
(-174888.1947 -5.645090647e-10 607.6550372)
(-184083.4905 0 302.799756)
(-187943.0458 0 -30.59113873)
(-185917.1219 2.331079767e-10 -289.6812398)
(-178368.1665 -2.218936483e-10 -410.5425633)
(-166465.0467 0 -387.919733)
(-151773.4675 0 -264.7184728)
(-135837.8758 0 -93.38103047)
(-119892.7334 0 84.77720027)
(-104749.6382 0 238.4306447)
(-90865.55262 0 352.6265405)
(-78438.95246 0 426.1495866)
(-67494.43218 -4.341488838e-11 461.9512233)
(-57962.88334 0 468.4972391)
(-49724.81564 0 452.9748192)
(-42642.71873 0 422.9246411)
(-36576.89705 0 384.0663471)
(-31394.6359 0 341.1575221)
(-26974.93102 0 297.5226817)
(-23209.07437 0 255.392984)
(-20002.2999 0 216.3057501)
(-17271.60666 0 180.9061732)
(-14945.74487 0 149.6532754)
(-12963.33076 0 122.4387606)
(-11272.39471 0 99.16125615)
(-9828.408491 0 79.4476321)
(-8593.34045 0 62.89065148)
(-7535.408367 0 49.14953655)
(-6627.612812 0 37.81774104)
(-5846.965654 -2.405189498e-12 28.52730211)
(-5174.278056 0 20.95033648)
(-4593.436568 1.206414697e-12 14.82567974)
(-4090.706729 0 9.89634866)
(-3654.497856 -1.213068337e-12 5.949368778)
(-3275.094665 0 2.807825463)
(-2944.33122 -1.222328066e-12 0.3235755804)
(-2655.300659 -1.227877028e-12 -1.626216586)
(-2402.239789 0 -3.143802016)
(-2180.518055 0 -4.312947918)
(-1986.922352 0 -5.204366383)
(-1820.452241 0 -5.880983432)
(-17575.88772 0 -4071.320355)
(-30449.75448 0 -3910.120902)
(-50047.23518 -1.766087453e-09 -3435.920207)
(-72331.32349 0 -2906.119363)
(-90966.81853 0 -2262.573271)
(-109977.4758 0 -1588.192564)
(-128534.4647 0 -962.2210993)
(-146012.2497 0 -429.2196741)
(-161753.2864 0 -63.13645479)
(-174745.4178 0 106.7054869)
(-183724.3464 0 110.1833613)
(-187550.7551 0 23.57468311)
(-185654.0588 0 -67.44294135)
(-178318.4571 -2.218936483e-10 -101.1979632)
(-166614.6927 0 -61.29301749)
(-152054.5418 1.021184976e-10 34.32587249)
(-136174.2592 0 160.7474025)
(-120212.343 0 288.2079622)
(-105005.6311 0 391.6475008)
(-91040.76545 0 463.2920372)
(-78531.76188 0 501.9838355)
(-67515.15823 0 510.9710835)
(-57927.29262 0 497.4442934)
(-49648.49483 0 467.4224933)
(-42539.92995 0 427.5279129)
(-36459.41152 0 382.1428556)
(-31271.80471 0 335.4434275)
(-26853.20852 0 289.7233472)
(-23093.2168 0 246.8932864)
(-19895.00772 -9.841595743e-12 207.8503031)
(-17174.47391 0 173.0513982)
(-14859.39423 0 142.6465262)
(-12887.67306 0 116.390181)
(-11206.97662 0 94.08122078)
(-9772.314444 0 75.28302685)
(-8545.690224 0 59.55563818)
(-7495.286485 0 46.54062068)
(-6594.020633 0 35.82707354)
(-5818.985948 0 27.04908832)
(-5151.12623 0 19.90395297)
(-4574.403706 -1.206414697e-12 14.1248459)
(-4075.127661 0 9.469653982)
(-3641.811763 0 5.737216314)
(-3264.824904 0 2.760777428)
(-2936.072088 1.222328066e-12 0.401080549)
(-2648.707801 0 -1.45703709)
(-2397.022439 0 -2.909295634)
(-2176.428913 0 -4.033971267)
(-1983.740336 0 -4.897075107)
(-1817.956572 0 -5.557086865)
(-17809.76989 0 -6263.670902)
(-31116.2961 0 -6070.826723)
(-51025.75012 1.766087453e-09 -5518.060296)
(-73521.60591 0 -4864.826992)
(-92340.07502 0 -4064.602317)
(-111375.4583 0 -3190.86948)
(-129851.6574 7.590816911e-10 -2343.633215)
(-147148.4478 0 -1560.766831)
(-162581.0223 0 -903.425908)
(-175219.7484 0 -427.7187815)
(-183907.8311 0 -139.0032204)
(-187575.4566 0 8.452937162)
(-185658.257 0 81.44082844)
(-178386.2703 -4.437872967e-10 136.1081356)
(-166764.9708 0 200.2717991)
(-152270.0672 1.021184976e-10 283.400889)
(-136414.2289 0 376.9799538)
(-120425.3254 0 461.549158)
(-105160.363 4.646490293e-11 522.7555573)
(-91128.58375 4.531075074e-11 557.6063861)
(-78553.92905 0 565.5126889)
(-67481.88811 0 551.2302619)
(-57851.41539 4.263799363e-11 520.2392875)
(-49543.40948 0 477.9911328)
(-42417.64125 -2.067999104e-11 429.8010449)
(-36329.52508 0 379.1375601)
(-31141.80155 0 329.3663594)
(-26728.21175 0 282.113809)
(-22976.70934 0 238.844788)
(-19788.81282 0 199.980575)
(-17079.56581 4.890584352e-12 165.8478365)
(-14775.7281 0 136.2840403)
(-12814.87338 0 110.9397548)
(-11144.37031 4.830039681e-12 89.52687777)
(-9718.856391 0 71.55486984)
(-8500.42362 0 56.58751127)
(-7457.253834 0 44.22646066)
(-6562.203088 0 34.06547196)
(-5792.523916 0 25.74283794)
(-5129.256848 0 18.98219772)
(-4556.403387 0 13.50947912)
(-4060.376139 1.209402773e-12 9.096867121)
(-3629.780448 0 5.554117966)
(-3255.064238 0 2.723646272)
(-2928.20033 0 0.4741286756)
(-2642.401727 -1.227877028e-12 -1.302786937)
(-2392.009676 0 -2.697045217)
(-2172.478231 0 -3.782081548)
(-1980.645689 -6.239889687e-13 -4.619775535)
(-1815.513604 0 -5.264716759)
(-18068.63037 0 -8333.02452)
(-31883.34103 0 -8116.756462)
(-52186.19039 0 -7478.472069)
(-74949.46171 1.296916343e-09 -6708.705116)
(-94016.93037 0 -5764.430271)
(-113156.9837 0 -4708.425635)
(-131598.5005 -7.590816911e-10 -3636.300466)
(-148764.124 0 -2625.962065)
(-163952.5291 0 -1721.352581)
(-176252.7359 0 -977.0772891)
(-184598.6344 -2.625550867e-10 -428.7528448)
(-188001.1225 -2.464598854e-10 -62.25129427)
(-185921.7015 0 165.4196067)
(-178574.1315 0 305.9704409)
(-166937.9946 0 404.5555453)
(-152448.8814 1.021184976e-10 487.6277996)
(-136578.0969 1.972231438e-10 557.9255461)
(-120548.1055 0 606.604294)
(-105230.4563 0 632.6631179)
(-91141.89448 0 636.3172352)
(-78514.93469 0 618.0958779)
(-67401.41587 0 583.8306954)
(-57740.71782 0 537.7518342)
(-49414.20691 0 485.1854483)
(-42279.23278 0 429.9401892)
(-36189.73001 0 375.0745721)
(-31006.45216 -1.009620547e-11 322.9340592)
(-26601.04984 0 274.6311869)
(-22860.14463 -9.913505491e-12 231.1795318)
(-19683.9911 0 192.6685721)
(-16986.88648 0 159.2175191)
(-14694.64815 0 130.4478283)
(-12744.74966 0 105.9945247)
(-11084.32003 0 85.41887832)
(-9667.799383 0 68.20020802)
(-8457.345898 0 53.92908031)
(-7421.106682 0 42.15938065)
(-6531.993404 0 32.4964234)
(-5767.416474 0 24.58734013)
(-5108.511428 0 18.16561623)
(-4539.318663 0 12.96546724)
(-4046.359918 1.209402773e-12 8.768997723)
(-3618.330691 -1.213068337e-12 5.395197339)
(-3245.755649 0 2.69470804)
(-2920.672792 0 0.5433607548)
(-2636.350938 0 -1.161092555)
(-2387.179615 0 -2.503449785)
(-2168.651873 6.203589913e-13 -3.552850156)
(-1977.630213 0 -4.367518354)
(-1813.119006 0 -4.99862016)
(-18362.36369 0 -10336.40901)
(-32762.52596 0 -10090.86634)
(-53526.41445 0 -9363.025849)
(-76609.34531 0 -8485.148734)
(-95988.23015 0 -7392.648337)
(-115313.2102 0 -6161.68918)
(-133768.1852 0 -4870.270873)
(-150813.3706 0 -3626.062733)
(-165790.7361 0 -2490.330338)
(-177778.4447 0 -1514.393994)
(-185750.3918 0 -740.6284338)
(-188793.8656 0 -181.122444)
(-186427.8918 0 188.7544772)
(-178896.724 0 418.8854487)
(-167161.2062 0 562.5912433)
(-152610.9695 2.042369953e-10 653.8070556)
(-136682.9911 0 706.1824446)
(-120596.8413 0 726.7877769)
(-105229.0871 0 723.8912656)
(-91092.37703 0 700.4232344)
(-78424.65515 0 660.4325669)
(-67281.01137 0 609.31529)
(-57600.58737 0 550.6947718)
(-49264.34945 0 489.4961942)
(-42127.42209 0 428.4085627)
(-36042.29144 0 370.2006047)
(-30867.16073 0 316.1621164)
(-26472.66074 0 267.2417322)
(-22744.14952 0 223.8432497)
(-19580.80835 -9.841595743e-12 185.8171757)
(-16896.33584 0 153.0732237)
(-14616.04959 0 125.0817945)
(-12677.23734 0 101.479294)
(-11026.67008 0 81.68962713)
(-9618.944616 0 65.17740873)
(-8416.242575 0 51.53561289)
(-7386.662758 0 40.30200505)
(-6503.235263 0 31.08869094)
(-5743.527287 0 23.55419633)
(-5088.772049 0 17.43714847)
(-4523.052671 0 12.48159533)
(-4033.000672 0 8.478905758)
(-3607.400441 0 5.256537515)
(-3236.851115 0 2.672600552)
(-2913.453319 0 0.6093786188)
(-2630.529157 0 -1.029896112)
(-2382.51408 0 -2.325416241)
(-2164.938184 0 -3.342487328)
(-1974.687247 0 -4.136081)
(-1810.769362 0 -4.75433157)
(-18696.02471 0 -12300.42058)
(-33759.02371 0 -12019.89429)
(-55037.92781 0 -11199.80909)
(-78501.4708 0 -10217.93048)
(-98255.7628 0 -8974.924692)
(-117829.3097 0 -7572.461831)
(-136370.3263 0 -6072.889407)
(-153321.1987 0 -4589.968206)
(-168067.1402 0 -3219.116519)
(-179721.4566 0 -2026.290243)
(-187287.9046 0 -1054.227318)
(-189908.9213 0 -325.210792)
(-187175.9556 0 176.6618615)
(-179370.7282 -2.218936483e-10 496.5770283)
(-167448.3311 0 686.5859646)
(-152766.3792 2.042369953e-10 787.994797)
(-136741.8403 0 826.1104438)
(-120587.6785 0 825.0729305)
(-105167.1495 0 798.612397)
(-90988.61339 0 752.2410888)
(-78291.46436 0 693.8224401)
(-67127.52057 0 628.2032599)
(-57436.33664 0 559.3721305)
(-49097.84901 0 491.1319087)
(-41964.93605 0 425.5006763)
(-35888.49873 0 364.6624128)
(-30724.99505 0 309.2354988)
(-26343.96031 0 259.9949175)
(-22629.13549 0 216.7607496)
(-19479.44782 -9.841595743e-12 179.3404995)
(-16808.04008 0 147.3418976)
(-14539.86764 0 120.1506164)
(-12612.12055 0 97.33776519)
(-10971.27031 0 78.28367588)
(-9572.128292 0 62.43299182)
(-8376.933235 0 49.36720226)
(-7353.762786 0 38.62219212)
(-6475.791891 0 29.81136643)
(-5720.742262 0 22.62316426)
(-5069.939894 0 16.78285768)
(-4507.523631 0 12.04826433)
(-4020.232543 0 8.220456189)
(-3596.937764 0 5.134801629)
(-3228.310575 0 2.656188326)
(-2906.511831 0 0.672725415)
(-2624.914587 -1.227877028e-12 -0.9074160048)
(-2377.998056 0 -2.160285049)
(-2161.32759 0 -3.147745449)
(-1971.81137 0 -3.921855649)
(-1808.461939 0 -4.528049081)
(-19079.14586 0 -14259.73022)