/*--------------------------------*- C++ -*----------------------------------*\
  =========                 |
  \\      /  F ield         | OpenFOAM: The Open Source CFD Toolbox
   \\    /   O peration     | Website:  https://openfoam.org
    \\  /    A nd           | Version:  7
     \\/     M anipulation  |
\*---------------------------------------------------------------------------*/
FoamFile
{
    version     2.0;
    format      ascii;
    class       volScalarField;
    location    "0.0015";
    object      p;
}
// * * * * * * * * * * * * * * * * * * * * * * * * * * * * * * * * * * * * * //

dimensions      [1 -1 -2 0 0 0 0];

internalField   nonuniform List<scalar> 
1167
(
584984.7012
586848.1451
587405.1861
588464.4732
589835.2193
591298.9338
592677.7242
593871.7502
594835.9884
595573.0182
596124.618
596544.2485
596881.1271
597175.9611
597460.847
597757.4718
598081.5177
598445.6105
598857.6232
599319.3993
599833.5176
600397.221
601007.041
601656.9715
602339.6754
603045.7862
603765.3894
604486.8233
605198.6683
605888.5936
606545.372
607158.1506
607717.9705
608217.3181
573271.1139
575220.4388
575656.0522
576586.0303
577859.9123
579278.4921
580704.2824
582021.4508
583157.8501
584088.6806
584828.7362
585417.8792
585901.8612
586322.6517
586712.0884
587094.8682
587488.9783
587910.4475
588365.6741
588858.6085
589392.3509
589964.2128
590572.005
591209.3261
591870.0003
592544.6538
593224.4826
593898.6842
594557.1362
595189.0711
595785.0153
596336.0559
596835.1699
597276.7243
597657.3008
597975.1705
598230.6282
598425.4481
598562.7253
598646.688
598682.2363
598674.684
598629.5013
598552.1748
598448.0945
598322.5778
598180.1177
598021.4533
597844.3169
597674.0754
561854.5649
563865.0037
564203.1724
565022.2602
566199.8021
567544.042
568962.7041
570340.0344
571594.6383
572676.9511
573578.7226
574322.2257
574943.6719
575481.9197
575969.7038
576432.9415
576894.1218
577367.825
577861.6305
578382.4763
578932.217
579509.7992
580112.9277
580736.0906
581373.4788
582016.6783
582657.5214
583286.6302
583894.9001
584473.4036
585014.0503
585509.8918
585955.4016
586346.6301
586681.4072
586959.0414
587180.5296
587348.022
587464.7114
587534.633
587562.2897
587552.4433
587509.9444
587439.5804
587346.0149
587233.8303
587106.8703
586965.6357
586807.9579
586656.3392
550662.1688
552715.2088
552972.6382
553707.2958
554794.6899
556058.0063
557430.5542
558824.1702
560148.3885
561341.8054
562375.9886
563254.2378
564000.6911
564648.3857
565227.9087
565767.8706
566291.8697
566813.558
567342.7314
567887.952
568450.5155
569031.5322
569627.9025
570235.8453
570849.3805
571461.7137
572064.987
572651.5522
573213.2058
573742.8428
574233.6269
574680.3488
575078.7267
575426.2445
575721.6559
575965.0772
576157.9637
576302.6673
576402.4075
576460.968
576482.4587
576471.1377
576431.3151
576367.1793
576282.7791
576182.0806
576068.3864
575942.006
575800.8646
575665.0533
539641.1916
541719.3133
541914.1367
542580.6382
543584.374
544772.8672
546084.632
547462.2537
548819.1821
550086.2103
551222.3026
552214.0859
553071.6008
553818.8159
554484.3803
555097.5447
555679.2075
556244.5499
556806.8254
557373.2464
557946.2822
558528.4444
559116.6077
559708.4648
560298.1849
560880.439
561448.0006
561994.6729
562513.4243
562998.5734
563444.6589
563847.7903
564204.871
564514.4348
564775.9754
564990.2673
565159.0206
565284.6785
565370.4048
565419.722
565436.3726
565424.1699
565386.9348
565328.3446
565251.9312
565161.1433
565058.8319
564945.1524
564818.1202
564695.7819
528744.9135
530842.7618
530993.8993
531600.0519
532529.6718
533650.9839
534901.3975
536239.9871
537600.6933
538912.0161
540121.8752
541204.2817
542155.997
542992.7471
543738.8982
544419.1309
545053.8369
545659.7885
546251.8966
546836.3428
547418.3862
547999.8288
548579.0544
549154.256
549720.6783
550273.8815
550807.8237
551317.381
551796.8743
552241.7867
552647.9453
553012.5559
553333.5257
553610.1886
553842.6326
554032.0976
554180.4559
554290.1741
554364.2881
554406.07
554418.9237
554406.2674
554371.4938
554317.8415
554248.4026
554166.1898
554073.6746
553970.8881
553855.9299
553745.1095
517952.134
520063.2832
520177.2679
520730.8748
521600.7531
522656.5659
523848.2839
525141.0553
526483.5433
527812.8629
529072.0731
530224.2641
531255.7044
532172.2504
532990.7279
533731.6441
534414.5358
535058.8768
535677.4074
536277.3645
536866.4764
537445.6087
538015.3838
538573.7081
539117.66
539643.1332
540145.7696
540621.0561
541064.8913
541473.5508
541844.2163
542174.8462
542464.2901
542712.465
542919.9315
543088.2152
543219.3051
543315.6431
543380.1135
543415.7398
543425.6066
543412.8037
543380.346
543331.0904
543267.7536
543192.9794
543108.9204
543015.5077
542910.9192
542809.9819
507247.7762
509358.8788
509439.0045
509945.0704
510766.9986
511761.6641
512900.5108
514146.9929
515460.6315
516788.2337
518075.6201
519278.858
520375.1263
521359.0314
522240.1691
523034.8568
523762.2225
524441.1239
525082.82
525697.0307
526291.1238
526866.9023
527426.633
527968.2821
528490.6154
528989.9545
529463.502
529907.3928
530318.9063
530695.0731
531034.2195
531334.9198
531596.8644
531820.3691
532006.3678
532156.5659
532272.9885
532358.079
532414.5305
532445.1259
532452.6586
532439.935
532409.6406
532364.3029
532306.318
532238.0162
532161.2811
532075.9629
531980.3122
531887.8858
496607.292
498709.8207
498760.6394
499229.3155
500009.2272
500950.1097
502036.7404
503238.7227
504519.5449
505834.8752
507133.9358
508370.8208
509515.3084
510553.771
511488.1835
512329.9122
513098.0288
513807.1068
514468.743
515095.2682
515692.6527
516264.6986
516813.9411
517339.5006
517841.0932
518316.0696
518762.6393
519177.9403
519560.2109
519907.3782
520218.5561
520492.9759
520730.9105
520932.9959
521100.5353
521235.2796
521339.2471
521414.8616
521464.6266
521491.1047
521496.8353
521484.3564
521456.0718
521414.2286
521360.9495
521298.2979
521227.9287
521149.627
521061.7111
520976.6448
486018.4644
488103.453
488128.4526
488570.6395
489310.1947
490205.9621
491240.9882
492400.7289
493646.5142
494941.5027
496240.1975
497496.6724
498676.0671
499757.41
500735.1522
501618.8805
502422.0988
503157.088
503836.6717
504473.0859
505072.1355
505639.8107
506178.2132
506688.4785
507170.3459
507622.7794
508044.5052
508433.9037
508789.8458
509111.181
509397.631
509649.0068
509866.0005
510049.5259
510201.1688
510322.6924
510416.098
510483.7176
510527.8996
510551.0072
510555.355
510543.2406
510516.8225
510478.1065
510428.9807
510371.2806
510306.4671
510234.273
510153.0794
510074.4058
475464.6032
477525.338
477535.8377
477953.8846
478654.5076
479513.6292
480503.1908
481618.4356
482830.9714
484101.9175
485391.554
486656.25
487858.0985
488970.1988
489984.0895
490903.4528
491735.8077
492492.3437
493187.6523
493831.745
494431.4242
494993.8489
495521.3911
496016.9374
496480.1969
496911.7666
497310.6978
497676.6574
498008.9005
498307.2747
498571.8353
498803.0047
499001.7493
499169.2278
499307.1618
499417.3542
499501.7714
499562.6434
499602.1648
499622.5073
499625.8105
499614.1512
499589.4702
499553.5639
499508.1195
499454.7779
499394.835
499327.9816
499252.6581
499179.5633
464939.009
466975.6198
466977.7547
467371.92
468038.2986
468863.5896
469813.347
470884.6768
472060.8347
473306.3402
474581.812
475845.6342
477059.4705
478194.5484
479237.5895
480184.4278
481040.0104
481815.0784
482522.8341
483172.0144
483771.711
484328.2596
484845.3036
485326.4969
485772.4013
486184.5687
486562.724
486907.4248
487218.4319
487496.3549
487741.5368
487954.9871
488137.8162
488291.3811
488417.4898
488517.942
488594.7077
488649.8845
488685.5189
488703.6074
488706.142
488695.0034
488671.9411
488638.5697
488596.4039
488546.9177
488491.266
488429.107
488358.9359
488290.7355
454443.8359
456452.9941
456443.3837
456812.8676
457453.5939
458242.8891
459159.9972
460194.0268
461331.9878
462548.4244
463805.2777
465062.6458
466281.9121
467432.9242
468495.8195
469463.113
470336.4583
471126.9032
471843.8072
472496.0252
473094.4198
473644.2364
474151.0773
474618.4316
475048.2576
475442.4908
475801.7546
476127.22
476419.2537
476678.9549
476907.0495
477104.9172
477273.8007
477415.308
477531.2151
477623.298
477693.5409
477743.9036
477776.299
477792.574
477794.5677
477783.9958
477762.4442
477731.3706
477692.1402
477646.083
477594.2332
477536.2235
477470.6013
477406.7204
443974.567
445948.1345
445928.3691
446275.3186
446893.8318
447649.525
448536.7335
449536.999
450640.9868
451826.6236
453061.2574
454307.5182
455526.0179
456684.0489
457759.1767
458739.9846
459627.4327
460428.8211
461151.4821
461805.7144
462401.2126
462943.7308
463440.3621
463894.358
464309.1941
464686.7508
465028.8861
465336.9205
465611.9987
465855.5011
466068.5232
466252.685
466409.3702
466540.3981
466647.4905
466732.403
466797.0771
466843.3673
466873.0654
466887.8856
466889.5257
466879.557
466859.4228
466830.4447
466793.8584
466750.8697
466702.4089
466648.0898
466586.5093
466526.4651
433525.6602
435457.5607
435426.8991
435760.9824
436357.0739
437083.3295
437935.8335
438906.9455
439979.2504
441135.2733
442346.1672
443576.698
444788.2306
445946.9692
447027.5546
448016.748
448914.146
449722.1728
450447.5196
451101.9489
451693.2181
452228.4036
452714.6668
453155.9289
453556.5781
453918.7258
454245.2091
454537.4358
454797.3296
455026.3513
455226.0599
455398.1756
455544.2281
455666.1168
455765.5722
455844.3226
455904.2441
455947.0921
455974.5354
455988.2005
455989.6464
455980.3125
455961.5168
455934.4627
455900.2745
455860.0501
455814.6309
455763.6167
455705.6518
455649.0391
423093.6461
424976.3906
424939.3908
425263.0099
425834.2322
426536.9094
427356.6683
428298.4312
429342.1992
430469.2097
431654.9773
432866.9196
434067.148
435220.7577
436301.2592
437295.3418
438197.2331
439007.6915
439733.9261
440386.2255
440971.7491
441499.2966
441975.1138
442404.3337
442791.5845
443139.5786
443451.6447
443729.5927
443975.7977
444191.8613
444379.784
444541.2855
444678.0229
444791.9399
444884.7502
444958.2005
445014.0677
445054.0121
445079.5891
445092.3525
445093.7359
445085.0611
445067.536
445042.261
445010.2632
444972.5475
444929.8779
444881.8452
444827.139
444773.6185
412669.4151
414505.5552
414470.3562
414780.5507
415326.8396
416009.0537
416801.2487
417709.9004
418725.4319
419825.8301
420986.0018
422176.6939
423360.7074
424504.421
425581.6955
426575.67
427477.4454
428286.6172
429011.6244
429659.831
430238.6477
430757.8133
431223.0088
431640.6633
432015.1072
432350.0802
432648.937
432913.955
433147.8119
433352.3388
433529.7571
433681.8188
433810.4024
433917.3651
434004.3927
434073.2757
434125.6785
434163.1768
434187.2346
434199.312
434200.7414
434192.7442
434176.4316
434152.8135
434122.8321
434087.4104
434047.2461
434001.9242
433950.1786
433899.4673
402259.9545
404049.3535
404014.466
404310.4454
404836.9883
405494.9057
406262.4892
407141.045
408125.5647
409197.8051
410332.8372
411500.6631
412666.8659
413798.7226
414868.9523
415857.6244
416754.8796
417560.6991
418281.5565
418923.3815
419495.0443
420005.1388
420459.7587
420866.0567
421228.2929
421551.1331
421837.694
422091.016
422313.7329
422507.9323
422675.9716
422819.6548
422941.056
423041.9315
423123.9469
423188.8817
423238.3189
423273.7535
423296.5735
423308.148
423309.7184
423302.4169
423287.2696
423265.207
423237.0965
423203.7902
423165.9272
423123.0909
423074.0579
423025.9206
391872.3285
393606.6023
393569.4626
393849.3781
394359.9713
394991.8187
395738.1025
396590.034
397544.4025
398586.7438
399695.5478
400839.7591
401987.0101
403103.9999
404162.2459
405141.5102
406030.6212
406830.7255
407544.7502
408178.3954
408741.7892
409242.0285
409686.3143
410081.4679
410432.1792
410743.5126
411018.6719
411261.2737
411473.7846
411658.7265
411818.3926
411954.6765
412069.7041
412165.2226
412242.875
412304.3937
412351.2911
412384.9735
412406.7953
412418.0261
412419.8214
412413.2335
412399.2137
412378.6229
412352.2632
412320.9238
412285.1933
412244.6558
412198.1302
412152.3723
381499.1792
383174.148
383134.3176
383402.1885
383896.6909
384503.795
385225.8168
386053.4876
386980.2922
387994.4023
389075.6428
390194.9456
391319.9759
392418.134
393460.7265
394426.4247
395305.856
396096.964
396801.5322
397426.2067
397979.9061
398469.5431
398903.4542
399287.5316
399627.319
399927.803
400192.4717
400425.1139
400628.28
400804.8494
400956.9852
401086.6704
401196.0362
401286.8025
401360.6471
401419.2094
401463.9349
401496.1507
401517.1788
401528.1991
401530.2898
401524.4316
401511.5092
401492.3219
401467.6142
401438.1197
401404.3827
401365.9903
401321.8034
401278.2652
371142.0697
372751.982
372708.8195
372970.2704
373445.4962
374031.0242
374725.0649
375529.87
376429.6835
377415.3744
378468.7311
379561.7307
380662.8047
381739.6649
382763.0802
383713.1534
384580.5074
385359.7448
386052.5782
386667.1007
387210.1574
387688.8901
388112.0192
388485.051
388814.3452
389104.4342
389359.3367
389582.7811
389777.4656
389946.3599
390091.6207
390215.4161
390319.7429
390406.2882
390476.7923
390532.7838
390575.6499
390606.6582
390627.0662
390637.9873
390640.4326
390635.3186
390623.47
390605.6312
390582.495
390554.7459
390522.8887
390486.5162
390444.5307
390403.0825
360795.1345
362335.5644
362296.5546
362550.1017
363002.8899
363570.7091
364238.5892
365015.9281
365891.6786
366849.5325
367874.3484
368939.8493
370015.0441
371067.411
372069.6161
373002.8936
373854.4989
374619.1309
375299.1746
375901.7992
376432.8017
376900.5347
377312.6567
377674.8608
377993.8338
378273.9089
378519.6455
378734.4845
378921.3636
379083.227
379222.2346
379340.7091
379440.5211
379523.3345
379590.8847
379644.6277
379685.8865
379715.8926
379735.8317
379746.7532
379749.6076
379745.2534
379734.462
379717.9282
379696.2993
379670.2156
379640.1469
379605.6935
379565.7991
379526.3367
350459.5954
351932.0713
351900.5171
352143.3393
352574.4812
353123.4618
353767.0599
354514.1426
355362.2758
356294.2614
357291.0676
358327.4896
359374.1598
360400.7221
361380.9801
362294.3442
363127.5682
363875.316
364541.5387
365130.7913
365648.8128
366104.9815
366505.697
366857.349
367166.2085
367436.7331
367673.6899
367880.3556
368060.0209
368215.4183
368348.7545
368462.363
368558.09
368637.5706
368702.4966
368754.2642
368794.1265
368823.3054
368842.9044
368853.9122
368857.2234
368853.6444
368843.8983
368828.6359
368808.4636
368783.9818
368755.6293
368723.0154
368685.1249
368647.5662
353129.2825
353779.81
354354.219
354859.0726
355302.8387
355691.7327
356032.8974
356331.7593
356593.1332
356821.6593
357020.615
357193.4976
357342.8541
357470.9821
357580.1354
357672.1097
357748.6009
357811.1891
357861.2181
357899.8838
357928.3814
357947.7468
357958.9129
357962.7224
357959.9339
357951.2263
357937.2103
357918.4555
357895.527
357868.8351
357837.9995
357802.0461
357766.3282
)
;

boundaryField
{
    front_top
    {
        type            wedge;
    }
    front_middle
    {
        type            wedge;
    }
    front_bottom
    {
        type            wedge;
    }
    back_top
    {
        type            wedge;
    }
    back_middle
    {
        type            wedge;
    }
    back_bottom
    {
        type            wedge;
    }
    axis_top
    {
        type            symmetryPlane;
    }
    axis_middle
    {
        type            symmetryPlane;
    }
    axis_bottom
    {
        type            symmetryPlane;
    }
    wall_top
    {
        type            fixedFluxPressure;
        gradient        nonuniform 0();
        value           nonuniform 0();
    }
    wall_middle
    {
        type            fixedFluxPressure;
        gradient        nonuniform 0();
        value           nonuniform 0();
    }
    wall_bottom
    {
        type            fixedFluxPressure;
        gradient        uniform 0;
        value           nonuniform List<scalar> 
23
(
597674.0754
586656.3392
575665.0533
564695.7819
553745.1095
542809.9819
531887.8858
520976.6448
510074.4058
499179.5633
488290.7355
477406.7204
466526.4651
455649.0391
444773.6185
433899.4673
423025.9206
412152.3723
401278.2652
390403.0825
379526.3367
368647.5662
357766.3282
)
;
    }
    inlet
    {
        type            zeroGradient;
    }
    outlet
    {
        type            fixedValue;
        value           nonuniform 0();
    }
    procBoundary1to0
    {
        type            processor;
        value           nonuniform List<scalar> 
51
(
340143.6885
341545.9653
341516.3758
341744.7996
342159.7439
342683.851
343306.8152
344027.2991
344843.9711
345747.2612
346714.8923
347721.9726
348740.1596
349740.6232
350696.5474
351587.0763
352399.3191
352399.3191
342381.2346
343014.2186
343572.3544
344063.5193
344494.4526
344871.4675
345201.9035
345490.7278
345743.272
345963.7013
346155.3794
346321.795
346465.4273
346588.7405
346693.7878
346782.3137
346856.089
346916.572
346965.0571
347002.6956
347030.6326
347049.8524
347061.237
347065.5814
347063.5994
347055.9277
347043.1366
347025.7666
347004.3545
346979.2834
346950.1817
346916.1163
346882.1928
)
;
    }
    procBoundary1to2
    {
        type            processor;
        value           nonuniform List<scalar> 
51
(
597091.1715
598846.581
599546.463
600743.2709
602194.6727
603635.3743
604889.6749
605887.3174
606618.4606
607123.4473
607465.5964
607704.1416
607886.7338
608049.7851
608222.8182
608427.2583
608676.1987
608978.2775
609342.286
609769.4136
610259.8028
610811.9982
611420.8829
612081.1866
612784.2832
613521.2586
614280.9053
615051.2516
615819.2981
616571.5361
617294.7673
617976.1496
618604.4789
619170.035
608651.1238
608651.1238
609016.3084
609312.1308
609539.7775
609702.1086
609803.4542
609849.0911
609844.9191
609797.135
609712.0365
609595.8703
609454.8338
609294.2075
609115.0342
608914.9509
608722.7208
)
;
    }
}


// ************************************************************************* //
