/*--------------------------------*- C++ -*----------------------------------*\
  =========                 |
  \\      /  F ield         | OpenFOAM: The Open Source CFD Toolbox
   \\    /   O peration     | Website:  https://openfoam.org
    \\  /    A nd           | Version:  7
     \\/     M anipulation  |
\*---------------------------------------------------------------------------*/
FoamFile
{
    version     2.0;
    format      ascii;
    class       surfaceScalarField;
    location    "0.0015";
    object      phi;
}
// * * * * * * * * * * * * * * * * * * * * * * * * * * * * * * * * * * * * * //

dimensions      [1 0 -1 0 0 0 0];

internalField   nonuniform List<scalar> 
2260
(
-7.431227958e-15
5.766866972e-11
-2.912014259e-14
1.687354396e-10
-6.410536646e-14
2.735748705e-10
-1.115891329e-13
3.724235866e-10
-1.713001879e-13
4.655121547e-10
-2.436767823e-13
5.530639291e-10
-3.303871293e-13
6.352944681e-10
-4.342581096e-13
7.124105416e-10
-5.592630454e-13
7.846100504e-10
-7.104620473e-13
8.520817253e-10
-8.937571146e-13
9.150049534e-10
-1.115705583e-12
9.735496294e-10
-1.383360208e-12
1.027875879e-09
-1.704094411e-12
1.078133764e-09
-2.085359117e-12
1.124462658e-09
-2.53454997e-12
1.166990963e-09
-3.058745543e-12
1.205835326e-09
-3.664265383e-12
1.24109996e-09
-4.356238657e-12
1.272875358e-09
-5.138477708e-12
1.301237999e-09
-6.012498749e-12
1.326248715e-09
-6.977408602e-12
1.347951169e-09
-8.029018529e-12
1.366370905e-09
-9.159415848e-12
1.381512947e-09
-1.035623755e-11
1.393360721e-09
-1.160236886e-11
1.401872847e-09
-1.287528639e-11
1.406982535e-09
-1.414729499e-11
1.408594401e-09
-1.538524849e-11
1.406583251e-09
-1.65516179e-11
1.400792858e-09
-1.760499461e-11
1.391034774e-09
-1.850209003e-11
1.377088984e-09
-1.919923496e-11
1.358704698e-09
1.335603232e-09
-8.549311439e-15
5.767721903e-11
-3.349955852e-14
1.687603898e-10
-7.373832949e-14
2.736151093e-10
-1.282607918e-13
3.72478109e-10
-1.963829955e-13
4.655802769e-10
-2.780192658e-13
5.531455654e-10
-3.74011354e-13
6.353904602e-10
-4.863456279e-13
7.125228759e-10
-6.181336224e-13
7.847418384e-10
-7.735437962e-13
8.522371355e-10
-9.576648228e-13
9.151890744e-10
-1.176273199e-12
9.737682377e-10
-1.43564624e-12
1.028135252e-09
-1.742334252e-12
1.078440452e-09
-2.103051579e-12
1.124823376e-09
-2.524421453e-12
1.167412333e-09
-3.012797933e-12
1.206323702e-09
-3.573638311e-12
1.241660801e-09
-4.211497015e-12
1.273513217e-09
-4.929543602e-12
1.301956046e-09
-5.728787098e-12
1.327047958e-09
-6.608060832e-12
1.348830443e-09
-7.562924763e-12
1.367325769e-09
-8.585680897e-12
1.382535703e-09
-9.664299475e-12
1.39443934e-09
-1.078262972e-11
1.402991177e-09
-1.191949968e-11
1.408119405e-09
-1.304928312e-11
1.409724184e-09
-1.414161167e-11
1.40767558e-09
-1.516252408e-11
1.40181377e-09
-1.607499219e-11
1.391947242e-09
-1.684081738e-11
1.37785481e-09
-1.742199688e-11
1.359285878e-09
-1.778324448e-11
1.33596448e-09
-1.789383209e-11
1.307591814e-09
-1.773023512e-11
1.273851716e-09
-1.727789715e-11
1.234416638e-09
-1.653325064e-11
1.188953488e-09
-1.550506421e-11
1.137131297e-09
-1.421508295e-11
1.078627806e-09
-1.269839076e-11
1.013136194e-09
-1.100302737e-11
9.403719913e-10
-9.189151762e-12
8.600790516e-10
-7.327583986e-12
7.720341612e-10
-5.498130446e-12
6.760514986e-10
-3.787602054e-12
5.719854565e-10
-2.287718916e-12
4.597326629e-10
-1.092991601e-12
3.392323014e-10
-2.987786435e-13
2.104637192e-10
7.343614817e-11
-9.494864497e-15
5.76867139e-11
-3.721214767e-14
1.687881071e-10
-8.193071857e-14
2.736598279e-10
-1.4251519e-13
3.725386935e-10
-2.179790505e-13
4.656557408e-10
-3.078852739e-13
5.532354716e-10
-4.12404292e-13
6.354949792e-10
-5.328061701e-13
7.126432778e-10
-6.713764728e-13
7.848804087e-10
-8.314760993e-13
8.523972351e-10
-1.017392395e-12
9.153749907e-10
-1.234141644e-12
9.73984987e-10
-1.487277242e-12
1.028388387e-09
-1.782659169e-12
1.078735834e-09
-2.12629443e-12
1.125167011e-09
-2.524164806e-12
1.167810203e-09
-2.981799338e-12
1.206781337e-09
-3.504035648e-12
1.242183037e-09
-4.094882609e-12
1.274104064e-09
-4.756810693e-12
1.302617974e-09
-5.490494622e-12
1.327781642e-09
-6.294371499e-12
1.349634319e-09
-7.163943914e-12
1.368195341e-09
-8.091607811e-12
1.383463367e-09
-9.065839748e-12
1.395413572e-09
-1.007131276e-11
1.40399665e-09
-1.10883038e-11
1.409136396e-09
-1.209306452e-11
1.410728945e-09
-1.305794892e-11
1.408640464e-09
-1.395218671e-11
1.402708008e-09
-1.474283103e-11
1.392737886e-09
-1.539610877e-11
1.378508087e-09
-1.587904092e-11
1.35976881e-09
-1.616133875e-11
1.336246778e-09
-1.621719475e-11
1.30764767e-09
-1.602742578e-11
1.273661947e-09
-1.558090231e-11
1.233970114e-09
-1.487622495e-11
1.188248811e-09
-1.392272999e-11
1.136177803e-09
-1.274097858e-11
1.077446055e-09
-1.136298082e-11
1.011758196e-09
-9.831844929e-12
9.388408554e-10
-8.200970534e-12
8.584481773e-10
-6.532867794e-12
7.703660585e-10
-4.897731474e-12
6.744163623e-10
-3.371796459e-12
5.704595215e-10
-2.035600772e-12
4.583964673e-10
-9.722320935e-13
3.381689328e-10
-2.657212271e-13
2.097572082e-10
7.317042674e-11
-1.028064231e-14
5.769699454e-11
-4.030105208e-14
1.688181275e-10
-8.877715468e-14
2.73708304e-10
-1.544505665e-13
3.726043669e-10
-2.361713806e-13
4.657374616e-10
-3.332204888e-13
5.533325207e-10
-4.45349108e-13
6.356071078e-10
-5.731472863e-13
7.127710759e-10
-7.182150416e-13
7.850254764e-10
-8.831426911e-13
8.525621627e-10
-1.071457345e-12
9.155633054e-10
-1.28745541e-12
9.74200985e-10
-1.536009288e-12
1.028636941e-09
-1.822321117e-12
1.079022146e-09
-2.151795329e-12
1.125496485e-09
-2.529730343e-12
1.168188138e-09
-2.960958999e-12
1.207212566e-09
-3.449783297e-12
1.242671861e-09
-3.999646258e-12
1.274653927e-09
-4.612435622e-12
1.303230763e-09
-5.288539366e-12
1.328457746e-09
-6.025971858e-12
1.350371752e-09
-6.820301394e-12
1.368989671e-09
-7.663942567e-12
1.384307008e-09
-8.545992358e-12
1.396295622e-09
-9.451841333e-12
1.404902499e-09
-1.03632483e-11
1.410047803e-09
-1.125819489e-11
1.411623892e-09
-1.211160984e-11
1.409493879e-09
-1.289562946e-11
1.403492027e-09
-1.358098721e-11
1.393423244e-09
-1.413781081e-11
1.379064911e-09
-1.453749973e-11
1.360168499e-09
-1.475397417e-11
1.336463252e-09
-1.476555367e-11
1.307659249e-09
-1.455655031e-11
1.273452944e-09
-1.41185283e-11
1.233532092e-09
-1.345168975e-11
1.187581973e-09
-1.256554673e-11
1.13529166e-09
-1.147941272e-11
1.076359921e-09
-1.02224772e-11
1.010501261e-09
-8.833515731e-12
9.37451894e-10
-7.3601039e-12
8.569747655e-10
-5.857685434e-12
7.6886364e-10
-4.388347087e-12
6.72947024e-10
-3.019449699e-12
5.690906241e-10
-1.822180318e-12
4.571991979e-10
-8.70093644e-13
3.372168461e-10
-2.377796995e-13
2.091248941e-10
7.293264686e-11
-1.091887053e-14
5.770791341e-11
-4.281797304e-14
1.688500266e-10
-9.436540184e-14
2.737598514e-10
-1.642109542e-13
3.726742125e-10
-2.511428771e-13
4.658243935e-10
-3.541946492e-13
5.534355725e-10
-4.728626382e-13
6.357257758e-10
-6.072099049e-13
7.129054232e-10
-7.582234231e-13
7.851764899e-10
-9.278255264e-13
8.527317648e-10
-1.118830206e-12
9.157543101e-10
-1.334842214e-12
9.74416997e-10
-1.580077448e-12
1.028882177e-09
-1.859145234e-12
1.079301213e-09
-2.176844976e-12
1.125814185e-09
-2.537789577e-12
1.168549083e-09
-2.946294475e-12
1.207621071e-09
-3.406172671e-12
1.243131739e-09
-3.920209743e-12
1.275167964e-09
-4.489908636e-12
1.303800462e-09
-5.115316454e-12
1.329083154e-09
-5.794148591e-12
1.351050584e-09
-6.522010919e-12
1.369717533e-09
-7.291400857e-12
1.385076398e-09
-8.09200072e-12
1.397096222e-09
-8.909953337e-12
1.405720452e-09
-9.728376136e-12
1.410866226e-09
-1.052695448e-11
1.41242247e-09
-1.128290747e-11
1.410249832e-09
-1.197111192e-11
1.404180232e-09
-1.256549234e-11
1.394017624e-09
-1.303969074e-11
1.379539109e-09
-1.336881106e-11
1.360497619e-09
-1.353039493e-11
1.336624836e-09
-1.350620483e-11
1.307635059e-09
-1.32833399e-11
1.273230079e-09
-1.285549774e-11
1.23310425e-09
-1.222403023e-11
1.186950505e-09
-1.139840286e-11
1.134466032e-09
-1.039667491e-11
1.075358193e-09
-9.245480388e-12
1.009350066e-09
-7.979776731e-12
9.361861903e-10
-6.642142758e-12
8.556371315e-10
-5.281996717e-12
7.67503494e-10
-3.954563011e-12
6.716195903e-10
-2.719724296e-12
5.678557854e-10
-1.640809537e-12
4.561202831e-10
-7.833732024e-13
3.363594098e-10
-2.140816782e-13
2.085556025e-10
7.2718565e-11
-1.142561896e-14
5.771933903e-11
-4.481579645e-14
1.688834168e-10
-9.879110823e-14
2.738138267e-10
-1.719682358e-13
3.727473896e-10
-2.631069574e-13
4.659155322e-10
-3.710572878e-13
5.535435228e-10
-4.951238347e-13
6.358498424e-10
-6.350522149e-13
7.130453516e-10
-7.91291747e-13
7.853327295e-10
-9.651637021e-13
8.529056368e-10
-1.158855728e-12
9.159480021e-10
-1.375324523e-12
9.746334658e-10
-1.618177249e-12
1.029125029e-09
-1.891422489e-12
1.079574459e-09
-2.199224508e-12
1.126121987e-09
-2.545668233e-12
1.168895527e-09
-2.934572279e-12
1.208009975e-09
-3.369249531e-12
1.243566417e-09
-3.851921633e-12
1.275650636e-09
-4.383812956e-12
1.304332354e-09
-4.964503634e-12
1.329663845e-09
-5.591618937e-12
1.351677699e-09
-6.260685716e-12
1.3703866e-09
-6.964446e-12
1.385780159e-09
-7.69304821e-12
1.397824824e-09
-8.433482729e-12
1.406460886e-09
-9.170057252e-12
1.411602801e-09
-9.884125565e-12
1.413136538e-09
-1.055494463e-11
1.410920651e-09
-1.1159903e-11
1.40478519e-09
-1.167573414e-11
1.394533455e-09
-1.207916767e-11
1.379942543e-09
-1.234847774e-11
1.360766929e-09
-1.246430053e-11
1.336740659e-09
-1.241124435e-11
1.307582003e-09
-1.217868759e-11
1.272997522e-09
-1.17619978e-11
1.23268756e-09
-1.116332697e-11
1.186351834e-09
-1.039196732e-11
1.133694673e-09
-9.464753572e-12
1.074430979e-09
-8.406022169e-12
1.008291335e-09
-7.247385322e-12
9.350275535e-10
-6.027112411e-12
8.544168586e-10
-4.78947292e-12
7.662658545e-10
-3.58386294e-12
6.704139803e-10
-2.463838758e-12
5.667357612e-10
-1.486098013e-12
4.551425424e-10
-7.09452868e-13
3.355827646e-10
-1.938950832e-13
2.080400445e-10
7.252466974e-11
-1.181100174e-14
5.773115003e-11
-4.633138695e-14
1.689179372e-10
-1.021568198e-13
2.738696521e-10
-1.779022314e-13
3.72823135e-10
-2.722851271e-13
4.660099151e-10
-3.840939322e-13
5.536553316e-10
-5.124597856e-13
6.359782082e-10
-6.569071303e-13
7.131897989e-10
-8.175147109e-13
7.85493337e-10
-9.950880201e-13
8.530832101e-10
-1.191241545e-12
9.161441556e-10
-1.408347833e-12
9.748505721e-10
-1.649406863e-12
1.029366088e-09
-1.917834054e-12
1.079842886e-09
-2.217246649e-12
1.1264214e-09
-2.551234479e-12
1.169229515e-09
-2.923184668e-12
1.208381925e-09
-3.335806771e-12
1.243979039e-09
-3.79095792e-12
1.276105787e-09
-4.289558105e-12
1.304830954e-09
-4.830762877e-12
1.330205049e-09
-5.412192853e-12
1.352259129e-09
-6.029227756e-12
1.371003635e-09
-6.674979976e-12
1.386425911e-09
-7.339950814e-12
1.398489795e-09
-8.012057391e-12
1.407132993e-09
-8.676614837e-12
1.412267358e-09
-9.3166256e-12
1.413776549e-09
-9.913106894e-12
1.411517132e-09
-1.04457971e-11
1.405317881e-09
-1.089382251e-11
1.394981481e-09
-1.123668096e-11
1.380285401e-09
-1.145531744e-11
1.360985566e-09
-1.153301462e-11
1.336818356e-09
-1.145672246e-11
1.307505711e-09
-1.121771624e-11
1.272758516e-09
-1.081265966e-11
1.232282504e-09
-1.024425899e-11
1.185783434e-09
-9.521531819e-12
1.132971945e-09
-8.660151981e-12
1.073569599e-09
-7.68242198e-12
1.007313605e-09
-6.61700257e-12
9.339621341e-10
-5.498445495e-12
8.532983015e-10
-4.36660874e-12
7.651340177e-10
-3.265922587e-12
6.693132941e-10
-2.244571062e-12
5.657144097e-10
-1.353631599e-12
4.542516029e-10
-6.462072222e-13
3.348753403e-10
-1.766374748e-13
2.075704746e-10
7.234803209e-11
-1.208321649e-14
5.774323324e-11
-4.740678988e-14
1.689532607e-10
-1.045595709e-13
2.739268049e-10
-1.821811495e-13
3.729007566e-10
-2.789319321e-13
4.661066659e-10
-3.936283992e-13
5.537700281e-10
-5.252421908e-13
6.36109822e-10
-6.731562292e-13
7.13337713e-10
-8.371810426e-13
7.856573619e-10
-1.017733333e-12
8.532637624e-10
-1.21591953e-12
9.163423418e-10
-1.433575582e-12
9.750682282e-10
-1.673118815e-12
1.029605632e-09
-1.937437454e-12
1.080107205e-09
-2.229643238e-12
1.126713605e-09
-2.552871581e-12
1.169552743e-09
-2.910013323e-12
1.208739067e-09
-3.303283983e-12
1.244372309e-09
-3.73425032e-12
1.276536753e-09
-4.203403867e-12
1.305300107e-09
-4.70969744e-12
1.330711343e-09
-5.25067161e-12
1.352800104e-09
-5.82164172e-12
1.371574605e-09
-6.416065866e-12
1.387020335e-09
-7.024810328e-12
1.399098539e-09
-7.636662075e-12
1.407744845e-09
-8.237891961e-12
1.412868588e-09
-8.813001594e-12
1.414351659e-09
-9.344621653e-12
1.412048752e-09
-9.814576724e-12
1.405787836e-09
-1.020410724e-11
1.395371011e-09
-1.049514151e-11
1.380576436e-09
-1.067087801e-11
1.361161302e-09
-1.071686452e-11
1.336864342e-09
-1.062198988e-11
1.307410836e-09
-1.037907834e-11
1.272515604e-09
-9.985849683e-12
1.231889275e-09
-9.445329805e-12
1.185242914e-09
-8.766221597e-12
1.132292837e-09
-7.96311536e-12
1.072766493e-09
-7.05650683e-12
1.006406996e-09
-6.072468281e-12
9.329780955e-10
-5.042336217e-12
8.522681695e-10
-4.002178162e-12
7.640938597e-10
-2.992177758e-12
6.683032937e-10
-2.055938304e-12
5.647781703e-10
-1.239753323e-12
4.534354179e-10
-5.918698692e-13
3.342274568e-10
-1.618197015e-13
2.071404243e-10
7.218621222e-11
-1.225551348e-14
5.775548876e-11
-4.809048588e-14
1.689890957e-10
-1.061065232e-13
2.73984821e-10
-1.84958831e-13
3.729796089e-10
-2.832914398e-13
4.662049985e-10
-3.999523269e-13
5.53886689e-10
-5.338446749e-13
6.362437144e-10
-6.842192349e-13
7.134880875e-10
-8.507036774e-13
7.858238463e-10
-1.033405049e-12
8.534464637e-10
-1.233030025e-12
9.165419668e-10
-1.45093349e-12
9.752861316e-10
-1.689033452e-12
1.029843731e-09
-1.949712442e-12
1.080367884e-09
-2.235599942e-12
1.126999493e-09
-2.549412528e-12
1.169866555e-09
-2.893478693e-12
1.209083133e-09
-3.269675741e-12
1.244748506e-09
-3.679282372e-12
1.27694636e-09
-4.12234598e-12
1.305743171e-09
-4.597730244e-12
1.331186727e-09
-5.102792089e-12
1.353305165e-09
-5.632948603e-12
1.372104762e-09
-6.181885447e-12
1.387569272e-09
-6.740940432e-12
1.399657594e-09
-7.299616863e-12
1.408303521e-09
-7.845179621e-12
1.413414151e-09
-8.363404499e-12
1.414869884e-09
-8.838464796e-12
1.412523813e-09
-9.253956937e-12
1.406203328e-09
-9.593061114e-12
1.395710115e-09
-9.839753604e-12
1.380823128e-09
-9.979206704e-12
1.361300755e-09
-9.998912596e-12
1.336884048e-09
-9.889310233e-12
1.307301234e-09
-9.644517334e-12
1.272270811e-09
-9.263088571e-12
1.231507846e-09
-8.748239024e-12
1.184728064e-09
-8.108327497e-12
1.131652926e-09
-7.35694545e-12
1.072015111e-09
-6.512960893e-12
1.005563012e-09
-5.600201207e-12
9.320653359e-10
-4.647210582e-12
8.513151789e-10
-3.686790111e-12
7.631334392e-10
-2.755477337e-12
6.67371981e-10
-1.892952925e-12
5.639156459e-10
-1.1414198e-12
4.526838848e-10
-5.449746747e-13
3.336310117e-10
-1.490381019e-13
2.067444876e-10
7.203717395e-11
-1.233808196e-14
5.776782684e-11
-4.842329274e-14
1.690251809e-10
-1.068880689e-13
2.740432857e-10
-1.863781213e-13
3.730590989e-10
-2.855909321e-13
4.663042113e-10
-4.033627814e-13
5.540044608e-10
-5.386303231e-13
6.363789819e-10
-6.905087067e-13
7.136399659e-10
-8.585130625e-13
7.859918506e-10
-1.042521757e-12
8.536304724e-10
-1.242916759e-12
9.167423618e-10
-1.460651287e-12
9.755038662e-10
-1.697195868e-12
1.030080276e-09
-1.954466842e-12
1.080625154e-09
-2.234693658e-12
1.12727972e-09
-2.540054518e-12
1.170171916e-09
-2.87247438e-12
1.209415553e-09
-3.233517919e-12
1.24510955e-09
-3.624091577e-12
1.277336934e-09
-4.043949426e-12
1.306163029e-09
-4.491870158e-12
1.331634648e-09
-4.965003129e-12
1.353778298e-09
-5.458975803e-12
1.372598734e-09
-5.967569811e-12
1.388077866e-09
-6.482704067e-12
1.400172728e-09
-6.994450265e-12
1.408815267e-09
-7.4910839e-12
1.413910784e-09
-7.959463575e-12
1.415338263e-09
-8.385209389e-12
1.412949558e-09
-8.75345148e-12
1.40657157e-09
-9.049095674e-12
1.39600576e-09
-9.257874575e-12
1.381031907e-09
-9.366685221e-12
1.361409566e-09
-9.364658837e-12
1.336882022e-09
-9.243527599e-12
1.307180103e-09
-8.9984718e-12
1.272025755e-09
-8.628668511e-12
1.231138043e-09
-8.137477842e-12
1.184236873e-09
-7.532883366e-12
1.131048331e-09
-6.827562242e-12
1.07130979e-09
-6.038927751e-12
1.004774377e-09
-5.188841356e-12
9.312152495e-10
-4.30341867e-12
8.504297562e-10
-3.412636417e-12
7.62242657e-10
-2.549890175e-12
6.665092347e-10
-1.751487538e-12
5.631172432e-10
-1.056117709e-12
4.51988515e-10
-5.0431288e-13
3.330792068e-10
-1.379601499e-13
2.063781348e-10
7.189921364e-11
-1.234129449e-14
5.778016813e-11
-4.844934813e-14
1.69061289e-10
-1.069726571e-13
2.74101809e-10
-1.865775996e-13
3.731387039e-10
-2.860395777e-13
4.664036733e-10
-4.041616888e-13
5.541225829e-10
-5.399367017e-13
6.365147569e-10
-6.924537614e-13
7.13792483e-10
-8.610770524e-13
7.861604739e-10
-1.045549381e-12
8.538149447e-10
-1.246001384e-12
9.169428138e-10
-1.463052485e-12
9.757209173e-10
-1.697786442e-12
1.03031501e-09
-1.951744412e-12
1.080879112e-09
-2.226675855e-12
1.127554651e-09
-2.524297736e-12
1.170469538e-09
-2.846205049e-12
1.20973746e-09
-3.193676673e-12
1.245457022e-09
-3.567181606e-12
1.277710439e-09
-3.966309836e-12
1.306562157e-09
-4.389691539e-12
1.33205803e-09
-4.834376379e-12
1.354222983e-09
-5.296164109e-12
1.373060522e-09
-5.768943576e-12
1.388550645e-09
-6.245202363e-12
1.400648987e-09
-6.715514184e-12
1.409285579e-09
-7.169124119e-12
1.414364394e-09
-7.593824171e-12
1.415762963e-09
-7.976596528e-12
1.413332331e-09
-8.303855503e-12
1.406898829e-09
-8.562090775e-12
1.396263995e-09
-8.738504311e-12
1.381208321e-09
-8.821503342e-12
1.361492565e-09
-8.801573001e-12
1.336862092e-09
-8.671584792e-12
1.307050114e-09
-8.42756754e-12
1.271781738e-09
-8.069181455e-12
1.230779657e-09
-7.599857314e-12
1.183767549e-09
-7.027202483e-12
1.130475676e-09
-6.363081333e-12
1.070645669e-09
-5.623583158e-12
1.004034879e-09
-4.828848314e-12
9.304205146e-10
-4.002874223e-12
8.496037821e-10
-3.173187609e-12
7.614129704e-10
-2.370466164e-12
6.657065133e-10
-1.628104174e-12
5.623748812e-10
-9.817579787e-13
4.513421688e-10
-4.688824951e-13
3.325663314e-10
-1.283114503e-13
2.060375636e-10
7.177090203e-11
-1.227477404e-14
5.779244291e-11
-4.819558777e-14
1.690972098e-10
-1.064270006e-13
2.741600405e-10
-1.85685824e-13
3.732179627e-10
-2.848093696e-13
4.665027969e-10
-4.026031545e-13
5.542403767e-10
-5.380984303e-13
6.366502522e-10
-6.90416744e-13
7.139448013e-10
-8.588382399e-13
7.863288954e-10
-1.042964828e-12
8.539990713e-10
-1.242749755e-12
9.171425987e-10
-1.458554331e-12
9.759367218e-10
-1.691148593e-12
1.030547604e-09
-1.941681041e-12
1.081129645e-09
-2.211451879e-12
1.127824422e-09
-2.501853584e-12
1.17075994e-09
-2.814157183e-12
1.210049763e-09
-3.149277287e-12
1.245792142e-09
-3.507367177e-12
1.278068528e-09
-3.887911056e-12
1.306942701e-09
-4.289265154e-12
1.332459384e-09
-4.708529273e-12
1.354642247e-09
-5.141565675e-12
1.373493558e-09
-5.582510107e-12
1.38899159e-09
-6.024270792e-12
1.401090748e-09
-6.457984101e-12
1.409719293e-09
-6.873705209e-12
1.414780115e-09
-7.260133899e-12
1.416149392e-09
-7.605426598e-12
1.413677623e-09
-7.897158035e-12
1.40719056e-09
-8.123222107e-12
1.396490059e-09
-8.272053761e-12
1.381357152e-09
-8.333380559e-12
1.361553892e-09
-8.298832633e-12
1.336827544e-09
-8.162236635e-12
1.306913518e-09
-7.920348366e-12
1.27153985e-09
-7.573158364e-12
1.230432467e-09
-7.124130633e-12
1.183318522e-09
-6.580503952e-12
1.12993205e-09
-5.953408861e-12
1.070018574e-09
-5.25774616e-12
1.003339216e-09
-4.512141707e-12
9.296749102e-10
-3.738739005e-12
8.488303794e-10
-2.962930092e-12
7.606371615e-10
-2.213030494e-12
6.649566137e-10
-1.519905778e-12
5.616817565e-10
-9.165807403e-13
4.507388437e-10
-4.378389524e-13
3.320875896e-10
-1.198602056e-13
2.057195847e-10
7.165104167e-11
-1.214304216e-14
5.780458595e-11
-4.768007792e-14
1.691327468e-10
-1.053123788e-13
2.742176728e-10
-1.838242758e-13
3.732964746e-10
-2.82064775e-13
4.666010373e-10
-3.989396113e-13
5.543572516e-10
-5.334555055e-13
6.367847681e-10
-6.847803314e-13
7.140961261e-10
-8.52205012e-13
7.864963201e-10
-1.035218508e-12
8.541820848e-10
-1.233635258e-12
9.173410154e-10
-1.447597861e-12
9.761506844e-10
-1.677606763e-12
1.030777613e-09
-1.924438844e-12
1.081376477e-09
-2.189091361e-12
1.128089074e-09
-2.472609305e-12
1.171043458e-09
-2.775992258e-12
1.210353146e-09
-3.099724756e-12
1.246115874e-09
-3.443773623e-12
1.278412577e-09
-3.807487783e-12
1.307306415e-09
-4.188976354e-12
1.332840872e-09
-4.585458165e-12
1.355038729e-09
-4.992759918e-12
1.37390086e-09
-5.405357347e-12
1.389404187e-09
-5.816458232e-12
1.401501849e-09
-6.217799786e-12
1.410120634e-09
-6.600121569e-12
1.415162437e-09
-6.952996606e-12
1.416502267e-09
-7.265573255e-12
1.4139902e-09
-7.526518683e-12
1.407451506e-09
-7.724900511e-12
1.396688441e-09
-7.850266376e-12
1.381482518e-09
-7.893502636e-12
1.361597128e-09
-7.847144072e-12
1.336781185e-09
-7.705850241e-12
1.306772225e-09
-7.466986765e-12
1.271300987e-09
-7.130777421e-12
1.230096258e-09
-6.700686397e-12
1.182888431e-09
-6.183597751e-12
1.129414961e-09
-5.589953096e-12
1.069424929e-09
-4.933616163e-12
1.002682879e-09
-4.231867407e-12
9.289731615e-10
-3.505221429e-12
8.481037335e-10
-2.777200521e-12
7.599091406e-10
-2.074056154e-12
6.642534693e-10
-1.424446954e-12
5.610321473e-10
-8.591013543e-13
4.501734982e-10
-4.104699672e-13
3.316389582e-10
-1.124109383e-13
2.054215256e-10
7.153863058e-11
-1.195182503e-14
5.781653777e-11
-4.693566828e-14
1.691677307e-10
-1.036953426e-13
2.742744324e-10
-1.810884626e-13
3.733738677e-10
-2.779737021e-13
4.666979226e-10
-3.933748109e-13
5.544726527e-10
-5.262830176e-13
6.369176763e-10
-6.759255983e-13
7.142457687e-10
-8.415937172e-13
7.866619882e-10
-1.022748718e-12
8.543632398e-10
-1.219092409e-12
9.175373591e-10
-1.430582666e-12
9.763621747e-10
-1.657485156e-12
1.031004516e-09
-1.90031987e-12
1.081619312e-09
-2.159777751e-12
1.128348532e-09
-2.436644434e-12
1.171320325e-09
-2.731536866e-12
1.210648039e-09
-3.044658997e-12
1.246428996e-09
-3.375829585e-12
1.278743748e-09
-3.724125115e-12
1.30765471e-09
-4.087599835e-12
1.333204347e-09
-4.463520716e-12
1.35541465e-09
-4.847706051e-12
1.374285046e-09
-5.234979416e-12
1.38979146e-09
-5.618770754e-12
1.40188564e-09
-5.991457816e-12
1.410493321e-09
-6.344301127e-12
1.415515281e-09
-6.667750864e-12
1.416825717e-09
-6.951774548e-12
1.414274224e-09
-7.186043198e-12
1.407685774e-09
-7.36062912e-12
1.396863027e-09
-7.466081781e-12
1.381587971e-09
-7.494279052e-12
1.361625325e-09
-7.438515742e-12
1.336725422e-09
-7.29416013e-12
1.306627869e-09
-7.059054328e-12
1.271065881e-09
-6.733630936e-12
1.229770834e-09
-6.321308973e-12
1.182476109e-09
-5.82863469e-12
1.128922287e-09
-5.265414191e-12
1.068861709e-09
-4.644586403e-12
1.002062052e-09
-3.982236145e-12
9.283108112e-10
-3.297440209e-12
8.474189375e-10
-2.612075557e-12
7.592237759e-10
-1.950580657e-12
6.635919744e-10
-1.339677019e-12
5.604212437e-10
-8.080769553e-13
4.496418981e-10
-3.861804609e-13
3.312170617e-10
-1.058007999e-13
2.051411458e-10
7.143282964e-11
-1.170854263e-14
5.782824631e-11
-4.59870673e-14
1.692020092e-10
-1.016420273e-13
2.743300874e-10
-1.775623953e-13
3.734497881e-10
-2.726759791e-13
4.667930362e-10
-3.860724128e-13
5.545860491e-10
-5.16834618e-13
6.370484385e-10
-6.641600402e-13
7.143930941e-10
-8.273973788e-13
7.868252256e-10
-1.005988892e-12
8.545418313e-10
-1.199565593e-12
9.177309358e-10
-1.407958091e-12
9.765705672e-10
-1.631249393e-12
1.031227807e-09
-1.869728645e-12
1.081857791e-09
-2.123848529e-12
1.128602652e-09
-2.394123197e-12
1.171590599e-09
-2.680802172e-12
1.210934718e-09
-2.983904898e-12
1.246732099e-09
-3.303103602e-12
1.279062947e-09
-3.637186834e-12
1.307988794e-09
-3.984234334e-12
1.333551395e-09
-4.341449105e-12
1.355771865e-09
-4.704781951e-12
1.374648378e-09
-5.069297342e-12
1.390155976e-09
-5.428704426e-12
1.402245047e-09
-5.775929778e-12
1.410840547e-09
-6.102716711e-12
1.415842067e-09
-6.400326829e-12
1.417123327e-09
-6.659413466e-12
1.41453331e-09
-6.870596844e-12
1.407896958e-09
-7.024768878e-12
1.397017199e-09
-7.113385527e-12
1.381676587e-09
-7.129143088e-12
1.361641083e-09
-7.06604572e-12
1.336662325e-09
-6.920033652e-12
1.306481857e-09
-6.689330672e-12
1.270835178e-09
-6.374534453e-12
1.229456038e-09
-5.978990884e-12
1.182080565e-09
-5.508950561e-12
1.128452246e-09
-4.973603735e-12
1.068326362e-09
-4.385066543e-12
1.001473514e-09
-3.758357241e-12
9.276841019e-10
-3.11127804e-12
8.467718584e-10
-2.464250924e-12
7.585767488e-10
-1.840112827e-12
6.629678364e-10
-1.263874382e-12
5.598450053e-10
-7.624660859e-13
4.491404898e-10
-3.644729329e-13
3.308190686e-10
-9.9894115e-14
2.048765669e-10
7.133293538e-11
-1.14182766e-14
5.783966459e-11
-4.485955672e-14
1.692354505e-10
-9.918694027e-14
2.743844148e-10
-1.733220573e-13
3.735239232e-10
-2.663013275e-13
4.668860154e-10
-3.772298074e-13
5.546969776e-10
-5.05319296e-13
6.37176528e-10
-6.497685193e-13
7.145375433e-10
-8.099499554e-13
7.86985407e-10
-9.853307797e-13
8.547172122e-10
-1.175500321e-12
9.179211054e-10
-1.380197026e-12
9.767752639e-10
-1.599359755e-12
1.03144697e-09
-1.833101201e-12
1.082091532e-09
-2.081674235e-12
1.128851225e-09
-2.345254597e-12
1.17185418e-09
-2.623893894e-12
1.211213357e-09
-2.917441312e-12
1.247025646e-09
-3.225319559e-12
1.279370825e-09
-3.546180158e-12
1.308309654e-09
-3.878128606e-12
1.333883343e-09
-4.218237505e-12
1.356111974e-09
-4.562674232e-12
1.374992815e-09
-4.90664163e-12
1.390499943e-09
-5.244197149e-12
1.402582603e-09
-5.56869179e-12
1.411165041e-09
-5.872402294e-12
1.416145778e-09
-6.14724475e-12
1.41739817e-09
-6.384538379e-12
1.414770604e-09
-6.575738198e-12
1.408088158e-09
-6.712424114e-12
1.397153885e-09
-6.786862827e-12
1.381751026e-09
-6.792451136e-12
1.361646671e-09
-6.723803983e-12
1.336593677e-09
-6.577370162e-12
1.306335423e-09
-6.351643823e-12
1.270609451e-09
-6.047359722e-12
1.229151754e-09
-5.66777474e-12
1.18170098e-09
-5.218861863e-12
1.128003334e-09
-4.709241192e-12
1.067816741e-09
-4.150286769e-12
1.00091456e-09
-3.556060582e-12
9.270898758e-10
-2.943227554e-12
8.461590253e-10
-2.330914513e-12
7.579644358e-10
-1.740534201e-12
6.623774561e-10
-1.195575772e-12
5.593000468e-10
-7.21383674e-13
4.486662977e-10
-3.449244366e-13
3.304426094e-10
-9.457539364e-14
2.046262177e-10
7.123835985e-11
-1.108926334e-14
5.785075385e-11
-4.357510484e-14
1.692679363e-10
-9.636256367e-14
2.744372022e-10
-1.684417607e-13
3.735960024e-10
-2.589486933e-13
4.669765224e-10
-3.670043588e-13
5.548050332e-10
-4.919158536e-13
6.373014395e-10
-6.329800298e-13
7.146786075e-10
-7.895565079e-13
7.871419835e-10
-9.6112834e-13
8.54888784e-10
-1.147290073e-12
9.181072671e-10
-1.347714542e-12
9.769756883e-10
-1.562253395e-12
1.031661509e-09
-1.790868787e-12
1.082320148e-09
-2.03356977e-12
1.129093926e-09
-2.29031543e-12
1.172110925e-09
-2.560980296e-12
1.211484022e-09
-2.845284286e-12
1.24730995e-09
-3.142351177e-12
1.279667892e-09
-3.450789987e-12
1.308618093e-09
-3.768683291e-12
1.334201236e-09
-4.093040187e-12
1.356436331e-09
-4.420241692e-12
1.375320017e-09
-4.745567809e-12
1.390825269e-09
-5.063484576e-12
1.402900519e-09
-5.367635809e-12
1.411469192e-09
-5.650842638e-12
1.416428985e-09
-5.905580415e-12
1.417652907e-09
-6.123804847e-12
1.414988828e-09
-6.297662016e-12
1.408262015e-09
-6.419386834e-12
1.39727561e-09
-6.481978364e-12
1.381813618e-09
-6.479362441e-12
1.361644055e-09
-6.406712657e-12
1.336521028e-09
-6.260923725e-12
1.306189634e-09
-6.040684166e-12
1.270389212e-09
-5.746839838e-12
1.22885791e-09
-5.382549126e-12
1.181336689e-09
-4.953495413e-12
1.12757428e-09
-4.467804323e-12
1.06733105e-09
-3.936166752e-12
1.000382922e-09
-3.371782615e-12
9.265254916e-10
-2.790294402e-12
8.455775372e-10
-2.209667462e-12
7.573838089e-10
-1.65003871e-12
6.618178273e-10
-1.133534116e-12
5.587835423e-10
-6.840754146e-13
4.482168391e-10
-3.271743184e-13
3.300857083e-10
-8.974601656e-14
2.043887893e-10
7.11486137e-11
-1.072315038e-14
5.7861477e-11
-4.213845142e-14
1.692993516e-10
-9.320432111e-14
2.744882681e-10
-1.629909216e-13
3.73665789e-10
-2.506941431e-13
4.670642256e-10
-3.555220542e-13
5.549098612e-10
-4.768255116e-13
6.374227429e-10
-6.139998542e-13
7.148157818e-10
-7.664601699e-13
7.872944438e-10
-9.337020489e-13
8.550560259e-10
-1.115307755e-12
9.182888728e-10
-1.310939169e-12
9.771713198e-10
-1.5203592e-12
1.031870929e-09
-1.743387989e-12
1.082543177e-09
-1.979850706e-12
1.129330389e-09
-2.229568227e-12
1.172360643e-09
-2.49227705e-12
1.211746731e-09
-2.767469498e-12
1.247585143e-09
-3.054110774e-12
1.279954533e-09
-3.35080513e-12
1.308914787e-09
-3.655478497e-12
1.33450591e-09
-3.965223379e-12
1.356746075e-09
-4.276550724e-12
1.375631344e-09
-4.5848714e-12
1.39113359e-09
-4.885020321e-12
1.403200668e-09
-5.170880648e-12
1.411755053e-09
-5.435843819e-12
1.416693948e-09
-5.672787871e-12
1.417889851e-09
-5.874294848e-12
1.415190335e-09
-6.033104636e-12
1.408420825e-09
-6.142057101e-12
1.397384562e-09
-6.194790007e-12
1.381866351e-09
-6.185676112e-12
1.361634941e-09
-6.110377842e-12
1.336445729e-09
-5.966145167e-12
1.306045401e-09
-5.75185406e-12
1.270174921e-09
-5.468415967e-12
1.228574472e-09
-5.118888502e-12
1.180987162e-09
-4.708667826e-12
1.127164059e-09
-4.245425524e-12
1.066867808e-09
-3.739227333e-12
9.998767243e-10
-3.202490932e-12
9.259887553e-10
-2.649934166e-12
8.450249804e-10
-2.098473727e-12
7.568323485e-10
-1.567095119e-12
6.612864487e-10
-1.076693317e-12
5.582931405e-10
-6.499033639e-13
4.477900491e-10
-3.109181161e-13
3.297467231e-10
-8.532297792e-14
2.041631941e-10
7.10632906e-11
-1.032004854e-14
5.787179705e-11
-4.056093865e-14
1.693295925e-10
-8.97415709e-14
2.745374487e-10
-1.570235667e-13
3.73733071e-10
-2.416318185e-13
4.671488338e-10
-3.429115184e-13
5.550111409e-10
-4.602201567e-13
6.375400516e-10
-5.930556522e-13
7.149486173e-10
-7.409069083e-13
7.87442295e-10
-9.033179149e-13
8.552184369e-10
-1.079855434e-12
9.184654103e-10
-1.270177648e-12
9.77361642e-10
-1.473965158e-12
1.032074716e-09
-1.690936439e-12
1.082760148e-09
-1.920816155e-12
1.129560269e-09
-2.1632785e-12
1.172603105e-09
-2.417964134e-12
1.212001416e-09
-2.684097689e-12
1.247851276e-09
-2.960590512e-12