/*--------------------------------*- C++ -*----------------------------------*\
  =========                 |
  \\      /  F ield         | OpenFOAM: The Open Source CFD Toolbox
   \\    /   O peration     | Website:  https://openfoam.org
    \\  /    A nd           | Version:  7
     \\/     M anipulation  |
\*---------------------------------------------------------------------------*/
FoamFile
{
    version     2.0;
    format      ascii;
    class       volScalarField;
    location    "0.0015";
    object      thermo:alpha;
}
// * * * * * * * * * * * * * * * * * * * * * * * * * * * * * * * * * * * * * //

dimensions      [1 -1 -1 0 0 0 0];

internalField   nonuniform List<scalar> 
1167
(
0.0001192378526
0.000119226443
0.0001192019825
0.0001191658315
0.0001191187857
0.0001190615276
0.0001189905216
0.0001189078165
0.0001188159856
0.0001187156654
0.0001186074517
0.0001184832561
0.0001183503986
0.0001182003393
0.0001180436426
0.0001178809149
0.000117703626
0.0001175180974
0.0001173212833
0.0001171138975
0.0001168974447
0.0001166695752
0.0001164340174
0.0001161961805
0.0001159392254
0.0001156799701
0.0001154164512
0.0001151425505
0.000114866375
0.0001145807016
0.000114294868
0.0001140008459
0.0001137085226
0.0001134190431
0.0001192190853
0.0001192076745
0.0001191832115
0.0001191470582
0.0001191000322
0.0001190427758
0.0001189700848
0.0001188874134
0.0001187956225
0.0001186953412
0.000118586513
0.0001184613617
0.0001183269037
0.0001181769433
0.0001180203599
0.0001178577608
0.0001176789777
0.0001174936259
0.0001172953717
0.0001170882556
0.0001168704765
0.000116642979
0.0001164062618
0.00011616741
0.0001159125647
0.0001156525277
0.0001153898006
0.0001151154341
0.0001148402964
0.000114554511
0.0001142699616
0.0001139761823
0.0001136853538
0.0001133964353
0.0001131024458
0.0001128039077
0.0001125095913
0.000112222168
0.0001119310936
0.0001116465518
0.000111363147
0.0001110831486
0.0001108113072
0.0001105449491
0.0001102790548
0.0001100168286
0.0001097574855
0.0001095061597
0.0001092626115
0.0001090218185
0.000119200322
0.0001191889101
0.0001191644453
0.0001191283066
0.0001190812851
0.0001190225436
0.000118949657
0.0001188670209
0.0001187752715
0.0001186750414
0.000118564573
0.0001184394963
0.0001183034348
0.0001181535786
0.0001179971159
0.000117834356
0.0001176543962
0.0001174692346
0.0001172695767
0.0001170627455
0.0001168436796
0.000116616589
0.0001163787655
0.0001161389578
0.0001158862486
0.0001156254943
0.0001153636013
0.0001150888317
0.0001148147635
0.000114528917
0.0001142456042
0.0001139521591
0.0001136628157
0.0001133744658
0.0001130820895
0.0001127843521
0.0001124917057
0.0001122059239
0.0001119158377
0.0001116329087
0.0001113505633
0.0001110721208
0.000110801782
0.0001105365353
0.0001102720693
0.000110011002
0.0001097530322
0.0001095030312
0.0001092607647
0.00010902119
0.0001191815633
0.0001191701506
0.0001191456846
0.0001191095658
0.0001190625453
0.0001190021179
0.0001189292395
0.0001188466401
0.0001187549341
0.0001186547571
0.0001185426521
0.0001184176531
0.0001182799942
0.000118130248
0.0001179739137
0.0001178096616
0.0001176298819
0.0001174449267
0.0001172439072
0.0001170373693
0.0001168170694
0.0001165904032
0.0001163519302
0.0001161108141
0.0001158597864
0.0001155988477
0.0001153369978
0.0001150627044
0.000114788574
0.0001145038628
0.0001142207226
0.0001139287046
0.0001136408494
0.0001133530555
0.0001130622623
0.0001127653109
0.0001124742926
0.0001121898794
0.0001119009802
0.0001116196177
0.0001113382996
0.0001110613792
0.0001107924919
0.0001105283262
0.0001102652519
0.0001100053145
0.0001097486845
0.0001094999769
0.0001092589615
0.0001090205764
0.0001191628101
0.0001191513968
0.0001191269478
0.0001190908321
0.0001190438137
0.0001189817023
0.0001189088557
0.0001188262725
0.0001187346116
0.0001186344898
0.0001185207525
0.0001183958345
0.0001182565847
0.0001181069546
0.000117950774
0.0001177850256
0.000117605439
0.0001174203545
0.0001172183506
0.0001170121293
0.0001167906431
0.0001165644196
0.0001163264821
0.0001160829697
0.0001158326936
0.0001155725667
0.0001153102802
0.0001150370163
0.0001147627682
0.0001144792987
0.0001141963562
0.0001139057585
0.0001136193831
0.0001133321383
0.000113042625
0.0001127467178
0.0001124572892
0.0001121737879
0.0001118864654
0.0001116066287
0.00011132631
0.0001110508739
0.0001107834025
0.0001105202919
0.0001102585779
0.0001099997456
0.0001097444269
0.0001094969855
0.0001092571954
0.0001090199754
0.0001191440629
0.0001191326607
0.000119108221
0.0001190721065
0.0001190236989
0.0001189612978
0.0001188884848
0.0001188059316
0.0001187143056
0.0001186142412
0.0001184988761
0.0001183740427
0.0001182332092
0.0001180837148
0.0001179276893
0.0001177604522
0.0001175810718
0.0001173946217
0.00011719291
0.0001169870228
0.0001167643898
0.000116538637
0.0001163012637
0.0001160554146
0.00011580592
0.0001155466319
0.0001152839514
0.0001150117358
0.0001147374035
0.0001144551813
0.000114172456
0.000113883269
0.0001135983567
0.0001133116582
0.0001130228461
0.0001127285175
0.0001124406435
0.0001121580313
0.0001118722481
0.0001115939012
0.0001113145572
0.0001110405721
0.000110774486
0.000110512408
0.0001102520273
0.0001099942786
0.0001097402468
0.0001094940484
0.0001092554613
0.0001090193852
0.0001191253418
0.0001191139411
0.0001190895021
0.0001190533897
0.0001190032986
0.0001189409054
0.0001188681278
0.0001187856157
0.000118694031
0.0001185939189
0.0001184770252
0.0001183520904
0.0001182098863
0.0001180605297
0.0001179046565
0.0001177359454
0.0001175567911
0.0001173689903
0.0001171675897
0.0001169605068
0.0001167383099
0.0001165125083
0.0001162762697
0.0001160283427
0.0001157794519
0.0001155210296
0.0001152579878
0.0001149868406
0.0001147124457
0.0001144314766
0.0001141489794
0.0001138611918
0.0001135777248
0.0001132915679
0.0001130034455
0.0001127106644
0.0001124243126
0.0001121425685
0.0001118582913
0.0001115814023
0.0001113030109
0.0001110304476
0.0001107657199
0.000110504655
0.0001102455839
0.0001099889002
0.0001097361339
0.0001094911584
0.000109253755
0.0001090188046
0.0001191066295
0.0001190952292
0.0001190707916
0.000119034155
0.0001189829099
0.0001189205354
0.0001188477859
0.0001187653169
0.000118673785
0.0001185720398
0.0001184552226
0.0001183286992
0.000118186611
0.0001180373917
0.0001178816794
0.0001177115094
0.0001175326116
0.0001173434642
0.000117142393
0.0001169341429
0.0001167124044
0.0001164856336
0.0001162514947
0.0001160028042
0.0001157532775
0.0001154957603
0.0001152323681
0.0001149623178
0.0001146878649
0.0001144081669
0.0001141258895
0.0001138395008
0.0001135574488
0.0001132718273
0.0001129843831
0.0001126931207
0.0001124082615
0.000112127366
0.0001118445645
0.0001115691048
0.0001112916562
0.000111020479
0.0001107570862
0.0001104970169
0.0001102392348
0.0001099835997
0.0001097320802
0.0001094883098
0.0001092520731
0.0001090182322
0.0001190879252
0.0001190765258
0.0001190520904
0.0001190137715
0.0001189625336
0.0001189001927
0.0001188274601
0.0001187450368
0.0001186535603
0.000118550187
0.0001184334524
0.0001183053452
0.0001181633787
0.0001180143042
0.0001178587617
0.0001176871627
0.0001175085198
0.0001173180474
0.0001171173391
0.000116907933
0.0001166866735
0.0001164589656
0.0001162269351
0.0001159775142
0.0001157273848
0.000115470788
0.0001152070733
0.0001149381266
0.0001146636348
0.0001143852042
0.0001141031547
0.0001138181588
0.0001135374962
0.0001132524049
0.0001129656253
0.0001126758546
0.0001123924763
0.0001121123958
0.000111831043
0.0001115569867
0.0001112804648
0.0001110106491
0.0001107485701
0.0001104894811
0.0001102329694
0.0001099783684
0.0001097280791
0.000109485498
0.0001092504129
0.0001090176672
0.0001190692297
0.0001190578315
0.000119032756
0.0001189933999
0.0001189421706
0.0001188798652
0.0001188071625
0.0001187247764
0.0001186333582
0.0001185283622
0.0001184117143
0.0001182820311
0.0001181401928
0.0001179912706
0.0001178356973
0.0001176629054
0.0001174845192
0.0001172927432
0.0001170924237
0.0001168818787
0.0001166611324
0.0001164325026
0.000116202376
0.0001159524655
0.000115701763
0.000115446099
0.000115182086
0.0001149142472
0.000114639732
0.0001143625636
0.0001140807476
0.00011379713
0.000113517839
0.0001132332872
0.000112947144
0.0001126588399
0.000112376917
0.0001120976353
0.0001118177063
0.0001115450301
0.0001112694189
0.0001110009439
0.0001107401597
0.0001104820371
0.0001102267793
0.0001099731993
0.0001097241253
0.0001094827193
0.0001092487722
0.0001090171088
0.0001190505436
0.0001190390223
0.0001190123904
0.0001189730409
0.0001189218295
0.0001188595537
0.0001187868938
0.000118704539
0.0001186131803
0.0001185065674
0.0001183900107
0.00011825876
0.0001181170566
0.0001179682948
0.0001178112886
0.00011763873
0.0001174606134
0.0001172675666
0.0001170676398
0.0001168559817
0.0001166357753
0.0001164062438
0.0001161753762
0.0001159276504
0.0001156764212
0.0001154216808
0.0001151574054
0.0001148906619
0.000114616144
0.0001143402234
0.0001140586446
0.0001137763906
0.0001134984538
0.0001132144335
0.0001129289155
0.0001126420546
0.0001123615634
0.0001120830656
0.0001118045377
0.0001115332203
0.0001112585052
0.0001109913522
0.0001107318456
0.0001104746769
0.0001102206579
0.0001099680869
0.0001097202145
0.0001094799708
0.0001092471493
0.0001090165565
0.0001190310865
0.0001190186641
0.0001189920369
0.0001189526952
0.000118901518
0.0001188392592
0.0001187666446
0.0001186843442
0.0001185928522
0.0001184848045
0.0001183683438
0.0001182355343
0.0001180939754
0.0001179454027
0.0001177869546
0.0001176146401
0.0001174368053
0.0001172425218
0.0001170429895
0.000116830245
0.0001166105927
0.0001163801864
0.0001161486042
0.0001159030632
0.0001156513357
0.0001153975222
0.000115133011
0.000114867355
0.0001145928602
0.0001143181646
0.0001140368378
0.0001137559201
0.0001134793206
0.0001131958237
0.0001129109203
0.0001126254806
0.0001123463991
0.0001120686713
0.0001117915237
0.0001115211592
0.0001112477127
0.0001109818645
0.0001107236198
0.0001104673935
0.0001102145995
0.0001099630268
0.0001097163434
0.0001094772501
0.0001092455428
0.0001090160098
0.0001190107378
0.0001189983179
0.0001189716962
0.0001189323635
0.0001188812222
0.0001188189828
0.000118746416
0.0001186641733
0.0001185710602
0.0001184630876
0.0001183461003
0.0001182123698
0.0001180709711
0.000117922575
0.0001177626987
0.0001175906394
0.0001174122413
0.000117217598
0.0001170184746
0.000116804691
0.000116585584
0.0001163545748
0.0001161220559
0.0001158786986
0.0001156264938
0.0001153736132
0.0001151088821
0.0001148443127
0.0001145698496
0.0001142963708
0.0001140153057
0.0001137357011
0.0001134604224
0.0001131774409
0.0001128931418
0.000112609115
0.0001123314104
0.0001120544397
0.0001117786531
0.0001115091477
0.0001112370329
0.0001109724737
0.0001107154764
0.0001104601818
0.0001102086
0.0001099580152
0.0001097125093
0.0001094745552
0.0001092439516
0.0001090154683
0.0001189904014
0.0001189779843
0.000118951369
0.0001189120653
0.0001188609432
0.0001187987451
0.0001187262092
0.0001186440273
0.0001185492993
0.0001184414168
0.0001183228629
0.0001181892655
0.0001180480246
0.0001178998136
0.0001177385239
0.0001175667309
0.0001173870697
0.0001171927975
0.0001169940964
0.0001167792963
0.0001165607479
0.0001163303827
0.000116095728
0.0001158537589
0.0001156018882
0.000115349756
0.0001150850075
0.0001148215227
0.0001145470984
0.0001142748279
0.0001139940246
0.0001137157193
0.0001134409364
0.0001131592703
0.0001128755658
0.000112592936
0.0001123165858
0.0001120403603
0.0001117659167
0.0001114972582
0.0001112264589
0.0001109631738
0.0001107074103
0.0001104530375
0.0001102026559
0.0001099530496
0.0001097087102
0.0001094718849
0.0001092423748
0.0001090149317
0.0001189700777
0.0001189576639
0.000118931056
0.0001188917865
0.0001188406817
0.0001187785289
0.0001187060255
0.0001186239076
0.000118527571
0.0001184197833
0.0001182996717
0.000118166214
0.0001180251386
0.0001178771213
0.0001177144332
0.0001175429377
0.0001173620113
0.0001171681226
0.0001169687812
0.000116754061
0.0001165360838
0.000116306374
0.0001160696167
0.0001158284979
0.0001155775125
0.0001153250882
0.0001150613773
0.0001147982807
0.0001145245942
0.0001142535231
0.0001139729813
0.0001136959613
0.0001134216266
0.0001131413
0.0001128581808
0.0001125769296
0.000112301916
0.0001120264243
0.0001117533069
0.0001114854841
0.0001112159852
0.0001109539603
0.0001106994176
0.0001104459573
0.0001101967645
0.0001099481276
0.0001097049442
0.0001094692378
0.0001092408117
0.0001090143998
0.0001189497676
0.0001189373575
0.000118910778
0.0001188715241
0.0001188204386
0.0001187583337
0.0001186858875
0.0001186038153
0.0001185058767
0.0001183981889
0.0001182765286
0.0001181432176
0.0001180023154
0.0001178545003
0.0001176904401
0.0001175192449
0.0001173370683
0.0001171435753
0.0001169431784
0.0001167289855
0.00011651096
0.0001162825464
0.0001160437177
0.0001158034562
0.0001155533604
0.0001153006576
0.0001150379833
0.0001147748485
0.0001145023266
0.0001142317557
0.0001139521638
0.0001136764158
0.0001134025235
0.0001131235201
0.0001128409772
0.000112561087
0.0001122873932
0.0001120126248
0.0001117408289
0.00011147382
0.0001112056073
0.0001109448293
0.0001106914955
0.0001104389386
0.0001101909237
0.0001099432477
0.0001097012103
0.0001094666132
0.0001092392619
0.0001090138723
0.0001189294716
0.0001189170788
0.0001188905178
0.000118851279
0.0001188002331
0.0001187381603
0.0001186657746
0.0001185828074
0.0001184842178
0.0001183766351
0.0001182534357
0.0001181202784
0.0001179795575
0.0001178314624
0.0001176665496
0.0001174956512
0.0001173122426
0.0001171191714
0.0001169177244
0.0001167040701
0.0001164852114
0.000116258897
0.0001160187797
0.000115778629
0.0001155294262
0.000115276457
0.0001150148173
0.000114751651
0.0001144802866
0.0001142099027
0.0001139315625
0.0001136570732
0.0001133836176
0.0001131059218
0.0001128239577
0.0001125454011
0.000112273011
0.000111998956
0.0001117284673
0.0001114622617
0.0001111953215
0.000110935778
0.0001106836413
0.0001104319795
0.000110185132
0.0001099384084
0.0001096975073
0.0001094640103
0.0001092377249
0.0001090133493
0.0001189092121
0.0001188968245
0.0001188702741
0.0001188310518
0.0001187800508
0.0001187180099
0.0001186456879
0.0001185611142
0.0001184626087
0.0001183551237
0.000118230395
0.0001180973987
0.0001179568783
0.0001178073932
0.0001176427498
0.0001174721585
0.0001172875359
0.0001170949081
0.0001168924197
0.0001166793145
0.0001164596416
0.000116235424
0.0001159946778
0.000115754012
0.0001155057236
0.0001152524801
0.0001149918735
0.0001147286805
0.000114458466
0.0001141882694
0.0001139111691
0.000113637944
0.0001133649011
0.0001130884978
0.0001128071098
0.0001125298656
0.000112258764
0.0001119854133
0.0001117162173
0.0001114508056
0.0001111851251
0.000110926804
0.0001106758533
0.0001104250782
0.0001101793881
0.0001099336088
0.0001096938346
0.0001094614286
0.0001092362004
0.0001090128305
0.0001188889686
0.0001188765863
0.0001188500475
0.0001188108506
0.0001187598896
0.0001186978925
0.0001186256284
0.0001185394548
0.0001184410479
0.0001183320425
0.0001182074259
0.0001180746031
0.0001179342809
0.0001177834073
0.0001176190426
0.0001174487684
0.0001172629659
0.0001170707753
0.0001168672644
0.0001166547391
0.0001164342492
0.0001162121256
0.0001159707666
0.0001157296009
0.0001154822325
0.0001152287209
0.0001149691656
0.0001147059298
0.0001144368575
0.0001141668483
0.0001138909764
0.0001136190037
0.0001133463672
0.0001130712421
0.0001127904223
0.0001125144756
0.0001122446481
0.0001119719945
0.0001117040757
0.000111439449
0.0001111750157
0.0001109179055
0.00011066813
0.0001104182337
0.000110173691
0.0001099288481
0.0001096901915
0.0001094588677
0.0001092346882
0.0001090123158
0.0001188687414
0.0001188563649
0.0001188298389
0.0001187906832
0.0001187397503
0.0001186778128
0.0001186055973
0.0001185178303
0.0001184195271
0.0001183089831
0.0001181845173
0.0001180518714
0.0001179117543
0.0001177595064
0.0001175954299
0.0001174254483
0.0001172385251
0.0001170467739
0.0001168422588
0.0001166303246
0.0001164090339
0.0001161871798
0.0001159470426
0.0001157053911
0.000115458944
0.0001152051741
0.0001149466664
0.0001146833925
0.0001144154741
0.0001141456328
0.0001138709781
0.0001136002453
0.0001133280101
0.0001130541493
0.0001127738903
0.0001124992268
0.0001122306596
0.0001119587063
0.00011169204
0.0001114281898
0.0001111649917
0.0001109090811
0.0001106604702
0.0001104114451
0.00011016804
0.0001099241258
0.0001096865778
0.0001094563274
0.0001092331881
0.0001090118054
0.0001188485312
0.000118836161
0.0001188096572
0.0001187705363
0.000118719634
0.0001186577591
0.000118584804
0.0001184962419
0.0001183980475
0.0001182859741
0.0001181616658
0.0001180292043
0.0001178893004
0.0001177356925
0.0001175719136
0.0001174007277
0.0001172142062
0.0001170229042
0.0001168174174
0.0001166060683
0.0001163839941
0.0001161615062
0.000115923503
0.0001156813936
0.0001154358537
0.0001151818344
0.0001149243705
0.000114661063
0.0001143942919
0.0001141246171
0.0001138511701
0.0001135816638
0.0001133098252
0.0001130366944
0.0001127575095
0.0001124841157
0.0001122167955
0.0001119455345
0.000111680108
0.0001114170263
0.0001111550517
0.0001109003298
0.0001106528732
0.0001104047116
0.0001101624348
0.0001099194415
0.000109682993
0.0001094538075
0.0001092317001
0.000109011299
0.0001188283387
0.000118815977
0.000118789508
0.0001187504108
0.0001186995489
0.0001186377322
0.0001185631785
0.000118474691
0.0001183766103
0.000118263017
0.0001181388732
0.0001180066035
0.0001178669207
0.000117711967
0.0001175485098
0.0001173761207
0.0001171900101
0.0001169991665
0.0001167927354
0.0001165819693
0.0001163591281
0.0001161360214
0.0001159001455
0.0001156575981
0.0001154129576
0.0001151587109
0.0001149022731
0.0001146389362
0.0001143733045
0.0001141037962
0.0001138315629
0.0001135632548
0.0001132918083
0.0001130191858
0.0001127412766
0.0001124691393
0.0001122030533
0.0001119324769
0.0001116682781
0.000111405957
0.0001111451947
0.0001108916507
0.0001106453385
0.0001103980328
0.0001101568748
0.000109914795
0.0001096794371
0.0001094513078
0.000109230224
0.0001090107967
0.0001188081745
0.0001187958317
0.0001187693792
0.0001187303075
0.0001186795031
0.0001186177333
0.000118541587
0.000118453201
0.0001183552169
0.0001182401134
0.0001181161408
0.0001179840703
0.0001178446165
0.0001176883445
0.0001175252129
0.0001173516283
0.0001171659379
0.0001169748415
0.0001167682018
0.000116558026
0.0001163358202
0.0001161107236
0.0001158769677
0.0001156339938
0.0001153902521
0.0001151357939
0.00011488037
0.0001146170142
0.0001143525074
0.0001140831654
0.0001138121354
0.0001135450143
0.0001132739555
0.0001130018354
0.0001127251889
0.0001124542954
0.0001121891748
0.0001119195317
0.0001116565489
0.0001113949809
0.0001111354197
0.0001108830433
0.0001106378654
0.0001103914085
0.00011015136
0.000109910186
0.0001096759099
0.0001094488283
0.0001092287598
0.0001090102984
0.0001169499056
0.0001167438162
0.0001165342376
0.000116312701
0.0001160856108
0.0001158531425
0.0001156105773
0.0001153677339
0.0001151130715
0.0001148586572
0.0001145953005
0.0001143318964
0.0001140627206
0.0001137928837
0.0001135269387
0.0001132562635
0.0001129846404
0.0001127092441
0.0001124395822
0.0001121751075
0.0001119066976
0.0001116449193
0.000111384097
0.0001111257263
0.0001108745071
0.0001106304538
0.0001103848383
0.00011014589
0.0001099056145
0.0001096724113
0.0001094463689
0.0001092273075
0.0001090098042
)
;

boundaryField
{
    front_top
    {
        type            wedge;
    }
    front_middle
    {
        type            wedge;
    }
    front_bottom
    {
        type            wedge;
    }
    back_top
    {
        type            wedge;
    }
    back_middle
    {
        type            wedge;
    }
    back_bottom
    {
        type            wedge;
    }
    axis_top
    {
        type            symmetryPlane;
    }
    axis_middle
    {
        type            symmetryPlane;
    }
    axis_bottom
    {
        type            symmetryPlane;
    }
    wall_top
    {
        type            calculated;
        value           nonuniform 0();
    }
    wall_middle
    {
        type            calculated;
        value           nonuniform 0();
    }
    wall_bottom
    {
        type            calculated;
        value           uniform 0.0001089022317;
    }
    inlet
    {
        type            calculated;
        value           nonuniform 0();
    }
    outlet
    {
        type            calculated;
        value           nonuniform 0();
    }
    procBoundary1to0
    {
        type            processor;
        value           nonuniform List<scalar> 
51
(
0.0001187880409
0.0001187757062
0.0001187492715
0.0001187102273
0.000118659483
0.0001185977631
0.0001185200308
0.000118431751
0.0001183322713
0.0001182172726
0.0001180934732
0.0001179616127
0.0001178212184
0.0001176648239
0.0001175020156
0.0001173272512
0.00011714199
0.00011714199
0.0001169251101
0.0001167195784
0.0001165099146
0.0001162897409
0.0001160606806
0.0001158290523
0.0001155873459
0.0001153449721
0.0001150905399
0.0001148371309
0.0001145737766
0.0001143114678
0.0001140424653
0.0001137738044
0.000113509025
0.0001132387447
0.0001129675982
0.0001126934401
0.0001124249978
0.0001121611621
0.0001118939736
0.0001116333885
0.0001113733049
0.0001111161139
0.0001108660418
0.0001106231035
0.0001103783222
0.000110140465
0.0001099010804
0.0001096689413
0.0001094439296
0.0001092258671
0.000109009314
)
;
    }
    procBoundary1to2
    {
        type            processor;
        value           nonuniform List<scalar> 
51
(
0.0001192566353
0.000119245215
0.0001192207573
0.0001191846093
0.0001191375446
0.0001190802856
0.0001190109665
0.0001189282288
0.0001188363792
0.0001187360142
0.0001186277444
0.0001185051835
0.0001183725579
0.0001182237645
0.0001180669615
0.0001179041145
0.0001177283586
0.0001175426464
0.0001173472988
0.0001171396759
0.0001169245834
0.0001166963979
0.0001164620384
0.0001162230659
0.0001159662464
0.0001157078562
0.0001154435859
0.0001151702247
0.0001148930519
0.0001146075531
0.0001143204561
0.0001140262322
0.0001137324092
0.0001134423827
0.0001131234097
0.0001131234097
0.0001128240572
0.0001125280249
0.0001122389106
0.0001119468156
0.000111660608
0.0001113761073
0.000111094502
0.0001108211099
0.0001105536051
0.0001102862393
0.0001100228198
0.000109762064
0.0001095093757
0.00010926451
0.0001090224645
)
;
    }
}


// ************************************************************************* //
