/*--------------------------------*- C++ -*----------------------------------*\
  =========                 |
  \\      /  F ield         | OpenFOAM: The Open Source CFD Toolbox
   \\    /   O peration     | Website:  https://openfoam.org
    \\  /    A nd           | Version:  7
     \\/     M anipulation  |
\*---------------------------------------------------------------------------*/
FoamFile
{
    version     2.0;
    format      ascii;
    class       volScalarField;
    location    "0.0015";
    object      thermo:mu;
}
// * * * * * * * * * * * * * * * * * * * * * * * * * * * * * * * * * * * * * //

dimensions      [1 -1 -1 0 0 0 0];

internalField   nonuniform List<scalar> 
1167
(
62962.71032
62423.94677
61286.79187
59649.78484
57594.68253
55203.19001
52556.6091
49731.34928
46798.53422
43821.44076
40853.77862
37940.26262
35116.50952
32409.92666
29839.59093
27418.54416
25154.01272
23049.07874
21102.09884
19309.37518
17665.2396
16161.97577
14791.66175
13545.25149
12414.09252
11388.95796
10461.43197
9623.036262
8865.943779
8182.660228
7566.303384
7010.412136
6509.068219
6056.853882
62079.34284
61549.25243
60430.39225
58819.69022
56798.42164
54445.15173
51841.52473
49061.72195
46175.69704
43245.43941
40324.25444
37456.07947
34675.82839
32010.21801
29478.33116
27093.04241
24861.78582
22787.11799
20867.75246
19100.37023
17479.00522
15996.51545
14644.82892
13415.35471
12299.33549
11287.9544
10372.69869
9545.396052
8798.170945
8123.7624
7515.257131
6966.377771
6471.191187
6024.432389
5621.122148
5256.801354
4927.447349
4629.370266
4359.307513
4114.293605
3891.658553
3689.041238
3504.347138
3335.686545
3181.378382
3039.92987
2910.018483
2790.468153
2680.236256
2578.392477
61210.47157
60688.90699
59588.02987
58003.87722
56015.15665
53700.19045
51138.01067
48402.87311
45562.8284
42678.89428
39803.45217
36979.70242
34242.0542
31616.77118
29122.75432
26772.76836
24574.29877
22529.47921
20637.48538
18895.0693
17296.23453
15834.30442
14501.05717
13288.33751
12187.28821
11189.4899
10286.33496
9469.948051
8732.410867
8066.692022
7465.856582
6923.802888
6434.597156
5993.124468
5594.409243
5234.11684
4908.24073
4613.178617
4345.734353
4102.966897
3882.269825
3681.324193
3498.079946
3330.66729
3177.441816
3036.935241
2907.846879
2789.017838
2679.420685
2578.137008
60355.86044
59842.67759
58759.47874
57201.60701
55244.68169
52967.44551
50445.8947
47754.64536
44959.78622
42121.38127
39290.90434
36510.83903
33815.10339
31229.51684
28772.80234
26457.87089
24291.46389
22276.11001
20411.29066
18693.41203
17116.95577
15675.25855
14360.2831
13164.09038
12077.86351
11093.42629
10202.24058
9396.534235
8668.555723
8011.286107
7417.981785
6882.53451
6399.168527
5962.800162
5568.536309
5212.141376
4889.62741
4597.483443
4332.564242
4091.968397
3873.146055
3673.826036
3491.980388
3325.77899
3173.605673
3034.015525
2905.728705
2787.602712
2678.624671
2577.887602
59515.27568
59010.33348
57945.27177
56412.46424
54486.79234
52246.62547
49765.7371
47116.88355
44366.43079
41572.77566
38786.50347
36049.39827
33394.89838
30848.3885
28428.67369
26148.02426
24013.23739
22027.01664
20188.97413
18495.33922
16941.07385
15519.29605
14222.47469
13042.51132
11970.97992
10999.63449
10120.25758
9325.011357
8606.408762
7957.402309
7371.451939
6842.443817
6364.770778
5933.350726
5543.413961
5190.789474
4871.533626
4582.225803
4319.744116
4081.254051
3864.251091
3666.510615
3486.024986
3321.003115
3169.855619
3031.159942
2903.656215
2786.217641
2677.845342
2577.643362
58688.48626
58192.13535
57144.53556
55636.23998
53741.98586
51537.5405
49096.62271
46489.80663
43782.62471
41032.95687
38290.14604
35595.29253
32981.36505
30473.53607
28090.14311
25843.18236
23739.57901
21782.28716
19970.48273
18300.79311
16768.44379
15366.34144
14087.44443
12923.49723
11866.45106
10907.9964
10040.22955
9255.25259
8545.838557
7904.916873
7326.149042
6803.420533
6331.29141
5904.684859
5518.96869
5169.989875
4853.898004
4567.344467
4307.230891
4070.788106
3855.555626
3659.353922
3480.194763
3316.324704
3166.180086
3028.3598
2901.62317
2784.858491
2677.080388
2577.403569
57876.09634
57387.7512
56356.91725
54872.72244
53009.48708
50840.00647
48438.37178
45873.15346
43208.60993
40501.84009
37801.73169
35148.4919
32574.7016
30104.85166
27757.0591
25543.29848
23470.5153
21541.68335
19755.77386
18109.90499
16598.99822
15216.3745
13955.10438
12806.96542
11764.17368
10818.4171
9962.044327
9187.160679
8486.733386
7853.729931
7281.971088
6765.369959
6298.6441
5876.72494
5495.116026
5149.683916
4836.67018
4552.796973
4294.989196
4060.541387
3847.035839
3652.33673
3474.474364
3311.731671
3162.569739
3025.60809
2899.624538
2783.521926
2676.327943
2577.167642
57077.07491
56596.54786
55582.2009
54121.9686
52288.94687
50154.15039
47790.81809
45266.49074
42644.11508
39979.81425
37321.61208
34709.27618
32174.68393
29742.09547
27429.36897
25248.32486
23206.11507
21305.15889
19544.79592
17922.42585
16432.67574
15069.35905
13825.36819
12692.89787
11664.05347
10730.85528
9885.60071
9120.667391
8428.99471
7803.779687
7238.829818
6728.231766
6266.755442
5849.405682
5471.799033
5129.822626
4819.808805
4538.54837
4282.990008
4050.490042
3838.679463
3645.443438
3468.851365
3307.214251
3159.01705
3022.899166
2897.65627
2782.205264
2675.58651
2576.935113
56291.14482
55818.30676
54820.17425
53384.0736
51580.16914
49479.90382
47153.79674
44669.66978
42088.75383
39466.21085
36849.27172
34277.12577
31781.10876
29385.20694
27107.01926
24958.38354
22946.13504
21072.66488
19337.6311
17738.29798
16269.41117
14925.12494
13698.16054
12581.11989
11566.00005
10645.14495
9810.806928
9055.631655
8372.535468
7754.941784
7196.648766
6691.927874
6235.562971
5822.674405
5448.969931
5110.365097
4803.295395
4524.569828
4271.209498
4040.614577
3830.464678
3638.661374
3463.315702
3302.764559
3155.515949
3020.22848
2895.715108
2780.90635
2674.854883
2576.705608
55518.08791
55052.81242
54070.94957
52658.23678
50882.9632
48816.64336
46527.47762
44082.54192
41542.39252
38960.91419
36384.56168
33851.95721
31393.90649
29034.12564
26789.99763
24673.37339
22690.5254
20844.15027
19134.16268
17557.46267
16109.23424
14783.60383
13573.41734
12471.55198
11469.9302
10561.2021
9737.579757
8991.972675
8317.278567
7707.144104
7155.361575
6656.384762
6205.013373
5796.504982
5426.588539
5091.27714
4787.084467
4510.837495
4259.62806
4030.899029
3822.37734
3631.980243
3457.859226
3298.376224
3152.061545
3017.592375
2893.798435
2779.623453
2674.132097
2576.478825
54757.68975
54299.916
53334.50007
51944.25696
50197.40177
48164.19292
45911.66801
43505.01312
41004.89941
38463.80931
35927.38327
33433.68707
31013.00719
28688.79345
26478.48488
24393.10682
22439.23277
20619.66684
18934.25634
17379.86191
15952.04328
14644.73419
13451.17395
12364.11478
11375.83625
10478.9492
9665.885953
8929.617984
8263.173083
7660.323358
7114.910561
6621.550779
6175.061094
5770.834267
5404.620967
5072.530106
4771.152118
4497.331622
4248.229543
4021.330308
3814.406939
3625.391674
3452.475333
3294.044101
3148.649893
3014.987907
2891.904148
2778.355183
2673.417377
2576.254524
54010.1341
53560.12005
52610.08317
51241.93776
49523.50572
47522.37873
45305.88343
42937.44798
40476.2052
37974.78143
35477.63745
33022.23007
30638.3781
28349.48233
26172.13168
24117.53062
22192.2031
20399.16603
18737.85557
17205.44786
15797.7177
14508.44615
13331.24157
12258.74069
11283.59111
10398.31571
9595.63742
8868.502572
8210.174932
7614.423893
7075.268152
6587.381328
6145.667102
5745.628631
5383.038606
5054.099984
4755.478482
4484.035962
4237.000851
4011.905521
3806.544707
3618.888761
3447.158622
3289.764006
3145.277807
3012.412706
2890.030557
2777.100427
2672.710101
2576.032511
53275.25036
52832.41021
51897.49727
50551.086
48860.59946
46891.03015
44709.96817
42379.1256
39956.62543
37493.98642
35035.40201
32617.72473
30270.23951
28015.78299
25870.87739
23846.59097
21949.51095
20182.47101
18544.90122
17034.30459
15646.19316
14374.69398
13213.55468
12155.36473
11193.11229
10319.23732
9526.747678
8808.568126
8158.194682
7569.396643
7036.382723
6553.837762
6116.797843
5720.859372
5361.817207
5035.980132
4740.046902
4470.936885
4225.930873
4002.609498
3798.783755
3612.466018
3441.904784
3285.5326
3141.942741
3009.864884
2888.176319
2775.858301
2672.009779
2575.812633
52552.36677
52116.5818
51196.54424
49872.12717
48208.50321
46270.57986
44123.76694
41829.90202
39445.51178
37021.2606
34600.68868
32220.01558
29908.16022
27687.61339
25574.65843
23580.2284
21711.07064
19969.52237
18355.33261
16866.20757
15497.40449
14243.49576
13098.05381
12053.98708
11104.33813
10241.66608
9459.160218
8749.762122
8107.184337
7525.198462
6998.200304
6520.887258
6088.449314
5696.501243
5340.935837
5018.143328
4724.843294
4458.022971
4215.010417
3993.433367
3791.118449
3606.119022
3436.710371
3281.347225
3138.642678
3007.342946
2886.340374
2774.628106
2671.316022
2575.594771
51841.27943
51412.43421
50507.02927
49204.36103
47567.03997
45660.28732
43547.13293
41289.63525
38942.73725
36556.25751
34173.09129
31828.83917
29552.06015
27364.90073
25283.40737
23318.60089
21476.71165
19760.26457
18169.22014
16701.09372
15351.2915
14114.68498
12984.67734
11954.52747
11017.21328
10165.5991
9392.82352
8692.069713
8057.099903
7481.790495
6960.686795
6488.499906
6060.572124
5672.533493
5320.376961
5000.571128
4709.855843
4445.284703
4204.231905
3984.371169
3783.544137
3599.844164
3431.572601
3277.205755
3135.376018
3004.845714
2884.521888
2773.409298
2670.628529
2575.378831
51141.78883
50719.77062
49829.4229
48547.47795
46936.0354
45059.94176
42980.51552
40758.18571
38448.17531
36098.86301
33752.50884
31444.10606
29201.85786
27047.57017
24997.18537
23061.44814
21246.37162
19554.63662
17986.42151
16538.90511
15207.85938
13988.20039
12873.36473
11856.88626
10931.68386
10090.92161
9327.691975
8635.435047
8007.903626
7439.165463
6923.811306
6456.649347
6033.143002
5648.937975
5300.125573
4983.251257
4695.074616
4432.714136
4193.598528
3975.418001
3776.057013
3593.63851
3426.48923
3273.106489
3132.141486
3002.372258
2882.720208
2772.201451
2669.947065
2575.16474
50453.69944
50038.83256
49162.92937
47901.29771
46315.87232
44469.38343
42423.13954
40235.73869
37961.69786
35648.96304
33338.83985
31065.72564
28857.47204
26735.64412
24715.94691
22808.66573
21019.98546
19352.6946
17806.82295
16379.58385
15067.0631
13863.98133
12764.11112
11761.01052
10847.69959
10017.58695
9263.722615
8579.798769
7959.561221
7397.277226
6887.54743
6425.312799
6006.142798
5625.698835
5280.181622
4966.173237
4680.491218
4420.30462
4183.096223
3966.569811
3768.653956
3587.499675
3421.45845
3269.048069
3128.938079
2999.921847
2880.934824
2771.004234
2669.271447
2574.952443
49777.5377
49369.28457
48507.28702
47265.64344
45705.90264
43888.4549
41874.85861
39722.06629
37483.46255
35206.4448
32931.98286
30693.60686
28518.98643
26429.16295
24439.44921
22560.18338
20797.48635
19154.33769
17630.36237
16223.0686
14928.7606
13741.97233
12656.85275
11666.8495
10765.27901
9945.551654
9200.878341
8525.125378
7912.041097
7356.08611
6851.872042
6394.499901
5979.554885
5602.802322
5260.527029
4949.328075
4666.098512
4408.050554
4172.719861
3957.82325
3761.332411
3581.425728
3416.478812
3265.029419
3125.765004
2997.493913
2879.165343
2769.817395
2668.601538
2574.741897
49112.3932
48710.62926
47862.31539
46640.55703
45105.86671
43317.25874
41335.52607
39216.78724
37013.274
34771.66097
32532.14399
30328.01821
28186.32414
26127.81962
24167.61978
22315.93067
20578.95193
18959.41161
17456.9773
16069.43027
14792.89537
13622.12081
12551.49316
11574.35397
10684.3241
9874.774885
9139.177558
8471.382323
7865.314699
7315.567587
6816.764327
6364.164804
5953.364654
5580.23645
5241.145704
4932.708031
4651.890402
4395.948849
4162.465797
3949.175541
3754.090285
3575.415102
3411.549155
3261.049684
3122.621644
2995.088016
2877.411464
2768.64074
2667.937233
2574.533071
48458.06298
48062.68499
47227.83729
46026.07428
44515.60201
42755.73098
40804.99812
38719.76929
36550.7906
34344.0287
32138.9831
29968.50543
27859.20872
25831.53337
23900.38426
22075.84202
20364.23421
18767.85189
17286.60664
15918.49008
14659.41613
13504.45514
12447.97986
11483.47646
10604.77715
9805.218256
9078.526939
8418.539572
7819.397473
7275.699427
6782.205493
6334.290011
5927.559171
5557.990685
5222.02919
4916.3064
4637.861642
4384.004187
4152.33096
3940.62437
3746.925851
3569.466524
3406.668549
3257.108193
3119.507517
2992.703822
2875.67296
2767.474129
2667.278458
2574.325942
47814.36676
47425.27356
46603.93282
45421.58502
43934.94951
42203.355
40283.40435
38230.87883
36095.88933
33923.42871
31752.31375
29614.95831
27537.55293
25540.22464
23637.67144
21840.06855
20153.1903
18579.59297
17119.28587
15770.17741
14528.26816
13388.88155
12346.2656
11394.22636
10526.59794
9736.845759
9018.894716
8366.569418
7774.226295
7236.461394
6748.181036
6304.861655
5902.127331
5536.070708
5203.169684
4900.117163
4624.007621
4372.202497
4142.312716
3932.167784
3739.837679
3563.578956
3401.836247
3253.204416
3116.422255
2990.341076
2873.949664
2766.317457
2666.625156
2574.120494
47181.12772
46798.27043
45990.55973
44826.92536
43363.9606
41659.98369
39770.61677
37749.9886
35648.44873
33509.74994
31372.03407
29267.28249
27221.26904
25253.81127
23379.5647
21608.30313
19945.75424
18394.5707
16954.9216
15624.43429
14399.39559
13275.30943
12246.30649
11306.53647
10449.74882
9669.662606
8960.251334
8315.446202
7729.77597
7197.834934
6714.701712
6275.86702
5877.058655
5514.459029
5184.560711
4884.135177
4610.324361
4360.540761
4132.40881
3923.804125
3732.824565
3557.751539
3397.051648
3249.337936
3113.365573
2987.999588
2872.241453
2765.170651
2665.977292
2573.916716
46558.47384
46182.04584
45387.14802
44241.93387
42802.67257
41125.46862
39266.19664
37277.45456
35208.34978
33102.88202
30998.04199
28925.38325
26910.26872
24972.3668
23125.90905
21380.47416
19741.86083
18212.80843
16793.38145
15481.19985
14272.8611
13163.69315
12148.0603
11220.33794
10374.19447
9603.620843
8902.569211
8265.161591
7686.026216
7159.802974
6681.724028
6247.294387
5852.343559
5493.142005
5166.196703
4868.356169
4596.814042
4349.016241
4122.617241
3915.53195
3725.885486
3551.983557
3392.314257
3245.50842
3110.337248
2985.679217
2870.54824
2764.033661
2665.33484
2573.714602
18034.24214
16634.60527
15340.41995
14148.49681
13053.98628
12051.54889
11135.59188
10299.90088
9538.666717
8845.822432
8215.710418
7642.958195
7122.349721
6649.234922
6219.133083
5827.973473
5472.112949
5148.072538
4852.776233
4583.474686
4337.626605
4112.936291
3907.350021
3719.01957
3546.274409
3387.62367
3241.715601
3107.337114
2983.379857
2868.869963
2762.906454
2664.697785
2573.514148
)
;

boundaryField
{
    front_top
    {
        type            wedge;
    }
    front_middle
    {
        type            wedge;
    }
    front_bottom
    {
        type            wedge;
    }
    back_top
    {
        type            wedge;
    }
    back_middle
    {
        type            wedge;
    }
    back_bottom
    {
        type            wedge;
    }
    axis_top
    {
        type            symmetryPlane;
    }
    axis_middle
    {
        type            symmetryPlane;
    }
    axis_bottom
    {
        type            symmetryPlane;
    }
    wall_top
    {
        type            calculated;
        value           nonuniform 0();
    }
    wall_middle
    {
        type            calculated;
        value           nonuniform 0();
    }
    wall_bottom
    {
        type            calculated;
        value           uniform 2530.329233;
    }
    inlet
    {
        type            calculated;
        value           nonuniform 0();
    }
    outlet
    {
        type            calculated;
        value           nonuniform 0();
    }
    procBoundary1to0
    {
        type            processor;
        value           nonuniform List<scalar> 
51
(
45946.26627
45575.81898
44793.53361
43666.45168
42250.51382
40599.66518
38770.01013
36812.65306
34775.93473
32702.85516
30630.28594
28589.26157
26604.69803
24695.77612
22876.53239
21156.50955
19541.44315
19541.44315
17858.71723
16478.53819
15202.11262
14026.2497
12946.14242
11956.69992
11052.26264
10226.86173
9474.771408
8789.986338
8167.038008
7600.554234
7085.473218
6617.222307
6191.373288
5803.961103
5451.365694
5130.183384
4837.391563
4570.296723
4326.370008
4103.364571
3899.257328
3712.226103
3540.623608
3382.979566
3237.959275
3104.365042
2981.101435
2867.206582
2761.78901
2664.06612
2573.315352
)
;
    }
    procBoundary1to2
    {
        type            processor;
        value           nonuniform List<scalar> 
51
(
63861.40818
63313.22506
62157.45647
60493.6841
58404.13976
55973.75098
53283.44407
50411.91588
47432.10435
44407.08946
41392.03347
38432.49453
35564.59339
32815.97564
30206.60401
27749.27723
25451.28685
23315.41836
21340.49529
19522.2033
17855.01056
16330.88757
14941.66088
13678.2456
12531.69239
11492.69114
10552.70155
9703.046057
8935.913354
8243.571427
7619.176723
7056.083313
6548.39569
6090.543492
5648.791774
5648.791774
5280.297914
4947.336755
4646.130203
4373.348695
4126.002668
3901.356821
3697.006513
3510.811038
3340.859735
3185.433175
3043.012806
2912.25314
2791.960039
2681.074951
2578.655119
)
;
    }
}


// ************************************************************************* //
