/*--------------------------------*- C++ -*----------------------------------*\
  =========                 |
  \\      /  F ield         | OpenFOAM: The Open Source CFD Toolbox
   \\    /   O peration     | Website:  https://openfoam.org
    \\  /    A nd           | Version:  7
     \\/     M anipulation  |
\*---------------------------------------------------------------------------*/
FoamFile
{
    version     2.0;
    format      ascii;
    class       volVectorField;
    location    "0.0015";
    object      U;
}
// * * * * * * * * * * * * * * * * * * * * * * * * * * * * * * * * * * * * * //

dimensions      [0 1 -1 0 0 0 0];

internalField   nonuniform List<vector> 
1167
(
(-1.159015499e-06 -2.09699414e-18 -0.04989922192)
(-3.018519296e-06 -3.776298944e-18 -0.04989814617)
(-4.75289302e-06 -5.657344457e-18 -0.04989580882)
(-6.524620244e-06 -8.778590924e-18 -0.04989219367)
(-8.283723456e-06 -7.034531141e-18 -0.04988716495)
(-1.005092584e-05 -7.239983953e-18 -0.04988049672)
(-1.188131795e-05 -7.309098824e-18 -0.04987186704)
(-1.384692368e-05 -1.005230268e-17 -0.04986086345)
(-1.602653463e-05 -1.181657441e-17 -0.04984699051)
(-1.850274798e-05 -1.248136876e-17 -0.04982967815)
(-2.135796175e-05 -1.450951437e-17 -0.04980828264)
(-2.467029876e-05 -1.603480719e-17 -0.04978207877)
(-2.851213332e-05 -1.748074421e-17 -0.04975024667)
(-3.294933847e-05 -1.915651763e-17 -0.04971185506)
(-3.803992853e-05 -1.949097066e-17 -0.0496658422)
(-4.383339111e-05 -2.026123881e-17 -0.04961099306)
(-5.037000617e-05 -2.180632356e-17 -0.04954591339)
(-5.767728708e-05 -2.147588639e-17 -0.04946900103)
(-6.576590605e-05 -2.15009634e-17 -0.04937841382)
(-7.462880704e-05 -2.164672504e-17 -0.04927202907)
(-8.42365781e-05 -2.180299323e-17 -0.04914739941)
(-9.453320591e-05 -2.19181089e-17 -0.04900170194)
(-0.0001054332688 -2.197256226e-17 -0.04883167833)
(-0.0001168173815 -2.194324917e-17 -0.04863356975)
(-0.0001285290004 -2.179872893e-17 -0.04840304224)
(-0.0001403723573 -2.150481378e-17 -0.04813510744)
(-0.000152110883 -2.098517372e-17 -0.04782403642)
(-0.0001634686671 -2.094601422e-17 -0.0474632748)
(-0.0001741336817 -2.064340266e-17 -0.04704535739)
(-0.0001837652682 -2.080948957e-17 -0.04656183304)
(-0.0001920043355 -2.068561512e-17 -0.0460032029)
(-0.0001984879925 -2.045377069e-17 -0.0453588814)
(-0.0002028668069 -2.01287876e-17 -0.04461718455)
(-0.000204825546 -1.972645691e-17 -0.0437653538)
(-1.333027211e-06 -1.34995796e-18 -0.04991259616)
(-3.472472428e-06 -1.804913386e-18 -0.04991150189)
(-5.469404891e-06 -3.242046887e-18 -0.04990912853)
(-7.507382944e-06 -4.842354986e-18 -0.04990548387)
(-9.517844556e-06 -5.879039654e-18 -0.0499004633)
(-1.150772402e-05 -7.076204213e-18 -0.04989388304)
(-1.351835703e-05 -8.713203425e-18 -0.04988546547)
(-1.560873957e-05 -1.043037907e-17 -0.04987483959)
(-1.784910668e-05 -1.200625033e-17 -0.0498615413)
(-2.031559122e-05 -1.337263434e-17 -0.04984501889)
(-2.308620637e-05 -1.469857556e-17 -0.04982463644)
(-2.623678141e-05 -1.575246262e-17 -0.04979967028)
(-2.983786515e-05 -1.673967178e-17 -0.04976929824)
(-3.395289472e-05 -1.768154222e-17 -0.04973258352)
(-3.863770639e-05 -1.85953483e-17 -0.04968845461)
(-4.394020513e-05 -1.969579162e-17 -0.04963568116)
(-4.989882547e-05 -1.995550004e-17 -0.04957284712)
(-5.653826262e-05 -2.033672674e-17 -0.04949832105)
(-6.38675866e-05 -2.076250605e-17 -0.04941022038)
(-7.18797036e-05 -2.115087768e-17 -0.04930636997)
(-8.054535064e-05 -2.148309093e-17 -0.04918425708)
(-8.98106979e-05 -2.174992246e-17 -0.04904097756)
(-9.959376139e-05 -2.194499895e-17 -0.04887317638)
(-0.000109780968 -2.205810543e-17 -0.04867698144)
(-0.0001202243712 -2.207959408e-17 -0.04844793059)
(-0.000130740344 -2.200661973e-17 -0.04818089425)
(-0.0001411090652 -2.184861974e-17 -0.04786999452)
(-0.0001510762458 -2.165245478e-17 -0.04750852588)
(-0.000160357517 -2.139785205e-17 -0.0470888799)
(-0.0001686459532 -2.109038736e-17 -0.04660248025)
(-0.0001756222558 -2.092284262e-17 -0.04603973471)
(-0.0001809685078 -2.067336352e-17 -0.04539000847)
(-0.0001843838337 -2.03451473e-17 -0.04464162586)
(-0.0001856026478 -1.993432867e-17 -0.04378190375)
(-0.0001844122839 -1.944542887e-17 -0.04279721869)
(-0.0001806708714 -1.888075877e-17 -0.04167310338)
(-0.0001743216929 -1.821980218e-17 -0.0403943782)
(-0.0001654050283 -1.74494573e-17 -0.03894530529)
(-0.0001540658821 -1.655783854e-17 -0.03730976181)
(-0.0001405551632 -1.554350008e-17 -0.03547142541)
(-0.0001252271341 -1.440155072e-17 -0.03341395759)
(-0.000108531935 -1.312593524e-17 -0.03112118671)
(-9.100448884e-05 -1.17071867e-17 -0.0285772848)
(-7.324939999e-05 -1.013842072e-17 -0.02576692404)
(-5.592348243e-05 -8.402583326e-18 -0.02267540855)
(-3.971249785e-05 -6.469724581e-18 -0.01928878402)
(-2.531132205e-05 -5.258804367e-18 -0.01559391976)
(-1.346034845e-05 -3.898190831e-18 -0.01157854762)
(-5.067926993e-06 -2.417190245e-18 -0.007231209299)
(-9.023796343e-07 -8.351828903e-19 -0.002540932585)
(-1.480181512e-06 1.617041356e-18 -0.04992686255)
(-3.856765067e-06 6.101796828e-18 -0.04992574941)
(-6.077499921e-06 1.83080629e-19 -0.04992333657)
(-8.344923005e-06 -3.043452019e-18 -0.04991964993)
(-1.057612703e-05 -4.753752411e-18 -0.04991460845)
(-1.276805337e-05 -5.476172514e-18 -0.04990806067)
(-1.495069417e-05 -9.726854369e-18 -0.04989976841)
(-1.717014472e-05 -1.091430277e-17 -0.04988940014)
(-1.948648164e-05 -1.237944763e-17 -0.04987652687)
(-2.196795701e-05 -1.39485359e-17 -0.04986062181)
(-2.468709182e-05 -1.579169461e-17 -0.04984106255)
(-2.771595108e-05 -1.580152977e-17 -0.0498171299)
(-3.112269633e-05 -1.625639258e-17 -0.04978800012)
(-3.496918342e-05 -1.647038306e-17 -0.04975273024)
(-3.930984508e-05 -1.775696325e-17 -0.04971023798)
(-4.419126109e-05 -1.846381719e-17 -0.0496592772)
(-4.964922309e-05 -1.835935147e-17 -0.04959841044)
(-5.570597337e-05 -1.887101403e-17 -0.04952597732)
(-6.237036973e-05 -1.987774276e-17 -0.04944005583)
(-6.963433877e-05 -2.057248268e-17 -0.04933842053)
(-7.746868716e-05 -2.114517236e-17 -0.04921849587)
(-8.582153643e-05 -2.159797244e-17 -0.04907730072)
(-9.461422756e-05 -2.194742289e-17 -0.04891138928)
(-0.0001037389825 -2.223686385e-17 -0.04871678384)
(-0.0001130563711 -2.241172323e-17 -0.04848890444)
(-0.0001223946619 -2.244244669e-17 -0.04822249324)
(-0.0001315502446 -2.232935013e-17 -0.04791153954)
(-0.0001402895739 -2.206995502e-17 -0.04754920582)
(-0.000148354426 -2.165580042e-17 -0.04712776197)
(-0.0001554690442 -2.108710814e-17 -0.04663852958)
(-0.0001613503985 -2.102204795e-17 -0.04607184569)
(-0.0001657205257 -2.08472765e-17 -0.04541704634)
(-0.0001683208761 -2.054201074e-17 -0.04466247871)
(-0.0001689279535 -2.009553001e-17 -0.04379554154)
(-0.0001673681906 -1.950673682e-17 -0.04280275709)
(-0.0001635329426 -1.907021139e-17 -0.04166986699)
(-0.0001573895625 -1.851341839e-17 -0.04038196028)
(-0.0001489906107 -1.78648921e-17 -0.03892361812)
(-0.0001384792605 -1.688677035e-17 -0.03727907838)
(-0.0001260894157 -1.579471012e-17 -0.03543240508)
(-0.0001121427993 -1.456977908e-17 -0.03336765634)
(-9.704222658e-05 -1.321196185e-17 -0.03106905467)
(-8.126153235e-05 -1.170263548e-17 -0.02852114942)
(-6.53330595e-05 -1.015114543e-17 -0.02570895916)
(-4.983278127e-05 -8.464091678e-18 -0.02261809276)
(-3.536078944e-05 -6.654360732e-18 -0.01923485363)
(-2.252476491e-05 -5.306489003e-18 -0.01554631638)
(-1.197351679e-05 -3.875842059e-18 -0.01154036418)
(-4.506921725e-06 -2.379008301e-18 -0.007205639361)
(-8.023051157e-07 -8.181983756e-19 -0.002531239013)
(-1.602449317e-06 -1.945372128e-18 -0.04994187791)
(-4.176346764e-06 -3.378900552e-18 -0.0499407466)
(-6.584658929e-06 -4.325202694e-18 -0.04993829443)
(-9.045195477e-06 -5.740073891e-18 -0.04993456131)
(-1.146456288e-05 -7.082640687e-18 -0.04992948358)
(-1.383310567e-05 -8.280092523e-18 -0.04992293377)
(-1.617282762e-05 -9.380712451e-18 -0.04991470672)
(-1.85182617e-05 -1.093162984e-17 -0.04990450641)
(-2.091810849e-05 -1.237533914e-17 -0.04989193903)
(-2.343206764e-05 -1.351960619e-17 -0.04987650657)
(-2.612577863e-05 -1.474960791e-17 -0.0498576054)
(-2.906656652e-05 -1.604401783e-17 -0.04983452507)
(-3.231962163e-05 -1.736638846e-17 -0.04980644227)
(-3.594490594e-05 -1.892914504e-17 -0.04977240834)
(-3.999571383e-05 -1.905222086e-17 -0.04973133001)
(-4.451690722e-05 -1.904863987e-17 -0.04968194535)
(-4.954156824e-05 -1.98467769e-17 -0.04962279574)
(-5.509060202e-05 -2.013459724e-17 -0.04955219123)
(-6.117245673e-05 -1.986672045e-17 -0.04946817136)
(-6.777802289e-05 -2.021354214e-17 -0.04936846284)
(-7.487873041e-05 -2.116098803e-17 -0.04925042982)
(-8.242424645e-05 -2.169378144e-17 -0.0491110186)
(-9.03392576e-05 -2.183366792e-17 -0.04894669791)
(-9.852162374e-05 -2.258219802e-17 -0.04875339238)
(-0.0001068402454 -2.305850931e-17 -0.048526414)
(-0.0001151349261 -2.318983731e-17 -0.04826038939)
(-0.0001232175543 -2.312683489e-17 -0.04794918997)
(-0.0001308743699 -2.292543339e-17 -0.04758586381)
(-0.0001378715122 -2.258116406e-17 -0.04716257803)
(-0.0001439619039 -2.207657869e-17 -0.04667057191)
(-0.0001488951643 -2.179480953e-17 -0.04610012989)
(-0.0001524286143 -2.169679048e-17 -0.04544057448)
(-0.0001543403959 -2.14491573e-17 -0.04468028532)
(-0.0001544424471 -2.103919609e-17 -0.04380674599)
(-0.0001525933773 -2.075158133e-17 -0.04280661703)
(-0.0001487108686 -1.99463191e-17 -0.04166583248)
(-0.0001427803032 -1.900972961e-17 -0.04036972271)
(-0.0001348621248 -1.792014765e-17 -0.03890315109)
(-0.0001250950722 -1.720428719e-17 -0.0372506705)
(-0.0001136960751 -1.636667179e-17 -0.03539667946)
(-0.0001009571767 -1.544514008e-17 -0.03332557824)
(-8.723960778e-05 -1.375803913e-17 -0.03102192889)
(-7.296454865e-05 -1.201123543e-17 -0.02847060441)
(-5.860288504e-05 -1.008176464e-17 -0.02565692028)
(-4.466244071e-05 -7.940875965e-18 -0.02256674938)
(-3.167153307e-05 -6.459032801e-18 -0.01918661982)
(-2.016510375e-05 -4.921493799e-18 -0.01550378796)
(-1.071570592e-05 -3.230742632e-18 -0.01150627449)
(-4.03277678e-06 -1.914377438e-18 -0.007182818139)
(-7.178087175e-07 -4.743797179e-19 -0.002522587741)
(-1.701821332e-06 -6.573897944e-18 -0.04995750906)
(-4.436521193e-06 -1.614714758e-17 -0.04995636074)
(-6.998275561e-06 -1.51413362e-17 -0.04995387138)
(-9.617223455e-06 -1.123509544e-17 -0.0499500924)
(-1.219336027e-05 -1.081587553e-17 -0.04994497191)
(-1.471203322e-05 -1.235659314e-17 -0.04993840036)
(-1.718911351e-05 -1.051918366e-17 -0.04993019873)
(-1.9650669e-05 -1.20715517e-17 -0.04992010239)
(-2.213451348e-05 -1.360629075e-17 -0.04990774964)
(-2.469117809e-05 -1.259196041e-17 -0.0498926723)
(-2.737882711e-05 -1.336850748e-17 -0.04987428936)
(-3.025893371e-05 -1.552711402e-17 -0.04985190318)
(-3.339273105e-05 -1.687610201e-17 -0.04982469402)
(-3.683795869e-05 -1.805309689e-17 -0.04979170896)
(-4.064622353e-05 -1.92838486e-17 -0.04975184447)
(-4.485976667e-05 -2.053162782e-17 -0.04970382341)
(-4.950993905e-05 -2.213417233e-17 -0.04964616545)
(-5.461754237e-05 -2.28484173e-17 -0.04957715122)
(-6.018953234e-05 -2.289429055e-17 -0.04949478303)
(-6.621578851e-05 -2.312416582e-17 -0.04939674121)
(-7.26689334e-05 -2.337296448e-17 -0.04928033231)
(-7.950016856e-05 -2.364333144e-17 -0.04914243448)
(-8.663763052e-05 -2.384007975e-17 -0.04897943646)
(-9.398458846e-05 -2.386530707e-17 -0.04878717304)
(-0.0001014180283 -2.384662201e-17 -0.04856085744)
(-0.0001087889293 -2.393705474e-17 -0.04829501275)
(-0.0001159238616 -2.400834134e-17 -0.04798340603)
(-0.0001226277611 -2.409156548e-17 -0.04761898676)
(-0.0001286892012 -2.424564862e-17 -0.04719383557)
(-0.0001338873201 -2.458549989e-17 -0.04669912605)
(-0.0001380008436 -2.452210963e-17 -0.04612510475)
(-0.0001408181089 -2.38597245e-17 -0.04546109218)
(-0.0001421487361 -2.343151417e-17 -0.04469550712)
(-0.0001418345239 -2.322483312e-17 -0.04381591771)
(-0.0001397607231 -2.231224134e-17 -0.04280911459)
(-0.0001358656315 -2.116547465e-17 -0.04166120775)
(-0.0001301479624 -2.002811036e-17 -0.04035774369)
(-0.0001226727598 -1.886659379e-17 -0.03888383619)
(-0.0001135729572 -1.792646071e-17 -0.03722431416)
(-0.0001030491715 -1.694043244e-17 -0.03536386668)
(-9.136666654e-05 -1.590292284e-17 -0.03328719133)
(-7.885009979e-05 -1.479208352e-17 -0.0309791444)
(-6.587538875e-05 -1.293450768e-17 -0.02842487913)
(-5.28610211e-05 -1.09040397e-17 -0.02560996856)
(-4.025722551e-05 -8.784815585e-18 -0.02252051605)
(-2.853193839e-05 -6.568543937e-18 -0.01914324774)
(-1.815912025e-05 -5.125768254e-18 -0.0154655826)
(-9.647470087e-06 -3.557157118e-18 -0.01147566753)
(-3.630534379e-06 -1.883326346e-18 -0.007162333684)
(-6.462504919e-07 -6.460545385e-19 -0.002514822406)
(-1.780808069e-06 3.363110559e-18 -0.04997363331)
(-4.64314884e-06 -3.309307457e-18 -0.04997246973)
(-7.326123059e-06 -4.178628865e-18 -0.04996994701)
(-1.007117188e-05 -7.608670454e-18 -0.04996612528)
(-1.277431294e-05 -7.924514182e-18 -0.04996096086)
(-1.541660259e-05 -1.076994651e-17 -0.0499543583)
(-1.80089098e-05 -1.196782115e-17 -0.04994615789)
(-2.057200329e-05 -1.232050942e-17 -0.04993612132)
(-2.313497367e-05 -1.227349327e-17 -0.04992391575)
(-2.573846604e-05 -1.479386976e-17 -0.0499091014)
(-2.843267781e-05 -1.502722089e-17 -0.04989112132)
(-3.127292495e-05 -1.536872952e-17 -0.04986929398)
(-3.431590845e-05 -1.515885387e-17 -0.04984280638)
(-3.761606413e-05 -1.578083858e-17 -0.04981070393)
(-4.122184649e-05 -1.853714557e-17 -0.04977187462)
(-4.517328886e-05 -2.088700851e-17 -0.04972502637)
(-4.950103254e-05 -2.181306118e-17 -0.04966865676)
(-5.422512671e-05 -2.288261639e-17 -0.04960101773)
(-5.935098436e-05 -2.424802338e-17 -0.04952007602)
(-6.486844605e-05 -2.492294639e-17 -0.04942346667)
(-7.075070408e-05 -2.497835866e-17 -0.04930844149)
(-7.695042799e-05 -2.55096676e-17 -0.04917181443)
(-8.339942904e-05 -2.549241812e-17 -0.04900989976)
(-9.000629983e-05 -2.484982274e-17 -0.04881844975)
(-9.665597815e-05 -2.443326008e-17 -0.04859258786)
(-0.0001032101856 -2.429356037e-17 -0.04832674462)
(-0.0001095094026 -2.424658404e-17 -0.0480145952)
(-0.0001153759294 -2.422794926e-17 -0.04764900435)
(-0.0001206189476 -2.422588771e-17 -0.04722198046)
(-0.0001250411957 -2.426166567e-17 -0.04672464504)
(-0.0001284472697 -2.389015968e-17 -0.04614721854)
(-0.0001306525358 -2.339486446e-17 -0.04547902792)
(-0.0001314935352 -2.283377962e-17 -0.04470853488)
(-0.0001308372139 -2.220266123e-17 -0.04382339014)
(-0.0001285906699 -2.154731219e-17 -0.04281050623)
(-0.0001247085368 -2.077705701e-17 -0.04165615331)
(-0.000119199345 -1.992296281e-17 -0.04034607087)
(-0.0001121302666 -1.901254744e-17 -0.03886559533)
(-0.0001036277658 -1.807748894e-17 -0.03719979857)
(-9.387711498e-05 -1.687491666e-17 -0.03533362397)
(-8.31195895e-05 -1.557909273e-17 -0.03325202869)
(-7.164782831e-05 -1.433463879e-17 -0.03094012577)
(-5.979870637e-05 -1.285080415e-17 -0.02838331309)
(-4.794594977e-05 -1.119101319e-17 -0.02556738923)
(-3.649092251e-05 -9.492810093e-18 -0.02247866074)
(-2.585056766e-05 -7.805498557e-18 -0.01910403018)
(-1.644750695e-05 -6.091328256e-18 -0.01543106363)
(-8.7367415e-06 -4.38350509e-18 -0.01144802512)
(-3.287884879e-06 -2.652187574e-18 -0.007143835197)
(-5.85357788e-07 -9.07424189e-19 -0.002507808688)
(-1.840883475e-06 -3.019227408e-18 -0.04999013946)
(-4.800087612e-06 -5.710732651e-18 -0.04998896321)
(-7.575307618e-06 -7.565363622e-18 -0.04998641192)
(-1.041765063e-05 -9.274731596e-18 -0.04998255207)
(-1.321952252e-05 -1.109740844e-17 -0.04997734613)
(-1.595957441e-05 -1.218651832e-17 -0.04997070971)
(-1.864533922e-05 -1.286164058e-17 -0.04996249715)
(-2.129285753e-05 -1.285758085e-17 -0.049952491)
(-2.392507428e-05 -1.237362901e-17 -0.04994038381)
(-2.657436893e-05 -1.418850818e-17 -0.04992576188)
(-2.928258278e-05 -1.540950486e-17 -0.04990809187)
(-3.20982313e-05 -1.63826584e-17 -0.04988671007)
(-3.507253953e-05 -1.732543693e-17 -0.04986081313)
(-3.825543606e-05 -1.853275663e-17 -0.04982944777)
(-4.169218689e-05 -1.89906801e-17 -0.04979149518)
(-4.542111764e-05 -1.97598448e-17 -0.04974564874)
(-4.947214013e-05 -2.04665259e-17 -0.04969038474)
(-5.386346523e-05 -2.133089638e-17 -0.04962392751)
(-5.859914012e-05 -2.217337181e-17 -0.04954420909)
(-6.36698449e-05 -2.283803695e-17 -0.04944882102)
(-6.904902578e-05 -2.329510813e-17 -0.04933496371)
(-7.469114557e-05 -2.361191921e-17 -0.04919939023)
(-8.053140949e-05 -2.391377554e-17 -0.04903834594)
(-8.64836736e-05 -2.405870778e-17 -0.04884750716)
(-9.244056985e-05 -2.411467948e-17 -0.04862191626)
(-9.827406952e-05 -2.411846549e-17 -0.0483559211)
(-0.0001038376563 -2.404990842e-17 -0.04804311641)
(-0.0001089696839 -2.385120767e-17 -0.04767629422)
(-0.0001134981077 -2.349841942e-17 -0.04724740293)
(-0.0001172469274 -2.29333143e-17 -0.04674752315)
(-0.0001200435182 -2.239263731e-17 -0.0461668586)
(-0.0001217267768 -2.219406769e-17 -0.04549474869)
(-0.0001221562547 -2.173986465e-17 -0.04471969996)
(-0.0001212199104 -2.102542274e-17 -0.04382944249)
(-0.00011884267 -2.060650513e-17 -0.04281100206)
(-0.0001149922391 -1.996762222e-17 -0.04165079444)
(-0.0001096843565 -1.914911691e-17 -0.04033473225)
(-0.0001029866375 -1.816366917e-17 -0.03884834991)
(-9.501870844e-05 -1.700595375e-17 -0.037176934)
(-8.595161436e-05 -1.626432869e-17 -0.03530565174)
(-7.600537975e-05 -1.541396709e-17 -0.03321968844)
(-6.544453408e-05 -1.377421144e-17 -0.03090438276)
(-5.457225879e-05 -1.197477953e-17 -0.0283453479)
(-4.372392212e-05 -1.036682794e-17 -0.02552858168)
(-3.325930086e-05 -8.551744826e-18 -0.02244057152)
(-2.355211984e-05 -6.956808216e-18 -0.01906837862)
(-1.498159927e-05 -5.632855514e-18 -0.01539970352)
(-7.957368679e-06 -4.162773671e-18 -0.01142291984)
(-2.994909334e-06 -2.574519751e-18 -0.007127034803)
(-5.333595807e-07 -8.875650743e-19 -0.002501437198)
(-1.883336324e-06 -1.041239041e-17 -0.05000692788)
(-4.911266503e-06 -1.054945618e-17 -0.05000574126)
(-7.752893269e-06 -1.306804002e-17 -0.05000316586)
(-1.066663552e-05 -1.075848026e-17 -0.04999927318)
(-1.354155841e-05 -1.662509066e-17 -0.04999403059)
(-1.635527132e-05 -1.511064346e-17 -0.04998736153)
(-1.91132654e-05 -1.60883475e-17 -0.04997913128)
(-2.182733514e-05 -1.507796856e-17 -0.04996913802)
(-2.4516038e-05 -1.511339486e-17 -0.04995709521)
(-2.72053777e-05 -1.578926609e-17 -0.04994261262)
(-2.992959325e-05 -1.651143155e-17 -0.04992517952)
(-3.2729916e-05 -1.738284996e-17 -0.0499041506)
(-3.565131794e-05 -1.851885858e-17 -0.04987873414)
(-3.87389318e-05 -1.813752871e-17 -0.04984798008)
(-4.203495805e-05 -1.804560387e-17 -0.04981076438)
(-4.557582212e-05 -1.758572898e-17 -0.04976576733)
(-4.938959913e-05 -1.768048672e-17 -0.04971144526)
(-5.349237651e-05 -1.95758668e-17 -0.04964599653)
(-5.788778429e-05 -2.082455968e-17 -0.04956731897)
(-6.256654531e-05 -2.162911693e-17 -0.04947296262)
(-6.750248361e-05 -2.206808462e-17 -0.04936007933)
(-7.265254297e-05 -2.213505815e-17 -0.04922536514)
(-7.795502325e-05 -2.287237657e-17 -0.04906500184)
(-8.332897765e-05 -2.336759354e-17 -0.04887459598)
(-8.867434162e-05 -2.370259867e-17 -0.04864911699)
(-9.387276928e-05 -2.3942386e-17 -0.04838283889)
(-9.878988087e-05 -2.413739412e-17 -0.04806928629)
(-0.000103278756 -2.391721872e-17 -0.04770118865)
(-0.0001071843835 -2.368215383e-17 -0.04727044498)
(-0.0001103497568 -2.26688722e-17 -0.04676810399)
(-0.0001126222843 -2.246769018e-17 -0.0461843602)
(-0.0001138613975 -2.215779899e-17 -0.04550856937)
(-0.0001139461449 -2.173675287e-17 -0.04472928381)
(-0.0001127820485 -2.120670943e-17 -0.04383430858)
(-0.0001103086319 -2.058201614e-17 -0.04281077434)
(-0.0001065039238 -1.984368789e-17 -0.0416452293)
(-0.0001013890703 -1.898086669e-17 -0.04032374169)
(-9.503081332e-05 -1.79814227e-17 -0.03883202258)
(-8.754188511e-05 -1.683715023e-17 -0.03715554906)
(-7.908029915e-05 -1.581141169e-17 -0.03527968645)
(-6.984725788e-05 -1.465282116e-17 -0.0331898225)
(-6.008270231e-05 -1.348361698e-17 -0.0308714952)
(-5.006068542e-05 -1.220884713e-17 -0.02831050785)
(-4.008364157e-05 -1.097140207e-17 -0.02549303647)
(-3.047582844e-05 -9.697745852e-18 -0.02240573101)
(-2.157419075e-05 -7.978967208e-18 -0.0190357967)
(-1.372109641e-05 -6.315064755e-18 -0.015371058)
(-7.287665931e-06 -4.599404548e-18 -0.01139999189)
(-2.743340194e-06 -2.820575471e-18 -0.007111690045)
(-4.887535892e-07 -9.684535225e-19 -0.002495615594)
(-1.910222762e-06 -2.689930033e-18 -0.05002390808)
(-4.981895577e-06 -4.164954791e-18 -0.05002271308)
(-7.866852113e-06 -3.137404369e-18 -0.05002011794)
(-1.082797371e-05 -7.551093327e-18 -0.05001619807)
(-1.375215602e-05 -9.836614991e-18 -0.05001092517)
(-1.661685994e-05 -1.125620634e-17 -0.05000422761)
(-1.942674273e-05 -1.24971513e-17 -0.04999597955)
(-2.219018499e-05 -1.383308803e-17 -0.0499859905)
(-2.49217426e-05 -1.531274259e-17 -0.04997399053)
(-2.764235149e-05 -1.698434019e-17 -0.04995960941)
(-3.037986977e-05 -1.698346791e-17 -0.04994235715)
(-3.316885053e-05 -1.742729386e-17 -0.04992160657)
(-3.604816618e-05 -1.801741232e-17 -0.04989657846)
(-3.905798112e-05 -1.852613546e-17 -0.04986632755)
(-4.223681307e-05 -1.904741535e-17 -0.04982972633)
(-4.561863134e-05 -1.96151058e-17 -0.04978544369)
(-4.922863824e-05 -2.036819581e-17 -0.04973191798)
(-5.308102129e-05 -2.100731e-17 -0.04966732237)
(-5.717978624e-05 -2.158813856e-17 -0.04958952204)
(-6.151512618e-05 -2.207611452e-17 -0.04949602798)
(-6.606137583e-05 -2.247010493e-17 -0.04938394568)
(-7.077768377e-05 -2.278857239e-17 -0.04924991802)
(-7.560546415e-05 -2.308261206e-17 -0.04909006814)
(-8.046899112e-05 -2.330100593e-17 -0.04889993877)
(-8.527514971e-05 -2.342075312e-17 -0.04867443377)
(-8.991470291e-05 -2.341966757e-17 -0.04840776148)
(-9.426456023e-05 -2.328024102e-17 -0.0480933853)
(-9.819125469e-05 -2.317950315e-17 -0.04772398114)
(-0.0001015551349 -2.292671412e-17 -0.0472914073)
(-0.0001042160157 -2.277163693e-17 -0.04678668803)
(-0.0001060389403 -2.253187713e-17 -0.04620001421)
(-0.0001069010817 -2.21960824e-17 -0.04552076105)
(-0.0001066981096 -2.176583341e-17 -0.04473752615)
(-0.0001053505407 -2.124095152e-17 -0.04383818503)
(-0.0001028095551 -2.062080719e-17 -0.04280996525)
(-9.906120152e-05 -1.989923086e-17 -0.04163953534)
(-9.413056468e-05 -1.907701519e-17 -0.04031310455)
(-8.808281763e-05 -1.815811298e-17 -0.03881654176)
(-8.102400299e-05 -1.71449659e-17 -0.03713549289)
(-7.310027245e-05 -1.604616091e-17 -0.03525550029)
(-6.449601775e-05 -1.486900246e-17 -0.03316213224)
(-5.542978845e-05 -1.365044308e-17 -0.03084110425)
(-4.615038549e-05 -1.236328888e-17 -0.02827838925)
(-3.69319185e-05 -1.100410382e-17 -0.0254603235)
(-2.80681962e-05 -9.568023552e-18 -0.02237370416)
(-1.986472467e-05 -8.044235901e-18 -0.01900586838)
(-1.26324372e-05 -6.372873989e-18 -0.01534475576)
(-6.709612118e-06 -4.644030137e-18 -0.01137894139)
(-2.526330304e-06 -2.848581456e-18 -0.007097599424)
(-4.503078216e-07 -9.781213351e-19 -0.002490267445)
(-1.923135365e-06 -2.409438417e-18 -0.05004099813)
(-5.016221831e-06 -4.343606347e-18 -0.05003979682)
(-7.923867545e-06 -5.831412418e-18 -0.05003718634)
(-1.09103704e-05 -8.384380521e-18 -0.05003324577)
(-1.386222958e-05 -5.775339948e-18 -0.05002794959)
(-1.675721922e-05 -7.891538515e-18 -0.05002122942)
(-1.959967861e-05 -8.659534516e-18 -0.0500129664)
(-2.239571701e-05 -1.188426425e-17 -0.05000297892)
(-2.51561027e-05 -1.44520026e-17 -0.04999100937)
(-2.78979457e-05 -1.400464528e-17 -0.04997670402)
(-3.064381915e-05 -1.551324817e-17 -0.04995959097)
(-3.342228401e-05 -1.668112837e-17 -0.0499390599)
(-3.626636073e-05 -1.771077955e-17 -0.0499143443)
(-3.921118162e-05 -1.871701222e-17 -0.04988450487)
(-4.229161328e-05 -1.992244439e-17 -0.04984841211)
(-4.55379193e-05 -2.162130409e-17 -0.04980472562)
(-4.897204642e-05 -2.295063953e-17 -0.04975186751)
(-5.260729521e-05 -2.24446888e-17 -0.0496879866)
(-5.644709757e-05 -2.240438477e-17 -0.04961091721)
(-6.048101696e-05 -2.256551941e-17 -0.04951813379)
(-6.468466685e-05 -2.279666732e-17 -0.04940669816)
(-6.901896028e-05 -2.30223014e-17 -0.0492732039)
(-7.342852258e-05 -2.320305338e-17 -0.04911371967)
(-7.784239687e-05 -2.331092004e-17 -0.04892373023)
(-8.217398985e-05 -2.331033293e-17 -0.04869808032)
(-8.632269406e-05 -2.317472102e-17 -0.04843092004)
(-9.017580764e-05 -2.28673987e-17 -0.04811565935)
(-9.361212579e-05 -2.277659488e-17 -0.04774492848)
(-9.650575627e-05 -2.247778291e-17 -0.04731055219)
(-9.873148462e-05 -2.274100227e-17 -0.04680353632)
(-0.0001001697325 -2.249900424e-17 -0.0462140723)
(-0.0001007129705 -2.216489591e-17 -0.04553155653)
(-0.0001002711184 -2.173910248e-17 -0.04474463084)
(-9.87773376e-05 -2.122327474e-17 -0.04384123754)
(-9.619231405e-05 -2.061459915e-17 -0.0428086933)
(-9.250836625e-05 -1.990609574e-17 -0.04163377531)
(-8.775311195e-05 -1.910098374e-17 -0.04030282078)
(-8.198988732e-05 -1.819974099e-17 -0.03880184062)
(-7.531838736e-05 -1.719836996e-17 -0.03711663186)
(-6.787400173e-05 -1.609784526e-17 -0.03523289538)
(-5.982617068e-05 -1.490126568e-17 -0.03313636116)
(-5.137471598e-05 -1.360807687e-17 -0.03081290396)
(-4.274650007e-05 -1.221200963e-17 -0.02824864937)
(-3.419117983e-05 -1.070823823e-17 -0.02543007877)
(-2.597637175e-05 -9.09143225e-18 -0.02234412378)
(-1.838060587e-05 -7.355990391e-18 -0.01897824323)
(-1.168788475e-05 -5.886444263e-18 -0.01532048456)
(-6.208343258e-06 -4.320707655e-18 -0.0113595165)
(-2.338243864e-06 -2.662387205e-18 -0.007084593873)
(-4.170088906e-07 -9.161877372e-19 -0.002485328649)
(-1.923789265e-06 -2.065463173e-18 -0.0500581237)
(-5.018690944e-06 -3.478363388e-18 -0.05005691803)
(-7.929757701e-06 -4.517106367e-18 -0.05005429688)
(-1.092147157e-05 -5.760075788e-18 -0.05005034242)
(-1.388202921e-05 -7.214154078e-18 -0.0500450303)
(-1.678883551e-05 -8.7242367e-18 -0.05003829476)
(-1.964554237e-05 -1.019151281e-17 -0.05003002176)
(-2.245803963e-05 -1.159066043e-17 -0.05002003706)
(-2.523382269e-05 -1.287252367e-17 -0.05000809214)
(-2.798610321e-05 -1.400519567e-17 -0.04999384606)
(-3.073353701e-05 -1.515327187e-17 -0.0499768422)
(-3.349956034e-05 -1.62184849e-17 -0.04995648538)
(-3.631187127e-05 -1.72067882e-17 -0.04993202107)
(-3.920106011e-05 -1.814509174e-17 -0.04990251639)
(-4.219741424e-05 -1.908360045e-17 -0.04986684151)
(-4.532658846e-05 -1.995012025e-17 -0.04982364883)
(-4.860810302e-05 -2.064843973e-17 -0.04977134499)
(-5.205465287e-05 -2.124528134e-17 -0.04970805614)
(-5.566816181e-05 -2.176718618e-17 -0.04963158811)
(-5.943750147e-05 -2.22308269e-17 -0.04953938057)
(-6.333972141e-05 -2.263306736e-17 -0.04942845433)
(-6.73374555e-05 -2.296434132e-17 -0.04929535763)
(-7.137866773e-05 -2.322092714e-17 -0.04913610899)
(-7.539671712e-05 -2.339433039e-17 -0.04894614065)
(-7.931121304e-05 -2.347804811e-17 -0.04872024376)
(-8.302949661e-05 -2.347541845e-17 -0.04845251706)
(-8.644844482e-05 -2.338072612e-17 -0.04813632359)
(-8.945790983e-05 -2.316911457e-17 -0.04776425484)
(-9.194442757e-05 -2.282265858e-17 -0.04732810782)
(-9.379591615e-05 -2.229988075e-17 -0.04681887508)
(-9.490628703e-05 -2.221069879e-17 -0.04622675147)
(-9.518120855e-05 -2.196839437e-17 -0.04554115574)
(-9.454264977e-05 -2.160110862e-17 -0.04475077237)
(-9.29342653e-05 -2.111862892e-17 -0.04384360633)
(-9.032474103e-05 -2.052986445e-17 -0.04280705645)
(-8.671138599e-05 -1.983961763e-17 -0.0416279989)
(-8.212336456e-05 -1.904617725e-17 -0.04029288688)
(-7.662183316e-05 -1.815150771e-17 -0.03878785941)
(-7.030050721e-05 -1.715154711e-17 -0.03709884958)
(-6.328518758e-05 -1.604413926e-17 -0.03521170108)
(-5.573191847e-05 -1.482999798e-17 -0.03311228962)
(-4.78240987e-05 -1.350832119e-17 -0.03078663375)
(-3.976946461e-05 -1.207550519e-17 -0.02822099742)
(-3.179649775e-05 -1.052708293e-17 -0.02540199444)
(-2.415020974e-05 -8.862170185e-18 -0.02231668008)
(-1.70858907e-05 -7.079754787e-18 -0.01895262628)
(-1.086436385e-05 -5.664318388e-18 -0.01529798206)
(-5.771523872e-06 -4.15728011e-18 -0.01134150592)
(-2.174420685e-06 -2.561566124e-18 -0.007072531729)
(-3.880248813e-07 -8.814744501e-19 -0.002480745574)
(-1.913601232e-06 -9.103934834e-19 -0.05007521799)
(-4.99243206e-06 -1.341116843e-18 -0.05007401025)
(-7.889269625e-06 -1.644363922e-18 -0.05007138371)
(-1.086847707e-05 -1.946055053e-18 -0.050067422)
(-1.382042549e-05 -7.903346819e-18 -0.0500621013)
(-1.672214354e-05 -9.226294879e-18 -0.05005535848)
(-1.957661725e-05 -1.155816096e-17 -0.05004708192)
(-2.238999595e-05 -1.120834284e-17 -0.05003710324)
(-2.516808504e-05 -1.112990244e-17 -0.05002518157)
(-2.792041248e-05 -1.321380066e-17 -0.05001098535)
(-3.066184203e-05 -1.455502243e-17 -0.04999407006)
(-3.341183258e-05 -1.56294515e-17 -0.04997385334)
(-3.619364463e-05 -1.657157608e-17 -0.04994959159)
(-3.903292363e-05 -1.748654974e-17 -0.04992035864)
(-4.195469429e-05 -1.817878389e-17 -0.04988502575)
(-4.498098905e-05 -1.824138837e-17 -0.0498422388)
(-4.812957754e-05 -1.839754751e-17 -0.0497903902)
(-5.141122515e-05 -2.007136303e-17 -0.04972758546)
(-5.482607629e-05 -2.113232233e-17 -0.0496516043)
(-5.836330504e-05 -2.189076258e-17 -0.04955985351)
(-6.200057522e-05 -2.247786089e-17 -0.04944931586)
(-6.570187727e-05 -2.293247062e-17 -0.04931649749)
(-6.94185519e-05 -2.323488902e-17 -0.04915737087)
(-7.308824343e-05 -2.344574618e-17 -0.04896732065)
(-7.663646911e-05 -2.36030776e-17 -0.04874108973)
(-7.997779547e-05 -2.375843236e-17 -0.04847273141)
(-8.301787995e-05 -2.399202026e-17 -0.04815556767)
(-8.565652846e-05 -2.361836775e-17 -0.04778215705)
(-8.77914083e-05 -2.332538989e-17 -0.0473442738)
(-8.932198517e-05 -2.229515644e-17 -0.04683290123)
(-9.015412638e-05 -2.212550966e-17 -0.04623823975)
(-9.020471558e-05 -2.184848244e-17 -0.04554973112)
(-8.940590382e-05 -2.14660413e-17 -0.04475610023)
(-8.7710184e-05 -2.098344972e-17 -0.04384541083)
(-8.509281205e-05 -2.040472248e-17 -0.04280513748)
(-8.155517215e-05 -1.972751686e-17 -0.04162224685)
(-7.712714241e-05 -1.894925565e-17 -0.04028329759)
(-7.186749074e-05 -1.806764028e-17 -0.03877454477)
(-6.586437297e-05 -1.70761612e-17 -0.03708204462)
(-5.923499863e-05 -1.596684513e-17 -0.03519177067)
(-5.212348444e-05 -1.474887104e-17 -0.03308973041)
(-4.469879118e-05 -1.342640618e-17 -0.0307620722)
(-3.715194317e-05 -1.199633807e-17 -0.0281951869)