/*--------------------------------*- C++ -*----------------------------------*\
  =========                 |
  \\      /  F ield         | OpenFOAM: The Open Source CFD Toolbox
   \\    /   O peration     | Website:  https://openfoam.org
    \\  /    A nd           | Version:  7
     \\/     M anipulation  |
\*---------------------------------------------------------------------------*/
FoamFile
{
    version     2.0;
    format      ascii;
    class       volTensorField;
    location    "0.0027";
    object      grad(U);
}
// * * * * * * * * * * * * * * * * * * * * * * * * * * * * * * * * * * * * * //

dimensions      [0 0 -1 0 0 0 0];

internalField   nonuniform List<tensor> 
1166
(
(0.0009951177698 -3.114553261e-15 -6.232925718e-05 -1.622521611e-14 0.001627455151 0 4.812022141e-06 1.130004671e-15 0.01272509945)
(0.001316724773 -3.245069851e-15 -0.0001473308857 -2.688355752e-15 0.001423505946 0 1.251359315e-05 -9.133803123e-16 0.01272531354)
(0.0009800843898 3.628843298e-15 -6.301593353e-05 1.285213358e-14 0.001602920011 -2.948118397e-13 4.769525433e-06 3.931243605e-15 0.01264145215)
(0.001296768483 3.593941807e-15 -0.0001487559227 1.091474377e-15 0.001402017942 0 1.248315462e-05 7.633622044e-16 0.01264176964)
(0.001261828998 1.579989798e-15 -0.0002425640545 -3.526427027e-16 0.001336620904 0 1.985077445e-05 -1.54425878e-15 0.0126424044)
(0.001265339532 3.630620357e-15 -0.000335802764 -4.789389499e-16 0.00131856746 4.562171951e-14 2.742861761e-05 -3.73613473e-15 0.01264328816)
(0.001237639441 2.108074805e-15 -0.0004288953758 -1.665618734e-15 0.001304658616 3.648328521e-14 3.449236446e-05 -3.820132676e-15 0.0126444514)
(0.001198037476 -8.50360453e-16 -0.0005222260165 -1.153937002e-15 0.001289676212 0 4.093838059e-05 -1.797967727e-15 0.01264592739)
(0.001152086549 3.222980095e-16 -0.0006156497837 -9.094157305e-16 0.00127297317 -2.67022712e-14 4.700400151e-05 -6.867219191e-16 0.01264772361)
(0.001101532645 1.837320532e-15 -0.0007092172441 -9.352736497e-16 0.00125467431 2.379429111e-14 5.280308662e-05 -1.73345069e-15 0.01264989892)
(0.001045568956 2.001381851e-15 -0.0008033529138 -1.109358691e-15 0.001234917198 0 5.808551599e-05 -7.556677989e-16 0.01265234268)
(0.0009840960244 9.192858938e-16 -0.00089822225 -1.141725156e-15 0.001213592704 -1.985777597e-14 6.274834288e-05 3.791644363e-16 0.01265493683)
(0.000918306918 1.091604764e-15 -0.0009936325672 -1.077824556e-15 0.00119079225 0 6.705627709e-05 1.907835883e-16 0.01265772477)
(0.0008487969798 9.442300628e-16 -0.001089576624 -1.132399744e-15 0.001166640968 0 7.10500955e-05 -5.441586679e-17 0.01266068613)
(0.0007761980938 5.512877003e-16 -0.001186019943 -1.06704831e-15 0.001141263069 0 7.477216916e-05 -8.634312513e-16 0.01266390193)
(0.0007008139871 1.264138794e-15 -0.001283145382 -1.050016704e-15 0.001114802624 0 7.804099873e-05 -1.332922064e-15 0.01266729935)
(0.0006227422951 2.011832156e-15 -0.001380864533 -1.085243133e-15 0.001087357519 0 8.087645521e-05 -1.26797657e-15 0.01267089915)
(0.0005423019046 7.047865316e-16 -0.001478969872 -1.157652166e-15 0.001059022883 0 8.336406272e-05 -1.404381734e-15 0.01267461128)
(0.0004598214917 -7.101579698e-16 -0.001577330941 -1.053532654e-15 0.001029888857 1.387546543e-14 8.546843988e-05 -1.77282209e-15 0.01267846294)
(0.0003759319966 -4.021276333e-16 -0.001675762095 -9.80034611e-16 0.001000044724 1.344797912e-14 8.71523889e-05 -1.708819756e-15 0.01268241356)
(0.0002910157511 -1.147230853e-16 -0.001774067119 -9.178096231e-16 0.0009696029135 0 8.834995616e-05 -1.457005064e-15 0.01268647423)
(0.0002048608465 -6.353581514e-16 -0.001871692334 -8.810030548e-16 0.0009386488112 0 8.925888198e-05 -1.327110617e-15 0.01269054955)
(0.0001175849087 -1.269572889e-15 -0.001968168268 -7.959214894e-16 0.0009072394239 1.246690027e-14 8.991854317e-05 -1.328798279e-15 0.01269459546)
(2.947824852e-05 -1.179429392e-15 -0.002063080277 -7.158790586e-16 0.0008754425282 0 9.027725331e-05 -9.740518694e-16 0.01269861796)
(-5.879590415e-05 -3.593900628e-16 -0.002155948354 -6.474090457e-16 0.0008433163677 0 9.025971414e-05 -7.111930319e-16 0.01270259219)
(-0.0001469150872 3.901393103e-16 -0.002246212763 -6.399468149e-16 0.0008109527736 0 8.984856549e-05 -4.962600825e-16 0.01270649502)
(-0.0002350788134 3.641914302e-16 -0.002333065663 -6.322663821e-16 0.0007784090217 0 8.915672179e-05 -3.160035179e-16 0.01271026772)
(-0.0003231267359 3.533123298e-16 -0.002415759923 -6.21490809e-16 0.0007457390072 0 8.817424777e-05 -1.54250984e-16 0.01271388152)
(-0.0004110030875 3.532284105e-16 -0.002493534622 -6.145845396e-16 0.0007129924826 0 8.685485915e-05 3.048976491e-18 0.01271730832)
(-0.0004982010153 4.043525483e-16 -0.002565450589 -6.086043174e-16 0.0006802110155 0 8.522124972e-05 -4.126796559e-18 0.0127205264)
(-0.0005845890683 -1.606500632e-16 -0.002630519106 -6.021008404e-16 0.0006474577685 0 8.332990236e-05 -1.809442967e-16 0.01272350324)
(-0.000670504869 -7.965970675e-16 -0.002687655614 -5.693342919e-16 0.0006147673462 0 8.123663345e-05 -3.732282943e-16 0.01272620116)
(-0.0007553688015 -3.062745275e-16 -0.002735844423 -5.335817675e-16 0.00058217114 0 7.88448072e-05 -5.658126145e-16 0.01272861849)
(-0.0008389257437 2.726244523e-16 -0.002774037572 -5.268495976e-16 0.0005497216868 0 7.610411227e-05 -6.311479652e-16 0.01273075065)
(-0.0009216494516 3.485458566e-16 -0.002800866351 -5.233454699e-16 0.0005174515429 0 7.318878783e-05 -7.760235695e-16 0.0127325584)
(-0.001003601001 3.570292576e-16 -0.002815031958 -5.190117174e-16 0.0004853803492 0 7.012221865e-05 -8.33786812e-16 0.01273402871)
(-0.001084572645 3.519570502e-16 -0.002815328296 -5.151447672e-16 0.0004535305503 0 6.683138745e-05 -8.695606191e-16 0.01273516384)
(-0.001164494433 -3.030573318e-18 -0.002800366089 -5.117084955e-16 0.0004219246513 5.415912139e-15 6.337175066e-05 -9.128183867e-16 0.01273596703)
(-0.001243275721 -7.170975135e-16 -0.002768765522 -4.954585279e-16 0.0003905818976 1.08234567e-14 5.975473196e-05 -8.126976507e-16 0.01273644597)
(-0.001320588788 -1.135345488e-15 -0.00271918667 -4.65047024e-16 0.0003595225359 0 5.593579014e-05 -7.363374419e-16 0.01273661763)
(-0.001396479791 -7.826008544e-16 -0.002650201709 -4.362575328e-16 0.0003287723722 0 5.19334602e-05 -7.599484844e-16 0.01273650699)
(-0.001471325829 -2.584992304e-16 -0.002560350294 -4.22917303e-16 0.0002983443982 5.421813062e-15 4.779669214e-05 -8.370938716e-16 0.01273613626)
(-0.00154500559 -2.353601894e-16 -0.002448115372 -4.124456465e-16 0.0002682463155 0 4.3602721e-05 -7.675389061e-16 0.01273552466)
(-0.001617510961 -4.503595102e-16 -0.002312075717 -4.001724221e-16 0.0002384918638 0 3.93157e-05 -7.15586581e-16 0.01273471434)
(-0.001688864392 -4.735437442e-16 -0.002150880163 -3.860499922e-16 0.0002090862735 0 3.484944415e-05 -6.739837236e-16 0.01273374711)
(-0.001759000498 -3.120660054e-16 -0.001963032551 -3.740411384e-16 0.0001800395569 0 3.027811813e-05 -7.22323087e-16 0.01273267951)
(-0.0018282273 -7.858490975e-17 -0.00174703155 -3.658182612e-16 0.0001513567526 5.50373406e-15 2.567562774e-05 -7.354767492e-16 0.0127315622)
(-0.001896777938 -7.702506945e-17 -0.001501394333 -3.610674737e-16 0.0001230367923 -5.528719149e-15 2.110526079e-05 -6.599480398e-16 0.0127304535)
(-0.001964939964 -2.883665638e-16 -0.001224768679 -3.530368677e-16 9.507709169e-05 5.556345859e-15 1.652435123e-05 -7.306064904e-16 0.01272941523)
(-0.002027795287 -2.020514465e-16 -0.0009158189056 -3.437029994e-16 6.746872355e-05 -1.117307528e-14 1.184452748e-05 -6.068898791e-16 0.01272850432)
(-0.002068800271 -1.582293404e-16 -0.000572999073 -3.386832626e-16 4.033454093e-05 -5.619226911e-15 7.148570573e-06 -5.130275705e-16 0.01272781538)
(-0.002189908727 -1.221240968e-16 -0.0001960478894 -3.314823216e-16 1.406623724e-05 0 2.54925468e-06 -5.545350956e-16 0.01272743089)
(0.0009661792578 8.743678388e-15 -6.352021565e-05 2.268731548e-14 0.001580402283 2.994031227e-13 4.844579303e-06 -3.702198382e-15 0.01256143117)
(0.001277913103 1.047163533e-14 -0.0001499475808 -1.280207754e-16 0.001382201559 0 1.267297917e-05 -2.275955783e-15 0.012561694)
(0.001242593041 9.536680591e-15 -0.0002447114377 -3.708426234e-15 0.001317404911 0 1.996521133e-05 -1.678869842e-15 0.01256225239)
(0.001245533435 3.662683245e-15 -0.0003391400209 -5.392793721e-15 0.001299182548 4.633221412e-14 2.722587126e-05 -1.703972571e-15 0.01256321292)
(0.00121879587 -5.164355563e-15 -0.0004331809466 -3.921339977e-15 0.001285205299 -7.410292293e-14 3.417810746e-05 7.515413885e-16 0.0125646367)
(0.001181286627 -6.724678023e-15 -0.0005271289129 -1.77688642e-15 0.001270471946 0 4.084746758e-05 5.099450054e-16 0.01256636003)
(0.00113667457 -1.94014676e-15 -0.0006213800794 -7.547524136e-16 0.001254302205 0 4.698985396e-05 5.046062014e-16 0.01256834683)
(0.001085975053 -3.028021607e-16 -0.0007160424767 -7.905494226e-16 0.001236435015 0 5.257193422e-05 7.892278778e-16 0.01257056256)
(0.001030798867 -1.328722285e-15 -0.0008107976951 -5.405709065e-16 0.001216944318 2.192255874e-14 5.801405857e-05 1.428567233e-15 0.01257306931)
(0.000970823414 6.616822113e-16 -0.0009060480847 -3.668076092e-16 0.001196029417 -2.016703312e-14 6.306844714e-05 1.962789366e-15 0.01257573938)
(0.0009059069501 2.259771384e-15 -0.001002067791 -5.45015105e-16 0.001173645642 0 6.752319592e-05 1.805450384e-15 0.01257853926)
(0.00083732718 3.647805972e-15 -0.001098763166 -6.728243847e-16 0.001149899049 -1.760951233e-14 7.153069952e-05 2.001051389e-15 0.01258152548)
(0.0007657333442 3.79063936e-15 -0.001196130168 -9.86075155e-16 0.001124938304 0 7.510282661e-05 1.593528236e-15 0.01258471196)
(0.0006913687922 1.728151551e-15 -0.001294061861 -1.091528596e-15 0.001098894284 0 7.830605249e-05 1.352784909e-15 0.01258811071)
(0.0006142919698 1.267465922e-15 -0.001392439751 -1.081768504e-15 0.001071874651 0 8.117280636e-05 1.268270525e-15 0.01259162725)
(0.0005348285876 2.008441096e-15 -0.00149115773 -1.106208925e-15 0.001043960338 -1.459269486e-14 8.367673859e-05 1.371361726e-15 0.01259527668)
(0.000453682279 1.791856459e-15 -0.001590121978 -1.178310078e-15 0.001015250619 0 8.573787156e-05 1.013672434e-15 0.01259903299)
(0.0003711963144 -2.538160459e-16 -0.001689127267 -1.180352556e-15 0.0009858599204 0 8.734060932e-05 7.970315294e-16 0.01260289422)
(0.0002872134478 -1.262395146e-15 -0.001787715077 -1.050439811e-15 0.0009558775107 0 8.864068017e-05 6.533522065e-16 0.01260677262)
(0.0002019037657 -5.531723304e-16 -0.001885484542 -9.658587043e-16 0.0009253636125 0 8.966558884e-05 6.298502317e-16 0.01261062461)
(0.0001156988931 -8.62984258e-16 -0.001982132946 -9.149590415e-16 0.0008943923594 0 9.030888526e-05 4.753221275e-16 0.01261445861)
(2.910230729e-05 -1.229779367e-15 -0.002077191729 -8.269942088e-16 0.0008630349632 0 9.055671589e-05 1.62379868e-16 0.01261825435)
(-5.774347178e-05 -8.304555322e-16 -0.002170094521 -7.616191572e-16 0.0008313770029 0 9.045028851e-05 -8.472960725e-17 0.01262198409)
(-0.0001448172167 -5.424919462e-16 -0.002260136571 -7.128551273e-16 0.0007994745379 0 9.005363859e-05 -8.778058387e-17 0.01262558786)
(-0.0002318518166 -3.776359729e-16 -0.002346645142 -6.738579634e-16 0.0007673898553 0 8.935643005e-05 -7.433217901e-17 0.01262903835)
(-0.0003187936197 -3.085918082e-16 -0.002428870219 -6.454172832e-16 0.00073517762 0 8.835704725e-05 -4.736213652e-17 0.01263230951)
(-0.000405219426 -3.256347382e-16 -0.002506000684 -6.171111879e-16 0.0007028851414 0 8.702500608e-05 -6.55073921e-18 0.01263537763)
(-0.0004909657907 2.755545965e-16 -0.002577189739 -5.887828593e-16 0.0006705752416 0 8.535006362e-05 5.095996917e-17 0.01263821714)
(-0.0005762927804 8.449632405e-16 -0.002641354507 -5.962599494e-16 0.0006382888616 -1.133308934e-14 8.345539379e-05 1.470035254e-16 0.01264078564)
(-0.0006607796879 6.678956208e-16 -0.0026975191 -6.029220567e-16 0.0006060595049 0 8.128368336e-05 -5.259644448e-17 0.01264307466)
(-0.0007440414509 5.43315176e-16 -0.002744731324 -6.005851031e-16 0.0005739379054 0 7.874081869e-05 -2.567895889e-16 0.01264508844)
(-0.0008265035876 8.247568427e-16 -0.002781699254 -6.002388549e-16 0.0005419649083 1.112478891e-14 7.598787961e-05 -3.22240114e-16 0.01264678474)
(-0.0009083557308 8.039925945e-16 -0.00280716729 -6.099354357e-16 0.000510159141 0 7.309111461e-05 -3.181073721e-16 0.01264814107)
(-0.0009891535711 3.255900251e-16 -0.002819964652 -6.093267506e-16 0.0004785441654 0 6.99911765e-05 -2.977823105e-16 0.01264916543)
(-0.001068911682 -6.434259595e-18 -0.002818790757 -5.984820192e-16 0.0004471516729 0 6.670733773e-05 -2.888107569e-16 0.01264985664)
(-0.00114776049 -5.788634126e-16 -0.002802353572 -5.841337828e-16 0.0004159977985 -5.500257412e-15 6.323637754e-05 -2.738775187e-16 0.0126502191)
(-0.001225179254 -8.580974576e-16 -0.002769307344 -5.521502644e-16 0.0003851022277 -5.496008464e-15 5.959240373e-05 -3.908868248e-16 0.01265026927)
(-0.001301164741 -4.106301073e-16 -0.002718303769 -5.293130705e-16 0.0003544957798 0 5.576079478e-05 -6.21195561e-16 0.01265002739)
(-0.001376130539 2.840338319e-16 -0.002647990624 -5.189074453e-16 0.0003241922716 5.499210598e-15 5.172561426e-05 -8.685740351e-16 0.01264950214)
(-0.001450257604 3.901769856e-16 -0.002556865176 -5.209160072e-16 0.0002942017881 0 4.760189956e-05 -9.183156519e-16 0.01264872291)
(-0.001523349743 1.239064864e-16 -0.002443501345 -5.144949336e-16 0.0002645287183 0 4.340672679e-05 -9.604592812e-16 0.01264772721)
(-0.001594624487 1.577114518e-16 -0.002306522531 -5.076681411e-16 0.0002351870224 0 3.911499574e-05 -1.03322909e-15 0.0126465716)
(-0.001664521022 2.136743389e-16 -0.002144567743 -5.034511786e-16 0.0002062030981 5.54710431e-15 3.470208207e-05 -1.141316326e-15 0.0126452975)
(-0.001733860423 3.952914742e-17 -0.001956263333 -4.991266593e-16 0.0001775732136 5.566842196e-15 3.014579642e-05 -1.193425474e-15 0.01264393909)
(-0.001802599211 -3.703533184e-16 -0.001740129742 -4.892130769e-16 0.0001492956646 0 2.554927317e-05 -1.221626798e-15 0.01264256063)
(-0.001871041416 -1.79479866e-17 -0.001494752212 -4.74984267e-16 0.0001213679911 0 2.095297693e-05 -1.23655616e-15 0.01264122838)
(-0.001938513442 1.653859654e-17 -0.001218718685 -4.756356679e-16 9.378005598e-05 5.642878192e-15 1.641238902e-05 -1.286831969e-15 0.01264002006)
(-0.002000212885 -5.24576237e-16 -0.0009107842049 -4.626373086e-16 6.65475137e-05 5.673540168e-15 1.18286223e-05 -1.320580867e-15 0.01263900092)
(-0.002040774232 -1.022719109e-16 -0.0005695944496 -4.495832981e-16 3.978222645e-05 0 7.123684737e-06 -1.331874669e-15 0.01263823361)
(-0.002159715064 1.721463709e-16 -0.0001948283395 -4.482316353e-16 1.386868355e-05 5.742411974e-15 2.529023634e-06 -1.377244283e-15 0.01263781336)
(0.000951182792 -1.492480983e-15 -6.398591772e-05 -2.267874418e-14 0.00155589061 3.040659122e-13 4.910733781e-06 -4.535301811e-15 0.01248437025)
(0.001258555586 -1.004302104e-15 -0.0001509882029 -6.278750081e-15 0.001360754001 0 1.287530282e-05 -1.466816277e-15 0.01248472258)
(0.001224949206 4.772460602e-16 -0.0002465501805 -3.691873075e-15 0.00129727171 0 2.019991016e-05 9.525258384e-16 0.01248547043)
(0.001228775309 -3.210545073e-15 -0.0003420643784 -2.952348629e-15 0.001279885534 0 2.726639142e-05 3.373815969e-15 0.01248658228)
(0.001201947771 -3.205178218e-15 -0.0004372107393 -8.63544373e-16 0.00126654 -3.762848672e-14 3.399618676e-05 3.745972338e-15 0.01248801274)
(0.0011639016 -3.280076339e-16 -0.0005321788733 -6.955473538e-16 0.001252061146 0 4.044558279e-05 1.669434166e-15 0.01248966232)
(0.001120266701 -5.113688472e-16 -0.0006271169744 -5.17728168e-16 0.001236026816 0 4.663013841e-05 4.505820534e-16 0.01249162767)
(0.001070976651 -7.859310501e-16 -0.000722348539 -3.924433166e-16 0.001218523397 2.454118816e-14 5.240078134e-05 5.051785506e-16 0.01249379071)
(0.001015964622 -1.324543984e-15 -0.0008179905704 -2.364459945e-16 0.001199395473 0 5.772406709e-05 1.580010015e-16 0.012496151)
(0.0009568019144 -7.942079564e-17 -0.0009139694783 -5.500297225e-17 0.001178727869 0 6.276496994e-05 -3.165171083e-17 0.01249879971)
(0.0008935390127 9.586871513e-16 -0.001010607348 -1.697719167e-16 0.001156713576 0 6.732786191e-05 3.651909248e-16 0.01250164947)
(0.0008261915559 1.675983883e-15 -0.001108025248 -2.0302604e-16 0.001133380515 1.788375612e-14 7.132042488e-05 6.880924766e-16 0.0125046891)
(0.0007556045368 2.540625339e-15 -0.001206072469 -3.778598759e-16 0.001108845302 -1.691490767e-14 7.489124043e-05 1.95753082e-15 0.01250788274)
(0.0006820158659 2.256253453e-15 -0.001304589807 -5.070924328e-16 0.001083224234 -1.610116748e-14 7.81397972e-05 2.317255129e-15 0.01251119056)
(0.0006058004244 1.924678859e-15 -0.001403506145 -6.113870793e-16 0.001056607339 0 8.10404061e-05 2.06525812e-15 0.01251461114)
(0.0005276360996 1.578193241e-15 -0.001502806687 -6.747855897e-16 0.001029104074 0 8.34790686e-05 2.025650339e-15 0.01251815152)
(0.0004478331978 1.183742753e-15 -0.001602311082 -7.110085774e-16 0.001000834118 0 8.545853652e-05 2.149671307e-15 0.01252179289)
(0.0003662489023 7.878238926e-16 -0.001701615105 -7.212727026e-16 0.0009718901637 -1.387010793e-14 8.712699037e-05 2.17685934e-15 0.01252545975)
(0.0002831141431 4.22072016e-16 -0.001800373213 -7.177844839e-16 0.0009423345612 0 8.850902688e-05 1.540110477e-15 0.01252911075)
(0.0001990920553 -1.12284073e-17 -0.001898340796 -6.983498668e-16 0.0009122486969 0 8.94938672e-05 1.117292598e-15 0.01253275703)
(0.0001144488588 3.875155051e-16 -0.00199511931 -6.608052004e-16 0.0008817242398 0 9.006727067e-05 8.629286453e-16 0.01253637716)
(2.898042387e-05 8.144416329e-16 -0.002090163508 -6.752829053e-16 0.0008508330699 0 9.029007522e-05 5.300736885e-16 0.01253991738)
(-5.694137732e-05 5.24653841e-16 -0.002182835989 -6.737738742e-16 0.0008196230211 0 9.021450749e-05 2.999304024e-16 0.01254333741)
(-0.0001428190053 3.36041946e-16 -0.002272563195 -6.615211552e-16 0.0007881703308 0 8.980699545e-05 1.432978851e-16 0.01254661564)
(-0.0002286121137 1.991572324e-16 -0.002358646037 -6.491822258e-16 0.0007565373134 0 8.90799218e-05 2.847470426e-17 0.01254972679)
(-0.0003140767092 8.130903277e-17 -0.002440339002 -6.337645008e-16 0.0007247801092 0 8.801656373e-05 -6.851384235e-17 0.01255264587)
(-0.0003991118213 -4.391127517e-17 -0.002516869931 -6.167057384e-16 0.0006929569554 0 8.658458927e-05 -1.687886778e-16 0.01255535072)
(-0.0004838263459 -2.138693058e-16 -0.002587212956 -5.951184405e-16 0.0006611127827 1.160764349e-14 8.491241694e-05 -2.972132229e-16 0.01255779386)
(-0.0005679025553 2.98112084e-16 -0.002650434187 -5.718263815e-16 0.0006292842896 1.150958653e-14 8.298771983e-05 -1.061197729e-16 0.01255995635)
(-0.000650788857 9.006091439e-16 -0.002705628901 -5.788368325e-16 0.0005975206218 0 8.072069269e-05 4.31678471e-17 0.01256184684)
(-0.0007328150334 8.3578318e-16 -0.002751632139 -5.891450312e-16 0.0005658740829 0 7.820775226e-05 1.176307123e-16 0.01256342993)
(-0.0008144139021 5.39958246e-16 -0.00278727055 -5.930368783e-16 0.0005343645022 5.649021055e-15 7.550710441e-05 1.050830675e-16 0.01256467285)
(-0.0008951385053 2.471049733e-16 -0.002811379969 -5.850976214e-16 0.0005030132446 -5.625727365e-15 7.261492007e-05 2.434123443e-16 0.01256558315)
(-0.0009748472233 2.265049445e-16 -0.002822749313 -5.750061773e-16 0.0004718540136 -5.607679291e-15 6.952774709e-05 2.506944413e-16 0.01256615983)
(-0.001053571884 2.372174598e-16 -0.002820154445 -5.709246413e-16 0.0004409073904 -5.594515145e-15 6.622394644e-05 1.541563183e-16 0.01256639443)
(-0.001131226702 4.714576526e-16 -0.00280228758 -5.639102527e-16 0.0004101980329 0 6.273394755e-05 -4.37404416e-17 0.01256630851)
(-0.001207658006 9.307703354e-16 -0.002767846013 -5.67562719e-16 0.0003797440975 5.581601193e-15 5.905921829e-05 -3.43988961e-16 0.01256592195)
(-0.001282398259 1.177472155e-15 -0.002715457818 -5.763912616e-16 0.0003495700276 1.116264117e-14 5.524891348e-05 -5.050087641e-16 0.01256526018)
(-0.001356134948 6.768726964e-16 -0.002643748357 -5.897092302e-16 0.0003197053797 1.116970639e-14 5.133437457e-05 -5.565666368e-16 0.01256433466)
(-0.001429415405 2.103155147e-16 -0.002551407498 -5.80224865e-16 0.0002901443462 0 4.725973257e-05 -4.39629027e-16 0.01256316016)
(-0.001501443107 3.578694298e-16 -0.002437074953 -5.75852485e-16 0.0002608935175 0 4.303138973e-05 -3.960268825e-16 0.01256180015)
(-0.001571981409 5.003250326e-16 -0.002299372398 -5.731651242e-16 0.0002319725647 0 3.867250869e-05 -3.579844964e-16 0.012560305)
(-0.001641058882 3.798598121e-16 -0.002136857482 -5.735269756e-16 0.00020339247 0 3.426926496e-05 -3.159910989e-16 0.01255872186)
(-0.001709305971 1.242542503e-16 -0.001948182891 -5.672861679e-16 0.0001751677036 -5.653538062e-15 2.98288815e-05 -2.633668675e-16 0.01255709307)
(-0.001777377718 1.527710976e-16 -0.001732050355 -5.598886613e-16 0.0001472877622 0 2.529683772e-05 -2.922895084e-16 0.01255546629)
(-0.001845291082 2.914279406e-16 -0.001487093887 -5.55817633e-16 0.0001197467283 5.702264307e-15 2.072263167e-05 -3.491644256e-16 0.01255391792)
(-0.001912541325 1.939070004e-16 -0.00121199852 -5.528236912e-16 9.253498351e-05 0 1.611666362e-05 -2.966057653e-16 0.01255252681)
(-0.00197343685 5.284001205e-17 -0.0009053902392 -5.458047633e-16 6.566078348e-05 -5.761897707e-15 1.154583566e-05 -3.241333208e-16 0.01255138469)
(-0.002013370865 1.806616708e-16 -0.0005659500192 -5.397129313e-16 3.925957235e-05 0 6.985146171e-06 -3.903824876e-16 0.0125505504)
(-0.002131457883 1.52273711e-16 -0.0001935304357 -5.369243965e-16 1.368927481e-05 0 2.483973528e-06 -3.705893768e-16 0.01255008225)
(0.0009372095994 -2.44856768e-15 -6.479747955e-05 -2.103878646e-14 0.001533430485 0 4.707120394e-06 1.908517519e-15 0.01240972287)
(0.001239903879 -3.030825103e-15 -0.0001528839069 -4.888675329e-15 0.001340896821 0 1.230962991e-05 1.189140615e-15 0.01241009108)
(0.001206774312 -2.582074088e-15 -0.0002494627678 -1.878656267e-15 0.001278188484 0 1.937194312e-05 1.076900051e-15 0.01241092316)
(0.001210627261 -2.958787303e-15 -0.0003456612787 -6.708320118e-16 0.00126103434 0 2.645410808e-05 1.311012416e-15 0.01241209983)
(0.001184810629 -2.713087443e-16 -0.0004411776398 2.005888009e-16 0.001247876953 0 3.348259334e-05 1.172237524e-17 0.0124135212)
(0.001148079208 1.822081379e-15 -0.0005366932031 -2.57043671e-16 0.001233802905 0 4.009947294e-05 -4.546559352e-18 0.01241517375)
(0.001104688377 9.820072607e-16 -0.0006324710597 -4.06293105e-16 0.001218200427 0 4.618004023e-05 -5.648240189e-17 0.01241706005)
(0.001055745926 5.368389394e-16 -0.0007284139992 -4.441911637e-16 0.001200954196 0 5.191864682e-05 -1.655835793e-17 0.01241918131)
(0.001001995979 1.323983362e-16 -0.0008247615196 -4.388552018e-16 0.001182143068 2.261070323e-14 5.723202509e-05 -7.912342902e-16 0.01242152879)
(0.0009436532015 -6.198904521e-20 -0.0009216455329 -3.83399765e-16 0.001161863027 0 6.209099289e-05 -8.886522676e-16 0.01242411449)
(0.0008812630278 1.869814633e-16 -0.001019081982 -3.566410719e-16 0.001140185139 0 6.652186093e-05 -5.124954401e-16 0.01242693148)
(0.0008151168979 -1.125056861e-15 -0.001117104149 -3.502977111e-16 0.001117243658 0 7.053980673e-05 -3.300247633e-16 0.01242990494)
(0.0007453229315 -9.818012973e-16 -0.001215616413 -1.509814534e-16 0.001093106607 0 7.421672301e-05 1.591890377e-16 0.01243298584)
(0.0006726194714 1.466958092e-15 -0.001314607654 -1.716632349e-16 0.001067865563 0 7.751020421e-05 5.09273421e-16 0.0124361743)
(0.0005977131975 2.157482001e-15 -0.001414095415 -3.11409543e-16 0.00104164469 0 8.03172674e-05 7.601450092e-16 0.01243949429)
(0.0005208535561 1.72175136e-15 -0.001513919064 -3.931716168e-16 0.001014569005 -3.010151294e-14 8.266138112e-05 9.431534365e-16 0.01244291879)
(0.0004419194179 1.306097742e-15 -0.001613715496 -4.595064504e-16 0.0009867338758 0 8.469225828e-05 7.074313362e-16 0.01244637275)
(0.0003611741761 1.805750148e-15 -0.001713194584 -4.8661753e-16 0.0009582043474 0 8.642831054e-05 4.021741852e-16 0.01244981702)
(0.0002792982075 2.268193287e-15 -0.001812167738 -5.801609172e-16 0.0009290664547 0 8.775440516e-05 1.751919587e-17 0.0124532652)
(0.000196599823 1.73520197e-15 -0.001910291473 -6.391183429e-16 0.0008994172261 0 8.865597958e-05 -4.791438881e-16 0.01245669822)
(0.0001129443332 1.188659215e-15 -0.002007035873 -6.758784981e-16 0.0008693348666 1.305848268e-14 8.922612675e-05 -8.412290292e-16 0.01246006065)
(2.859114606e-05 7.730866392e-16 -0.002101853905 -6.857995142e-16 0.0008388739209 0 8.949277921e-05 -5.364890517e-16 0.01246330902)
(-5.598939973e-05 5.702514516e-16 -0.002194274744 -6.827327512e-16 0.0008081073698 0 8.938215863e-05 -3.522804468e-16 0.01246643105)
(-0.0001406348616 4.586085499e-16 -0.002283635418 -6.748428749e-16 0.0007771023949 0 8.89323741e-05 -2.346514595e-16 0.01246939788)
(-0.0002251317693 4.175616091e-16 -0.002369240033 -6.682218199e-16 0.0007459196372 0 8.814966561e-05 -1.579586342e-16 0.01247218069)
(-0.0003092517155 4.450674597e-16 -0.002450339059 -6.597988545e-16 0.0007146190639 0 8.703312495e-05 -1.005406168e-16 0.01247475791)
(-0.0003931365871 5.636597795e-16 -0.002526021629 -6.539200455e-16 0.0006832562942 0 8.566095143e-05 -3.830961515e-17 0.01247708309)
(-0.0004767016518 -1.800174924e-18 -0.002595438125 -6.533131315e-16 0.0006518659498 0 8.40037431e-05 -1.549877641e-16 0.01247912666)
(-0.000559351623 -5.244349453e-16 -0.00265771619 -6.192570015e-16 0.0006204939377 0 8.200315898e-05 -2.647007918e-16 0.01248090218)
(-0.0006411016901 -2.366940274e-16 -0.002711804084 -5.921009539e-16 0.0005891945113 0 7.972014035e-05 -2.036668802e-16 0.01248238364)
(-0.0007221760112 2.965273065e-16 -0.002756569057 -5.786107904e-16 0.0005579992179 0 7.723163769e-05 -1.391334378e-16 0.01248352775)
(-0.0008026073483 2.762873657e-16 -0.002790887324 -5.798624738e-16 0.0005269387307 0 7.455133428e-05 -7.033965315e-17 0.0124843383)
(-0.0008823248193 1.760913495e-16 -0.002813629379 -5.649176894e-16 0.0004960346897 0 7.166786148e-05 -6.156189136e-17 0.01248481786)
(-0.0009608053966 7.243165361e-16 -0.002823552226 -5.617149756e-16 0.0004653133897 0 6.863331462e-05 -7.304514405e-17 0.01248496407)
(-0.001038212721 1.324653207e-15 -0.002819454919 -5.707997351e-16 0.0004348120229 0 6.541743908e-05 -8.017349345e-17 0.01248478295)
(-0.00111477369 1.720116765e-15 -0.00280017247 -5.920822115e-16 0.0004045425919 0 6.193502727e-05 -9.699830995e-17 0.01248427513)
(-0.001190072059 1.305911528e-15 -0.002764385946 -6.137675117e-16 0.0003745259391 0 5.824278497e-05 -5.461759691e-17 0.01248347794)
(-0.001264245684 6.137373311e-16 -0.002710714175 -6.185801239e-16 0.0003447855238 0 5.44271593e-05 1.152718977e-17 0.01248241103)
(-0.001337219632 -3.817118922e-17 -0.002637761447 -6.148174725e-16 0.0003153316776 0 5.056252139e-05 9.488906622e-17 0.01248109744)
(-0.001409060532 -3.973511183e-16 -0.002544291792 -5.955003098e-16 0.0002861854033 0 4.656845066e-05 7.167394405e-17 0.01247957685)
(-0.001479940637 -2.815286143e-16 -0.002429073148 -5.806532332e-16 0.0002573511824 0 4.235658908e-05 7.136685916e-17 0.01247789191)
(-0.001549503462 -2.462776453e-16 -0.002290676296 -5.667731937e-16 0.0002288403582 0 3.804737757e-05 9.066981727e-17 0.01247608805)
(-0.001618118139 -2.771681615e-16 -0.002127723404 -5.552215894e-16 0.0002006664256 0 3.370122757e-05 1.27120336e-16 0.01247421346)
(-0.001685883951 -7.868576078e-17 -0.001938869779 -5.417779033e-16 0.0001728264616 0 2.934080113e-05 1.277345523e-16 0.01247232017)
(-0.001752994231 1.035510487e-16 -0.001722850832 -5.358850442e-16 0.0001453286813 0 2.494617192e-05 1.170239878e-16 0.01247047194)
(-0.001820092687 2.164244915e-18 -0.001478459778 -5.294813104e-16 0.0001181640537 0 2.043912573e-05 1.236343779e-16 0.01246872734)
(-0.001886630902 -1.149354184e-16 -0.001204421729 -5.211151239e-16 9.132217185e-05 0 1.585163285e-05 1.524370546e-16 0.01246717437)
(-0.001947602741 2.342680251e-17 -0.0008994272411 -5.121606091e-16 6.480983717e-05 0 1.12394981e-05 1.557863713e-16 0.0124658946)
(-0.001987578457 1.658851999e-16 -0.0005619814317 -5.083318274e-16 3.874449004e-05 0 6.775082663e-06 1.597656092e-16 0.01246497768)
(-0.002103268422 5.599215241e-17 -0.0001920675804 -5.035114815e-16 1.350429237e-05 0 2.44786715e-06 1.851350868e-16 0.01246448957)
(0.0009239558675 1.035483504e-15 -6.530535645e-05 -4.823598543e-15 0.001511567187 0 4.670035425e-06 1.693083525e-15 0.01233754603)
(0.001222617764 7.147817987e-16 -0.0001541695531 -2.534734799e-15 0.001321874664 0 1.21517674e-05 5.44716524e-16 0.01233786718)
(0.001190178045 1.844289265e-17 -0.0002516023407 -1.621524962e-15 0.001260238344 0 1.904961898e-05 -2.858464742e-16 0.01233853798)
(0.001193530987 -1.895039405e-16 -0.0003486163987 -1.131516019e-15 0.001243434971 0 2.599575518e-05 -8.815823867e-16 0.01233950491)
(0.001167326078 -9.939968977e-17 -0.0004450717721 -8.385382812e-16 0.001230330751 0 3.274541297e-05 -1.664024721e-15 0.01234075728)
(0.001131106708 -1.137136709e-16 -0.0005413800016 -6.91475019e-16 0.001216259029 0 3.919623679e-05 -1.344049568e-15 0.01234237579)
(0.001089125282 -4.707909179e-16 -0.0006377227303 -5.617187312e-16 0.001200821706 0 4.53383768e-05 -1.317726902e-15 0.01234424796)
(0.001041313032 1.303189839e-15 -0.0007343864765 -4.016722345e-16 0.00118390667 5.062306069e-14 5.101407187e-05 -1.479682383e-15 0.01234636524)
(0.0009881556868 9.833282062e-16 -0.0008315233351 -7.035731355e-16 0.001165418152 0 5.617264006e-05 -8.265092291e-16 0.01234872326)
(0.0009309217541 -9.034188419e-16 -0.0009290642782 -5.363516622e-16 0.001145446493 0 6.097211121e-05 -3.043981273e-16 0.0123512907)
(0.0008695555241 -6.071755214e-16 -0.00102707913 -4.197627135e-16 0.001124159753 0 6.540967404e-05 2.725263115e-16 0.01235401487)
(0.0008039345441 -3.272958479e-16 -0.001125565738 -3.53501504e-16 0.001101577066 0 6.948452764e-05 3.261692883e-16 0.01235684538)
(0.0007350664947 4.382362585e-17 -0.001224576243 -3.109247987e-16 0.001077783499 0 7.313983176e-05 -2.122266208e-18 0.01235980156)
(0.0006637091215 4.614029727e-16 -0.001324161122 -3.101570611e-16 0.001052916688 0 7.62865818e-05 -2.693930914e-16 0.0123629066)
(0.0005900517255 6.160947802e-16 -0.001424166051 -3.298409974e-16 0.001027105583 0 7.89784772e-05 -1.480484853e-16 0.01236612199)