/*--------------------------------*- C++ -*----------------------------------*\
  =========                 |
  \\      /  F ield         | OpenFOAM: The Open Source CFD Toolbox
   \\    /   O peration     | Website:  https://openfoam.org
    \\  /    A nd           | Version:  7
     \\/     M anipulation  |
\*---------------------------------------------------------------------------*/
FoamFile
{
    version     2.0;
    format      ascii;
    class       volVectorField;
    location    "0.0027";
    object      grad(generalizedNewtonian:nu);
}
// * * * * * * * * * * * * * * * * * * * * * * * * * * * * * * * * * * * * * //

dimensions      [0 1 -1 0 0 0 0];

internalField   nonuniform List<vector> 
1166
(
(-209477.9723 0 1226833.385)
(-437174.834 0 1223197.194)
(-202755.8058 3.091326197e-07 1193571.633)
(-424902.5895 0 1189825.094)
(-688027.1791 0 1183926.959)
(-955886.9381 -4.783784015e-08 1174066.905)
(-1197905.126 -3.825549727e-08 1161732.137)
(-1430978.684 0 1146502.777)
(-1651000.574 2.799936073e-08 1128657.748)
(-1854830.242 -2.49501226e-08 1108831.105)
(-2042787.493 0 1087039.961)
(-2214884.573 2.082238729e-08 1063009.535)
(-2369610.821 0 1037554.829)
(-2508319.97 0 1010340.592)
(-2629549.352 0 982224.4222)
(-2734286.835 0 952921.1111)
(-2822239.709 0 922857.0439)
(-2893875.794 0 891911.254)
(-2949896.956 -7.27474002e-09 860555.2285)
(-2990509.889 -7.050614076e-09 828654.6521)
(-3017170.927 0 796687.1894)
(-3029244.096 0 764387.1526)
(-3029068.026 -6.536246209e-09 732247.1548)
(-3016342.177 0 700237.0817)
(-2992729.654 0 668576.533)
(-2959741.045 0 637435.5822)
(-2916898.808 0 606766.5088)
(-2866793.458 0 576837.7132)
(-2809417.398 0 547621.9824)
(-2745886.117 0 519262.8772)
(-2678349.385 0 491857.7743)
(-2605799.239 0 465375.1241)
(-2530269.029 0 439925.9253)
(-2453300.737 0 415563.6616)
(-2373851.356 0 392236.3419)
(-2293753.712 0 369975.6159)
(-2213621.076 0 348794.7479)
(-2133255.632 -1.419748872e-09 328685.2882)
(-2054101.34 -1.418652116e-09 309607.6113)
(-1975831.565 0 291584.9108)
(-1898952.752 0 274569.1833)
(-1824436.249 -1.421295763e-09 258506.7037)
(-1751315.322 0 243388.6301)
(-1680531.17 0 229159.3382)
(-1612408.769 0 215772.2382)
(-1546424.726 0 203228.7678)
(-1483314.205 -1.442770861e-09 191423.599)
(-1422403.163 7.246602762e-10 180376.1872)
(-1363975.343 -7.282813645e-10 170007.6534)
(-1307782.142 1.464477323e-09 160258.17)
(-1256129.25 7.365233097e-10 151167.1921)
(-1217275.768 0 142560.7834)
(-195445.1371 -3.139469288e-07 1161924.351)
(-411222.346 0 1158282.182)
(-666454.7831 0 1152422.579)
(-927025.0425 -4.858284776e-08 1142548.007)
(-1162473.757 3.885127326e-08 1130175.243)
(-1387023.073 0 1115160.792)
(-1598691.104 0 1097774.067)
(-1796854.263 0 1077747.116)
(-1978053.447 -2.298746896e-08 1055958.484)
(-2143144.384 2.114666692e-08 1032501.131)
(-2292874.319 0 1007220.509)
(-2425531.07 1.8464912e-08 980795.5491)
(-2542268.764 0 952902.9963)
(-2642096.446 0 924169.6783)
(-2725771.405 0 894334.3045)
(-2793603.384 1.530154961e-08 863984.1489)
(-2846051.919 0 832963.0817)
(-2884115.521 0 801738.4997)
(-2907459.877 0 770097.6346)
(-2918040.736 0 738498.7937)
(-2915752.395 0 706943.9625)
(-2902262.655 0 675654.7077)
(-2878353.057 0 644745.2512)
(-2844332.588 0 614250.7198)
(-2802648.76 0 584411.6526)
(-2752609.915 0 555230.804)
(-2696202.998 0 526843.426)
(-2634970.094 0 499355.722)
(-2568280.202 2.970901372e-09 472750.4099)
(-2498376.22 0 447122.1408)
(-2425692.744 0 422554.1999)
(-2350474.751 -2.916296665e-09 399000.8322)
(-2274464.337 0 376471.6016)
(-2197163.494 0 355029.1884)
(-2119637.893 0 334637.245)
(-2043108.882 1.441859479e-09 315266.4182)
(-1966727.106 1.440745643e-09 296951.9182)
(-1891767.888 0 279639.1488)
(-1818564.287 -1.441585063e-09 263286.1288)
(-1746691.666 0 247891.2131)
(-1677167.406 0 233356.1703)
(-1609472.448 0 219737.1409)
(-1544099.311 -1.454140112e-09 206939.4173)
(-1481467.618 -7.296571404e-10 194888.2348)
(-1420871.148 0 183613.4234)
(-1363001.626 0 172999.5684)
(-1307173.488 -7.396233304e-10 163082.7494)
(-1253356.997 -7.436422569e-10 153784.9669)
(-1204278.357 0 145054.2306)
(-1167233.309 -7.526694223e-10 136854.399)
(-189309.6552 -3.188362179e-07 1130032.489)
(-399652.6418 0 1126542.583)
(-646796.8185 0 1121100.691)
(-897961.8933 0 1111635.089)
(-1125563.556 3.945632809e-08 1099299.731)
(-1344028.78 0 1084072.912)
(-1548799.125 0 1066734.334)
(-1738709.146 0 1047247.743)
(-1914827.173 0 1025528.531)
(-2074465.383 0 1002321.79)
(-2217957.833 0 977643.7806)
(-2345979.49 -1.875247746e-08 951400.0563)
(-2457212.12 8.868283111e-09 924096.0226)
(-2552658.712 8.441648895e-09 895553.5504)
(-2632144.248 0 866344.6876)
(-2696370.666 0 836361.9968)
(-2745842.16 0 806018.272)
(-2780527.855 7.271931148e-09 775159.9317)
(-2801984.991 0 744211.8052)
(-2810304.949 0 713212.5187)
(-2807101.955 0 682411.0584)
(-2792523.308 0 651796.5925)
(-2767610.494 0 621562.2346)
(-2734377.679 0 591888.351)
(-2692295.349 0 562809.5987)
(-2643581.656 0 534458.7664)
(-2588686.778 0 506922.8501)
(-2528174.557 0 480233.9523)
(-2464148.396 -3.017169051e-09 454460.656)
(-2396081.993 2.995283452e-09 429709.7977)
(-2325430.73 0 405953.6395)
(-2253429.565 -2.961713951e-09 383181.7579)
(-2179552.766 1.474750674e-09 361481.6659)
(-2105407.001 1.47001948e-09 340802.7587)
(-2031216.486 1.466568578e-09 321159.3331)
(-1957133.357 0 302555.6417)
(-1884446.037 -1.463183263e-09 284918.7414)
(-1812492.194 -1.463109703e-09 268309.3716)
(-1742020.394 -1.464035756e-09 252632.7359)
(-1673685.961 0 237811.3337)
(-1606846.482 0 223917.046)
(-1542412.55 0 210828.2517)
(-1480029.745 0 198565.3001)
(-1419824.544 1.482041082e-09 187052.5411)
(-1362261.876 0 176207.8616)
(-1306727.851 -7.474071873e-10 166077.4938)
(-1253666.333 0 156541.5177)
(-1202325.48 7.552234563e-10 147652.2831)
(-1155228.776 0 139327.745)
(-1119582.662 0 131442.2224)
(-182770.3703 0 1099171.718)
(-387930.2941 0 1095598.296)
(-627923.662 0 1089892.747)
(-871008.0799 0 1080251.378)
(-1090711.383 0 1067968.103)
(-1301027.636 0 1053304.399)
(-1499720.856 0 1036153.437)
(-1684084.23 0 1016854.379)
(-1852968.783 -2.370904075e-08 995786.1704)
(-2007347.309 0 972867.3898)
(-2145755.223 0 948402.6792)
(-2267997.595 0 922626.0847)
(-2374865.189 0 895519.9802)
(-2465789.985 0 867594.4327)
(-2541654.954 0 838790.8281)
(-2602461.198 7.890931009e-09 809454.9641)
(-2648473.167 0 779497.5122)
(-2680853.936 0 749310.1164)
(-2699901.448 0 718969.253)
(-2707080.703 0 688699.4927)
(-2702157.384 -6.846405767e-09 658523.1858)
(-2686662.019 0 628632.4001)
(-2662084.28 0 599198.9253)
(-2628247.494 0 570288.8634)
(-2587441.761 0 542019.4267)
(-2539245.862 0 514499.8911)
(-2485284.883 0 487772.9868)
(-2427051.108 0 461891.5087)
(-2364282.927 0 436992.242)
(-2298820.713 0 413034.9389)
(-2230663.2 0 390075.7569)
(-2160563.356 0 368134.6857)
(-2090063.814 0 347180.7815)
(-2018408.452 0 327284.0432)
(-1946889.89 0 308396.4093)
(-1876322.84 0 290464.6304)
(-1806159.98 0 273562.1786)
(-1737527.596 0 257564.9227)
(-1670109.508 0 242505.5192)
(-1604289.634 0 228329.2058)
(-1540819.892 0 214960.9559)
(-1478958.97 0 202446.0569)
(-1419387.03 0 190665.5688)
(-1361974.022 0 179613.0277)
(-1306661.241 0 169260.0168)
(-1253885.946 0 159507.557)
(-1203024.417 0 150415.397)
(-1154214.141 0 141860.4036)
(-1109145.274 0 133892.0112)
(-1074903.116 0 126360.2965)
(-176525.1699 0 1068213.297)
(-375779.5641 0 1064824.234)
(-607822.1506 0 1059139.989)
(-842579.4208 0 1049619.773)
(-1056578.936 0 1037356.567)
(-1261206.491 0 1022824.549)
(-1452329.12 0 1006026.438)
(-1630006.91 -2.654106324e-08 987179.089)
(-1794172.406 0 966269.346)
(-1942137.089 0 943751.9321)
(-2075064.321 0 919680.6323)
(-2192750.141 0 894163.3055)
(-2294822.275 0 867669.1091)
(-2382102.39 0 840178.2661)
(-2454094.807 0 811973.0942)
(-2511362.702 0 783031.719)
(-2554670.888 0 753717.237)
(-2584520.352 0 724143.8622)
(-2602022.254 0 694508.5952)
(-2607133.651 0 664868.258)
(-2601404.636 0 635413.4111)
(-2585546.622 0 606287.1902)
(-2560228.716 0 577615.0935)
(-2527296.188 0 549488.4463)
(-2486456.058 0 522043.367)
(-2439653.944 0 495305.9386)
(-2387185.192 0 469390.7395)
(-2330022.824 0 444378.566)
(-2269894.884 0 420272.6827)
(-2206034.715 0 397134.0151)
(-2140123.012 -3.070336482e-09 374971.6361)
(-2073047.477 0 353771.6636)
(-2004542.584 0 333615.0898)
(-1936106.071 0 314406.7016)
(-1867455.996 0 296243.3266)
(-1799293.825 0 279048.1659)
(-1732545.017 1.509112245e-09 262755.5814)
(-1666404.879 0 247419.2724)
(-1601902.293 0 232936.869)
(-1539173.529 0 219316.3649)
(-1478074.592 0 206535.9354)
(-1419248.457 0 194477.7747)
(-1362098.468 0 183206.0626)
(-1307181.392 0 172602.2001)
(-1254454.952 0 162653.6007)
(-1203785.509 -7.708681248e-10 153352.6188)
(-1155435.864 0 144593.1768)
(-1108623.586 0 136433.7457)
(-1065660.026 0 128748.8336)
(-1032756.137 0 121551.5949)
(-170829.2729 0 1037383.208)
(-364834.8132 0 1034051.227)
(-589897.4397 0 1028493.563)
(-816765.7975 0 1019276.515)
(-1023186.459 0 1007522.319)
(-1220777.034 0 993254.507)
(-1406832.488 0 976586.2862)
(-1578607.415 -2.69544034e-08 957974.7435)
(-1735723.447 0 937441.9308)
(-1879226.446 0 915096.7223)
(-2006856.884 0 891388.4824)
(-2119640.735 0 866465.3845)
(-2217980.587 0 840417.9788)
(-2300925.528 0 813461.9775)
(-2369311.621 0 785652.4346)
(-2423494.137 0 757324.8544)
(-2464165.848 0 728629.2088)
(-2492062 0 699730.6876)
(-2507342.612 0 670723.0244)
(-2511494.366 7.222339244e-09 641774.3044)
(-2504629.393 7.061312677e-09 613060.2452)
(-2488108.915 0 584706.4163)
(-2463281.346 0 556794.0446)
(-2430088.683 0 529488.4795)
(-2390582.872 0 502815.1014)
(-2344350.771 0 476903.9652)
(-2293226.321 0 451821.9041)
(-2238312.395 0 427603.5945)
(-2179334.087 0 404317.5344)
(-2118127.244 0 381912.0988)
(-2054438.938 0 360544.067)
(-1989333.952 0 340144.5921)
(-1923990.343 0 320667.2518)
(-1857784.283 0 302229.9081)
(-1792046.715 0 284717.9394)
(-1726896.999 0 268174.6196)
(-1662379.484 0 252556.6717)
(-1599407.228 0 237756.447)
(-1537484.794 0 223888.5019)
(-1477349.655 0 210825.2033)
(-1419127.387 0 198516.6401)
(-1362513.436 0 186994.0445)
(-1308130.184 0 176122.2064)
(-1255475.901 0 165977.4507)
(-1205035.098 0 156437.1812)
(-1156729.923 0 147500.0309)
(-1110301.76 0 139147.8773)
(-1065731.659 0 131271.3771)
(-1024472.705 0 123944.8018)
(-993025.0754 0 116995.0853)
(-164970.5887 0 1007555.326)
(-353520.8859 0 1004289.05)
(-571479.1384 0 998789.5331)
(-791202.5593 0 989710.3996)
(-991936.1918 0 978009.7659)
(-1183127.277 0 963979.8642)
(-1361826.452 0 947673.8267)
(-1527778.3 0 929264.7154)
(-1680138.193 0 908953.2918)
(-1817458.16 0 887132.1268)
(-1940958.194 -1.062547844e-08 863881.0805)
(-2049568.099 0 839402.6314)
(-2143167.253 -9.433767976e-09 813814.3361)
(-2222462.279 0 787258.2432)
(-2287408.241 0 760038.9325)
(-2338867.509 0 732338.8539)
(-2377178.264 0 704286.9377)
(-2402713.739 0 676017.4746)
(-2416634.191 7.521649285e-09 647673.7084)
(-2419224.751 0 619465.9165)
(-2411930.707 0 591480.2516)
(-2395212.92 0 563897.8902)
(-2369936.639 3.45107832e-09 536798.8072)
(-2337756.421 0 510248.0968)
(-2298347.901 -3.347637325e-09 484394.3225)
(-2253793.031 0 459239.7904)
(-2204105.882 0 435002.9594)
(-2150298.466 0 411607.9082)
(-2093754.557 0 389032.8442)
(-2034124.08 0 367468.5117)
(-1972988.932 0 346797.2485)
(-1910461.087 -1.575283619e-09 327126.6247)
(-1847057.735 0 308424.1952)
(-1783953.844 0 290606.3259)
(-1720608.347 0 273806.5774)
(-1657998.439 0 257894.4499)
(-1596374.65 0 242821.7997)
(-1535663.048 0 228666.3665)
(-1476753.573 0 215284.7992)
(-1419045.345 0 202760.4377)
(-1363119.942 7.811683971e-10 190968.7435)
(-1309174.001 0 179856.9085)
(-1256859.043 0 169473.8157)
(-1206740.188 0 159678.5093)
(-1158398.736 0 150557.5847)
(-1112211.488 0 141975.8675)
(-1067849.504 0 133943.5986)
(-1025034.074 0 126429.5817)
(-985671.51 0 119350.7457)
(-955647.5701 0 112728.5)
(-159670.7059 0 978063.6732)
(-343195.1703 0 974881.7299)
(-554581.0223 7.258580035e-08 969426.8947)
(-766607.5013 0 960471.1503)
(-960297.2493 0 948993.3625)
(-1145420.443 0 935102.8024)
(-1319102.342 0 918953.9248)
(-1479024.348 0 900894.8245)
(-1625436.762 0 881111.9543)
(-1759047.191 0 859740.6537)
(-1877252.715 -2.158191106e-08 836974.5631)
(-1981163.467 0 812884.1958)
(-2071058.745 -9.580685828e-09 787710.1039)
(-2146591.247 0 761729.6367)
(-2208740.169 0 735150.7052)
(-2257430.761 0 708061.0794)
(-2293258.265 0 680640.2896)
(-2317037.869 0 653004.6636)
(-2329232.183 0 625400.5663)
(-2331173.644 0 597892.9087)
(-2322969.628 0 570700.1983)
(-2305981.776 0 543880.6829)
(-2281216.552 0 517539.8348)
(-2248914.171 0 491807.6881)
(-2210898.383 3.399772133e-09 466683.5348)
(-2167101.999 0 442420.7559)
(-2119060.082 0 418905.7487)
(-2067044.383 0 396258.6558)
(-2011806.024 3.259542846e-09 374525.4095)
(-1954785.049 0 353636.5959)
(-1895490.077 0 333754.4804)
(-1835290.325 0 314777.3412)
(-1774607.324 1.593219647e-09 296719.5754)
(-1713530.445 0 279639.342)
(-1653150.273 0 263400.6067)
(-1592850.874 0 248107.0933)
(-1533558.026 0 233655.5698)
(-1475735.739 1.580643539e-09 219997.6895)
(-1418956.864 0 207200.3616)
(-1363987.12 0 195098.1525)
(-1310332.83 0 183790.1518)
(-1258492.108 0 173147.0408)
(-1208625.785 -7.977094165e-10 163130.3854)
(-1160447.062 0 153783.7689)
(-1114414.857 0 144967.9249)
(-1070081.358 0 136763.2126)
(-1027691.227 0 129024.3228)
(-986718.3937 0 121805.6026)
(-948893.1147 0 115041.4366)
(-919934.427 0 108650.1504)
(-154271.7301 0 948965.1781)
(-332504.9798 0 945836.4827)
(-537132.523 0 940405.0762)
(-742651.7369 -2.706654606e-08 931573.457)
(-930841.1385 0 920253.5073)
(-1109635.503 0 906650.5037)
(-1276741.015 0 890946.982)
(-1431966.816 0 873312.8374)
(-1574032.376 0 853948.5484)
(-1701594.384 0 832963.1178)
(-1815663.675 0 810529.0648)
(-1915392.267 0 786868.9955)
(-2001260.018 -9.729891698e-09 762266.9881)
(-2073929.911 0 736941.1145)
(-2132898.941 -8.864642256e-09 710934.2735)
(-2178993.749 0 684476.709)
(-2212668.104 -8.232064208e-09 657655.7519)
(-2234565.314 0 630756.0728)
(-2245711.995 0 603819.1915)
(-2246400.2 7.565055458e-09 577101.1227)
(-2238059.759 0 550589.0823)
(-2220863.195 3.624261772e-09 524574.0666)
(-2195945.636 0 499044.6935)
(-2164616.393 0 474020.7236)
(-2127062.95 0 449790.2196)
(-2084947.848 0 426233.0981)
(-2037905.853 0 403531.4933)
(-1987503.534 -3.338508144e-09 381640.6081)
(-1934448.391 0 360611.0952)
(-1878881.82 -1.643146888e-09 340527.1185)
(-1822221.857 0 321270.0601)
(-1764064.815 0 303020.5389)
(-1705548.107 0 285661.1174)
(-1647224.437 -1.61284097e-09 269160.3215)
(-1588785.181 0 253593.8864)
(-1531291.126 -1.606581656e-09 238798.8814)
(-1474372.799 0 224934.2425)
(-1418685.658 0 211853.8303)
(-1364563.506 0 199486.8072)
(-1311588.897 0 187918.5859)
(-1260450.414 0 176979.2834)
(-1210719.261 0 166778.0856)
(-1162849.121 -8.101326323e-10 157177.1744)
(-1116885.689 0 148166.9433)
(-1072615.346 0 139756.8358)
(-1030329.014 0 131810.9106)
(-989588.4193 0 124421.0726)
(-950488.4843 0 117443.6644)
(-914208.3994 0 110963.8576)
(-886389.2778 8.386565436e-10 104823.4949)
(-149308.1003 3.552609828e-07 920199.0572)
(-322654.3405 0 917166.3776)
(-521112.0741 0 911834.4779)
(-719459.5229 0 903237.2375)
(-901229.1604 0 892271.3621)
(-1074844.182 0 879022.192)
(-1237422.723 0 863689.6039)
(-1386777.647 0 846397.1773)
(-1523014.599 1.300626008e-08 827304.8911)
(-1646794.333 0 806655.3972)
(-1755896.228 0 784631.5784)
(-1851747.913 0 761544.0936)
(-1934676.355 0 737605.0676)
(-2003746.411 -9.406047099e-09 712805.4505)
(-2060015.973 0 687432.7622)
(-2103562.142 0 661542.8506)
(-2135211.714 0 635460.1664)
(-2155664.638 0 609199.691)
(-2165393.186 0 583056.5931)
(-2165559.868 -7.682870678e-09 556994.7131)
(-2156486.39 3.755788138e-09 531335.7437)
(-2139526.935 0 505976.5963)
(-2114880.398 0 481209.4417)
(-2083819.583 3.557078552e-09 457074.3834)
(-2047682.953 0 433548.5259)
(-2006148.455 0 410820.043)
(-1960967.349 0 388775.3582)
(-1912013.591 1.695250383e-09 367676.849)
(-1860510.863 0 347412.0763)
(-1807266.908 0 327959.0859)
(-1752217.435 0 309479.9612)
(-1696688.821 0 291802.4749)
(-1640324.428 0 275118.4136)
(-1583970.548 1.637958726e-09 259279.3418)
(-1528152.742 0 244209.5205)
(-1472650.943 0 230060.767)
(-1418406.323 0 216643.2699)
(-1364927.831 -8.151297782e-10 204083.1154)
(-1312778.98 -1.631291404e-09 192236.7297)
(-1262245.116 0 181051.4403)
(-1212980.295 0 170601.4262)
(-1165572.578 0 160721.8934)
(-1119647.499 8.227493216e-10 151530.1203)
(-1075594.378 0 142871.716)
(-1033233.413 0 134763.2549)
(-992538.2671 8.3279313e-10 127178.0994)
(-953663.7574 0 120018.5485)
(-916080.948 0 113364.6841)
(-881388.5967 8.464263497e-10 107077.6788)
(-854741.1497 0 101215.7196)
(-144384.0765 1.803968433e-07 892335.484)
(-312726.9894 0 889410.4863)
(-504976.4457 0 884199.3606)
(-697588.5558 -2.791615897e-08 875807.5258)
(-874297.0176 -2.23243052e-08 865110.1818)
(-1041848.175 0 852102.5224)
(-1198046.599 0 836969.8465)
(-1342635.102 0 819896.4861)
(-1474686.93 1.320881479e-08 801184.8083)
(-1592979.812 0 780970.8271)
(-1698722.975 0 759496.5735)
(-1791221.502 0 737049.835)
(-1870161.959 0 713573.4542)
(-1936459.06 -9.552533416e-09 689406.4378)
(-1989805.049 0 664567.1959)
(-2031209.683 0 639419.0769)
(-2061025.748 0 613948.2443)
(-2079909.844 -8.228885868e-09 588482.4254)
(-2088730.906 0 562966.4551)
(-2087968.368 0 537754.156)
(-2078820.233 0 512734.0676)
(-2061481.089 0 488219.6581)
(-2037521.806 0 464137.6563)
(-2007294.947 0 440789.2507)
(-1971524.666 0 418092.5566)
(-1931534.814 0 395996.0476)
(-1887313.226 0 374799.6222)
(-1840388.327 1.721651589e-09 354312.1723)
(-1790518.686 0 334775.8826)
(-1738846.281 -1.694724906e-09 316084.4896)
(-1686205.931 0 298178.1209)
(-1632382.913 0 281241.1263)
(-1578548.428 0 265070.5796)
(-1524246.018 0 249825.7108)
(-1470354.65 1.659562667e-09 235385.079)
(-1417433.986 0 221698.8369)
(-1365067.784 8.278659293e-10 208866.0457)
(-1314043.701 0 196693.8041)
(-1263949.742 0 185320.9203)
(-1215301.919 -8.294086511e-10 174593.9094)
(-1168255.01 0 164493.1783)
(-1122611.059 0 155063.1617)
(-1078815.835 0 146150.4475)
(-1036466.402 0 137863.5345)
(-995923.2474 0 130035.2285)
(-956907.8518 -8.457627438e-10 122736.8599)
(-919515.8827 0 115884.1641)
(-883593.5898 8.546076001e-10 109444.5094)
(-850228.7037 8.596082823e-10 103451.4994)
(-824569.5297 0 97756.82365)
(-139914.5497 0 865204.4288)
(-303683.2489 0 862351.2308)
(-490181.7656 0 857196.4642)
(-676169.9374 5.670182831e-08 848944.0912)
(-846736.0366 -2.267197507e-08 838319.0419)
(-1009127.153 0 825439.0187)
(-1160911.618 0 810601.5571)
(-1300275.698 0 793877.3169)
(-1427217.402 -1.341452363e-08 775592.0167)
(-1542305.746 0 756001.8536)
(-1643795.068 0 735091.4635)
(-1732342.33 0 713074.5231)
(-1808496.021 0 690245.971)
(-1871523.537 0 666586.0015)
(-1922633.592 0 642494.9004)
(-1961823.745 0 617931.9193)
(-1989920.944 0 593253.437)
(-2007497.77 4.178519636e-09 568389.2047)
(-2015210.76 -8.125874728e-09 543718.8879)
(-2014028.784 3.962017122e-09 519128.934)
(-2004268.239 0 494947.4949)
(-1987362.984 3.796241092e-09 471076.6195)
(-1963589.964 0 447888.1549)
(-1934171.761 0 425179.2188)
(-1899349.333 0 403186.3285)
(-1860104.102 0 381946.9569)
(-1817679.347 0 361359.8224)
(-1771859.548 -1.748463908e-09 341682.6056)
(-1724110.585 0 322715.7972)
(-1674213.501 0 304709.0826)
(-1623170.781 0 287527.07)
(-1571740.082 -1.70182853e-09 271117.1229)
(-1519542.469 -1.694811055e-09 255619.4846)
(-1467676.538 0 240831.6635)
(-1415881.91 -1.685408037e-09 226963.9437)
(-1364813.514 1.682817546e-09 213840.0963)
(-1314792.021 8.407587848e-10 201417.2395)
(-1265537.143 8.407165167e-10 189780.5258)
(-1217718.424 0 178744.6601)
(-1170965.643 0 168455.7957)
(-1125776.564 0 158747.4268)
(-1082117.154 0 149644.3703)
(-1039928.343 0 141138.8281)
(-999480.4202 0 133087.4465)
(-960448.1905 0 125606.7141)
(-923157.5107 0 118530.0716)
(-887261.7733 0 111960.8241)
(-852806.1109 -4.339584599e-10 105760.6796)
(-820773.1806 -8.729954805e-10 99978.36)
(-796056.3238 -4.392263353e-10 94520.92239)
(-135365.6074 0 838244.4896)
(-294328.7815 0 835421.0795)
(-474982.9609 0 830276.1351)
(-655413.5051 0 822138.8634)
(-821079.0447 0 811809.5684)
(-978120.7016 0 799241.2169)
(-1124231.244 0 784756.133)
(-1259312.976 0 768509.0546)
(-1382902.903 0 750819.5083)
(-1493027.393 0 731607.2466)
(-1590824.806 0 711177.6635)
(-1676412.912 0 689815.4984)
(-1748919.742 1.035031684e-08 667449.8097)
(-1809610.98 0 644524.7657)
(-1858125.851 0 620972.2169)
(-1895456.65 0 597184.1519)
(-1921863.082 0 573069.0509)
(-1938175.151 0 549058.7354)
(-1945112.409 0 525008.9836)
(-1943119.686 0 501271.0935)
(-1933403.321 0 477720.1583)
(-1916411.879 0 454761.8304)
(-1893347.62 0 432182.8514)
(-1864246.592 0 410293.0074)
(-1830569.945 0 388951.2653)
(-1792580.106 0 368418.0539)
(-1751048.16 0 348648.4955)
(-1707120.984 0 329533.1573)
(-1660629.324 0 311349.4501)
(-1612883.942 0 293862.5731)
(-1563685.889 0 277330.8108)
(-1513826.275 0 261575.9176)
(-1463879.202 0 246545.4304)
(-1413720.515 0 232407.2724)
(-1364271.087 0 218947.9757)
(-1315132.059 0 206340.687)
(-1266913.609 0 194408.1563)
(-1219789.165 0 183146.6368)
(-1173640.521 0 172602.9627)
(-1129005.494 0 162606.9646)
(-1085547.441 0 153309.8074)
(-1043732.681 0 144526.4927)
(-1003239.809 0 136321.2412)
(-964242.2386 0 128618.0429)
(-926942.5892 0 121363.9565)
(-891036.3069 0 114614.4863)
(-856703.392 0 108219.3752)
(-823544.9782 0 102293.0141)
(-792833.6528 0 96677.86877)
(-769108.6345 0 91451.13794)
(-131124.1141 0 811592.6412)
(-285636.534 6.457335601e-08 808884.8244)
(-460933.4776 0 803854.3156)
(-635571.3289 0 795955.1064)
(-795692.8987 2.338364287e-08 785862.9982)
(-947886.1253 0 773700.4695)
(-1090131.869 0 759758.5574)
(-1220745.821 0 744010.0463)
(-1339155.961 0 726667.2046)
(-1445973.527 0 707920.0678)
(-1540370.676 0 688054.3907)
(-1622102.213 1.111358449e-08 667079.9718)
(-1692203.565 0 645420.9298)
(-1749939.9 0 622973.2405)
(-1796488.985 0 600162.5174)
(-1831770.802 4.604816542e-09 576908.5403)
(-1856832.457 0 553600.8435)
(-1872072.451 4.309682355e-09 530237.1924)
(-1878040.501 0 507010.6886)
(-1875717.84 0 483913.064)
(-1865701.716 0 461293.7514)
(-1849114.753 0 438963.7569)
(-1826064.428 0 417240.7007)
(-1797935.938 -3.783895126e-09 395939.7861)
(-1764919.555 0 375437.5871)
(-1728277.114 0 355500.3893)
(-1688080.215 0 336395.9791)
(-1645224.409 -1.803347766e-09 318066.3129)
(-1600699.723 1.78811377e-09 300403.2152)
(-1554319.851 0 283664.6939)
(-1507222.192 -1.764244037e-09 267600.8255)
(-1459092.936 -1.755248516e-09 252432.1173)
(-1410812.899 1.748010764e-09 238001.2828)
(-1362846.754 -1.742402915e-09 224313.2187)
(-1315015.995 0 211443.0727)
(-1268052.077 0 199189.7021)
(-1221612.066 8.671499995e-10 187735.7799)
(-1176290.264 0 176889.0769)
(-1132053.374 0 166696.8858)
(-1088995.604 0 157153.7219)
(-1047497.02 0 148112.8426)
(-1007184.624 0 139710.2197)
(-968431.7248 0 131744.0594)
(-930986.6642 8.783260141e-10 124346.9088)
(-895118.4565 0 117369.939)
(-860668.3549 0 110837.058)
(-827590.8535 0 104724.2798)
(-795847.1839 0 98962.7103)
(-766264.5244 0 93608.30966)
(-743413.6198 0 88509.42832)
(-127065.1748 -1.918998201e-07 785689.3193)
(-277048.5138 0 783123.151)
(-446967.9041 0 778212.4077)
(-616455.2043 2.969622854e-08 770530.647)
(-772235.4863 0 760808.2943)
(-919932.4766 0 748989.4552)
(-1056898.111 0 735239.9848)
(-1182943.175 0 719861.9638)
(-1298092.022 0 703079.3323)
(-1400644.464 0 684782.2756)
(-1491295.187 0 665356.6539)
(-1570596.057 0 645121.1094)
(-1637390.295 0 623923.9697)
(-1693047.172 0 602208.0127)
(-1737249.589 0 579969.1529)
(-1771001.192 0 557465.1273)
(-1794763.026 0 534916.8372)
(-1808918.345 4.376799752e-09 512202.0558)
(-1814167.729 0 489690.0429)
(-1811478.192 0 467367.135)
(-1801515.283 0 445430.076)
(-1784740.701 3.976381235e-09 423927.7349)
(-1762309.563 0 402788.4278)
(-1734553.61 3.842824107e-09 382365.8357)
(-1702722.087 0 362414.9327)
(-1666843.977 0 343279.6787)
(-1628209.645 0 324721.1567)
(-1586774.521 0 307036.5793)
(-1543454.88 0 290090.698)
(-1499029.358 -1.802788778e-09 273849.1175)
(-1453254.548 0 258465.6785)
(-1407183.124 0 243712.8939)
(-1360659.323 0 229858.6296)
(-1314399.324 0 216683.3495)
(-1268528.47 0 204223.32)
(-1223098.622 0 192510.6485)
(-1178694.829 8.806546724e-10 181362.7325)
(-1134996.27 0 170966.0741)
(-1092601.664 0 161111.4768)
(-1051245.097 0 151906.9272)
(-1011195.279 0 143254.21)
(-972631.3932 0 135091.6481)
(-935258.5784 0 127487.8396)
(-899428.9879 -8.920047381e-10 120280.7705)
(-864879.9135 -8.956268319e-10 113597.447)
(-831846.9777 0 107263.5117)
(-800071.3138 0 101384.8608)
(-769535.2832 0 95834.72075)
(-741076.0041 0 90648.54954)
(-719054.1036 -4.600686088e-10 85759.82802)
(-123376.964 0 760543.7094)
(-269151.8279 0 758105.7102)
(-434066.252 4.106888863e-08 753347.6362)
(-598476.0193 0 745909.2666)
(-749135.8334 0 736330.1487)
(-891758.3761 0 724831.8818)
(-1025102.033 0 711422.1311)
(-1147664.872 0 696511.1268)
(-1257980.209 0 679947.4004)
(-1357099.854 0 662210.6057)
(-1445207.794 0 643557.1497)
(-1520824.49 0 623757.775)
(-1585369.272 0 603293.0691)
(-1638458.851 0 582195.9386)
(-1680889.658 0 560647.4912)
(-1713195.498 0 539015.7734)
(-1735450.354 0 516991.3773)
(-1748527.456 0 495108.2503)
(-1753253.899 0 473165.5881)
(-1750221.141 0 451662.5666)
(-1740212.243 0 430303.0282)
(-1723598.671 0 409461.1756)
(-1701443.858 0 389089.2914)
(-1674575.424 0 369258.8488)
(-1643265.889 0 350132.442)
(-1608724.726 0 331505.2021)
(-1570983.632 -1.878230616e-09 313730.2225)
(-1531217.474 0 296524.8374)
(-1489377.988 0 280218.4844)
(-1446252.338 0 264590.3015)
(-1402282.317 0 249662.0348)
(-1357620.011 -1.810345394e-09 235564.4868)
(-1313112.431 0 222081.1186)
(-1268441.2 0 209434.6588)
(-1224321.459 0 197399.2749)
(-1180650.185 0 186073.6726)
(-1137703.813 0 175413.4417)
(-1095917.015 0 165296.6533)
(-1054994.226 8.948907397e-10 155872.314)
(-1015427.903 0 146923.8886)
(-976911.1774 0 138609.9035)
(-939760.5391 0 130746.8226)
(-903888.4318 -9.026845202e-10 123381.9951)
(-869323.7465 0 116488.9611)
(-836230.031 0 109979.0594)
(-804386.686 0 103935.5331)
(-773920.0885 0 98195.51128)
(-744480.6444 0 92880.05148)
(-717149.1304 -4.643309592e-10 87831.92166)
(-696030.4749 0 83147.96815)
(-119819.4985 3.958470224e-07 735787.353)
(-261405.4454 0 733403.6055)
(-421352.1251 0 728886.0517)
(-580716.7858 0 721761.2271)
(-727393.8149 0 712439.4187)
(-866067.4739 0 701390.5443)
(-994649.5652 0 688374.3984)
(-1112504.169 0 673746.5968)
(-1219959.163 0 657727.5557)
(-1316233.552 0 640681.8509)
(-1400426.018 0 622367.5039)
(-1473699.338 0 603255.7123)
(-1535500.176 0 583374.7529)
(-1586545.993 0 562926.1784)
(-1627410.303 0 542277.5018)
(-1657840.258 0 521080.3393)
(-1678842.415 0 499904.0125)
(-1691016.897 4.514186486e-09 478539.5169)
(-1695119.494 0 457514.4687)
(-1691792.486 -4.280291995e-09 436503.1432)
(-1681479.339 0 415960.035)
(-1665297.388 0 395642.0685)
(-1643602.461 0 376008.786)
(-1617366.016 0 356805.6781)
(-1586995.497 0 338259.4601)
(-1553180.954 1.928916386e-09 320405.8475)
(-1516904.37 0 303109.7593)
(-1478155.459 0 286660.6832)
(-1437981.036 1.872963794e-09 270775.6104)
(-1396204.155 1.859377902e-09 255739.5511)
(-1353747.74 0 241341.3607)
(-1310830.98 0 227698.3642)
(-1267672.985 0 214808.8235)
(-1224893.849 9.125419282e-10 202484.8625)
(-1182223.246 9.103997166e-10 190952.4086)
(-1140339.304 0 179963.3872)
(-1099002.326 0 169688.2795)
(-1058643.227 0 159982.0834)
(-1019445.261 -9.088274202e-10 150832.3033)
(-981226.5298 0 142290.9961)
(-944330.1554 0 134170.0708)
(-908505.9534 0 126633.896)
(-874084.7263 9.167425779e-10 119487.2246)
(-840832.956 9.20004561e-10 112845.0751)
(-808969.7436 0 106577.7729)
(-778365.5241 0 100712.9177)
(-748957.5187 0 95215.0179)
(-720706.2503 0 90034.61364)
(-694364.8138 0 85214.69875)
(-673973.7509 0 80637.84846)
(-116401.0594 0 711960.3487)
(-254409.8552 0 709610.702)
(-409967.031 0 705153.5685)
(-564430.2291 0 698237.3784)
(-706486.9096 0 689160.5313)
(-840514.6793 0 678184.8273)
(-965256.5567 0 665635.8284)
(-1080133.943 0 651676.9257)
(-1183828.612 0 636247.6468)
(-1276313.238 0 619552.1784)
(-1358139.562 0 601911.9542)
(-1428421.04 0 583312.3831)
(-1488017.432 0 564062.8261)
(-1537414.305 0 544487.6626)
(-1576047.394 0 524214.356)
(-1605070.268 0 503824.6037)
(-1624837.639 0 483117.7087)
(-1636265.204 0 462674.2436)
(-1639805.313 0 442149.9378)
(-1635989.318 0 422014.7092)
(-1625749.097 0 401986.7436)
(-1609604.896 0 382565.549)
(-1588523.657 0 363413.4798)
(-1562760.319 0 344970.0471)
(-1533415.553 0 326957.7275)
(-1500635.42 0 309713.7041)
(-1465277.179 0 293091.0852)
(-1428000.188 0 277118.0319)
(-1388831.089 0 261920.5071)
(-1348720.372 0 247256.1411)
(-1307621.698 0 233455.5095)
(-1266363.628 0 220239.7789)
(-1224744.698 0 207782.0337)
(-1183270.384 0 195976.8887)
(-1142383.354 0 184756.2099)
(-1101840.842 0 174249.9284)
(-1062243.121 0 164232.1139)
(-1023362.07 0 154914.0254)
(-985642.9045 0 146078.3508)
(-948866.2201 0 137802.752)
(-913197.9635 0 130026.1003)
(-878872.3378 0 122686.6935)
(-845638.2351 0 115860.9645)
(-813751.9389 0 109369.9392)
(-783021.7865 0 103366.3532)
(-753611.3226 0 97658.72302)
(-725300.0234 0 92369.77862)
(-698092.6807 0 87360.33713)
(-672731.5319 0 82698.8126)
(-653059.2411 0 78285.71026)
(-113049.3587 2.04136281e-07 688788.5547)
(-247095.3515 0 686481.6543)
(-398207.0617 0 681872.8583)
(-548123.8347 0 675076.2396)
(-686025.165 0 666416.346)
(-816777.9786 0 655858.8677)
(-938150.0462 0 643796.8302)
(-1048737.683 -1.64758583e-08 630066.6914)
(-1148997.427 0 615125.8562)
(-1239003.701 0 599140.761)
(-1317400.69 0 581913.3599)
(-1385385.684 0 563978.8999)
(-1443231.923 0 545572.4824)
(-1490043.267 0 526300.744)
(-1527120.668 0 506811.1467)
(-1554559.291 0 486855.911)
(-1573514.635 4.803887647e-09 467033.1723)
(-1584156.515 0 447134.8252)
(-1587094.495 0 427422.2428)
(-1583053.394 -4.414649296e-09 407825.573)
(-1572691.735 0 388674.5316)
(-1556895.183 -2.114967269e-09 369770.6872)
(-1535985.036 -2.077120651e-09 351482.546)