/*--------------------------------*- C++ -*----------------------------------*\
  =========                 |
  \\      /  F ield         | OpenFOAM: The Open Source CFD Toolbox
   \\    /   O peration     | Website:  https://openfoam.org
    \\  /    A nd           | Version:  7
     \\/     M anipulation  |
\*---------------------------------------------------------------------------*/
FoamFile
{
    version     2.0;
    format      ascii;
    class       volScalarField;
    location    "0.0027";
    object      p;
}
// * * * * * * * * * * * * * * * * * * * * * * * * * * * * * * * * * * * * * //

dimensions      [1 -1 -2 0 0 0 0];

internalField   nonuniform List<scalar> 
1166
(
1469616.449
1468963.289
1469149.519
1468531.165
1468663.13
1468758.6
1468831.284
1468912.992
1469011.852
1469133.627
1469271.5
1469418.999
1469585.352
1469762.068
1469956.172
1470160.696
1470378.293
1470603.976
1470839.943
1471081.961
1471333.212
1471586.882
1471844.95
1472103.916
1472364.364
1472625.776
1472884.697
1473141.952
1473394.921
1473644.013
1473888.753
1474127.004
1474359.394
1474585.876
1474804.924
1475016.483
1475220.545
1475417.095
1475605.866
1475787.456
1475961.748
1476128.42
1476287.997
1476440.538
1476586.093
1476725.448
1476858.061
1476984.786
1477105.182
1477220.369
1477336.842
1477452.682
1468732.214
1468142.982
1468264.366
1468352.032
1468424.799
1468511.044
1468613.936
1468728.034
1468862.959
1469012.335
1469170.961
1469346.584
1469532.773
1469733.811
1469942.663
1470162.466
1470389.097
1470625.357
1470865.072
1471109.8
1471356.657
1471606.137
1471856.596
1472105.79
1472354.074
1472599.17
1472841.07
1473079.322
1473311.986
1473539.188
1473761.107
1473976.302
1474184.172
1474385.355
1474579.344
1474765.692
1474945.257
1475117.772
1475282.883
1475441.071
1475591.888
1475736.842
1475875.437
1476007.179
1476133.186
1476252.788
1476366.992
1476476.788
1476586.93
1476697.378
1468329.072
1467772.12
1467895.048
1467985.793
1468056.767
1468135.348
1468236.609
1468353.325
1468480.597
1468625.976
1468785.249
1468954.445
1469138.304
1469330.667
1469534.384
1469745.85
1469967.299
1470193.148
1470424.564
1470659.374
1470898.144
1471137.192
1471376.425
1471615.564
1471852.666
1472087.378
1472318.778
1472545.609
1472767.346
1472984.516
1473195.789
1473399.953
1473597.918
1473789.006
1473973.126
1474150.536
1474320.675
1474484.743
1474641.883
1474791.446
1474935.144
1475072.326
1475203.791
1475329.29
1475448.371
1475562.213
1475670.053
1475774.401
1475879.498
1475983.624
1467958.699
1467427.541
1467545.763
1467634.206
1467705.492
1467788.47
1467885.948
1467997.922
1468126.192
1468267.189
1468421.393
1468588.875
1468764.96
1468952.812
1469149.325
1469356.07
1469568.089
1469786.179
1470008.604
1470235.639
1470464.092
1470693.483
1470923.324
1471152.173
1471379.214
1471603.865
1471824.806
1472040.899
1472253.012
1472459.769
1472660.667
1472855.446
1473043.414
1473225.426
1473400.878
1473569.086
1473731.368
1473886.65
1474035.702
1474178.51
1474314.669
1474445.401
1474569.943
1474688.82
1474802.442
1474910.124
1475013.068
1475111.631
1475211.421
1475310.894
1467618.834
1467115.981
1467230.056
1467314.012
1467378.811
1467459.414
1467557.13
1467668.947
1467792.157
1467931.377
1468082.921
1468243.037
1468415.249
1468597.021
1468789.179
1468987.41
1469192.2
1469402.238
1469617.452
1469835.212
1470054.777
1470274.998
1470495.353
1470714.489
1470932.046
1471146.471
1471357.24
1471564.326
1471766.631
1471963.865
1472155.363
1472340.335
1472519.632
1472692.151
1472859.206
1473020.054
1473173.892
1473321.846
1473463.315
1473598.918
1473728.977
1473852.568
1473971.174
1474084.115
1474191.818
1474294.822
1474392.247
1474486.361
1474580.58
1474675.217
1467292.329
1466815.08
1466925.403
1467008.008
1467075.818
1467155.119
1467248.201
1467358.148
1467481.185
1467614.776
1467761.204
1467918.685
1468086.024
1468263.755
1468448.287
1468639.837
1468837.519
1469040.864
1469247.724
1469456.972
1469667.865
1469879.682
1470090.713
1470301.028
1470508.919
1470714.027
1470915.87
1471113.537
1471306.711
1471493.891
1471676.613
1471853.594
1472023.742
1472188.693
1472347.361
1472500.323
1472647.251
1472787.174
1472922.299
1473051.648
1473174.85
1473292.942
1473405.009
1473512.681
1473615.225
1473713.044
1473806.361
1473895.345
1473985.468
1474074.77
1466996.695
1466541.778
1466647.749
1466726.903
1466791.039
1466869.153
1466963.004
1467070.187
1467188.096
1467318.833
1467461.024
1467614.389
1467777.844
1467948.656
1468126.952
1468312.254
1468503.648
1468699.497
1468898.269
1469099.49
1469301.981
1469505.337
1469708.394
1469909.552
1470108.59
1470304.129
1470497.831
1470687.316
1470870.745
1471050.041
1471223.556
1471392.136
1471555.22
1471711.669
1471863.505
1472009.286
1472148.419
1472282.498
1472410.437
1472533.781
1472651.525
1472763.386
1472870.692
1472972.515
1473070.529
1473163.65
1473252.301
1473337.633
1473422.961
1473508.85
1466713.595
1466280.997
1466383.728
1466461.33
1466526.417
1466602.839
1466692.832
1466796.561
1466912.485
1467039.953
1467179.402
1467328.781
1467486.032
1467651.201
1467824.213
1468003.666
1468188.46
1468376.679
1468568.233
1468761.537
1468956.635
1469151.993
1469346.382
1469539.448
1469729.213
1469917.6
1470102.079
1470282.528
1470458.685
1470629.036
1470795.282
1470955.974
1471110.965
1471261.12
1471404.885
1471543.832
1471677.124
1471804.419
1471927.044
1472043.588
1472155.86
1472262.905
1472364.679
1472462.453
1472555.189
1472644.228
1472728.335
1472809.605
1472891.44
1472972.671
1466454.624
1466041.668
1466140.608
1466215.301
1466277.599
1466351.567
1466439.888
1466541.07
1466654.712
1466779.834
1466915.241
1467058.734
1467210.756
1467371.491
1467538.949
1467712.579
1467890.094
1468071.829
1468255.781
1468442.238
1468628.864
1468817.056
1469004.204
1469187.962
1469370.931
1469550.537
1469727.343
1469899.738
1470067.449
1470231.029
1470388.637
1470542.466
1470691.053
1470833.701
1470971.467
1471102.814
1471230.324
1471352.609
1471468.84
1471580.647
1471686.706
1471788.956
1471886.403
1471979.378
1472068.58
1472152.765
1472233.421
1472310.403
1472388.657
1472466.363
1466209.63
1465815.18
1465910.457
1465982.492
1466043.667
1466116.02
1466203.053
1466302.463
1466413.337
1466534.885
1466664.731
1466803.694
1466952.219
1467107.674
1467270.079
1467436.779
1467608.537
1467782.955
1467960.846
1468139.33
1468319.8
1468499.017
1468678.182
1468856.071
1469030.82
1469203.338
1469371.055
1469536.483
1469697.504
1469852.872
1470004.425
1470150.149
1470292.478
1470429.486
1470559.982
1470686.377
1470807.034
1470923.862
1471035.507
1471141.556
1471243.562
1471340.255
1471433.634
1471522.469
1471607.363
1471688.464
1471764.93
1471839.059
1471913.11
1471987.898
1465979.5
1465602.387
1465694.452
1465764.445
1465825.537
1465896.783
1465981.38
1466077.974
1466185.714
1466302.19
1466428.15
1466564.575
1466708.069
1466859.216
1467015.013
1467176.679
1467341.406
1467510.507
1467680.621
1467853.575
1468025.882
1468198.552
1468369.266
1468540.43
1468709.208
1468872.903
1469034.5
1469191.259
1469345.46
1469495.213
1469639.133
1469779.549
1469914.164
1470044.958
1470170.686
1470290.831
1470407
1470517.371
1470624.116
1470725.916
1470822.88
1470916.198
1471004.584
1471089.815
1471170.529
1471247.975
1471321.57
1471392.126
1471463.658
1471534.209
1465767.662
1465406.222
1465495.452
1465563.21
1465621.728
1465691.138
1465774.514
1465867.292
1465970.666
1466085.455
1466207.96
1466338.931
1466478.697
1466623.451
1466774.844
1466929.684
1467089.784
1467251.285
1467416.441
1467581.57
1467747.95
1467912.442
1468077.998
1468240.864
1468401.946
1468560.415
1468713.95
1468865.028
1469010.939
1469154.402
1469293.442
1469426.874
1469556.413
1469679.976
1469800.572
1469916.335
1470026.677
1470133.103
1470233.955
1470331.532
1470424.463
1470513.479
1470598.973
1470679.604
1470757.329
1470830.772
1470901.433
1470968.926
1471037.23
1471105.354
1465566.7
1465220.193
1465306.798
1465372.961
1465431.617
1465498.194
1465576.851
1465667.03
1465769.569
1465879.668
1465998.436
1466126.834
1466260.526
1466401.595
1466546.438
1466697.384
1466850.041
1467007.182
1467164.82
1467324.65
1467482.783
1467642.591
1467800.154
1467956.987
1468110.154
1468261.916
1468410.678
1468553.972
1468694.853
1468830.538
1468963.969
1469092.657
1469215.523
1469335.026
1469449.102
1469560.068
1469666.097
1469767.34
1469864.878
1469957.178
1470046.609
1470131.561
1470213.167
1470291.057
1470365.053
1470436.208
1470503.088
1470568.184
1470633.079
1470698.731
1465385.116
1465050.659
1465133.789
1465196.404
1465250.62
1465315.31
1465394.317
1465482.385
1465579.741
1465686.908
1465803.149
1465925.467
1466056.049
1466190.635
1466331.936
1466475.547
1466623.568
1466774.194
1466926.836
1467078.903
1467232.891
1467385.117
1467537.436
1467685.998
1467834.061
1467978.109
1468120.428
1468259.477
1468393.162
1468524.5
1468650.548
1468773.728
1468892.215
1469006.106
1469116.556
1469221.398
1469323.211
1469420.192
1469513.281
1469602.901
1469687.633
1469769.577
1469846.969
1469921.862
1469993.004
1470060.938
1470125.766
1470187.789
1470250.779
1470312.732
1465206.884
1464885.223
1464966.273
1465027.706
1465083.22
1465147.26
1465221.653
1465306.97
1465404.075
1465506.623
1465617.047
1465737
1465861.075
1465992.144
1466126.745
1466265.162
1466408.487
1466552.624
1466699.101
1466845.78
1466993.707
1467141.334
1467285.684
1467429.873
1467570.133
1467709.333
1467844.075
1467977.354
1468106.973
1468231.91
1468353.817
1468470.065
1468584.146
1468693.643
1468798.931
1468900.645
1468996.863
1469090.301
1469179.087
1469264.907
1469347.024
1469425.014
1469500.164
1469571.088
1469639.733
1469704.516
1469766.918
1469826.52
1469886.77
1469946.963
1465048.967
1464738.819
1464817.4
1464875.997
1464926.84
1464987.262
1465059.589
1465144.818
1465235.589
1465334.449
1465443.662
1465557.188
1465678.121
1465803.324
1465932.239
1466067.78
1466203.932
1466343.586
1466482.602
1466625.127
1466765.967
1466907.22
1467046.671
1467184.153
1467320.474
1467452.143
1467582.681
1467708.557
1467833.28
1467953.708
1468069.578
1468182.64
1468290.518
1468395.989
1468496.613
1468593.775
1468687.262
1468775.889
1468861.912
1468943.339
1469022.429
1469097.453
1469169.333
1469238.268
1469303.628
1469366.716
1469425.902
1469483.589
1469541.042
1469599.468
1464898.341
1464595.963
1464672.528
1464729.382
1464779.523
1464842.232
1464911.774
1464990.046
1465077.588
1465175.621
1465278.438
1465389.306
1465504.647
1465624.212
1465751.176
1465879.229
1466011.606
1466143.549
1466279.572
1466414.358
1466550.593
1466683.917
1466818.487
1466950.065
1467080.165
1467208.252
1467331.982
1467454.406
1467572.013
1467687.693
1467798.864
1467907.025
1468012.126
1468111.78
1468208.983
1468301.287
1468391.028
1468476.893
1468559.05
1468638.457
1468713.215
1468785.762
1468854.389
1468920.8
1468983.914
1469044.313
1469101.869
1469157.01
1469213.069
1469268.444
1464758.597
1464465.336
1464543.322
1464600.539
1464647.674
1464703.302
1464770.009
1464848.489
1464932.887
1465024.365
1465125.31
1465230.138
1465339.937
1465458.02
1465577.605
1465702.329
1465826.771
1465956.013
1466084.564
1466215.537
1466343.735
1466473.587
1466600.249
1466727.325
1466850.674
1466973.509
1467093.324
1467209.931
1467324.293
1467433.221
1467540.773
1467643.859
1467744.413
1467841.225
1467933.602
1468023.361
1468108.259
1468191.248
1468270.165
1468346.142
1468418.884
1468488.1
1468555.054
1468618.048
1468679.297
1468736.944
1468792.633
1468845.744
1468899.778
1468953.491
1464639.264
1464350.601
1464422.733
1464475.129
1464520.094
1464574.833
1464642.184
1464714.336
1464794.777
1464886.115
1464979.799
1465079.473
1465188.383
1465299.107
1465415.803
1465532.032
1465653.042
1465775.581
1465899.983
1466023.536
1466148.277
1466270.939
1466394.29
1466513.774
1466633.506
1466749.136
1466864.727
1466976.38
1467085.242
1467191.486
1467293.375
1467393.382
1467488.398
1467581.672
1467670.736
1467756.496
1467839.472
1467918.167
1467994.76
1468066.987
1468137.329
1468204.147
1468268.333
1468329.839
1468388.412
1468444.791
1468497.864
1468549.761
1468601.352
1468653.954
1464519.829
1464238.042
1464309.259
1464362.509
1464409.4
1464460.309
1464520.176
1464589.476
1464670.378
1464753.36
1464842.758
1464942.135
1465043.252
1465150.342
1465258.905
1465370.941
1465487.253
1465603.823
1465722.689
1465840.459
1465959.726
1466077.626
1466194.695
1466310.874
1466424.083
1466536.98
1466645.536
1466753.192
1466856.35
1466958.466
1467057.168
1467152.373
1467245.222
1467333.029
1467419.172
1467501.05
1467580.858
1467657.308
1467730.426
1467801.073
1467867.832
1467932.796
1467993.998
1468053.701
1468110.155
1468164.487
1468216.101
1468265.984
1468316.394
1468366.599
1464425.708
1464146.807
1464215.145
1464262.941
1464302.988
1464351.234
1464410.94
1464479.236
1464551.146
1464630.069
1464719.636
1464810.832
1464908.072
1465008.293
1465110.898
1465220.574
1465329.694
1465442.549
1465553.522
1465667.764
1465779.449
1465893.094
1466003.706
1466115.082
1466223.892
1466331.297
1466436.84
1466538.263
1466638.82
1466734.952
1466830.188
1466921.255
1467009.906
1467095.513
1467177.367
1467257.329
1467332.911
1467406.99
1467477.155
1467545.116
1467610.149
1467672.344
1467732.392
1467789.288
1467844.519
1467896.346
1467946.771
1467994.621
1468043.775
1468092.099
1464329.97
1464054.925
1464122.211
1464168.55
1464208.547
1464259.148
1464313.139
1464373.872
1464443.296
1464521.708
1464602.457
1464689.698
1464781.207
1464875.065
1464976.449
1465077.796
1465183.768
1465287.94
1465396.161
1465502.162
1465610.793
1465716.383
1465823.729
1465927.59
1466032.621
1466134.015
1466234.799
1466332.553
1466428.232
1466522.099
1466611.74
1466700.055
1466783.806
1466866.44
1466945.406
1467021.915
1467095.858
1467166.226
1467234.755
1467299.329
1467362.569
1467422.368
1467480.45
1467535.704
1467588.792
1467639.647
1467688.084
1467735.068
1467782.198
1467829.924
1464249.32
1463978.608
1464047.868
1464095.285
1464130.473
1464171.798
1464222.015
1464282.457
1464348.86
1464418.756
1464495.881
1464577.838
1464662.288
1464754.818
1464847.279
1464944.382
1465041.842
1465141.745
1465242.814
1465344.599
1465446.383
1465548.432
1465649.118
1465750.24
1465848.429
1465946.721
1466040.638
1466135.064
1466225.845
1466315.576
1466402.261
1466486.117
1466568.05
1466645.882
1466722.627
1466795.402
1466866.814
1466934.819
1467000.486
1467063.761
1467124.101
1467182.775
1467238.125
1467292.145
1467342.956
1467392.68
1467439.446
1467485.178
1467530.93
1467577.28
1466645.825
1466712.083
1466774.661
1466836.102
1466894.435
1466950.991
1467005.076
1467056.968
1467107.013
1467154.69
1467200.696
1467244.636
1467289.688
1467334.055
)
;

boundaryField
{
    front_top
    {
        type            wedge;
    }
    front_middle
    {
        type            wedge;
    }
    front_bottom
    {
        type            wedge;
    }
    back_top
    {
        type            wedge;
    }
    back_middle
    {
        type            wedge;
    }
    back_bottom
    {
        type            wedge;
    }
    axis_top
    {
        type            symmetryPlane;
    }
    axis_middle
    {
        type            symmetryPlane;
    }
    axis_bottom
    {
        type            symmetryPlane;
    }
    wall_top
    {
        type            fixedFluxPressure;
        gradient        uniform 0;
        value           nonuniform List<scalar> 
24
(
1477452.682
1476697.378
1475983.624
1475310.894
1474675.217
1474074.77
1473508.85
1472972.671
1472466.363
1471987.898
1471534.209
1471105.354
1470698.731
1470312.732
1469946.963
1469599.468
1469268.444
1468953.491
1468653.954
1468366.599
1468092.099
1467829.924
1467577.28
1467334.055
)
;
    }
    wall_middle
    {
        type            fixedFluxPressure;
        gradient        nonuniform 0();
        value           nonuniform 0();
    }
    wall_bottom
    {
        type            fixedFluxPressure;
        gradient        nonuniform 0();
        value           nonuniform 0();
    }
    inlet
    {
        type            zeroGradient;
    }
    outlet
    {
        type            fixedValue;
        value           nonuniform 0();
    }
    procBoundary8to7
    {
        type            processor;
        value           nonuniform List<scalar> 
51
(
1464193.351
1463920.3
1463983.974
1464024.877
1464056.822
1464096.273
1464148.259
1464202.096
1464260.923
1464327.966
1464399.566
1464473.858
1464556.512
1464639.762
1464726.974
1464817.316
1464908.1
1465003.385
1465097.113
1465194.4
1465289.437
1465386.783
1465481.966
1465577.886
1465671.967
1465764.353
1465855.776
1465944.417
1466032.662
1466116.559
1466200.165
1466279.961
1466358.336
1466433.958
1466507.036
1466578.29
1466578.29
1466432.858
1466496.133
1466557.505
1466615.962
1466673.183
1466727.043
1466779.922
1466829.79
1466878.637
1466924.856
1466969.569
1467012.413
1467056.15
1467099.712
)
;
    }
    procBoundary8to9
    {
        type            processor;
        value           nonuniform List<scalar> 
51
(
1470099.859
1469407.886
1469099.192
1469099.192
1469192.95
1469257.86
1469343.052
1469448.198
1469567.628
1469701.245
1469856.376
1470023.635
1470209.8
1470408.515
1470618.426
1470842.311
1471075.704
1471319.015
1471570.483
1471827.818
1472094.106
1472361.699
1472633.014
1472904.085
1473175.707
1473447.576
1473715.615
1473980.593
1474242.414
1474498.848
1474749.922
1474993.636
1475231.122
1475462.08
1475684.83
1475899.748
1476106.859
1476306.066
1476497.402
1476680.786
1476856.813
1477025.071
1477185.927
1477339.723
1477486.485
1477626.927
1477760.602
1477887.371
1478009.334
1478131.867
1478254.625
)
;
    }
}


// ************************************************************************* //
