/*--------------------------------*- C++ -*----------------------------------*\
  =========                 |
  \\      /  F ield         | OpenFOAM: The Open Source CFD Toolbox
   \\    /   O peration     | Website:  https://openfoam.org
    \\  /    A nd           | Version:  7
     \\/     M anipulation  |
\*---------------------------------------------------------------------------*/
FoamFile
{
    version     2.0;
    format      ascii;
    class       volScalarField;
    location    "0.0027";
    object      T;
}
// * * * * * * * * * * * * * * * * * * * * * * * * * * * * * * * * * * * * * //

dimensions      [0 0 0 1 0 0 0];

internalField   nonuniform List<scalar> 
1166
(
411.2790652
411.3265264
411.8973691
411.9444654
412.0453832
412.1943275
412.3878133
412.6231016
412.8974508
413.2081577
413.5523715
413.9281285
414.3328485
414.7642431
415.2204846
415.699047
416.1986198
416.7167464
417.2522848
417.8030446
418.3679076
418.9452192
419.5335157
420.1318027
420.7382886
421.3524096
421.9727688
422.5983093
423.228399
423.8616663
424.4976461
425.1356334
425.774342
426.4137081
427.0529403
427.6911478
428.3282073
428.9633194
429.5960211
430.2261529
430.8528712
431.4761694
432.0957266
432.7107887
433.3215898
433.9275653
434.5285442
435.1245088
435.7147502
436.2996239
436.8785968
437.4517172
412.5014436
412.5481073
412.6481006
412.7957616
412.9878184
413.2212636
413.4931809
413.8012583
414.1430318
414.5155349
414.917051
415.3451152
415.7975761
416.2726707
416.7681384
417.2825523
417.8137837
418.3605662
418.9211787
419.4941393
420.0782788
420.6718885
421.274276
421.8838418
422.4997303
423.1210827
423.7464243
424.37545
425.0070914
425.6404053
426.2750633
426.9100448
427.5448453
428.1790765
428.8116821
429.442618
430.0713428
430.6971047
431.3199678
431.939262
432.5546617
433.1661201
433.7728485
434.375096
434.9723885
435.5644288
436.1513326
436.7323424
437.3078983
437.8774972
413.0918577
413.1381824
413.2373107
413.3836723
413.5740502
413.8055856
414.0755962
414.3811428
414.7199826
415.0898981
415.4880993
415.9128727
416.3619446
416.8333009
417.3251806
417.8355603
418.3629855
418.9056991
419.4621698
420.0310791
420.6107763
421.2004498
421.7983009
422.4036614
423.0153269
423.6320928
424.2534306
424.8780353
425.5053058
426.1346236
426.7648017
427.3956584
428.0263706
428.6561812
429.2849111
429.9116971
430.5362362
431.1583064
431.7769966
432.3924247
433.0040499
433.611465
434.2147346
434.8131174
435.4067471
435.9952738
436.5783552
437.1561856
437.7280508
438.2943721
413.6685846
413.7145121
413.8129321
413.9582792
414.1473428
414.3769103
414.6446269
414.9479631
415.2842757
415.65109
416.0465297
416.4679724
416.9137062
417.3815823
417.8697304
418.3764639
418.9000247
419.4387967
419.9913416
420.5560383
421.131939
421.7171365
422.3110467
422.9121591
423.5195272
424.1323755
424.7492415
425.3697813
425.9929263
426.6178785
427.2442217
427.8708321
428.4973914
429.123407
429.7478511
430.3707585
430.9914288
431.6093768
432.2245028
432.835956
433.4437954
434.0476775
434.6470407
435.2420333
435.8319625
436.4169251
436.9966475
437.5708178
438.1396348
438.7023778
414.2326398
414.2781806
414.3757725
414.5198981
414.7073747
414.9353909
415.2012239
415.5020373
415.8357917
416.2001119
416.5923377
417.0108783
417.4532202
417.9176991
418.4023479
418.9054464
419.4252546
419.9602481
420.5088031
421.0697794
421.6413773
422.2228671
422.812515
423.4096182
424.0130035
424.6215172
425.2345996
425.8508874
426.4699696
427.0911032
427.7131345
428.3359091
428.9585042
429.5803469
430.2011856
430.8200294
431.4368658
432.0511878
432.6622824
433.2702389
433.8743481
434.4745192
435.0705185
435.6617276
436.2483642
436.8297697
437.4060786
437.9770214
438.5423133
439.102079
414.7838122
414.8290505
414.9259944
415.0691638
415.2552259
415.4813668
415.7451091
416.043966
416.3751995
416.7366775
417.1263943
417.5416091
417.9809225
418.4420334
418.9233034
419.4228249
419.9390258
420.4702432
421.0151722
421.5720929
422.1401267
422.7173684
423.3032928
423.8963567
424.4957029
425.1004809
425.709271
426.3218009
426.936936
427.5539355
428.1723594
428.7909997
429.4097435
430.0278657
430.6446296
431.2599468
431.872967
432.4834638
433.0911257
433.6952322
434.2959265
434.89253
435.4849051
436.0728836
436.6558651
437.2341215
437.8070043
438.3746842
438.9368105
439.4932317
415.3229223
415.3677922
415.4639478
415.6059565
415.7906877
416.0153779
416.2772311
416.5737131
416.902683
417.2616956
417.6483178
418.0609093
418.4969678
418.9549851
419.432838
419.9289494
420.4415768
420.9692827
421.5103948
422.0637978
422.6277345
423.201518
423.7833571
424.3726755
424.9682069
425.5688746
426.1741313
426.7825892
427.3939186
428.007175
428.6215121
429.236629
429.8514587
430.4657582
431.0790219
431.69043
432.299951
432.9067909
433.510739
434.1115965
434.7085664
435.3018443
435.8907756
436.4752491
437.0551179
437.6298707
438.1997628
438.7640792
439.3231084
439.8764239
415.8499854
415.8945714
415.9901194
416.1312321
416.3145375
416.5374623
416.7974671
417.092105
417.4185824
417.7749687
418.1592075
418.5686515
419.0019331
419.4566751
419.9313435
420.4240714
420.9333245
421.4574431
421.9951028
422.5446674
423.1052275
423.6749668
424.2533524
424.838787
425.4305252
426.0275671
426.628813
427.2337967
427.8412152
428.4506852
429.0614818
429.672626
430.2839679
430.8945554
431.5040756
432.1121616
432.7178548
433.3212937
433.921774
434.5190129
435.1128594
435.7025262
436.2882504
436.8693867
437.4459202
438.017653
438.584154
439.1456275
439.701356
440.2517737
416.365567
416.4098064
416.5046124
416.6446313
416.8267801
417.0483379
417.306488
417.5988378
417.9232408
418.2772807
418.6586398
419.0656421
419.4957696
419.9475835
420.4190436
420.908559
421.414443
421.9351943
422.4692666
423.0154689
423.5721865
424.1386697
424.71313
425.2950868
425.8830782
426.4763888
427.0741944
427.6752228
428.2791919
428.884941
429.4919739
430.0997588
430.7072516
431.3144227
431.9204136
432.5247878
433.1273101
433.7270887
434.3242704
434.9181602
435.5084958
436.0951338
436.6773661
437.255457
437.8287465
438.3973087
438.9608189
439.519031
440.0720178
440.6192388
416.8698414
416.9138135
417.0080469
417.1472211
417.3279717
417.5478278
417.8042645
418.094873
418.4169387
418.7685419
419.1476613
419.5516078
419.9790969
420.4278606
420.8962969
421.382648
421.8852719
422.4026773
422.9334201
423.4760579
424.0294876
424.5921831
425.1634615
425.7415597
426.3261344
426.9158787
427.5099382
428.1076715
428.7078061
429.3101346
429.9136025
430.5176839
431.1219761
431.7254484
432.3280746
432.9290342
433.5279824
434.1247214
434.7183574
435.3090589
435.8961295
436.4793951
437.0586794
437.6334196
438.203837
438.7691859
439.3297079
439.8849596
440.4348859
440.9793678
417.3632058
417.4068436
417.5003613
417.6384803
417.8181627
418.0367278
418.2914441
418.5799124
418.9000247
419.2494275
419.6257317
420.027365
420.4519424
420.8978998
421.3633609
421.8465829
422.3460909
422.8602196
423.3876666
423.9270003
424.4769317
425.0364058
425.6039123
426.178906
426.7597953
427.3461333
427.9367267
428.5307757
429.1277388
429.7263327
430.3264489
430.9271056
431.5278055
432.1281952
432.727194
433.3249131
433.9205844
434.5138659
435.1045457
435.6918054
436.2758255
436.8558953
437.4319927
438.0038426
438.5710137
439.1336375
439.6909951
440.2434701
440.7904267
441.3320896
417.8458356
417.8892208
417.9821976
418.1195186
418.2979358
418.5149091
418.7679931
419.0548149
419.3727307
419.7197381
420.0939238
420.4927622
420.914782
421.3579358
421.8204249
422.300748
422.7970544
423.3081456
423.8322908
424.3684091
424.9150731
425.4710693
426.0354238
426.6067918
427.1846141
427.7673208
428.354577
428.9452688
429.5386089
430.1341474
430.7306379
431.3280458
431.9254428
432.5222984
433.1183179
433.7125634
434.3051183
434.8951988
435.4825495
436.0669089
436.6475969
437.2247931
437.7977536
438.3665971
438.9308775
439.4903918
440.0451023
440.5945099
441.1389134
441.6775914
418.318205
418.3612775
418.4535847
418.5899184
418.7672828
418.9830352
419.2345559
419.5192936
419.8352814
420.1803172
420.5518487
420.9484119
421.3677796
421.8081469
422.2679387
422.7451595
423.2386746
423.7464866
424.2676909
424.8005111
425.3440066
425.89675
426.4577523
427.0260282
427.6002579
428.1799741
428.7636924
429.3511153
429.9411876
430.5331963
431.1267278
431.7206453
432.3148731
432.9084907
433.5011365
434.0924861
434.6816716
435.2687672
435.852962
436.4341486
437.0119799
437.5859753
438.156252
438.7219604
439.2834284
439.8400544
440.3918706
440.9386069
441.4800712
442.0162501
418.7803726
418.8232061
418.9150016
419.0505804
419.2268344
419.4410357
419.6908955
419.9740752
420.2881201
420.6307871
421.0003131
421.3943532
421.8111506
422.2490047
422.70582
423.1804812
423.6707619
424.1758975
424.6937899
425.2237438
425.7639001
426.3136034
426.8714025
427.4363754
428.0075473
428.5837685
429.1645738
429.7485211
430.3354276
430.9242451
431.5143878
432.1054073
432.6962059
433.2868009
433.8762985
434.4644135
435.0507452
435.634566
436.2159318
436.7939939
437.3688518
437.9400163
438.5071894
439.0702895
439.628727
440.1827663
440.7316557
441.2757496
441.8144812
442.3479709
419.2329121
419.2754407
419.3665835
419.5011997
419.6763339
419.8893798
420.1378949
420.4191281
420.7312196
421.0720654
421.4391726
421.8308916
422.2453402
422.680372
423.1348186
423.6063394
424.0941102
424.596024
425.1112816
425.6378901
426.1753122
426.7217124
427.2765482
427.8383035
428.4062867
428.9794773
429.5568649
430.1379929
430.7214954
431.3072802
431.8942958
432.4820147
433.0699655
433.6572714
434.2438935
434.8288938
435.4121399
435.9931237
436.5713148
437.146733
437.7184973
438.2868862
438.8512005
439.411407
439.9672226
440.5183214
441.0647603
441.6059892
442.1423093
442.6729953
419.6755925
419.7178949
419.8085532
419.9424547
420.1166604
420.3282961
420.5751098
420.8548486
421.1652826
421.5038107
421.8688814
422.2583938
422.6702053
423.1030138
423.5544921
424.0236083
424.5083758
425.0076864
425.5197792
426.0437307
426.5779197
427.1216474
427.6731611
428.2320771
428.7968522
429.3669636
429.9413406
430.5191567
431.099895
431.6823966
432.266491
432.8510927
433.4359235
434.0204201
434.6038473
435.1861253
435.7662627
436.3443347
436.9196944
437.4920639
438.0612704
438.6266557
439.1883956
439.7457184
440.2988713
440.8472949
441.3910129
441.9297446
442.4632983
442.9916519
420.109267
420.1513466
420.241389
420.3743823
420.547409
420.7578974
421.0034375
421.2815265
421.5898985
421.9266884
422.2896704
422.6767644
423.0865018
423.5165452
423.9657008
424.4320584
424.914236
425.4106701
425.9200418
426.4410277
426.9724837
427.5130325
428.0618734
428.6175467
429.1796023
429.7464962
430.317933
430.8927493
431.4703456
432.0500886
432.6309501
433.2127967
433.7945545
434.3760938
434.9567124
435.5358806
436.1134181
436.6884259
437.2610842
437.830618
438.3969832
438.9597566
439.5185965
440.0734833
440.6237878
441.1698097
441.7107752
442.2470423
442.7780047
443.3038896
420.5335469
420.5753474
420.664931
420.7972474
420.9693947
421.1787689
421.4226769
421.6991267
422.0059393
422.3407313
422.7015492
423.0867223
423.4938769
423.9217084
424.3683342
424.832138
425.3117147
425.8053835
426.3120857
426.8302558
427.3588674
427.8965958
428.4424207
428.9953651
429.5542403
430.1185169
430.68677
431.2588089
431.833413
432.410136
432.9882308
433.5669709
434.1461395
434.7246024
435.3024337
435.8787703
436.4533387
437.0257782
437.595487
438.1625362
438.7260126
439.2861669
439.8423468
440.3945203
440.9423706
441.4856454
442.0242955
442.5578699
443.0865784
443.6098478
420.9492097
420.9908011
421.0799367
421.2114942
421.3825101
421.5905547
421.8332468
422.1083201
422.413196
422.7461164
423.1051706
423.4879199
423.8930045
424.3185172
424.7626502
425.2241141
425.7009033
426.1921882
426.6960081
427.2116605
427.7373177
428.2723764
428.8153038
429.3653852
429.921479
430.4826955
431.0483434
431.6173051
432.1892792
432.7629601
433.3382338
433.9142034
434.4903555
435.0662871
435.6411213
436.2148623
436.7865665
437.356266
437.9233719
438.487556
439.0486221
439.6059708
440.15978
440.7092087
441.2546183
441.7953347
442.3314813
442.8626571
443.3888554
443.9098612
421.3561978
421.397519
421.4860757
421.6168759
421.7870517
421.9940749
422.2354428
422.5087442
422.8120814
423.143399
423.5001625
423.8810172
424.2839742
424.7070816
425.1491177
425.6077978
426.0823766
426.5708303
427.0723285
427.5850307
428.1082942
428.6403623
429.1807853
429.7278851
430.2812935
430.8396708
431.4024574
431.9687647
432.5377005
433.1088778
433.681168
434.254504
434.8278438
435.4009467
435.9731992
436.544028
437.1133063
437.6801582
438.2447504
438.8062524
439.3646782
439.9195625
440.4706452
441.017798
441.5605449
442.099016
442.6325514
443.1615254
443.6852002
444.2039983
421.7547289
421.79585
421.883978
422.0141456
422.1834463
422.3891476
422.6291166
422.9011188
423.2029319
423.5321505
423.8872306
424.2661265
424.6667941
425.0879323
425.527315
425.9838967
426.4558603
426.9419951
427.4407689
427.9510463
428.4714776
429.0011068
429.5385858
430.0832707
430.6337145
431.1895994
431.7494985
432.313104
432.8793148
433.4476246
434.0174202
434.5878497
435.1587487
435.7289767
436.2986091
436.8667979
437.4333193
437.9977728
438.5595957
439.1187675
439.6744792
440.2269791
440.7754969
441.3201938
441.8605498
442.3965026
442.9278048
443.454266
443.9758206
444.4921583
422.1453096
422.1861777
422.2737481
422.4030942
422.571383
422.7761193
423.0149656
423.2854784
423.585488
423.9131864
424.2664526
424.6432069
425.0420372
425.460753
425.8980539
426.3522858
426.8218914
427.3056129
427.8018502
428.3096323
428.8274715
429.3544682
429.8893799
430.431279
430.9792527
431.5322654
432.0897687
432.6504643
433.2141895
433.7797281
434.3468606
434.9147218
435.4827845
436.050642
436.6174675
437.1832735
437.7470926
438.3090265
438.8683476
439.4248801
439.9782969
440.5281575
441.0744713
441.6165881
442.1547613
442.6881883
443.2172834
443.7413659
444.2607026
444.7747667
422.5275316
422.5682029
422.6553682
422.7841169
422.9516298
423.1554152
423.3927792
423.661839
423.9604846
424.2864874
424.6377936
425.0128458
425.4094639
425.8261429
426.2613436
426.7132
427.1806908
427.6617831
428.1558526
428.6609044
429.176463
429.7007051
430.2332036
430.7724059
431.3178232
431.868261
432.4230095
432.9812728
433.5421928
434.1053969
434.6697362
435.2351443
435.8005475
436.3657818
436.9301653
437.4932637
438.0548173
438.6140754
439.1711177
439.7250533
440.2760942
440.8235426
441.3674079
441.9072755
442.4429438
442.9742699
443.500927
444.0229509
444.5398987
445.0519483
438.3563404
438.9132522
439.4677042
440.0194611
440.5679479
441.1132626
441.6546283
442.1923318
442.7256012
443.2547367
443.7791353
444.2989539
444.8137466
445.3236065
)
;

boundaryField
{
    front_top
    {
        type            wedge;
    }
    front_middle
    {
        type            wedge;
    }
    front_bottom
    {
        type            wedge;
    }
    back_top
    {
        type            wedge;
    }
    back_middle
    {
        type            wedge;
    }
    back_bottom
    {
        type            wedge;
    }
    axis_top
    {
        type            symmetryPlane;
    }
    axis_middle
    {
        type            symmetryPlane;
    }
    axis_bottom
    {
        type            symmetryPlane;
    }
    wall_top
    {
        type            convectiveRadiativeHeatFlux;
        mode            convectiveRadiative;
        kappaMethod     fluidThermo;
        kappa           none;
        alphaAni        Anialpha;
        h               uniform 165;
        Ta              constant 513.15;
        emissivityNozzle 0.95;
        emissivityFilament 0.95;
        dNozzle         2;
        dFilament       1.65;
        refValue        uniform 513.15;
        refGradient     nonuniform List<scalar> 
24
(
6549.150086
6518.727955
6488.73853
6459.301843
6430.565683
6402.469017
6374.886651
6348.059413
6321.718328
6295.820581
6270.312913
6245.266374
6220.760247
6196.827914
6173.324759
6150.259196
6127.641931
6105.428177
6083.612768
6062.231974
6041.230848
6020.602255
6000.437976
5980.703829
)
;
        valueFraction   nonuniform List<scalar> 
24
(
0.003203309014
0.003202423286
0.003201475578
0.003200548181
0.003199709517
0.003198937468
0.003198182495
0.003197553694
0.003196938161
0.003196314911
0.003195653114
0.003195005038
0.003194409659
0.003193885274
0.003193371677
0.003192873117
0.003192393715
0.00319192406
0.003191464733
0.003191026189
0.003190596462
0.003190175345
0.003189808276
0.003189482334
)
;
        value           nonuniform List<scalar> 
24
(
437.7373839
438.1615895
438.5765488
438.9830413
439.3809766
439.770627
440.152409
440.5260278
440.8921504
441.2508424
441.6020477
441.9462818
442.2835388
442.6138771
442.9377175
443.2550924
443.5659956
443.8708407
444.1697484
444.462516
444.7496288
445.0312102
445.3072011
445.577756
)
;
    }
    wall_middle
    {
        type            fixedValue;
        value           nonuniform 0();
    }
    wall_bottom
    {
        type            fixedValue;
        value           nonuniform 0();
    }
    inlet
    {
        type            fixedValue;
        value           nonuniform 0();
    }
    outlet
    {
        type            zeroGradient;
    }
    procBoundary8to7
    {
        type            processor;
        value           nonuniform List<scalar> 
51
(
422.9021903
422.9426771
423.029447
423.1575999
423.3240842
423.5266305
423.7629298
424.0307854
424.3278246
424.6520852
425.0018279
425.3748549
425.7695119
426.1843225
426.6171534
427.0670491
427.5319699
428.0109984
428.5024263
429.0053229
429.5181735
430.0402033
430.5699557
431.1069089
431.6495846
432.1976673
432.7497037
433.3054589
433.8638554
434.4243853
434.9863766
435.5490561
436.1121798
436.6747098
437.2367244
437.797291
437.797291
438.6519534
439.2066173
439.7586066
440.3080176
440.8542191
441.3971146
441.9363485
442.4716242
443.0028566
443.5296271
444.0520277
444.5695272
445.0823629
445.5899566
)
;
    }
    procBoundary8to9
    {
        type            processor;
        value           nonuniform List<scalar> 
51
(
410.6459327
410.6938509
411.428225
411.428225
411.5783948
411.7736981
412.0111823
412.2878384
412.6009654
412.948281
413.3270948
413.7350333
414.1702032
414.6298124
415.112546
415.6157451
416.1382933
416.6777021
417.2330143
417.8020345
418.3837571
418.9766208
419.5791528
420.1904906
420.8089315
421.4338542
422.0641307
422.698492
423.3364897
423.9769931
424.619232
425.2627317
425.9064094
426.5499073
427.1927795
427.8339567
428.4733715
429.1105418
429.7445965
430.3756329
431.0030615
431.6264603
432.2458182
432.8604023
433.4702789
434.0752445
434.6747266
435.2689746
435.8573921
436.4400585
437.0168208
)
;
    }
}


// ************************************************************************* //
