/*--------------------------------*- C++ -*----------------------------------*\
  =========                 |
  \\      /  F ield         | OpenFOAM: The Open Source CFD Toolbox
   \\    /   O peration     | Website:  https://openfoam.org
    \\  /    A nd           | Version:  7
     \\/     M anipulation  |
\*---------------------------------------------------------------------------*/
FoamFile
{
    version     2.0;
    format      ascii;
    class       volVectorField;
    location    "0.0027";
    object      U;
}
// * * * * * * * * * * * * * * * * * * * * * * * * * * * * * * * * * * * * * //

dimensions      [0 1 -1 0 0 0 0];

internalField   nonuniform List<vector> 
1166
(
(2.047546022e-08 2.041388695e-19 -0.002139776169)
(5.339676509e-08 1.008396483e-19 -0.002139778233)
(2.016677689e-08 -1.616504883e-19 -0.002140569109)
(5.259073408e-08 -4.104935315e-20 -0.002140571196)
(8.284157933e-08 2.205771712e-20 -0.002140575782)
(1.133871767e-07 4.114536723e-20 -0.002140582598)
(1.429411957e-07 1.821680348e-19 -0.002140591506)
(1.711335068e-07 1.529172454e-19 -0.002140602425)
(1.978189805e-07 1.420306195e-19 -0.002140615271)
(2.229340331e-07 1.654216415e-19 -0.00214062997)
(2.464321469e-07 2.213792189e-19 -0.00214064645)
(2.68227274e-07 2.531187796e-19 -0.002140664658)
(2.882754711e-07 2.613818599e-19 -0.002140684535)
(3.06552127e-07 2.975545213e-19 -0.002140706025)
(3.23045136e-07 3.01154092e-19 -0.00214072907)
(3.377605427e-07 3.192048387e-19 -0.002140753615)
(3.507026489e-07 3.505626888e-19 -0.002140779612)
(3.618838343e-07 3.966048168e-19 -0.002140807007)
(3.713230913e-07 3.790818873e-19 -0.002140835746)
(3.790467532e-07 3.698936674e-19 -0.002140865771)
(3.850976003e-07 3.642631614e-19 -0.002140897026)
(3.895157648e-07 3.655896812e-19 -0.002140929449)
(3.923353923e-07 3.424318044e-19 -0.002140962968)
(3.935995178e-07 3.21607048e-19 -0.00214099751)
(3.933513085e-07 3.023429929e-19 -0.002141032994)
(3.916538835e-07 3.090697428e-19 -0.002141069337)
(3.885588399e-07 3.151088911e-19 -0.002141106445)
(3.841192852e-07 3.207603489e-19 -0.002141144218)
(3.783890055e-07 3.262360943e-19 -0.002141182548)
(3.714197931e-07 3.31676236e-19 -0.002141221318)
(3.632774101e-07 3.384756387e-19 -0.002141260405)
(3.54014199e-07 3.272118415e-19 -0.002141299675)
(3.436818192e-07 3.151919338e-19 -0.002141338984)
(3.3234567e-07 3.181554008e-19 -0.002141378184)
(3.200608655e-07 3.228348796e-19 -0.002141417118)
(3.068752183e-07 3.277797786e-19 -0.002141455615)
(2.928384598e-07 3.325189631e-19 -0.002141493502)
(2.78000593e-07 3.371478543e-19 -0.002141530595)
(2.624096354e-07 3.325809263e-19 -0.002141566705)
(2.461142987e-07 3.188916432e-19 -0.002141601635)
(2.291672081e-07 3.040112922e-19 -0.002141635184)
(2.116121892e-07 2.99393066e-19 -0.002141667145)
(1.93488892e-07 2.976942124e-19 -0.002141697305)
(1.748407802e-07 2.938193174e-19 -0.002141725447)
(1.557046566e-07 2.872094255e-19 -0.002141751352)
(1.361202246e-07 2.829243079e-19 -0.0021417748)
(1.161228848e-07 2.801615701e-19 -0.002141795567)
(9.574258427e-08 2.811326666e-19 -0.002141813429)
(7.500712584e-08 2.785387005e-19 -0.002141828159)
(5.393825481e-08 2.750072766e-19 -0.002141839534)
(3.266321287e-08 2.742782173e-19 -0.002141847333)
(1.153385724e-08 2.71785555e-19 -0.00214185133)
(1.988347517e-08 -2.855078027e-19 -0.002141344817)
(5.184740684e-08 4.674255289e-21 -0.00214134692)
(8.165060346e-08 2.30001129e-19 -0.002141351542)
(1.117202158e-07 4.635883956e-19 -0.002141358422)
(1.408098485e-07 4.303246752e-19 -0.002141367422)
(1.685851979e-07 2.356867387e-19 -0.002141378447)
(1.94917528e-07 1.175391039e-19 -0.002141391411)
(2.196932242e-07 1.404574552e-19 -0.002141406249)
(2.428455942e-07 1.070338848e-19 -0.002141422889)
(2.643454505e-07 8.254907371e-20 -0.002141441259)
(2.84124498e-07 1.32084513e-19 -0.002141461307)
(3.021529407e-07 1.769429991e-19 -0.002141482977)
(3.184242593e-07 2.79329661e-19 -0.002141506217)
(3.329406677e-07 3.308645346e-19 -0.002141530972)
(3.457089991e-07 3.48495253e-19 -0.002141557189)
(3.567367391e-07 3.794997159e-19 -0.002141584812)
(3.66045322e-07 4.24370168e-19 -0.002141613785)
(3.736702897e-07 4.468690976e-19 -0.002141644053)
(3.796462763e-07 4.164105251e-19 -0.002141675554)
(3.840027398e-07 4.011483172e-19 -0.002141708221)
(3.867796834e-07 3.966456759e-19 -0.002141741983)
(3.880210686e-07 3.717437757e-19 -0.002141776766)
(3.877823845e-07 3.547068279e-19 -0.002141812488)
(3.861104095e-07 3.439258742e-19 -0.002141849064)
(3.830583968e-07 3.368767638e-19 -0.002141886395)
(3.786792687e-07 3.317555225e-19 -0.002141924381)
(3.730249843e-07 3.2713587e-19 -0.002141962911)
(3.661583124e-07 3.216935721e-19 -0.002142001867)
(3.581328942e-07 3.351402475e-19 -0.002142041125)
(3.489997826e-07 3.468876116e-19 -0.002142080547)
(3.388213704e-07 3.547296808e-19 -0.002142119992)
(3.276561483e-07 3.624727953e-19 -0.002142159311)
(3.155502742e-07 3.778209181e-19 -0.002142198342)
(3.025531327e-07 3.84830013e-19 -0.002142236917)
(2.88719706e-07 3.867314215e-19 -0.00214227486)
(2.740954678e-07 3.847151682e-19 -0.002142311989)
(2.587281586e-07 3.717705002e-19 -0.002142348116)
(2.426731888e-07 3.626380519e-19 -0.002142383044)
(2.259746987e-07 3.613060243e-19 -0.002142416573)
(2.086738844e-07 3.695054547e-19 -0.002142448499)
(1.9080735e-07 3.708659864e-19 -0.002142478609)
(1.724179677e-07 3.724461316e-19 -0.002142506691)
(1.535575819e-07 3.745377219e-19 -0.002142532527)
(1.342555277e-07 3.77330271e-19 -0.0021425559)
(1.14541591e-07 3.754886796e-19 -0.00214257659)
(9.444398623e-08 3.692081335e-19 -0.002142594376)
(7.398388334e-08 3.749272034e-19 -0.002142609037)
(5.320178835e-08 3.697070632e-19 -0.002142620353)
(3.221594447e-08 3.639754309e-19 -0.002142628106)
(1.137186964e-08 3.674815753e-19 -0.002142632078)
(1.957508708e-08 2.852960319e-19 -0.002142103923)
(5.104289304e-08 2.355833486e-19 -0.002142106042)
(8.040278058e-08 2.287888144e-19 -0.002142110696)
(1.100608134e-07 2.542090803e-19 -0.002142117629)
(1.387648383e-07 9.485826227e-20 -0.002142126712)
(1.661421779e-07 9.236196227e-20 -0.002142137841)
(1.920775477e-07 8.047781988e-20 -0.00214215093)
(2.16510638e-07 6.935477439e-20 -0.0021421659)
(2.393436595e-07 4.642966201e-20 -0.002142182686)
(2.605214765e-07 1.25391506e-20 -0.00214220122)
(2.800254629e-07 4.051054294e-20 -0.00214222144)
(2.978124522e-07 5.310219272e-20 -0.002142243294)
(3.138689854e-07 1.07623749e-19 -0.002142266728)
(3.281929889e-07 1.55375169e-19 -0.002142291688)
(3.407848717e-07 1.967688419e-19 -0.002142318116)
(3.516601332e-07 2.300817911e-19 -0.002142345956)
(3.608474994e-07 2.568810622e-19 -0.002142375154)
(3.683753356e-07 2.744438152e-19 -0.002142405651)
(3.742674173e-07 2.858519843e-19 -0.00214243738)
(3.785603781e-07 2.89773401e-19 -0.002142470274)
(3.813013593e-07 2.856362647e-19 -0.002142504262)
(3.825350896e-07 3.026892893e-19 -0.002142539268)
(3.822999294e-07 3.134184002e-19 -0.002142575207)
(3.806509836e-07 3.202465664e-19 -0.00214261199)
(3.776411278e-07 3.244545176e-19 -0.002142649521)
(3.733236626e-07 3.266710694e-19 -0.002142687693)
(3.677560418e-07 3.270440884e-19 -0.002142726398)
(3.609914679e-07 3.253449222e-19 -0.002142765516)
(3.530805838e-07 3.206021286e-19 -0.002142804917)
(3.440826609e-07 3.338902349e-19 -0.002142844467)
(3.340609331e-07 3.469308203e-19 -0.002142884022)
(3.230611649e-07 3.579026343e-19 -0.002142923429)
(3.111303013e-07 3.622446706e-19 -0.002142962529)
(2.983233739e-07 3.647570608e-19 -0.002143001151)
(2.846878584e-07 3.683650385e-19 -0.002143039123)
(2.702740787e-07 3.71081557e-19 -0.002143076261)
(2.551283375e-07 3.805720919e-19 -0.002143112377)
(2.39301222e-07 3.948747778e-19 -0.002143147278)
(2.228471595e-07 4.101937733e-19 -0.002143180763)
(2.057959883e-07 4.118026602e-19 -0.002143212628)
(1.881852413e-07 4.152601119e-19 -0.002143242667)
(1.700614165e-07 4.202913142e-19 -0.002143270668)
(1.514645326e-07 4.269191079e-19 -0.002143296417)
(1.324368243e-07 4.290601084e-19 -0.002143319699)
(1.13001102e-07 4.297305586e-19 -0.002143340298)
(9.318238077e-08 4.324004534e-19 -0.002143357997)
(7.300163508e-08 4.360292872e-19 -0.00214337258)
(5.249288684e-08 4.365636044e-19 -0.002143383831)
(3.179269528e-08 4.371270658e-19 -0.002143391535)
(1.122476031e-08 4.402268995e-19 -0.002143395482)
(1.929251008e-08 2.64662882e-19 -0.002142846823)
(5.029803546e-08 1.833215256e-19 -0.002142848969)
(7.92200334e-08 1.162715204e-19 -0.00214285368)
(1.084397483e-07 5.761652135e-20 -0.002142860694)
(1.36720075e-07 -2.200827565e-20 -0.002142869866)
(1.637194017e-07 3.419433763e-20 -0.00214288109)
(1.893073415e-07 6.318101162e-20 -0.00214289429)
(2.133888932e-07 7.905974128e-20 -0.002142909388)
(2.359008803e-07 8.724265294e-20 -0.002142926312)
(2.567940228e-07 8.525401876e-20 -0.002142945)
(2.760241411e-07 8.708429972e-20 -0.002142965392)
(2.93572255e-07 9.290047788e-20 -0.002142987427)
(3.094140012e-07 4.300945072e-20 -0.002143011052)
(3.235396513e-07 5.154300229e-20 -0.002143036205)
(3.359590066e-07 9.96211455e-20 -0.002143062834)
(3.466932845e-07 1.353892826e-19 -0.002143090882)
(3.557637027e-07 1.651771801e-19 -0.002143120294)
(3.631880034e-07 1.843547695e-19 -0.002143151002)
(3.689977178e-07 2.305524016e-19 -0.002143182943)
(3.732356388e-07 2.660596922e-19 -0.002143216049)
(3.759435789e-07 2.919282833e-19 -0.002143250246)
(3.771582486e-07 3.074053975e-19 -0.002143285455)
(3.769286397e-07 3.182684369e-19 -0.002143321589)
(3.75305666e-07 3.264560703e-19 -0.002143358559)
(3.723410968e-07 3.332869659e-19 -0.002143396265)
(3.680898564e-07 3.398566699e-19 -0.002143434602)
(3.626078479e-07 3.472842014e-19 -0.002143473457)
(3.559423631e-07 3.572304679e-19 -0.002143512708)
(3.481484687e-07 3.475857273e-19 -0.002143552226)
(3.392880644e-07 3.415349866e-19 -0.002143591876)
(3.29412046e-07 3.405675248e-19 -0.002143631512)
(3.185717604e-07 3.49858054e-19 -0.002143670981)
(3.068138346e-07 3.485238593e-19 -0.002143710121)
(2.941881522e-07 3.545946723e-19 -0.002143748765)
(2.807521632e-07 3.680468269e-19 -0.002143786737)
(2.665477831e-07 3.897277677e-19 -0.002143823856)
(2.516225553e-07 4.129703564e-19 -0.002143859936)
(2.36025948e-07 4.234195836e-19 -0.002143894785)
(2.19798518e-07 4.284977976e-19 -0.002143928203)
(2.029879565e-07 4.226363271e-19 -0.002143959988)
(1.856301178e-07 4.188238518e-19 -0.002143989935)
(1.677651645e-07 4.159154797e-19 -0.002144017837)
(1.49434472e-07 4.130635302e-19 -0.002144043482)
(1.306667112e-07 4.095638791e-19 -0.002144066659)
(1.114980694e-07 4.112135508e-19 -0.002144087154)
(9.195080311e-08 4.118599002e-19 -0.002144104754)
(7.204483766e-08 4.112725428e-19 -0.002144119248)
(5.181259297e-08 4.094268443e-19 -0.002144130426)
(3.137557777e-08 4.117004721e-19 -0.002144138079)
(1.107308072e-08 4.12837514e-19 -0.002144141995)
(1.901744193e-08 6.06374899e-20 -0.002143574052)
(4.958450024e-08 9.500099806e-20 -0.002143576214)
(7.810751307e-08 1.004761803e-19 -0.002143580967)
(1.069263311e-07 9.708767861e-20 -0.00214358804)
(1.347976754e-07 9.168811189e-20 -0.002143597291)
(1.613914182e-07 9.200441186e-20 -0.002143608615)
(1.866067026e-07 8.685200536e-20 -0.002143621928)
(2.103598412e-07 7.145008478e-20 -0.002143637149)
(2.325633635e-07 1.400634567e-19 -0.002143654213)
(2.531656538e-07 1.181133844e-19 -0.002143673054)
(2.721446015e-07 1.014674807e-19 -0.002143693607)
(2.894556268e-07 9.250619369e-20 -0.002143715814)
(3.050766526e-07 8.79205287e-20 -0.002143739613)
(3.190104728e-07 9.391892665e-20 -0.002143764951)
(3.312697457e-07 1.059256879e-19 -0.002143791772)
(3.418672997e-07 1.177639964e-19 -0.002143820018)
(3.508141473e-07 1.723177247e-19 -0.002143849625)
(3.581363266e-07 2.25787585e-19 -0.00214388053)
(3.638712656e-07 2.829446741e-19 -0.002143912667)
(3.680574042e-07 3.457320915e-19 -0.002143945968)
(3.707308592e-07 3.846174581e-19 -0.002143980355)
(3.719329528e-07 3.658247064e-19 -0.002144015745)
(3.717108809e-07 3.549025847e-19 -0.002144052055)
(3.701152046e-07 3.479245632e-19 -0.00214408919)
(3.671980489e-07 3.431576225e-19 -0.00214412705)
(3.630128462e-07 3.386916379e-19 -0.002144165528)
(3.576078343e-07 3.318576794e-19 -0.002144204508)
(3.510395813e-07 3.440523939e-19 -0.002144243868)
(3.433656556e-07 3.521309263e-19 -0.00214428348)
(3.346382054e-07 3.579480701e-19 -0.002144323205)
(3.249112302e-07 3.631880929e-19 -0.002144362896)
(3.142289715e-07 3.660475475e-19 -0.0021444024)
(3.026397059e-07 3.692707329e-19 -0.002144441556)
(2.901922624e-07 3.731875225e-19 -0.002144480197)
(2.769378258e-07 3.777843808e-19 -0.002144518146)
(2.629366072e-07 3.827694359e-19 -0.002144555225)
(2.482282627e-07 3.87489094e-19 -0.002144591246)
(2.328532006e-07 3.939575102e-19 -0.002144626021)
(2.168568934e-07 3.993204558e-19 -0.002144659351)
(2.002789063e-07 4.035436741e-19 -0.002144691036)
(1.831671329e-07 4.069257358e-19 -0.002144720875)
(1.655538164e-07 4.095661693e-19 -0.002144748663)
(1.474718951e-07 4.117639199e-19 -0.00214477419)
(1.289607318e-07 4.137462153e-19 -0.002144797248)
(1.100456844e-07 4.156906855e-19 -0.002144817628)
(9.076091943e-08 4.175525125e-19 -0.002144835121)
(7.112363738e-08 4.177309991e-19 -0.002144849519)
(5.11612758e-08 4.178351142e-19 -0.002144860619)
(3.098990244e-08 4.179570498e-19 -0.002144868215)
(1.09346928e-08 4.180446568e-19 -0.002144872103)
(1.87477574e-08 6.556776649e-20 -0.002144285987)
(4.888058381e-08 1.189187817e-19 -0.002144288171)
(7.699806962e-08 1.491147664e-19 -0.002144292961)
(1.054076544e-07 1.60260805e-19 -0.002144300087)
(1.329004683e-07 1.7233816e-19 -0.002144309405)
(1.591469231e-07 1.906482389e-19 -0.002144320818)
(1.840182246e-07 2.160647159e-19 -0.002144334236)
(2.074378052e-07 2.502093896e-19 -0.002144349581)
(2.293479821e-07 1.837172355e-19 -0.002144366781)
(2.496811483e-07 1.209905571e-19 -0.002144385769)
(2.68393788e-07 5.576122792e-20 -0.002144406478)
(2.854666211e-07 5.514187536e-20 -0.002144428844)
(3.008818985e-07 4.394375173e-20 -0.002144452813)
(3.146403854e-07 8.33738073e-20 -0.002144478328)
(3.267457117e-07 1.16853738e-19 -0.002144505332)
(3.372017955e-07 1.489928173e-19 -0.00214453376)
(3.460289767e-07 1.839183617e-19 -0.00214456355)
(3.532587038e-07 2.216563864e-19 -0.002144594638)
(3.589246226e-07 2.632828161e-19 -0.002144626959)
(3.630585673e-07 2.72196546e-19 -0.002144660438)
(3.656977421e-07 2.889778415e-19 -0.002144694997)
(3.668886649e-07 3.113990713e-19 -0.002144730552)
(3.666765861e-07 3.35837092e-19 -0.002144767017)
(3.651099456e-07 3.340453943e-19 -0.002144804296)
(3.622410221e-07 3.359691426e-19 -0.002144842289)
(3.581173175e-07 3.443308984e-19 -0.002144880886)
(3.527951894e-07 3.551067299e-19 -0.002144919968)
(3.463296172e-07 3.645292405e-19 -0.002144959415)
(3.387734326e-07 3.752461049e-19 -0.002144999098)
(3.301712102e-07 3.759525731e-19 -0.002145038874)
(3.205740421e-07 3.779938248e-19 -0.002145078598)
(3.100437242e-07 3.703422234e-19 -0.002145118113)
(2.986189795e-07 3.725382156e-19 -0.00214515726)
(2.863463954e-07 3.743215335e-19 -0.002145195873)
(2.732817899e-07 3.757975399e-19 -0.002145233777)
(2.594733461e-07 3.768845763e-19 -0.002145270794)
(2.449721263e-07 3.773971438e-19 -0.002145306738)
(2.298085793e-07 3.855736205e-19 -0.002145341419)
(2.140255057e-07 3.9325095e-19 -0.002145374643)
(1.976805692e-07 4.009539146e-19 -0.002145406212)
(1.80804366e-07 4.089700917e-19 -0.002145435926)
(1.634321152e-07 4.096997791e-19 -0.002145463583)
(1.455931694e-07 4.111077694e-19 -0.002145488978)
(1.273195038e-07 4.134997914e-19 -0.002145511906)
(1.08651341e-07 4.167888553e-19 -0.002145532159)
(8.961330855e-08 4.209118513e-19 -0.002145549536)
(7.023288526e-08 4.196797723e-19 -0.002145563831)
(5.052965757e-08 4.189649864e-19 -0.002145574844)
(3.061509997e-08 4.186009807e-19 -0.002145582376)
(1.080562447e-08 4.184863099e-19 -0.002145586229)
(1.849869926e-08 9.29255926e-20 -0.002144982982)
(4.822750373e-08 2.026474163e-19 -0.002144985184)
(7.596688922e-08 3.242295431e-19 -0.002144990013)
(1.039972192e-07 2.316570842e-19 -0.002144997196)
(1.311134399e-07 2.179646123e-19 -0.002145006591)
(1.569950297e-07 2.371135006e-19 -0.002145018093)
(1.815378694e-07 2.722706564e-19 -0.002145031615)
(2.046614183e-07 3.144030231e-19 -0.002145047078)
(2.262831391e-07 2.422186362e-19 -0.002145064405)
(2.463431539e-07 1.696157121e-19 -0.002145083526)
(2.648091928e-07 8.039391982e-20 -0.002145104378)
(2.816581485e-07 8.974813343e-20 -0.0021451269)
(2.968811223e-07 7.240402367e-20 -0.002145151034)
(3.104679908e-07 1.029843525e-19 -0.002145176718)
(3.224141458e-07 1.238358533e-19 -0.00214520389)
(3.3273389e-07 1.402749441e-19 -0.002145232487)
(3.414519263e-07 1.52573152e-19 -0.002145262448)
(3.485963718e-07 1.612022583e-19 -0.002145293709)
(3.541941225e-07 1.622751196e-19 -0.002145326197)
(3.582773651e-07 1.575561211e-19 -0.002145359838)
(3.608856343e-07 1.756764148e-19 -0.002145394551)
(3.620641249e-07 2.204153488e-19 -0.002145430255)
(3.618638585e-07 2.553512595e-19 -0.002145466857)
(3.603302309e-07 2.890631115e-19 -0.002145504264)
(3.575081312e-07 3.180744499e-19 -0.002145542371)
(3.534430569e-07 3.388675382e-19 -0.002145581066)
(3.481952132e-07 3.61317547e-19 -0.002145620233)
(3.418318063e-07 3.639107189e-19 -0.002145659748)
(3.343878947e-07 3.737945003e-19 -0.002145699478)
(3.259076743e-07 3.691001553e-19 -0.002145739283)
(3.164458007e-07 3.694480564e-19 -0.002145779017)
(3.060516109e-07 3.725611127e-19 -0.002145818525)
(2.947830093e-07 3.778258235e-19 -0.002145857646)
(2.826792257e-07 3.756097636e-19 -0.002145896213)
(2.697907268e-07 3.754592621e-19 -0.002145934055)
(2.561777726e-07 3.770266256e-19 -0.002145970992)
(2.418701794e-07 3.803728269e-19 -0.00214600684)
(2.269091968e-07 3.854488334e-19 -0.002146041411)
(2.113386076e-07 3.838338821e-19 -0.002146074514)
(1.952026146e-07 3.83004676e-19 -0.002146105955)
(1.785509456e-07 3.824597294e-19 -0.002146135531)
(1.614051818e-07 3.819737031e-19 -0.002146163047)
(1.437973217e-07 3.811777076e-19 -0.002146188299)
(1.257573031e-07 3.868399986e-19 -0.002146211087)
(1.07318965e-07 3.919569664e-19 -0.00214623121)
(8.851957858e-08 3.963441669e-19 -0.002146248466)
(6.937289408e-08 3.998422918e-19 -0.002146262657)
(4.991105867e-08 4.025066765e-19 -0.002146273583)
(3.023677065e-08 4.043476571e-19 -0.002146281053)
(1.066579111e-08 4.053324573e-19 -0.002146284871)
(1.825594685e-08 4.822005304e-20 -0.002145665423)
(4.759352399e-08 5.572217143e-20 -0.002145667643)
(7.496856534e-08 2.550969859e-20 -0.002145672509)
(1.026333874e-07 -2.611344907e-20 -0.002145679746)
(1.294075301e-07 9.527409047e-20 -0.00214568921)
(1.549714659e-07 1.748137979e-19 -0.0021457008)
(1.7920441e-07 2.336271779e-19 -0.002145714422)
(2.020237343e-07 2.771897264e-19 -0.002145729994)
(2.233637513e-07 3.026521112e-19 -0.002145747436)
(2.431693217e-07 3.179524775e-19 -0.002145766685)
(2.614062249e-07 3.367888993e-19 -0.002145787677)
(2.780551236e-07 2.850561658e-19 -0.002145810349)
(2.930930508e-07 2.435525524e-19 -0.002145834637)
(3.065063415e-07 2.000102553e-19 -0.002145860476)
(3.183027574e-07 1.569007764e-19 -0.002145887806)
(3.284993571e-07 1.567381172e-19 -0.002145916564)
(3.371177523e-07 1.438427857e-19 -0.002145946687)
(3.441791007e-07 1.630101682e-19 -0.002145978106)
(3.497106376e-07 1.720292814e-19 -0.002146010748)
(3.537466753e-07 2.171791175e-19 -0.002146044537)
(3.563279005e-07 2.286478711e-19 -0.002146079393)
(3.575033612e-07 2.458304099e-19 -0.002146115228)
(3.573163957e-07 2.394933121e-19 -0.002146151953)
(3.55813003e-07 2.653555306e-19 -0.002146189471)
(3.53033417e-07 2.850346213e-19 -0.002146227674)
(3.490309988e-07 2.966567481e-19 -0.002146266451)
(3.438674008e-07 3.014828667e-19 -0.002146305686)
(3.375880326e-07 2.990970939e-19 -0.002146345252)
(3.302457022e-07 3.020579173e-19 -0.002146385013)
(3.218816662e-07 3.114911459e-19 -0.002146424831)
(3.125446532e-07 3.274544687e-19 -0.00214646456)
(3.022936505e-07 3.401945732e-19 -0.002146504042)
(2.911705063e-07 3.398493815e-19 -0.002146543119)
(2.792285823e-07 3.369384995e-19 -0.002146581625)
(2.66512786e-07 3.402897599e-19 -0.002146619389)
(2.530663067e-07 3.405703862e-19 -0.002146656233)
(2.389435591e-07 3.471028323e-19 -0.00214669197)
(2.241776651e-07 3.515821236e-19 -0.002146726417)
(2.088124283e-07 3.547301315e-19 -0.002146759386)
(1.928849319e-07 3.565559056e-19 -0.002146790685)
(1.764316421e-07 3.569681141e-19 -0.002146820116)
(1.594988646e-07 3.643467029e-19 -0.002146847481)
(1.42107167e-07 3.700942875e-19 -0.002146872583)
(1.242918357e-07 3.792772231e-19 -0.002146895224)
(1.060834393e-07 3.870460621e-19 -0.002146915208)
(8.750944793e-08 3.937779621e-19 -0.00214693234)
(6.858986643e-08 3.997267882e-19 -0.002146946422)
(4.934687414e-08 4.052718866e-19 -0.002146957262)
(2.990092293e-08 4.107168494e-19 -0.002146964669)
(1.05494663e-08 4.163191685e-19 -0.002146968456)
(1.803515449e-08 2.524531765e-19 -0.002146333615)
(4.701468077e-08 7.969246844e-20 -0.002146335854)
(7.405505469e-08 -8.893004231e-20 -0.002146340758)
(1.013852858e-07 2.450667319e-20 -0.00214634805)
(1.278313162e-07 1.017634617e-19 -0.002146357584)
(1.530752935e-07 1.812856775e-19 -0.002146369252)
(1.770069351e-07 2.591010518e-19 -0.002146382963)
(1.995469659e-07 3.388714472e-19 -0.002146398635)
(2.206293372e-07 4.28381646e-19 -0.002146416195)
(2.402047147e-07 4.431459963e-19 -0.002146435573)
(2.582369729e-07 4.926495539e-19 -0.002146456704)
(2.746908779e-07 4.329305555e-19 -0.002146479519)
(2.895432382e-07 4.037250274e-19 -0.00214650395)
(3.027962394e-07 3.13412639e-19 -0.002146529937)
(3.144584755e-07 2.986593187e-19 -0.002146557418)
(3.245439357e-07 2.839855675e-19 -0.00214658633)
(3.330671744e-07 2.708988416e-19 -0.002146616606)
(3.400500665e-07 2.554226128e-19 -0.002146648173)
(3.455216019e-07 2.425519363e-19 -0.00214668096)
(3.495170012e-07 2.306529021e-19 -0.002146714888)
(3.52073534e-07 2.585063371e-19 -0.002146749875)
(3.532387075e-07 2.485266332e-19 -0.002146785835)
(3.530695864e-07 2.745326811e-19 -0.002146822671)
(3.515940842e-07 3.025576644e-19 -0.002146860284)
(3.488575856e-07 3.048221003e-19 -0.002146898569)
(3.449189045e-07 3.163391654e-19 -0.002146937416)
(3.398276838e-07 3.321809495e-19 -0.002146976705)
(3.336370604e-07 3.36808648e-19 -0.002147016305)
(3.26388278e-07 3.238949744e-19 -0.002147056084)
(3.181333405e-07 3.329103306e-19 -0.002147095902)
(3.089148321e-07 3.382398797e-19 -0.00214713561)
(2.987830584e-07 3.429677665e-19 -0.002147175055)
(2.878034423e-07 3.46635342e-19 -0.002147214075)
(2.760145054e-07 3.599679676e-19 -0.002147252506)
(2.634605349e-07 3.594903491e-19 -0.002147290178)
(2.501773336e-07 3.574911383e-19 -0.002147326914)
(2.362122047e-07 3.532219883e-19 -0.002147362532)
(2.216298672e-07 3.459773908e-19 -0.002147396846)
(2.064557784e-07 3.529328592e-19 -0.002147429672)
(1.907241212e-07 3.660071153e-19 -0.002147460817)
(1.744672957e-07 3.78487664e-19 -0.002147490092)
(1.57720024e-07 3.91509905e-19 -0.0021475173)
(1.405280285e-07 4.057496165e-19 -0.002147542244)
(1.229160046e-07 4.051998022e-19 -0.002147564733)
(1.049219981e-07 4.062620359e-19 -0.002147584572)
(8.656435448e-08 4.090353592e-19 -0.002147601569)
(6.785647746e-08 4.07045438e-19 -0.002147615536)
(4.882495493e-08 4.064447515e-19 -0.002147626281)
(2.958090488e-08 4.068850661e-19 -0.002147633622)
(1.043350275e-08 4.023307136e-19 -0.00214763737)
(1.783008468e-08 2.751909292e-19 -0.002146987879)
(4.647724425e-08 1.577477349e-19 -0.002146990134)
(7.320508517e-08 8.180163645e-20 -0.002146995069)
(1.002182867e-07 4.727486267e-20 -0.002147002406)
(1.263583151e-07 1.33951815e-20 -0.002147011998)
(1.513124855e-07 1.371149492e-19 -0.002147023741)
(1.749733209e-07 2.264575873e-19 -0.002147037544)
(1.972646004e-07 3.032891766e-19 -0.002147053323)
(2.181190091e-07 3.844850739e-19 -0.002147071002)
(2.374864227e-07 3.948339269e-19 -0.002147090509)
(2.553175087e-07 4.175049967e-19 -0.002147111771)
(2.715785994e-07 4.387343308e-19 -0.002147134717)
(2.862658344e-07 4.628226767e-19 -0.002147159287)
(2.993785043e-07 4.223799607e-19 -0.002147185418)
(3.109220064e-07 4.421257348e-19 -0.002147213047)
(3.2090346e-07 4.129985889e-19 -0.002147242106)
(3.293386012e-07 3.928535552e-19 -0.002147272526)
(3.362502664e-07 3.284684874e-19 -0.002147304235)
(3.416695373e-07 3.064367963e-19 -0.002147337158)
(3.456295963e-07 2.805682503e-19 -0.002147371217)
(3.481706656e-07 2.830619475e-19 -0.002147406328)
(3.493349933e-07 2.809478005e-19 -0.002147442402)
(3.491627579e-07 2.951183438e-19 -0.002147479343)
(3.477121486e-07 3.020818991e-19 -0.002147517043)
(3.450257211e-07 3.1018301e-19 -0.002147555403)
(3.411499538e-07 3.185524016e-19 -0.002147594312)
(3.361258431e-07 3.294271758e-19 -0.002147633644)
(3.300031764e-07 3.441115914e-19 -0.002147673272)
(3.228479454e-07 3.396157385e-19 -0.002147713058)
(3.146934839e-07 3.377676757e-19 -0.002147752864)
(3.055864435e-07 3.466365498e-19 -0.002147792543)
(2.955743474e-07 3.567376807e-19 -0.002147831941)
(2.847117454e-07 3.701917197e-19 -0.002147870898)
(2.730652862e-07 3.881926546e-19 -0.002147909247)
(2.606575675e-07 4.004505937e-19 -0.00214794682)
(2.475282065e-07 4.072665308e-19 -0.00214798344)
(2.337247552e-07 4.080506814e-19 -0.002148018931)
(2.192939656e-07 4.025906317e-19 -0.00214805311)
(2.042904897e-07 3.957102687e-19 -0.002148085787)
(1.887338576e-07 3.865020669e-19 -0.002148116777)
(1.726580813e-07 3.858593042e-19 -0.002148145889)
(1.560940817e-07 3.853634674e-19 -0.002148172934)
(1.390777393e-07 3.849409087e-19 -0.002148197721)
(1.216528472e-07 3.786816173e-19 -0.002148220057)
(1.038420486e-07 3.722414756e-19 -0.002148239754)
(8.567754808e-08 3.656001509e-19 -0.002148256619)
(6.716633302e-08 3.677793395e-19 -0.00214827047)
(4.833314823e-08 3.71252002e-19 -0.002148281122)
(2.928456478e-08 3.65017541e-19 -0.002148288396)
(1.03229588e-08 3.56523275e-19 -0.002148292112)
(1.764237008e-08 -1.945322132e-19 -0.002147628425)
(4.598541631e-08 4.73444399e-20 -0.002147630698)
(7.242805962e-08 2.091737552e-19 -0.002147635667)
(9.915443116e-08 3.333047039e-19 -0.002147643056)
(1.250232134e-07 1.971547093e-19 -0.002147652717)
(1.497260266e-07 2.237408301e-19 -0.002147664543)
(1.731491485e-07 2.260111594e-19 -0.002147678442)
(1.952163418e-07 2.064099925e-19 -0.002147694331)
(2.15863049e-07 1.563267845e-19 -0.002147712127)
(2.350290166e-07 2.778265531e-19 -0.002147731754)
(2.526667654e-07 3.627729368e-19 -0.002147753141)
(2.687628892e-07 4.287413462e-19 -0.002147776222)
(2.833083732e-07 4.842196232e-19 -0.002147800934)
(2.96298947e-07 5.301057702e-19 -0.00214782721)
(3.077333025e-07 5.033279145e-19 -0.002147854984)
(3.176203762e-07 4.808962968e-19 -0.002147884188)
(3.259761981e-07 4.657602497e-19 -0.002147914749)
(3.328267427e-07 4.588144388e-19 -0.002147946597)
(3.382000531e-07 4.148602324e-19 -0.002147979654)
(3.421317573e-07 4.310785075e-19 -0.00214801384)
(3.446615e-07 3.889158575e-19 -0.00214804907)
(3.458245333e-07 4.029501376e-19 -0.002148085253)
(3.456605384e-07 3.56954607e-19 -0.00214812229)
(3.442250003e-07 3.180873503e-19 -0.002148160081)
(3.415857301e-07 3.137947146e-19 -0.002148198514)
(3.377661997e-07 2.917473027e-19 -0.002148237477)
(3.32805536e-07 2.793614404e-19 -0.002148276848)
(3.26754013e-07 2.743593818e-19 -0.002148316498)
(3.196631947e-07 2.938944779e-19 -0.002148356292)
(3.116000904e-07 3.068224533e-19 -0.002148396082)
(3.02595619e-07 3.096265676e-19 -0.002148435727)
(2.92697456e-07 3.050069076e-19 -0.002148475073)
(2.819555454e-07 3.13895201e-19 -0.002148513963)
(2.704150236e-07 3.282985721e-19 -0.00214855223)
(2.581348445e-07 3.488646358e-19 -0.0021485897)
(2.45145556e-07 3.777041838e-19 -0.002148626203)
(2.314927681e-07 3.972238325e-19 -0.002148661564)
(2.172144331e-07 4.138079156e-19 -0.002148695601)
(2.023488489e-07 4.081520957e-19 -0.002148728132)
(1.869457776e-07 3.966124801e-19 -0.002148758965)
(1.710263524e-07 3.844887187e-19 -0.002148787918)
(1.546304733e-07 3.722678267e-19 -0.0021488148)
(1.377878624e-07 3.587859629e-19 -0.002148839426)
(1.205298543e-07 3.508996244e-19 -0.00214886161)
(1.028883496e-07 3.404715853e-19 -0.002148881164)
(8.488403514e-08 3.270488835e-19 -0.002148897903)
(6.654412908e-08 3.15069872e-19 -0.002148911641)
(4.788604636e-08 2.987438303e-19 -0.002148922204)
(2.902177632e-08 2.859125554e-19 -0.002148929412)
(1.02346531e-08 2.843759256e-19 -0.002148933094)
(1.747981077e-08 -1.417390823e-19 -0.002148255545)
(4.555848776e-08 1.677023629e-19 -0.002148257836)
(7.175490281e-08 3.979372336e-19 -0.002148262842)
(9.823723754e-08 6.134655631e-19 -0.002148270285)
(1.238664357e-07 6.149474976e-19 -0.002148280017)
(1.483386647e-07 4.67158795e-19 -0.002148291932)
(1.715528868e-07 3.823969909e-19 -0.00214830593)
(1.934231081e-07 3.291056399e-19 -0.002148321924)
(2.138714253e-07 2.895756114e-19 -0.002148339831)
(2.328598563e-07 3.492287354e-19 -0.002148359577)
(2.503482817e-07 4.070667723e-19 -0.002148381094)
(2.66303745e-07 4.676124731e-19 -0.002148404313)
(2.807255752e-07 5.341491208e-19 -0.002148429168)
(2.936047559e-07 5.484944268e-19 -0.00214845559)
(3.049417842e-07 5.134466292e-19 -0.00214848351)
(3.147447559e-07 4.912029112e-19 -0.002148512858)
(3.230337764e-07 4.754101309e-19 -0.002148543564)
(3.298310398e-07 4.658139546e-19 -0.002148575552)
(3.351667503e-07 4.167388278e-19 -0.002148608744)
(3.390771522e-07 3.98769761e-19 -0.002148643059)
(3.415960315e-07 3.821706196e-19 -0.002148678409)
(3.427566345e-07 3.676971644e-19 -0.002148714701)
(3.426072529e-07 3.544024398e-19 -0.002148751837)
(3.412037699e-07 3.430515021e-19 -0.002148789716)
(3.385858963e-07 3.353573855e-19 -0.002148828227)
(3.348101091e-07 3.32962302e-19 -0.002148867245)
(3.299081467e-07 3.2863407e-19 -0.002148906654)
(3.2392313e-07 3.260833467e-19 -0.002148946326)
(3.16902373e-07 3.400024629e-19 -0.002148986124)
(3.088984192e-07 3.567812904e-19 -0.002149025906)
(2.999819693e-07 3.532991906e-19 -0.002149065519)
(2.901852034e-07 3.535531831e-19 -0.002149104816)
(2.795511203e-07 3.521326874e-19 -0.002149143638)
(2.68116974e-07 3.474952184e-19 -0.002149181821)
(2.559319468e-07 3.42834276e-19 -0.002149219195)
(2.430639085e-07 3.437545149e-19 -0.002149255585)
(2.295385864e-07 3.455187721e-19 -0.002149290819)
(2.153953879e-07 3.575076487e-19 -0.002149324717)