/*--------------------------------*- C++ -*----------------------------------*\
  =========                 |
  \\      /  F ield         | OpenFOAM: The Open Source CFD Toolbox
   \\    /   O peration     | Website:  https://openfoam.org
    \\  /    A nd           | Version:  7
     \\/     M anipulation  |
\*---------------------------------------------------------------------------*/
FoamFile
{
    version     2.0;
    format      ascii;
    class       volScalarField;
    location    "0.0015";
    object      generalizedNewtonian:nu;
}
// * * * * * * * * * * * * * * * * * * * * * * * * * * * * * * * * * * * * * //

dimensions      [0 2 -1 0 0 0 0];

internalField   nonuniform List<scalar> 
1167
(
2.528439271
2.513282713
2.52177262
2.501693264
2.482336461
2.459666731
2.433214277
2.403667131
2.371484703
2.337068302
2.300823372
2.263149093
2.224402106
2.184912843
2.145000553
2.104894651
2.064826575
2.024932571
2.392218473
2.377719774
2.385753789
2.366752653
2.348355238
2.326872228
2.301820943
2.273846381
2.243409441
2.210896786
2.176693061
2.141164585
2.104659474
2.067506166
2.029971637
1.992299799
1.954673069
1.917249549
1.880114789
1.843313838
1.806846915
1.77067046
1.734687406
1.698756373
1.662698641
1.626289444
1.589261621
1.551309725
1.512077229
1.471170184
1.428152725
1.382554998
1.333893658
1.281686655
1.225513947
1.165104825
1.100442168
1.031888768
0.9603110508
0.8870656001
0.8138711168
0.7425369444
0.6746740654
0.6114698985
0.5536244289
0.5013796195
0.4546353453
0.4130668732
0.3762032904
0.3434549604
2.259445304
2.245614068
2.253241607
2.235304033
2.217900013
2.19760979
2.173982692
2.147614524
2.118948433
2.0883559
2.056200452
2.02283239
1.988595379
1.953769284
1.918620601
1.883367737
1.84818782
1.813204662
1.778514863
1.744147518
1.710091678
1.676301752
1.642686097
1.609110432
1.575398428
1.541334462
1.506665628
1.471099775
1.434303729
1.395913015
1.355515385
1.312670116
1.266922915
1.217834751
1.165018777
1.108222336
1.047434941
0.9829971682
0.9157018136
0.8468054256
0.7778865344
0.7106255849
0.6465221854
0.5867017204
0.5318411615
0.4821919282
0.4376855684
0.398037956
0.3628200641
0.3314868456
2.130419623
2.117264654
2.12449312
2.107607856
2.091208438
2.072114656
2.049900377
2.025135337
1.998236049
1.969556723
1.939443995
1.908237085
1.876234447
1.84371671
1.810929491
1.778067863
1.745294032
1.712728691
1.680439194
1.648454537
1.616768913
1.58532529
1.554029592
1.52275042
1.491321937
1.459540262
1.427167022
1.393921943
1.35949091
1.323527059
1.285649341
1.245451518
1.202506371
1.156402046
1.106788084
1.053435022
0.99632871
0.935794171
0.8725567958
0.8077751953
0.7429046045
0.6795038699
0.6189708649
0.5623724857
0.5103606774
0.4631965089
0.4208392002
0.3830415151
0.3494132434
0.3194513155
2.005424901
1.992931249
1.999777017
1.983937234
1.968514892
1.950610938
1.929791932
1.906597739
1.881435752
1.854641381
1.826537369
1.797436834
1.767627435
1.73737784
1.706893422
1.676376915
1.645956738
1.615744089
1.585805513
1.556152659
1.526771107
1.497608086
1.468573433
1.439535409
1.41033293
1.380768829
1.350617729
1.319617733
1.287476026
1.253862011
1.218417363
1.180760026
1.140503292
1.097260549
1.050703609
1.00063032
0.9470278962
0.8901932869
0.8308030356
0.7699175287
0.7088847463
0.6491450981
0.5920068665
0.5384800872
0.4891919078
0.4444108145
0.404120612
0.368107195
0.3360166723
0.3073853839
1.88472443
1.872882532
1.879366107
1.864535118
1.850063782
1.833308926
1.813848659
1.792185605
1.768709367
1.743736655
1.717574203
1.6905195
1.662844997
1.634779785
1.606539343
1.578280072
1.550144151
1.522215166
1.49454383
1.467148154
1.440005295
1.413056407
1.386207381
1.359335985
1.332289069
1.304876164
1.276881194
1.248055158
1.218120371
1.186771817
1.153674081
1.118467358
1.080787006
1.040284483
0.9966538191
0.9497040584
0.8994346713
0.8461140397
0.7903720616
0.7331803263
0.6757878989
0.6195264298
0.5656212102
0.5150259921
0.468345708
0.4258535649
0.3875549995
0.353265165
0.3226645537
0.2953264235
1.768586463
1.757386708
1.763520455
1.749643234
1.736096313
1.720432006
1.702266854
1.68206879
1.660205888
1.636977076
1.612679921
1.58758823
1.561946576
1.535983819
1.50988167
1.483797789
1.457841344
1.43210275
1.406616055
1.381385563
1.356388334
1.331569528
1.306830672
1.282051681
1.257081165
1.231739602
1.20582348
1.179097104
1.151296894
1.122132711
1.091290727
1.058441594
1.023240521
0.9853595978
0.9445269948
0.900560859
0.8534621105
0.8034839188
0.751202723
0.6975181938
0.6435814007
0.5906285107
0.5398062482
0.4920136225
0.447834439
0.4075443441
0.371167513
0.3385455724
0.3093907833
0.2833111793
1.657279045
1.646696483
1.65247319
1.639503338
1.626824265
1.612200856
1.595254753
1.576435336
1.556096118
1.534519843
1.511980962
1.488735236
1.465023409
1.441044652
1.416971701
1.392941939
1.369063033
1.345398267
1.321983228
1.298819371
1.275873813
1.253083955
1.230357727
1.207581373
1.184605236
1.161257322
1.137339852
1.112629208
1.086882066
1.059823317
1.031155335
1.000567082
0.9677463638
0.9323833992
0.8942236723
0.8531069072
0.8090287246
0.7622302057
0.7132383532
0.6628870598
0.6122361216
0.5624352749
0.5145566788
0.4694479899
0.4276714991
0.3895035051
0.354983853
0.3239784851
0.2962288787
0.2713758151
1.551030572
1.541038108
1.54646087
1.534347191
1.522466851
1.508808939
1.493002412
1.475469254
1.456545652
1.436502508
1.41559918
1.394081974
1.372167966
1.35004013
1.327866172
1.3057613
1.283822967
1.262111833
1.24064639
1.219423527
1.198413558
1.177548235
1.156735619
1.135860231
1.114779636
1.093333635
1.07133065
1.048556204
1.024776225
0.9997350912
0.9731559342
0.9447434354
0.914202087
0.8812523611
0.8456523752
0.807256197
0.7660611568
0.7222886804
0.6764275061
0.6292469983
0.5817257172
0.5349333704
0.4898692379
0.4473350744
0.4078706985
0.3717513135
0.3390293168
0.3095931883
0.2832111121
0.2595546448
1.450069928
1.440640433
1.445721236
1.434385852
1.423249134
1.410461348
1.395696123
1.379340646
1.361714126
1.343077025
1.323682868
1.303751052
1.283484492
1.263069082
1.242637509
1.222313595
1.202173243
1.182265439
1.162613817
1.143204273
1.123999029
1.104931399
1.085915445
1.066834903
1.047550255
1.027904612
1.007716484
0.986787274
0.9648900019
0.9417803237
0.9171978637
0.8908710839
0.8625177337
0.8318766607
0.7987277425
0.7629299221
0.7244871388
0.6835991991
0.6407218918
0.5965616095
0.5520256054
0.5081083568
0.4657408605
0.4256807609
0.3884452447
0.3543067829
0.3233282074
0.2954181842
0.2703695853
0.2478830259
1.354626793
1.345733727
1.350460564
1.339831999
1.329364916
1.317370213
1.303535841
1.288237325
1.271781258
1.254416815
1.236375461
1.217872101
1.199105717
1.180230922
1.161388542
1.142675353
1.124174177
1.105919366
1.087922813
1.070175618
1.052636981
1.035236477
1.017886216
1.000474414
0.9828700545
0.9649191296
0.9464465347
0.9272594652
0.907147815
0.8858795119
0.8632049742
0.8388681826
0.8126089142
0.7841770601
0.7533716593
0.7200590146
0.6842429411
0.6461079546
0.606076578
0.5647986841
0.5231160269
0.4819497709
0.4421703416
0.4044920701
0.369409443
0.3371892426
0.3079040624
0.2814800156
0.2577324096
0.2363890518
1.264919597
1.256521535
1.260891777
1.250906602
1.241019555
1.229722132
1.216713942
1.202348845
1.186923778
1.170678303
1.153833291
1.136603403
1.119158944
1.101658593
1.084224428
1.066955746
1.049914049
1.033139424
1.016638013
1.000392548
0.9843605293
0.9684773169
0.9526545373
0.9367809601
0.9207277935
0.9043481593
0.8874777688
0.8699295624
0.8515002661
0.8319715038
0.8111097146
0.788668461
0.7644041521
0.738084316
0.7095152386
0.678577564
0.645269061
0.6097642313
0.5724485869
0.5339247038
0.4949723627
0.4564439529
0.4191530369
0.3837720341
0.3507724541
0.3204141415
0.2927775602
0.2678044153
0.2453309998
0.2251109776
1.181156202
1.173216184
1.177235017
1.167810782
1.158430202
1.147723118
1.135424316
1.121862407
1.107325112
1.092046079
1.076241057
1.060103104
1.043804589
1.02749517
1.011286528
0.9952714978
0.9795108171
0.9640316916
0.9488423521
0.9339271682
0.9192378963
0.9047088986
0.890255029
0.8757721214
0.8611341412
0.8461972713
0.8308011211
0.8147723125
0.79791597
0.7800206907
0.7608658419
0.7402208762
0.7178505935
0.6935410438
0.6671057974
0.6384335929
0.6075196132
0.5745266821
0.539806603
0.5039183165
0.46758089
0.431585529
0.3966911867
0.3635298295
0.332548227
0.3039994407
0.2779691324
0.2544119583
0.2331825657
0.2140583138
1.103560509
1.096043178
1.099709467
1.09076302
1.081808113
1.071597116
1.059883927
1.046990358
1.033195685
1.018724114
1.003781594
0.9885580651
0.973223274
0.9579093813
0.9427350963
0.927779624
0.9131000009
0.898726756
0.8846618415
0.8708858666
0.8573567994
0.8440103669
0.830761384
0.8175063247
0.8041273961
0.7904889386
0.7764338185
0.7617932039
0.7463839968
0.7300063197
0.712446268
0.6934868233
0.6729064188
0.6504984735
0.6260912024
0.5995739525
0.5709440667
0.5403464546
0.5081064471
0.4747409063
0.440911336
0.4073520683
0.3747698542
0.3437569833
0.3147354937
0.2879505878
0.2634917942
0.2413258981
0.221325782
0.2032919538
1.032379666
1.025237086
1.028547236
1.020006181
1.011384422
1.001567251
0.9903230651
0.9779619168
0.9647563272
0.950925205
0.9366724284
0.9221844095
0.9076157179
0.8931066068
0.8787587354
0.8646616772
0.8508612848
0.8373853741
0.8242440831
0.8114136312
0.798851151
0.7864962237
0.7742707779
0.7620731032
0.749788893
0.7372863062
0.7244207719
0.711028579
0.6969317247
0.6819415589
0.6658564548
0.6484648129
0.6295612752
0.6089461744
0.5864569354
0.5619859477
0.5355297194
0.5072166937
0.4773473238
0.4463952994
0.4149715993
0.383756051
0.3534056973
0.3244725271
0.2973550243
0.2722882003
0.2493622947
0.2285521278
0.2097439831
0.1927580244
0.9678685314
0.9610557555
0.9640157654
0.9557998242
0.9474277323
0.9378949713
0.9269969746
0.915029727
0.902260103
0.8889061056
0.8751681994
0.8612215134
0.8472276294
0.8333153302
0.8195926198
0.8061358316
0.7930028511
0.7802162098
0.7677824678
0.7556859676
0.7438865931
0.7323253723
0.7209254688
0.7095937776
0.6982228497
0.6866847903
0.674839638
0.6625345098
0.6495998932
0.6358524596
0.6211026177
0.6051491558
0.5877926473
0.5688479195
0.548154893
0.5256132248
0.5012119256
0.4750683172
0.4474579497
0.4188131677
0.3896977628
0.3607397172
0.3325471519
0.3056335392
0.2803733438
0.2569910307
0.235578054
0.2161194613
0.1985188123
0.1826173523
0.910339058
0.9038102134
0.9064303961
0.8984520479
0.890245811
0.8808943651
0.8702157184
0.8585016359
0.8460144877
0.8329678327
0.8195578119
0.8059633346
0.7923416219
0.7788187165
0.7655042198
0.7524752726
0.7397834858
0.7274629634
0.7155190443
0.7039359836
0.6926787832
0.681697543
0.6709175154
0.6602509416
0.6495947855
0.6388325999
0.6278302656
0.6164400778
0.6045029752
0.5918455352
0.5782833229
0.5636290013
0.5476891069
0.5302876392
0.5112697937
0.4905386781
0.4680767232
0.4439898239
0.4185255585
0.392080624
0.3651730994
0.3383818195
0.3122671622
0.28730585
0.2638468441
0.2421004434
0.222152914
0.2039899181
0.1875201257
0.1725985788
0.8601823606
0.8538872504
0.856168976
0.8483487414
0.8402142651
0.8309384663
0.8203554881
0.8087507351
0.7963838616
0.783469142
0.7702029513
0.7567646818
0.7433047205
0.7299590984
0.7168290852
0.703999437
0.6915227983
0.6794325204
0.6677423504
0.6564404041
0.645495698
0.6348609805
0.6244719687
0.6142482688
0.6040916809
0.5938910239
0.5835240567
0.5728508008
0.5617180222
0.5499639735
0.5374133095
0.5238848833
0.5091986482
0.4931821624
0.4756900405
0.4566238094
0.4359638077
0.4138029592
0.3903633457
0.3660076336
0.3412106971
0.3165021241
0.2923978617
0.2693379881
0.2476467668
0.2275230116
0.2090540964
0.1922377951
0.1770035501
0.1632264023
0.8178921562
0.8117726684
0.813726521
0.8059810089
0.7978233156
0.7885090007
0.7778900085
0.7662454292
0.7538338609
0.7408734526
0.7275601006
0.7140695332
0.7005609022
0.6871648775
0.6739923225
0.6611233005
0.6486209882
0.636521258
0.6248398458
0.6135726348
0.6026974585
0.5921715488
0.5819366019
0.571921314
0.5620382106
0.552182472
0.5422385318
0.5320789307
0.5215590337
0.5105236562
0.4988109156
0.486245644
0.4726574924
0.4578797096
0.4417724174
0.4242358642
0.4052466002
0.3848805671
0.3633372888
0.3409459008
0.3181395246
0.2954025074
0.2732088353
0.2519624146
0.2319595865
0.2133786887
0.1962913851
0.1806814464
0.1664662687
0.1535247453
0.7841303218
0.7781258191
0.779770263
0.7720004419
0.763723553
0.7542505964
0.7434529097
0.7316094717
0.7189795573
0.7057814596
0.6922115803
0.6784522644
0.6646643426
0.6509803349
0.6375163855
0.6243572391
0.6115666686
0.5991925755
0.5872536997
0.5757513609
0.5646709294
0.5539802791
0.543627303
0.5335484835
0.5236651036
0.5138850119
0.504099954
0.4941903382
0.4840259277
0.4734598243
0.4623387403
0.4505006815
0.4377818049
0.4240256033
0.409094966
0.3928933493
0.3753926932
0.3566550115
0.3368586559
0.3163014048
0.2953753968
0.2745225917
0.254175891
0.2347052246
0.216384621
0.1993845577
0.1837847566
0.1695929449
0.1567618153
0.1451906343
0.7598270318
0.7538703009
0.7552128786
0.7473169494
0.7388082372
0.7290481864
0.7179201526
0.7057033736
0.6926613392
0.6790155883
0.6649677291
0.6507080206
0.636393987
0.6221706214
0.6081526663
0.594437078
0.5810910393
0.5681668033
0.5556957233
0.5436846567
0.5321268197
0.5209986359
0.5102601414
0.4998560449
0.4897172686
0.4797626798
0.4698963208
0.4600082452
0.4499781814
0.4396726602
0.4289462285
0.4176488097
0.4056229259
0.3927198274
0.3788035939
0.3637776039
0.3476040495
0.3303300912
0.3121107153
0.2932114061
0.2739877782
0.2548435717
0.2361744896
0.218316102
0.2015104408
0.1858953985
0.1715133764
0.1583268197
0.1462397685
0.1351383097
0.7462800128
0.740288364
0.7413420736
0.7332043347
0.7243272504
0.714123891
0.7024837776
0.6896888798
0.676009317
0.6616725779
0.6468900695
0.6318516421
0.616724728
0.6016621103
0.5867831616
0.5721913889
0.5579639406
0.5441584502
0.5308143521
0.5179487327
0.5055625445
0.4936407151
0.4821542587
0.4710583769
0.4602944568
0.4497919667
0.439468735
0.4292264142
0.4189566539
0.4085405446
0.3978446411
0.3867310741
0.3750544549
0.3626744233
0.349461696
0.3353216717
0.3202106352
0.3041637624
0.2873156259
0.2699022245
0.2522454533
0.234713096
0.2176676874
0.2014198914
0.1862009115
0.1721575545
0.1593656558
0.1478472962
0.137580937
0.1284754155
0.7454582572
0.7393249979
0.7401027207
0.7315742994
0.7221736498
0.7113361821
0.6989690765
0.6853574068
0.6707815569
0.6554799441
0.6396707344
0.6235524695
0.607305063
0.5910862775
0.5750277964
0.5592393054
0.5438096447
0.5288042484
0.5142711644
0.5002383687
0.4867160197
0.4736991323
0.4611691987
0.4490929475
0.4374232449
0.4261016408
0.4150588502
0.4042096756
0.3934589736
0.3827012795
0.371815985
0.3606765631
0.3491476172
0.3370948495
0.3243911646
0.3109377299
0.2966786316
0.2816291613
0.2658968257
0.2496857014
0.2332853738
0.2170327999
0.2012610275
0.1862488792
0.1721867099
0.1591633764
0.147172713
0.1361286326
0.1258909188
0.1163310313
0.753719494
0.7542285182
0.7451098535
0.7349612784
0.7232310971
0.7098312276
0.6950651341
0.6792280619
0.6625699902
0.6453219919
0.6276961358
0.6098854294
0.5920563773
0.5743529724
0.5568941249
0.5397788107
0.5230814398
0.5068597696
0.4911499732
0.4759716934
0.4613297465
0.4472158348
0.4336063299
0.4204663061
0.4077507243
0.3954023867
0.3833521223
0.3715217094
0.3598213596
0.3481492003
0.3363966791
0.3244439224
0.3121711921
0.2994602181
0.2862143576
0.2723727991
0.2579363589
0.2429905048
0.2277132607
0.2123670935
0.1972660172
0.1827294504
0.169038659
0.1564113673
0.1449987425
0.1348995339
0.126174767
0.1188444838
0.1128072045
)
;

boundaryField
{
    front_top
    {
        type            wedge;
    }
    front_middle
    {
        type            wedge;
    }
    front_bottom
    {
        type            wedge;
    }
    back_top
    {
        type            wedge;
    }
    back_middle
    {
        type            wedge;
    }
    back_bottom
    {
        type            wedge;
    }
    axis_top
    {
        type            symmetryPlane;
    }
    axis_middle
    {
        type            symmetryPlane;
    }
    axis_bottom
    {
        type            symmetryPlane;
    }
    wall_top
    {
        type            calculated;
        value           nonuniform 0();
    }
    wall_middle
    {
        type            calculated;
        value           nonuniform List<scalar> 
23
(
0.3287295003
0.3173816797
0.3059493992
0.2944707854
0.2829843639
0.2715278973
0.2601384792
0.248851106
0.2377023934
0.2267201707
0.2159456812
0.2053845523
0.1951080325
0.185044299
0.1753918981
0.1658116119
0.1569574735
0.1476253244
0.1399201746
0.1300611868
0.1243373292
0.1119413503
0.1101248598
)
;
    }
    wall_bottom
    {
        type            calculated;
        value           nonuniform 0();
    }
    inlet
    {
        type            calculated;
        value           nonuniform 0();
    }
    outlet
    {
        type            calculated;
        value           nonuniform 0();
    }
    procBoundary3to2
    {
        type            processor;
        value           nonuniform List<scalar> 
51
(
0.7601022217
0.7601022217
0.7881016713
0.7883122866
0.7783388834
0.7671432476
0.7541824938
0.7393708161
0.7230361632
0.7054983608
0.6870304483
0.6678846778
0.6482927253
0.6284658389
0.6085859865
0.5888116023
0.5692757177
0.5500868031
0.531330585
0.5130751212
0.4953620566
0.4782201559
0.4616639217
0.4456885567
0.4302803744
0.4154143353
0.4010535025
0.387150797
0.3736510628
0.3604892051
0.3475891846
0.3348679221
0.3222306224
0.3095756061
0.2967945353
0.2837780528
0.2704256364
0.2566632198
0.2424621305
0.2278676847
0.2130165274
0.1981343245
0.1835095113
0.1694414128
0.1561798434
0.1438759748
0.1325592481
0.1221474673
0.1124801162
0.1033640917
0.0946624352
)
;
    }
    procBoundary3to4
    {
        type            processor;
        value           nonuniform List<scalar> 
51
(
2.667819925
2.652018831
2.661006571
2.639882601
2.61958977
2.595780048
2.567991842
2.5369109
2.503029578
2.466763548
2.42853297
2.388742143
2.347783547
2.306010115
2.263726368
2.221223816
2.178705934
2.136353953
1.985329921
1.985329921
1.946078513
1.907170126
1.868563233
1.830166145
1.791835122
1.753384395
1.714576196
1.67512702
1.634713773
1.592961168
1.549449329
1.503717933
1.455263255
1.403558247
1.348088204
1.288401538
1.224200562
1.155456045
1.082565312
1.006462253
0.928619544
0.8509056416
0.775270496
0.7034439069
0.636681274
0.5757040686
0.5207441257
0.4716656832
0.4280994841
0.389529427
0.3553184724
)
;
    }
}


// ************************************************************************* //
