/*--------------------------------*- C++ -*----------------------------------*\
  =========                 |
  \\      /  F ield         | OpenFOAM: The Open Source CFD Toolbox
   \\    /   O peration     | Website:  https://openfoam.org
    \\  /    A nd           | Version:  7
     \\/     M anipulation  |
\*---------------------------------------------------------------------------*/
FoamFile
{
    version     2.0;
    format      ascii;
    class       volTensorField;
    location    "0.0015";
    object      grad(U);
}
// * * * * * * * * * * * * * * * * * * * * * * * * * * * * * * * * * * * * * //

dimensions      [0 0 -1 0 0 0 0];

internalField   nonuniform List<tensor> 
1167
(
(-10.88269522 -1.774670002e-13 0.6371316104 2.087007846e-13 -17.89265844 0 0.526857487 -7.106222106e-14 29.60509288)
(-14.4134884 -9.555830607e-14 1.478149123 2.13961455e-13 -15.59928642 0 1.274271633 -2.597001702e-13 29.5329787)
(-14.14039847 2.714364551e-14 2.40076541 1.319387326e-13 -14.87006805 0 2.011399917 4.298453583e-14 29.3880385)
(-14.32767252 5.506746617e-14 3.318864904 6.459230854e-14 -14.72040411 0 2.763198709 -7.185149133e-14 29.17376802)
(-14.16021382 -2.088350929e-14 4.212244331 1.033077947e-13 -14.6204479 8.264623579e-13 3.479989485 -1.104001542e-13 28.89535419)
(-13.90859048 -8.083985139e-14 5.085815119 4.345407235e-14 -14.51625727 -3.476325788e-13 4.159777849 7.265542942e-14 28.55684123)
(-13.62045655 -1.162968513e-14 5.9429443 3.780570658e-14 -14.40547551 0 4.801645328 1.209882754e-13 28.1614409)
(-13.28941351 1.464003047e-14 6.783410696 6.737703913e-14 -14.28568214 0 5.402175621 1.602832939e-13 27.7123015)
(-12.91714056 4.772407331e-14 7.607938602 3.056250849e-14 -14.15558369 0 5.958760388 1.484564996e-13 27.21239323)
(-12.50729505 6.81187343e-14 8.417937728 5.623021679e-14 -14.01496479 0 6.469573129 1.476988994e-13 26.66436043)
(-12.06232667 1.685633893e-15 9.214952534 5.23057305e-14 -13.86402404 2.09222922e-13 6.933142416 8.641732933e-14 26.07057827)
(-11.58409347 -6.899790633e-14 10.00056512 2.454963728e-14 -13.70310794 0 7.348292063 8.268099541e-14 25.4332058)
(-11.07426274 -7.727795216e-14 10.77637946 0 -13.53262744 0 7.714168382 1.005107487e-13 24.75423941)
(-10.5342824 -5.357294598e-14 11.54398091 0 -13.353021 0 8.030166883 1.032741903e-13 24.03547955)
(-9.965423806 -5.272175968e-14 12.30487501 4.230962532e-14 -13.16472311 0 8.29587223 1.079899063e-13 23.27858322)
(-9.368878002 -2.356231637e-14 13.06044228 4.068770988e-14 -12.96815981 -1.627508395e-13 8.511113942 9.70239664e-14 22.48514448)
(-8.745743943 8.01923687e-15 13.81195982 3.929042371e-14 -12.7637435 0 8.675887984 8.3620613e-14 21.65662627)
(-8.097050095 -4.806375986e-14 14.56068635 7.615986658e-14 -12.55187094 7.615986658e-14 8.79034598 9.600222663e-14 20.79443494)
(-11.6232654 1.883979431e-13 0.6865239302 -1.087789646e-13 -19.10304318 0 0.5695552231 -8.606302811e-14 31.61441506)
(-15.39324551 -1.182731735e-13 1.591426408 -1.858682161e-13 -16.65840569 2.379113167e-12 1.37876576 -2.568942508e-13 31.53582066)
(-15.0963228 -1.19898156e-13 2.584263592 0 -15.87981059 0 2.175868429 -1.509855235e-13 31.37759121)
(-15.29193799 1.038935943e-14 3.572994675 0 -15.71782574 5.386685597e-13 2.98843202 -1.063020874e-13 31.14370602)
(-15.10966444 -2.037105818e-13 4.535376434 2.692302992e-14 -15.60952867 4.307684787e-13 3.762924833 -3.227333285e-14 30.8399598)
(-14.83524532 -2.417085714e-13 5.476604713 9.059647773e-14 -15.49639834 0 4.496840337 2.708311174e-14 30.47071714)
(-14.52100704 -1.22617938e-13 6.40046451 3.941015962e-14 -15.37587323 0 5.189104887 4.848830607e-14 30.03964014)
(-14.16048038 -2.448674256e-14 7.306810701 3.511824143e-14 -15.24547269 -2.809459314e-13 5.836034961 8.117451322e-14 29.55028536)
(-13.75539757 2.016113051e-14 8.196357595 6.371912854e-14 -15.10385206 0 6.434808625 7.356282963e-14 29.00594441)
(-13.30976726 5.226264847e-14 9.070606473 2.930829794e-14 -14.95080753 -2.344663835e-13 6.983426972 1.046328111e-13 28.40960365)
(-12.82637186 5.196967072e-14 9.931191718 0 -14.78658218 0 7.480317579 1.142513825e-13 27.76399187)
(-12.30737574 -5.343227441e-14 10.77974816 0 -14.61158035 0 7.924297297 1.103029783e-13 27.07160848)
(-11.75465313 -8.542696963e-14 11.61796025 4.841019197e-14 -14.42627796 -1.936407679e-13 8.31448561 8.705551349e-14 26.33470914)
(-11.16983925 -4.374121546e-14 12.44747422 4.608128048e-14 -14.23116953 0 8.650263647 9.705275192e-14 25.5553807)
(-10.5544575 -3.157141378e-14 13.26976747 8.821044395e-14 -14.02674835 0 8.931327438 8.911844437e-14 24.73559001)
(-9.909902409 -3.280494434e-14 14.08624984 8.482894699e-14 -13.81349998 0 9.157588515 8.67038518e-14 23.87716247)
(-9.237437081 -8.559558512e-15 14.89822189 4.095788746e-14 -13.59189204 -8.191577492e-14 9.329160214 9.294248806e-14 22.98181779)
(-8.538240509 -1.438205568e-14 15.70688223 7.939204862e-14 -13.36237336 0 9.446335824 1.038009039e-13 22.05116397)
(-7.813386568 -2.559378454e-14 16.51347303 7.719598048e-14 -13.12537296 0 9.509539489 8.709503706e-14 21.08671533)
(-7.063822249 4.436579091e-14 17.31926559 3.763924598e-14 -12.88129829 -7.527849196e-14 9.519323056 5.268756072e-14 20.08985006)
(-6.290332322 5.732039853e-14 18.12565801 1.104001657e-13 -12.63053363 7.360011046e-14 9.476314789 5.270888265e-14 19.06177144)
(-5.493488981 2.951361545e-14 18.93433768 7.212874039e-14 -12.37343704 0 9.381153931 3.361160917e-14 18.00345447)
(-4.673602505 9.892418925e-15 19.74740835 1.062570313e-13 -12.11033674 1.416760417e-13 9.234456745 1.196857835e-14 16.91557943)
(-3.830616462 -3.226630413e-14 20.56755223 6.97061085e-14 -11.841527 1.39412217e-13 9.036743445 7.727156355e-15 15.79843948)
(-2.963996293 -3.667247457e-14 21.39820028 3.435737782e-14 -11.56726035 0 8.788357403 1.910920855e-14 14.6518306)
(-2.072628034 -2.762975346e-14 22.24378989 3.39243016e-14 -11.28774006 0 8.489386517 1.824628112e-14 13.47490209)
(-1.154627991 -3.636477097e-15 23.1100663 0 -11.00311109 -1.34189281e-13 8.139536964 1.784461129e-14 12.26597932)
(-0.2071265917 1.920582561e-14 24.00442867 3.322088754e-14 -10.7134468 0 7.737989366 1.543768757e-14 11.02234344)
(0.7739757072 1.82393769e-14 24.93642981 3.294025035e-14 -10.4187345 0 7.283243581 2.745825982e-14 9.739932579)
(1.794397392 2.248215194e-14 25.91840518 3.270131191e-14 -10.11885733 0 6.772869729 2.949725281e-14 8.412970142)
(2.861950078 5.284509533e-14 26.96626836 1.625026355e-14 -9.813569511 -6.50010542e-14 6.203224868 9.616749516e-15 7.03348032)
(3.987125049 7.575314218e-14 28.10055925 3.23348135e-14 -9.502466986 0 5.56908779 -1.720148863e-14 5.590628329)
(5.183880184 3.449709481e-14 29.34781648 8.050370347e-14 -9.184949916 6.440296278e-14 4.863157574 -1.796570477e-14 4.069905852)
(6.470629718 2.194211161e-15 30.7422996 3.20981747e-14 -8.860175745 0 4.075458084 -1.773671445e-14 2.452097707)
(7.871390572 2.1890602e-16 32.32783259 6.404564698e-14 -8.527000857 3.202282349e-14 3.192615438 -2.470659284e-14 0.7120872427)
(9.416898003 4.683633383e-16 34.15955379 3.197360389e-14 -8.183912564 0 2.197084666 -2.508227993e-14 -1.182363838)
(11.14550963 -2.584928482e-14 36.30517577 7.98722621e-14 -7.828957204 9.584671452e-14 1.066453617 -7.160859939e-15 -3.271604175)
(13.10342855 -5.806047059e-14 38.84464512 3.194729816e-14 -7.459671248 0 -0.2269174147 2.272853567e-14 -5.604342985)
(15.34365056 -5.322716759e-15 41.8673167 1.598375942e-14 -7.073034812 -6.393503767e-14 -1.715676246 9.067992446e-15 -8.236637469)
(17.92353689 3.471227858e-14 45.46661106 3.200844058e-14 -6.66546864 0 -3.436432305 -4.259032608e-15 -11.22937715)
(20.90114375 2.257987709e-14 49.73280531 3.20690626e-14 -6.232886595 0 -5.428004668 8.775554558e-15 -14.64459288)
(24.3311758 4.090769946e-14 54.74562725 1.607424568e-14 -5.770810973 -3.214849136e-14 -7.72926503 2.131637898e-14 -18.54131686)
(28.26173246 1.016974906e-13 60.56884097 3.224592981e-14 -5.274529597 0 -10.37722533 -3.897485926e-15 -22.97209496)
(32.73228361 1.429684246e-13 67.24799691 8.090167265e-15 -4.73926774 1.618033453e-14 -13.4056126 -2.439375595e-14 -27.9810157)
(37.77201123 1.031559855e-13 74.81166417 1.624603647e-14 -4.160351169 1.624603647e-14 -16.84352401 -6.206467787e-15 -33.60340358)
(43.3988182 4.95570131e-14 83.27518451 1.63197882e-14 -3.533368835 0 -20.71437691 5.714831252e-15 -39.8671515)
(49.6329061 7.214025629e-14 92.63742861 8.200668566e-15 -2.854307994 -1.640133713e-14 -25.04294765 -1.609703694e-14 -46.79031539)
(56.5448189 1.938192455e-13 102.8599166 -4.122614502e-15 -2.119308247 -8.245229005e-15 -29.88271215 -9.095914414e-14 -54.36848858)
(64.25787469 2.732594843e-13 113.878488 8.293475361e-15 -1.323575688 0 -35.31989724 -1.470586224e-13 -62.57977784)
(71.84830236 2.077263137e-13 126.2797506 3.12949456e-15 -0.4612615336 2.086329707e-15 -40.83988177 -1.235522984e-13 -71.77491407)
(-12.4417684 1.425898719e-13 0.7418967973 -1.134955529e-13 -20.44069509 3.631857693e-12 0.6160948751 5.494322237e-14 33.83483791)
(-16.47594108 -7.688916282e-14 1.718511264 -1.939273466e-13 -17.82894437 -1.241135018e-12 1.49255046 2.095156882e-13 33.74885702)
(-16.15229449 -1.587300781e-13 2.79003603 0 -16.99568306 0 2.354952673 3.649223172e-14 33.57550928)
(-16.35668418 -8.016675886e-14 3.857744842 0 -16.81990486 0 3.233762765 6.799373794e-14 33.319432)
(-16.15754692 -1.649213471e-13 4.897256685 -2.809039578e-14 -16.70220015 -4.494463325e-13 4.071143442 1.982411605e-13 32.98691142)
(-15.85729779 -1.923263483e-13 5.91406482 9.452468475e-14 -16.5789726 0 4.864045813 8.969483995e-14 32.58287195)
(-15.51341945 -1.113906192e-13 6.912230912 8.223791932e-14 -16.4474245 0 5.61129969 4.562649213e-14 32.11133776)
(-15.11943335 -3.803645147e-14 7.891701396 7.328189333e-14 -16.30500614 0 6.308865463 3.236560568e-14 31.57635898)
(-14.67718231 -1.525708817e-15 8.853266135 6.648195017e-14 -16.15032849 0 6.953659138 4.490240253e-14 30.98167122)
(-14.19107111 5.255780662e-15 9.798465663 6.115817497e-14 -15.98320655 0 7.543531452 4.968789516e-14 30.33066814)
(-13.66428749 2.155588208e-14 10.7289995 1.137795013e-13 -15.80393859 0 8.076820745 7.079425546e-14 29.6264638)
(-13.09926822 7.561846946e-15 11.64663039 8.010342696e-14 -15.61300072 0 8.552253662 9.893434703e-14 28.87191286)
(-12.49813337 -6.402439221e-14 12.55309104 1.262730694e-13 -15.41093329 2.02036911e-13 8.968901853 7.347000204e-14 28.06962423)
(-11.86285778 -7.343367365e-14 13.45000716 9.61586724e-14 -15.19830097 0 9.326230847 7.089184412e-14 27.22207242)
(-11.1952146 -4.129899558e-14 14.33893059 9.203519364e-14 -14.97567206 0 9.62398552 6.667962559e-14 26.33152685)
(-10.49680649 -3.962938983e-14 15.22128082 8.850707783e-14 -14.74359829 0 9.862166876 5.885350146e-14 25.4001225)
(-9.769137503 -2.595744236e-14 16.09837331 4.273379578e-14 -14.50261304 0 10.0410198 5.821250233e-14 24.42986634)
(-9.013575953 -3.146737961e-14 16.97145 4.141721944e-14 -14.25322796 0 10.16098437 8.407283568e-14 23.42263937)
(-8.231353315 -2.166956828e-14 17.84170958 0 -13.99592975 -8.054315033e-14 10.22265716 6.972956787e-14 22.38018839)
(-7.423592549 8.207079746e-15 18.71045975 3.927126009e-14 -13.73117931 0 10.22677353 5.571401715e-14 21.30410684)
(-6.591216418 6.006824599e-14 19.57921415 0 -13.45941257 -2.30374097e-13 10.17414166 7.019396172e-14 20.19577054)
(-5.734867903 9.168174492e-14 20.44975251 3.762809892e-14 -13.18103325 0 10.06558459 4.166229753e-14 19.05630062)
(-4.854899325 5.326681752e-14 21.32428487 3.695475687e-14 -12.89640978 0 9.901900661 4.707630049e-14 17.88647812)
(-3.95127055 1.729433118e-14 22.20566617 3.636426104e-14 -12.60587096 0 9.68377238 3.672852381e-14 16.68664552)
(-3.023426463 6.931371354e-15 23.09759265 3.584709226e-14 -12.30969881 0 9.411693575 1.747727044e-14 15.45659356)
(-2.070164145 -8.08836502e-15 24.00484688 7.079047676e-14 -12.00812029 1.415809535e-13 9.085867147 4.009615906e-15 14.19540107)
(-1.089438826 -3.072921684e-14 24.9336029 7.000382213e-14 -11.70129703 7.000382213e-14 8.706073132 9.722843378e-15 12.90126223)
(-0.07815534741 -3.093794014e-14 25.89180367 3.466132462e-14 -11.38931156 0 8.271533723 2.263225619e-14 11.57124452)
(0.9681073045 -2.782373278e-14 26.88964807 3.436851914e-14 -11.07215269 0 7.780730419 3.678386486e-14 10.20097859)
(2.0554767 1.30279446e-14 27.94024621 0 -10.74969559 -6.823844128e-14 7.231144525 2.945152806e-14 8.784279682)
(3.192260736 7.222375024e-14 29.06051995 3.390972959e-14 -10.42167774 0 6.618979251 1.44675766e-14 7.312625344)
(4.389617109 8.707660598e-14 30.27229896 3.373683107e-14 -10.0876683 0 5.938750501 2.561142944e-14 5.774486431)
(5.662360571 7.877746083e-14 31.60364168 5.039657636e-14 -9.747027726 0 5.182789555 2.322072756e-14 4.154488409)
(7.029918555 4.944997719e-14 33.09055581 5.023489746e-14 -9.39885972 6.697986329e-14 4.340618689 1.170378218e-14 2.432342422)
(8.517509919 1.59878354e-15 34.7789808 6.682262632e-14 -9.04195249 6.682262632e-14 3.398210177 1.74787658e-14 0.5816369675)
(10.15733964 -1.61587304e-14 36.72655584 3.335995954e-14 -8.674708849 0 2.337198295 1.851779767e-14 -1.431401622)
(11.98943758 -1.352573802e-14 39.0037129 3.333418948e-14 -8.295071539 0 1.134173271 2.644709593e-14 -3.648904478)
(14.06186028 -1.739866039e-14 41.69330811 3.333251307e-14 -7.900455931 0 -0.2396923564 1.917925778e-14 -6.121570112)
(16.42963261 -2.475463284e-15 44.88769261 3.335361057e-14 -7.487702219 0 -1.818394444 3.638253211e-15 -8.907605526)
(19.15221428 1.976383007e-14 48.68314249 5.009446037e-14 -7.05307428 3.339630691e-14 -3.640065453 4.224114997e-15 -12.07016829)
(22.28978939 5.473120915e-15 53.17254726 5.018933567e-14 -6.592314634 3.345955712e-14 -5.745164539 1.845222766e-14 -15.67359821)
(25.89913896 -1.06949252e-14 58.43781775 3.354243002e-14 -6.100762404 0 -8.174316405 2.972025382e-14 -19.77917294)
(30.03029919 4.17922721e-14 64.54433191 3.364409327e-14 -5.573514686 -3.364409327e-14 -10.96632665 -3.407175875e-17 -24.44156951)
(34.72443107 9.492773601e-14 71.5385069 3.376380746e-14 -5.00560278 1.688190373e-14 -14.15669812 -4.309173664e-15 -29.7067332)
(40.01203137 1.464459687e-13 79.44910092 8.475227306e-15 -4.392161225 -1.695045461e-14 -17.77620257 -2.200345142e-14 -35.61160905)
(45.91190443 1.845411433e-13 88.29114856 2.554110616e-14 -3.728596836 1.702740411e-14 -21.84978678 -6.646888892e-14 -42.18553197)
(52.44562833 1.89900164e-13 98.06220503 1.711248893e-14 -3.010728774 0 -26.40405439 -9.947554265e-14 -49.44746279)
(59.6884478 2.223605885e-13 108.7203917 -4.301368495e-15 -2.234523645 0 -31.49625232 -1.378426608e-13 -57.39274315)
(67.76991325 2.077921117e-13 120.1979041 0 -1.39494343 4.326537665e-15 -37.21745947 -1.187168639e-13 -65.99900068)
(75.71104718 1.137649996e-13 133.1142171 1.088395833e-15 -0.4858615503 2.176791665e-15 -43.02275795 -5.604796146e-14 -75.63739696)
(-13.34711279 -8.605844381e-14 0.8042031131 5.926284227e-14 -21.92017928 0 0.6666506688 7.590649613e-14 36.29051166)
(-17.67341274 -7.634138433e-15 1.861547941 1.620177773e-13 -19.12364464 0 1.61603109 2.063947121e-13 36.19621593)
(-17.31992411 2.653801177e-14 3.021492571 0 -18.22986674 -7.992624722e-13 2.549394211 9.641426895e-14 36.00586161)
(-17.53360062 -2.05305058e-13 4.177935901 7.336673508e-14 -18.03870138 5.869338807e-13 3.500190945 9.50742348e-14 35.72472605)
(-17.31530713 -2.008211951e-13 5.303985734 8.80060929e-14 -17.91042065 -4.693658288e-13 4.405931789 1.688406015e-13 35.35967886)
(-16.9859158 -5.085121946e-14 6.405426052 4.935701301e-14 -17.77581987 0 5.262984827 1.042428681e-13 34.91632147)
(-16.60858153 -6.847971962e-14 7.486742823 8.588271021e-14 -17.63185082 0 6.070059466 9.98776558e-14 34.39914693)
(-16.17678401 -4.25622012e-14 8.547802683 7.652975247e-14 -17.47587868 0 6.822784415 3.847708855e-14 33.81266436)
(-15.69255547 -1.074649121e-14 9.589440699 6.942843532e-14 -17.30646526 0 7.517764535 5.528412542e-14 33.16112854)
(-15.16077957 1.029134486e-14 10.61331668 6.38687099e-14 -17.12345574 -2.554748396e-13 8.152650134 9.542132813e-14 32.44841008)
(-14.58502235 -2.071266202e-14 11.62122018 1.18822218e-13 -16.92721449 2.37644436e-13 8.725641519 9.572554292e-14 31.67807351)
(-13.96807294 -3.218703613e-14 12.61495889 5.576907784e-14 -16.71829023 -2.230763113e-13 9.235370344 1.135637414e-13 30.8534077)
(-13.31245743 -2.117123635e-14 13.59628134 5.274780053e-14 -16.49730603 0 9.680942138 1.045145578e-13 29.97749305)
(-12.62043739 -4.025643302e-14 14.56689745 5.021021609e-14 -16.26491559 0 10.06181585 4.023401159e-14 29.05315996)
(-11.89406087 -2.210438901e-14 15.528388 9.611420103e-14 -16.02176466 0 10.37778374 1.853923362e-14 28.08306844)
(-11.13524464 -2.504809261e-14 16.48219984 4.621485915e-14 -15.76848619 0 10.62895385 2.137592599e-14 27.06972089)
(-10.345739 -5.408501097e-14 17.42967138 8.925552172e-14 -15.50569013 0 10.81569744 2.378114349e-14 26.01547571)
(-9.527153114 -3.383351547e-14 18.3720552 4.325283376e-14 -15.23396045 -8.650566752e-14 10.93862006 1.596736756e-14 24.92252915)
(-8.680951136 3.860647427e-15 19.310638 4.205641453e-14 -14.95385275 0 10.99849928 -2.165255615e-14 23.79291611)
(-7.808418001 1.201516563e-15 20.24676576 4.101176535e-14 -14.66589316 0 10.99627061 -7.4066908e-15 22.62847673)
(-6.910609596 3.935338812e-14 21.18199677 0 -14.37057493 -1.603895301e-13 10.93293728 7.841379608e-16 21.43080154)
(-5.988314038 7.398658386e-14 22.1182594 3.929577898e-14 -14.0683552 0 10.80953648 1.566311859e-14 20.20118533)
(-5.041955858 6.271296605e-14 23.05798257 3.859259449e-14 -13.75965125 0 10.62706212 2.858041924e-14 18.94052425)
(-4.071498592 5.121558275e-14 24.00425691 7.595185625e-14 -13.44483334 0 10.38638511 3.076597149e-14 17.64922876)
(-3.076343281 4.240778525e-14 24.96106675 3.743583801e-14 -13.12421807 0 10.08816568 3.030298919e-14 16.32708697)
(-2.055181403 1.353660571e-14 25.93355769 7.392791599e-14 -12.79805942 1.47855832e-13 9.732736451 3.804357376e-14 14.97311138)
(-1.00581364 -2.391664355e-14 26.92836517 7.3106397e-14 -12.46653825 0 9.319974344 5.006827289e-14 13.58535083)
(0.07508023226 -3.619751744e-14 27.95404698 3.619751744e-14 -12.12974902 0 8.849156079 3.23214905e-14 12.16063661)
(1.192269395 -3.066920676e-14 29.02157896 3.589173454e-14 -11.78768377 0 8.318743704 1.799440742e-14 10.69426569)
(2.352348515 -1.645863865e-14 30.14498848 3.563138685e-14 -11.44021032 0 7.726142062 1.289648251e-14 9.179600191)
(3.564213098 -6.50153418e-15 31.34225193 3.54126117e-14 -11.08704787 0 7.067386198 3.160145194e-14 7.607521542)
(4.839722703 5.064607179e-14 32.63648607 0 -10.72773511 -7.046409988e-14 6.33672055 3.708149106e-14 5.965747113)
(6.194576152 1.020737213e-13 34.05742212 3.508677095e-14 -10.36159031 0 5.52608327 4.103353447e-14 4.237949577)
(7.649345711 9.245623156e-14 35.6430667 3.497420802e-14 -9.987659455 0 4.624455555 4.704154114e-14 2.402673762)
(9.230589803 5.329223859e-14 37.44159425 5.23381576e-14 -9.604655429 3.489210506e-14 3.617106579 5.161605614e-14 0.4320908944)
(10.97207781 -4.490897242e-15 39.51328244 6.967695114e-14 -9.210888433 6.967695114e-14 2.484775341 6.092261406e-14 -1.709256666)
(12.91569491 -2.604068114e-14 41.931568 3.48115633e-14 -8.804188783 0 1.202964692 6.206454624e-14 -4.065444545)
(15.11154737 -1.760886999e-14 44.78247381 3.48098125e-14 -8.381838068 0 -0.2584559102 4.50056509e-14 -6.689368211)
(17.6169106 -1.47116924e-14 48.16166736 3.483184512e-14 -7.940523346 0 -1.934978738 5.647841252e-14 -9.641640276)
(20.49363367 -1.188659715e-14 52.16873014 5.231465107e-14 -7.476334594 3.487643405e-14 -3.866427298 7.451119228e-14 -12.98798172)
(23.80432585 -2.985808226e-15 56.89958032 3.494248713e-14 -6.984823772 0 -6.095099845 8.282446129e-14 -16.79535561)
(27.60816596 4.231534571e-14 62.43876605 1.751451657e-14 -6.461124678 -3.502903315e-14 -8.663580219 5.260778279e-14 -21.12762352)
(31.95743628 4.688696638e-14 68.8537374 3.513520203e-14 -5.900119471 3.513520203e-14 -11.61268519 3.424007831e-14 -26.0419463)
(36.89530992 5.289033326e-14 76.19223827 8.815055544e-15 -5.29661962 -3.526022217e-14 -14.97991075 2.137167446e-14 -31.58645562)
(42.45391751 1.422877859e-13 84.48370944 8.850850003e-15 -4.645540901 -1.770170001e-14 -18.79792281 -3.425466255e-14 -37.80008311)
(48.65320472 1.986415862e-13 93.7432389 1.778205999e-14 -3.942079528 0 -23.09337835 -6.047233927e-14 -44.71389071)
(55.51640128 2.129675635e-13 103.9673616 0 -3.181859167 -1.787091576e-14 -27.89490915 -6.651146276e-14 -52.34800282)
(63.12402925 2.201082678e-13 115.1109814 1.347601639e-14 -2.360644426 0 -33.26391022 -8.217302663e-14 -60.69770193)
(71.61265314 2.179104277e-13 127.1026739 4.518290162e-15 -1.473117757 -4.518290162e-15 -39.29681792 -9.432167508e-14 -69.74023209)
(79.94328415 2.452731031e-13 140.5979311 1.136633619e-15 -0.5128338047 -2.273267239e-15 -45.41571405 -1.275662131e-13 -79.86906355)
(-14.34910019 -1.044178191e-13 0.8744212884 2.477957051e-13 -23.5573731 0 0.7213822572 -8.406843199e-14 39.00796936)
(-18.99868865 -5.14368553e-14 2.022846685 1.27020916e-13 -20.55647649 0 1.749561476 -1.521453614e-13 38.90439281)
(-18.61187034 -1.896984269e-14 3.282534629 1.044361232e-13 -19.59573658 0 2.759705889 1.636390911e-14 38.69493905)
(-18.83545137 -1.709094919e-13 4.538972158 7.669207702e-14 -19.38740575 0 3.788387241 9.922428068e-14 38.38559616)
(-18.59560875 -1.828519668e-13 5.762442107 1.226599502e-13 -19.24728505 0 4.768186214 4.575196792e-14 37.98406398)
(-18.23344567 -1.212260187e-13 6.958960402 1.031882321e-13 -19.09993887 0 5.694825484 5.210581405e-14 37.49647053)
(-17.81848841 -1.792876619e-14 8.133521621 8.977533778e-14 -18.94202358 -3.591013511e-13 6.566831382 7.560635431e-14 36.92795878)
(-17.34421021 1.136696837e-14 9.285969223 7.999845782e-14 -18.77083173 3.199938313e-13 7.379491492 6.671451777e-14 36.28358647)
(-16.81276315 -9.858613908e-14 10.41709738 1.088629113e-13 -18.58486725 0 8.129078771 9.966688193e-14 35.56812439)
(-16.22956687 -4.987706968e-14 11.52861988 6.676355471e-14 -18.38400202 -2.670542189e-13 8.813004108 9.260554434e-14 34.78598529)
(-15.59869891 5.882890211e-15 12.62239973 6.210391316e-14 -18.16867474 -2.484156526e-13 9.429316692 8.942455502e-14 33.94128056)
(-14.92340609 -2.789593306e-15 13.70029539 8.744521056e-14 -17.93952537 0 9.976581439 5.59287939e-14 33.03781149)
(-14.20654707 5.820782861e-14 14.76415594 5.513859066e-14 -17.69727675 -2.205543626e-13 10.45382369 5.108370434e-14 32.07911731)
(-13.45074375 6.227585816e-14 15.81572149 1.049719815e-13 -17.44267107 0 10.86049029 -4.284858484e-14 31.0684924)
(-12.65842679 -1.692497391e-14 16.85659183 1.004705698e-13 -17.17645172 2.009411396e-13 11.19644958 -1.967880528e-14 30.00907383)
(-11.8318256 -3.547732156e-14 17.88822846 9.661908851e-14 -16.89934205 0 11.46189395 1.678584436e-15 28.90377632)
(-10.97303406 -1.225487058e-14 18.91202316 4.665051107e-14 -16.61204092 0 11.65733472 -4.067627351e-15 27.75537209)
(-10.0839303 2.265078621e-14 19.92929629 4.521326526e-14 -16.31521894 0 11.78353185 -3.122081319e-14 26.56643539)
(-9.166221597 5.151869356e-16 20.94133924 1.318878555e-13 -16.00951009 2.63775711e-13 11.84146269 -1.803647374e-14 25.339341)
(-8.221441321 -5.325334904e-14 21.94963435 8.574124122e-14 -15.69551588 8.574124122e-14 11.83226556 2.430886752e-14 24.07622843)
(-7.250823749 -2.316774721e-14 22.95588752 4.191479354e-14 -15.37379956 0 11.75716986 7.817593958e-15 22.77894654)
(-6.25526919 2.771885587e-14 23.9621563 4.107685733e-14 -15.04488109 0 11.61743813 8.379732783e-15 21.44899281)
(-5.235293115 3.801741965e-14 24.97106517 4.034180075e-14 -14.70923276 0 11.41427949 3.321749394e-14 20.08741262)
(-4.190915949 2.496580733e-14 25.98600674 3.969718432e-14 -14.36727401 0 11.14878006 4.70025032e-14 18.69470002)
(-3.121508394 1.685301083e-14 27.01136411 3.913261473e-14 -14.0193633 0 10.8217797 3.938244644e-14 17.27065308)
(-2.025646 -1.056544634e-15 28.0527486 3.863934661e-14 -13.66578764 0 10.43376554 3.943569336e-14 15.81422273)
(-0.9009397522 1.959007243e-14 29.11733659 3.820996984e-14 -13.30675156 -1.528398794e-13 9.984734795 2.349655821e-14 14.32330096)
(0.2562061538 4.264184089e-14 30.21432173 3.783816731e-14 -12.94236369 0 9.474022877 2.180464332e-15 12.79446511)
(1.450913618 -2.967773914e-15 31.35547312 7.503704909e-14 -12.57261991 1.500740982e-13 8.900089049 6.885565735e-15 11.22264936)
(2.690244669 -3.721000364e-14 32.55585227 3.724637705e-14 -12.19738213 0 8.260265613 1.254940183e-14 9.600715613)
(3.983744485 -4.113879509e-14 33.83471116 3.701768557e-14 -11.81635156 0 7.550407903 1.211538811e-14 7.918893154)
(5.344100249 -3.754825542e-14 35.2166115 5.524341028e-14 -11.42903465 0 6.764477839 1.953203306e-14 6.164073688)
(6.787979926 1.40762607e-14 36.73296278 0 -11.03470219 -7.335415245e-14 5.893991292 2.606431239e-14 4.318894367)
(8.337142355 7.415419642e-14 38.42391545 0 -10.63233779 -7.311882247e-14 4.927351243 2.089174026e-14 2.360618668)
(10.01964565 7.137995027e-14 40.34019002 3.647358736e-14 -10.22057336 0 3.849066238 3.353169389e-14 0.2598716938)
(11.87098908 4.619762456e-14 42.54487343 1.820876349e-14 -9.797616787 -3.641752698e-14 2.638907109 5.324986699e-14 -2.020646645)
(13.93507381 4.239506644e-14 45.11464437 3.638939483e-14 -9.361175802 0 1.271177527 5.18728798e-14 -4.527157348)
(16.26430097 -1.780290039e-14 48.1390824 5.458134729e-14 -8.908385141 7.277512973e-14 -0.2856735006 8.368934858e-14 -7.314996619)
(18.91844314 -8.667073005e-14 51.71750289 1.820529796e-14 -8.435762684 0 -2.068801601 1.197264809e-13 -10.44744992)
(21.96202008 -6.396032259e-14 55.95319179 0 -7.939206539 -7.291441172e-14 -4.119888338 1.060022236e-13 -13.99310332)
(25.46039338 -9.149398323e-15 60.94558511 1.826312648e-14 -7.414056918 -3.652625295e-14 -6.483286627 7.832984801e-14 -18.02188199)
(29.47548838 5.099164505e-14 66.78239844 1.830836064e-14 -6.855218578 0 -9.203758363 5.132520585e-14 -22.60062099)
(34.06216747 1.140029329e-13 73.53360169 1.836385138e-14 -6.257332165 -3.672770277e-14 -12.32435263 2.591047092e-14 -27.78929532)
(39.26592211 1.474335562e-13 81.24869084 3.685838905e-14 -5.614961598 0 -15.88477706 -1.01638555e-14 -33.63857339)
(45.12082614 1.58097405e-13 89.95826088 2.775604231e-14 -4.922774949 0 -19.91981309 -3.197846951e-14 -40.18973621)
(51.6482238 1.663392757e-13 99.6778462 1.858803059e-14 -4.175728204 0 -24.45800869 -4.885161674e-14 -47.47586757)
(58.87329775 2.190446592e-13 110.4032991 9.340456858e-15 -3.369220596 -1.868091372e-14 -29.53024197 -8.710218021e-14 -55.51854073)
(66.88245779 3.009039237e-13 122.0864759 1.878242109e-14 -2.498784216 0 -35.20245125 -1.499385693e-13 -64.31317446)
(75.82011729 3.04961614e-13 134.6523239 9.446162701e-15 -1.558784548 4.72308135e-15 -41.5769684 -1.626091258e-13 -73.83672217)
(84.58210909 2.514077424e-13 148.7957132 2.376302909e-15 -0.5424140681 2.376302909e-15 -48.03996195 -1.470576685e-13 -84.50697767)
(-15.45834539 4.551450773e-14 0.9536498257 -3.889306474e-13 -25.36953559 0 0.7803596892 1.315443715e-13 42.01589387)
(-20.46579013 -2.084529075e-13 2.205095712 -8.860762859e-14 -22.14259054 1.417722057e-12 1.893191225 6.292488961e-14 41.90194502)
(-20.04180399 -2.850972947e-13 3.577540303 1.092792925e-13 -21.10773309 0 2.985920327 1.776480209e-13 41.67110387)
(-20.27611242 -2.22015988e-13 4.946761152 8.024863102e-14 -20.88028356 0 4.098517892 1.711922969e-13 41.33031111)
(-20.01226165 -1.505334335e-13 6.280139789 6.417411985e-14 -20.72697237 0 5.158177799 -3.880657991e-15 40.88805829)
(-19.61350231 -1.149854841e-13 7.583881228 1.079735311e-13 -20.56542695 0 6.159958112 6.384664469e-15 40.35110638)
(-19.15643298 -1.096256368e-13 8.863332296 1.409079315e-13 -20.39195022 0 7.10224581 -1.895655441e-14 39.72519099)
(-18.63459429 -6.486579153e-14 10.11839906 8.370834345e-14 -20.20375606 -3.348333738e-13 7.979875106 1.899325745e-14 39.01603563)
(-18.05028753 -3.470737069e-14 11.34984412 1.139113705e-13 -19.9992905 -3.037636546e-13 8.788763481 3.260037708e-14 38.22903376)
(-17.40952275 5.048453367e-15 12.55936658 1.047895185e-13 -19.77845769 0 9.526094936 7.340635007e-16 37.36919352)
(-16.71693366 2.779586862e-14 13.7488915 9.747592281e-14 -19.54178069 0 10.18972673 2.961039686e-14 36.44118178)
(-15.97618627 7.20804212e-15 14.92037126 6.100029034e-14 -19.29000009 0 10.77805261 2.017539373e-14 35.44936316)
(-15.19059786 1.223214617e-13 16.07567334 0 -19.02393837 -2.307824538e-13 11.2900171 -3.905047237e-14 34.39783646)
(-14.36325364 9.589546959e-14 17.21654598 1.647600014e-13 -18.74444925 4.393600039e-13 11.7250862 -2.073830446e-14 33.29047437)
(-13.49697859 -6.375549757e-14 18.34464146 1.051298382e-13 -18.45238328 0 12.08313526 2.709339671e-14 32.13089933)
(-12.59439676 -5.420289168e-14 19.46146865 1.01099747e-13 -18.14856949 0 12.36445137 2.082850814e-14 30.92255565)
(-11.65795004 -2.426394239e-14 20.5684098 9.76278075e-14 -17.8338088 0 12.56966725 1.499042732e-14 29.66866007)
(-10.68988069 -1.829566635e-14 21.66687758 4.731000593e-14 -17.50886795 0 12.69969478 1.147617216e-14 28.37224099)
(-9.692207924 -5.947832281e-14 22.75829382 4.600136145e-14 -17.17447622 0 12.75570841 3.989050786e-14 27.03608276)
(-8.666698067 -3.176032628e-14 23.84418766 0 -16.83132121 -1.794348917e-13 12.73906447 4.586190098e-14 25.66268085)
(-7.614830451 2.591253372e-14 24.9264204 4.385856948e-14 -16.48004606 0 12.65123026 1.994454134e-14 24.25419608)
(-6.53769243 -8.940544917e-15 26.00731712 8.596354925e-14 -16.12124554 1.719270985e-13 12.49370087 4.060296097e-14 22.81236822)
(-5.435902831 -8.986673256e-15 27.08979151 4.221263034e-14 -15.75545836 -8.442526068e-14 12.26793195 6.50085224e-14 21.33843328)
(-4.309512233 5.593854213e-14 28.17755106 0 -15.38316184 -8.307623951e-14 11.97523711 4.744775086e-14 19.83299368)
(-3.157871358 7.913558887e-14 29.27537603 8.189473775e-14 -15.00476239 0 11.61665884 3.475072675e-14 18.29588349)
(-1.979481536 4.489287471e-14 30.38941057 8.086245154e-14 -14.62058677 1.617249031e-13 11.1928689 1.259047196e-14 16.72599476)
(-0.7717680244 1.823394957e-14 31.5275019 3.998193654e-14 -14.2308697 0 10.70399799 7.807436983e-15 15.12105819)
(0.4691692063 1.527264881e-14 32.69963754 3.95928921e-14 -13.83573879 0 10.14945466 -6.602079737e-15 13.47738026)
(1.748870666 1.353342225e-14 33.91850322 7.851685202e-14 -13.43519686 0 9.527713825 -4.40054495e-15 11.78949816)