/*--------------------------------*- C++ -*----------------------------------*\
  =========                 |
  \\      /  F ield         | OpenFOAM: The Open Source CFD Toolbox
   \\    /   O peration     | Website:  https://openfoam.org
    \\  /    A nd           | Version:  7
     \\/     M anipulation  |
\*---------------------------------------------------------------------------*/
FoamFile
{
    version     2.0;
    format      ascii;
    class       volScalarField;
    location    "0.0015";
    object      p;
}
// * * * * * * * * * * * * * * * * * * * * * * * * * * * * * * * * * * * * * //

dimensions      [1 -1 -2 0 0 0 0];

internalField   nonuniform List<scalar> 
1167
(
1215078.016
1225643.352
1224008.914
1224525.798
1225951.709
1227591.231
1229458.193
1231560.718
1233871.188
1236363.048
1239013.155
1241799.763
1244702.459
1247702.243
1250781.94
1253926.275
1257121.679
1260356.356
1206307.219
1216924.836
1215330.701
1215866.782
1217332.737
1219022.817
1220944.71
1223106.502
1225479.52
1228035.856
1230751.339
1233603.387
1236570.537
1239633.366
1242774.392
1245977.806
1249230.027
1252519.113
1255835.028
1259169.681
1262516.32
1265869.616
1269225.577
1272581.317
1275934.912
1279285.172
1282631.5
1285973.816
1289312.343
1292647.362
1295979.15
1299307.559
1302631.568
1305948.741
1309254.492
1312541.065
1315796.479
1319004.089
1322143.008
1325190.052
1328123.304
1330925.632
1333587.477
1336107.422
1338490.05
1340741.479
1342871.349
1344923.677
1346997.445
1348970.154
1197188.295
1207864.688
1206311.452
1206868.93
1208377.601
1210121.64
1212102.639
1214327.873
1216767.879
1219393.443
1222179.184
1225101.319
1228137.906
1231268.891
1234476.098
1237743.581
1241057.353
1244405.528
1247778.053
1251166.723
1254564.91
1257967.499
1261370.606
1264771.473
1268168.316
1271560.121
1274946.464
1278327.478
1281703.53
1285075.089
1288442.535
1291805.836
1295164.203
1298515.391
1301854.914
1305175.23
1308464.76
1311707.185
1314882.129
1317966.903
1320939.91
1323784.098
1326489.716
1329054.926
1331483.826
1333782.008
1335958.806
1338058.973
1340183.016
1342203.032
1187698.763
1198440.695
1196928.882
1197509.619
1199064.098
1200865.362
1202909.365
1205202.562
1207714.279
1210413.904
1213274.817
1216272.346
1219383.762
1222588.042
1225866.766
1229203.438
1232584.005
1235996.271
1239430.257
1242877.81
1246332.29
1249788.634
1253243.142
1256693.272
1260137.364
1263574.557
1267004.589
1270427.707
1273844.43
1277255.484
1280661.409
1284062.317
1287457.469
1290844.859
1294220.268
1297576.313
1300901.746
1304180.736
1307393.325
1310517.37
1313531.562
1316418.966
1319169.622
1321781.265
1324257.507
1326603.399
1328827.967
1330976.702
1333151.673
1335219.631
1177814.322
1188628.492
1187158.314
1187764.577
1189367.923
1191230.193
1193341.181
1195706.754
1198294.996
1201073.813
1204015.313
1207093.787
1210285.323
1213568.54
1216924.263
1220335.782
1223788.541
1227270.396
1230771.187
1234282.697
1237798.49
1241313.549
1244824.269
1248328.177
1251823.781
1255310.429
1258788.059
1262257.042
1265718.054
1269171.897
1272619.3
1276060.613
1279495.272
1282921.33
1286334.819
1289728.691
1293091.939
1296409.254
1299661.126
1302825.921
1305882.636
1308814.453
1311611.202
1314270.235
1316794.665
1319188.997
1321461.939
1323659.733
1325886.036
1328002.343
1167508.775
1178401.534
1176973.557
1177607.837
1179262.863
1181190.038
1183372.403
1185814.947
1188484.721
1191348.102
1194375.681
1197540.569
1200818.136
1204186.16
1207624.835
1211117.062
1214647.996
1218205.153
1221778.484
1225359.689
1228942.233
1232521.21
1236093.234
1239655.914
1243207.879
1246748.573
1250278.072
1253796.937
1257306.048
1260806.354
1264298.701
1267783.516
1271260.524
1274727.986
1278182.011
1281615.913
1285019.051
1288376.479
1291669.267
1294876.221
1297976.712
1300953.999
1303797.714
1306504.866
1309078.083
1311521.326
1313842.996
1316090.072
1318367.816
1320532.586
1156754.669
1167732.456
1166347.451
1167011.846
1168721.658
1170717.236
1172975.325
1175499.715
1178256.185
1181209.469
1184328.814
1187586.228
1190955.99
1194414.988
1197942.945
1201522.123
1205137.461
1208776.294
1212428.264
1216085.139
1219740.419
1223389.238
1227028.181
1230654.991
1234268.499
1237868.254
1241454.468
1245027.827
1248589.285
1252140.007
1255681.047
1259212.976
1262735.559
1266247.345
1269744.684
1273221.058
1276666.288
1280065.79
1283401.194
1286651.737
1289797.186
1292820.887
1295712.312
1298468.138
1301090.524
1303582.912
1305953.412
1308249.734
1310578.747
1312791.825
1145524.201
1156593.249
1155251.804
1155948.345
1157716.144
1159783.804
1162121.728
1164732.647
1167580.966
1170629.722
1173846.787
1177202.794
1180670.938
1184227.442
1187851.153
1191523.994
1195230.359
1198957.453
1202694.791
1206433.897
1210168.238
1213893.14
1217605.186
1221302.194
1224983.035
1228647.34
1232295.505
1235928.377
1239547.051
1243152.756
1246746.664
1250329.6
1253901.486
1257460.92
1261004.597
1264526.233
1268015.964
1271459.69
1274839.499
1278135.124
1281326.684
1284397.628
1287337.34
1290142.189
1292813.89
1295355.388
1297774.527
1300119.747
1302499.522
1304760.428
1133789.837
1144955.581
1143658.01
1144388.952
1146217.408
1148361.006
1150782.897
1153484.877
1156430.112
1159579.871
1162900.283
1166360.834
1169933.838
1173594.308
1177320.621
1181093.905
1184898.346
1188720.726
1192550.329
1196378.676
1200199.149
1204006.949
1207798.691
1211572.354
1215326.869
1219061.952
1222778.038
1226476.02
1230157.226
1233823.035
1237474.69
1241113.06
1244738.364
1248349.345
1251942.813
1255512.852
1259049.851
1262540.201
1265966.417
1269308.749
1272547.651
1275666.696
1278655.225
1281509.333
1284230.334
1286820.718
1289288.086
1291681.591
1294111.307
1296419.25
1121525.045
1132792.176
1131539.179
1132306.403
1134197.904
1136420.352
1138930.082
1141727.444
1144774.233
1148029.949
1151459.299
1155030.461
1158714.417
1162485.422
1166321.017
1170201.801
1174111.338
1178036.264
1181965.543
1185890.406
1189804.287
1193702.332
1197581.115
1201438.559
1205273.621
1209086.189
1212876.758
1216646.283
1220396.083
1224127.688
1227842.526
1231541.543
1235224.99
1238891.904
1242539.207
1246161.242
1249748.723
1253288.425
1256763.31
1260154.114
1263441.615
1266609.59
1269647.34
1272550.731
1275320.724
1277959.429
1280474.229
1282914.988
1285393.365
1287747.077
1108706.41
1120078.898
1118870.956
1119675.655
1121632.407
1123936.101
1126536.59
1129432.854
1132585.167
1135951.367
1139494.719
1143181.692
1146982.32
1150869.985
1154821.304
1158816.289
1162838.064
1166872.695
1170909.051
1174938.124
1178953.094
1182948.991
1186922.459
1190871.379
1194794.668
1198692.173
1202564.407
1206412.486
1210237.77
1214041.774
1217825.98
1221591.545
1225338.763
1229066.741
1232772.669
1236451.008
1240092.842
1243685.231
1247211.629
1250653.177
1253990.983
1257209.063
1260296.715
1263249.622
1266068.46
1268755.012
1271316.475
1273803.395
1276328.979
1278727.036
1095315.704
1106796.047
1105632.922
1106475.917
1108498.962
1110885.819
1113579.028
1116576.549
1119837.343
1123317.464
1126978.361
1130785.478
1134707.723
1138717.273
1142790.114
1146905.443
1151045.997
1155197.44
1159348.088
1163488.789
1167612.635
1171714.444
1175790.664
1179839.088
1183858.67
1187849.215
1191811.207
1195745.643
1199653.978
1203537.805
1207398.566
1211237.421
1215054.83
1218849.874
1222619.928
1226359.6
1230060.207
1233709.089
1237290.129
1240784.827
1244174.654
1247443.849
1250581.744
1253583.908
1256450.831
1259184.031
1261790.574
1264321.727
1266892.229
1269332.249
1081342.09
1092930.535
1091811.929
1092693.338
1094782.34
1097252.355
1100038.954
1103138.595
1106508.988
1110104.524
1113885.234
1117815.387
1121862.433
1125997.865
1130196.632
1134437.473
1138702.418
1142976.753
1147248.455
1151507.996
1155748.162
1159963.683
1164150.848
1168307.28
1172431.721
1176523.879
1180584.272
1184613.83
1188613.853
1192585.91
1196531.515
1200451.742
1204347.039
1208216.596
1212057.751
1215865.321
1219630.708
1223341.564
1226982.056
1230534.001
1233979.233
1237302.193
1240492.27
1243544.98
1246460.698
1249240.727
1251892.019
1254466.465
1257080.242
1259560.613
1066785.267
1078479.953
1077405.078
1078323.487
1080476.885
1083028.138
1085906.348
1089106.568
1092585.314
1096295.557
1100195.924
1104249.189
1108422.054
1112684.968
1117012.208
1121381.677
1125775.069
1130177.063
1134575.168
1138959.704
1143323.101
1147659.717
1151965.6
1156238.296
1160476.339
1164679.212
1168847.151
1172981.056
1177082.137
1181151.735
1185191.227
1189201.695
1193183.375
1197135.471
1201055.249
1204937.545
1208773.784
1212551.818
1216255.98
1219868.386
1223371.154
1226748.925
1229991.188
1233093.514
1236056.234
1238880.544
1241573.444
1244187.621
1246840.7
1249356.963
1051660.006
1063455.961
1062422.955
1063375.378
1065589.189
1068217.55
1071182.685
1074478.781
1078061.439
1081882.157
1085898.201
1090071.522
1094367.819
1098756.686
1103211.723
1107710.298
1112233.392
1116765.421
1121293.451
1125807.283
1130299.151
1134763.138
1139194.968
1143591.793
1147951.942
1152274.741
1156560.142
1160808.701
1165021.464
1169199.645
1173344.331
1177456.427
1181536.085
1185582.246
1189592.158
1193560.475
1197478.647
1201334.498
1205112.416
1208794.718
1212363.662
1215803.998
1219105.3
1222263.201
1225278
1228150.791
1230888.503
1233544.229
1236236.84
1238789.445
1036000.592
1047888.295
1046894.208
1047875.929
1050143.091
1052840.763
1055884.626
1059267.866
1062945.429
1066867.753
1070991.249
1075276.948
1079689.654
1084198.484
1088776.292
1093400.146
1098050.542
1102711.25
1107369.234
1112013.906
1116637.005
1121232.233
1125795.12
1130322.413
1134812.029
1139262.828
1143674.51
1148047.26
1152381.637
1156678.482
1160938.593
1165162.365
1169349.685
1173499.101
1177607.541
1181669.328
1185675.726
1189614.327
1193469.48
1197223.524
1200858.789
1204360.127
1207717.284
1210926.014
1213986.714
1216900.6
1219674.994
1222364.111
1225088.148
1227667.126
1019865.282
1031830.322
1030871.292
1031874.911
1034185.171
1036940.017
1040049.391
1043505.737
1047263.701
1051273.116
1055489.69
1059873.69
1064389.757
1069006.323
1073696.119
1078435.64
1083205.326
1087988.587
1092771.886
1097544.538
1102298.009
1107025.633
1111722.454
1116384.925
1121010.671
1125598.122
1130146.433
1134655.446
1139125.353
1143556.453
1147949.138
1152303.431
1156618.651
1160893.029
1165122.944
1169302.34
1173421.969
1177468.973
1181427.366
1185279.121
1189006.263
1192593.479
1196030.407
1199312.717
1202440.736
1205415.556
1208244.155
1210980.395
1213745.461
1216361.88
1003342.796
1015364.796
1014435.352
1015450.327
1017789.127
1020584.164
1023739.987
1027249.004
1031066.045
1035140.534
1039427.892
1043888.503
1048486.71
1053190.917
1057973.689
1062811.598
1067684.681
1072576.449
1077473.204
1082363.871
1087239.633
1092093.675
1096920.59
1101716.253
1106477.7
1111202.918
1115890.405
1120539.156
1125148.661
1129718.503
1134248.116
1138736.801
1143182.974
1147584.049
1151935.559
1156230.698
1160459.396
1164608.171
1168660.45
1172597.742
1176401.783
1180057.176
1183553.558
1186886.703
1190057.164
1193066.508
1195922.907
1198682.524
1201467.592
1204093.877
986557.6107
998608.5225
997701.1868
998713.8961
1001061.432
1003873.682
1007050.351
1010584.062
1014430.386
1018539.147
1022866.203
1027372.214
1032021.76
1036783.787
1041631.029
1046540.459
1051492.431
1056470.401
1061461.047
1066453.438
1071438.674
1076409.782
1081361.41
1086289.283
1091190.081
1096061.339
1100901.294
1105708.487
1110481.711
1115220.017
1119922.206
1124586.72
1129211.279
1133792.309
1138324.432
1142799.667
1147206.705
1151530.776
1155753.855
1159855.993
1163817.638
1167622.234
1171258.469
1174721.392
1178010.974
1181127.982
1184078.816
1186916.837
1189765.233
1192451.75
969674.1484
981717.0317
980823.1302
981816.2698
984147.4473
986946.985
990110.9339
993632.5484
997468.7765
1001570.645
1005894.845
1010402.687
1015059.961
1019836.144
1024704.956
1029643.75
1034633.637
1039658.493
1044705.104
1049762.899
1054823.127
1059878.634
1064923.724
1069953.835
1074965.154
1079954.383
1084918.799
1089856.021
1094763.635
1099639.285
1104480.521
1109284.224
1114046.648
1118762.67
1123425.456
1128025.477
1132550.024
1136982.914
1141304.797
1145494.594
1149531.858
1153399.373
1157085.464
1160585.148
1163898.75
1167028.276
1169983.634
1172824.302
1175673.458
1178335.972
952900.8367
964888.5793
963997.8224
964950.2083
967234.734
969985.2092
973095.2492
976559.6441
980337.4858
984381.5366
988649.99
993106.1625
997717.4366
1002454.783
1007293.506
1012212.381
1017193.743
1022223.021
1027288.1
1032379.454
1037489.513
1042612.191
1047742.541
1052876.728
1058011.604
1063144.407
1068272.581
1073393.833
1078505.761
1083605.583
1088690.225
1093755.774
1098797.283
1103808.214
1108779.854
1113700.415
1118554.524
1123322.792
1127982.255
1132508.022
1136875.749
1141064.539
1145059.46
1148852.73
1152442.035
1155825.789
1159006.914
1162034.641
1165034.581
1167849.994
936475.8835
948353.3214
947454.1962
948341.0301
950541.8965
953198.9657
956203.9961
959553.8256
963210.3353
967128.5692
971269.0796
975597.4876
980082.8003
984698.0267
989419.9868
994229.1782
999109.0939
1004046.32
1009029.913
1014051.066
1019102.868
1024179.712
1029276.953
1034390.754
1039517.778
1044654.834
1049798.69
1054946.115
1060093.513
1065236.732
1070371.079
1075490.959
1080589.551
1085658.47
1090687.052
1095661.579
1100564.688
1105374.923
1110067.18
1114614.432
1118990.329
1123172.307
1127144.341
1130898.318
1134432.783
1137749.873
1140863.316
1143840.518
1146803.839
1149519.567
920721.5038
932411.9337
931491.3273
932287.4186
934367.0071
936886.1346
939736.3553
942916.9504
946393.6578
950125.2022
954075.7398
958214.0203
962512.4045
966947.3447
971498.7964
976150.4256
980888.9509
985704.0984
990588.0918
995535.3796
1000542.221
1005606.172
1010725.792
1015900.402
1021129.653
1026413.156
1031750.418
1037140.507
1042581.706
1048071.396
1053605.727
1059179.257
1064784.595
1070411.824
1076047.774
1081675.119
1087271.586
1092809.468
1098256.067
1103575.574
1108732.17
1113693.768
1118435.305
1122940.181
1127197.967
1131197.654
1134928.479
1138424.309
1141814.504
1144975.323
917252.1987
916300.5497
916972.372
918877.835
921192.1372
923808.1732
926727.4632
929919.3848
933346.071
936974.51
940775.9944
944725.3425
948801.0842
952985.1272
957262.6655
961622.0049
966054.0494
970552.1126
975111.8192
979730.2746
984405.7867
989137.8714
993926.5935
998772.2331
1003675.155
1008635.627
1013653.292
1018727.081
1023855.121
1029034.115
1034259.332
1039524.006
1044818.857
1050131.196
1055443.985
1060734.604
1065974.207
1071127.866
1076156.296
1081019.333
1085680.308
1090110.231
1094290.352
1098211.953
1101875.76
1105306.582
1108599.712
1111884.815
1114802.25
)
;

boundaryField
{
    front_top
    {
        type            wedge;
    }
    front_middle
    {
        type            wedge;
    }
    front_bottom
    {
        type            wedge;
    }
    back_top
    {
        type            wedge;
    }
    back_middle
    {
        type            wedge;
    }
    back_bottom
    {
        type            wedge;
    }
    axis_top
    {
        type            symmetryPlane;
    }
    axis_middle
    {
        type            symmetryPlane;
    }
    axis_bottom
    {
        type            symmetryPlane;
    }
    wall_top
    {
        type            fixedFluxPressure;
        gradient        nonuniform 0();
        value           nonuniform 0();
    }
    wall_middle
    {
        type            fixedFluxPressure;
        gradient        uniform 0;
        value           nonuniform List<scalar> 
23
(
1348970.154
1342203.032
1335219.631
1328002.343
1320532.586
1312791.825
1304760.428
1296419.25
1287747.077
1278727.036
1269332.249
1259560.613
1249356.963
1238789.445
1227667.126
1216361.88
1204093.877
1192451.75
1178335.972
1167849.994
1149519.567
1144975.323
1114802.25
)
;
    }
    wall_bottom
    {
        type            fixedFluxPressure;
        gradient        nonuniform 0();
        value           nonuniform 0();
    }
    inlet
    {
        type            zeroGradient;
    }
    outlet
    {
        type            fixedValue;
        value           nonuniform 0();
    }
    procBoundary3to2
    {
        type            processor;
        value           nonuniform List<scalar> 
51
(
905811.0475
905811.0475
903471.4434
902475.2804
903010.2415
904723.9891
906816.9189
909185.1574
911834.6355
914740.568
917870.75
921197.7678
924698.5107
928353.3694
932146.2159
936064.4006
940098.3566
944241.8983
948491.1114
952845.0138
957304.7381
961872.9737
966554.1198
971353.7534
976277.9534
981333.4093
986526.9858
991865.1667
997353.9197
1002998.367
1008802.258
1014767.635
1020894.345
1027179.274
1033615.653
1040191.853
1046889.978
1053684.148
1060538.954
1067409.066
1074240.689
1080975.794
1087558.341
1093940.567
1100086.411
1105967.378
1111546.983
1116768.421
1121604.6
1126166.602
1130366.399
)
;
    }
    procBoundary3to4
    {
        type            processor;
        value           nonuniform List<scalar> 
51
(
1223521.527
1234040.856
1232366.28
1232866.329
1234254.85
1235847.48
1237663.171
1239710.387
1241962.619
1244394.534
1246984.012
1249710.051
1252552.918
1255494.381
1258517.517
1261607.362
1264750.457
1267935.246
1263620.39
1263620.39
1266905.453
1270204.773
1273512.976
1276825.882
1280140.429
1283454.459
1286766.64
1290076.235
1293382.976
1296686.951
1299988.296
1303287.081
1306582.989
1309874.845
1313160.15
1316434.153
1319688.809
1322911.892
1326086.431
1329190.986
1332201.96
1335097.044
1337859.057
1340478.594
1342954.643
1345292.286
1347498.158
1349582.183
1351587.644
1353612.034
1355538.305
)
;
    }
}


// ************************************************************************* //
