/*--------------------------------*- C++ -*----------------------------------*\
  =========                 |
  \\      /  F ield         | OpenFOAM: The Open Source CFD Toolbox
   \\    /   O peration     | Website:  https://openfoam.org
    \\  /    A nd           | Version:  7
     \\/     M anipulation  |
\*---------------------------------------------------------------------------*/
FoamFile
{
    version     2.0;
    format      ascii;
    class       surfaceScalarField;
    location    "0.0015";
    object      phi;
}
// * * * * * * * * * * * * * * * * * * * * * * * * * * * * * * * * * * * * * //

dimensions      [1 0 -1 0 0 0 0];

internalField   nonuniform List<scalar> 
2260
(
-2.920355769e-13
7.499022898e-11
-1.143443589e-12
2.191766157e-10
-2.514179882e-12
3.545266036e-10
-4.360497807e-12
4.809380796e-10
-6.635769199e-12
5.984063848e-10
-9.291665421e-12
7.069951047e-10
-1.227845456e-11
8.068188196e-10
-1.554561169e-11
8.980397489e-10
-1.904226285e-11
9.808598482e-10
-2.27176612e-11
1.055513094e-09
-2.652147729e-11
1.122258867e-09
-3.040410209e-11
1.181376452e-09
-3.431711673e-11
1.233160141e-09
-3.821360026e-11
1.277915049e-09
-4.204830358e-11
1.315953399e-09
-4.577802532e-11
1.347591424e-09
-4.936181849e-11
1.373146931e-09
1.392936904e-09
-2.968345016e-13
7.528706348e-11
-1.161890746e-12
2.20041672e-10
-2.553360047e-12
3.559180728e-10
-4.425063925e-12
4.828097835e-10
-6.727631035e-12
6.007089519e-10
-9.409641048e-12
7.096771147e-10
-1.241838997e-11
8.098275685e-10
-1.57003677e-11
9.013217267e-10
-1.920198628e-11
9.843614669e-10
-2.287004454e-11
1.059181153e-09
-2.665221916e-11
1.126041042e-09
-3.049739682e-11
1.18522163e-09
-3.435627979e-11
1.237019024e-09
-3.818140749e-11
1.281740177e-09
-4.192759895e-11
1.31969959e-09
-4.555233752e-11
1.351216162e-09
-4.901578301e-11
1.376610376e-09
-5.22811041e-11
1.396202225e-09
-5.531467201e-11
1.410309061e-09
-5.808594133e-11
1.419243521e-09
-6.056761962e-11
1.423312176e-09
-6.273568839e-11
1.422813994e-09
-6.456926996e-11
1.418038496e-09
-6.605056863e-11
1.409264273e-09
-6.716463815e-11
1.396757493e-09
-6.789930983e-11
1.38077021e-09
-6.824501121e-11
1.361538507e-09
-6.819447689e-11
1.33928064e-09
-6.774259083e-11
1.314194478e-09
-6.688632633e-11
1.286455296e-09
-6.562455061e-11
1.25621209e-09
-6.3957784e-11
1.223583641e-09
-6.188860675e-11
1.188653933e-09
-5.942170975e-11
1.151465606e-09
-5.656448911e-11
1.112012554e-09
-5.332787862e-11
1.070231309e-09
-4.97279072e-11
1.025991694e-09
-4.578757696e-11
9.790881973e-10
-4.153933407e-11
9.292351812e-10
-3.702818879e-11
8.760681286e-10
-3.231417687e-11
8.191529665e-10
-2.747501317e-11
7.58004513e-10
-2.260750945e-11
6.921108736e-10
-1.782846629e-11
6.209596446e-10
-1.327484505e-11
5.440629566e-10
-9.103180088e-12
4.60975236e-10
-5.488828973e-12
3.713053884e-10
-2.625056076e-12
2.747372746e-10
-7.213881115e-13
1.710753833e-10
6.023364329e-11
-3.047687467e-13
7.559183221e-11
-1.192602832e-12
2.20929506e-10
-2.619406035e-12
3.573448761e-10
-4.536052093e-12
4.847264295e-10
-6.889867525e-12
6.030627673e-10
-9.625730485e-12
7.124129777e-10
-1.268717173e-11
8.128890098e-10
-1.601708852e-11
9.046516439e-10
-1.95584658e-11
9.879028443e-10
-2.325502186e-11
1.062877708e-09
-2.705174093e-11
1.12983776e-09
-3.089550431e-11
1.189065394e-09
-3.47352414e-11
1.240858761e-09
-3.85224911e-11
1.285527426e-09
-4.22117392e-11
1.323388838e-09
-4.576052997e-11
1.354764953e-09
-4.912984253e-11
1.379979689e-09
-5.228400436e-11
1.399356387e-09
-5.519097056e-11
1.413216027e-09
-5.782225523e-11
1.421874805e-09
-6.015305085e-11
1.425642971e-09
-6.21619241e-11
1.424822867e-09
-6.383076423e-11
1.419707336e-09
-6.514469085e-11
1.4105782e-09
-6.609178477e-11
1.397704587e-09
-6.666282728e-11
1.381341253e-09
-6.685124411e-11
1.361726924e-09
-6.665255448e-11
1.33908195e-09
-6.60644159e-11
1.313606339e-09
-6.508630555e-11
1.285477186e-09
-6.371937711e-11
1.254845161e-09
-6.196662253e-11
1.221830886e-09
-5.983257921e-11
1.18651989e-09
-5.732381944e-11
1.148956847e-09
-5.444955862e-11
1.109138293e-09
-5.122239596e-11
1.067004146e-09
-4.765965412e-11
1.022428952e-09
-4.378558428e-11
9.752141271e-10
-3.963332367e-11
9.250829202e-10
-3.524786222e-11
8.716826672e-10
-3.068830821e-11
8.145934125e-10
-2.603014934e-11
7.533463542e-10
-2.136624671e-11
6.874469712e-10
-1.680754687e-11
6.164009448e-10
-1.248275005e-11
5.397381597e-10
-8.537588254e-12
4.570300741e-10
-5.133820637e-12
3.679016207e-10
-2.448150003e-12
2.720516038e-10
-6.703680031e-13
1.692976012e-10
5.956327504e-11
-3.156570018e-13
7.590748922e-11
-1.234877499e-12
2.218487265e-10
-2.710855138e-12
3.588208537e-10
-4.691136954e-12
4.867067113e-10
-7.119069572e-12
6.054907e-10
-9.935448167e-12
7.152293564e-10
-1.307947382e-11
8.160330355e-10
-1.64897807e-11
9.080619504e-10
-2.010532458e-11
9.915183879e-10
-2.38661494e-11
1.066638534e-09
-2.771399057e-11
1.133685602e-09
-3.159289191e-11
1.192944295e-09
-3.544957227e-11
1.244715441e-09
-3.923411144e-11
1.289311965e-09
-4.28998819e-11
1.327054609e-09
-4.640423059e-11
1.358269302e-09
-4.970820878e-11
1.383283667e-09
-5.277711671e-11
1.402425295e-09
-5.558020131e-11
1.416019112e-09
-5.809076476e-11
1.424385369e-09
-6.028609028e-11
1.427838297e-09
-6.214729636e-11
1.426684073e-09
-6.365909924e-11
1.421219138e-09
-6.480948477e-11
1.411728585e-09
-6.558961581e-11
1.398484718e-09
-6.59933858e-11
1.381745022e-09
-6.601717555e-11
1.361750714e-09
-6.565966677e-11
1.338724443e-09
-6.492155747e-11
1.31286823e-09
-6.380511371e-11
1.284360742e-09
-6.231418796e-11
1.253354235e-09
-6.045417123e-11
1.21997087e-09
-5.82321635e-11
1.184297882e-09
-5.565693844e-11
1.146381622e-09
-5.273959164e-11
1.106220946e-09
-4.949466081e-11
1.063759215e-09
-4.594109268e-11
1.018875384e-09
-4.210425433e-11
9.713772892e-10
-3.801817619e-11
9.209968425e-10
-3.372781791e-11
8.673923092e-10
-2.929149285e-11
8.101570876e-10
-2.478243242e-11
7.488372938e-10
-2.028983491e-11
6.829543736e-10
-1.591918396e-11
6.120302938e-10
-1.179162791e-11
5.356106038e-10
-8.043041028e-12
4.532814873e-10
-4.822924413e-12
3.64681504e-10
-2.293057194e-12
2.695217366e-10
-6.256275876e-13
1.676301714e-10
5.893764722e-11
-3.292117613e-13
7.623670097e-11
-1.287614384e-12
2.228071291e-10
-2.82538825e-12
3.603586276e-10
-4.886345501e-12
4.887676685e-10
-7.409522141e-12
6.080138765e-10
-1.033113972e-11
7.18150974e-10
-1.358571169e-11
8.192876075e-10
-1.710716599e-11
9.115834047e-10
-2.082992552e-11
9.952411474e-10
-2.468974995e-11
1.070498358e-09
-2.862457427e-11
1.137620426e-09
-3.257509229e-11
1.196894813e-09
-3.648540551e-11
1.248625755e-09
-4.030326538e-11
1.293129825e-09
-4.398069675e-11
1.33073204e-09
-4.747392349e-11
1.361762528e-09
-5.074398898e-11
1.386553732e-09
-5.375641666e-11
1.405437722e-09
-5.648138834e-11
1.418744083e-09
-5.889372705e-11
1.426797708e-09
-6.09726035e-11
1.429917174e-09
-6.270138175e-11
1.428412852e-09
-6.406733224e-11
1.422585089e-09
-6.506135895e-11
1.412722612e-09
-6.567765797e-11
1.399101017e-09
-6.591330804e-11
1.381980672e-09
-6.576792415e-11
1.36160533e-09
-6.524334949e-11
1.338199868e-09
-6.434333793e-11
1.311968219e-09
-6.30733063e-11
1.28309071e-09
-6.144025737e-11
1.251721186e-09
-5.945229063e-11
1.217982903e-09
-5.711905511e-11
1.181964647e-09
-5.445197084e-11
1.143714537e-09
-5.146447053e-11
1.103233446e-09
-4.817301403e-11
1.060467759e-09
-4.459850027e-11
1.015300871e-09
-4.076756701e-11
9.675463557e-10
-3.671526538e-11
9.169445407e-10
-3.2486636e-11
8.631636796e-10
-2.813926751e-11
8.058097192e-10
-2.374446362e-11
7.444424899e-10
-1.938806105e-11
6.785979709e-10
-1.517059775e-11
6.078128304e-10
-1.120636362e-11
5.316463694e-10
-7.622497778e-12
4.496976213e-10
-4.557608508e-12
3.616166146e-10
-2.160314245e-12
2.671244421e-10
-5.87231727e-13
1.660570888e-10
5.83504154e-11
-3.450221054e-13
7.658172314e-11
-1.349226101e-12
2.238113332e-10
-2.959541439e-12
3.61968943e-10
-5.115774301e-12
4.909239016e-10
-7.752593509e-12
6.106506958e-10
-1.080129196e-11
7.211996724e-10
-1.419141061e-11
8.226777261e-10
-1.785190295e-11
9.152438971e-10
-2.171230899e-11
9.991015534e-10
-2.570374872e-11
1.074489798e-09
-2.975993792e-11
1.141676615e-09
-3.381775079e-11
1.200952625e-09
-3.781794508e-11
1.252625949e-09
-4.170562306e-11
1.297017503e-09
-4.543069898e-11
1.334457116e-09
-4.894806353e-11
1.365279892e-09
-5.221780071e-11
1.38982347e-09
-5.520546594e-11
1.408425388e-09
-5.78815895e-11
1.421420206e-09
-6.022195421e-11
1.429138072e-09
-6.220728837e-11
1.431902508e-09
-6.382298481e-11
1.430028548e-09
-6.505860387e-11
1.423820708e-09
-6.590778459e-11
1.413571793e-09
-6.636755653e-11
1.399560789e-09
-6.643812224e-11
1.382051238e-09
-6.612240052e-11
1.361289608e-09
-6.542552646e-11
1.337502993e-09
-6.435458266e-11
1.310897275e-09
-6.291826791e-11
1.281654396e-09
-6.112660052e-11
1.249929519e-09
-5.8991064e-11
1.215847367e-09
-5.652415563e-11
1.179497739e-09
-5.373993962e-11
1.140930321e-09
-5.065465249e-11
1.100148159e-09
-4.728700507e-11
1.057100111e-09
-4.365987654e-11
1.011673742e-09
-3.980167871e-11
9.636881582e-10
-3.57483789e-11
9.128912408e-10
-3.154552654e-11
8.589608272e-10
-2.725010725e-11
8.015142997e-10
-2.293176796e-11
7.401241504e-10
-1.867354894e-11
6.743397518e-10
-1.457155178e-11
6.037108329e-10
-1.073416715e-11
5.278089844e-10
-7.280888534e-12
4.462443424e-10
-4.340897983e-12
3.586766238e-10
-2.051397549e-12
2.648349415e-10
-5.556270237e-13
1.645613183e-10
5.779478856e-11
-3.624818209e-13
7.694420494e-11
-1.417342251e-12
2.248661936e-10
-3.108150288e-12
3.63659751e-10
-5.370758919e-12
4.9318651e-10
-8.135352079e-12
6.134152888e-10
-1.132844525e-11
7.243927655e-10
-1.487450182e-11
8.262237826e-10
-1.869737778e-11
9.190667729e-10
-2.272160857e-11
1.003125784e-09
-2.687352388e-11
1.078641713e-09
-3.10822008e-11
1.145885292e-09
-3.528035038e-11
1.205150775e-09
-3.940501483e-11
1.256750613e-09
-4.339818371e-11
1.301010672e-09
-4.720705158e-11
1.338265984e-09
-5.078460484e-11
1.368857446e-09
-5.408960919e-11
1.393128474e-09
-5.708664959e-11
1.411422428e-09
-5.974630547e-11
1.424079862e-09
-6.204485303e-11
1.43143662e-09
-6.396401677e-11
1.433821671e-09
-6.54905956e-11
1.431555127e-09
-6.661622138e-11
1.424946334e-09
-6.733688609e-11
1.414292458e-09
-6.765237448e-11
1.399876278e-09
-6.756582908e-11
1.381964693e-09
-6.708328814e-11
1.360807067e-09
-6.621317591e-11
1.336632881e-09
-6.496600174e-11
1.309650101e-09
-6.335391313e-11
1.280042307e-09
-6.139027625e-11
1.247965882e-09
-5.908974213e-11
1.213546833e-09
-5.646825387e-11
1.17687625e-09
-5.354287519e-11
1.138004943e-09
-5.033256238e-11
1.096937846e-09
-4.685887827e-11
1.053626427e-09
-4.314684253e-11
1.007961706e-09
-3.922689935e-11
9.597682148e-10
-3.513624782e-11
9.088005894e-10
-3.092119057e-11
8.547457699e-10
-2.663845438e-11
7.972315633e-10
-2.235646329e-11
7.35842159e-10
-1.815593356e-11
6.701392216e-10
-1.412933484e-11
5.996842339e-10
-1.038013744e-11
5.240597867e-10
-7.021424813e-12
4.428856294e-10
-4.174472052e-12
3.558296709e-10
-1.966950913e-12
2.626274205e-10
-5.309034937e-13
1.631252711e-10
5.726388554e-11
-3.807431605e-13
7.732494811e-11
-1.48868806e-12
2.259741385e-10
-3.264175978e-12
3.65435239e-10
-5.639367125e-12
4.955617014e-10
-8.540126395e-12
6.163160483e-10
-1.188849984e-11
7.27741139e-10
-1.560420234e-11
8.299394853e-10
-1.960620959e-11
9.230687804e-10
-2.381411498e-11
1.00733369e-09
-2.81494211e-11
1.082977019e-09
-3.253658778e-11
1.150272459e-09
-3.690397543e-11
1.209518163e-09
-4.118463585e-11
1.261031274e-09
-4.53168398e-11
1.305142876e-09
-4.924483774e-11
1.342193982e-09
-5.291892816e-11
1.372531537e-09
-5.629593011e-11
1.396505476e-09
-5.933908871e-11
1.414465586e-09
-6.201812128e-11
1.426758895e-09
-6.43090957e-11
1.433727595e-09
-6.619420002e-11
1.435706776e-09
-6.766120606e-11
1.433022133e-09
-6.870318617e-11
1.425988314e-09
-6.931798469e-11
1.414907256e-09
-6.950762629e-11
1.400065919e-09
-6.927809361e-11
1.38173516e-09
-6.863833595e-11
1.36016731e-09
-6.759998444e-11
1.33559453e-09
-6.617679492e-11
1.308226911e-09
-6.438430176e-11
1.278249814e-09
-6.223955432e-11
1.245821135e-09
-5.976058579e-11
1.211067864e-09
-5.696662742e-11
1.174082292e-09
-5.387826772e-11
1.134916583e-09
-5.051750986e-11
1.093577089e-09
-4.690885804e-11
1.050017775e-09
-4.307997627e-11
1.004132824e-09
-3.906342618e-11
9.557516642e-10
-3.48981814e-11
9.046353441e-10
-3.063150395e-11
8.504790919e-10
-2.632029153e-11
7.929203502e-10
-2.203238845e-11
7.315542554e-10
-1.784675588e-11
6.659535887e-10
-1.385313042e-11
5.956906081e-10
-1.015109671e-11
5.203577528e-10
-6.848775051e-12
4.395833077e-10
-4.061155562e-12
3.530420515e-10
-1.90836636e-12
2.604746315e-10
-5.134748975e-13
1.6173038e-10
5.675041136e-11
-3.986675118e-13
7.772361561e-11
-1.558836184e-12
2.271343071e-10
-3.418019392e-12
3.672944221e-10
-5.905106245e-12
4.980487882e-10
-8.942470308e-12
6.193534124e-10
-1.244815583e-11
7.312468246e-10
-1.633781988e-11
8.338291493e-10
-2.052614027e-11
9.272571008e-10
-2.492828601e-11
1.011735835e-09
-2.946127579e-11
1.087510009e-09
-3.404520013e-11
1.154856383e-09
-3.860405546e-11
1.214077019e-09
-4.30666715e-11
1.26549389e-09
-4.736756273e-11
1.309443767e-09
-5.144735111e-11
1.34627377e-09
-5.525332166e-11
1.376337507e-09
-5.87395956e-11
1.39999175e-09
-6.186734413e-11
1.417593335e-09
-6.460478505e-11
1.429496336e-09
-6.692700798e-11
1.436049818e-09
-6.881573557e-11
1.437595504e-09
-7.025892115e-11
1.434465318e-09
-7.125048234e-11
1.426979875e-09
-7.178951249e-11
1.415446286e-09
-7.18798662e-11
1.400156273e-09
-7.152955183e-11
1.381384846e-09
-7.075006742e-11
1.359387825e-09
-6.955606848e-11
1.334400531e-09
-6.796447227e-11
1.306635315e-09
-6.599411119e-11
1.276279453e-09
-6.366541865e-11
1.243492442e-09
-6.100018445e-11
1.208402629e-09
-5.802107417e-11
1.171103181e-09
-5.475215332e-11
1.131647662e-09
-5.121893668e-11
1.090043872e-09
-4.744897076e-11
1.046247809e-09
-4.347303742e-11
1.000156891e-09
-3.932611184e-11
9.516047387e-10
-3.504930383e-11
9.003585358e-10
-3.069119846e-11
8.461209864e-10
-2.630951103e-11
7.885386631e-10
-2.197201791e-11
7.272167625e-10
-1.775674606e-11
6.61738317e-10
-1.375167856e-11
5.916855409e-10
-1.00537676e-11
5.166598421e-10
-6.767627555e-12
4.362971679e-10
-4.003787033e-12
3.502782114e-10
-1.876913096e-12
2.583477581e-10
-5.036284338e-13
1.603570959e-10
5.624678356e-11
-4.14729602e-13
7.813834528e-11
-1.621848038e-12
2.283414257e-10
-3.556678439e-12
3.692292526e-10
-6.145792159e-12
5.006379019e-10
-9.309142508e-12
6.225167626e-10
-1.296204469e-11
7.348997267e-10
-1.701710175e-11
8.378842063e-10
-2.13857472e-11
9.316257461e-10
-2.597970993e-11
1.016329798e-09
-3.071235885e-11
1.092242658e-09
-3.54997862e-11
1.159643811e-09
-4.026205844e-11
1.218839291e-09
-4.492410265e-11
1.270155934e-09
-4.941643972e-11
1.313936104e-09
-5.367586888e-11
1.350533199e-09
-5.764605695e-11
1.380307695e-09
-6.127801399e-11
1.403623707e-09
-6.452992613e-11
1.420845247e-09
-6.73675763e-11
1.432333986e-09
-6.976422415e-11
1.438446465e-09
-7.170025588e-11
1.439531535e-09
-7.316285793e-11
1.43592792e-09
-7.41457028e-11
1.42796272e-09
-7.464826604e-11
1.41594885e-09
-7.467548843e-11
1.400183496e-09
-7.423678621e-11
1.380946144e-09
-7.334567181e-11
1.358496711e-09
-7.201906092e-11
1.33307392e-09
-7.027669659e-11
1.304892951e-09
-6.814060909e-11
1.274143365e-09
-6.563442447e-11
1.240986257e-09
-6.278338032e-11
1.205551585e-09
-5.961396404e-11
1.167933765e-09
-5.615364724e-11
1.128187345e-09
-5.243167851e-11
1.086321903e-09
-4.847899296e-11
1.042295123e-09
-4.43295974e-11
9.960074947e-10
-4.002138135e-11
9.472965221e-10
-3.559793878e-11
8.959350932e-10
-3.110979314e-11
8.416328409e-10
-2.661596278e-11
7.840448325e-10
-2.21848814e-11
7.227856811e-10
-1.789457057e-11
6.574480064e-10
-1.383236951e-11
5.876233403e-10
-1.009404923e-11
5.129215225e-10
-6.782309341e-12
4.329854288e-10
-4.005185059e-12
3.475010876e-10
-1.874197957e-12
2.562167713e-10
-5.01974254e-13
1.589848724e-10
5.574480938e-11
-4.268884516e-13
7.856523372e-11
-1.669764609e-12
2.295843018e-10
-3.662852906e-12
3.712223408e-10
-6.331954505e-12
5.033070035e-10
-9.596028738e-12
6.25780837e-10
-1.336950133e-11
7.386731993e-10
-1.756373788e-11
8.420784428e-10
-2.208859555e-11
9.361506039e-10
-2.685383455e-11
1.021095037e-09
-3.17704481e-11
1.097159271e-09
-3.675174901e-11
1.164625111e-09
-4.171471505e-11
1.223802256e-09
-4.658073786e-11
1.275021957e-09
-5.12765748e-11
1.318631941e-09
-5.573522362e-11
1.354991848e-09
-5.989647224e-11
1.384468944e-09
-6.370728663e-11
1.407434521e-09
-6.712238466e-11
1.424260345e-09
-7.010416884e-11
1.43531577e-09
-7.262288355e-11
1.44096518e-09
-7.465631095e-11
1.441564962e-09
-7.618981177e-11
1.437461421e-09
-7.721565179e-11
1.42898856e-09
-7.773255685e-11
1.416465755e-09
-7.774519661e-11
1.400196135e-09
-7.726352578e-11
1.380464473e-09
-7.63022287e-11
1.357535414e-09
-7.487980506e-11
1.331651496e-09
-7.301807109e-11
1.303031216e-09
-7.074157023e-11
1.271866864e-09
-6.80770972e-11
1.238321784e-09
-6.505297063e-11
1.202527459e-09
-6.169916103e-11
1.164579955e-09
-5.804695463e-11
1.124535138e-09
-5.412903846e-11
1.082403986e-09
-4.998021112e-11
1.038146296e-09
-4.563781713e-11
9.916651005e-10
-4.114314598e-11
9.428018511e-10
-3.654257634e-11
8.913345238e-10
-3.18891108e-11
8.369793757e-10
-2.724384173e-11
7.793995643e-10
-2.267660799e-11
7.182184482e-10
-1.826642357e-11
6.530378227e-10
-1.410125457e-11
5.834581721e-10
-1.027712472e-11
5.090973935e-10
-6.89671963e-12
4.296050245e-10
-4.067713548e-12
3.44672082e-10
-1.901026154e-12
2.54050084e-10
-5.084107444e-13
1.575922567e-10
5.523639779e-11
-4.324739288e-13
7.899770765e-11
-1.692186394e-12
2.308440142e-10
-3.713911657e-12
3.732440661e-10
-6.424637196e-12
5.06017729e-10
-9.744827164e-12
6.291010268e-10
-1.35903172e-11
7.425186892e-10
-1.787382262e-11
8.463619482e-10
-2.250609231e-11
9.407828735e-10
-2.739723688e-11
1.025986182e-09
-3.245791992e-11
1.102219954e-09
-3.76005436e-11
1.169767735e-09
-4.274021579e-11
1.228941929e-09
-4.779579045e-11
1.280077532e-09
-5.269111069e-11
1.323527262e-09
-5.735544997e-11
1.359656188e-09
-6.172462683e-11
1.388838121e-09
-6.574129477e-11
1.411451189e-09
-6.935567962e-11
1.42787473e-09
-7.252582078e-11
1.438485911e-09
-7.521780909e-11
1.443657168e-09
-7.740554098e-11
1.443752694e-09
-7.907087507e-11
1.439126755e-09
-8.020305403e-11
1.430120739e-09
-8.079868195e-11
1.417061382e-09
-8.086079727e-11
1.40025825e-09
-8.039844519e-11
1.380002121e-09
-7.94259949e-11
1.356562963e-09
-7.796249897e-11
1.330188e-09
-7.603098639e-11
1.301099704e-09
-7.365770711e-11
1.269493585e-09
-7.087165257e-11
1.235535729e-09
-6.770411738e-11
1.199359923e-09
-6.418799873e-11
1.161063837e-09
-6.03581947e-11
1.120705334e-09
-5.625095182e-11
1.078296744e-09
-5.190482036e-11
1.033800165e-09
-4.736080538e-11
9.871210866e-10
-4.266383347e-11
9.381048803e-10
-3.786358356e-11
8.865342748e-10
-3.301614339e-11
8.32131936e-10
-2.818523812e-11
7.745686599e-10
-2.344310051e-11
7.134763119e-10
-1.887091647e-11
6.484656399e-10
-1.455872038e-11
5.791459771e-10
-1.060449199e-11
5.051431659e-10
-7.112865077e-12
4.261133979e-10
-4.193607654e-12
3.417528247e-10
-1.959663356e-12
2.518161395e-10
-5.244309708e-13
1.561570234e-10
5.471196497e-11
-4.280464421e-13
7.942575407e-11
-1.67570074e-12
2.320916686e-10
-3.68049378e-12
3.752488592e-10
-6.373341094e-12
5.087105764e-10
-9.679483999e-12
6.324071699e-10
-1.351962047e-11
7.46358826e-10
-1.781115812e-11
8.50653486e-10
-2.246918389e-11
9.454408993e-10
-2.740743418e-11
1.030924432e-09
-3.253923478e-11
1.107351755e-09
-3.777854551e-11
1.175007046e-09
-4.304087285e-11
1.234204256e-09
-4.824456093e-11
1.28528122e-09
-5.331138881e-11
1.328594089e-09
-5.816792379e-11
1.364512722e-09
-6.274603941e-11
1.393416236e-09
-6.6983982e-11
1.415689131e-09
-7.082686787e-11
1.431717616e-09
-7.422732006e-11
1.441886364e-09
-7.714575238e-11
1.446575601e-09
-7.955067821e-11
1.44615762e-09
-8.141866221e-11
1.440994739e-09
-8.273423825e-11
1.431436315e-09
-8.348956756e-11
1.417816712e-09
-8.368415566e-11
1.400452838e-09
-8.332440068e-11
1.379642365e-09
-8.242260156e-11
1.355661164e-09
-8.099667042e-11
1.328762069e-09
-7.906936683e-11
1.2991724e-09
-7.666741548e-11
1.267091634e-09
-7.382107527e-11
1.23268939e-09
-7.056348921e-11
1.196102338e-09
-6.693022061e-11
1.157430569e-09
-6.295892206e-11
1.116734036e-09
-5.868946372e-11
1.074027286e-09
-5.416380625e-11
1.029274508e-09
-4.942688739e-11
9.823841681e-10
-4.452730634e-11
9.332052995e-10
-3.951842905e-11
8.815253983e-10
-3.446002849e-11
8.270735368e-10
-2.941914352e-11
7.695277757e-10
-2.447131301e-11
7.08528482e-10
-1.97010929e-11
6.436954205e-10
-1.520194322e-11
5.746468278e-10
-1.107556347e-11
5.010167864e-10
-7.430766802e-12
4.224686013e-10
-4.382036873e-12
3.387040943e-10
-2.047723962e-12
2.494818255e-10
-5.476770103e-13
1.54656975e-10
5.416428563e-11
-4.092242759e-13
7.983497843e-11
-1.603167863e-12
2.332856122e-10
-3.525071882e-12
3.771707633e-10
-6.113579866e-12
5.112990844e-10
-9.302675675e-12
6.355962656e-10
-1.302248439e-11
7.500786347e-10
-1.719975358e-11
8.548307553e-10
-2.17584549e-11
9.499996007e-10
-2.662031022e-11
1.035786287e-09
-3.17054263e-11
1.112436871e-09
-3.693308668e-11
1.180234706e-09
-4.222266958e-11
1.239493839e-09
-4.749431919e-11
1.290552869e-09
-5.267020347e-11
1.333769974e-09
-5.767528453e-11
1.369517803e-09
-6.243867677e-11
1.398179629e-09
-6.689418047e-11
1.420144636e-09
-7.098141976e-11
1.435804855e-09
-7.464675613e-11
1.4455517e-09
-7.784353871e-11
1.449772383e-09
-8.053297442e-11
1.448847056e-09
-8.26842184e-11
1.443145983e-09
-8.427478098e-11
1.433026877e-09
-8.529000615e-11
1.418831937e-09
-8.572338348e-11
1.400886216e-09
-8.557575996e-11
1.379494742e-09
-8.485529466e-11
1.354940699e-09
-8.357646931e-11
1.327483244e-09
-8.175948805e-11
1.297355419e-09
-7.942986066e-11
1.264762006e-09
-7.661746544e-11
1.229876994e-09
-7.33558512e-11
1.192840724e-09
-6.96821174e-11
1.153756835e-09
-6.563600332e-11
1.112687923e-09
-6.126010978e-11
1.069651393e-09
-5.65996461e-11
1.024614045e-09
-5.170324217e-11
9.77487765e-10
-4.662324472e-11
9.281253029e-10
-4.141711378e-11
8.763192679e-10
-3.614861587e-11
8.218050392e-10
-3.088900135e-11
7.642681615e-10
-2.571812404e-11
7.03357605e-10
-2.072523308e-11
6.387025295e-10
-1.600897054e-11
5.699305648e-10
-1.167688613e-11
4.966847012e-10
-7.844488716e-12
4.18636203e-10
-4.633767746e-12
3.354933723e-10
-2.171096424e-12
2.470191528e-10
-5.837882429e-13
1.530696654e-10
5.358049564e-11
-3.705131511e-13
8.020549156e-11
-1.453123435e-12
2.343682225e-10
-3.200663031e-12
3.789183028e-10
-5.564167778e-12
5.13662589e-10
-8.491702428e-12
6.385238003e-10
-1.192836098e-11
7.535152932e-10
-1.581618239e-11
8.587185766e-10
-2.009395282e-11
9.542773711e-10
-2.469719303e-11
1.040389527e-09
-2.955836235e-11
1.11729804e-09
-3.460726607e-11
1.18528361e-09
-3.977145808e-11
1.244658031e-09
-4.497711657e-11
1.295758527e-09
-5.014989216e-11
1.338942749e-09
-5.521597422e-11
1.374583886e-09
-6.010299048e-11
1.403066645e-09
-6.474148388e-11
1.424783129e-09
-6.906569796e-11
1.440129069e-09
-7.301486765e-11
1.449500869e-09
-7.653420977e-11
1.453291725e-09
-7.957570595e-11
1.451888552e-09
-8.209878201e-11
1.445669059e-09
-8.407079358e-11
1.434998889e-09
-8.546752469e-11
1.420228668e-09
-8.627309377e-11
1.401691785e-09
-8.647980223e-11
1.37970145e-09
-8.608805938e-11
1.354548956e-09
-8.510583652e-11
1.326501021e-09
-8.354817058e-11
1.295797754e-09
-8.143637881e-11
1.262650215e-09
-7.879760785e-11
1.227238224e-09
-7.566400968e-11
1.189707126e-09
-7.20720809e-11
1.150164907e-09
-6.806243689e-11
1.10867828e-09
-6.367919552e-11
1.065268152e-09
-5.897008944e-11
1.019904939e-09
-5.398668284e-11
9.725043587e-10
-4.878491384e-11
9.22923534e-10
-4.342626067e-11
8.709606146e-10
-3.797867454e-11
8.163574525e-10
-3.251797688e-11
7.588074627e-10
-2.712913147e-11
6.979687582e-10
-2.190705506e-11
6.334804515e-10
-1.695685592e-11
5.649803639e-10
-1.239376015e-11
4.921216038e-10
-8.342322651e-12
4.145847639e-10
-4.935487992e-12
3.320865362e-10
-2.313114257e-12
2.443967781e-10
-6.201685417e-13
1.513767192e-10
5.296032735e-11
-3.052345913e-13
8.051072617e-11
-1.19942637e-12
2.352624143e-10
-2.649834151e-12
3.803687107e-10
-4.625546338e-12
5.156383015e-10
-7.095340636e-12
6.409935947e-10
-1.002625798e-11
7.564462105e-10
-1.338283716e-11
8.620751558e-10
-1.712611285e-11
9.580206468e-10
-2.121281732e-11
1.044476232e-09
-2.559490966e-11
1.121680133e-09
-3.021937839e-11
1.189908079e-09
-3.502835142e-11
1.249467004e-09
-3.995976188e-11
1.300689938e-09
-4.494748677e-11
1.343930474e-09
-4.99228693e-11
1.379559268e-09
-5.481533209e-11
1.407959108e-09
-5.955383575e-11
1.429521632e-09
-6.406849989e-11
1.444643733e-09
-6.829157133e-11
1.453723941e-09
-7.215900186e-11
1.457159156e-09
-7.561173582e-11
1.455341286e-09
-7.85970999e-11
1.448654423e-09
-8.106931467e-11
1.437471104e-09
-8.299067839e-11
1.422150032e-09
-8.433188383e-11
1.40303299e-09
-8.50725931e-11
1.38044216e-09
-8.520123396e-11
1.354677597e-09
-8.471494944e-11
1.326014737e-09
-8.361936728e-11
1.294702172e-09
-8.192796114e-11
1.260958809e-09
-7.966145278e-11
1.224971716e-09
-7.684745411e-11
1.186893128e-09
-7.351929635e-11
1.14683675e-09
-6.971596968e-11
1.104874953e-09
-6.548123921e-11
1.061033422e-09
-6.086394803e-11
1.015287648e-09
-5.591755887e-11
9.675579692e-10
-5.070103407e-11
9.177070086e-10
-4.527954335e-11
8.655391228e-10
-3.972535084e-11
8.108032587e-10
-3.411957694e-11
7.532016873e-10
-2.855322918e-11
6.924024081e-10
-2.312836208e-11
6.280555818e-10
-1.795867353e-11
5.598106726e-10
-1.31696072e-11
4.873325348e-10
-8.897791175e-12
4.103129456e-10
-5.28966567e-12
3.284784093e-10
-2.498841512e-12
2.416059538e-10
-6.809592836e-13
1.495588382e-10
5.227937126e-11
-2.055011955e-13
8.071622737e-11
-8.111327686e-13
2.358680458e-10
-1.804367795e-12
3.813619456e-10
-3.179305681e-12
5.170132391e-10
-4.932955248e-12
6.427472442e-10
-7.062679513e-12
7.585759349e-10
-9.564222794e-12
8.645766991e-10
-1.242978284e-11
9.608862068e-10
-1.564629413e-11
1.047692743e-09
-1.91941689e-11
1.125228007e-09
-2.304636643e-11
1.193760276e-09
-2.716804172e-11
1.25358868e-09
-3.15160935e-11
1.30503799e-09
-3.603997921e-11
1.34845436e-09
-4.068184092e-11
1.384201129e-09
-4.537797318e-11
1.41265524e-09
-5.005976716e-11
1.434203427e-09
-5.465540533e-11
1.449239372e-09
-5.909158279e-11
1.458160118e-09
-6.329517159e-11
1.461362745e-09
-6.719502419e-11
1.459241139e-09
-7.072370743e-11
1.452183107e-09
-7.381927495e-11
1.440566672e-09
-7.642659616e-11
1.424757353e-09
-7.849830179e-11
1.405104696e-09
-7.999595478e-11
1.381939813e-09
-8.089062045e-11
1.355572263e-09
-8.116319683e-11
1.326287313e-09
-8.080419799e-11
1.294343173e-09
-7.981401721e-11
1.259968629e-09
-7.820213499e-11
1.223359834e-09
-7.598661351e-11
1.184677606e-09
-7.319376092e-11
1.144043897e-09
-6.985711539e-11
1.101538307e-09
-6.601723611e-11
1.057193542e-09
-6.172102961e-11
1.01099144e-09
-5.702181658e-11
9.62858755e-10
-5.197978501e-11
9.126649755e-10
-4.666212447e-11
8.602214602e-10
-4.114455078e-11
8.052856826e-10
-3.551244266e-11
7.475695764e-10
-2.986234054e-11
6.867523031e-10
-2.430318519e-11
6.224964237e-10
-1.89574216e-11
5.544649063e-10
-1.396160237e-11
4.823367132e-10
-9.46662973e-12
4.058179715e-10
-5.637762219e-12
3.246495416e-10
-2.654684577e-12
2.386228775e-10
-7.121567798e-13
1.476163137e-10
5.15672206e-11
-6.23554819e-14
8.077858288e-11
-2.530602274e-13
2.360587507e-10
-5.86624738e-13
3.816955102e-10
-1.09003519e-12
5.175166497e-10
-1.79713493e-12
6.43454344e-10
-2.744886294e-12
7.595236862e-10
-3.970169116e-12
8.658019818e-10
-5.506675962e-12
9.624227136e-10
-7.382155111e-12
1.049568222e-09
-9.61625463e-12
1.127462107e-09
-1.221864597e-11
1.196362668e-09
-1.518767839e-11
1.256557712e-09
-1.85097032e-11
1.308360015e-09
-2.215879325e-11
1.35210345e-09
-2.609684854e-11
1.388139185e-09
-3.027428337e-11
1.416832675e-09
-3.463134868e-11
1.438560492e-09
-3.90993756e-11
1.453707399e-09
-4.360275951e-11
1.462663502e-09
-4.806107611e-11
1.465821062e-09
-5.239146956e-11
1.463571532e-09
-5.65106333e-11
1.45630227e-09
-6.033737483e-11
1.444393413e-09
-6.379483334e-11
1.428214812e-09
-6.681262933e-11
1.408122492e-09
-6.932799769e-11
1.384455182e-09
-7.128768164e-11
1.357531947e-09
-7.264886013e-11
1.327648492e-09
-7.33797537e-11
1.295074067e-09
-7.34598906e-11
1.260048766e-09
-7.288033429e-11
1.222780277e-09
-7.164307286e-11
1.183440344e-09
-6.97609272e-11
1.14216175e-09
-6.725662254e-11
1.099034002e-09
-6.416254265e-11
1.054099461e-09
-6.05198772e-11
1.007348773e-09
-5.637871629e-11
9.587175922e-10
-5.179782096e-11
9.08084078e-10
-4.684514025e-11
8.552687772e-10
-4.159886612e-11
8.00039406e-10
-3.614866182e-11
7.421193698e-10
-3.059729356e-11
6.812009328e-10
-2.506217477e-11
6.169613029e-10
-1.967694574e-11
5.490796759e-10
-1.459232569e-11
4.772520923e-10
-9.975948124e-12
4.012015939e-10
-6.010880437e-12
3.206844751e-10
-2.891154392e-12
2.355031544e-10
-8.119747046e-13
1.455371387e-10
5.075525328e-11
1.337224938e-13
8.064486039e-11
5.122690473e-13
2.356802041e-10
1.086435148e-12
3.811213442e-10
1.788039351e-12
5.168150455e-10
2.536991021e-12
6.427053923e-10
3.246851201e-12
7.58813826e-10
3.829064341e-12
8.652197687e-10
4.19722991e-12
9.620545481e-10
4.271004185e-12
1.049494448e-09
3.979417064e-12
1.127753694e-09
3.263720594e-12
1.197078364e-09
2.079565976e-12
1.257741866e-09
3.98567213e-13
1.310041014e-09
-1.790199811e-12
1.354292217e-09
-4.480246079e-12
1.390829232e-09
-7.647198988e-12
1.419999628e-09
-1.124973625e-11
1.442163029e-09
-1.523108829e-11
1.457688751e-09
-1.952037112e-11
1.466952785e-09
-2.403493414e-11
1.470335625e-09
-2.868311095e-11
1.468219709e-09
-3.336704647e-11
1.460986206e-09
-3.798557645e-11
1.449011943e-09
-4.243726444e-11
1.4326665e-09
-4.662348578e-11
1.412308714e-09
-5.045128401e-11
1.38828298e-09
-5.383542166e-11
1.360916085e-09
-5.67006298e-11
1.3305137e-09
-5.89834395e-11
1.297356876e-09
-6.063287927e-11
1.261698205e-09
-6.16115583e-11
1.223758956e-09
-6.189583461e-11
1.18372462e-09
-6.147563787e-11
1.141741552e-09
-6.035420479e-11
1.097912567e-09
-5.85474411e-11
1.052292695e-09
-5.608342032e-11