/*--------------------------------*- C++ -*----------------------------------*\
  =========                 |
  \\      /  F ield         | OpenFOAM: The Open Source CFD Toolbox
   \\    /   O peration     | Website:  https://openfoam.org
    \\  /    A nd           | Version:  7
     \\/     M anipulation  |
\*---------------------------------------------------------------------------*/
FoamFile
{
    version     2.0;
    format      ascii;
    class       volScalarField;
    location    "0.0015";
    object      rho;
}
// * * * * * * * * * * * * * * * * * * * * * * * * * * * * * * * * * * * * * //

dimensions      [1 -3 0 0 0 0 0];

internalField   nonuniform List<scalar> 
1167
(
944.4974153
944.4145833
944.2366396
943.9726536
943.6273445
943.204211
942.706653
942.1380417
941.5013815
940.7999149
940.0370239
939.2163344
938.3414414
937.4161671
936.4448818
935.4314398
934.3805343
933.2962541
944.3170288
944.2328906
944.0521688
943.7843698
943.4338965
943.0048789
942.5006325
941.9246145
941.2801932
940.5708021
939.7999857
938.9713748
938.0888496
937.1566441
936.1787979
935.1597748
934.1038669
933.0158123
931.8999806
930.7608466
929.6028656
928.4304474
927.2477139
926.0586037
924.8669581
923.6763262
922.4900135
921.3111556
920.1424525
918.9864512
917.8453914
916.7212286
915.6157886
914.5304624
913.4664309
912.4248174
911.4064863
910.4118761
909.4416034
908.4958669
907.5748642
906.6785444
905.8069412
904.959647
904.1365774
903.3372354
902.5610563
901.8075666
901.0761446
900.3660617
944.1347181
944.0492895
943.8660322
943.5942746
943.2388728
942.8039279
942.2931572
941.7100303
941.0581046
940.3410121
939.5624487
938.7262568
937.836718
936.8978026
935.913975
934.8896886
933.8295285
932.7379697
931.6198266
930.4794895
929.3213469
928.1498275
926.9691298
925.7832319
924.5958547
923.4104795
922.2303735
921.0585411
919.8976709
918.750357
917.6186728
916.5044738
915.4093997
914.3349477
913.2822384
912.2521974
911.2456666
910.263129
909.304921
908.3714666
907.4626682
906.5786561
905.7192208
904.8840574
904.0730407
903.2855861
902.5211538
901.7792915
901.0592965
900.3604707
943.9506483
943.8640522
943.6781128
943.4024207
943.0422548
942.6015071
942.0842307
941.4941583
940.8349305
940.1103757
939.324398
938.4811552
937.5847256
936.6395358
935.6501573
934.6210653
933.5569574
932.4625838
931.3424886
930.2012383
929.0434436
927.8733713
926.6951518
925.5127161
924.3298215
923.1499356
921.9763058
920.811783
919.6589952
918.520353
917.3979597
916.2937134
915.2090773
914.145351
913.1037392
912.0851489
911.0901288
910.1193915
909.1730195
908.2514617
907.3545416
906.4824439
905.6347878
904.8113967
904.0119639
903.2359661
902.482841
901.752158
901.0431375
900.3551119
943.7649212
943.6770628
943.488446
943.2090551
942.8439983
942.3976793
941.8740607
941.2771067
940.6107645
939.879034
939.0859423
938.23573
937.3327675
936.3817708
935.3870528
934.3536611
933.2860383
932.1890837
931.0675851
929.9259554
928.7687566
927.6003803
926.4250106
925.2464693
924.0684457
922.8942975
921.7272326
920.5700987
919.4255299
918.2957495
917.1827663
916.088306
915.014038
913.961056
912.9303569
911.9230099
910.9394364
909.9801246
909.045402
908.1353871
907.2501198
906.3895254
905.553303
904.7413205
903.9530974
903.1881712
902.4459718
901.7260529
901.0275999
900.3499627
943.5774767
943.488367
943.2971782
943.0140986
942.6442196
942.1923506
941.6625623
941.0589521
940.3856707
939.6468744
938.846808
937.9899466
937.0809067
936.1241738
935.1247164
934.0871092
933.0164433
931.9173865
930.7946598
929.6529887
928.4968776
927.330635
926.1583183
924.9838533
923.810931
922.6428099
921.4825988
920.3330509
919.1966779
918.0757703
916.9722643
915.8877477
914.8236662
913.781326
912.7615652
911.7651915
910.792891
909.8448169
908.9215068
908.0227886
907.1489033
906.2995257
905.4744825
904.6735398
903.8961961
903.1420009
902.410404
901.7008653
901.0126173
900.3450011
943.3883891
943.2981174
943.1044586
942.8175651
942.4431079
941.9856252
941.4497104
940.8395653
940.1594906
939.4138036
938.6070824
937.74389
936.8288203
935.8668458
934.8627165
933.8214675
932.747859
931.6470258
930.5235738
929.3821136
928.2272513
927.063429
925.8945607
924.724527
923.556875
922.3948781
921.2416347
920.099834
918.9718841
917.8599163
916.7657935
915.6912295
914.6374515
913.6055435
912.5966343
911.6112295
910.6499494
909.713065
908.800856
907.9133051
907.0504874
906.2120795
905.3979782
904.6077725
903.8410211
903.0972596
902.3759582
901.6764871
900.9981249
900.3402052
943.1979402
943.1064702
942.910202
942.6196226
942.2405489
941.7777189
941.2357168
940.6190949
939.9323798
939.1800673
938.3668172
937.4973304
936.5766242
935.6095455
934.6011121
933.5563251
932.4802923
931.3778293
930.2538132
929.1129648
927.9597663
926.7985008
925.6331914
924.4677758
923.3056574
922.150068
921.0039398
919.8698884
918.7504143
917.6475162
916.5629116
915.4981335
914.4546407
913.4332765
912.4349933
911.4605025
910.5100861
909.5842507
908.6829846
907.8064506
906.9544782
906.1268456
905.3234478
904.5437446
903.7873403
903.0537718
902.3424862
901.6528124
900.9840594
900.3355543
943.0060369
942.9133447
942.7144894
942.420419
942.0366281
941.5685187
941.0206252
940.397705
939.7044447
938.945564
938.125901
937.2504661
936.3242724
935.3522632
934.3398007
933.2917641
932.213377
931.1096912
929.9853819
928.8452169
927.6938615
926.5354728
925.3740437
924.2133513
923.0568065
921.9077275
920.7688979
919.6428259
918.5318264
917.4379388
916.3629009
915.3080651
914.2746723
913.2638223
912.2761668
911.3124431
910.3728985
909.4578986
908.567487
907.7017794
906.860494
906.0435347
905.2505853
904.4811898
903.7349277
903.0113631
902.3098437
901.6297386
900.9703594
900.3310275
942.8127253
942.7188234
942.517632
942.2198988
941.8316854
941.3581401
940.8044485
940.1753418
939.4756671
938.710365
937.8846336
937.0033795
936.0717496
935.0952268
934.0787276
933.0277471
931.9472906
930.8423807
929.7180472
928.5789106
927.4295041
926.2740293
925.1166074
923.9608744
922.8101523
921.6676141
920.5360205
919.4180006
918.3156366
917.2308249
916.1652328
915.1203556
914.0971597
913.0966668
912.119667
911.1665639
910.2378464
909.3335609
908.4539604
907.5988965
906.7681716
905.961746
905.1790972
904.4198515
903.683565
902.9698283
902.2778927
901.6071669
900.9569655
900.3266052
942.6181832
942.5232097
942.3195365
942.0181848
941.6256244
941.1469781
940.5874898
939.9522814
939.2463905
938.4749564
937.6431311
936.7561495
935.8195374
934.8384053
933.818302
932.7643351
931.6820287
930.5762438
929.4518712
928.3138161
927.1665895
926.0142833
924.860902
923.7100867
922.565247
921.4294
920.3052161
919.195129
918.1013531
917.0256941
915.9696269
914.934557
913.9215813
912.9314066
911.964974
911.0225073
910.1044729
909.2108518
908.3419552
907.4974441
906.6772573
905.8811717
905.1087079
904.3594884
903.6330975
902.9289986
902.2465015
901.585003
900.9438213
900.3222685
942.4225536
942.3264188
942.1202899
941.8156329
941.4185955
940.9349781
940.3699718
939.7288543
939.016884
938.2393798
937.4016472
936.5093703
935.567727
934.5823571
933.558637
932.5020989
931.4179025
930.3113087
929.1872014
928.0503438
926.9052275
925.7561145
924.6069196
923.4611712
922.3221619
921.1928959
920.0761179
918.9740955
917.8888618
916.8222238
915.7757046
914.7504474
913.747549
912.7677723
911.8117302
910.8799039
909.972423
909.0895008
908.2311371
907.3971037
906.5873836
905.801542
905.039173
904.2998842
903.5832887
902.8887196
902.2155489
901.5631598
900.930874
900.3179995
942.2257793
942.1285223
941.9201467
941.6121694
941.2109849
940.7223942
940.1520671
939.5052578
938.7874379
938.004147
937.1609614
936.2633745
935.3169963
934.3275712
933.3004896
932.241382
931.1556367
930.0482746
928.9243811
927.7888629
926.6460285
925.5000706
924.3549127
923.2141858
922.0810764
920.9584557
919.8488891
918.7548059
917.6781321
916.6204629
915.5832977
914.5678497
913.5748982
912.6054231
911.6597607
910.7384405
909.8414552
908.9691486
908.1212491
907.2977
906.4983021
905.7226346
904.9702893
904.24091
903.533976
902.8488569
902.1849286
901.5415603
900.9180769
900.3137825
942.0279541
941.929748
941.7192347
941.4079899
941.002941
940.5097893
939.9342976
939.2820868
938.5588014
937.7700716
936.9215501
936.0189842
935.0682618
934.0748733
933.0447438
931.9832875
930.8959683
929.7880722
928.6645564
927.5302286
926.3896049
925.2468618
924.1058073
922.9699143
921.8424655
920.7263864
919.6240511
918.537709
917.4693485
916.4205759
915.392636
914.3867739
913.4037787
912.4443466
911.5090365
910.5980321
909.7115591
908.8496649
908.0121474
907.1990266
906.4098587
905.6442982
904.9019196
904.1823822
903.485042
902.8093094
902.1545583
901.5201434
900.9053921
900.3096042
941.8294123
941.7302189
941.5176079
941.2035229
940.7947212
940.2973879
939.7172276
939.060054
938.3316698
937.537838
936.6844517
935.7774694
934.8225544
933.8257637
932.7926274
931.7291518
930.6405189
929.5320087
928.4089515
927.2759676
926.1374857
924.9977203
923.8606196
922.7295195
921.6076181
920.4976855
919.4023161
918.3235932
917.2633029
916.2230838
915.2042382
914.2076637
913.2343993
912.2848726
911.3596746
910.4588413
909.5827159
908.7311021
907.9039396
907.1010507
906.3220198
905.5664833
904.8340573
904.1242336
903.4364249
902.77002
902.1243894
901.4988717
900.8927957
900.3054561
941.6300134
941.5299417
941.3155175
940.9989263
940.5868713
940.0857056
939.5014219
938.8398679
938.1069849
937.3087461
936.4511977
935.5401436
934.5817396
933.5818088
932.5463158
931.4808596
930.3911971
929.2824241
928.1597231
927.0279894
925.8916556
924.7548563
923.6213867
922.4947214
921.3780953
920.2741358
919.1852845
918.1137391
917.0612513
916.0292171
915.0190322
914.0315629
913.0675536
912.1277148
911.2122564
910.3214566
909.455331
908.6137906
907.7968162
907.0039785
906.2349419
905.4893391
904.7667221
904.0665166
903.3881552
902.7310027
902.0944243
901.4777409
900.8802816
900.3013349
941.4298563
941.3290964
941.1133248
940.7944967
940.3798815
939.8756161
939.2878749
938.6227478
937.8862755
937.0844661
936.2233916
935.3091649
934.3479419
933.3455577
932.3081484
931.2414143
930.1508394
929.042001
927.9199514
926.7894666
925.6550272
924.5209953
923.3909961
922.2684916
921.1565822
920.0581118
918.9754086
917.9104932
916.8651905
915.8409203
914.8387835
913.8598963
912.904728
911.9740453
911.0679262
910.1867286
909.3302409
908.4985458
907.6913518
906.9083031
906.149029
905.4131955
904.7001703
904.0094291
903.3403818
902.6923661
902.0647389
901.4568001
900.8678763
900.2972481
941.2292036
941.1280042
940.9111091
940.5907883
940.1742515
939.6678572
939.077767
938.4101609
937.6711444
936.8668518
936.00346
935.0872128
934.1240409
933.120269
932.0816645
931.014256
929.9235072
928.8148543
927.6936005
926.5645121
925.4320518
924.3004307
923.1734963
922.0547509
920.9471795
919.8534831
918.7762062
917.7173111
916.6784236
915.6611081
914.6664207
913.6952286
912.7482874
911.8259894
910.9286683
910.0563576
909.2089751
908.3865838
907.5887013
906.8150179
906.0652021
905.3387204
904.6349851
903.953441
903.2934715
902.6543845
902.0355252
901.4361708
900.8556435
900.2932137
941.0281018
940.9266404
940.7091776
940.3882883
939.9708005
939.4634115
938.8723228
938.203695
937.4636642
936.6585252
935.7944509
934.8775182
933.9140188
932.9099626
931.871497
930.8042795
929.7141382
928.6064399
927.4863593
926.3587743
925.2283089
924.099071
922.9748505
921.8592279
920.7553519
919.6658068
918.59301
917.5391457
916.5057855
915.4942859
914.5060008
913.541522
912.601725
911.6868558
910.7973365
909.933007
909.0939683
908.2799889
907.4906836
906.7257234
905.9847251
905.2670361
904.5720972
903.8993114
903.2480315
902.6175308
902.007137
901.4160985
900.8437262
900.2892772
940.8265902
940.7251979
940.5081127
940.1874497
939.7704919
939.2636336
938.6732223
938.0054883
937.2665579
936.4626409
935.5998162
934.6843238
933.7223927
932.7199456
931.6831956
930.6178113
929.5293725
928.4236136
927.3055417
926.1799905
925.0516094
923.9247127
922.8029972
921.690044
920.5889981
919.5027026
918.433453
917.3833112
916.3541862
915.3472885
914.3638623
913.4047547
912.4705941
911.5618416
910.6786614
909.8210306
908.9890359
908.1822795
907.400434
906.6432028
905.9099965
905.2002102
904.5132508
903.8484768
903.2052075
902.5826791
901.9801994
901.3969872
900.832342
900.2855033
940.6248719
940.5240911
940.3080703
939.9889668
939.5741479
939.0698999
938.4824837
937.8180628
937.0827506
936.2826581
935.4238245
934.5126103
933.5547716
932.5565623
931.5237545
930.4623165
929.3776174
928.2752095
927.1603936
926.0378471
924.9122092
923.7877775
922.6684678
921.5577991
920.458933
919.3747951
918.3078487
917.2601182
916.2334849
915.2294272
914.2489986
913.2933142
912.3628245
911.4581931
910.5793951
909.7266041
908.8997182
908.0984023
907.3223726
906.571213
905.8443106
905.1410506
904.460807
903.8028944
903.1665943
902.5510992
901.9556855
901.3795293
900.821904
900.2820257
940.4231297
940.3233403
940.1094295
939.7936462
939.3828231
938.8836072
938.3019443
937.6438779
936.915445
936.1225975
935.2714269
934.3678392
933.4176305
932.4269954
931.4014612
930.3468547
929.2686005
928.1720434
927.062431
925.9445156
924.8228587
923.7017179
922.5851249
921.476655
920.3795118
919.2966353
918.2307311
917.1838344
916.1578529
915.1545117
914.1748489
913.2200598
912.2907307
911.3875036
910.5104265
909.6597872
908.8353798
908.0369329
907.2642292
906.5167199
905.7938323
905.094926
904.4193475
903.7663727
903.1352489
902.5251302
901.9352671
901.3648032
900.8129917
900.2790181
940.2213064
940.1231051
939.9127187
939.601985
939.1977642
938.7062648
938.1336547
937.485607
936.7680142
935.9866989
935.1474409
934.2559175
933.3178958
932.3391393
931.3251741
930.2814739
929.2134642
928.1262637
927.0249685
925.9143361
924.7988299
923.6826874
922.5699408
921.4642341
920.3688229
919.2867309
918.2207919
917.1731549
916.1458505
915.1407667
914.1590698
913.2020754
912.2705319
911.3651624
910.4861377
909.6338619
908.8081586
908.0088351
907.2357516
906.4883321
905.766048
905.0682629
904.3943172
903.7434651
903.1149239
902.5078038
901.9213084
901.3545207
900.8066417
900.2768188
939.9236882
939.7182331
939.4145856
939.0197202
938.5394283
937.9795525
937.345754
936.6436826
935.8787999
935.0566121
934.1825615
933.2622068
932.3008955
931.3039806
930.2766198
929.2240301
928.1510909
927.062753
925.9635562
924.8578706
923.749873
922.6435767
921.542536
920.450093
919.3694166
918.3032815
917.2540549
916.2239929
915.2149953
914.2284992
913.2660615
912.3284946
911.416827
910.5313434
909.6725743
908.8405684
908.0352263
907.2564942
906.5039347
905.7770657
905.0753037
904.3980249
903.7445054
903.1139728
902.5055387
901.9184049
901.3516468
900.8044488
900.2759097
)
;

boundaryField
{
    front_top
    {
        type            wedge;
    }
    front_middle
    {
        type            wedge;
    }
    front_bottom
    {
        type            wedge;
    }
    back_top
    {
        type            wedge;
    }
    back_middle
    {
        type            wedge;
    }
    back_bottom
    {
        type            wedge;
    }
    axis_top
    {
        type            symmetryPlane;
    }
    axis_middle
    {
        type            symmetryPlane;
    }
    axis_bottom
    {
        type            symmetryPlane;
    }
    wall_top
    {
        type            calculated;
        value           nonuniform 0();
    }
    wall_middle
    {
        type            calculated;
        value           uniform 900.0184441;
    }
    wall_bottom
    {
        type            calculated;
        value           nonuniform 0();
    }
    inlet
    {
        type            calculated;
        value           nonuniform 0();
    }
    outlet
    {
        type            calculated;
        value           nonuniform 0();
    }
    procBoundary3to2
    {
        type            processor;
        value           nonuniform List<scalar> 
51
(
940.0195145
940.0195145
939.7252046
939.5261399
939.23204
938.8493483
938.3838648
937.8409974
937.226167
936.5447069
935.8017914
935.0026074
934.1522602
933.2559809
932.318733
931.3455178
930.3412296
929.3106467
928.2584166
927.189303
926.1074159
925.0170113
923.9222755
922.8267611
921.7341099
920.6477276
919.5706528
918.5056439
917.4553377
916.4220647
915.4077242
914.414261
913.4430686
912.4955046
911.5726016
910.6751453
909.8036503
908.9586744
908.1402487
907.3484482
906.5832558
905.8442918
905.1311517
904.4433614
903.7803234
903.1413471
902.5255856
901.9322265
901.3602967
900.8089017
900.2770913
)
;
    }
    procBoundary3to4
    {
        type            processor;
        value           nonuniform List<scalar> 
51
(
944.6758156
944.5943076
944.4191821
944.1592376
943.8190217
943.4019442
942.9114248
942.3503018
941.7216158
941.0284166
940.2738936
939.4613425
938.5943912
937.6767734
936.7122566
935.7051937
934.6595243
933.5797079
932.1832165
932.1832165
931.04594
929.8886177
928.7156246
927.5311862
926.3392892
925.1438079
923.9482922
922.7560557
921.570286
920.3938009
919.2291941
918.0788684
916.9448414
915.8288506
914.7324637
913.6569995
912.6036366
911.5731573
910.5662684
909.5835198
908.6251486
907.6915436
906.7825243
905.898295
905.0384461
904.2028301
903.3911241
902.602712
901.8370999
901.0937516
900.3719083
)
;
    }
}


// ************************************************************************* //
