/*--------------------------------*- C++ -*----------------------------------*\
  =========                 |
  \\      /  F ield         | OpenFOAM: The Open Source CFD Toolbox
   \\    /   O peration     | Website:  https://openfoam.org
    \\  /    A nd           | Version:  7
     \\/     M anipulation  |
\*---------------------------------------------------------------------------*/
FoamFile
{
    version     2.0;
    format      ascii;
    class       volScalarField;
    location    "0.0015";
    object      T;
}
// * * * * * * * * * * * * * * * * * * * * * * * * * * * * * * * * * * * * * //

dimensions      [0 0 0 1 0 0 0];

internalField   nonuniform List<scalar> 
1167
(
443.4519056
443.5756008
443.8414024
444.2359133
444.7522897
445.3855606
446.1309441
446.9837353
447.9398071
448.9946971
450.1437462
451.3819344
452.7042854
454.1054705
455.5793112
457.1203837
458.7219549
460.3781694
443.7213095
443.8470035
444.1170595
444.5174267
445.0417377
445.6840823
446.4398105
447.3040947
448.2722681
449.3395858
450.5011477
451.7519285
453.0865224
454.498975
455.9836039
457.5340539
459.144193
460.8071648
462.5166239
464.2660103
466.0487349
467.8582161
469.6882541
471.5328712
473.3861797
475.2426875
477.0972268
478.9448433
480.7812174
482.6022281
484.4042005
486.1838757
487.938172
489.6646745
491.3612846
493.0259819
494.6571479
496.2538402
497.8148278
499.3395499
500.8274503
502.2783772
503.6920477
505.0689011
506.4088606
507.7125287
508.9806297
510.2137492
511.4127267
512.5785878
443.9936916
444.1213629
444.3953149
444.8017624
445.3336636
445.9851562
446.7509943
447.6263371
448.6062396
449.6856627
450.8594821
452.1223552
453.4682684
454.8916632
456.3862089
457.9455583
459.5631237
461.2324384
462.9464643
464.6987546
466.4828074
468.2919959
470.1199854
471.9607197
473.8084806
475.6578663
477.5037534
479.3413796
481.1664318
482.974703
484.7627701
486.5275246
488.2661736
489.9761286
491.6553829
493.3022289
494.9150827
496.4929306
498.0349918
499.5403452
501.0089117
502.4402501
503.8344738
505.1918596
506.5124
507.7968444
509.0458803
510.2600628
511.4403677
512.5877747
444.2688088
444.3982755
444.6763468
445.0888449
445.6280982
446.2885621
447.0644933
447.9506617
448.9420021
450.0331843
451.2187733
452.4929506
453.8500088
455.2836957
456.7875123
458.3550698
459.9795994
461.6542019
463.3722387
465.1269793
466.9115632
468.7195961
470.5448318
472.3812713
474.2231245
476.0649954
477.9017768
479.7289332
481.5422348
483.3377538
485.1120122
486.8618259
488.5846756
490.2782828
491.9405042
493.5696591
495.1646327
496.7240429
498.2475178
499.7340978
501.183834
502.5961995
503.9715886
505.310073
506.6119445
507.8778562
509.1085367
510.3045093
511.4668791
512.5965803
444.5465118
444.6779176
444.9601056
445.3783077
445.9251107
446.5942087
447.3799984
448.2769084
449.2794174
450.3819402
451.5788584
452.8642292
454.2319023
455.6751823
457.1879562
458.7629567
460.3937922
462.0733239
463.794526
465.5508881
467.3356091
469.1420868
470.9639746
472.7954264
474.630742
476.4646822
478.2921888
480.1087193
481.9100225
483.6924557
485.452682
487.1877845
488.8949118
490.5721079
492.2175589
493.8293234
495.4064898
496.9480366
498.4532
499.9215537
501.3528024
502.7468415
504.1039397
505.4240997
506.7078993
507.9558968
509.1688373
510.3472737
511.492372
512.6050414
444.8268934
444.9602239
445.2463751
445.6702719
446.2245301
446.9022395
447.6976399
448.6049648
449.6183911
450.7321017
451.940152
453.2362445
454.6138536
456.0666292
457.5874555
459.1697759
460.8061992
462.4899266
464.2140213
465.9714779
467.7555673
469.5597985
471.378006
473.204167
475.0325634
476.8580957
478.6758477
480.4814132
482.2707241
484.0400231
485.7860796
487.5061892
489.1978513
490.8587693
492.4873791
494.0821571
495.6417679
497.1657282
498.652938
500.1034414
501.5166213
502.892781
504.2319862
505.5344081
506.8006625
508.0312925
509.2270141
510.3885372
511.5169551
512.6131946
445.1098457
445.2449691
445.534935
445.9647203
446.5260756
447.2125014
448.0174584
448.9350276
449.959164
451.0838117
452.3025235
453.6088685
454.9963528
456.4578823
457.9866663
459.5754371
461.2172973
462.9047213
464.6309331
466.3890893
468.1722887
469.9738177
471.7877161
473.6080155
475.4292076
477.2461568
479.0539507
480.8482716
482.6252044
484.3812344
486.1132413
487.8183152
489.4942975
491.1392434
492.7511239
494.3288968
495.8713329
497.3777613
498.8474979
500.2803407
501.6759426
503.0346076
504.3562911
505.6414555
506.8906226
508.1043621
509.2833601
510.4284772
511.5407348
512.6210753
445.3949498
445.5319224
445.8259155
446.2614037
446.8299212
447.5246729
448.339138
449.2668756
450.3015043
451.436701
452.6658966
453.9824506
455.3792243
456.8493086
458.3854976
459.9805658
461.6270733
463.317969
465.0460476
466.8042803
468.5859399
470.3845434
472.1939466
474.0080769
475.8216349
477.6295366
479.4271175
481.2101663
482.9746125
484.7171428
486.4348597
488.1251362
489.7854424
491.4142132
493.0097004
494.5705331
496.096024
497.585126
499.0376258
500.4530331
501.831401
503.1728725
504.477409
505.7456866
506.9781571
508.1753914
509.3381173
510.4672665
511.5638145
512.6287181
445.6823476
445.8212071
446.1191983
446.5601031
447.1359415
447.8389264
448.6626157
449.6002643
450.6452534
451.7909251
453.0304413
454.3566912
455.7625389
457.2409229
458.7841052
460.3850359
462.036086
463.7298295
465.4593558
467.2175489
468.997384
470.7925554
472.5969507
474.4047322
476.2105758
478.0092494
479.796309
481.567701
483.3196393
485.0487395
486.7520661
488.4272729
490.0721741
491.6847943
493.263864
494.8079704
496.3164838
497.7885844
499.2239725
500.6222367
501.9836125
503.3080431
504.5958357
505.8475341
507.0636336
508.2446648
509.3915215
510.5050733
511.5862954
512.6361568
445.9719729
446.1127023
446.4143197
446.8609043
447.4436288
448.1550909
448.9878742
449.9352765
450.990441
452.1463778
453.3957049
454.7314663
456.1463198
457.632378
459.182572
460.7889028
462.4440618
464.140655
465.8712126
467.628829
469.4066674
471.1983392
472.997517
474.7985672
476.5962905
478.3856698
480.1622863
481.9218869
483.6610424
485.3765873
487.0656933
488.7257831
490.3551037
491.9518034
493.5143905
495.041987
496.5335765
497.9888541
499.4071854
500.7885871
502.1331632
503.440768
504.7120472
505.9474145
507.1474075
508.312517
509.4437979
510.5420594
511.6082744
512.6434239
446.2635616
446.405956
446.7114215
447.1636256
447.7531303
448.4725748
449.3144597
450.2714986
451.33655
452.5023257
453.7615126
455.1066568
456.5298356
458.0237207
459.5802725
461.1920721
462.8510053
464.5499112
466.2815198
468.038472
469.8139487
471.6017152
473.3956107
475.1899801
476.9794743
478.7593064
480.5251887
482.2731662
483.9995936
485.7014419
487.3761817
489.021375
490.6350588
492.2158812
493.7621095
495.2731534
496.7480344
498.1865543
499.5879878
500.9526619
502.2804628
503.5715458
504.8264903
506.0457201
507.2297306
508.3792235
509.4951622
510.5783788
511.6298445
512.6505505
446.5569017
446.7010973
447.0103757
447.4677348
448.0642218
448.7914621
449.6420384
450.6084334
451.6831755
452.8587065
454.1274808
455.4813608
456.9129468
458.4140993
459.9770324
461.5936678
463.2564369
464.957552
466.6897384
468.4458401
470.2190538
472.0028662
473.79124
475.5786816
477.3600114
479.130452
480.8855883
482.6217165
484.3354695
486.0238105
487.6841287
489.3143983
490.9126546
492.477455
494.0075905
495.5020599
496.9604258
498.382119
499.7669178
501.1149741
502.4261054
503.7008133
504.9395618
506.1428028
507.3109882
508.4450361
509.5458122
510.6141746
511.651092
512.6575659
446.8520811
446.9980211
447.3108025
447.7733442
448.376325
449.111372
449.9703515
450.9457841
452.0298792
453.2147457
454.4924271
455.8550718
457.29462
458.8027658
460.3716924
461.993161
463.6592403
465.3624975
467.0953343
468.8503579
470.621032
472.4009365
474.1840069
475.9645759
477.7376163
479.498547
481.2432246
482.9676826
484.6687146
486.3436122
487.9897981
489.6051319
491.1881515
492.7370673
494.2511117
495.7292072
497.1711377
498.5761258
499.9443893
501.2758065
502.5704929
503.8289305
505.0515915
506.2388719
507.3914453
508.5101743
509.595922
510.6495728
511.6720936
512.6644959
447.1489613
447.2963875
447.6125118
448.080162
448.6892176
449.4314581
450.2986128
451.2826529
452.375528
453.5692104
454.8556269
456.2265383
457.6734569
459.1884564
460.762896
462.3888562
464.0582781
465.7633091
467.4965331
469.2506963
471.0189273
472.7948157
474.5724623
476.3464333
478.1115399
479.863104
481.5972719
483.3103519
484.999033
486.6605825
488.2928218
489.8935568
491.4613076
492.9947355
494.4927177
495.9547304
497.3801851
498.7687832
500.1206333
501.4354923
502.7138741
503.9561429
505.1628021
506.3342263
507.4712932
508.5748032
509.6456259
510.6846734
511.6929115
512.6713623
447.4470424
447.5960135
447.915424
448.3875452
449.0025135
449.7513823
450.6259711
451.6179626
452.7190686
453.9210609
455.2155009
456.5938247
458.0478813
459.5688745
461.1487579
462.778696
464.4510499
466.1579642
467.8914351
469.6444831
471.4103582
473.1825786
474.9550129
476.7224279
478.4797548
480.2225494
481.9466025
483.6484747
485.325167
486.9738908
488.5923715
490.1789634
491.7317868
493.2499302
494.7322188
496.1783664
497.5875971
498.9600059
500.2954751
501.5940836
502.856303
504.0825301
505.2732039
506.4289751
507.5506326
508.6390158
509.6950035
510.7195376
511.713585
512.6781792
447.7465366
447.8968907
448.2191629
448.695257
449.315391
450.0703673
450.9515729
451.9506401
453.0590722
454.2683224
455.5697175
456.9549254
458.415041
459.9416177
461.5259372
463.1597774
464.8346078
466.5428431
468.2766952
470.0287474
471.7922302
473.5607721
475.3284685
477.0898578
478.8398028
480.5740715
482.2886865
483.9800205
485.6451217
487.2815793
488.8869664
490.4596835
491.9983181
493.5015056
494.9686801
496.3991678
497.7927194
499.1492596
500.4686059
501.751246
502.9975252
504.2078494
505.3827647
506.5230326
507.6294136
508.7027893
509.7440509
510.7541724
511.734124
512.684952
448.0472973
448.1987498
448.523186
449.0028513
449.6271112
450.3870942
451.273914
452.2788379
453.3932185
454.6084544
455.9158315
457.3065447
458.7716832
460.3027758
461.8908345
463.5274731
465.2045702
466.9137898
468.6475322
470.3985537
472.1599999
473.925134
475.6883035
477.4440566
479.1874561
480.913922
482.6196454
484.3012707
485.9557243
487.5805522
489.1737906
490.7334393
492.2585214
493.7475809
495.2002623
496.6157641
497.9942024
499.3352266
500.6390952
501.9061797
503.1368845
504.3315641
505.4910669
506.616076
507.7073928
508.7659459
509.7926437
510.7884975
511.7544848
512.6916682
448.3489311
448.5011093
448.8273745
449.3094934
449.9369197
450.7004467
451.591207
452.6003307
453.7190709
454.9386333
456.2501413
457.6445864
459.1133961
460.6473461
462.2380046
463.8764755
465.5546594
467.2644289
468.9977882
470.7474981
472.5067222
474.2689485
476.02817
477.7788613
479.5162566
481.2359925
482.9339128
484.606746
486.2517272
487.8661684
489.448172
490.9961309
492.5086086
493.9847453
495.4237755
496.8254168
498.1895785
499.5159417
500.8050739
502.0572743
503.2728858
504.4525882
505.5971605
506.7073391
507.7839711
508.8280371
509.8404675
510.8223135
511.7745633
512.6982984
448.6513692
448.8040065
449.1312659
449.6144481
450.2435784
451.0089375
451.9015945
452.912706
454.0334763
455.2548638
456.5679937
457.964107
459.434076
460.9691515
462.5603148
464.1992315
465.8772369
467.5863025
469.3186236
471.0667824
472.8236842
474.5829699
476.338715
478.0852656
479.8175923
481.5315072
483.2230488
484.8885896
486.5254449
488.1312513
489.7036347
491.2414216
492.7429822
494.2076878
495.6346296
497.0238352
498.3749186
499.6880351
500.9635966
502.2019343
503.4034758
504.5690959
505.6995295
506.7955835
507.858157
508.8882896
509.8869428
510.8552181
511.7941243
512.7047677
448.9545531
449.1071518
449.4339827
449.9170307
450.5456306
451.3105146
452.2025273
453.2127149
454.3322905
455.552336
456.864114
458.2586123
459.7267933
461.2600357
462.8492149
464.4859749
466.1620285
467.8687768
469.5986691
471.3443521
473.0986881
474.8549931
476.6074828
478.3504988
480.0790137
481.7884287
483.4749691
485.1351973
486.7658906
488.3649125
489.9300596
491.4597494
492.9527423
494.4080638
495.8252157
497.204004
498.5440642
499.8458187
501.1095865
502.3356457
503.5247587
504.6777239
505.7953329
506.8784659
507.9280787
508.9452734
509.931046
510.8865485
511.8128108
512.7109701
449.2581781
449.4099215
449.7352888
450.2161913
450.8418292
451.6030902
452.4909414
453.496522
454.6110566
455.8257696
457.1319764
458.5204744
459.9829404
461.5102427
463.0939275
464.7251765
466.3960234
468.0981494
469.8235498
471.5651124
473.315716
475.068703
476.8179483
478.5578898
480.2834739
481.9899723
483.6733441
485.3302092
486.9573871
488.5523144
490.1130878
491.6376952
493.1251785
494.5742361
495.9846704
497.3559697
498.6880704
499.9812929
501.2358838
502.4523135
503.6313818
504.7739034
505.880723
506.9527929
507.9911308
508.9969115
509.9711835
510.9151697
511.8299445
512.7166853
449.5619695
449.7122844
450.0346105
450.5107087
451.1305751
451.8845423
452.7640413
453.7603812
454.8648911
456.0690253
457.3640098
458.7413243
460.1925785
461.7087252
463.2816819
464.9028461
466.5641663
468.2576455
469.9753647
471.7101006
473.4548572
475.2030456
476.9483655
478.6851722
480.4083512
482.113156
483.7951678
485.450991
487.0774054
488.6714565
490.231265
491.75469
493.2405544
494.6875894
496.0954773
497.4635207
498.7918203
500.0805909
501.3299695
502.5406383
503.7133302
504.8488999
505.9482353
507.0123508
508.0423192
509.0393777
510.0046168
510.9393131
511.8445742
512.7216282
449.8660133
450.0139993
450.3311487
450.7998274
451.4099767
452.1525759
453.0187057
454.0002186
455.0886467
456.2756255
457.5528408
458.9121089
460.3450746
461.8433426
463.3988289
465.0034717
466.649221
468.3284327
470.0334297
471.7569899
473.4922807
475.2327563
476.9721285
478.7046575
480.4251593
482.1287673
483.8108704
485.4679017
487.0964534
488.6933181
490.2564157
491.7834158
493.272883
494.7234179
496.1345045
497.5052553
498.8357206
500.1259847
501.3760553
502.5866545
503.7584401
504.8922565
505.9889974
507.0497099
508.0755127
509.0677122
510.0274737
510.9561716
511.8549979
512.7252427
450.3146091
450.6244544
451.0826313
451.6788909
452.4048236
453.2519812
454.2122136
455.2773995
456.4397021
457.691205
459.0240672
460.4302383
461.9019496
463.4313771
465.010943
466.6329209
468.2900424
469.9748655
471.680519
473.4003316
475.1278702
476.856896
478.5818297
480.2973722
481.9984483
483.6805583
485.3398085
486.9724484
488.5752646
490.1457569
491.6812184
493.1801163
494.640566
496.0618698
497.442937
498.7834527
500.0833479
501.3424868
502.5613626
503.7405517
504.8808072
505.9829593
507.0480133
508.0770661
509.0714164
510.0322282
510.9608836
511.8585977
512.7267369
)
;

boundaryField
{
    front_top
    {
        type            wedge;
    }
    front_middle
    {
        type            wedge;
    }
    front_bottom
    {
        type            wedge;
    }
    back_top
    {
        type            wedge;
    }
    back_middle
    {
        type            wedge;
    }
    back_bottom
    {
        type            wedge;
    }
    axis_top
    {
        type            symmetryPlane;
    }
    axis_middle
    {
        type            symmetryPlane;
    }
    axis_bottom
    {
        type            symmetryPlane;
    }
    wall_top
    {
        type            convectiveRadiativeHeatFlux;
        mode            convectiveRadiative;
        kappaMethod     fluidThermo;
        kappa           none;
        alphaAni        Anialpha;
        h               nonuniform 0();
        Ta              constant 513.15;
        emissivityNozzle 0.95;
        emissivityFilament 0.95;
        dNozzle         2;
        dFilament       1.65;
        refValue        nonuniform 0();
        refGradient     nonuniform 0();
        valueFraction   nonuniform 0();
        value           nonuniform 0();
    }
    wall_middle
    {
        type            fixedValue;
        value           uniform 513.15;
    }
    wall_bottom
    {
        type            fixedValue;
        value           nonuniform 0();
    }
    inlet
    {
        type            fixedValue;
        value           nonuniform 0();
    }
    outlet
    {
        type            zeroGradient;
    }
    procBoundary3to2
    {
        type            processor;
        value           nonuniform List<scalar> 
51
(
450.1701404
450.1701404
450.6139385
450.9142714
451.3582187
451.9363129
452.6401079
453.4617874
454.3935387
455.4276943
456.556828
457.7734858
459.0703191
460.4397599
461.8746137
463.3675868
464.9115027
466.4993112
468.1241087
469.778754
471.4570575
473.1525465
474.8587958
476.5703114
478.2814062
479.9867105
481.6813824
483.3609776
485.0212049
486.6582211
488.2688371
489.8497669
491.3985805
492.9128902
494.3908153
495.830863
497.2319727
498.5930126
499.9137016
501.1936931
502.4327954
503.6314124
504.789998
505.9091305
506.9896001
508.0323603
509.0386329
510.0095955
510.9467017
511.851288
512.7247949
)
;
    }
    procBoundary3to4
    {
        type            processor;
        value           nonuniform List<scalar> 
51
(
443.1855693
443.3072412
443.5687328
443.9570521
444.4656083
445.089558
445.8240835
446.6652717
447.6089353
448.6508956
449.7867789
451.01206
452.3217128
453.7105427
455.1732883
456.7037755
458.2964253
459.9448285
462.0823177
462.0823177
463.8277863
465.6084037
467.4176601
469.2492135
471.0970284
472.9551828
474.8181995
476.6809135
478.5383046
480.3858819
482.2194632
484.0351269
485.8295239
487.5997202
489.3430269
491.0571302
492.7399244
494.3899244
496.0057587
497.5863028
499.1309339
500.6387851
502.1099116
503.5437516
504.9407439
506.3009108
507.6245677
508.9125183
510.1653779
511.3838417
512.5689809
)
;
    }
}


// ************************************************************************* //
