/*--------------------------------*- C++ -*----------------------------------*\
  =========                 |
  \\      /  F ield         | OpenFOAM: The Open Source CFD Toolbox
   \\    /   O peration     | Website:  https://openfoam.org
    \\  /    A nd           | Version:  7
     \\/     M anipulation  |
\*---------------------------------------------------------------------------*/
FoamFile
{
    version     2.0;
    format      ascii;
    class       volScalarField;
    location    "0.0015";
    object      thermo:mu;
}
// * * * * * * * * * * * * * * * * * * * * * * * * * * * * * * * * * * * * * //

dimensions      [1 -1 -1 0 0 0 0];

internalField   nonuniform List<scalar> 
1167
(
169318.971
167418.5234
163417.9761
157683.225
150526.8504
142260.0992
133197.9337
123642.7809
113865.7607
104107.6691
94570.61247
85416.38289
76763.74708
68694.48744
61259.68205
54476.57291
48344.63013
42841.40364
165211.5651
163334.8773
159385.9421
153733.9025
146680.9008
138547.146
129641.0625
120261.4458
110679.4336
101131.676
91815.22829
82885.13941
74457.02463
66610.36893
59388.40228
52809.0137
46866.06811
41538.85655
36792.65871
32585.95445
28873.24102
25607.67746
22742.54871
20233.19758
18038.11431
16119.05969
14441.45257
12974.47747
11690.62355
10565.83666
9579.044259
8711.894004
7948.558075
7275.216636
6679.965856
6152.626839
5684.393018
5267.578785
4895.706451
4563.091454
4264.878921
3996.838088
3755.365976
3537.252309
3339.814791
3160.643418
2997.643467
2849.019068
2713.181919
2588.731046
161175.9781
159323.9195
155432.703
149861.2626
142917.3383
134916.2288
126168.9227
116968.5295
107582.9322
98244.87783
89146.48206
80438.5214
72234.00546
64604.23624
57591.41334
51209.54562
45451.55353
40293.57615
35702.15434
31635.01952
28046.76658
24891.39511
22123.3973
19699.30204
17578.53859
15723.99339
14102.23557
12683.41691
11441.07752
10352.14114
9396.20559
8555.586449
7814.98943
7161.24816
6582.906821
6070.104462
5614.396848
5208.430489
4845.882569
4521.383884
4230.170723
3968.236976
3732.048051
3518.544222
3325.132745
3149.470019
2989.541458
2843.61729
2710.146348
2587.778891
157215.7013
155391.2584
151555.2613
146065.8538
139234.7877
131368.8104
122780.0577
113760.0537
104571.3225
95442.49641
86561.31525
78075.0574
70088.50746
62671.91424
55863.58769
49674.21901
44095.03177
39101.95301
34659.52011
30726.26926
27257.88651
24208.55637
21533.65864
19190.84655
17140.87659
15347.81827
13779.35295
12406.51602
11203.79641
10148.86015
9222.170338
8406.783276
7687.890312
7052.752827
6490.446961
5991.499899
5547.676847
5152.027336
4798.37601
4481.582273
4197.041648
3940.920596
3709.768224
3500.673208
3311.092388
3138.780479
2981.787108
2838.445227
2707.238785
2586.86668
153332.4654
151533.9083
147753.8673
142351.7405
135631.4384
127904.5808
119476.173
110635.7022
101643.6277
92723.68777
84058.06786
75788.46434
68016.62358
60809.74063
54199.98579
48198.66392
42793.12902
37958.88374
33660.88796
29857.05033
26503.50131
23555.69128
20970.13877
18705.39152
16723.29884
14988.98124
13471.24459
12142.20113
10977.30405
9954.897509
9056.155
8264.706825
7566.497299
6949.161574
6402.115635
5916.364367
5483.936861
5098.073981
4752.942263
4443.483183
4165.342827
3914.753541
3688.417901
3483.54126
3297.627684
3128.525461
2974.347842
2833.479934
2704.44659
2585.990523
149524.4696
147752.3059
144030.7741
138716.4081
132108.3364
124520.5586
116254.1856
107594.5572
98798.40209
90084.63225
81631.21611
73575.71191
66016.00586
59012.48729
52598.15711
46778.21156
41541.73542
36861.68144
32702.46547
29023.35656
25780.75232
22930.74448
20430.69929
18240.62177
16323.5396
14645.57206
13176.50587
11889.39314
10760.52405
9769.169357
8897.177108
8128.727251
7450.2011
6849.876375
6317.496311
5844.308557
5422.788558
5046.300585
4709.325831
4406.895586
4134.890917
3889.607245
3667.906106
3467.066439
3284.675177
3118.657376
2967.192395
2828.699111
2701.75743
2585.146609
145792.6274
144048.7912
140387.922
135159.1491
128667.4959
121217.0656
113112.0669
104632.8705
96031.47044
87521.96238
79279.18058
71434.94079
64081.45143
57278.25629
51052.92313
45410.74606
40337.14727
35806.36177
31781.85573
28222.79962
25086.65161
22330.73979
19913.13359
17794.92756
15940.11917
14316.05469
12893.59699
11646.71661
10552.50137
9590.901003
8744.449601
7998.056916
7338.4955
6754.401631
6236.097556
5775.020794
5363.927511
4996.49118
4667.311542
4371.666027
4105.537494
3865.360094
3648.128171
3451.17061
3272.17413
3109.130511
2960.282464
2824.081167
2699.15932
2584.331221
142141.5668
140425.3962
136822.6607
131681.8808
125305.5768
117995.9235
110051.1867
101750.7229
93342.61859
85036.05738
77000.01435
69361.68635
62211.40256
55602.97822
49562.3226
44091.94003
39177.33434
34790.38913
30895.6171
27452.77659
24419.56751
21753.92771
19415.3634
17366.21158
15571.36021
13999.2245
12621.52246
11413.15397
10352.19238
9419.235408
8597.397472
7872.085763
7230.764639
6662.37017
6157.533156
5708.136848
5307.071757
4948.360163
4626.698068
4337.607683
4077.142668
3841.900995
3628.983783
3435.779431
3260.066609
3099.904188
2953.58648
2819.605236
2696.640649
2583.540751
138568.3933
136879.5051
133335.4244
128285.8143
122022.6364
114853.6931
107070.2629
98948.17609
90730.89207
82623.50562
74790.3206
67355.25873
60403.14116
53984.33934
48123.57855
42820.1781
38058.82669
33811.64813
30042.23738
26711.00908
23776.90631
21198.45035
18936.17985
16953.30568
15215.93476
13693.69882
12359.12321
11187.93302
10158.88786
9253.409055
8455.290487
7750.385768
7126.541977
6573.29526
6081.483919
5643.33538
5252.002282
4901.687249
4587.312597
4304.553315
4049.574825
3819.136356
3610.384549
3420.822099
3248.297201
3090.938586
2947.074048
2815.251133
2694.190142
2582.771681
135072.8806
133411.5348
129930.3867
124968.5499
118822.4799
111790.4443
104167.5665
96222.44794
88193.87561
80282.79914
72650.50372
65413.94224
58654.30165
52421.54889
46734.34033
41593.34244
36980.618
32867.72651
29219.56432
25996.36933
23157.52417
20662.7252
18473.84936
16554.92328
14873.03474
13398.70466
12105.46924
10970.09018
9971.893324
9092.921339
8317.57915
7632.384759
7025.488268
6486.815547
6007.642346
5580.345638
5198.456196
4856.272002
4548.990172
4272.357786
4022.712104
3796.945223
3592.247498
3406.231742
3236.813197
3082.18806
2940.716368
2810.999643
2691.797009
2582.020627
131656.9733
130025.479
126604.4005
121730.6229
115701.7782
108809.9412
101345.0976
93574.74058
85733.06374
78016.33161
70579.14594
63536.00085
56965.89014
50912.22855
45394.73302
40409.86151
35940.98891
31958.33284
28426.47189
25307.08629
22560.17879
20146.1329
18027.695
16170.06117
14541.53455
13113.42182
11860.1174
10759.07412
9790.556716
8937.213393
8183.918384
7517.682502
6927.209129
6402.646082
5935.702192
5518.965367
5146.215161
4811.944674
4511.556769
4240.892368
3996.467959
3775.234973
3574.49626
3391.946479
3225.576995
3073.615188
2934.486194
2806.832523
2689.450973
2581.284354
128321.6678
126718.2999
123357.4077
118575.9232
112660.9836
105909.2433
98603.41312
91006.51601
83348.7814
75821.89674
68575.91072
61723.43112
55336.09607
49457.41223
44103.24522
39270.3932
34939.48016
31082.06242
27662.68555
24643.10878
21984.17222
19647.62566
17597.02438
15798.43763
14221.07207
12837.24904
11622.36789
10554.52443
9614.581248
8785.880357
8053.918627
7406.039293
6831.406574
6320.584361
5865.447466
5458.99715
5095.110041
4768.583615
4474.88294
4210.045006
3970.726096
3753.925697
3557.064015
3377.911536
3214.533523
3065.186127
2928.358665
2802.732993
2687.142508
2580.559837
125064.418
123489.6553
120191.8067
115501.3098
109703.615
103089.588
95942.18081
88517.36895
81041.29437
73701.50535
66644.43555
59975.93139
53766.74982
48057.44109
42861.43636
38174.42
33977.05432
30239.68764
26927.85869
24004.21437
21429.8783
19167.4576
17181.60361
15439.58993
13911.4338
12570.23493
11392.10144
10356.1203
9443.753714
8638.81136
7927.352065
7297.255317
6737.919525
6240.403417
5796.75497
5400.276126
5045.022289
4726.040802
4438.869255
4179.750743
3945.407414
3732.952255
3539.895819
3364.093744
3203.644912
3056.871628
2922.31211
2798.686307
2684.863181
2579.844376
121885.201
120341.5179
117107.6303
112507.7038
106829.343
100355.7681
93364.9582
86110.93196
78814.99737
71659.27272
64785.34814
58296.32441
52260.66259
46714.18205
41671.08113
37124.38056
33054.46629
29432.4829
26223.73562
23391.26493
20897.57023
18706.09646
16782.24942
15094.08512
13612.769
12312.35407
11169.54675
10164.03375
9278.039909
8495.980382
7804.257988
7191.250219
6646.761482
6162.046938
5729.571958
5342.73801
4995.925271
4684.253965
4403.456545
4149.937435
3920.461761
3712.269788
3522.954263
3350.447801
3192.883861
3048.64975
2916.329828
2794.680812
2682.606162
2579.135731
118787.5296
117273.8767
114103.6348
109598.9959
104039.0989
97707.62191
90875.11152
83791.36016
76672.98933
69697.47788
63003.11193
56689.78225
50820.73772
45432.48935
40535.08075
36123.16469
32175.24477
28662.57264
25551.96385
22806.46843
20389.25042
18264.82114
16399.79201
14762.91773
13326.17008
12064.30576
10955.0808
9978.702743
9117.868283
8357.605314
7684.850485
7088.193541
6557.973737
6085.623296
5663.911353
5286.420784
4947.790026
4643.22594
4368.668122
4120.587089
3895.873922
3691.861301
3506.234867
3336.956267
3182.235634
3040.507953
2910.401852
2790.709328
2680.367135
2578.432433
115767.2574
114284.8276
111181.3433
106774.7358
101337.1775
95148.22888
88475.35645
81562.00149
74619.9459
67822.81683
61304.92195
55160.87408
49453.96271
44216.74294
39459.87731
35175.21651
31343.30694
27934.68592
24916.25119
22252.54985
19907.51909
17846.38725
16036.46692
14447.69141
13052.92106
11827.52871
10749.86456
9800.931313
8963.975651
8224.36536
7569.577042
6988.577749
6471.892455
6011.41331
5599.984571
5231.528914
4900.744286
4603.053978
4334.552482
4091.752864
3871.681802
3671.761797
3489.739642
3323.629552
3171.705817
3032.448488
2904.528316
2786.770907
2678.144971
2577.733919
112823.9956
111374.9792
108343.4302
104036.1366
98726.44594
92684.19294
86172.38347
79430.46809
72664.82505
66043.80075
59697.34666
53718.56931
48167.66473
43075.27694
38451.6567
34288.38846
30564.94602
27253.85915
24322.05687
21734.56773
19456.38544
17454.06956
15695.49037
14151.44341
12795.45468
11603.92152
10555.72593
9632.322979
8817.582442
8097.361668
7459.357971
6893.070402
6389.180594
5939.892298
5538.230152
5178.359208
4855.06624
4563.994644
4301.276947
4063.570321
3847.990065
3652.051928
3473.528041
3310.51123
3161.32561
3024.493062
2898.723709
2782.874528
2675.944341
2577.041468
109959.5301
108546.636
105588.265
101387.3437
96209.29689
90319.55946
83973.73812
77405.52079
70815.88073
64369.0659
58191.48554
52373.67322
46972.08918
42018.56324
37520.60534
33471.06651
29849.4494
26628.38014
23776.28493
21258.95368
19042.22368
17093.31436
15381.39613
13878.10604
12557.55799
11396.7031
10375.28688
9475.240085
8680.759334
7978.249543
7355.74182
6802.913817
6310.89653
5871.942545
5479.415734
5127.523172
4811.270477
4526.427708
4269.183088
4036.315963
3825.04131
3632.896935
3457.737173
3297.706095
3151.172802
3016.697037
2893.025021
2779.042538
2673.776431
2576.358125
107172.3077
105796.9946
102917.1607
98830.9585
93791.33593
88060.29299
81886.26137
75495.74382
69084.02869
62811.69027
56801.05119
51138.80458
45881.84159
41059.2356
36680.03071
32735.70079
29207.73112
26069.1994
23289.12384
20834.61881
18672.80754
16771.60242
15100.97615
13633.50157
12344.19769
11210.48694
10212.56051
9333.052226
8556.522142
7869.599689
7260.840014
6720.023132
6238.591118
5808.931689
5424.631476
5079.973318
4770.171583
4491.005567
4238.805506
4010.432933
3803.164257
3614.573805
3442.584677
3285.382715
3141.375655
3009.155687
2887.500325
2775.32012
2671.666497
2575.691569
104460.67
103126.2093
100334.5442
96368.62014
91478.90307
85915.35315
79920.1956
73713.4007
67483.98312
61386.98691
55540.75315
50030.91093
44912.65906
40214.30292
35945.48666
32098.41671
28654.76927
25589.94981
22873.60118
20473.9229
18359.22325
16498.76944
14863.22409
13425.94159
12162.62874
11051.56743
10073.28895
9210.755441
8449.162241
7775.316132
7177.968272
6647.277196
6174.734749
5753.002666
5375.689044
5037.264229
4733.039201
4458.827686
4211.064467
3986.690448
3782.984411
3597.592581
3428.478291
3273.859995
3132.176165
3002.044946
2882.269706
2771.781545
2669.652816
2575.052728
101825.069
100537.0294
97838.86708
94004.36616
89275.80965
83892.67987
78087.64969
72072.59462
66030.40295
60110.82911
54429.00366
49069.52334
44084.34441
39503.93877
35336.89322
31578.03322
28209.73025
25208.49671
22546.32048
20192.36733
18116.19138
16288.15023
14680.18036
13266.29109
12022.8618
10928.80296
9965.233429
9115.418353
8364.825761
7700.68893
7111.819952
6588.695363
6122.837443
5707.119247
5335.155934
5001.582441
4701.70491
4431.425329
4187.245461
3966.115609
3765.352733
3582.639506
3415.965367
3263.569199
3123.90909
2995.619247
2877.519642
2768.553854
2667.808133
2574.464237
99265.46296
98026.83076
95431.19006
91742.81747
87187.69672
81999.35373
76397.66351
70585.4448
64738.73087
59001.6802
53487.0995
48275.61041
43419.83279
38950.96945
34878.22073
31197.98676
27895.00578
24947.23892
22328.53319
20009.96716
17962.40388
16157.40055
14568.11406
13169.43969
11938.4492
10854.57983
9899.570342
9056.970095
8312.489409
7653.696632
7069.503497
6550.522088
6088.410516
5676.076746
5307.209197
4976.516428
4679.287688
4411.471692
4169.609078
3950.62615
3751.870231
3571.032992
3406.112157
3255.352093
3117.217393
2990.347651
2873.570395
2765.834769
2666.234284
2573.955403
96778.71421
95594.74377
93113.95325
89584.40507
85221.39586
80242.67808
74860.2875
69264.85293
63624.68635
58078.53949
52734.72006
47672.05071
42943.87933
38581.13758
34595.61204
30985.15115
27737.39418
24832.32205
22245.89988
19951.40068
17921.30824
16128.65469
14547.80554
13154.68822
11927.1421
10845.21688
9891.14479
9048.823034
8304.219706
7645.111811
7060.537253
6541.190672
6078.806432
5666.307839
5297.408816
4966.831188
4669.841676
4402.386722
4161.00364
3942.585832
3744.473957
3564.344279
3400.180074
3250.210781
3112.887602
2986.836711
2870.874335
2763.93809
2665.113622
2573.583397
93241.45263
90886.46695
87530.41915
83377.77529
78629.62367
73483.7933
68121.66599
62702.40673
57357.49954
52191.33191
47281.21628
42680.76006
38421.4271
34517.57432
30969.41725
27767.51704
24894.56684
22329.24519
20047.02133
18022.48204
16230.40963
14646.60486
13248.00956
12013.43158
10923.67627
9961.330353
9110.756418
8358.2361
7691.609623
7100.091139
6574.462935
6106.415044
5688.929279
5315.666416
4981.30177
4681.090816
4410.91925
4167.269592
3947.002533
3747.404806
3566.109071
3401.057988
3250.444052
3112.685156
2986.378096
2870.313912
2763.408247
2664.726735
2573.429633
)
;

boundaryField
{
    front_top
    {
        type            wedge;
    }
    front_middle
    {
        type            wedge;
    }
    front_bottom
    {
        type            wedge;
    }
    back_top
    {
        type            wedge;
    }
    back_middle
    {
        type            wedge;
    }
    back_bottom
    {
        type            wedge;
    }
    axis_top
    {
        type            symmetryPlane;
    }
    axis_middle
    {
        type            symmetryPlane;
    }
    axis_bottom
    {
        type            symmetryPlane;
    }
    wall_top
    {
        type            calculated;
        value           nonuniform 0();
    }
    wall_middle
    {
        type            calculated;
        value           uniform 2530.329233;
    }
    wall_bottom
    {
        type            calculated;
        value           nonuniform 0();
    }
    inlet
    {
        type            calculated;
        value           nonuniform 0();
    }
    outlet
    {
        type            calculated;
        value           nonuniform 0();
    }
    procBoundary3to2
    {
        type            processor;
        value           nonuniform List<scalar> 
51
(
94363.84914
94363.84914
90965.24398
88746.48215
85581.6941
81656.56869
77159.21208
72271.09126
67161.41827
61979.26692
56849.22756
51871.32495
47120.86042
42651.46098
38495.82283
34670.71495
31179.60882
28015.90242
25165.75351
22611.0663
20329.5973
18298.54942
16494.99326
14895.83663
13479.64209
12226.36752
11117.44856
10136.02158
9267.043357
8497.033793
7813.915993
7207.223093
6667.56124
6186.805143
5757.791127
5374.247086
5030.673763
4722.359853
4445.071067
4195.183926
3969.548578
3765.347683
3580.144779
3411.815089
3258.487949
3118.517899
2990.440004
2872.982867
2765.003313
2665.512406
2573.629475
)
;
    }
    procBoundary3to4
    {
        type            processor;
        value           nonuniform List<scalar> 
51
(
173496.6661
171573.4668
167523.391
161712.1014
154452.1419
146056.5666
136844.7752
127114.4685
117143.6455
107176.6067
97419.67869
88037.76555
79156.85997
70863.562
63209.15387
56219.02387
49890.72263
44206.43888
37934.79193
37934.79193
33583.69283
29741.37911
26360.4144
23393.50047
20794.94831
18522.06778
16535.35966
14799.05099
13281.26983
11953.58478
10791.01434
9771.756443
8876.711067
8089.300625
7395.240149
6782.184556
6239.527912
5758.038585
5329.823374
4948.088631
4606.925164
4301.337192
4026.874179
3779.836214
3556.882321
3355.207712
3172.352259
3006.12975
2854.674445
2716.35863
2589.727181
)
;
    }
}


// ************************************************************************* //
