/*--------------------------------*- C++ -*----------------------------------*\
  =========                 |
  \\      /  F ield         | OpenFOAM: The Open Source CFD Toolbox
   \\    /   O peration     | Website:  https://openfoam.org
    \\  /    A nd           | Version:  7
     \\/     M anipulation  |
\*---------------------------------------------------------------------------*/
FoamFile
{
    version     2.0;
    format      ascii;
    class       volScalarField;
    location    "0.0015";
    object      thermo:alpha;
}
// * * * * * * * * * * * * * * * * * * * * * * * * * * * * * * * * * * * * * //

dimensions      [1 -1 -1 0 0 0 0];

internalField   nonuniform List<scalar> 
1167
(
0.000120392234
0.0001203805075
0.000120355316
0.0001203179434
0.000120269058
0.0001202069331
0.0001201294681
0.0001200487957
0.0001199512339
0.0001198499622
0.0001197326333
0.000119616414
0.0001194873804
0.0001193522438
0.0001192013929
0.0001190435591
0.0001188652027
0.0001186808961
0.0001203666967
0.0001203547852
0.0001203292004
0.0001202912881
0.0001202416715
0.000120175899
0.0001201001241
0.0001200171315
0.0001199179457
0.0001198157481
0.0001196990241
0.0001195817424
0.0001194480442
0.000119312243
0.0001191599529
0.0001189976584
0.0001188181746
0.0001186332265
0.0001184308213
0.0001182105362
0.0001179806065
0.0001177412348
0.0001174894296
0.0001172234605
0.0001169504494
0.0001166627077
0.0001163672718
0.0001160672545
0.0001157602495
0.0001154474682
0.000115127218
0.0001148064401
0.0001144752479
0.000114145375
0.0001138110964
0.0001134838607
0.0001131502032
0.0001128131632
0.0001124799884
0.0001121535168
0.0001118237584
0.0001115016735
0.0001111767982
0.0001108609837
0.000110551858
0.0001102421424
0.0001099339046
0.0001096308409
0.0001093366532
0.0001090471895
0.0001203408869
0.0001203287928
0.000120302849
0.0001202643763
0.0001202123296
0.0001201446128
0.0001200707539
0.0001199837206
0.000119886509
0.0001197799674
0.0001196654031
0.0001195470483
0.0001194117645
0.000119271931
0.0001191187093
0.000118951749
0.0001187715424
0.0001185852297
0.0001183791999
0.0001181546697
0.0001179247079
0.0001176814905
0.0001174301187
0.0001171608764
0.0001168849315
0.0001165984601
0.0001163040399
0.0001160006694
0.0001156940185
0.0001153835878
0.0001150625869
0.0001147414999
0.0001144134134
0.0001140839517
0.0001137532301
0.0001134282413
0.0001130973317
0.000112762086
0.000112433054
0.0001121089762
0.0001117835874
0.0001114644418
0.0001111441019
0.0001108328089
0.0001105272398
0.0001102221301
0.0001099178552
0.0001096194683
0.0001093298767
0.000109044858
0.0001203148281
0.0001203025687
0.0001202762452
0.0001202372155
0.000120181718
0.000120114404
0.0001200411782
0.0001199501093
0.0001198549187
0.000119744055
0.0001196317093
0.0001195091381
0.0001193760999
0.0001192317084
0.0001190776222
0.0001189060883
0.0001187252106
0.0001185344869
0.0001183260276
0.0001180994199
0.0001178695272
0.0001176226327
0.0001173681296
0.000117099396
0.0001168206388
0.0001165354941
0.0001162426416
0.0001159374742
0.0001156294396
0.0001153196306
0.0001149996677
0.0001146783557
0.0001143533964
0.0001140243875
0.0001136971524
0.000113373322
0.0001130460634
0.0001127127291
0.0001123877613
0.0001120660093
0.0001117448734
0.0001114285804
0.0001111126309
0.0001108057259
0.0001105035748
0.0001102029042
0.0001099024453
0.0001096085548
0.0001093233773
0.0001090426234
0.0001202885347
0.0001202760966
0.0001202493941
0.0001202076872
0.0001201508514
0.0001200855501
0.0001200092602
0.0001199175088
0.0001198219707
0.0001197102126
0.0001195979583
0.0001194709179
0.0001193396726
0.000119191564
0.0001190362912
0.0001188606347
0.0001186791597
0.0001184840916
0.0001182714425
0.0001180447595
0.0001178132612
0.0001175645126
0.0001173067343
0.0001170388857
0.0001167574718
0.0001164708095
0.000116179829
0.0001158755785
0.0001155662705
0.0001152556024
0.0001149383221
0.0001146168152
0.0001142949622
0.000113966489
0.0001136426822
0.0001133200168
0.0001129943183
0.0001126649072
0.0001123439397
0.0001120244496
0.000111707486
0.0001113939466
0.0001110822589
0.0001107796062
0.0001104807662
0.0001101843855
0.0001098876161
0.000109598055
0.0001093171279
0.0001090404762
0.0001202619982
0.0001202493829
0.0001202214072
0.0001201773344
0.0001201204503
0.0001200564837
0.0001199763299
0.000119886629
0.0001197869212
0.0001196773527
0.0001195641111
0.0001194334509
0.0001193004477
0.0001191514457
0.0001189916991
0.0001188153261
0.0001186333338
0.0001184340285
0.0001182172502
0.000117990559
0.0001177553778
0.0001175070836
0.0001172461228
0.0001169786996
0.0001166952378
0.0001164064031
0.0001161136404
0.0001158118201
0.0001155043496
0.0001151928925
0.0001148783139
0.0001145567275
0.0001142374886
0.0001139100246
0.0001135896542
0.000113268132
0.0001129439971
0.0001126184449
0.0001123013962
0.0001119841345
0.0001116712461
0.0001113604007
0.0001110528798
0.000110754342
0.0001104587191
0.0001101664962
0.0001098733102
0.0001095879243
0.0001093111017
0.0001090384071
0.000120235229
0.0001202215534
0.0001201914026
0.000120146736
0.0001200919809
0.0001200266309
0.0001199431887
0.0001198555748
0.0001197517026
0.0001196443638
0.0001195287488
0.0001193986265
0.0001192611876
0.0001191113694
0.0001189471643
0.0001187701722
0.0001185870519
0.0001183842116
0.0001181634231
0.0001179367738
0.0001176979741
0.0001174501951
0.0001171861783
0.0001169160279
0.0001166338397
0.0001163437944
0.0001160484448
0.0001157487181
0.0001154435267
0.0001151313586
0.0001148194549
0.0001144978502
0.000114178987
0.0001138548004
0.0001135378391
0.0001132175151
0.0001128949135
0.0001125732036
0.0001122599668
0.0001119449347
0.000111636009
0.0001113278066
0.0001110243642
0.0001107298284
0.0001104373408
0.0001101491606
0.0001098594557
0.000109578119
0.0001093052726
0.0001090364073
0.0001202059568
0.0001201917158
0.0001201611587
0.0001201169684
0.0001200633067
0.0001199942598
0.0001199116501
0.0001198232678
0.0001197177632
0.0001196112807
0.0001194913322
0.0001193637309
0.0001192219105
0.0001190712974
0.0001189026966
0.0001187251032
0.0001185377499
0.0001183330449
0.0001181098592
0.0001178833313
0.0001176410263
0.0001173916179
0.0001171267765
0.0001168539785
0.0001165731276
0.0001162846332
0.0001159866859
0.0001156865013
0.0001153836033
0.0001150708093
0.000114759008
0.0001144399982
0.0001141215547
0.0001138006806
0.0001134870576
0.0001131679617
0.0001128468868
0.000112528971
0.0001122194918
0.0001119066762
0.0001116016336
0.0001112960371
0.0001109965842
0.0001107059631
0.0001104165414
0.0001101320814
0.0001098459928
0.0001095685967
0.0001092996153
0.0001090344678
0.0001201760793
0.000120161648
0.0001201306881
0.0001200887691
0.0001200344396
0.0001199616872
0.0001198812038
0.0001197887951
0.0001196855012
0.0001195780891
0.0001194538142
0.0001193268549
0.0001191826092
0.0001190303777
0.0001188582787
0.0001186801329
0.0001184885679
0.0001182798031
0.0001180565593
0.0001178295397
0.0001175844149
0.0001173318392
0.0001170678797
0.0001167924913
0.0001165124283
0.0001162260689
0.0001159264913
0.0001156250646
0.0001153229013
0.0001150110646
0.0001146990844
0.0001143830533
0.0001140650154
0.0001137474445
0.0001134361215
0.0001131192854
0.000112799779
0.0001124855838
0.0001121791598
0.0001118691994
0.0001115679832
0.0001112649844
0.000110969426
0.0001106826468
0.0001103962335
0.000110115024
0.0001098328635
0.0001095593161
0.000109294105
0.0001090325801
0.0001201459825
0.0001201313629
0.0001201025306
0.0001200603834
0.0001200026624
0.0001199289791
0.000119850604
0.0001197541708
0.00011965312
0.000119544799
0.000119418546
0.0001192883736
0.0001191432812
0.0001189866865
0.0001188139014
0.0001186352552
0.0001184395386
0.0001182267257
0.0001180034771
0.0001177728428
0.0001175281329
0.0001172724206
0.0001170093718
0.0001167314748
0.0001164492598
0.0001161636985
0.0001158667379
0.0001155642333
0.0001152612717
0.0001149520223
0.0001146398626
0.0001143268152
0.0001140092477
0.0001136949305
0.0001133846703
0.0001130713257
0.0001127534044
0.0001124428884
0.0001121385124
0.000111832363
0.0001115349278
0.0001112344991
0.00011094278
0.000110659784
0.0001103763323
0.0001100983182
0.0001098200124
0.0001095502375
0.0001092887178
0.000109030736
0.0001201167646
0.0001201033202
0.0001200744881
0.0001200317004
0.0001199705786
0.0001198990891
0.0001198183466
0.00011972058
0.0001196206681
0.0001195081727
0.0001193843661
0.0001192498699
0.0001191040016
0.0001189430318
0.0001187696341
0.0001185900878
0.0001183906613
0.0001181738813
0.0001179506249
0.0001177164039
0.0001174721581
0.0001172133878
0.0001169489858
0.0001166708666
0.0001163865391
0.0001160992469
0.0001158042887
0.0001155039305
0.0001152001855
0.0001148935452
0.0001145812587
0.0001142711495
0.0001139540875
0.0001136430119
0.000113333813
0.0001130228434
0.0001127076063
0.0001124007523
0.0001120984098
0.0001117960386
0.0001115011937
0.0001112044664
0.0001109165436
0.0001106372847
0.000110356778
0.0001100818959
0.0001098073864
0.0001095413229
0.000109283431
0.0001090289276
0.0001200890713
0.0001200754624
0.0001200462828
0.000120000163
0.0001199383441
0.0001198690805
0.0001197844767
0.0001196889561
0.0001195881837
0.0001194714863
0.0001193501888
0.0001192114364
0.0001190647845
0.0001188995086
0.0001187254961
0.000118541768
0.0001183410018
0.0001181212756
0.0001178980718
0.0001176603103
0.0001174158738
0.0001171547134
0.0001168876055
0.0001166107109
0.0001163262216
0.0001160352579
0.0001157423012
0.000115444125
0.0001151396102
0.0001148355416
0.0001145231591
0.000114214486
0.0001138994131
0.0001135916042
0.0001132834322
0.0001129738758
0.0001126622626
0.0001123590824
0.0001120587322
0.0001117601125
0.0001114676949
0.0001111747857
0.0001108906256
0.0001106150683
0.000110337479
0.0001100656951
0.0001097949369
0.0001095325372
0.0001092782234
0.0001090271474
0.0001200612159
0.0001200474481
0.0001200164358
0.0001199684837
0.0001199081493
0.0001198389892
0.0001197505467
0.0001196573083
0.0001195557079
0.0001194354607
0.0001193129154
0.0001191731249
0.000119024383
0.0001188562
0.0001186816161
0.0001184937281
0.0001182889261
0.0001180690473
0.000117845886
0.0001176046408
0.0001173569653
0.000117096522
0.0001168267027
0.0001165510216
0.0001162679606
0.0001159750373
0.0001156808195
0.0001153847915
0.000115079537
0.0001147762505
0.0001144655136
0.0001141571207
0.0001138451727
0.0001135406002
0.0001132334703
0.0001129252998
0.0001126172905
0.0001123177556
0.0001120193875
0.0001117245217
0.0001114344912
0.0001111453743
0.0001108649504
0.000110592283
0.0001103183721
0.0001100496618
0.000109782621
0.0001095238496
0.0001092730763
0.0001090253889
0.0001200332117
0.0001200179308
0.0001199851538
0.0001199366928
0.0001198787006
0.0001198062478
0.0001197180346
0.0001196257206
0.0001195212299
0.000119402332
0.0001192756294
0.0001191350635
0.000118982103
0.0001188132462
0.0001186381443
0.0001184461714
0.0001182373661
0.0001180173813
0.0001177910768
0.0001175495772
0.0001172986876
0.0001170389749
0.000116766501
0.0001164901751
0.0001162102975
0.000115915604
0.0001156199847
0.0001153245783
0.0001150200187
0.0001147163639
0.0001144083909
0.0001141002335
0.0001137914135
0.0001134899961
0.0001131839179
0.0001128770859
0.0001125726865
0.0001122767269
0.0001119803245
0.0001116891924
0.0001114015254
0.0001111161758
0.0001108394667
0.0001105696056
0.000110299412
0.0001100337553
0.0001097704056
0.0001095152355
0.0001092679743
0.0001090236465
0.0001200023084
0.000119986864
0.0001199537604
0.000119907093
0.0001198492271
0.0001197731747
0.0001196873105
0.000119594294
0.0001194858586
0.0001193694639
0.0001192387036
0.0001190974499
0.0001189403375
0.0001187709025
0.0001185952894
0.0001183993442
0.0001181866438
0.0001179665371
0.0001177366583
0.0001174954448
0.0001172413881
0.0001169820509
0.0001167072461
0.0001164286096
0.0001161474659
0.0001158563655
0.0001155599895
0.0001152635399
0.0001149612808
0.0001146571949
0.0001143519465
0.0001140439638
0.0001137382008
0.0001134389837
0.0001131348133
0.0001128292902
0.000112528444
0.0001122360145
0.0001119415815
0.0001116541128
0.000111368785
0.0001110871716
0.0001108141722
0.0001105470752
0.0001102805746
0.0001100179526
0.0001097582713
0.0001095066797
0.0001092629078
0.0001090219168
0.000119971262
0.0001199556808
0.0001199229459
0.0001198781323
0.0001198182502
0.0001197402136
0.0001196567653
0.0001195631288
0.0001194508684
0.0001193359315
0.0001192023766
0.0001190604887
0.0001188994036
0.0001187294349
0.0001185499154
0.0001183535026
0.0001181371383
0.0001179169793
0.0001176835973
0.0001174426499
0.000117185518
0.0001169233576
0.0001166494304
0.0001163684774
0.0001160853658
0.0001157958792
0.0001155012668
0.0001152037163
0.0001149036816
0.000114599112
0.0001142964584
0.0001139886396
0.0001136857842
0.0001133873161
0.0001130863477
0.0001127821147
0.0001124847022
0.0001121957318
0.0001119032267
0.0001116193568
0.0001113363282
0.0001110584174
0.0001107890742
0.000110524712
0.0001102618719
0.0001100022593
0.0001097462189
0.0001094981806
0.0001092578745
0.0001090201982
0.0001199400974
0.000119924868
0.0001198943255
0.0001198491953
0.0001197860198
0.0001197097288
0.0001196265398
0.0001195311883
0.0001194187783
0.000119301002
0.000119166898
0.0001190230518
0.0001188596626
0.0001186892768
0.0001185060305
0.0001183059582
0.0001180894126
0.0001178692407
0.0001176325496
0.0001173895646
0.0001171317392
0.00011686684
0.0001165937515
0.0001163132516
0.0001160257778
0.0001157374293
0.0001154444803
0.0001151457766
0.0001148477902
0.0001145426979
0.0001142422379
0.0001139347084
0.0001136346305
0.0001133367953
0.0001130384394
0.0001127358514
0.0001124417484
0.0001121544759
0.0001118654659
0.0001115851009
0.0001113043056
0.0001110300362
0.0001107642681
0.0001105025927
0.0001102433614
0.0001099867191
0.0001097342791
0.000109489758
0.0001092528849
0.000109018494
0.0001199107281
0.0001198964033
0.0001198657018
0.0001198188602
0.0001197540011
0.0001196803226
0.0001195968011
0.0001194980821
0.0001193883308
0.0001192671107
0.0001191326457
0.0001189853242
0.0001188216038
0.0001186509821
0.0001184642984
0.0001182608534
0.0001180442733
0.0001178230754
0.0001175843593
0.0001173384389
0.0001170810633
0.0001168135359
0.000116541188
0.0001162615987
0.0001159721494
0.0001156820625
0.0001153905818
0.0001150907058
0.0001147936156
0.0001144888257
0.000114188088
0.000113882976
0.0001135854828
0.0001132881201
0.0001129906207
0.0001126910843
0.0001124001078
0.0001121143887
0.0001118287126
0.0001115517008
0.0001112730605
0.0001110022768
0.0001107399714
0.0001104808994
0.0001102251855
0.0001099714424
0.0001097225289
0.0001094814606
0.0001092479647
0.0001090168116
0.0001198822621
0.0001198679003
0.0001198371184
0.0001197873288
0.0001197232012
0.0001196513853
0.0001195677225
0.0001194659291
0.0001193589661
0.0001192346658
0.0001191000946
0.0001189496802
0.0001187859041
0.0001186152341
0.0001184255728
0.0001182191603
0.0001180027008
0.0001177787037
0.0001175402374
0.0001172916806
0.0001170347584
0.000116764873
0.0001164914392
0.0001162143483
0.0001159230221
0.0001156312826
0.000115340343
0.0001150399159
0.0001147418929
0.0001144388454
0.0001141376901
0.0001138346872
0.0001135394384
0.0001132423782
0.0001129455236
0.0001126487278
0.0001123606165
0.0001120762232
0.0001117936181
0.0001115192586
0.0001112430641
0.0001109755577
0.000110716531
0.0001104599261
0.0001102075791
0.0001099566194
0.0001097111108
0.0001094733872
0.0001092431714
0.0001090151701
0.0001198537381
0.000119839386
0.0001198059867
0.0001197560562
0.0001196948495
0.0001196231087
0.0001195390487
0.0001194356506
0.0001193293611
0.0001192041587
0.0001190697821
0.000118916841
0.0001187533314
0.0001185819086
0.0001183908763
0.000118182135
0.0001179660136
0.0001177397798
0.0001175017411
0.0001172510482
0.0001169945996
0.0001167227356
0.0001164474273
0.0001161697672
0.0001158804186
0.0001155871512
0.0001152948578
0.0001149954918
0.0001146964734
0.0001143948047
0.0001140930355
0.0001137917201
0.000113498242
0.0001132012782
0.0001129047726
0.0001126102771
0.0001123245845
0.000112041239
0.0001117613048
0.0001114885005
0.0001112152103
0.0001109506495
0.000110694597
0.0001104402296
0.0001101909864
0.0001099426015
0.0001097002762
0.0001094657004
0.0001092385925
0.0001090135964
0.0001198241673
0.0001198084747
0.000119774838
0.0001197257725
0.000119667059
0.0001195956876
0.0001195093449
0.0001194091242
0.0001193007348
0.0001191761281
0.0001190423731
0.000118887653
0.0001187248391
0.0001185518034
0.0001183614975
0.0001181512598
0.000117935881
0.0001177081844
0.0001174708389
0.0001172187431
0.0001169613853
0.0001166896423
0.0001164129741
0.0001161339867
0.0001158458801
0.000115552543
0.0001152590515
0.0001149603729
0.000114660311
0.0001143594932
0.0001140569497
0.0001137567097
0.0001134643848
0.0001131672024
0.0001128706863
0.0001125778526
0.0001122939143
0.0001120112074
0.0001117333555
0.0001114616675
0.000111190727
0.0001109285988
0.0001106750495
0.0001104225681
0.0001101760252
0.0001099298997
0.0001096904163
0.0001094586786
0.0001092343942
0.0001090121462
0.000119792754
0.0001197772157
0.0001197439076
0.0001196981268
0.0001196399788
0.0001195693197
0.0001194812295
0.0001193844718
0.0001192746786
0.0001191512002
0.0001190166371
0.0001188630447
0.0001187015278
0.0001185279294
0.0001183377372
0.0001181283336
0.0001179142345
0.0001176862203
0.0001174499826
0.0001171975316
0.0001169397918
0.0001166688441
0.0001163916299
0.0001161120322
0.000115824391
0.0001155313952
0.0001152370675
0.0001149386266
0.0001146376515
0.0001143370484
0.0001140336546
0.0001137336959
0.0001134409096
0.0001131439624
0.0001128470037
0.0001125549089
0.0001122718216
0.0001119891987
0.0001117125377
0.0001114413561
0.000111171912
0.0001109114066
0.0001106595962
0.0001104084172
0.00011016388
0.0001099194546
0.0001096822038
0.0001094527556
0.0001092308096
0.000109010892
0.000119761328
0.000119746037
0.0001197149803
0.000119670999
0.0001196137855
0.0001195441945
0.0001194550217
0.0001193620717
0.0001192517177
0.0001191300354
0.0001189955619
0.0001188440202
0.0001186845748
0.0001185117409
0.0001183225896
0.0001181153515
0.0001179032866
0.0001176764737
0.0001174420068
0.0001171906726
0.0001169339847
0.000116664245
0.0001163877412
0.0001161086716
0.0001158214989
0.0001155287153
0.0001152342341
0.0001149355822
0.0001146340556
0.0001143329303
0.0001140286974
0.0001137280459
0.000113434269
0.0001131366174
0.0001128386633
0.0001125460066
0.0001122624744
0.0001119791385
0.0001117023415
0.0001114307751
0.0001111615559
0.0001109014683
0.0001106502666
0.0001103995414
0.0001101560048
0.0001099124857
0.0001096765894
0.0001094486198
0.0001092282555
0.0001090099749
0.000119716533
0.0001196874528
0.0001196444745
0.0001195885852
0.000119518213
0.0001194319799
0.0001193416951
0.0001192323542
0.0001191132311
0.0001189801227
0.0001188315511
0.0001186751088
0.0001185046941
0.0001183183814
0.0001181143877
0.0001179053846
0.0001176817595
0.0001174500512
0.0001172018589
0.0001169482532
0.0001166804818
0.0001164065995
0.0001161298571
0.0001158434883
0.0001155510878
0.0001152577496
0.0001149586445
0.0001146574672
0.0001143551694
0.0001140505096
0.0001137481479
0.0001134533249
0.0001131536028
0.0001128541862
0.0001125592997
0.0001122736033
0.0001119885877
0.0001117097682
0.0001114365906
0.0001111656626
0.0001109040927
0.0001106516485
0.0001103999445
0.0001101556363
0.0001099115747
0.0001096754216
0.0001094474639
0.0001092273735
0.0001090095958
)
;

boundaryField
{
    front_top
    {
        type            wedge;
    }
    front_middle
    {
        type            wedge;
    }
    front_bottom
    {
        type            wedge;
    }
    back_top
    {
        type            wedge;
    }
    back_middle
    {
        type            wedge;
    }
    back_bottom
    {
        type            wedge;
    }
    axis_top
    {
        type            symmetryPlane;
    }
    axis_middle
    {
        type            symmetryPlane;
    }
    axis_bottom
    {
        type            symmetryPlane;
    }
    wall_top
    {
        type            calculated;
        value           nonuniform 0();
    }
    wall_middle
    {
        type            calculated;
        value           uniform 0.0001089022317;
    }
    wall_bottom
    {
        type            calculated;
        value           nonuniform 0();
    }
    inlet
    {
        type            calculated;
        value           nonuniform 0();
    }
    outlet
    {
        type            calculated;
        value           nonuniform 0();
    }
    procBoundary3to2
    {
        type            processor;
        value           nonuniform List<scalar> 
51
(
0.0001197300962
0.0001197300962
0.0001196884396
0.0001196602639
0.000119618637
0.0001195644707
0.000119493987
0.0001194123701
0.0001193230706
0.0001192169397
0.0001191012378
0.000118970943
0.0001188264005
0.0001186740505
0.0001185079809
0.0001183266291
0.0001181272167
0.0001179225832
0.0001177046093
0.0001174769938
0.0001172345542
0.000116986713
0.0001167221466
0.0001164535133
0.0001161816897
0.0001158954594
0.0001156055366
0.0001153154374
0.0001150160246
0.00011471681
0.0001144129114
0.0001141088689
0.0001138037569
0.000113506068
0.0001132048157
0.0001129035653
0.000112604309
0.0001123141589
0.0001120261902
0.0001117426917
0.0001114661563
0.00011119072
0.0001109249091
0.0001106685469
0.0001104138226
0.0001101662428
0.0001099196378
0.0001096809808
0.000109450943
0.0001092291645
0.0001090100885
)
;
    }
    procBoundary3to4
    {
        type            processor;
        value           nonuniform List<scalar> 
51
(
0.0001204174902
0.0001204059511
0.0001203811585
0.0001203443582
0.0001202961937
0.000120237148
0.0001201613491
0.0001200788433
0.0001199855245
0.0001198823067
0.0001197695164
0.0001196510925
0.0001195267724
0.0001193891275
0.000119243034
0.0001190861936
0.0001189126255
0.0001187290778
0.0001184830105
0.0001184830105
0.0001182671446
0.0001180373457
0.0001178019493
0.0001175497811
0.0001172872523
0.0001170155538
0.0001167284341
0.0001164354056
0.0001161373653
0.0001158282573
0.0001155131476
0.0001151937757
0.0001148704964
0.0001145390818
0.0001142088362
0.0001138709659
0.000113540039
0.0001132049984
0.0001128661788
0.00011252872
0.0001121996319
0.0001118655346
0.0001115400667
0.0001112108488
0.0001108903547
0.0001105775285
0.0001102630222
0.000109950659
0.0001096427196
0.000109343735
0.0001090496276
)
;
    }
}


// ************************************************************************* //
