/*--------------------------------*- C++ -*----------------------------------*\
  =========                 |
  \\      /  F ield         | OpenFOAM: The Open Source CFD Toolbox
   \\    /   O peration     | Website:  https://openfoam.org
    \\  /    A nd           | Version:  7
     \\/     M anipulation  |
\*---------------------------------------------------------------------------*/
FoamFile
{
    version     2.0;
    format      ascii;
    class       volTensorField;
    location    "0.0009";
    object      grad(U);
}
// * * * * * * * * * * * * * * * * * * * * * * * * * * * * * * * * * * * * * //

dimensions      [0 0 -1 0 0 0 0];

internalField   nonuniform List<tensor> 
1166
(
(-0.00154275836 2.113038335e-16 0.0001116016014 -3.028781773e-15 -0.002496085488 0 8.672902417e-06 -1.0516815e-16 0.01733567808)
(-0.0020755572 -9.084273329e-17 0.0002557077598 -1.20160108e-15 -0.002197857946 0 2.320993175e-05 -2.98692555e-16 0.01734858905)
(-0.002086731664 -2.800365705e-15 0.0004106400889 -5.86902134e-16 -0.00212084022 0 4.148117639e-05 -4.875049131e-16 0.01737853899)
(-0.002189629918 -2.530961758e-15 0.0005669594982 8.835259458e-16 -0.002125107249 0 7.238648592e-05 -6.72197439e-16 0.0174281241)
(-0.002274672721 -9.082347826e-16 0.0007234509507 8.444108776e-16 -0.002146428839 0 0.0001196532404 -4.988181298e-16 0.01750215149)
(-0.00237537065 -1.220344253e-15 0.0008474915759 8.80706922e-16 -0.002174941345 0 0.0001477915117 -6.140838321e-16 0.01760689257)
(-0.002543653988 -1.503881036e-15 0.0008794258869 9.585738906e-16 -0.002211579947 0 9.236132405e-05 -7.600806748e-16 0.01774928913)
(-0.00278573817 4.724537789e-17 0.000782875734 1.045248421e-15 -0.00226567291 0 -7.944335408e-05 -6.365030806e-16 0.01793791598)
(-0.002687253387 1.263756726e-15 0.0005457850435 7.545279958e-16 -0.002336199142 0 -0.0003713832064 -4.06672308e-16 0.0181852211)
(-0.001666250674 1.413540391e-15 0.0001579713862 5.909285284e-16 -0.002349491962 0 -0.0007893970012 -2.309126587e-16 0.01850429404)
(0.000147641003 1.627278378e-15 -0.0004053324394 3.751823308e-16 -0.002223671639 0 -0.001352947958 -1.826275869e-16 0.0188813801)
(0.002204612075 1.973849918e-15 -0.001171328834 2.293283553e-16 -0.001958758261 0 -0.002068889881 -1.459134318e-16 0.01927809025)
(0.004315933298 2.367544259e-15 -0.002006736334 3.873295418e-17 -0.001588071256 0 -0.002784983403 6.1117938e-17 0.01964767624)
(0.006339952066 2.678493208e-15 -0.002643165814 -1.142957421e-16 -0.00113100358 0 -0.003292111148 1.606116146e-16 0.01994251138)
(0.007428602156 2.957120291e-15 -0.002877438851 -2.946594033e-16 -0.0006220644075 0 -0.003530646388 1.920934056e-16 0.02012106256)
(0.007069074772 2.196695852e-15 -0.002640606409 -4.356506421e-16 -0.000161825528 0 -0.003515963152 2.370903185e-16 0.02016236084)
(0.006063389279 1.55027179e-15 -0.002023961155 -4.960614988e-16 0.0001898591249 0 -0.003269873549 2.899652838e-16 0.02009587603)
(0.005112558403 1.020540706e-15 -0.001268788084 -5.46285003e-16 0.0004518855255 0 -0.002911618515 3.507368839e-16 0.01996626759)
(0.004242362439 1.233584845e-16 -0.0005666777117 -5.466152922e-16 0.0006444544475 0 -0.002569326976 3.515580533e-16 0.01981750875)
(0.00341642688 -2.403240253e-16 4.894414632e-05 -5.074399284e-16 0.0007808014825 0 -0.002265875484 3.554681984e-16 0.01967916366)
(0.00263769713 -1.563362371e-16 0.0005934321044 -4.799322066e-16 0.0008711195712 0 -0.001996327775 3.675241692e-16 0.01955884799)
(0.001926533515 -8.758528938e-17 0.001075896391 -4.587956526e-16 0.0009242752108 0 -0.001762107453 3.384948418e-16 0.01945900651)
(0.001330992122 -1.074325334e-17 0.001461324695 -4.364163004e-16 0.0009484101924 -1.160754004e-14 -0.001567033076 3.186809695e-16 0.01938802775)
(0.0008787295924 5.322285383e-17 0.001671113005 -4.26654265e-16 0.0009526408031 0 -0.00140668486 2.530754977e-16 0.01935588616)
(0.0005045565281 8.111762311e-17 0.001659145165 -4.150885712e-16 0.0009440215402 0 -0.001275950375 1.940021702e-16 0.01937080079)
(0.0001799803368 9.225107972e-17 0.001430696015 -4.044278004e-16 0.0009248593628 0 -0.001171516309 1.389944454e-16 0.01943101585)
(-2.826754497e-05 9.767674264e-17 0.001041146696 -3.918812723e-16 0.000898746795 0 -0.001090070585 8.447856701e-17 0.01952266444)
(-0.0001225868434 1.038930355e-16 0.0005947696686 -3.854100664e-16 0.0008708749124 0 -0.001030658024 2.560574811e-17 0.01963035173)
(-0.0001691324493 1.156037253e-16 0.0001616190282 -3.79518722e-16 0.0008434561591 0 -0.0009858407902 -4.339546478e-17 0.0197408608)
(-0.0002069170121 1.243212711e-16 -0.0002448531783 -3.728411683e-16 0.0008170249872 0 -0.0009452006634 -4.777115603e-17 0.01984810479)
(-0.0002635886984 1.209931304e-16 -0.0006235108437 -3.679515725e-16 0.000791391266 0 -0.0009028140977 -6.157746564e-17 0.01995113013)
(-0.0003641089194 1.088605587e-16 -0.0009708003753 -3.621948037e-16 0.0007657065078 0 -0.0008551145497 -8.242448873e-17 0.02004957118)
(-0.0005185675169 9.050995913e-17 -0.001282667433 -3.555484209e-16 0.0007387720902 0 -0.0008009739908 -9.419177313e-17 0.02014301099)
(-0.0007168148619 6.704744394e-17 -0.00155715292 -3.505555164e-16 0.0007095706692 0 -0.0007420386088 -1.112262402e-16 0.02023129516)
(-0.001746151003 6.997953852e-16 1.117762548e-05 -3.721193381e-15 -0.002833541657 0 -1.176634254e-05 -1.452588245e-16 0.01775903188)
(-0.002359546438 5.603706956e-16 1.428885241e-05 -1.866718471e-15 -0.002490423049 0 -4.000880104e-05 -4.078816097e-16 0.01780996046)
(-0.002433730695 1.676732809e-16 -1.407902298e-05 -1.229337276e-15 -0.002408889305 0 -0.000100778114 -6.885457662e-16 0.01791455376)
(-0.002664398454 -1.856699911e-17 -9.674869308e-05 -9.136993911e-16 -0.002443194752 4.482051145e-14 -0.0002130117741 -1.397802736e-15 0.01807551985)
(-0.002680475747 -9.215503552e-17 -0.0002526091118 -6.912994949e-16 -0.002511987155 0 -0.0003936514638 -1.388093953e-15 0.01829938582)
(-0.00213439899 -5.774898386e-17 -0.0004983948526 -5.594742836e-16 -0.002527121509 0 -0.0006570811795 -1.494257486e-15 0.01859367678)
(-0.001043567766 -7.586723505e-18 -0.000853438337 -4.8034655e-16 -0.002408088151 0 -0.001019649994 -1.680960882e-15 0.01894865976)
(0.0002751617622 8.477098667e-18 -0.001351870463 -4.109135638e-16 -0.002160139933 2.337641607e-14 -0.001508050611 -1.935513096e-15 0.01933706147)
(0.001683108474 3.800752951e-17 -0.002024411494 -3.676066815e-16 -0.001821751797 0 -0.002137597767 -1.765210233e-15 0.0197283895)
(0.00324300131 -3.814079248e-18 -0.002768824775 -3.381692898e-16 -0.001413165909 1.950903396e-14 -0.002794454681 -1.711096386e-15 0.02008810342)
(0.004969064782 -9.909408848e-17 -0.003364770806 -3.079215862e-16 -0.0009382922606 0 -0.003295224085 -1.494564735e-15 0.02037881037)
(0.006310259491 -1.440545768e-16 -0.003642338338 -2.713698848e-16 -0.0004052373159 1.703495859e-14 -0.003572438073 -1.360032193e-15 0.02056330831)
(0.006541411704 4.147742278e-16 -0.003520635799 -2.409340161e-16 0.0001078354729 0 -0.003637970057 -1.054198617e-15 0.02061185718)
(0.005900430688 8.536031535e-16 -0.003012955737 -2.892532523e-16 0.0005169530345 1.533697504e-14 -0.003495889198 -8.001130426e-16 0.02053447018)
(0.005083360646 6.666555516e-16 -0.002242956555 -3.153754669e-16 0.0008176758416 0 -0.003171188483 -4.242581577e-16 0.02036858922)
(0.004325194472 5.221036673e-16 -0.001426647886 -3.32580376e-16 0.001035389476 0 -0.00278865401 -9.866907725e-17 0.02016026207)
(0.00359945587 3.975974033e-16 -0.0007029828388 -3.361353157e-16 0.001188195099 0 -0.00244721244 1.151864945e-16 0.01995103953)
(0.002892609432 3.077207871e-16 -7.408424296e-05 -3.322304701e-16 0.00128841258 -1.321180588e-14 -0.002146839543 3.100030677e-16 0.01976637342)
(0.002215569088 2.597354183e-16 0.0004808521404 -3.324495742e-16 0.001345902989 -1.284635336e-14 -0.001880067105 3.61584744e-16 0.01960825079)
(0.00158575561 2.022584694e-16 0.0009732064878 -3.272501953e-16 0.00136920391 0 -0.001647901807 2.921607763e-16 0.01947666563)
(0.001041714893 1.249498893e-16 0.001375207232 -3.229441715e-16 0.001365883305 0 -0.001454459784 2.329351443e-16 0.01937866815)
(0.0006213434622 5.47397968e-17 0.001611412323 -3.194185048e-16 0.001344285266 0 -0.001295887633 1.810974634e-16 0.01932363971)
(0.0002777796203 3.689046798e-16 0.001628014988 -3.050686025e-16 0.001311827398 0 -0.001166492467 1.353365006e-16 0.01932005764)
(-3.339129382e-05 6.799858627e-16 0.001422041547 -3.200180752e-16 0.00127080355 0 -0.001063337928 9.717679838e-17 0.01936832487)
(-0.0002519017201 6.248048784e-16 0.001034157273 -3.266337787e-16 0.001223752319 0 -0.0009829521988 6.266692402e-17 0.01945495706)
(-0.0003557120817 5.799795485e-16 0.0005636810933 -3.36299304e-16 0.001175877061 0 -0.000925329844 3.055807383e-17 0.01956294804)
(-0.0004013148106 5.458920404e-16 9.608085336e-05 -3.434658823e-16 0.001129906639 0 -0.0008855160451 6.002774775e-19 0.01967695866)
(-0.0004303561887 5.299829966e-16 -0.0003458188511 -3.509213638e-16 0.001086471535 0 -0.0008526916352 -2.724396239e-17 0.01978829483)
(-0.0004689352127 5.688907339e-16 -0.0007610532303 -3.559866885e-16 0.00104542712 0 -0.0008198790965 -5.373107597e-17 0.01989526187)
(-0.0005425544421 6.197708459e-16 -0.001147059714 -3.613760021e-16 0.001005948027 0 -0.0007827028099 -7.526917921e-17 0.01999757691)
(-0.0006666030091 6.326281767e-16 -0.00149945261 -3.697206125e-16 0.0009667449537 0 -0.0007388410967 -9.652883046e-17 0.02009482209)
(-0.0008381944975 4.974656738e-16 -0.001815239968 -3.757176713e-16 0.0009265498007 0 -0.0006888979869 -1.188740391e-16 0.02018673615)
(-0.001039597544 3.595550047e-16 -0.00209394618 -3.715518404e-16 0.0008845647426 0 -0.0006358378818 -1.40461882e-16 0.02027339474)
(-0.001250049095 3.533609147e-16 -0.002336408165 -3.755761892e-16 0.0008405985509 0 -0.0005830641168 -1.641153089e-16 0.02035507422)
(-0.001456432199 3.348227466e-16 -0.002542961917 -3.707914483e-16 0.0007948840158 0 -0.0005327760779 -1.889704845e-16 0.02043200787)
(-0.001655521509 3.4579128e-16 -0.002712596883 -3.715205606e-16 0.0007477762363 -5.320797958e-15 -0.0004856216495 -2.1530819e-16 0.0205042562)
(-0.001849300517 1.948854506e-16 -0.002843309701 -3.738295999e-16 0.0006995699393 5.316687643e-15 -0.0004412890907 -2.722608515e-16 0.0205717355)
(-0.002040588481 -3.078838596e-18 -0.002932845808 -3.66023081e-16 0.0006504690572 5.316420353e-15 -0.0003992096775 -3.058009466e-16 0.02063430893)
(-0.002231884933 1.014808039e-16 -0.002979070373 -3.584620953e-16 0.0006006078026 0 -0.0003588513981 -3.152053854e-16 0.02069185583)
(-0.002425219547 2.226543392e-16 -0.002980085869 -3.550196541e-16 0.0005500649147 0 -0.0003198290565 -3.253951329e-16 0.02074429465)
(-0.002621108905 3.69035321e-16 -0.002934324135 -3.530862323e-16 0.0004988837164 0 -0.0002819980468 -3.384829977e-16 0.02079159523)
(-0.002817779366 5.40673314e-16 -0.002840620053 -3.552668802e-16 0.0004471143869 0 -0.000245474155 -3.501175019e-16 0.02083378259)
(-0.003012020219 5.282298939e-16 -0.002698170516 -3.589638386e-16 0.0003948481844 5.366116361e-15 -0.0002105238691 -3.643510397e-16 0.02087092781)
(-0.003201041408 5.162083033e-16 -0.002506350324 -3.608984896e-16 0.0003422203473 0 -0.0001773600376 -3.574043781e-16 0.02090312515)
(-0.003383880301 4.172881017e-16 -0.002264534233 -3.636840492e-16 0.0002893824814 0 -0.0001460245312 -3.494923055e-16 0.0209304704)
(-0.003561536271 4.290121462e-16 -0.001972025182 -3.626828915e-16 0.0002364686368 -5.431623853e-15 -0.0001164133655 -3.457230167e-16 0.02095305204)
(-0.003734388956 5.731229657e-16 -0.001628031649 -3.658279047e-16 0.0001835739378 5.458765384e-15 -8.836085265e-05 -3.60360082e-16 0.02097095123)
(-0.003892001791 4.809271554e-16 -0.001231577931 -3.684856952e-16 0.0001307982047 0 -6.169784306e-05 -3.569308111e-16 0.02098424003)
(-0.004006161335 2.80165633e-16 -0.0007815848217 -3.68620183e-16 7.848303525e-05 0 -3.627781015e-05 -3.526028749e-16 0.02099297848)
(-0.004261898791 9.259800157e-17 -0.0002709467739 -3.665167733e-16 2.738852806e-05 0 -1.192381785e-05 -3.503731072e-16 0.02099721516)
(-0.001331967511 2.208347189e-15 -0.0002754163791 -5.938016582e-15 -0.002266842497 0 -0.000197618063 1.181608852e-16 0.02055503896)
(-0.001583126743 2.773051886e-15 -0.0006125573043 -3.93882592e-15 -0.001934998403 0 -0.0005252319267 3.372768969e-16 0.02061353111)
(-0.001156935888 2.69001947e-15 -0.00101505905 -3.389819191e-15 -0.00171768959 0 -0.0008757804819 5.86340569e-16 0.02072340379)
(-0.0006132983507 8.261383256e-16 -0.001509329664 -3.219969205e-15 -0.001509093453 0 -0.001309763136 3.724330578e-16 0.02087296224)
(0.0001436328042 -3.253700918e-16 -0.002108699447 -2.355029957e-15 -0.001251448767 0 -0.001841557853 2.791058648e-16 0.02104625971)
(0.001094676107 4.329814632e-16 -0.002752252462 -1.960620084e-15 -0.0009391514875 0 -0.002410427852 -3.442579748e-17 0.02122211592)
(0.002269598711 1.0049258e-15 -0.003306433806 -1.778943507e-15 -0.0005699331851 0 -0.002896944469 -2.530383269e-16 0.021375743)
(0.003658858892 4.05120265e-16 -0.003683632657 -1.713084263e-15 -0.0001366782939 0 -0.003244631171 -4.29518632e-16 0.02147950812)
(0.004839332724 -2.292756682e-17 -0.003835286963 -1.484124765e-15 0.0003566647032 0 -0.003454521571 -2.276872976e-16 0.02150247621)
(0.005203783389 -2.436346987e-16 -0.003708064484 -1.368906122e-15 0.0008340022576 0 -0.0035237605 -2.122372656e-16 0.02141570425)
(0.004849613951 -4.900440556e-16 -0.003283259265 -1.18337528e-15 0.00120786659 0 -0.003436245456 -3.488182157e-16 0.02122194773)
(0.004323197017 -7.920624257e-16 -0.002607236408 -1.072818526e-15 0.001472843203 0 -0.003180712975 -4.585974818e-16 0.02095077353)
(0.003831612922 -1.145211152e-15 -0.001824076596 -9.028422607e-16 0.00165941515 1.636301726e-14 -0.002828708942 -5.480398442e-16 0.02063968626)
(0.003331253244 -1.378145423e-15 -0.001084733951 -7.833545976e-16 0.001786415359 0 -0.002485375478 -4.30228789e-16 0.02032683782)
(0.002801965221 -1.611927388e-15 -0.000435673614 -6.223758872e-16 0.001864515494 0 -0.002182174458 -3.259486721e-16 0.02004249752)
(0.002257788477 -1.36854678e-15 0.0001338702985 -5.075148128e-16 0.001902057431 0 -0.001912295838 -2.270661645e-16 0.01980145089)
(0.00171836026 -1.21199874e-15 0.0006404520377 -4.123481154e-16 0.001906479906 0 -0.001671573667 -1.274167819e-16 0.01959878852)
(0.001199797731 -6.535868667e-16 0.001093308079 -3.341287311e-16 0.001884424647 0 -0.001461518094 -1.727184895e-17 0.01943188638)
(0.0007352928137 2.704773649e-16 0.001467038117 -3.121457348e-16 0.001841717773 0 -0.001286032623 -2.092607545e-17 0.01930575798)
(0.0003686495784 6.795683714e-16 0.001690221949 -3.261345799e-16 0.001785191402 0 -0.001142122096 -6.257760678e-17 0.01922798228)
(6.884057835e-05 6.514216335e-16 0.001707155309 -3.431575452e-16 0.001721730615 0 -0.001024563326 -1.494453518e-16 0.01920605336)
(-0.0002142272707 6.340799844e-16 0.001508467883 -3.571299181e-16 0.001653176621 0 -0.0009313668167 -2.274776642e-16 0.01924149832)
(-0.0004297565035 6.250396322e-16 0.001119481126 -3.653533333e-16 0.001580836013 0 -0.0008591528364 -2.995624822e-16 0.01932172265)
(-0.0005379024309 6.191304491e-16 0.0006274085397 -3.767721337e-16 0.001509391556 0 -0.0008081691919 -3.169671586e-16 0.01942870196)
(-0.0005807690374 6.092343463e-16 0.0001265596106 -3.827545971e-16 0.001441890787 0 -0.000776007521 -3.321481931e-16 0.01954546043)
(-0.0006003438478 5.931564771e-16 -0.0003496684953 -3.891278833e-16 0.001378997403 0 -0.0007526995424 -3.459840567e-16 0.01966066071)
(-0.0006214287756 5.727448379e-16 -0.0007995010338 -3.931088457e-16 0.00132052299 0 -0.0007306048106 -3.59670073e-16 0.01977138492)
(-0.0006691300005 5.589260165e-16 -0.00122184363 -4.002494332e-16 0.001265602279 0 -0.0007049675409 -3.728081809e-16 0.019877353)
(-0.0007630845803 5.259094e-16 -0.00161278795 -4.077413817e-16 0.001212819365 1.1134058e-14 -0.000672704599 -3.428108559e-16 0.01997818246)
(-0.0009076244354 4.988063756e-16 -0.001968764609 -4.047837535e-16 0.001160613167 0 -0.000633400321 -2.971284188e-16 0.02007351165)
(-0.001089877522 5.099132167e-16 -0.002288411692 -4.076623745e-16 0.00110778346 0 -0.0005892846484 -2.437444717e-16 0.02016332289)
(-0.001288376265 5.057211441e-16 -0.002572190349 -4.109204158e-16 0.001053788345 -5.464707867e-15 -0.0005437570166 -2.02471292e-16 0.02024790491)
(-0.001486018499 5.05210991e-16 -0.002820776124 -4.118833006e-16 0.000998673885 0 -0.000499586247 -2.257200915e-16 0.02032759819)
(-0.001676632302 5.198166124e-16 -0.00303376304 -4.105619248e-16 0.0009427387655 0 -0.0004580534194 -2.463038254e-16 0.02040258542)
(-0.001861452565 5.259098467e-16 -0.003209511357 -4.175258275e-16 0.0008862566549 0 -0.000419198862 -2.650478105e-16 0.02047286749)
(-0.002043395227 6.912527269e-16 -0.003345816491 -4.195225925e-16 0.0008294054229 0 -0.0003825405139 -2.839401745e-16 0.02053834975)
(-0.002224950744 7.099644403e-16 -0.003440467632 -4.284261516e-16 0.0007722880223 0 -0.0003475453915 -2.995027698e-16 0.02059893242)
(-0.002408268464 4.273953906e-16 -0.003491435111 -4.29722781e-16 0.0007149544332 0 -0.0003137740464 -3.338791005e-16 0.02065455083)
(-0.002594722438 2.893973602e-16 -0.003496949387 -4.260377603e-16 0.0006574122915 0 -0.000280969615 -3.330859545e-16 0.0207051889)
(-0.00278372561 2.963067902e-16 -0.003455616848 -4.252624479e-16 0.0005996577665 0 -0.0002491448076 -3.199511726e-16 0.02075088965)
(-0.002972707367 3.032655553e-16 -0.003366474587 -4.220982868e-16 0.0005417191307 0 -0.0002185546661 -3.191424932e-16 0.02079175254)
(-0.00315859552 3.103666338e-16 -0.003228854416 -4.218172653e-16 0.0004836754552 0 -0.0001894994353 -3.029462532e-16 0.02082791634)
(-0.003339412425 1.787715747e-16 -0.003042172746 -4.204347788e-16 0.0004256418486 0 -0.0001621341627 -2.835957801e-16 0.02085953334)
(-0.003514664674 4.098381395e-17 -0.002805799559 -4.132518274e-16 0.0003677378354 0 -0.000136428574 -2.660567618e-16 0.02088675288)
(-0.003684758492 3.504859317e-17 -0.002519045602 -4.082266576e-16 0.0003100682772 0 -0.0001122495167 -2.450366117e-16 0.02090971645)
(-0.003850966513 1.373548189e-16 -0.00218118462 -4.040195748e-16 0.0002527171495 5.516213928e-15 -8.944648454e-05 -2.329029956e-16 0.02092855917)
(-0.004013708459 1.408611052e-16 -0.00179137435 -4.006245929e-16 0.0001957342266 -5.54377815e-15 -6.786603313e-05 -1.961491069e-16 0.020943407)
(-0.00416268011 6.069185447e-18 -0.001348509369 -3.959974067e-16 0.0001391771885 0 -4.735652025e-05 -1.675049744e-16 0.02095437179)
(-0.004269838986 -2.301743504e-17 -0.0008513627913 -3.902729864e-16 8.334702973e-05 -5.606516974e-15 -2.781171623e-05 -1.361910816e-16 0.0209615458)
(-0.004520978022 -8.115598593e-18 -0.0002939021505 -3.855677004e-16 2.896507213e-05 -5.641563924e-15 -9.107633541e-06 -1.210110829e-16 0.02096500914)
(0.0007042443975 -9.115545675e-16 -0.0004291547851 -1.440389847e-15 0.0010518678 0 -0.0003232728278 -1.780608563e-17 0.02264075063)
(0.001160622468 -1.841365995e-15 -0.0009103745927 3.177703278e-16 0.0009739675616 0 -0.0008371005657 -4.996652327e-17 0.02262645565)
(0.001659047743 3.441507779e-16 -0.001383999828 1.058526011e-15 0.001089236437 0 -0.001292497638 -6.290929046e-17 0.02258936426)
(0.002443766049 1.529210383e-15 -0.001810115905 1.12859905e-16 0.001330313033 0 -0.001715019256 -6.424871899e-17 0.02251755796)
(0.003210392026 2.151539689e-15 -0.002131357675 -9.476572027e-17 0.001655805722 0 -0.002070140162 -4.233290392e-16 0.02239280006)
(0.003581514367 2.786387759e-15 -0.002302356215 -6.529618505e-16 0.00198057439 0 -0.002337329316 -3.734100987e-16 0.02219428621)
(0.00355034787 2.165992126e-15 -0.002289745517 -8.983697942e-16 0.002221116349 0 -0.002497620797 -3.325512312e-16 0.02191968356)
(0.003412114471 -2.341175273e-16 -0.002074206075 -1.030098725e-15 0.00237783512 0 -0.002527216226 -2.847062636e-16 0.02158532096)
(0.003289587888 -1.153660941e-15 -0.001659879136 -6.675101612e-16 0.002484239079 0 -0.002408986857 -2.210926348e-16 0.02121028677)
(0.003131639669 7.329633199e-16 -0.001127590338 -5.894946706e-16 0.002556239794 0 -0.00219218039 -1.349418123e-16 0.02081754642)
(0.002900865413 1.347442843e-15 -0.000593909662 -6.763007461e-16 0.002597898593 0 -0.001964897267 -1.510768251e-16 0.02043336941)
(0.002597039084 1.043456235e-15 -0.0001063621114 -7.120525445e-16 0.002611143916 0 -0.001758821767 -1.421586115e-16 0.02008227171)
(0.00223057887 1.748353048e-16 0.000339544426 -7.302765453e-16 0.002598083516 0 -0.001565810904 -2.325277465e-16 0.01978076297)
(0.001822559051 -5.68123735e-16 0.0007496592582 -6.488015293e-16 0.00256103956 0 -0.001383562233 -1.825543351e-16 0.01952814359)
(0.00140037399 -6.629456859e-16 0.001127715066 -5.692313043e-16 0.002503608436 0 -0.001215860824 -3.102846013e-16 0.01931725585)
(0.0009814840446 -7.970868893e-16 0.001473765483 -4.976455934e-16 0.002429870195 0 -0.001067279303 -5.058182383e-16 0.01914604715)
(0.000592111958 -1.017915675e-15 0.00175820609 -4.256349437e-16 0.002343473964 0 -0.0009422368313 -6.753391694e-16 0.01901883341)
(0.0002723744055 -4.058550755e-16 0.001913550841 -3.526394713e-16 0.002249237237 0 -0.0008393775802 -8.289970435e-16 0.01894178842)
(3.442498067e-06 5.776709054e-16 0.001889296319 -3.493546207e-16 0.00215267302 0 -0.0007557815675 -8.988560058e-16 0.01892163992)
(-0.000259128737 1.117008253e-15 0.001673204259 -3.659122477e-16 0.002054869494 0 -0.0006909439408 -9.039619413e-16 0.01896052666)
(-0.0004725796997 1.308152531e-15 0.001274580612 -4.070993856e-16 0.0019560839 0 -0.0006421144328 -9.0492541e-16 0.01904711525)
(-0.0005902251443 1.15399013e-15 0.0007618627846 -4.382524949e-16 0.001860298984 0 -0.0006103069647 -9.08934689e-16 0.01916350669)
(-0.0006418995888 1.02711136e-15 0.000229502573 -4.630619179e-16 0.001770566494 0 -0.0005955487717 -9.150053232e-16 0.01929206416)
(-0.0006653675606 9.247034282e-16 -0.0002800138089 -4.848718529e-16 0.001687469591 0 -0.0005896041014 -8.693071425e-16 0.01941949835)
(-0.0006818206388 8.475594348e-16 -0.000762923992 -4.923729257e-16 0.001610786431 0 -0.0005847000765 -8.228571234e-16 0.01954152898)
(-0.0007147200335 7.958567194e-16 -0.0012194193 -5.060680978e-16 0.001539657498 0 -0.0005760020865 -7.739431011e-16 0.01965789058)
(-0.0007859850989 7.604135316e-16 -0.001646413505 -5.14501883e-16 0.001472604626 0 -0.000560001816 -7.663025957e-16 0.01976839218)
(-0.0009056638192 3.869068581e-16 -0.002040126642 -5.178479018e-16 0.001407865659 0 -0.0005354510457 -7.492618701e-16 0.01987268751)
(-0.00106728371 -6.107308773e-17 -0.00239851966 -5.107127103e-16 0.001343904157 0 -0.0005038763495 -7.294562044e-16 0.01997069773)
(-0.001252911698 -2.194474985e-16 -0.002721719023 -4.905646525e-16 0.00127979535 0 -0.0004686562777 -7.099861753e-16 0.02006269767)
(-0.001444170618 -1.815129061e-16 -0.003010708849 -4.684863002e-16 0.001215274218 0 -0.0004331912454 -6.681504753e-16 0.02014911999)
(-0.001630805476 3.493720649e-16 -0.003265694151 -4.552581053e-16 0.001150484161 0 -0.0003995014052 -6.22856891e-16 0.02023030876)
(-0.001811137044 7.528069217e-16 -0.003485462552 -4.668743302e-16 0.001085661691 0 -0.0003680541369 -5.868993204e-16 0.02030641495)
(-0.001987368207 7.134642193e-16 -0.00366791869 -4.680665737e-16 0.001020977754 0 -0.0003384888466 -5.464035638e-16 0.02037744238)
(-0.002162123327 6.866818616e-16 -0.003810823404 -4.75018946e-16 0.0009565214874 0 -0.0003103076651 -5.167652809e-16 0.02044334588)
(-0.002337800283 6.760332538e-16 -0.003912079133 -4.769684345e-16 0.0008923223212 0 -0.0002830854492 -4.800582804e-16 0.02050409734)
(-0.002516458193 6.862028267e-16 -0.003969784626 -4.832937964e-16 0.0008283601609 0 -0.0002565197792 -4.479285451e-16 0.02055970753)
(-0.002698681216 3.274891325e-16 -0.003982332493 -4.886242861e-16 0.0007645855461 0 -0.0002305232344 -4.114273491e-16 0.02061024058)
(-0.002882783195 -3.656536462e-17 -0.003948532289 -4.782172014e-16 0.0007009654796 0 -0.0002052784025 -3.980808885e-16 0.02065582077)
(-0.003065667285 8.384177043e-17 -0.003867588411 -4.680993056e-16 0.0006375198824 0 -0.0001811289049 -3.827452523e-16 0.02069662386)
(-0.003244680347 1.893982329e-16 -0.003738915713 -4.649544536e-16 0.0005743231208 0 -0.0001583590563 -3.761132141e-16 0.02073285109)
(-0.003418768781 1.611803615e-16 -0.003561950743 -4.593704107e-16 0.0005114721684 0 -0.000137064767 -3.663856224e-16 0.02076470473)
(-0.003588006368 1.261296788e-16 -0.003336079349 -4.540066725e-16 0.000449055839 0 -0.0001171855431 -3.661399715e-16 0.02079237856)
(-0.003752678364 8.554038595e-17 -0.003060641996 -4.495200516e-16 0.0003871478338 0 -9.859187993e-05 -3.759316925e-16 0.02081605894)
(-0.003913240458 4.241335065e-17 -0.002734936159 -4.431762353e-16 0.0003258099709 0 -8.114058104e-05 -3.837329345e-16 0.02083592478)
(-0.004071071036 -1.35925073e-16 -0.002358164887 -4.376657257e-16 0.0002650875529 0 -6.468542397e-05 -3.895837631e-16 0.02085214373)
(-0.004226727801 -1.907777939e-16 -0.001929337329 -4.278254949e-16 0.0002049922803 0 -4.909206716e-05 -3.846944375e-16 0.02086486629)
(-0.004369383476 -2.353898801e-16 -0.001447136879 -4.208216323e-16 0.0001455467071 0 -3.424856644e-05 -3.841963144e-16 0.02087422197)
(-0.004470651945 -2.816977722e-16 -0.0009101425882 -4.10773185e-16 8.703396348e-05 0 -2.009877195e-05 -3.903215287e-16 0.0208803141)
(-0.004717110472 -9.266747936e-17 -0.000313220102 -4.031997817e-16 3.015409685e-05 0 -6.550357902e-06 -3.920298111e-16 0.02088322473)
(0.002473857415 2.396714466e-15 -0.0001728683427 -6.21236404e-15 0.00402851811 0 -0.0002006205563 -3.354633089e-16 0.02115059088)
(0.003308728848 2.912159789e-15 -0.0003352882104 -4.208004774e-15 0.003533026008 0 -0.0005150564098 -9.544767348e-16 0.02108410374)
(0.003289481276 2.7182639e-15 -0.0004485931519 -3.574265568e-15 0.003393400449 6.393096841e-14 -0.000769989791 -1.641298902e-15 0.02095227207)
(0.003385020502 2.866054187e-15 -0.0004800806255 -3.352563122e-15 0.003381284634 0 -0.0009609716204 -1.45358865e-15 0.02076246622)
(0.003402328305 1.155677531e-15 -0.0003925545141 -3.263047376e-15 0.003385009606 3.754337655e-14 -0.00105303087 -1.525075008e-15 0.02052400085)
(0.003368320198 -9.472867311e-18 -0.0002054341968 -2.621680034e-15 0.00338633865 0 -0.001062600801 -1.165522567e-15 0.02024998267)
(0.003278529257 5.409345407e-16 2.270612677e-05 -2.280901666e-15 0.003378835504 0 -0.001040715829 -9.692054564e-16 0.01995639869)
(0.003127399473 -2.232156858e-16 0.0002627161344 -2.092282189e-15 0.003358472133 -2.448567956e-14 -0.001008480838 -8.409941606e-16 0.01966103911)
(0.002910774489 -8.868701488e-16 0.0005141370664 -1.757131608e-15 0.003323059209 2.22136144e-14 -0.0009596868985 -1.248477437e-15 0.01938239816)
(0.002630283246 -6.049601591e-16 0.0007743659577 -1.516643937e-15 0.003270857575 2.043478147e-14 -0.0008923962234 -1.307236181e-15 0.0191362281)
(0.002299673638 -4.252554e-16 0.001036416512 -1.327258749e-15 0.003201691945 0 -0.0008121865895 -1.118309314e-15 0.01892582943)
(0.001930479995 -2.593345435e-16 0.001296229955 -1.20233212e-15 0.003116992069 0 -0.0007250730071 -1.002703195e-15 0.01874639726)
(0.001539584702 -9.084483294e-16 0.001552004092 -1.095993293e-15 0.003018160875 0 -0.0006369233902 -9.496760976e-16 0.01859558554)
(0.00115437781 -8.523351785e-16 0.00179261404 -9.177615382e-16 0.002908078709 0 -0.0005562755284 -1.047518725e-15 0.01847675612)
(0.0007981517983 4.455010318e-16 0.00198073057 -8.558828308e-16 0.002790469104 0 -0.000488520167 -1.176801031e-15 0.018396302)
(0.0004920039316 9.717093255e-16 0.002056126152 -8.663926941e-16 0.00266919226 0 -0.0004326855709 -1.331467885e-15 0.01836074223)
(0.0002195260828 8.954450407e-16 0.001980555118 -8.645272436e-16 0.002548291812 0 -0.0003879784748 -1.529274391e-15 0.01837725931)
(-4.93459172e-05 8.210454083e-16 0.001741869098 -8.784353757e-16 0.002428208141 1.383873576e-14 -0.0003556499253 -1.787832971e-15 0.01844849128)
(-0.0002770903574 7.721559487e-16 0.001336945323 -8.672774924e-16 0.002308942125 1.34559417e-14 -0.0003341650545 -1.810408039e-15 0.01856456792)
(-0.0004218986358 7.277733256e-16 0.0008170477217 -8.649562355e-16 0.002193969694 1.312170645e-14 -0.0003252602328 -1.751548309e-15 0.01870916507)
(-0.0005030275288 6.972262953e-16 0.0002697805555 -8.581999624e-16 0.002086175283 0 -0.0003307083939 -1.602384516e-15 0.01886548778)
(-0.0005504224908 7.14810092e-16 -0.0002581847551 -8.471823313e-16 0.001986245233 0 -0.0003441705964 -1.487614129e-15 0.01901943808)
(-0.0005824362431 3.344881286e-16 -0.0007608903977 -8.440805864e-16 0.001894042942 0 -0.000358401688 -1.400423886e-15 0.01916556531)
(-0.0006201265749 -6.073016943e-17 -0.00123929608 -8.098282925e-16 0.001808813479 0 -0.0003687775315 -1.339827692e-15 0.01930362857)
(-0.0006856963004 -1.092011956e-16 -0.001690979867 -7.836899194e-16 0.001729146481 0 -0.0003714837408 -1.299185097e-15 0.01943379457)
(-0.0007935399839 1.664910516e-16 -0.002112003578 -7.535999798e-16 0.001653227486 0 -0.0003644948935 -1.225551338e-15 0.0195559193)
(-0.0009437634148 3.804648231e-16 -0.002499626163 -7.48080928e-16 0.001579295753 0 -0.0003485152869 -1.154979281e-15 0.01966999551)
(-0.001123065337 2.610455718e-16 -0.002853351081 -7.294917677e-16 0.001506097736 -1.158138868e-14 -0.0003265616823 -1.086887604e-15 0.01977637322)
(-0.001313086286 1.967340044e-16 -0.003174095644 -7.177220947e-16 0.001433076368 0 -0.0003023312795 -1.117056633e-15 0.01987564625)
(-0.001500382819 -2.492164181e-17 -0.003462564232 -7.041661671e-16 0.001360226778 0 -0.0002785456807 -1.141326981e-15 0.01996838884)
(-0.001680613995 -2.389338834e-16 -0.003718217423 -6.860117305e-16 0.001287761941 5.66512913e-15 -0.0002563656354 -1.184015321e-15 0.02005497339)
(-0.001855255467 -1.962410207e-16 -0.003939346392 -6.660014634e-16 0.001215862488 1.127248758e-14 -0.0002358094896 -1.198991253e-15 0.0201355688)
(-0.002027039458 -1.636699359e-16 -0.004123767058 -6.4132942e-16 0.001144618303 0 -0.0002164768556 -1.128037981e-15 0.0202102443)
(-0.002198380683 -1.037040098e-16 -0.004269296569 -6.228803623e-16 0.001074050043 0 -0.0001979375226 -1.048806993e-15 0.02027906147)
(-0.002371494108 -7.806320481e-17 -0.00437389717 -6.105160649e-16 0.001004128515 0 -0.0001798349382 -9.758708631e-16 0.02034210759)