/*--------------------------------*- C++ -*----------------------------------*\
  =========                 |
  \\      /  F ield         | OpenFOAM: The Open Source CFD Toolbox
   \\    /   O peration     | Website:  https://openfoam.org
    \\  /    A nd           | Version:  7
     \\/     M anipulation  |
\*---------------------------------------------------------------------------*/
FoamFile
{
    version     2.0;
    format      ascii;
    class       volVectorField;
    location    "0.0009";
    object      U;
}
// * * * * * * * * * * * * * * * * * * * * * * * * * * * * * * * * * * * * * //

dimensions      [0 1 -1 0 0 0 0];

internalField   nonuniform List<vector> 
1166
(
(-3.140393706e-08 3.813884019e-20 -0.002071077891)
(-8.24432836e-08 4.52395209e-20 -0.002071074195)
(-1.31446211e-07 3.677575247e-20 -0.002071066387)
(-1.827437113e-07 -7.58036099e-20 -0.002071054882)
(-2.351673463e-07 -9.280209656e-20 -0.002071039839)
(-2.886037101e-07 -1.174671201e-19 -0.002071021436)
(-3.436776995e-07 -1.481874827e-19 -0.002071001187)
(-4.025710858e-07 -1.846405105e-19 -0.002070981883)
(-4.661969005e-07 -1.496734827e-19 -0.002070966474)
(-5.192828058e-07 -1.292556023e-19 -0.002070957951)
(-5.383222716e-07 -9.036521092e-20 -0.002070959353)
(-5.146926326e-07 -6.102541207e-20 -0.002070974335)
(-4.495183527e-07 -1.032647283e-20 -0.002071006676)
(-3.426690742e-07 3.428275875e-20 -0.002071054431)
(-2.006328477e-07 9.478424517e-20 -0.00207111062)
(-5.529818429e-08 1.488977061e-19 -0.002071165804)
(6.845309251e-08 1.788830872e-19 -0.002071211182)
(1.712780809e-07 2.06738821e-19 -0.002071241648)
(2.559582462e-07 2.166714627e-19 -0.002071257964)
(3.240130739e-07 2.115303261e-19 -0.00207126229)
(3.767153738e-07 2.081540665e-19 -0.002071256477)
(4.155547229e-07 2.06087347e-19 -0.002071241959)
(4.423706268e-07 2.051507245e-19 -0.002071220108)
(4.600828584e-07 2.056932452e-19 -0.002071193366)
(4.712277277e-07 2.068740042e-19 -0.002071165475)
(4.763815677e-07 2.082884456e-19 -0.002071140055)
(4.769698338e-07 2.097751241e-19 -0.002071120288)
(4.755291703e-07 2.113043505e-19 -0.002071107722)
(4.732487336e-07 2.129230053e-19 -0.002071102106)
(4.704844006e-07 2.147408192e-19 -0.002071102793)
(4.671938736e-07 2.165543922e-19 -0.002071109164)
(4.62923782e-07 2.182120996e-19 -0.002071120597)
(4.56954932e-07 2.196212537e-19 -0.002071136431)
(4.486165423e-07 2.207160744e-19 -0.002071155991)
(-3.564956581e-08 4.682349892e-20 -0.002073242278)
(-9.341761785e-08 7.00867509e-20 -0.002073241908)
(-1.492990225e-07 7.689705733e-20 -0.002073241583)
(-2.100969146e-07 7.884338225e-20 -0.002073242429)
(-2.752186994e-07 7.645706157e-20 -0.00207324591)
(-3.353362357e-07 7.451962597e-20 -0.002073253846)
(-3.742149122e-07 7.374378803e-20 -0.002073268281)
(-3.83819692e-07 7.41182398e-20 -0.002073291665)
(-3.635370914e-07 7.413968591e-20 -0.002073327265)
(-3.123367818e-07 7.569701249e-20 -0.002073378562)
(-2.271484747e-07 7.411078592e-20 -0.002073444284)
(-1.064820836e-07 7.160334503e-20 -0.002073518528)
(3.052383448e-08 6.824836795e-20 -0.002073593322)
(1.566253378e-07 8.752040505e-20 -0.002073660203)
(2.63722905e-07 1.02049668e-19 -0.002073712557)
(3.538079483e-07 1.134100368e-19 -0.002073747506)
(4.283998941e-07 1.219566511e-19 -0.002073767167)
(4.883467643e-07 1.282889562e-19 -0.00207377405)
(5.345528609e-07 1.332484669e-19 -0.002073770151)
(5.681853551e-07 1.376282819e-19 -0.002073757009)
(5.906757886e-07 1.40412613e-19 -0.002073736035)
(6.04391511e-07 1.419763105e-19 -0.002073709561)
(6.118807169e-07 1.422965907e-19 -0.002073681361)
(6.137412213e-07 1.540251031e-19 -0.002073655265)
(6.108610873e-07 1.645592849e-19 -0.002073634735)
(6.056771228e-07 1.740997236e-19 -0.002073621912)
(5.996476257e-07 1.828454175e-19 -0.002073616824)
(5.932527168e-07 1.909892626e-19 -0.002073618806)
(5.865711634e-07 1.989316194e-19 -0.002073627201)
(5.792758632e-07 2.079138037e-19 -0.002073641372)
(5.707130457e-07 2.170459926e-19 -0.002073660647)
(5.601649374e-07 2.260660256e-19 -0.002073684323)
(5.471325016e-07 2.311211617e-19 -0.002073711708)
(5.314571639e-07 2.36004446e-19 -0.002073742154)
(5.132457135e-07 2.407075803e-19 -0.002073775056)
(4.926999086e-07 2.44924601e-19 -0.002073809838)
(4.700010262e-07 2.497319052e-19 -0.002073845929)
(4.452842863e-07 2.499916159e-19 -0.00207388276)
(4.186471398e-07 2.496601832e-19 -0.002073919763)
(3.901546049e-07 2.524483729e-19 -0.002073956378)
(3.598500778e-07 2.550595186e-19 -0.00207399205)
(3.277840467e-07 2.611772452e-19 -0.002074026244)
(2.940398713e-07 2.676819189e-19 -0.002074058442)
(2.587381982e-07 2.732988266e-19 -0.002074088147)
(2.220180333e-07 2.792904004e-19 -0.002074114888)
(1.84010961e-07 2.825512493e-19 -0.002074138213)
(1.4482304e-07 2.885493247e-19 -0.002074157692)
(1.045673687e-07 2.947397749e-19 -0.002074172912)
(6.355614885e-08 2.986209757e-19 -0.002074183475)
(2.245770261e-08 3.005060722e-19 -0.002074188999)
(-2.851976803e-08 7.468164971e-20 -0.002075562445)
(-7.258322697e-08 1.478574991e-19 -0.002075571566)
(-1.064595937e-07 2.099772479e-19 -0.002075590089)
(-1.297710214e-07 2.769320114e-19 -0.00207561912)
(-1.371114105e-07 2.577242315e-19 -0.002075660474)
(-1.246206498e-07 2.600178188e-19 -0.00207571624)
(-8.856714683e-08 2.765544224e-19 -0.0020757855)
(-2.428538071e-08 3.044704673e-19 -0.002075864205)
(7.117371809e-08 2.962146936e-19 -0.002075947666)
(1.843305018e-07 3.027795939e-19 -0.002076030224)
(2.924089489e-07 2.867748695e-19 -0.002076105479)
(3.870112818e-07 2.819052454e-19 -0.002076167614)
(4.697129061e-07 2.551170197e-19 -0.002076212776)
(5.412443497e-07 2.356502777e-19 -0.002076241427)
(6.013574299e-07 2.01237449e-19 -0.002076255978)
(6.499612491e-07 1.730852153e-19 -0.002076258634)
(6.873751546e-07 1.491381834e-19 -0.002076251176)
(7.142530995e-07 1.278324277e-19 -0.002076234992)
(7.314758288e-07 1.247597682e-19 -0.002076211364)
(7.408097534e-07 1.371659335e-19 -0.00207618244)
(7.445618414e-07 1.487293203e-19 -0.002076151831)
(7.432692609e-07 1.597114417e-19 -0.002076123337)
(7.373554432e-07 1.702643022e-19 -0.002076100491)
(7.289685462e-07 1.805432206e-19 -0.002076085857)
(7.197493809e-07 1.90517372e-19 -0.002076079794)
(7.103014482e-07 2.001047403e-19 -0.002076081635)
(7.008087644e-07 2.092117009e-19 -0.00207609067)
(6.910645755e-07 2.178216745e-19 -0.002076106234)
(6.80492071e-07 2.261763323e-19 -0.002076127645)
(6.683398904e-07 2.335026111e-19 -0.002076154184)
(6.539744222e-07 2.407572465e-19 -0.002076185128)
(6.370896435e-07 2.481287313e-19 -0.002076219787)
(6.177127741e-07 2.550048641e-19 -0.002076257519)
(5.960339451e-07 2.620865942e-19 -0.002076297719)
(5.722437741e-07 2.691048157e-19 -0.002076339796)
(5.46484304e-07 2.760869413e-19 -0.002076383162)
(5.188561467e-07 2.871021445e-19 -0.002076427228)
(4.894283149e-07 2.943529901e-19 -0.002076471412)
(4.582420913e-07 2.979150555e-19 -0.002076515135)
(4.253302342e-07 3.014992187e-19 -0.002076557835)
(3.907477133e-07 3.050967347e-19 -0.002076598964)
(3.54587333e-07 3.087133726e-19 -0.002076637998)
(3.169716344e-07 3.123432344e-19 -0.002076674434)
(2.780308818e-07 3.128536852e-19 -0.002076707797)
(2.37888447e-07 3.13263181e-19 -0.002076737628)
(1.966549398e-07 3.136248223e-19 -0.002076763492)
(1.544163952e-07 3.162061588e-19 -0.002076784974)
(1.11265995e-07 3.166480023e-19 -0.002076801673)
(6.749504795e-08 3.163397716e-19 -0.002076813205)
(2.37504175e-08 3.161710523e-19 -0.002076819198)
(1.323383768e-08 1.808743669e-20 -0.002078351042)
(3.653424647e-08 -1.196388499e-20 -0.002078365254)
(6.750909433e-08 -6.577688167e-20 -0.002078392335)
(1.143972103e-07 -1.003908723e-20 -0.002078430526)
(1.814136256e-07 1.035078777e-20 -0.00207847736)
(2.628121988e-07 8.586082679e-20 -0.002078529432)
(3.451596485e-07 1.393061603e-19 -0.002078582625)
(4.225003804e-07 1.836600315e-19 -0.002078632467)
(4.957387997e-07 1.337406252e-19 -0.00207867447)
(5.649780437e-07 1.315615098e-19 -0.002078704829)
(6.289177985e-07 1.634636919e-19 -0.002078722877)
(6.861165886e-07 1.880146233e-19 -0.002078730007)
(7.354117254e-07 2.063754851e-19 -0.002078727567)
(7.759383531e-07 1.959766171e-19 -0.002078716648)
(8.074824473e-07 1.840180108e-19 -0.002078698244)
(8.303227031e-07 1.703672122e-19 -0.002078673205)
(8.449319467e-07 1.538210996e-19 -0.002078642431)
(8.525279429e-07 1.325447753e-19 -0.002078607768)
(8.549780561e-07 1.382831366e-19 -0.002078572437)
(8.52719412e-07 1.530659568e-19 -0.002078539856)
(8.459078432e-07 1.774248013e-19 -0.002078513322)
(8.363916069e-07 1.98391908e-19 -0.002078495566)
(8.25852164e-07 2.166604184e-19 -0.002078487248)
(8.149722647e-07 2.326623459e-19 -0.002078487731)
(8.040571083e-07 2.469346955e-19 -0.002078496241)
(7.930551198e-07 2.598908223e-19 -0.002078512075)
(7.815193196e-07 2.720198286e-19 -0.002078534531)
(7.687455215e-07 2.83413502e-19 -0.002078562875)
(7.540414917e-07 2.839584815e-19 -0.002078596355)
(7.369710323e-07 2.816404008e-19 -0.002078634244)
(7.174310531e-07 2.775681488e-19 -0.002078675864)
(6.955491087e-07 2.763762466e-19 -0.002078720585)
(6.715176046e-07 2.871973383e-19 -0.002078767798)
(6.454994968e-07 2.97194602e-19 -0.0020788169)
(6.176128133e-07 3.065594364e-19 -0.00207886729)
(5.879394193e-07 3.154816795e-19 -0.002078918365)
(5.565278092e-07 3.242251812e-19 -0.002078969531)
(5.234037276e-07 3.33076514e-19 -0.002079020202)
(4.886003676e-07 3.326090311e-19 -0.002079069806)
(4.521853897e-07 3.321676344e-19 -0.002079117793)
(4.142653146e-07 3.345943067e-19 -0.002079163635)
(3.749653825e-07 3.366762984e-19 -0.002079206828)
(3.344078213e-07 3.383610165e-19 -0.002079246894)
(2.927059532e-07 3.395708017e-19 -0.002079283374)
(2.499656808e-07 3.402887969e-19 -0.00207931583)
(2.062811205e-07 3.405104921e-19 -0.002079343844)
(1.617201524e-07 3.373849535e-19 -0.002079367019)
(1.163581429e-07 3.364175981e-19 -0.002079384967)
(7.048075447e-08 3.325059799e-19 -0.002079397315)
(2.472537911e-08 3.306130095e-19 -0.002079403702)
(5.068389275e-08 7.814111278e-20 -0.002081107476)
(1.325264291e-07 1.575497846e-19 -0.002081113201)
(2.103174143e-07 2.210372162e-19 -0.002081122841)
(2.90765797e-07 2.881454122e-19 -0.002081134562)
(3.708689112e-07 3.56810234e-19 -0.00208114568)
(4.493500022e-07 3.480951443e-19 -0.002081153146)
(5.250682502e-07 3.552680888e-19 -0.002081155424)
(5.967427017e-07 3.718087751e-19 -0.002081152429)
(6.63128359e-07 3.474543153e-19 -0.002081144111)
(7.229222853e-07 3.329482326e-19 -0.002081130422)
(7.750883946e-07 3.215993623e-19 -0.002081111436)
(8.190356542e-07 3.150135477e-19 -0.002081087402)
(8.543185324e-07 3.108795292e-19 -0.002081058559)
(8.81083541e-07 2.794071567e-19 -0.002081025211)
(9.000028873e-07 2.763803064e-19 -0.002080988006)
(9.12102604e-07 2.959699081e-19 -0.002080948629)
(9.187783583e-07 3.133341931e-19 -0.002080909897)
(9.203632493e-07 3.293716445e-19 -0.002080874706)
(9.170435229e-07 3.434117197e-19 -0.002080846002)
(9.104425138e-07 3.570951044e-19 -0.002080826473)
(9.021658194e-07 3.690889445e-19 -0.002080816969)
(8.930171209e-07 3.811983602e-19 -0.002080816926)
(8.834457604e-07 3.933449423e-19 -0.002080825545)
(8.735759303e-07 3.926058217e-19 -0.002080842113)
(8.631389566e-07 3.913572889e-19 -0.002080865929)
(8.515533638e-07 3.891091451e-19 -0.002080896264)
(8.381408836e-07 3.964055361e-19 -0.00208093236)
(8.223837853e-07 4.009169493e-19 -0.002080973466)
(8.040744843e-07 4.04338501e-19 -0.002081018881)
(7.832875251e-07 4.067851818e-19 -0.002081067952)
(7.602238175e-07 4.036990348e-19 -0.002081120063)
(7.35074935e-07 3.999316947e-19 -0.002081174607)
(7.079842154e-07 3.981297341e-19 -0.00208123098)
(6.790537399e-07 3.954146923e-19 -0.002081288578)
(6.483520182e-07 3.95266055e-19 -0.002081346799)
(6.1591685e-07 3.933572133e-19 -0.002081405047)
(5.817745524e-07 3.965292516e-19 -0.002081462737)
(5.459722291e-07 3.949339374e-19 -0.0020815193)
(5.085954123e-07 3.95190687e-19 -0.002081574192)
(4.69760904e-07 3.94986176e-19 -0.002081626889)
(4.295935599e-07 3.969539767e-19 -0.002081676894)
(3.882099907e-07 3.981830429e-19 -0.002081723733)
(3.45718031e-07 4.017233926e-19 -0.00208176695)
(3.022162123e-07 4.046241849e-19 -0.002081806115)
(2.577928383e-07 4.069343083e-19 -0.002081840814)
(2.125227302e-07 4.087157011e-19 -0.002081870653)
(1.664589963e-07 4.100212954e-19 -0.002081895253)
(1.196673397e-07 4.103204728e-19 -0.002081914245)
(7.242533713e-08 4.114455651e-19 -0.00208192727)
(2.535726904e-08 4.1166556e-19 -0.002081933976)
(6.181627611e-08 9.928413273e-20 -0.002083454611)
(1.612583682e-07 2.190401917e-19 -0.002083452782)
(2.539562458e-07 3.313815455e-19 -0.002083448049)
(3.470606206e-07 3.423747419e-19 -0.002083440414)
(4.363073356e-07 3.806112317e-19 -0.002083429635)
(5.199512377e-07 3.687896555e-19 -0.002083415452)
(5.969599942e-07 3.745471896e-19 -0.002083397609)
(6.665000579e-07 3.877939351e-19 -0.002083375963)
(7.279570867e-07 4.357764788e-19 -0.002083350516)
(7.809489474e-07 4.474690738e-19 -0.002083321291)
(8.255141301e-07 4.3349814e-19 -0.002083288423)
(8.616635823e-07 4.299072529e-19 -0.002083252137)
(8.896497943e-07 4.352337478e-19 -0.002083213204)
(9.106664976e-07 4.479254126e-19 -0.002083173505)
(9.25803254e-07 4.670408034e-19 -0.00208313556)
(9.351176843e-07 4.909111356e-19 -0.002083101792)
(9.389069392e-07 5.222197873e-19 -0.002083074848)
(9.386745908e-07 5.633883359e-19 -0.002083057223)
(9.358949325e-07 5.746563331e-19 -0.00208304977)
(9.314387908e-07 5.753371597e-19 -0.002083051992)
(9.259084901e-07 5.638118504e-19 -0.002083063126)
(9.196193715e-07 5.571785823e-19 -0.002083082482)
(9.125002494e-07 5.544888347e-19 -0.002083109391)
(9.041187606e-07 5.557334781e-19 -0.002083143159)
(8.938585281e-07 5.600420294e-19 -0.002083183052)
(8.811751712e-07 5.551447423e-19 -0.002083228333)
(8.657867005e-07 5.50311787e-19 -0.002083278297)
(8.477136947e-07 5.453057822e-19 -0.002083332293)
(8.271560858e-07 5.531141899e-19 -0.002083389712)
(8.043367822e-07 5.566770278e-19 -0.002083449965)
(7.794351211e-07 5.628351789e-19 -0.002083512466)
(7.525840291e-07 5.651874613e-19 -0.002083576623)
(7.238793469e-07 5.588359866e-19 -0.002083641846)
(6.933801484e-07 5.496784725e-19 -0.002083707547)
(6.6111838e-07 5.41443931e-19 -0.002083773143)
(6.271292242e-07 5.341769071e-19 -0.002083838064)
(5.91479659e-07 5.271559332e-19 -0.002083901757)
(5.54274971e-07 5.206137681e-19 -0.002083963693)
(5.156399219e-07 5.251271153e-19 -0.002084023365)
(4.756963948e-07 5.298864697e-19 -0.002084080288)
(4.345554766e-07 5.31192786e-19 -0.002084134001)
(3.923192985e-07 5.299092938e-19 -0.002084184062)
(3.490818567e-07 5.289998142e-19 -0.00208423005)
(3.049278548e-07 5.257056338e-19 -0.002084271561)
(2.599342373e-07 5.229842012e-19 -0.00208430821)
(2.141693394e-07 5.207589517e-19 -0.002084339626)
(1.676774835e-07 5.189477245e-19 -0.002084365452)
(1.205054087e-07 5.147644339e-19 -0.002084385337)
(7.29107447e-08 5.136943045e-19 -0.002084398934)
(2.550351227e-08 5.130496679e-19 -0.002084405901)
(6.302613163e-08 8.182261668e-21 -0.00208552234)
(1.641540508e-07 -3.686734554e-20 -0.002085518369)
(2.573874349e-07 -1.023927508e-19 -0.002085509742)
(3.496897736e-07 -4.414889149e-20 -0.002085496825)
(4.368360458e-07 -2.424246329e-20 -0.002085479776)
(5.17250892e-07 3.926670082e-20 -0.002085458765)
(5.9002281e-07 7.449890841e-20 -0.002085433987)
(6.549438005e-07 9.101814894e-20 -0.002085405598)
(7.117073901e-07 1.403767606e-19 -0.002085373881)
(7.60237721e-07 1.739578705e-19 -0.002085339417)
(8.008425416e-07 2.349008113e-19 -0.002085303492)
(8.340651786e-07 2.853216855e-19 -0.002085268052)
(8.606002327e-07 3.287703814e-19 -0.002085235281)
(8.80578949e-07 3.96119017e-19 -0.002085207278)
(8.944089009e-07 4.324637864e-19 -0.002085186448)
(9.034233416e-07 4.396790823e-19 -0.002085174904)
(9.089421844e-07 4.446030246e-19 -0.002085173274)
(9.118826917e-07 4.662195549e-19 -0.002085181088)
(9.129752232e-07 4.846065648e-19 -0.002085197651)
(9.127000746e-07 4.998940335e-19 -0.002085222328)
(9.111499349e-07 5.125427319e-19 -0.002085254512)
(9.080475648e-07 5.081432723e-19 -0.002085293561)
(9.029046202e-07 5.022619665e-19 -0.002085338793)
(8.95227508e-07 5.116974381e-19 -0.002085389504)
(8.847037791e-07 5.203643656e-19 -0.002085445014)
(8.712871586e-07 5.308173421e-19 -0.002085504693)
(8.551447923e-07 5.283023817e-19 -0.00208556796)
(8.365211732e-07 5.289310662e-19 -0.002085634261)
(8.156357064e-07 5.31110016e-19 -0.002085703047)
(7.926572741e-07 5.291753277e-19 -0.002085773763)
(7.67711363e-07 5.283338194e-19 -0.00208584585)
(7.408858963e-07 5.326077276e-19 -0.002085918745)
(7.122325835e-07 5.320047458e-19 -0.002085991889)
(6.817849926e-07 5.367455033e-19 -0.002086064726)
(6.495921428e-07 5.376134631e-19 -0.002086136715)
(6.157394755e-07 5.397843372e-19 -0.002086207333)
(5.803444344e-07 5.392863725e-19 -0.002086276078)
(5.43531202e-07 5.443842342e-19 -0.00208634247)
(5.054127829e-07 5.465024239e-19 -0.002086406051)
(4.6609322e-07 5.493042164e-19 -0.00208646638)
(4.256686987e-07 5.48647571e-19 -0.002086523038)
(3.842258286e-07 5.449434254e-19 -0.002086575622)
(3.418399591e-07 5.436127039e-19 -0.00208662375)
(2.985807941e-07 5.393635347e-19 -0.002086667051)
(2.545175564e-07 5.351734721e-19 -0.00208670517)
(2.097078065e-07 5.31121356e-19 -0.002086737763)
(1.641834584e-07 5.278740427e-19 -0.002086764491)
(1.179915056e-07 5.237944364e-19 -0.002086785021)
(7.138920708e-08 5.204477487e-19 -0.002086799021)
(2.49736228e-08 5.17046621e-19 -0.00208680616)
(5.88259692e-08 6.556353992e-20 -0.002087404826)
(1.531982307e-07 1.228083173e-19 -0.002087400158)
(2.40073098e-07 1.637477168e-19 -0.00208739042)
(3.257637206e-07 2.067415356e-19 -0.0020873761)
(4.061927234e-07 2.49460763e-19 -0.002087357564)
(4.801656492e-07 2.099560198e-19 -0.002087335249)
(5.469457102e-07 1.829741486e-19 -0.00208730991)
(6.062228865e-07 1.621169609e-19 -0.002087282728)
(6.580491532e-07 1.902476069e-19 -0.002087255247)
(7.025576277e-07 2.147905849e-19 -0.002087229264)
(7.397459314e-07 2.333478305e-19 -0.002087206525)
(7.698573475e-07 2.805957093e-19 -0.00208718904)
(7.936689644e-07 3.240501497e-19 -0.002087178984)
(8.121540382e-07 3.651294989e-19 -0.002087177824)
(8.264167169e-07 4.04119841e-19 -0.002087185807)
(8.374463517e-07 4.419031658e-19 -0.002087202488)
(8.460286735e-07 4.577310918e-19 -0.002087227294)
(8.527239555e-07 4.747868865e-19 -0.002087259693)
(8.577397683e-07 4.93900766e-19 -0.002087299167)
(8.609499277e-07 4.997525394e-19 -0.002087345163)
(8.620110053e-07 4.79682959e-19 -0.002087397074)
(8.60497996e-07 4.632001856e-19 -0.002087454259)
(8.560747351e-07 4.490409593e-19 -0.002087516092)
(8.486273967e-07 4.355900315e-19 -0.002087581988)
(8.382811124e-07 4.219396034e-19 -0.002087651411)
(8.252836482e-07 4.227656383e-19 -0.002087723859)
(8.098812738e-07 4.236986063e-19 -0.00208779884)
(7.922711495e-07 4.268608668e-19 -0.002087875854)
(7.725997991e-07 4.305050368e-19 -0.002087954394)
(7.509757544e-07 4.401159048e-19 -0.002088033942)
(7.274684311e-07 4.511003629e-19 -0.002088113981)
(7.021158701e-07 4.56604041e-19 -0.002088193989)
(6.749536587e-07 4.627278053e-19 -0.002088273452)
(6.460444655e-07 4.650156567e-19 -0.002088351867)
(6.154876003e-07 4.678060834e-19 -0.002088428752)
(5.834033235e-07 4.714847933e-19 -0.002088503643)
(5.499102852e-07 4.740040479e-19 -0.002088576096)
(5.151152877e-07 4.730897615e-19 -0.002088645684)
(4.791156844e-07 4.680849255e-19 -0.002088711997)
(4.420002277e-07 4.62669082e-19 -0.002088774646)
(4.038472088e-07 4.566892536e-19 -0.002088833257)
(3.647211928e-07 4.573675815e-19 -0.002088887469)
(3.246778718e-07 4.571372327e-19 -0.00208893694)
(2.837712438e-07 4.60420645e-19 -0.002088981335)
(2.420499249e-07 4.634860553e-19 -0.002089020329)
(1.995528537e-07 4.664479792e-19 -0.002089053603)
(1.563078133e-07 4.664542215e-19 -0.00208908084)
(1.123728082e-07 4.695949557e-19 -0.002089101725)
(6.801402615e-08 4.7001944e-19 -0.002089115937)
(2.382020297e-08 4.73113793e-19 -0.002089123156)
(5.198796617e-08 9.118810873e-20 -0.002089159776)
(1.353545325e-07 1.946035222e-19 -0.002089155544)
(2.119920349e-07 2.860925387e-19 -0.002089147277)
(2.875136029e-07 2.557888076e-19 -0.002089135816)
(3.581543809e-07 2.509460569e-19 -0.00208912219)
(4.227221847e-07 2.630633474e-19 -0.002089107636)
(4.80740732e-07 2.840753162e-19 -0.002089093503)
(5.318238829e-07 3.110125254e-19 -0.002089081331)
(5.759559171e-07 3.423853452e-19 -0.002089072839)
(6.134291238e-07 3.778725474e-19 -0.002089069886)
(6.448657451e-07 3.719213341e-19 -0.00208907402)
(6.711097169e-07 3.719595166e-19 -0.002089085983)
(6.930113889e-07 3.764695309e-19 -0.002089105737)
(7.114823352e-07 3.856915939e-19 -0.002089132951)
(7.272858005e-07 3.99599073e-19 -0.002089167262)
(7.409666153e-07 4.177884844e-19 -0.0020892083)
(7.527759286e-07 4.146554712e-19 -0.002089255681)
(7.626801499e-07 3.901873024e-19 -0.002089308969)
(7.704481587e-07 3.687766662e-19 -0.002089367659)
(7.757143502e-07 3.494798431e-19 -0.002089431207)
(7.781188004e-07 3.33167429e-19 -0.002089499065)
(7.774976532e-07 3.361927297e-19 -0.002089570709)
(7.739378757e-07 3.39485025e-19 -0.002089645665)
(7.676626236e-07 3.426405102e-19 -0.002089723494)
(7.589128924e-07 3.44651924e-19 -0.002089803774)
(7.478927721e-07 3.433427637e-19 -0.002089886073)
(7.347612975e-07 3.406391462e-19 -0.002089969943)
(7.196385088e-07 3.436107516e-19 -0.00209005493)
(7.026087061e-07 3.465308103e-19 -0.002090140564)
(6.837185612e-07 3.500833126e-19 -0.002090226374)
(6.629909665e-07 3.590487893e-19 -0.002090311885)
(6.404562299e-07 3.637416433e-19 -0.002090396628)
(6.161806282e-07 3.736837573e-19 -0.00209048015)
(5.902688161e-07 3.778184689e-19 -0.002090562014)
(5.628372859e-07 3.826214486e-19 -0.0020906418)
(5.339931298e-07 3.874311348e-19 -0.002090719104)
(5.038314199e-07 3.876727177e-19 -0.002090793538)
(4.724401219e-07 3.882796111e-19 -0.002090864728)
(4.399001538e-07 3.892499354e-19 -0.002090932317)
(4.062793863e-07 3.902145454e-19 -0.002090995962)
(3.716352747e-07 3.906783026e-19 -0.002091055332)
(3.360220866e-07 3.927728844e-19 -0.002091110109)
(2.994888148e-07 3.879398831e-19 -0.002091159985)
(2.620710998e-07 3.905062176e-19 -0.002091204657)
(2.237984909e-07 3.93282055e-19 -0.00209124383)
(1.847061801e-07 3.961183498e-19 -0.002091277209)
(1.448262349e-07 3.993769734e-19 -0.0020913045)
(1.04214926e-07 4.026258163e-19 -0.002091325402)
(6.313174902e-08 4.065590774e-19 -0.002091339609)
(2.216126964e-08 4.096003343e-19 -0.002091346807)
(4.233840036e-08 -9.231918103e-20 -0.00209086014)
(1.102278532e-07 -9.177998004e-20 -0.002090858973)
(1.724074147e-07 -1.551847856e-19 -0.002090857744)
(2.33429282e-07 -3.86195616e-20 -0.002090857018)
(2.90267534e-07 1.546177126e-20 -0.002090857757)
(3.418679599e-07 1.370609139e-19 -0.002090861239)
(3.880015054e-07 2.361661525e-19 -0.002090868791)
(4.288462894e-07 3.246342249e-19 -0.002090881529)
(4.647031242e-07 3.61844643e-19 -0.002090900167)
(4.961289535e-07 3.582567686e-19 -0.002090924967)
(5.238091004e-07 3.566081444e-19 -0.002090955956)
(5.48416543e-07 3.133813141e-19 -0.002090993027)
(5.705590526e-07 2.715913733e-19 -0.002091036045)
(5.906600361e-07 2.285531566e-19 -0.002091084825)
(6.089257157e-07 2.086352844e-19 -0.002091139126)
(6.253407307e-07 1.833760145e-19 -0.002091198636)
(6.397397688e-07 1.807998305e-19 -0.002091262959)
(6.517914429e-07 1.711702062e-19 -0.002091331653)
(6.611500117e-07 1.538788476e-19 -0.002091404252)
(6.67640667e-07 1.498477493e-19 -0.002091480303)
(6.712817029e-07 1.758077158e-19 -0.002091559392)
(6.722336981e-07 1.944062689e-19 -0.002091641147)
(6.707121165e-07 2.08043102e-19 -0.002091725215)
(6.669048086e-07 2.180928716e-19 -0.002091811233)
(6.609602329e-07 2.255242045e-19 -0.002091898822)
(6.530089587e-07 2.313300271e-19 -0.002091987585)
(6.431482903e-07 2.352733427e-19 -0.002092077113)
(6.3142906e-07 2.367172403e-19 -0.002092166983)
(6.178702161e-07 2.413962276e-19 -0.002092256767)
(6.02486572e-07 2.450900757e-19 -0.002092346034)
(5.85317184e-07 2.457157812e-19 -0.002092434363)
(5.66437874e-07 2.494575056e-19 -0.002092521347)
(5.45949568e-07 2.551155809e-19 -0.002092606594)
(5.239562215e-07 2.63571629e-19 -0.002092689731)
(5.005505786e-07 2.696000343e-19 -0.002092770396)
(4.758120309e-07 2.736545767e-19 -0.002092848239)
(4.498110915e-07 2.760744567e-19 -0.002092922925)
(4.226127428e-07 2.860750168e-19 -0.002092994135)
(3.942724967e-07 2.99564698e-19 -0.002093061558)
(3.648383218e-07 3.084488116e-19 -0.002093124895)
(3.343545311e-07 3.213601981e-19 -0.002093183857)
(3.028621232e-07 3.246867604e-19 -0.002093238163)
(2.703981747e-07 3.27576044e-19 -0.002093287536)
(2.369984218e-07 3.277827225e-19 -0.002093331703)
(2.027003243e-07 3.269719832e-19 -0.002093370393)
(1.675397629e-07 3.258395931e-19 -0.002093403333)
(1.315492939e-07 3.276415382e-19 -0.002093430248)
(9.478882582e-08 3.259905477e-19 -0.002093450853)
(5.750446016e-08 3.299644484e-19 -0.002093464853)
(2.025669824e-08 3.30544255e-19 -0.002093471938)
(3.085287678e-08 6.252743512e-20 -0.002092609996)
(8.038901351e-08 1.105737637e-19 -0.002092613042)
(1.25881413e-07 1.410646397e-19 -0.002092620827)
(1.706738343e-07 1.623183224e-19 -0.002092633103)
(2.127202179e-07 1.838289751e-19 -0.002092650012)
(2.515795357e-07 2.056411547e-19 -0.002092671832)
(2.873079638e-07 2.273934511e-19 -0.002092698805)
(3.200915958e-07 2.487432465e-19 -0.002092731061)
(3.502908433e-07 2.711068527e-19 -0.002092768646)
(3.782966171e-07 2.937537856e-19 -0.002092811571)
(4.044179213e-07 2.718885957e-19 -0.002092859766)
(4.289016203e-07 2.509769869e-19 -0.00209291312)
(4.518586299e-07 2.309173497e-19 -0.002092971445)
(4.732416046e-07 2.115567551e-19 -0.002093034484)
(4.928894715e-07 1.89214979e-19 -0.002093101906)
(5.104986655e-07 1.67090811e-19 -0.00209317333)
(5.257396596e-07 1.765313788e-19 -0.002093248351)
(5.384260745e-07 1.850574451e-19 -0.002093326565)
(5.485066266e-07 1.92356266e-19 -0.002093407609)
(5.560448326e-07 1.992810053e-19 -0.002093491162)
(5.612089828e-07 2.065328658e-19 -0.00209357692)
(5.641956528e-07 2.143176163e-19 -0.002093664578)
(5.651490917e-07 2.234170366e-19 -0.002093753811)
(5.641742698e-07 2.186269982e-19 -0.002093844275)
(5.613505865e-07 2.157229127e-19 -0.002093935613)
(5.567281744e-07 2.287614559e-19 -0.002094027455)
(5.503173978e-07 2.426441439e-19 -0.002094119417)
(5.421044741e-07 2.494509146e-19 -0.00209421111)
(5.320917433e-07 2.552937163e-19 -0.002094302148)
(5.203195616e-07 2.601558358e-19 -0.002094392154)
(5.068669324e-07 2.643957056e-19 -0.002094480766)
(4.918325399e-07 2.684473742e-19 -0.002094567637)
(4.753090043e-07 2.662202613e-19 -0.002094652432)
(4.573736396e-07 2.643974366e-19 -0.002094734826)
(4.380961389e-07 2.624554917e-19 -0.002094814508)
(4.17540795e-07 2.603473178e-19 -0.00209489118)
(3.957623889e-07 2.587769348e-19 -0.002094964554)
(3.728021474e-07 2.599199534e-19 -0.002095034354)
(3.486933744e-07 2.615831025e-19 -0.002095100315)
(3.234687843e-07 2.634428417e-19 -0.002095162178)
(2.971563056e-07 2.645102857e-19 -0.00209521969)
(2.697786918e-07 2.692741477e-19 -0.002095272602)
(2.413632501e-07 2.737627363e-19 -0.002095320666)
(2.11953168e-07 2.747234256e-19 -0.002095363635)
(1.816033558e-07 2.754364237e-19 -0.002095401259)
(1.503596527e-07 2.759108493e-19 -0.002095433284)
(1.182545938e-07 2.766019291e-19 -0.00209545945)
(8.534699703e-08 2.762793752e-19 -0.002095479485)
(5.186981116e-08 2.765821649e-19 -0.002095493102)
(1.835325687e-08 2.763076823e-19 -0.002095499999)
(2.133907418e-08 2.677716405e-19 -0.002094449608)
(5.569963002e-08 3.66166305e-19 -0.002094455133)
(8.764814523e-08 5.169364339e-19 -0.002094467787)
(1.197438433e-07 4.040702175e-19 -0.002094486789)
(1.507914681e-07 3.726663333e-19 -0.002094511827)
(1.805504032e-07 2.829906034e-19 -0.002094542732)
(2.090430812e-07 2.161828419e-19 -0.002094579339)
(2.36385667e-07 1.604679459e-19 -0.002094621486)
(2.6271282e-07 1.194914426e-19 -0.002094669008)
(2.880760836e-07 1.313585465e-19 -0.002094721698)
(3.124807824e-07 1.349695115e-19 -0.002094779313)
(3.358310085e-07 1.704770086e-19 -0.002094841564)
(3.57930728e-07 2.012074109e-19 -0.002094908108)
(3.785041098e-07 2.303542997e-19 -0.002094978572)
(3.972386971e-07 2.260882939e-19 -0.002095052568)
(4.139254272e-07 2.242084805e-19 -0.002095129708)
(4.284318982e-07 2.243180675e-19 -0.002095209655)
(4.407581994e-07 2.251228998e-19 -0.002095292106)
(4.510339586e-07 2.261461051e-19 -0.002095376782)
(4.593957337e-07 2.276474712e-19 -0.002095463407)
(4.659429972e-07 2.298275097e-19 -0.002095551699)
(4.707311438e-07 2.32757832e-19 -0.002095641356)
(4.737984993e-07 2.364402262e-19 -0.002095732058)
(4.751924826e-07 2.416031188e-19 -0.00209582347)
(4.749342565e-07 2.473907139e-19 -0.002095915245)
(4.730041019e-07 2.530581466e-19 -0.002096007026)
(4.693760636e-07 2.593383096e-19 -0.002096098452)
(4.640485913e-07 2.664808205e-19 -0.002096189173)
(4.570569485e-07 2.684355399e-19 -0.002096278854)
(4.48460965e-07 2.643594573e-19 -0.002096367171)
(4.383293646e-07 2.619951687e-19 -0.002096453819)
(4.267305039e-07 2.602517162e-19 -0.002096538498)
(4.137268671e-07 2.528986408e-19 -0.002096620921)
(3.993747736e-07 2.512209174e-19 -0.002096700809)
(3.837243846e-07 2.493617854e-19 -0.002096777897)
(3.668208439e-07 2.471671481e-19 -0.002096851929)
(3.487033559e-07 2.445074471e-19 -0.002096922658)
(3.294057989e-07 2.405350255e-19 -0.002096989845)
(3.089552915e-07 2.35909271e-19 -0.002097053261)
(2.873627076e-07 2.351412774e-19 -0.002097112678)
(2.646368003e-07 2.296460419e-19 -0.002097167876)
(2.408018278e-07 2.283772654e-19 -0.00209721863)
(2.15893281e-07 2.265790703e-19 -0.002097264719)
(1.899557926e-07 2.279051136e-19 -0.002097305917)
(1.63045987e-07 2.284777657e-19 -0.002097341994)
(1.352225964e-07 2.283064414e-19 -0.002097372711)
(1.065237702e-07 2.274322809e-19 -0.002097397819)
(7.700179542e-08 2.293071547e-19 -0.002097417058)
(4.687718923e-08 2.272867685e-19 -0.002097430146)
(1.666362853e-08 2.246025103e-19 -0.002097436786)
(1.565158482e-08 1.267455542e-19 -0.002096342072)
(4.094462702e-08 1.311118446e-20 -0.002096348649)
(6.48176384e-08 8.78505436e-20 -0.00209636321)
(8.930285198e-08 1.32320486e-19 -0.002096384865)
(1.136193991e-07 1.676888683e-19 -0.002096413162)