/*--------------------------------*- C++ -*----------------------------------*\
  =========                 |
  \\      /  F ield         | OpenFOAM: The Open Source CFD Toolbox
   \\    /   O peration     | Website:  https://openfoam.org
    \\  /    A nd           | Version:  7
     \\/     M anipulation  |
\*---------------------------------------------------------------------------*/
FoamFile
{
    version     2.0;
    format      ascii;
    class       volScalarField;
    location    "0.003";
    object      generalizedNewtonian:nu;
}
// * * * * * * * * * * * * * * * * * * * * * * * * * * * * * * * * * * * * * //

dimensions      [0 2 -1 0 0 0 0];

internalField   nonuniform List<scalar> 
14000
(
28076.64184
27714.68235
27470.84798
26796.28692
26025.28859
25177.98215
24279.39433
23361.04216
22447.83716
21557.22187
20701.02079
19886.79929
19118.90414
18399.32644
17728.38819
17105.24507
16528.26337
15995.492
15504.9481
15054.46445
14641.60209
14263.84398
13918.89058
13604.5231
13318.30531
13057.75111
12820.26916
12603.00823
12402.86403
12216.31126
12039.47505
11868.13763
11697.5337
11522.4415
11337.43576
11137.02463
10915.85173
10669.09322
10392.86725
10084.60316
9743.512376
9370.917327
8970.275532
8546.895594
8107.559386
7661.05735
7216.855962
6771.21484
6305.774654
5963.923989
13606.96091
13518.68008
13589.54934
13530.96374
13480.16752
13427.99439
13369.99632
13308.17691
13244.88635
13182.03002
13121.28418
13064.1271
13011.80695
12965.26553
12925.29934
12892.64244
12867.60685
12850.11353
12839.91813
12836.39256
12838.45771
12844.6226
12852.86175
12860.66892
12865.10279
12862.7221
12849.73315
12822.2134
12776.34257
12708.69855
12616.6804
12498.95382
12355.70227
12188.78576
12001.85931
11800.169
11590.06076
11378.53158
11172.78662
10979.75065
10805.5979
10655.7225
10534.90436
10447.45377
10397.42278
10388.54108
10425.59635
10519.11861
10679.76213
10870.76629
11610.59956
11562.84778
11660.94254
11671.17713
11702.63555
11746.62994
11797.80213
11856.02578
11921.59947
11994.37185
12073.95457
12159.94771
12251.92141
12349.18335
12450.79797
12555.63276
12662.28695
12769.03672
12873.76815
12974.12041
13067.65246
13151.8301
13224.1305
13282.30579
13324.62634
13350.0678
13358.44335
13350.47714
13327.96481
13293.62163
13250.80742
13203.47526
13155.84216
13112.0402
13076.043
13051.52453
13041.90669
13050.19601
13078.92295
13130.52322
13207.31607
13311.37893
13444.30932
13607.23765
13800.73411
14024.08027
14275.74858
14556.8154
14867.90554
15137.24626
12072.43538
12030.68179
12130.07057
12158.22917
12212.12633
12282.60719
12364.19688
12456.01827
12557.57398
12667.87072
12785.66166
12909.66718
13038.53128
13170.75458
13304.63356
13438.34713
13570.05421
13697.9019
13820.12896
13935.15288
14041.66957
14138.794
14226.11542
14303.70771
14372.23237
14432.8396
14486.97429
14536.51251
14583.68723
14630.75663
14679.96795
14733.67706
14794.25528
14863.71497
14943.90606
15036.68698
15143.5473
15265.70641
15404.12311
15559.35827
15731.50898
15920.10885
16124.21939
16342.38027
16572.30246
16810.82528
17055.0689
17304.83813
17560.93448
17760.76691
13291.18911
13261.90598
13356.94142
13390.40553
13448.08709
13521.86904
13606.80381
13701.70151
13805.47156
13916.74127
14034.17099
14156.27006
14281.46844
14408.31308
14535.31359
14661.06848
14784.40886
14904.32898
15020.05426
15131.08213
15237.23819
15338.69665
15435.87236
15529.3891
15620.12745
15709.15786
15797.64362
15886.8675
15978.09923
16072.48588
16171.22076
16275.39777
16385.88088
16503.46762
16628.65878
16761.79133
16903.05371
17052.27576
17209.04958
17372.77235
17542.61238
17717.36431
17895.49025
18075.41491
18255.69137
18434.28993
18606.78097
18768.1639
18919.83569
19032.13475
14686.91326
14662.83029
14740.1047
14771.95475
14824.74774
14891.13513
14967.01231
15051.10977
15142.24297
15239.056
15340.32497
15444.76681
15551.10109
15658.31449
15765.52624
15871.90574
15976.84245
16079.95056
16180.98857
16279.9253
16376.93082
16472.27099
16566.30305
16659.52061
16752.4416
16845.63379
16939.75208
17035.31242
17132.76343
17232.52881
17334.94992
17440.18726
17548.272
17659.25453
17772.86585
17888.67662
18006.34505
18125.19123
18244.26915
18362.75905
18479.71755
18593.75645
18703.34841
18807.76339
18908.55477
19007.03484
19065.32237
18932.33863
18238.49321
17316.64741
15880.28414
15867.23773
15925.39722
15951.67814
15993.22561
16044.8164
16103.53074
16168.17531
16237.82025
16311.44335
16388.0055
16466.65709
16546.5919
16627.07955
16707.5875
16787.70018
16867.08968
16945.55865
17023.02485
17099.50248
17175.06928
17249.81091
17323.89528
17397.56491
17470.98067
17544.27137
17617.58084
17690.98368
17764.45807
17837.94133
17911.23069
17984.06641
18056.11344
18126.84458
18195.73779
18262.15499
18325.27489
18384.28044
18438.2698
18486.2167
18527.20597
18560.71184
18584.39865
18594.28006
18590.31671
18505.30397
18053.70747
17200.58871
16190.81182
15443.90506
16777.10862
16768.55995
16807.82601
16828.24761
16859.88796
16898.87068
16943.14633
16991.83884
17044.21388
17099.55461
17157.10568
17216.20716
17276.3627
17337.10316
17398.0326
17458.8559
17519.36107
17579.39945
17638.87042
17697.71509
17755.90414
17813.4323
17870.31886
17926.54915
17982.09054
18036.88811
18090.81406
18143.71008
18195.34127
18245.42712
18293.59347
18339.41411
18382.39189
18421.91734
18457.37093
18488.05431
18513.20676
18532.13624
18544.41924
18549.1736
18540.34456
18514.80656
18515.53332
18498.62241
18127.62327
17333.90909
16463.7248
16065.73671
16386.73612
16857.5849
17286.53738
17283.34533
17311.57141
17328.22795
17352.98732
17383.3717
17417.99744
17456.2876
17497.67539
17541.60371
17587.60845
17635.23025
17684.066
17733.78906
17784.12344
17834.83556
17885.72553
17936.63921
17987.46044
18038.08407
18088.40681
18138.34664
18187.79972
18236.63752
18284.71773
18331.85941
18377.85094
18422.43036
18465.29774
18506.09859
18544.43767
18579.87321
18611.91933
18640.06017
18663.74666
18682.57671
18696.51386
18704.36146
18697.61017
18675.31715
18705.78472
18738.42227
18379.78084
17568.25977
16763.52855
16515.63139
16858.03194
17377.75512
17842.54634
18169.00155
17557.29613
17555.1655
17575.62884
17589.18615
17609.12973
17633.58181
17661.531
17692.53252
17726.20317
17762.13204
17799.9189
17839.22999
17879.7556
17921.20751
17963.34092
18005.94865
18048.84189
18091.83828
18134.76798
18177.48453
18219.84078
18261.67759
18302.82956
18343.11958
18382.36244
18420.34198
18456.83933
18491.59876
18524.36496
18554.85273
18582.77352
18607.81244
18629.68187
18648.30847
18664.05096
18675.40297
18672.17098
18656.65897
18713.59266
18780.07745
18424.42391
17594.53337
16811.65519
16629.67392
16985.45784
17464.38218
17879.55371
18241.60687
18619.09184
18843.78054
17655.77646
17654.59698
17670.64891
17681.16977
17696.49656
17715.26185
17736.75173
17760.56631
17786.37184
17813.87203
17842.74673
17872.67743
17903.38886
17934.62934
17966.1642
17997.76948
18029.23228
18060.36085
18090.97578
18120.89464
18149.94452
18177.96043
18204.77658
18230.22695
18254.15116
18276.39383
18296.80514
18315.24552
18331.58096
18345.67814
18357.43563
18367.08378
18375.27428
18380.28413
18370.73695
18351.42624
18418.52941
18505.08617
18170.13287
17365.0612
16614.9669
16455.71388
16786.91747
17214.67569
17586.97721
17917.97135
18265.4816
18500.43126
17663.00442
16012.80201
17673.89567
17671.95027
17684.64866
17692.1026
17703.29938
17717.03869
17732.68266
17749.94536
17768.55653
17788.20247
17808.61552
17829.56077
17850.80388
17872.10701
17893.23802
17913.98183
17934.15426
17953.59616
17972.14772
17989.64147
18005.94096
18020.92431
18034.45404
18046.44321
18056.81576
18065.49482
18072.41544
18077.51129
18080.76916
18082.53262
18083.60516
18082.10002
18065.87875
18040.42299
18107.59809
18202.90594
17889.77187
17117.56873
16402.09007
16260.52554
16572.72737
16963.44963
17302.96137
17607.00344
17932.26636
18151.92421
17315.87583
15664.679
14168.09696
12911.12867
17615.85694
17613.44324
17624.44416
17629.45617
17637.4497
17647.33262
17658.51845
17670.7679
17683.90748
17697.73146
17711.9953
17726.49121
17741.02539
17755.41247
17769.47907
17783.0747
17796.08581
17808.38046
17819.7818
17830.18395
17839.54611
17847.75194
17854.7229
17860.43701
17864.81485
17867.80563
17869.40164
17869.93852
17870.23407
17868.32753
17851.77454
17825.32774
17891.35888
17993.18946
17703.60012
16960.47964
16273.65241
16151.63204
16460.00255
16834.66964
17160.57
17453.5042
17768.02387
17988.13915
17177.16049
15538.1426
14053.68411
12790.05711
11679.80069
10707.73544
17532.41022
17528.90495
17539.09972
17542.53351
17548.62587
17556.251
17564.91
17574.40394
17584.55353
17595.23223
17606.30167
17617.58374
17628.91375
17640.15806
17651.21124
17661.97736
17672.33467
17682.12308
17691.2437
17699.68897
17707.37686
17714.18989
17720.09916
17725.01462
17728.86219
17731.98694
17735.17371
17736.48275
17723.43472
17699.38202
17763.95917
17873.21522
17612.47371
16897.1735
16229.86621
16119.81878
16428.73413
16798.19354
17119.76025
17408.26217
17715.45733
17958.8027
17246.03003
15626.47911
14129.33044
12858.21721
11746.38068
10761.20484
9885.498734
9115.183305
17435.1378
17431.00174
17441.47765
17444.01058
17449.08148
17455.54915
17462.92731
17471.06926
17479.82941
17489.07996
17498.72663
17508.64295
17518.70602
17528.80277
17538.82431
17548.66632
17558.2258
17567.39181
17576.08196
17584.24259
17591.77962
17598.56155
17604.51592
17609.9511
17615.6233
17619.68937
17609.8084
17587.59438
17647.96062
17764.10991
17540.43699
16861.71276
16210.32344
16097.80555
16399.14142
16762.6967
17078.55935
17359.27092
17653.67791
17924.07046
17373.69163
15799.75513
14278.30037
12989.39277
11864.68497
10868.12321
9982.656769
9196.603176
8497.883962
7879.25783
17358.48645
17353.41521
17364.32719
17366.1612
17370.58799
17376.37602
17382.97988
17390.26717
17398.14606
17406.51084
17415.26428
17424.29336
17433.48347
17442.72705
17451.91888
17460.95265
17469.72823
17478.16651
17486.16125
17493.55639
17500.29539
17506.66955
17513.35745
17518.68508
17510.45064
17488.37433
17541.54107
17660.80047
17474.61179
16837.39752
16199.19105
16070.41265
16355.00508
16711.43472
17021.32487
17292.00847
17568.48511
17855.52577
17504.57029
16021.24299
14469.1795
13154.30347
12011.39366
10999.11026
10098.45537
9297.541511
8585.716223
7951.82741
7384.208158
6876.55276
17306.12435
17300.27994
17311.74429
17312.79997
17316.43764
17321.32739
17326.88419
17332.99527
17339.60117
17346.61834
17353.94594
17361.48199
17369.12401
17376.76629
17384.30414
17391.63121
17398.64163
17405.25842
17411.41311
17417.265
17423.52898
17428.71942
17420.41246
17396.69364
17440.73582
17557.54437
17401.93635
16806.34136
16180.85368
16028.59781
16290.72851
16638.8477
16943.08844
17204.43516
17461.90096
17749.67318
17601.04776
16272.45922
14692.94591
13345.31293
12180.01391
11149.15652
10230.99182
9413.119766
8685.162469
8036.611028
7456.758316
6936.090399
6466.551937
6043.536014
17296.17482
17289.27937
17300.97153
17300.96081
17303.46806
17307.03734
17311.04001
17315.39199
17320.07688
17325.03748
17330.16509
17335.36366
17340.5489
17345.63057
17350.50053
17355.03456
17359.16847
17363.19803
17367.91661
17371.66264
17361.12015
17333.47356
17367.40801
17475.12302
17334.93288
16772.44691
16159.14109
15983.29337
16221.14168
16559.67698
16858.63826
17112.44133
17352.87936
17627.62034
17650.75447
16547.94714
14955.80928
13568.26014
12375.92746
11323.39928
10385.22017
9548.122446
8801.903878
8136.542865
7541.772055
7008.089651
6527.506504
6093.449579
5700.346665
5343.878631
17332.85459
17325.10865
17336.91029
17335.62888
17336.69372
17338.56452
17340.56028
17342.62848
17344.83248
17347.0935
17349.2478
17351.23312
17353.01696
17354.53561
17355.74418
17356.91218
17358.81351
17359.50108
17343.89067
17309.30174
17332.64292
17423.3469
17276.40735
16731.54033
16129.4861
15936.75128
16153.82027
16481.41912
16774.12988
17021.56553
17247.67848
17501.63205
17642.42319
16821.44993
15253.84528
13820.20667
12595.65046
11518.81839
10558.66865
9700.21936
8933.545418
8249.277291
7637.642578
7089.12499
6595.540668
6150.120504
5747.158814
5381.692168
5049.522247
4746.347147
17431.09094
17422.44588
17434.14637
17431.56472
17431.09943
17431.16584
17431.05993
17430.77663
17430.30913
17429.50992
17428.35838
17426.85139
17424.94545
17422.95427
17421.54286
17416.79555
17391.46103
17344.72479
17356.17646
17419.19941
17236.01733
16687.21751
16095.8957
15898.32488
16102.27185
16420.67907
16706.75954
16947.62704
17162.16237
17394.00839
17596.95484
17071.514
15590.02247
14109.12218
12846.15012
11741.33588
10757.0976
9875.83345
9086.988754
8381.665762
7750.885193
7185.521099
6677.131117
6218.669548
5804.239659
5428.717174
5087.619273
4777.1197
4494.078128
4234.075118
17594.2847
17584.95096
17596.35235
17592.5402
17590.49047
17588.59498
17586.24172
17583.39999
17580.03697
17576.06717
17571.4707
17566.75381
17561.87287
17547.27077
17505.72283
17439.47695
17434.88151
17452.72655
17196.89488
16622.68842
16047.73555
15865.90736
16067.40131
16377.96303
16658.89443
16894.58737
17099.64271
17311.53176
17535.22681
17270.00067
15951.41258
14433.95534
13127.7099
11991.90559
10981.80718
10076.35357
9264.196553
8536.641624
7885.252292
7301.27931
6776.404841
6303.384489
5876.092742
5489.248913
5138.203232
4818.921182
4527.848239
4262.012661
4019.023727
3794.214155
17826.55352
17816.2389
17826.41786
17820.56314
17816.05922
17811.21332
17805.19294
17797.87257
17789.67281
17780.68289
17764.16316
17726.629
17656.92709
17572.47386
17545.83946
17473.24672
17111.13081
16504.95617
15965.43464
15831.10619
16045.14455
16348.52548
16624.07316
16855.53554
17053.39195
17249.2634
17471.33943
17402.30964
16314.23004
14788.29813
13437.37438
12269.58462
11233.96333
10304.81542
9469.368505
8719.154517
8046.398977
7442.985255
6900.690188
6412.129412
5970.965993
5571.761733
5209.735206
4880.700623
4580.994025
4307.402262
4057.087062
3827.643784
3617.222929
3421.016006
18095.85084
18085.62245
18094.96671
18087.31203
18080.48051
18072.76677
18059.2588
18031.64576
17980.5928
17896.29877
17776.3431
17672.19407
17594.27632
17368.03718
16896.97825
16283.51838
15819.16883
15776.14711
16021.82841
16319.19385
16588.63559
16816.57172
17010.09846
17195.52502
17407.96688
17464.51227
16639.58568
15154.70261
13765.65278
12567.77382
11509.12371
10559.11994
9702.913563
8931.649263
8238.114895
7615.067668
7054.803475
6550.001514
6094.21843
5681.816794
5307.924231
4968.223329
4658.946902
4376.780049
4118.806888
3882.394268
3665.172769
3465.187541
3281.019433
3107.904959
18511.63327
18488.83902
18470.60252
18419.5597
18348.76692
18252.98289
18125.38741
17959.26391
17789.8214
17644.87649
17419.30334
17024.707
16501.46615
15965.13369
15657.29772
15728.68912
16002.09857
16295.07458
16559.24013
16784.32326
16976.0371
17156.67434
17360.77866
17488.0422
16909.7942
15522.17084
14110.55689
12887.20453
11809.28756
10841.74536
9967.405903
9177.059133
8463.954881
7821.644188
7243.188339
6721.534636
6250.217548
5823.583191
5436.701615
5085.186568
4765.181311
4473.283748
4206.509117
3962.187801
3737.890085
3531.403904
3340.750518
3164.371636
3001.217356
2846.663028
18134.70103
18082.13332
18005.554
17860.14663
17688.91498
17523.02412
17334.01286
17071.77863
16724.55507
16311.87408
15881.73672
15559.15339
15508.35503
15698.69509
15984.20848
16276.05835
16539.83477
16765.61721
16959.85515
17142.31148
17344.15015
17508.68016
17125.39546
15876.38768
14466.2438
13225.08507
12132.6504
11151.4762
10262.12565
9454.823089
8723.258462
8062.028796
7465.195218
6926.113898
6438.461358
5996.584104
5595.555506
5231.001227
4899.012445
4596.14164
4319.332248
4065.874028
3833.309445
3619.395507
3422.093175
3239.558828
3070.176472
2912.702549
2766.343751
2626.734986
16337.83934
16305.02094
16252.06559
16157.1885
16020.27517
15843.37148
15644.07733
15438.70895
15281.94601
15282.91089
15454.54656
15717.35432
16009.25298
16294.98577
16554.71572
16779.73918
16977.13462
17164.47658
17368.48418
17550.54421
17296.15358
16195.06357
14813.48782
13565.79648
12465.56619
11476.09081
10576.28317
9755.724184
9008.488357
8329.887371
7715.007587
7158.186528
6653.557395
6195.613384
5779.461577
5400.775455
5055.657292
4740.646955
4452.65161
4188.93142
3947.006619
3724.598818
3519.62985
3330.213258
3154.668265
2991.483167
2839.313989
2697.17298
2564.481179
2437.142299
15256.78537
15242.47582
15220.29224
15185.41215
15160.74017
15197.52623
15318.93281
15503.80682
15734.80151
15995.68047
16263.58951
16520.1507
16753.17375
16960.3054
17147.79798
17330.4064
17529.82349
17707.61377
17507.25163
16515.97578
15176.38368
13930.83885
12825.97224
11829.66505
10920.34824
10087.10951
9324.35931
8628.192015
7994.722172
7419.28646
6896.527717
6421.203789
5988.53126
5594.271042
5234.596983
4906.040697
4605.501273
4330.197187
4077.6343
3845.523469
3631.751533
3434.383826
3251.673278
3082.066544
2924.169266
2776.71392
2638.60279
2509.04305
2387.648612
2270.557163
15800.82842
15819.49947
15901.25929
15995.66017
16128.47055
16293.2121
16480.80399
16681.47676
16884.40271
17078.15256
17257.38539
17424.14823
17583.70785
17746.4262
17926.61878
18069.13345
17838.44596
16884.94473
15581.22025
14341.45891
13231.48089
12226.3465
11305.51187
10457.87544
9678.264705
8963.365863
8310.045341
7714.500019
7172.005236
6677.663853
6226.844653
5815.389063
5439.54837
5095.880908
4781.288843
4492.963623
4228.386211
3985.249919
3761.412202
3554.899308
3363.904174
3186.808952
3022.164982
2868.661924
2725.138043
2590.543513
2463.965862
2344.777819
2232.68757
2124.129918
17162.30523
17169.54695
17265.65961
17345.49025
17451.07212
17568.62855
17690.98839
17816.06546
17942.2299
18068.76433
18198.93809
18341.76826
18495.31237
18564.624
18219.00459
17235.94649
15965.77744
14746.42722
13641.43443
12633.65283
11705.50068
10847.28764
10054.09748
9323.106669
8651.853772
8037.350839
7475.717309
6962.526485
6493.412353
6064.34292
5671.690715
5312.124383
4982.57158
4680.244104
4402.603026
4147.344314
3912.326614
3695.551162
3495.173623
3309.513197
3137.066472
2976.482014
2826.534374
2686.155321
2554.373116
2430.311262
2313.1878
2202.498184
2098.061981
1996.598547
18314.58879
18304.93231
18392.1551
18441.9461
18513.87922
18599.98507
18695.47342
18798.76082
18913.47697
19038.62934
19140.40726
19059.62871
18511.71225
17464.41272
16242.88009
15071.2697
13993.95818
13000.75808
12079.19695
11221.67825
10424.2982
9685.07806
9002.404613
8374.23386
7797.632147
7268.793199
6783.733375
6338.674893
5930.246984
5555.333622
5211.001815
4894.561944
4603.529522
4335.635306
4088.770699
3860.951644
3650.328021
3455.18933
3273.99088
3105.343964
2947.98673
2800.788497
2662.74175
2532.949024
2410.608362
2294.977608
2185.432747
2081.595849
1983.317948
1887.613327
19334.57607
19319.8907
19403.93018
19447.50787
19512.80761
19590.8054
19673.90842
19729.29828
19659.25517
19285.3492
18498.38839
17426.5882
16293.88875
15209.44597
14194.7766
13245.97441
12355.96193
11520.38537
10737.04941
10005.18163
9324.458302
8694.022616
8111.793734
7574.779686
7079.713642
6623.411382
6202.904175
5815.442274
5458.413901
5129.337555
4825.906699
4545.964828
4287.51255
4048.649084
3827.567711
3622.583162
3432.14038
3254.846179
3089.426577
2934.709453
2789.663358
2653.347336
2524.935417
2403.680915
2288.91805
2180.055288
2076.587084
1978.197697
1884.825018
1793.775276
20243.38108
20219.48977
20263.80577
20236.90947
20157.99303
19950.54909
19529.86793
18854.25023
17974.30074
17003.02065
16023.15928
15074.19058
14166.25454
13301.04543
12476.2091
11691.5344
10947.25079
10244.34561
9584.182847
8967.060805
8392.209116
7857.919706
7361.90484
6901.771817
6475.197496
6080.059391
5714.178501
5375.470423
5061.949257
4771.705465
4502.925476
4253.868417
4022.852404
3808.276772
3608.639022
3422.558339
3248.779471
3086.153218
2933.627807
2790.264223
2655.20885
2527.720607
2407.101876
2292.736956
2184.096559
2080.697494
1982.120014
1888.117285
1798.645181
1711.372857
19501.62448
19373.95423
19154.98676
18767.02261
18251.76348
17627.07624
16922.48421
16172.84127
15405.50187
14637.28898
13878.35378
13134.68921
12409.17921
11705.02564
11025.85359
10374.72897
9754.869997
9168.165233
8615.384316
8096.347471
7610.183815
7155.299677
6730.230481
6333.583904
5963.925473
5619.749472
5299.506385
5001.667693
4724.712271
4467.158306
4227.528744
4004.371695
3796.271346
3601.915704
3420.102763
3249.722015
3089.743524
2939.240252
2797.366389
2663.359722
2536.53546
2416.273965
2302.03415
2193.351509
2089.77642
1990.906883
1896.401796
1806.061247
1719.863552
1635.792471
16562.99966
16443.30518
16220.26539
15883.5875
15466.93269
14987.13008
14460.78713
13902.08523
13322.37556
12729.36228
12131.4079
11534.09045
10944.28042
10367.07738
9807.479146
9269.058107
8754.169958
8264.499248
7800.19905
7360.973558
6946.438953
6556.094793
6189.322501
5845.403205
5523.264965
5221.868886
4940.112127
4676.841737
4430.860384
4200.934764
3985.840581
3784.398756
3595.495273
3418.097272
3251.24452
3094.04646
2945.677763
2805.378172
2672.478829
2546.364426
2426.488616
2312.371915
2203.590552
2099.759375
2000.54658
1905.623497
1814.699356
1727.616959
1644.369958
1563.24335
14110.71493
14027.24443
13863.14681
13620.06437
13314.66255
12956.54232
12555.90289
12122.22165
11663.3699
11188.18717
10703.66745
10216.70519
9733.29582
9258.360837
8795.524484
8348.077659
7917.30155
7504.20957
7109.548168
6733.928294
6377.416464
6039.978308
5721.329654
5420.993496
5138.374012
4872.737846
4623.294496
4389.082373
4169.084399
3962.301387
3767.763546
3584.557217
3411.815387
3248.712263
3094.476972
2948.408997
2809.854449
2678.241459
2553.019135
2433.699668
2319.868817
2211.149542
2107.203061
2007.7321
1912.46341
1821.165251
1733.591797
1649.616561
1569.250301
1491.038692
12315.94359
12251.76174
12121.71899
11930.01244
11686.51755
11398.96207
11074.81594
10721.26526
10345.76116
9955.163413
9555.503378
9152.652673
8750.849591
8354.355963
7965.635037
7586.729402
7219.604973
6865.498342
6525.379675
6199.990068
5889.773074
5594.956037
5315.35343
5050.709211
4800.603671
4564.464957
4341.592203
4131.216268
3932.554538
3744.854097
3567.345685
3399.304747
3240.032177
3088.886547
2945.264261
2808.610108
2678.418529
2554.22381
2435.621545
2322.269089
2213.803902
2109.939174
2010.415195
1914.997108
1823.474948
1735.662719
1651.387998
1570.541397
1493.137825
1417.926985
10953.93402
10901.01601
10792.38756
10632.79925
10429.93203
10189.7654
9918.589168
9622.450171
9307.382725
8978.954239
8642.021295
8300.904267
7959.211433
7619.61636
7285.063845
6957.378645
6638.309816
6329.379232
6031.72503
5745.931414
5472.457979
5211.531473
4963.172968
4727.276605
4503.398209
4291.028565
4089.599182
3898.517343
3717.185274
3545.0087
3381.402399
3225.80169
3077.658124
2936.447279
2801.706083
2672.997359
2549.926385
2432.14722
2319.353687
2211.264398
2107.640521
2008.231433
1912.840348
1821.287167
1733.408693
1649.057365
1568.11691
1490.480033
1416.169568
1344.104672
9890.704416
9845.679165
9752.839427
9616.471534
9442.951185
9237.656039
9005.488758
8751.553399
8481.104749
8197.928773
7906.693904
7610.2282
7312.114598
7014.869414
6720.774357
6432.145868
6150.404222
5876.802469
5612.311645
5357.771181
5113.493684
4879.698457
4656.388333
4443.373696
4240.357189
4046.954441
3862.693758
3687.131323
3519.803188
3360.234551
3207.958037
3062.534375
2923.54111
2790.596666
2663.30196
2541.33194
2424.395909
2312.225531
2204.576522
2101.241101
2002.048051
1906.802594
1815.344763
1727.538185
1643.254312
1562.381678
1484.815346
1410.474098
1339.38974
1270.592801
9039.258234
9000.110227
8919.399506
8800.637501
8649.663207
8470.450323
8267.37552
8045.127861
7807.252585
7557.817064
7300.115887
7037.490995
6772.50208
6508.058163
6245.936075
5987.936857
5735.718369
5490.245636
5252.398674
5022.795986
4801.933947
4589.878659
4386.576726
4191.873361
4005.541035
3827.298948
3656.871838
3493.861351
3337.890975
3188.599172
3045.623583
2908.614857
2777.249675
2651.225152
2530.271907
2414.127439
2302.561795
2195.370768
2092.374448
1993.408607
1898.349814
1807.052103
1719.385714
1635.243247
1554.520062
1477.116501
1402.953118
1331.965391
1264.176642
1198.696375
8338.515911
8303.814523
8232.566296
8127.381929
7993.18918
7833.714997
7652.975099
7454.526107
7241.800458
7018.530521
6787.430412
6551.707796
6313.625283
6075.437649
5839.137433
5606.134042
5377.767045
5155.190535
4939.046679
4729.84992
4527.89174
4333.36352
4146.198798
3966.300488
3793.5261
3627.675381
3468.507151
3315.774529
3169.168078
3028.396173
2893.185442
2763.266703
2638.386794
2518.323268
2402.90345
2291.902162
2185.147435
2082.486218
1983.78004
1888.905886
1797.772552
1710.267884
1626.286805
1545.735579
1468.517913
1394.569989
1323.808424
1256.174553
1191.686583
1129.529339
7744.670979
7713.43461
7649.454272
7554.671867
7433.812772
7290.238016
7127.354389
6948.192403
6756.26411
6554.386123
6345.458729
6131.881003
5916.04811
5699.710231
5484.750247
5272.51045
5064.080726
4860.418855
4662.188421
4469.738555
4283.331913
4103.123449
3929.223936
3761.546751
3600.000146
3444.435757
3294.672125
3150.528047
3011.80622
2878.267536
2749.697003
2625.899164
2506.696003
2391.923844
2281.439147
2175.098973
2072.758049
1974.302846
1879.629516
1788.64375
1701.283171
1617.451332
1537.054151
1460.008812
1386.241829
1315.709288
1248.301075
1183.972715
1122.737361
1063.830721
7228.935931
7200.478526
7142.63358
7056.681851
6947.114779
6817.043188
6669.135058
6506.431359
6332.049526
6148.32113
5958.094932
5763.291503
5566.20631
5368.437088
5171.499765
4976.785017
4785.141888
4597.3246
4413.984695
4235.462767
4062.023852
3893.851273
3731.061099
3573.679483
3421.608406
3274.763544
3133.02682
2996.255046
2864.334655
2737.082018
2614.344732
2495.988934
2381.882766
2271.89694
2165.946261
2063.920198
1965.709548
1871.227858
1780.396857
1693.143773
1609.437487
1529.163615
1452.252779
1378.637178
1308.260103
1241.055047
1176.925891
1115.817921
1057.742674
1001.977682
6774.346823
6748.31124
6695.854519
6617.561994
6517.862719
6399.189618
6264.196654
6115.742099
5956.30092
5788.265084
5613.988318
5435.414743
5254.395614
5072.557107
4891.11265
4711.257222
4533.797775
4359.388845
4188.604707
4021.892915
3859.493672
3701.601072
3548.330051
3399.768866
3255.870156
3116.581835
2981.834061
2851.540233
2725.616302
2603.972196
2486.493174
2373.079585
2263.637416
2158.086504
2056.370157
1958.406575
1864.113499
1773.428759
1686.289905
1602.657554
1522.471868
1445.652516
1372.138295
1301.864351
1234.789481
1170.819958
1109.862402
1051.85799
996.8419442
944.0790655
6369.553362
6345.612167
6297.847869
6226.225298
6134.933938
6026.186608
5902.425864
5766.29491
5619.869219
5465.50374
5305.129719
5140.65824
4973.590412
4805.471169
4637.300399
4470.112626
4304.767176
4141.84135
3981.872211
3825.352386
3672.499594
3523.51463
3378.531134
3237.671617
3100.941967
2968.323153
2839.782707
2715.275649
2594.775188
2478.24061
2365.57771
2256.727108
2151.633702
2050.242186
1952.538294
1858.439982
1767.898003
1680.864434
1597.294541
1517.161086
1440.392611
1366.93313
1296.71901
1229.698872
1165.818956
1104.971306
1047.065027
992.0629763
939.9550668
890.0519747
6006.064246
5983.954455
5940.321192
5874.508087
5790.563015
5690.570507
5576.768453
5451.395089
5316.408675
5174.001714
5025.779468
4873.545631
4718.546996
4562.180172
4405.407762
4249.15321
4094.285549
3941.336943
3790.813114
3643.169837
3498.662608
3357.498662
3219.835559
3085.800869
2955.464426
2828.818987
2705.878077
2586.642462
2471.126313
2359.298341
2251.110737
2146.533843
2045.53629
1948.101616
1854.218998
1763.829391
1676.900396
1593.395065
1513.281313
1436.533802
1363.088754
1292.888083
1225.872012
1162.0174
1101.210692
1043.364107
988.3952116
936.2625355
886.9185481
839.7259294
5677.67718
5657.185994
5617.222266
5556.486391
5479.067719
5386.809135
5281.775446
5165.886755
5040.970097
4908.963421
4771.280099
4629.586783
4485.005512
4338.803661
4191.940597
4045.246866
3899.548032
3755.348381
3613.124819
3473.305718
3336.194766
3201.985502
3070.851876
2942.954272
2818.376965
2697.159059
2579.347871
2464.972719
2354.071298
2246.636548
2142.651387
2042.110761
1945.008667
1851.36314
1761.146304
1674.330934
1590.890102
1510.790347
1434.043874
1360.583299
1290.359076
1223.314951
1159.423956
1098.59777
1040.747991
985.7830774
933.6401984
884.2277877
837.5074294
792.8900063
5379.66982
5360.606935
5323.826859
5267.603338
5195.951888
5110.494324
5013.121234
4905.495657
4789.325443
4666.297324
4537.760803
4405.197989
4269.701141
4132.415865
3994.271217
3856.008115
3718.397452
3581.929916
3447.064122
3314.2333
3183.728097
3055.758555
2930.514895
2808.178949
2688.864258
2572.638774
2459.568389
2349.699716
2243.125572
2139.822007
2039.812327
1943.111925
1849.742739
1759.731944
1673.049485
1589.682114
1509.6088
1432.840646
1359.345464
1289.070227
1221.965673
1157.998988
1097.105184
1039.195821
984.1837909
931.9971437
882.5345428
835.7069552
791.4777258
749.3044281
5108.037277
5090.214483
5056.237843
5003.967913
4937.337946
4857.783407
4767.029227
4666.549085
4557.946914
4442.738904
4322.197505
4197.666278
4070.187497
3940.793176
3810.355192
3679.559245
3549.130795
3419.559248
3291.280837
3164.718488
3040.167367
2917.841622
2797.95295
2680.725495
2566.263784
2454.657623
2345.993118
2240.370446
2137.852866
2038.461487
1942.235235
1849.20951
1759.440648
1672.922226
1589.648213
1509.611975
1432.824826
1359.285429
1288.940848
1221.751255
1157.679968
1096.682514
1038.671012
983.5627708
931.2841301
881.7451711
834.8292291
790.4530459
748.6042218
708.7241201
4859.101084
4842.36927
4810.814272
4761.967418
4699.68647
4625.263665
4540.254203
4446.026644
4344.066226
4235.756513
4122.287968
4004.888488
3884.515631
3762.128494
3638.533323
3514.386955
3390.402403
3267.015488
3144.659896
3023.774225
2904.619594
2787.445801
2672.484613
2559.978679
2450.007826
2342.700607
2238.172291
2136.551535
2037.878132
1942.211003
1849.607228
1760.129595
1673.819108
1590.669444
1510.690711
1433.897067
1360.315776
1289.894989
1222.605236
1158.409606
1097.281831
1039.135582
983.892779
931.4793215
881.8195809
834.7938128
790.2960414
748.2737699
708.6508927
670.9287878
4629.59828
4613.824093
4584.366638
4538.516023
4480.050514
4410.141144
4330.218114
4241.545146
4145.489112
4043.325922
3936.141599
3825.087627
3711.037406
3594.902255