/*--------------------------------*- C++ -*----------------------------------*\
  =========                 |
  \\      /  F ield         | OpenFOAM: The Open Source CFD Toolbox
   \\    /   O peration     | Website:  https://openfoam.org
    \\  /    A nd           | Version:  7
     \\/     M anipulation  |
\*---------------------------------------------------------------------------*/
FoamFile
{
    version     2.0;
    format      ascii;
    class       volVectorField;
    location    "0.003";
    object      grad(generalizedNewtonian:nu);
}
// * * * * * * * * * * * * * * * * * * * * * * * * * * * * * * * * * * * * * //

dimensions      [0 1 -1 0 0 0 0];

internalField   nonuniform List<vector> 
14000
(
(-10930103.22 0 124222101.8)
(-12141809.81 0 118428380.9)
(-20239322.62 0 117988063.5)
(-30668746.03 0 110102928)
(-34857314.78 0 101695234.2)
(-38233793.48 0 92786423.36)
(-40478559.44 0 83606858.38)
(-41536686.48 0 74547031.6)
(-41657662.58 0 65887139.88)
(-41089247.54 0 57787516.11)
(-40025707.57 0 50324932.05)
(-38620299.51 0 43519119)
(-36992321.49 0 37352721.24)
(-35232013.82 0 31786849.53)
(-33406508.8 0 26771424.23)
(-31565312.37 0 22251808.7)
(-29738998.57 0 18174221.88)
(-27939928.38 0 14489295.25)
(-26177939.49 0 11152926)
(-24470248.09 0 8125876.052)
(-22831975.49 0 5373539.592)
(-21264760.32 0 2866397.149)
(-19765699.42 0 580810.0098)
(-18344859.56 0 -1501861.379)
(-17016630.48 0 -3396451.694)
(-15792867.67 0 -5113740.585)
(-14692931.86 0 -6660941.049)
(-13742145.49 0 -8042762.153)
(-12972961.47 0 -9262013.279)
(-12423077 0 -10320517.2)
(-12129943.13 0 -11220297.1)
(-12140505.8 0 -11964656.43)
(-12508608.27 0 -12558934.53)
(-13278727.81 0 -13011035.49)
(-14483375.64 0 -13331980.53)
(-16143660.75 0 -13535771.55)
(-18257908.49 0 -13638755.21)
(-20791345.99 0 -13659460.37)
(-23674172.41 0 -13618629.84)
(-26795784.99 0 -13539121.51)
(-30003049.02 0 -13445650.08)
(-33115920.88 0 -13365253)
(-35952189.75 0 -13327351.66)
(-38345628.68 0 -13362781.99)
(-40110402.82 0 -13502194.84)
(-41085660.95 0 -13772874.59)
(-41823055.16 0 -14199474.44)
(-43641473.85 0 -14824230.09)
(-39306102.99 0 -15704757.45)
(-27403320.56 0 -16593399.45)
(-2665819.159 0 45421438.28)
(266958.1831 0 44554594.57)
(-106880.4478 0 43611996.14)
(-2288867.638 0 41723602.24)
(-2211956.362 -4.214602094e-07 39510676.81)
(-2416429.612 0 37052541.06)
(-2672558.367 0 34432892.52)
(-2839378.293 0 31738945.97)
(-2914454.925 0 29038556.04)
(-2907730.787 0 26380252.05)
(-2824551.534 0 23797748.09)
(-2670990.405 0 21313055.44)
(-2456504.173 0 18939397.53)
(-2189082.399 0 16684232.65)
(-1871246.244 0 14551097.54)
(-1513446.464 0 12540865.68)
(-1135514.054 0 10652969.18)
(-751715.7374 0 8886852.794)
(-377558.6359 0 7242957.544)
(-37707.54269 0 5721890.804)
(240599.1532 0 4323716.742)
(425580.7728 0 3048527.232)
(481250.0804 0 1896958.441)
(372135.7613 0 869079.3783)
(59698.89822 0 -37107.44251)
(-494397.9446 0 -825730.2228)
(-1318920.508 6.564482471e-08 -1503564.019)
(-2429324.608 0 -2080652.118)
(-3823951.241 -6.445692042e-08 -2570726.234)
(-5475776.777 0 -2991231.733)
(-7324900.168 6.359647769e-08 -3362343.333)
(-9281787.418 0 -3706784.564)
(-11235001.42 0 -4049459.277)
(-13054319.5 0 -4416218.757)
(-14603153.68 0 -4832954.548)
(-15761702.14 0 -5324835.452)
(-16438340.64 0 -5915905.258)
(-16570797.61 0 -6627552.183)
(-16130866.32 0 -7477230.715)
(-15128893.29 6.263357192e-08 -8478532.384)
(-13597934.05 0 -9639848.639)
(-11568770.29 0 -10963116.01)
(-9062089.487 0 -12443076.91)
(-6085306.539 0 -14068091.22)
(-2640877.636 0 -15820907.03)
(1329269.362 0 -17675152.92)
(6173819.908 3.209385717e-08 -19600288.35)
(12215154.76 0 -21609169.8)
(17177079.75 0 -23753636.16)
(17713312.42 0 -25439784.04)
(-1441962.012 0 4270685.346)
(1624586.047 0 4140326.027)
(2000109.926 3.644315315e-07 4060524.191)
(923375.0203 0 3817191.994)
(1640544.3 0 3523474.2)
(2090445.542 1.800384978e-07 3179359.236)
(2444647.85 0 2787723.313)
(2816350.471 0 2356654.215)
(3204354.334 -1.266262926e-07 1894148.867)
(3593297.599 0 1408349.097)
(3977072.377 0 907465.7955)
(4353912.132 0 399248.7908)
(4715535.922 -9.620349965e-08 -108979.9088)
(5047907.457 0 -610359.188)
(5337680.897 8.764841734e-08 -1097865.12)
(5569821.032 -8.428846614e-08 -1564323.083)
(5724896.913 -8.139385419e-08 -2003693.448)
(5778807.431 0 -2411010.587)
(5708071.472 0 -2782048.383)
(5496445.821 0 -3114172.004)
(5131038.965 0 -3406801.856)
(4601059.71 0 -3661704.15)
(3906365.431 0 -3883485.835)
(3062610.756 0 -4079462.547)
(2100324.606 6.827694449e-08 -4259812.516)
(1062732.003 0 -4437468.892)
(3163.64729 0 -4627150.743)
(-1013126.965 0 -4845122.168)
(-1915845.277 0 -5108328.13)
(-2644175.967 0 -5432631.766)
(-3144202.828 0 -5831540.96)
(-3372014.309 0 -6315304.59)
(-3305420.398 0 -6889959.841)
(-2936535.943 0 -7555840.394)
(-2265618.597 0 -8307806.448)
(-1297049.836 0 -9136306.533)
(-40821.50411 0 -10027677.22)
(1482872.905 0 -10965685.59)
(3264977.954 0 -11932797.26)
(5309778.957 0 -12911136.02)
(7615130.541 6.372947379e-08 -13883612.41)
(10162587.8 6.388731818e-08 -14833728.64)
(12922150.73 0 -15745384.64)
(15857460.35 0 -16602331.95)
(18891429.24 0 -17386715.28)
(21930165.81 0 -18079161.66)
(25057395.17 0 -18658172.5)
(28376017.68 0 -19093702.96)
(28291728.88 -3.296253651e-08 -19358210.65)
(22734985.54 0 -19379869.17)
(-1260834.809 0 -4826299.551)
(1757762.642 -1.200385073e-06 -4879296.8)
(2444900.524 0 -4870416.698)
(1783540.005 0 -4936616.608)
(2697337.324 0 -5011250.307)
(3339883.568 0 -5095984.549)
(3873976.663 0 -5192008.711)
(4397263.959 0 -5296288.698)
(4904504.955 0 -5404853.537)
(5376823.827 0 -5514218.14)
(5804994.616 0 -5621676.957)
(6183251.731 0 -5724123.339)
(6502767.127 0 -5818309.918)
(6750958.35 0 -5902078.6)
(6915226.812 0 -5973863.158)
(6987030.251 0 -6032918.364)
(6960130.767 0 -6079932.438)
(6831143.161 0 -6116981.933)
(6601926.933 0 -6147913.807)
(6280001.121 0 -6178052.803)
(5880631.344 0 -6213885.513)
(5426132.751 7.278532544e-08 -6263149.825)
(4942601.644 0 -6334224.485)
(4461738.053 -7.034064057e-08 -6435288.504)
(4017680.42 6.93402634e-08 -6573763.807)
(3637781.12 6.846622634e-08 -6755595.505)
(3349723.065 0 -6984605.061)
(3185043.486 0 -7262352.619)
(3163673.782 0 -7587302.087)
(3294395.305 0 -7954951.11)
(3589345.982 0 -8359100.779)
(4062054.459 0 -8791576.049)
(4709640.576 -6.498922023e-08 -9242788.518)
(5522442.5 6.478072627e-08 -9703215.344)
(6503481.776 0 -10162934.96)
(7647429.472 6.452931717e-08 -10612403.97)
(8937659.641 6.447946828e-08 -11042382.67)
(10360208.93 6.447622666e-08 -11443788.74)
(11894514.49 0 -11808217.62)
(13509883.24 0 -12126989.29)
(15166128.34 -6.472197213e-08 -12391114.85)
(16819661.04 0 -12591239.46)
(18425279.1 0 -12718432.91)
(19918408.51 0 -12765006.71)
(21214085.3 0 -12725270.08)
(22273165.3 0 -12595549.4)
(23221933.51 0 -12367535.02)
(24228276.43 0 -12023757.68)
(22207631.22 0 -11566436.36)
(15962032.13 0 -11116611.16)
(-884263.7018 0 -7602691.313)
(1860181.952 0 -7653885.956)
(2491609.107 0 -7589311.658)
(1971911.265 0 -7599885.1)
(2848558.306 0 -7596481.163)
(3485210.121 0 -7584343.74)
(4016602.867 0 -7567462.371)
(4516275.326 0 -7544701.916)
(4976852.363 0 -7514076.427)
(5389927.09 1.201427254e-07 -7474540.866)
(5749197.265 0 -7426166.617)
(6045575.009 0 -7368953.048)
(6276192.572 9.922330522e-08 -7303131.098)
(6438877.513 0 -7230122.266)
(6530973.633 9.039968085e-08 -7152326.719)
(6556884.949 8.693426157e-08 -7072626.606)
(6523329.699 8.394878842e-08 -6994595.824)
(6437750.923 0 -6922493.184)
(6311293.126 -7.911185696e-08 -6860725.549)
(6158815.233 0 -6813787.957)
(5998571.103 0 -6785947.277)
(5847586.429 0 -6780526.797)
(5720054.396 -7.259610334e-08 -6799738.711)
(5631762.628 0 -6844787.654)
(5598968.243 0 -6915243.295)
(5633851.499 0 -7009403.387)
(5747198.488 -6.875981844e-08 -7124966.77)
(5946874.063 0 -7257976.543)
(6233063.44 0 -7403249.794)
(6607986.934 0 -7555463.556)
(7074461.058 6.661427277e-08 -7709083.115)
(7625542.938 0 -7857735.21)
(8254956.839 6.600133733e-08 -7994633.575)
(8953073.788 0 -8114086.458)
(9705956.866 0 -8209948.397)
(10504080.38 -6.553427191e-08 -8275587.151)
(11329366.99 0 -8305697.456)
(12158964.67 -6.548035459e-08 -8294778.888)
(12974829.4 0 -8237313.894)
(13757881.41 6.560567497e-08 -8129311.108)
(14480073.43 0 -7967764.855)
(15107015.82 -6.58927263e-08 -7750008.423)
(15616695.77 0 -7474344.15)
(16006048.13 0 -7142916.097)
(16246783.68 0 -6766940.302)
(16191425.52 0 -6359466.641)
(15684667.91 6.723356492e-08 -5818050.648)
(14984716.79 6.759889514e-08 -4700991.964)
(12853137.79 0 -1923439.204)
(8475101.871 0 1357863.596)
(-727234.1917 0 -7637520.09)
(1507940.686 0 -7685578.509)
(2135090.981 0 -7576702.251)
(1827972.619 0 -7555409.7)
(2580695.873 0 -7507642.32)
(3123205.981 0 -7441972.72)
(3572253.209 0 -7364393.974)
(3982578.153 0 -7274899.64)
(4348884.979 0 -7173971.943)
(4667488.286 0 -7062652.652)
(4936730.899 1.134980504e-07 -6941830.499)
(5152107.933 0 -6813402.687)
(5317186.183 1.007685705e-07 -6679628.063)
(5438869.378 9.592080917e-08 -6542636.045)
(5519174.118 0 -6405248.003)
(5562878.695 0 -6270370.441)
(5579759.411 0 -6140479.353)
(5578288.723 8.262953467e-08 -6017951.014)
(5567349.402 0 -5904820.495)
(5558095.046 7.834823327e-08 -5802603.394)
(5559172.851 7.660141045e-08 -5712033.978)
(5576717.363 0 -5632844.668)
(5618554.625 0 -5564303.58)
(5690914.387 0 -5505282.601)
(5797842.613 -7.151683797e-08 -5453657.538)
(5945626.016 0 -5406650.417)
(6134683.608 0 -5361252.116)
(6360487.931 0 -5313903.876)
(6621890.375 0 -5260801.55)
(6917004.51 0 -5198379.734)
(7238273.97 0 -5122524.673)
(7575933.082 -6.730675541e-08 -5029252.605)
(7926724.341 0 -4915035.074)
(8279808.763 0 -4775965.773)
(8617083.184 0 -4609037.458)
(8934699.453 0 -4411384.803)
(9221207.557 0 -4180028.621)
(9450616.552 0 -3913067.948)
(9614036.776 0 -3609058.181)
(9707498.309 0 -3266749.617)
(9702848.528 0 -2885899.086)
(9569703.194 0 -2468536.35)
(9330154.507 6.712173975e-08 -2012287.998)
(9116204.063 -6.736057449e-08 -1509943.816)
(9020418.809 6.763410031e-08 -965553.7399)
(7205567.303 0 -185104.5246)
(-3635152.986 0 1666015.426)
(-39962014.43 0 4670192.416)
(-78980931.61 0 8086319.092)
(-77197700.42 3.474251253e-08 10594829.89)
(-393962.9922 0 -6258765.275)
(1220564.041 0 -6305179.912)
(1661264.991 0 -6191250.036)
(1461647.752 0 -6156985.038)
(2015796.092 0 -6093608.239)
(2421243.644 0 -6011509.83)
(2754098.16 0 -5916843.239)
(3051633.727 0 -5810793.347)
(3314708.014 1.347005998e-07 -5694708.417)
(3538449.712 0 -5570503.448)
(3724604.213 0 -5439585.231)
(3876286.751 0 -5303816.134)
(3994317.362 1.023379018e-07 -5165542.619)
(4083651.999 0 -5026395.55)
(4150594.121 0 -4887823.312)
(4199147.812 0 -4751424.291)
(4234095.129 -8.658392149e-08 -4618389.236)
(4261327.406 0 -4489425.908)
(4286264.175 0 -4364952.424)
(4313282.429 0 -4244883.012)
(4344524.894 7.779437162e-08 -4128619.667)
(4382933.37 0 -4015351.602)
(4433606.596 -7.487487825e-08 -3904066.815)
(4496908.778 0 -3793241.481)
(4570023.107 0 -3681228.985)
(4652957.525 0 -3566168.739)
(4744414.739 -7.091817325e-08 -3445719.954)
(4839347.572 0 -3317866.318)
(4933316.103 0 -3180564.835)
(5019947.349 0 -3031710.775)
(5091946.668 0 -2869167.881)
(5143719.826 0 -2691183.321)
(5164333.737 0 -2496178.083)
(5145237.06 0 -2282185.665)
(5079953.995 6.769542619e-08 -2048158.874)
(4954436.901 0 -1793294.796)
(4758521.217 6.753916323e-08 -1516350.103)
(4485134.193 0 -1217294.505)
(4121641.988 6.75785135e-08 -897704.3522)
(3662864.62 0 -557400.6646)
(3125023.088 1.355863489e-07 -180941.7787)
(2441964.014 0 236960.4798)
(1455281.397 0 561840.2478)
(254168.6678 0 923961.4571)
(-4080260.964 -6.868740801e-08 2344290.036)
(-24989822.89 0 5030923.631)
(-61582207.95 0 7812024.65)
(-89310331.53 3.486040442e-08 8579188.769)
(-85535007.51 0 5498918.355)
(-58390242.99 0 1299981.02)
(-258144.4874 0 -4271964.887)
(828432.7078 0 -4301984.872)
(1184585.976 0 -4211042.866)
(1120842.856 0 -4181792.484)
(1528032.04 0 -4130755.428)
(1827434.148 0 -4066290.738)
(2075530.549 0 -3993070.126)
(2296595.434 0 -3912969.538)
(2492129.901 1.367983755e-07 -3827093.658)
(2659795.878 0 -3736855.027)
(2799248.066 0 -3644004.226)
(2915045.538 0 -3549729.612)
(3010296.282 0 -3455253.285)
(3086292.563 0 -3361801.548)
(3146356.676 0 -3270154.996)
(3194334.594 -9.105948692e-08 -3180866.329)
(3233398.914 0 -3094322.826)
(3266038.683 0 -3010654.745)
(3294357.944 0 -2929758.927)
(3320109.055 0 -2851272.614)
(3344681.095 0 -2774645.439)
(3369431.357 0 -2699367.363)
(3394044.818 -7.604095099e-08 -2624611.68)
(3416933.348 0 -2549252.105)
(3436740.305 0 -2472367.641)
(3450237.739 0 -2393016.733)
(3453755.509 0 -2310121.643)
(3443181.587 7.132180875e-08 -2222660.806)
(3413656.799 0 -2129791.119)
(3359351.425 0 -2030627.517)
(3273867.976 0 -1924587.66)
(3151144.473 6.941949927e-08 -1811120.903)
(2982533.249 0 -1689772.2)
(2761143.784 -6.891146e-08 -1560580.179)
(2480808.62 0 -1423466.484)
(2133056.456 -6.864401984e-08 -1279157.955)
(1714715.139 0 -1130059.439)
(1235689.863 0 -975000.5593)
(684854.5546 0 -790620.1994)
(-176444.3724 0 -577167.5761)
(-1454254.283 0 -547232.414)
(-1045558.353 0 -547346.2283)
(-716975.3629 1.38457352e-07 624494.3484)
(-17462281.07 0 3143162.78)
(-53002512.3 0 5582520.97)
(-76803127.24 0 6048883.254)
(-59296132.58 0 3593337.409)
(-3214872.026 0 -596906.3841)
(38733681.27 0 -5058035.021)
(38600292.1 -3.583307216e-08 -8293645.666)
(-96390.45126 -3.794787188e-06 -2406424.183)
(645299.2349 1.296813824e-06 -2426164.404)
(898021.3575 0 -2368109.873)
(889914.0694 0 -2346903.259)
(1192930.192 0 -2310789.389)
(1427061.71 0 -2265928.355)
(1628115.924 0 -2215522.402)
(1810774.722 3.062776283e-07 -2160901.147)
(1974088.529 0 -2103150.384)
(2119181.829 2.556072167e-07 -2043215.783)
(2247044.986 1.188837867e-07 -1982189.807)
(2358060.897 0 -1921079.03)
(2454440.152 1.055502645e-07 -1860460.565)
(2538427.097 0 -1800891.277)
(2611615.022 0 -1742836.289)
(2675304.604 -9.24776118e-08 -1686566.688)
(2731027.454 0 -1632154.096)
(2780557.337 -8.655049082e-08 -1579493.791)
(2824842.107 0 -1528370.828)
(2863906.063 -1.641320642e-07 -1478514.589)
(2898105.503 0 -1429561.523)
(2927095.743 0 -1381035.894)
(2949166.559 7.722518305e-08 -1332368.141)
(2962745.961 0 -1283057.579)
(2965701.752 7.491047182e-08 -1232634.151)
(2955243.621 0 -1180601.394)
(2927996.988 0 -1126679.697)
(2880142.813 0 -1070570.431)
(2807447.227 -7.182066412e-08 -1012213.102)
(2705323.84 0 -951596.6684)
(2569160.006 0 -888988.8487)
(2393940.35 0 -824737.1816)
(2174946.245 0 -759493.9885)
(1907572.417 0 -694925.1475)
(1593711.996 0 -634075.1767)
(1250775.958 0 -574412.4075)
(845544.1993 -6.965920166e-08 -486513.2722)
(34568.88033 0 -379736.3237)
(-1185024.503 -6.969978713e-08 -519760.0458)
(369809.9907 0 -713380.5268)
(2652528.069 0 369068.3105)
(-14200134.51 -7.009436616e-08 2877900.064)
(-51320022.25 0 5302141.12)
(-71815142.98 0 5778472.361)
(-47300429.7 0 3493374.151)
(4740392.717 0 -445598.9354)
(40634744.72 3.576035158e-08 -4392337.838)
(47108883.35 0 -6716487.418)
(38513528.87 0 -6885604.673)
(29211387.73 -7.278224485e-08 -6125563.534)
(-64338.62985 0 -1155184.929)
(470923.618 1.317009914e-06 -1161501.491)
(685896.676 1.624260957e-06 -1123357.489)
(719488.1895 0 -1104093.75)
(960381.3712 0 -1074481.429)
(1150393.905 0 -1038004.914)
(1316406.167 0 -996765.2321)
(1469928.487 0 -951316.1793)
(1610624.744 0 -902386.2372)
(1737188.795 0 -850793.5505)
(1850533.226 0 -796990.5526)
(1951917.849 0 -741416.7386)
(2041665.595 0 -684472.1342)
(2120668.855 0 -626392.0855)
(2190311.677 0 -567305.8)
(2251442.589 0 -507242.3906)
(2304170.479 0 -446160.1853)
(2348488.13 0 -383941.5811)
(2384880.835 -8.546703297e-08 -320389.0213)
(2413492.732 0 -255259.9724)
(2433484.416 -8.14858888e-08 -188336.3254)
(2443818.407 0 -119359.2333)
(2443399.447 0 -48135.68493)
(2431020.753 0 25450.56764)
(2404790.546 0 101454.6328)
(2362904.152 0 179793.9405)
(2303218.341 0 260272.5421)
(2223608.595 0 342503.5018)
(2122018.833 0 425964.0635)
(1996184.82 0 509957.7084)
(1843807.549 0 593559.9368)
(1663599.181 0 674650.2751)
(1463010.723 0 749638.881)
(1265041.337 0 822366.8487)
(1014834.81 0 927137.2627)
(301787.2694 0 1047456.945)
(-738255.0466 0 878399.3715)
(1689838.441 0 628219.4593)
(5000659.785 0 1669785.223)
(-12185510.22 0 4150910.692)
(-50103004.98 0 6601979.212)
(-69004882.17 0 7167295.933)
(-41700594.48 0 4963948.174)
(8065060.57 0 1073246.512)
(37869815.73 3.597338968e-08 -2594734.948)
(41202481.32 3.613669669e-08 -4391159.186)
(36494574.36 0 -4403796.039)
(35424008.06 3.651460869e-08 -3510384.342)
(29279047.28 0 605774.034)
(-16395377.83 0 6855249.062)
(-35616.62628 0 -369829.6465)
(377695.6109 1.337520512e-06 -370377.9916)
(535356.6392 8.247782813e-07 -345643.3649)
(554866.3606 0 -326180.3333)
(737450.5253 0 -298300.7741)
(883799.3941 0 -264156.4336)
(1011649.994 0 -224932.9992)
(1127745.987 0 -181138.625)
(1233528.078 0 -133133.9049)
(1328488.562 0 -81225.46277)
(1411371.427 0 -25835.39944)
(1482509.842 0 32719.40412)
(1542783.82 0 94198.37241)
(1592521.579 0 158441.5669)
(1631774.026 0 225408.6667)
(1660472.25 9.538046276e-08 295124.3234)
(1678853.66 0 367572.391)
(1687218.307 0 442677.8836)
(1685235.94 0 520408.0674)
(1672514.552 0 600828.6846)
(1648960.763 0 683904.1193)
(1614188.425 0 769514.3223)
(1567567.135 0 857569.5464)
(1508642.238 0 947780.585)
(1437108.214 0 1039797.953)
(1352659.561 0 1133177.023)
(1255164.499 -7.544026007e-08 1227426.593)
(1144500.987 0 1321943.77)
(1020243.369 0 1415956.534)
(882881.9768 0 1507451.936)
(744669.0602 0 1592929.962)
(632492.5382 0 1677468.591)
(475602.1598 0 1799195.666)
(-176094.6583 0 1940179.474)
(-1089681.575 0 1773659.068)
(1881450.718 0 1502363.341)
(6002326.491 0 2501672.518)
(-10125632.35 0 4938263.04)
(-46427278.23 0 7401031.655)
(-64091393.37 0 8026632.276)
(-37834889.6 0 5861100.505)
(7668144.626 0 1971814.845)
(33161374.85 -3.625686558e-08 -1579988.489)
(35516025.11 0 -3111735.904)
(31814840.99 0 -3012845.434)
(31309305.45 3.669947549e-08 -2187004.765)
(27302052.24 0 1830347.028)
(-29554275.64 0 8293486.791)
(-121910158.9 0 14255770.26)
(-158505779.2 -3.753343139e-08 18924556.55)
(-58745.28364 0 131182.403)
(281720.7695 0 135171.9104)
(403073.2514 8.3762306e-07 151487.8131)
(400950.3462 0 169312.2408)
(539443.068 0 193037.3292)
(644985.5096 0 221773.0648)
(734717.8242 0 255107.3146)
(815222.7648 0 292521.746)
(885103.4623 0 333496.4896)
(943796.2701 0 377735.1667)
(992436.6216 0 424993.6225)
(1031161.769 0 474914.6898)
(1059276.703 0 527234.6332)
(1076201.76 0 581737.6811)
(1081870.866 0 638223.9709)
(1076901.764 0 696454.1009)
(1062183.257 0 756105.3814)
(1037819.523 0 816984.219)
(1003049.176 0 879083.2566)
(958004.2923 0 942153.3945)
(903450.9974 0 1005765.346)
(838854.0679 0 1069762.475)
(764800.5134 0 1133861.484)
(682679.3759 0 1197596.277)
(592424.1145 0 1260706.806)
(494027.6582 0 1322855.745)
(387461.8215 0 1383583.544)
(274110.7632 0 1441343.044)
(167651.0021 0 1493034.069)
(96578.80003 0 1544644.265)
(-16643.28417 0 1636499.593)
(-638336.2088 -7.384602309e-08 1753735.745)
(-1513317.624 -7.354151965e-08 1563753.638)
(1594061.866 0 1246258.694)
(6119044.611 0 2164003.807)
(-8584097.217 0 4531861.983)
(-42592943.91 0 6973252.781)
(-59056644.75 0 7610959.134)
(-34330225.18 0 5492456.234)
(7317627.526 0 1675634.235)
(29580261.07 0 -1782666.191)
(31225445.4 0 -3230836.572)
(28044726.76 0 -3175973.578)
(27977165.96 0 -2504531.013)
(24603320.75 0 1354699.133)
(-29114896.96 -7.454203792e-08 7778177.186)
(-117429648.1 0 13697498.13)
(-150634594.4 0 18493647.62)
(-134187782.5 0 19351028.22)
(-117854386.9 0 17157635.84)
(-72886.53556 0 465972.7789)
(231782.004 0 471118.8291)
(315192.9625 0 479330.2819)
(280373.214 0 492530.0333)
(386835.4176 -4.995535899e-07 509284.7416)
(462384.1077 0 529352.8618)
(523133.2968 0 552276.4317)
(576884.0847 0 577769.4888)
(623772.4043 0 605535.4451)
(661658.2934 0 634959.5202)
(689995.3964 0 665614.3478)
(709405.4382 0 697313.0488)
(719900.2943 0 729826.8852)
(721472.2827 0 762813.1308)
(714513.6179 0 795854.8525)
(700124.3126 0 828560.4232)
(678347.9255 0 860726.5141)
(647038.597 0 892357.6502)
(606491.305 0 923251.0369)
(560070.4381 0 952879.8189)
(507091.4026 8.535257652e-08 981068.4766)
(446202.9703 0 1007802.758)
(379857.8656 0 1032725.792)
(307713.6636 0 1055851.121)
(228675.1396 0 1077172.059)
(144714.8821 0 1095291.496)
(68320.12969 0 1107395.925)
(27278.78188 0 1119714.776)
(-55425.56426 0 1173606.55)
(-640294.9697 0 1258982.022)
(-1504490.445 0 1047614.1)
(1461678.406 0 679252.7566)
(6094311.433 0 1493841.918)
(-7158616.762 0 3786649.456)
(-39058839.52 0 6202798.315)
(-54679404.66 0 6840791.275)
(-31186781.3 0 4760152.19)
(7666576.783 0 1009406.521)
(27683560.48 0 -2375617.31)
(28856843.83 0 -3774741.49)
(25977929.53 0 -3757451.772)
(26015543.71 0 -3273973.281)
(23257254.12 0 212322.6906)
(-26911228.69 0 6583384.867)
(-111452616.3 0 12565620.84)
(-143982675.1 0 17411990.03)
(-129014828.4 0 18293074.76)
(-113576278.8 0 16105391.84)
(-101505513.2 0 14067269.09)
(-91795492.78 0 12468844.64)
(-105848.7634 0 603974.7536)
(193411.3971 0 609715.7082)
(263613.641 0 611441.2441)
(206364.0008 0 619704.1075)
(296979.7145 0 629443.2274)
(357417.5854 0 640822.0689)
(405232.5103 0 653507.8706)
(446298.424 0 667191.053)
(481840.2911 0 681777.4081)
(512364.5519 0 697008.762)
(536279.999 0 712384.8292)
(552584.8836 -1.205606226e-07 727633.3849)
(561937.89 1.14029278e-07 742517.2552)
(565422.9142 1.085435723e-07 756795.8632)
(563655.1077 0 770255.544)
(555878.1659 0 782743.825)
(540028.619 -9.647551764e-08 794224.6628)
(516357.9365 0 804625.9963)
(488705.2721 0 813633.8537)
(457234.1609 0 821077.5718)
(418614.3481 0 827134.3602)
(374124.6414 0 831855.1497)
(324199.576 -8.342879964e-08 835222.1289)
(267252.0017 0 836119.7354)
(216745.1097 -8.092814413e-08 831735.6933)
(200359.7394 0 828123.2645)
(144227.1685 0 866835.7225)
(-395581.0719 0 943452.7308)
(-1252180.132 0 740572.2851)
(1440057.078 0 342065.5424)
(6084979.092 0 1043397.305)
(-5603482.295 0 3245899.833)
(-35585476 7.58499712e-08 5643796.249)
(-50931751.44 0 6323094.489)
(-28853328.73 0 4314605.454)
(7865125.464 0 622325.9042)
(26483426.51 0 -2701228.702)
(27418481.33 0 -4031414.761)
(24669136.05 0 -3983733.869)
(24574496.1 0 -3637204.022)
(23089489.36 7.553806162e-08 -688704.623)
(-20693861.46 0 5592429.033)
(-102291724.9 0 11719104.55)
(-138415192.1 -3.811246719e-08 16703364.1)
(-125186652.3 0 17723926.98)
(-109819970.5 0 15580475.77)
(-98476025.37 0 13583563.65)
(-89039252.54 0 11990473.46)
(-80240034.08 0 10617388.26)
(-72913007.52 -1.965723836e-08 9438162.229)
(-124896.7999 0 589427.3945)
(189740.2079 0 594747.2986)
(247467.3404 0 592310.3543)
(165596.4766 0 597731.7309)
(249990.4075 2.576172288e-07 603371.6106)
(303945.5503 0 609590.7229)
(346523.057 0 616548.6786)
(384075.4458 -1.680171976e-07 624020.8324)
(416692.7512 -1.524266145e-07 631710.0011)
(445254.6791 -1.402205198e-07 639544.8353)
(469451.1165 0 647387.072)
(488338.3368 0 655016.9026)
(501924.8283 -1.158051258e-07 662265.3694)
(510239.1422 1.102339878e-07 669044.3186)
(513194.49 0 675352.9005)
(510632.159 0 681226.1832)
(502054.1792 -9.797798999e-08 686591.2238)
(487714.3122 0 691173.7758)
(468890.5739 0 694999.8336)
(444966.7802 0 698574.5796)
(413432.7117 8.803177349e-08 701810.288)
(374586.3866 0 703308.8703)
(341451.6545 0 700649.6149)
(339752.7653 0 699267.9329)
(302356.1216 0 740663.7103)
(-193211.3339 0 826858.2214)
(-1045484.77 0 655325.8789)
(1307685.806 0 250901.2838)
(5959637.616 7.879848606e-08 846598.9888)
(-3884672.403 0 2949927.949)
(-31723839.15 0 5337154.258)
(-47210329.58 -7.735018209e-08 6109525.825)
(-27307561.24 0 4224924.928)
(7211304.289 0 593011.5307)
(25007308.47 0 -2696582.106)
(25967295.67 0 -3973215.027)
(23235819.34 0 -3861965.089)
(22852441.3 0 -3584883.941)
(22842679.27 -7.647155275e-08 -1287414.597)
(-12054259.14 0 4768307.378)
(-89885428.09 3.835723106e-08 11078886.72)
(-132464944.6 -3.845223379e-08 16310118.59)
(-122420655.8 0 17738072.62)
(-107146502.6 0 15679572.71)
(-95957157.41 0 13660091.79)
(-86744125.81 0 12067193.76)
(-78495846.94 0 10711695.3)
(-71043234.86 -3.944788243e-08 9521323.22)
(-64220587.88 0 8477462.676)
(-58787261.82 -1.996337258e-08 7587559.252)
(-153136.3255 0 443796.208)
(184774.5283 0 449677.0136)
(238849.4532 0 446268.8085)
(137406.8426 0 451359.9558)
(221523.5544 0 456301.2112)
(272029.8625 0 461742.8499)
(310152.4835 1.914875664e-07 468024.595)
(344671.3958 0 475029.3597)
(375856.743 0 482461.0622)
(403367.2201 0 490167.1805)
(426753.3113 -1.32465413e-07 498170.3925)
(445338.6038 0 506386.3837)
(458967.3924 0 514744.7266)
(467571.6823 2.239014601e-07 523220.0984)
(470881.5986 0 531798.2205)
(468729.1219 0 540485.9127)
(461542.7747 0 549293.3849)
(448839.3101 0 558104.3618)
(428160.5405 0 566869.3388)
(400584.334 -9.144149208e-08 574843.5008)
(378831.6043 0 579220.4619)
(384918.1455 0 584723.6969)
(359700.0246 -8.604761049e-08 634271.6727)
(-97431.58755 0 735475.5645)
(-952873.6314 0 601531.8796)
(1033456.859 8.241633638e-08 208748.9398)
(5616628.282 0 718004.1732)
(-2392520.701 0 2716056.883)
(-27916868.66 0 5083908.242)
(-43623833.01 0 5975584.758)
(-26418351.68 0 4267024.802)
(5783530.028 0 731562.1329)
(23233230.79 -7.823088437e-08 -2536128.871)
(24531289.98 0 -3809054.257)
(21779044.42 0 -3656301.69)
(20939414.34 0 -3398160.993)
(21975107.16 0 -1787763.721)
(-2931036.233 0 3799340.618)
(-74932956.74 0 10270394.36)
(-125203563.2 0 15794092.28)
(-120297971 0 17875493.9)
(-105097323.8 0 16003958.27)
(-93911325.61 0 13929758.1)
(-84931948.49 0 12309260.43)
(-76973643 0 10943848.37)
(-69723443.91 0 9746128.241)
(-63197119.49 -1.99228586e-08 8694418.454)
(-57492506.38 0 7781219.116)
(-52423223.78 0 6992585.621)
(-48414290.88 -2.027427456e-08 6319422.391)
(-176483.6068 0 216855.9214)
(185420.7211 0 223245.5842)
(230449.8983 0 220524.8355)
(104349.4991 0 226986.5411)
(185127.4087 2.657037731e-07 233711.4584)
(229295.1044 0 241485.3294)
(260487.442 0 250599.5578)
(289008.6467 0 260884.7294)
(315223.512 0 272076.723)
(337999.8549 -1.44622009e-07 284005.7026)
(356684.8262 1.345283774e-07 296711.8973)
(370979.1461 0 310136.084)
(380516.9536 0 324172.0038)
(384960.1812 0 338758.7062)
(383991.9106 0 353906.5815)
(377272.5306 0 369678.6625)
(365286.4564 0 385947.9668)
(348749.3257 9.794016005e-08 401392.9207)
(334146.131 0 412843.9229)
(344032.9604 0 425625.8307)
(330416.8366 0 486528.0582)
(-100510.6407 0 606408.1226)
(-970875.8596 0 509536.56)
(664132.6544 0 146987.6637)
(5056204.724 0 615039.0269)
(-1400450.177 0 2527824.518)
(-24563493.39 0 4866263.262)
(-40250505.46 0 5868049.224)
(-25819422.65 0 4349307.261)
(4010519.241 0 935408.4533)
(21318519.08 0 -2320008.437)
(23135992.1 0 -3643060.364)
(20434585.82 0 -3486326.632)
(19120330.7 0 -3203464.461)
(20494396.53 0 -2195307.246)
(5057611.768 0 2648017.686)
(-58311840.49 0 9213051.127)
(-115665670.8 0 15029662.77)
(-118318784.9 0 17929613.86)
(-103504759.8 3.948647112e-08 16418118.03)
(-92181114.52 0 14274707.92)
(-83356948.52 0 12605600.62)
(-75649933.03 0 11219170.54)
(-68632979.14 0 10006566.33)
(-62269766.58 0 8937473.482)
(-56620553.05 2.013252822e-08 8003555.505)
(-51685361.25 -2.023312938e-08 7195419.646)
(-47383947.51 0 6497010.466)
(-43517154.57 0 5887035.642)
(-40443469.21 0 5358583.112)
(-208222.0599 0 -96254.51453)
(173343.2583 0 -89503.73813)
(209453.6213 0 -90698.89545)
(57915.87053 0 -82389.47741)
(132209.5285 -2.698417427e-07 -73239.46291)
(166126.6208 0 -62502.53153)
(186458.2517 0 -49837.48986)
(205352.3029 0 -35458.44595)
(223170.1867 0 -19802.85111)
(237654.3543 0 -2886.265114)
(247731.2943 0 15516.05281)
(253724.8716 0 35262.22076)
(255519.2618 -1.213003381e-07 56102.68556)
(252255.448 1.154648371e-07 77887.90707)
(242770.9563 0 100403.5167)
(227932.5267 0 122302.8664)
(218921.0064 0 140438.1066)
(239583.376 9.946544286e-08 161525.7853)
(235056.2614 -9.671412354e-08 239377.3363)
(-202361.1391 0 384060.9766)
(-1115171.306 0 321992.8937)
(224980.8008 0 14006.80488)
(4297746.973 8.874862475e-08 512703.2019)
(-1149332.747 0 2385902.473)
(-22153297.67 0 4689149.463)
(-37350007.63 0 5760178.588)
(-25249848.64 0 4400669.663)
(2296520.896 0 1118200.535)
(19410485.87 0 -2122026.517)
(21780191.1 0 -3526183.233)
(19235478.36 0 -3395198.653)
(17540376.15 0 -3063215.099)
(18657929.47 -8.068653343e-08 -2481483.383)
(10826203.49 0 1394522.759)
(-41232208.02 0 7916361.71)
(-103414978.5 0 14003559.37)
(-116037301.6 0 17776695.11)
(-102354260.5 0 16872038.18)
(-90763468.48 0 14675651.91)
(-82013603.73 0 12940322.06)
(-74519921.73 0 11525506.5)
(-67716642.42 0 10295174.62)
(-61511749.75 0 9207078.194)
(-55950070.94 0 8251022.395)
(-51050930.93 2.035366581e-08 7419157.571)
(-46752650.47 0 6698148.59)
(-42957312.95 0 6070236.919)
(-39582899.77 0 5519290.835)
(-36547502.54 0 5031636.539)
(-34166742 0 4606197.732)
(-233904.3024 0 -488547.9917)
(161716.085 0 -482233.3411)
(181530.0486 0 -482257.4995)
(374.8613365 0 -472979.7328)
(64372.02275 0 -462251.1758)
(84691.31634 0 -449608.4551)
(90574.68518 0 -434780.4074)
(97056.03756 0 -418052.5463)
(103234.3693 0 -399455.3499)
(103839.5788 0 -378661.5867)
(99131.94822 0 -355994.61)
(91928.52759 0 -331790.4711)
(82000.65297 0 -306194.6035)
(68931.73235 0 -280674.335)
(61386.56388 0 -258037.6804)
(81353.33318 0 -224475.8228)
(68585.25294 -1.042255431e-07 -117444.727)
(-419201.0111 -1.010144801e-07 66967.77968)
(-1410825.316 0 41350.76314)
(-280496.9139 0 -176334.5214)
(3340945.459 0 453321.4177)
(-1809832.493 0 2354981.951)
(-21013888.96 0 4618505.393)
(-35102678.18 0 5692222.24)
(-24502844.87 0 4415087.715)
(1026563.45 0 1232527.926)
(17681507.83 0 -1991592.82)
(20416532.97 0 -3478814.643)
(18104841.75 0 -3390982.832)
(16183796.62 0 -3008110.198)
(16746473.95 -8.270409717e-08 -2663035.128)
(13947015.71 0 170525.3053)
(-25190729.41 0 6426393.51)
(-88493749.68 0 12749304.74)
(-112627406.7 0 17337249.65)
(-101582246.3 0 17326099.64)
(-89628767.52 0 15136101.18)
(-80838269.81 -4.064814779e-08 13312431.33)
(-73536128.86 0 11858181.39)
(-66953166.57 0 10606466.91)