/*--------------------------------*- C++ -*----------------------------------*\
  =========                 |
  \\      /  F ield         | OpenFOAM: The Open Source CFD Toolbox
   \\    /   O peration     | Website:  https://openfoam.org
    \\  /    A nd           | Version:  7
     \\/     M anipulation  |
\*---------------------------------------------------------------------------*/
FoamFile
{
    version     2.0;
    format      ascii;
    class       volTensorField;
    location    "0.003";
    object      grad(U);
}
// * * * * * * * * * * * * * * * * * * * * * * * * * * * * * * * * * * * * * //

dimensions      [0 0 -1 0 0 0 0];

internalField   nonuniform List<tensor> 
14000
(
(-0.002980502598 2.470956569e-17 -0.0001757250277 -2.622978776e-15 -0.004826901449 0 0.0005944225602 -2.919272632e-16 0.008367964102)
(-0.004006389747 -3.416578001e-16 -0.0004605657062 -9.172108919e-16 -0.004247662423 0 0.001558191336 -5.004476109e-16 0.008434539373)
(-0.004042522416 -6.697366105e-16 -0.0007589084434 -3.085066528e-16 -0.004096013839 0 0.002471930378 -6.373590231e-16 0.008586926674)
(-0.004278114987 -7.863766969e-16 -0.001037103057 -2.265501175e-17 -0.004111342787 0 0.003415791364 -5.082001063e-16 0.00880872603)
(-0.004486149607 -9.721381229e-17 -0.001321024723 1.690921151e-16 -0.004165832907 0 0.004364273492 -4.208302252e-16 0.009095533566)
(-0.004711530858 4.255577919e-16 -0.001605486369 4.064271395e-17 -0.004237160132 0 0.005309918223 -4.380425848e-16 0.009442397916)
(-0.004968818541 2.530866023e-16 -0.001889217742 -1.76798909e-17 -0.00432196212 0 0.00625382738 -3.230820145e-16 0.009844331403)
(-0.005253587532 1.531292645e-16 -0.0021734055 -3.15089655e-17 -0.004418381793 0 0.007197126135 -2.235757407e-16 0.0102966623)
(-0.005560168252 1.059243511e-16 -0.002459452126 -4.287779769e-17 -0.004524657866 0 0.008139997155 -1.331893574e-16 0.01079506317)
(-0.00588395607 8.231667226e-17 -0.002748627603 -5.259227727e-17 -0.00463926119 0 0.009082014501 -1.3908391e-16 0.01133553459)
(-0.006220433885 5.962331505e-17 -0.003042165756 -4.89216944e-17 -0.004760831745 0 0.01002221131 -1.387673265e-16 0.01191439614)
(-0.006564870781 4.371400334e-17 -0.003341272138 -4.592268727e-17 -0.004888096793 0 0.01095910971 -1.336605807e-16 0.01252827025)
(-0.006912345328 3.617095355e-17 -0.003647112947 -4.343483604e-17 -0.005019830882 0 0.01189073329 -1.235406031e-16 0.01317405995)
(-0.007257727547 3.527874722e-17 -0.00396079841 -4.134527857e-17 -0.005154835983 0 0.01281466148 -1.407331668e-16 0.01384893832)
(-0.00759564966 3.783329173e-17 -0.004283335991 -5.935846383e-17 -0.005291926705 0 0.01372810357 -1.51655959e-16 0.01455032473)
(-0.007920716211 3.586268677e-17 -0.004615676777 -4.756915965e-17 -0.005429921703 0 0.01462780796 -1.304542653e-16 0.01527586128)
(-0.00822767171 3.041435982e-17 -0.004958837842 -2.756133138e-17 -0.005567660249 0 0.01551007289 -1.337039516e-16 0.01602340479)
(-0.008510534448 3.262505687e-17 -0.005313938758 -3.561626678e-17 -0.005704009449 0 0.01637097082 -1.610883194e-16 0.01679102611)
(-0.008762039421 4.831103742e-17 -0.005682211399 -5.194662477e-17 -0.005837793981 0 0.01720622521 -1.848886785e-16 0.01757701555)
(-0.008974604049 6.092938391e-17 -0.006064897596 -6.754174736e-17 -0.00596777091 0 0.01801114929 -2.051188335e-16 0.01837987662)
(-0.009141156329 6.129598314e-17 -0.006463176935 -4.952689643e-17 -0.006092671505 0 0.01878080624 -2.22727451e-16 0.01919830888)
(-0.00925476601 6.141356698e-17 -0.006878350831 -4.853678358e-17 -0.006211239957 0 0.01951004882 -2.383042388e-16 0.02003120981)
(-0.009307040071 2.336084859e-16 -0.007311918095 -6.355764584e-17 -0.006322225944 0 0.02019354072 -2.696307067e-16 0.02087768963)
(-0.009288341087 4.008280673e-16 -0.007765230553 -6.254206559e-17 -0.006424303168 0 0.02082575589 -3.116477566e-16 0.02173707391)
(-0.009189579504 4.163356656e-16 -0.008239336129 -7.706574866e-17 -0.006516095903 0 0.02140097637 -3.52413444e-16 0.02260886687)
(-0.009000947664 4.53311173e-16 -0.008734945162 -9.131319782e-17 -0.006596230101 0 0.02191336368 -3.776040714e-16 0.02349274282)
(-0.008711663207 1.630634296e-16 -0.009252022986 -1.053482346e-16 -0.006663268996 0 0.02235698949 -4.041578403e-16 0.02438852181)
(-0.008310621495 -1.366912602e-16 -0.009789483818 -8.941983633e-17 -0.006715746987 0 0.0227259162 -4.052334672e-16 0.02529610939)
(-0.007785678653 1.646295676e-16 -0.01034484967 -8.866445155e-17 -0.006752154272 0 0.02301416321 -4.061237291e-16 0.02621544919)
(-0.00712483203 4.403214328e-16 -0.01091393673 -8.802130741e-17 -0.006770928166 0 0.02321569148 -4.296177506e-16 0.02714642531)
(-0.006314756629 2.765243778e-16 -0.01149062549 -7.290071646e-17 -0.006770502181 0 0.02332456301 -4.527082302e-16 0.02808876826)
(-0.005339276624 1.435706097e-16 -0.01206634945 -7.252901055e-17 -0.006749224227 0 0.02333490628 -4.650852582e-16 0.02904193154)
(-0.004181931836 1.667072607e-16 -0.01262986639 -1.155679005e-16 -0.006705338431 0 0.02324089231 -4.789111296e-16 0.03000491994)
(-0.002826737899 1.833845151e-16 -0.01316757051 -1.007975005e-16 -0.006637039829 0 0.02303681895 -4.935409618e-16 0.03097611412)
(-0.001255529131 1.991155854e-16 -0.01366385537 -1.149267157e-16 -0.006542485361 0 0.02271720303 -5.086757847e-16 0.03195310936)
(0.0005527054623 2.129992182e-16 -0.01410131983 -1.00406313e-16 -0.006419728643 0 0.02227676319 -5.244776011e-16 0.03293254978)
(0.002620181968 2.281051375e-16 -0.01446127522 -1.146614276e-16 -0.006266713983 0 0.0217104318 -5.408185088e-16 0.03390998032)
(0.004969789597 2.476041671e-16 -0.01472438516 -1.146556632e-16 -0.006081290108 0 0.02101341087 -5.58052452e-16 0.03487976071)
(0.007626312991 2.669196029e-16 -0.01487108744 -1.003872036e-16 -0.005861224427 0 0.0201812635 -5.762069929e-16 0.0358350343)
(0.01061720742 1.522740103e-16 -0.01488154302 -1.00515711e-16 -0.005604171332 0 0.01920993045 -5.953786821e-16 0.03676778825)
(0.01397046968 4.518286191e-17 -0.01473529036 -1.007060803e-16 -0.005307663721 0 0.01809573432 -6.074228826e-16 0.03766896146)
(0.01771445576 7.609690416e-17 -0.01441053774 -1.153777233e-16 -0.004969159663 0 0.01683546383 -6.109197619e-16 0.03852864287)
(0.02187863129 1.031968786e-16 -0.01388261953 -1.157274236e-16 -0.004586036982 0 0.01542643516 -6.065798632e-16 0.03933629236)
(0.0264942381 1.269421965e-16 -0.01312191783 -1.161392086e-16 -0.004155609755 0 0.01386656752 -6.040725193e-16 0.04008096868)
(0.03159274076 1.560836777e-16 -0.01209120899 -1.16610806e-16 -0.003675104119 0 0.01215437691 -6.0328862e-16 0.0407515334)
(0.03718846817 1.913823442e-16 -0.01074336373 -1.098189184e-16 -0.003141719458 0 0.01028910039 -6.043897934e-16 0.04133679473)
(0.04328151574 6.568170187e-17 -0.009021167713 -1.250833679e-16 -0.002553073209 0 0.008271531321 -6.073276408e-16 0.04182560808)
(0.05006817569 -6.578574428e-17 -0.00684917474 -1.146663006e-16 -0.001907116826 0 0.0061042664 -6.030762753e-16 0.04220697008)
(0.05806484524 -3.990151916e-17 -0.004088138228 -1.153372632e-16 -0.001197145994 0 0.003782066707 -6.002132143e-16 0.04246973247)
(0.06465515906 -1.277597382e-17 -0.00126678237 -1.113784809e-16 -0.0004093046442 0 0.001283704629 -5.987952844e-16 0.04260044643)
(-0.007645899736 2.258252476e-15 -0.0005571410911 -5.848031787e-15 -0.01240715553 0 0.0003451434513 6.57836738e-17 0.02173841789)
(-0.01018567264 2.844632799e-15 -0.001325025995 -3.96308859e-15 -0.01090481587 0 0.0009009501705 1.93603547e-16 0.02177222989)
(-0.01004370723 4.483246896e-16 -0.00214017599 -3.42553597e-15 -0.01045263835 0 0.001413396175 -1.418289711e-16 0.02183778033)
(-0.01028497315 -8.512598328e-16 -0.002921694088 -2.116720561e-15 -0.01037874721 0 0.001921602247 -4.1075282e-16 0.02193462447)
(-0.01035231547 -3.864302685e-16 -0.00367525995 -1.520997203e-15 -0.01036573362 5.024197213e-14 0.00240426669 -6.487778303e-16 0.02205900266)
(-0.01036858875 -1.264913804e-15 -0.004392409116 -1.238270038e-15 -0.01036167885 0 0.002851525994 -5.705191368e-16 0.02220704349)
(-0.01037693654 -1.976618407e-15 -0.005071135419 -7.361644596e-16 -0.01036086071 0 0.003259244937 -5.388377982e-16 0.02237522014)
(-0.01037399191 -1.711732562e-15 -0.005711228664 -4.159957621e-16 -0.01036102159 0 0.003624244602 -5.258849881e-16 0.02256006812)
(-0.01035290617 -7.771578364e-16 -0.006313132033 -1.741822401e-16 -0.01036009067 0 0.00394359055 -5.230944917e-16 0.02275813509)
(-0.01030825626 -3.599005578e-17 -0.006877739802 -1.869396521e-16 -0.01035638133 0 0.004214739675 -5.210820819e-16 0.02296605642)
(-0.01023468124 -1.078580106e-16 -0.007406175898 -1.490507461e-16 -0.01034842174 0 0.004435630324 -5.26114198e-16 0.02318060046)
(-0.01012671412 -1.801296621e-16 -0.007899609321 -1.399136086e-16 -0.01033487713 0 0.004604681862 -5.361738927e-16 0.02339869006)
(-0.009978988209 3.61204129e-17 -0.008359276077 -1.323338204e-16 -0.01031448583 0 0.004720632596 -5.071616513e-16 0.02361743521)
(-0.009786829796 2.221858784e-16 -0.008786445289 -1.049729351e-16 -0.01028607214 0 0.004782547697 -4.830374314e-16 0.02383414294)
(-0.009544948794 -1.428578897e-16 -0.009182322561 -1.004714829e-16 -0.01024858184 0 0.004789908882 -4.643397797e-16 0.02404634649)
(-0.009246660099 -2.007128843e-16 -0.009548124917 -9.661996689e-17 -0.01020093223 0 0.004742541599 -4.503069578e-16 0.02425181839)
(-0.008886707971 2.745480412e-16 -0.009885161586 -9.330186984e-17 -0.0101419921 0 0.004640613139 -4.367628547e-16 0.02444856451)
(-0.008460820589 4.748495678e-16 -0.01019493221 -1.446837633e-16 -0.01007077715 0 0.004484596095 -4.247201393e-16 0.02463481597)
(-0.007963549632 3.967318907e-16 -0.01047907241 -1.230964502e-16 -0.009986348608 0 0.004275365094 -4.166061415e-16 0.02480903526)
(-0.00739007371 3.291019904e-16 -0.01073923277 -1.20038829e-16 -0.009887768488 0 0.004014386144 -4.117135351e-16 0.02496988785)
(-0.006736417293 2.874464068e-16 -0.01097723283 -1.005964185e-16 -0.009774192226 0 0.003703580062 -4.1033084e-16 0.02511623802)
(-0.00599852436 4.447893881e-16 -0.01119521784 -1.643089226e-16 -0.009644836111 0 0.003345170057 -4.121467453e-16 0.02524712783)
(-0.005173435094 5.716296046e-16 -0.0113956153 -1.290949363e-16 -0.009498976082 1.652415185e-14 0.002941770763 -3.959385974e-16 0.02536173346)
(-0.004258812876 5.242246871e-16 -0.01158092871 -1.429111612e-16 -0.009336005575 0 0.002496601285 -3.51797454e-16 0.02545932203)
(-0.003251986634 3.326608218e-16 -0.01175375993 -1.878382584e-16 -0.009155391431 0 0.002013428088 -3.305130158e-16 0.02553923297)
(-0.002151599304 1.503325738e-16 -0.01191694117 -1.854705489e-16 -0.008956661479 0 0.001496421797 -2.943314432e-16 0.02560081616)
(-0.0009580785775 1.581548901e-16 -0.01207330241 -1.986936483e-16 -0.008739471866 -1.565094583e-14 0.0009503240823 -2.425180523e-16 0.0256433928)
(0.000327708202 1.579757835e-16 -0.01222562608 -1.816248529e-16 -0.008503610904 0 0.0003803483207 -2.474173974e-16 0.02566624106)
(0.001704849062 1.401388256e-16 -0.01237640136 -1.65083009e-16 -0.008248972261 1.536772738e-14 -0.0002077739835 -2.534393794e-16 0.02566857616)
(0.003171184891 1.450293988e-16 -0.01252740383 -1.638855485e-16 -0.007975540571 0 -0.0008077169624 -2.151908528e-16 0.02564954954)
(0.004722038803 1.742449868e-16 -0.01267936187 -1.924937148e-16 -0.007683431742 -7.581290923e-15 -0.001412723648 -1.822585956e-16 0.02560827535)
(0.006350890049 1.968208233e-16 -0.01283118562 -1.915122286e-16 -0.007372933549 0 -0.002015465914 -1.752913406e-16 0.02554388665)
(0.008050392834 2.098348984e-16 -0.01297914062 -2.053934934e-16 -0.00704449623 0 -0.002607947214 -1.692772468e-16 0.02545563794)
(0.009811525749 2.179589088e-16 -0.01311621866 -1.901106666e-16 -0.006698717719 0 -0.00318165934 -1.776101617e-16 0.0253430136)
(0.01162216458 2.260100679e-16 -0.01323143167 -1.896643778e-16 -0.006336371889 0 -0.003727599698 -1.746807617e-16 0.02520584351)
(0.01346741242 2.370432685e-16 -0.01330930773 -1.893728615e-16 -0.005958447663 0 -0.004236147396 -1.728802891e-16 0.02504442021)
(0.01533017508 2.509753859e-16 -0.01333003041 -1.746706809e-16 -0.005566149133 0 -0.004697070392 -1.604647707e-16 0.02485960404)
(0.01719043916 2.668966868e-16 -0.01327007406 -1.892170578e-16 -0.005160901037 0 -0.005099500875 -1.378003195e-16 0.02465290173)
(0.0190244591 2.860533444e-16 -0.01310366381 -1.893368198e-16 -0.004744370701 0 -0.005432057342 -1.05542889e-16 0.02442652)
(0.02080511507 3.159843104e-16 -0.01280480748 -2.041622081e-16 -0.004318493849 -7.466503611e-15 -0.00568277832 -7.469776626e-17 0.02418338863)
(0.02250289957 1.907087247e-16 -0.0123498544 -1.89938242e-16 -0.003885472631 0 -0.005839096976 -6.059515998e-17 0.02392718185)
(0.02408507439 -8.98119061e-17 -0.01172024218 -1.757618573e-16 -0.003447760731 0 -0.005887976437 -5.743231479e-17 0.02366233219)
(0.02551481146 -2.096510948e-16 -0.01090497689 -1.762945769e-16 -0.003008086309 0 -0.005815962811 -5.432190413e-17 0.02339407468)
(0.026751399 -1.777065617e-16 -0.00990296886 -1.76921874e-16 -0.002569459322 0 -0.005609335547 -5.101407068e-17 0.02312853227)
(0.02775076152 -1.480118877e-16 -0.008724831281 -1.739394475e-16 -0.002135178887 0 -0.005254106211 -4.749534792e-17 0.02287284397)
(0.02846807312 -1.203259161e-16 -0.007393897735 -1.710114338e-16 -0.001708819672 0 -0.004736260898 -4.361523641e-17 0.02263536156)
(0.02885151638 -8.877528202e-17 -0.005945904061 -1.68129752e-16 -0.001294164747 -7.651771824e-15 -0.004042902298 -3.913619122e-17 0.02242585276)
(0.02881759754 -5.861489307e-17 -0.004430482537 -1.634085491e-16 -0.0008953634166 0 -0.003162092783 -4.830315232e-17 0.02225560527)
(0.02829058082 -3.620385434e-17 -0.002915473595 -1.596415996e-16 -0.0005174820357 0 -0.002071277203 -4.899375921e-17 0.02213801195)
(0.02747385899 -1.266124816e-17 -0.001080983429 -1.563621525e-16 -0.0001655840148 0 -0.0007315559917 -4.930856237e-17 0.02209126571)
(-0.009060416442 -1.322575853e-15 -0.0005467239311 -7.801369084e-16 -0.01475409565 0 2.417607712e-05 1.382197335e-16 0.02718495006)
(-0.01199683001 1.906650764e-15 -0.00125833417 8.944018242e-16 -0.01293951368 0 6.155927039e-05 3.985695649e-16 0.02716917034)
(-0.01170138801 3.76156813e-15 -0.002015174247 -1.2091243e-15 -0.01234916751 -8.688724793e-14 8.919509085e-05 6.991994231e-16 0.0271280337)
(-0.01182429262 3.01146436e-15 -0.002754136082 -1.775827196e-15 -0.01219913225 0 0.0001052693325 4.404043969e-16 0.02706870119)
(-0.01169584034 9.325576038e-16 -0.003462226065 -1.993141457e-15 -0.01210889451 0 0.0001044590476 2.917781107e-16 0.02699253021)
(-0.01146544965 -4.346176709e-16 -0.004130435301 -1.530024495e-15 -0.01201634882 -4.292452283e-14 8.335376045e-05 1.896757398e-16 0.02690082894)
(-0.01118960277 -1.272522455e-16 -0.004756583047 -1.239970384e-15 -0.01191531361 0 3.932677589e-05 -1.695247046e-16 0.02679498172)
(-0.01086899586 1.618553961e-18 -0.005339153721 -1.104932837e-15 -0.01180422572 0 -2.955630947e-05 -4.770630445e-16 0.02667626864)
(-0.01049967452 5.360974612e-17 -0.005877290943 -9.43439399e-16 -0.01168168631 3.019006077e-14 -0.0001247282836 -7.576596252e-16 0.02654583286)
(-0.01008105381 1.089100479e-16 -0.006371071553 -8.678901868e-16 -0.01154681558 0 -0.0002471316547 -8.356230026e-16 0.02640469447)
(-0.00961383618 1.885990722e-16 -0.006821185773 -8.57774696e-16 -0.01139920949 0 -0.0003970079486 -8.219539845e-16 0.02625376638)
(-0.009097577366 -1.369583652e-16 -0.007228878175 -7.815091316e-16 -0.01123875201 0 -0.0005740618571 -8.311681288e-16 0.02609390129)
(-0.008530781262 -4.350767103e-16 -0.007595860255 -6.719736823e-16 -0.01106531591 1.146835085e-14 -0.0007775185993 -8.620962463e-16 0.02592591783)
(-0.007913025344 -3.483907734e-16 -0.007924311113 -6.396464594e-16 -0.01087879038 0 -0.00100619902 -7.972178068e-16 0.02575059272)
(-0.00724419608 -2.65812239e-16 -0.00821688578 -5.918098853e-16 -0.01067918605 -1.044850556e-14 -0.001258586355 -7.553385942e-16 0.0255686937)
(-0.006523927521 -2.271049934e-16 -0.008476477059 -5.102483834e-16 -0.01046653234 1.004796817e-14 -0.001532659195 -7.54719121e-16 0.02538098726)
(-0.005752083939 -2.107556637e-16 -0.008706155445 -4.54823603e-16 -0.0102409018 9.702903532e-15 -0.001825915617 -6.832769287e-16 0.02518822183)
(-0.004928893895 -1.565151821e-16 -0.008909327409 -4.408110378e-16 -0.01000239317 0 -0.002135614696 -5.434231893e-16 0.02499112778)
(-0.004056681245 -7.492438981e-17 -0.009089540814 -4.286177383e-16 -0.009751160862 0 -0.00245865717 -4.207447066e-16 0.02479038304)
(-0.003138668203 2.415035434e-18 -0.009250284064 -4.17971203e-16 -0.009487543277 0 -0.00279157092 -3.401107376e-16 0.02458659667)
(-0.002176427263 7.017059716e-17 -0.00939496446 -3.916250958e-16 -0.009211953016 0 -0.003130698228 -2.698927725e-16 0.02438030618)
(-0.001171695782 -8.829001719e-17 -0.00952666294 -3.671091745e-16 -0.008924786781 8.543631697e-15 -0.003472127532 -2.064913385e-16 0.02417192542)
(-0.0001286715723 -4.151137887e-16 -0.009647923431 -3.769280574e-16 -0.008626503639 0 -0.003811713261 -1.146102088e-16 0.02396170245)
(0.0009471331858 -3.073133255e-16 -0.009760610559 -3.063999211e-16 -0.008317704851 0 -0.004145250921 -5.213319835e-17 0.02374969524)
(0.002050864238 -2.283791515e-16 -0.009865476062 -3.020423337e-16 -0.007999094036 -8.139246046e-15 -0.004468373383 7.966408067e-18 0.02353577287)
(0.003177077789 -5.535038235e-16 -0.009961830001 -2.825384939e-16 -0.007671415849 0 -0.004776532923 3.261218707e-17 0.02331959503)
(0.004319540682 -3.66998942e-16 -0.01004757895 -2.638766504e-16 -0.00733551162 0 -0.005065254494 5.54054535e-17 0.02310060552)
(0.005471817284 -3.152279932e-18 -0.01011908361 -2.613089955e-16 -0.006992276465 0 -0.005330168679 6.127092288e-17 0.02287806307)
(0.006625909523 -2.321911926e-16 -0.01017094462 -2.438602884e-16 -0.006642673397 0 -0.005566900765 6.584531658e-17 0.02265104718)
(0.007773511797 -4.336929168e-16 -0.01019622674 -2.269606897e-16 -0.006287768352 0 -0.005771125801 6.917508562e-17 0.02241851963)
(0.008906563143 -2.165650323e-16 -0.01018696179 -2.105293486e-16 -0.005928671764 0 -0.00593869907 7.357851485e-17 0.02217939179)
(0.01001550359 -2.016246827e-17 -0.0101346939 -2.094559023e-16 -0.0055665465 0 -0.006065752669 9.366211485e-17 0.02193260484)
(0.01109030902 2.005750315e-16 -0.01003109601 -1.936927689e-16 -0.00520264092 0 -0.006148675978 1.137473756e-16 0.02167723902)
(0.01212115884 2.527680258e-16 -0.009868702877 -2.079230214e-16 -0.004838243739 0 -0.006184147746 1.475763778e-16 0.02141265789)
(0.01309740958 1.363172684e-16 -0.009641666743 -2.074349177e-16 -0.00447468682 0 -0.00616932538 1.797893226e-16 0.02113864113)
(0.01400797757 1.658546798e-17 -0.00934612687 -2.071160879e-16 -0.004113350855 0 -0.006101870518 2.116455906e-16 0.02085554642)
(0.01484086183 -2.628238413e-16 -0.008980494885 -1.995648018e-16 -0.003755651036 0 -0.005980036298 2.308184306e-16 0.02056444926)
(0.01558418091 -5.343257938e-16 -0.008545654235 -1.773820168e-16 -0.003403060174 0 -0.005802769089 2.500565922e-16 0.02026725822)
(0.01622673759 -6.457423622e-16 -0.008044831275 -1.700986927e-16 -0.003057056638 0 -0.005569781089 2.586175335e-16 0.01996678554)
(0.01675666059 -5.043035627e-16 -0.007483282578 -1.555063139e-16 -0.002719129317 0 -0.005281686167 2.686868946e-16 0.01966672919)
(0.01716217302 -2.095240066e-16 -0.006867991645 -1.48381744e-16 -0.002390781195 -7.597145294e-15 -0.00494005533 2.910452546e-16 0.01937159143)
(0.01743261662 -2.246491421e-17 -0.006207504164 -1.450305228e-16 -0.002073507643 -7.615961811e-15 -0.004547465207 2.9762136e-16 0.01908649045)
(0.01755964093 -1.726583197e-18 -0.005511735504 -1.380100932e-16 -0.001768770056 0 -0.004107601351 2.794619015e-16 0.01881690926)
(0.01753716844 1.376311462e-17 -0.004791577758 -1.385011652e-16 -0.001477946616 0 -0.003625308619 2.636872231e-16 0.01856837578)
(0.01736160946 3.154329303e-17 -0.004058547255 -1.39063566e-16 -0.001202319215 0 -0.003106661067 2.499925389e-16 0.01834610245)
(0.01703413201 4.856948083e-17 -0.00332437548 -1.359193306e-16 -0.0009430308182 0 -0.002559010156 2.38176849e-16 0.01815460858)
(0.01655831525 1.452915489e-16 -0.002600011487 -1.347013105e-16 -0.0007010199483 0 -0.001990877585 2.278225279e-16 0.01799735373)
(0.01592835401 1.011651159e-16 -0.001894958205 -1.363869987e-16 -0.0004770580155 0 -0.001412161684 2.188812754e-16 0.01787644222)
(0.01513957644 -2.238325926e-17 -0.001219377537 -1.333477143e-16 -0.0002719941175 0 -0.0008350102399 2.174803315e-16 0.01779225121)
(0.01441813491 -7.239771548e-18 -0.0004440353864 -1.327332859e-16 -8.649639606e-05 0 -0.0002717973811 2.166470436e-16 0.01774300908)
(-0.008065529456 -5.675091214e-16 -0.00038918267 -1.942379711e-15 -0.01311982946 0 -0.0001602103639 -2.462695844e-16 0.02647032112)
(-0.010676786 -1.339876774e-15 -0.0008715196066 -1.048074109e-16 -0.01151393069 1.430970517e-13 -0.0004200274035 -7.029798995e-16 0.02644214987)
(-0.01037712139 7.413844048e-16 -0.001387008558 5.816627702e-16 -0.0109885084 0 -0.0006662309554 -2.705916325e-16 0.02637866731)
(-0.01040960821 2.148990197e-15 -0.001900982562 -3.164005697e-16 -0.01083774957 0 -0.0009210564613 1.054264985e-17 0.02628631854)
(-0.01019530587 1.499876271e-15 -0.002394093555 -6.072545629e-16 -0.01072821022 0 -0.001178232162 2.161520338e-16 0.02616759111)
(-0.009872508901 2.429557487e-15 -0.00286067367 -7.237121276e-16 -0.01060825822 0 -0.001435710899 1.7087819e-16 0.02602523561)
(-0.009493020841 3.256241646e-15 -0.003299885652 -1.129649317e-15 -0.01047381572 0 -0.001693886811 1.461042806e-16 0.02586198888)
(-0.009060575523 3.001829342e-15 -0.003710769903 -1.353169592e-15 -0.01032457549 0 -0.001953083703 1.241108096e-16 0.02568050261)
(-0.008574512001 2.079218136e-15 -0.00409264799 -1.527023133e-15 -0.01016025193 0 -0.002213183144 1.032356993e-16 0.02548333855)
(-0.0080378961 4.687044094e-16 -0.004445357772 -1.542461157e-15 -0.009980884034 0 -0.00247362527 7.996620969e-17 0.02527293319)
(-0.007454820823 -1.328868687e-16 -0.004769367687 -1.357943163e-15 -0.009787034967 0 -0.002733687035 5.593142389e-17 0.02505155045)
(-0.006828155044 1.733121781e-16 -0.005065723231 -1.27469827e-15 -0.009579401346 -1.23140663e-14 -0.002992577835 8.312994332e-17 0.02482131034)
(-0.006160335309 -2.957456698e-16 -0.00533564777 -1.18289382e-15 -0.009358706505 0 -0.003249115411 2.428155793e-17 0.02458414213)
(-0.005453826525 -7.331562928e-16 -0.005580610419 -1.061026511e-15 -0.009125668079 0 -0.003501881105 7.520928621e-18 0.02434178556)
(-0.004711991738 -5.199883139e-16 -0.005802374394 -9.326273355e-16 -0.008881013038 0 -0.003749375574 2.973033862e-17 0.02409575346)
(-0.003938702251 -8.87104958e-16 -0.006002642983 -8.968756081e-16 -0.008625552808 0 -0.003989812319 4.554349921e-17 0.02384734202)
(-0.003137423126 -1.745720709e-15 -0.00618306989 -7.698447519e-16 -0.008360128931 0 -0.004221284457 5.256126771e-17 0.02359761378)
(-0.00231210332 -2.057204106e-15 -0.006345161826 -6.155545819e-16 -0.008085579357 0 -0.004441801722 5.337675524e-17 0.0233473936)
(-0.001467378316 -1.593983814e-15 -0.006490042826 -4.897044747e-16 -0.007802795498 0 -0.004649239988 8.246988536e-17 0.02309725303)
(-0.0006073924729 -1.18048283e-15 -0.006618598914 -4.421672146e-16 -0.007512704915 0 -0.004841642468 1.107832153e-16 0.02284753082)
(0.0002635015332 -1.074405628e-15 -0.006731230269 -3.63139409e-16 -0.007216214877 0 -0.005017079247 1.634620248e-16 0.02259833058)
(0.001140064256 -1.180258335e-15 -0.006827549722 -3.389330834e-16 -0.006914266379 -8.676686935e-15 -0.005173468579 2.381603432e-16 0.02234953687)
(0.002017492434 -1.06795689e-15 -0.006906534181 -2.662943932e-16 -0.006607834559 0 -0.00530878228 2.709879416e-16 0.0221008541)
(0.002890645034 -8.077412784e-16 -0.006966710241 -2.129069361e-16 -0.006297873353 8.385257789e-15 -0.00542123377 2.884745611e-16 0.0218518534)
(0.00375303838 -5.977893641e-16 -0.007006164918 -1.775899197e-16 -0.005985376163 -8.266003537e-15 -0.005509243252 3.429703634e-16 0.02160201377)
(0.004599092702 -3.902907248e-16 -0.00702255791 -1.75351391e-16 -0.005671387785 -8.1618102e-15 -0.005571304604 3.463438086e-16 0.02135081199)
(0.005424365228 -1.725869074e-16 -0.007013438366 -1.41875028e-16 -0.005356911691 0 -0.005606131885 3.204856942e-16 0.02109779722)
(0.00622297298 3.466628893e-17 -0.006976336626 -1.561050126e-16 -0.005042921965 0 -0.005612642063 3.265104944e-16 0.0208426478)
(0.006988204323 4.128138443e-17 -0.006908922162 -1.47046982e-16 -0.004730433291 0 -0.00558995705 3.348635067e-16 0.02058525298)
(0.007714176236 4.272266183e-17 -0.006809382056 -1.459803492e-16 -0.004420465818 0 -0.005537533272 3.234218542e-16 0.02032579491)
(0.008395283385 -1.356583454e-16 -0.006676463924 -1.450840351e-16 -0.004114020043 0 -0.005455099588 3.166459491e-16 0.02006478787)
(0.009025207526 -3.087792446e-16 -0.006509415201 -1.139560115e-16 -0.003812081029 0 -0.00534262377 3.244729916e-16 0.01980310238)
(0.009597254536 -4.800699087e-16 -0.006308216478 -1.134861148e-16 -0.003515643687 1.549463755e-14 -0.005200466264 3.216891399e-16 0.01954195324)
(0.01010629195 -6.383956696e-16 -0.006073579705 -1.055805674e-16 -0.003225697166 -7.722464355e-15 -0.005029284242 3.463658379e-16 0.01928287916)
(0.01054746224 -6.22613624e-16 -0.005806863453 -8.276141871e-17 -0.002943165689 0 -0.004830057222 3.51360184e-16 0.01902766772)
(0.01091548447 -4.512382668e-16 -0.005510064486 -8.263421348e-17 -0.002668957212 -7.692494055e-15 -0.004604156126 3.598434701e-16 0.01877827241)
(0.01120643283 -2.843048262e-16 -0.005185748319 -6.755758246e-17 -0.00240393856 -7.686551605e-15 -0.004353268467 3.504479698e-16 0.01853673367)
(0.01141711914 -1.319857503e-16 -0.004837097689 -6.004816542e-17 -0.00214891056 -7.686165173e-15 -0.004079495298 3.235593809e-16 0.01830507665)
(0.01154509557 5.853120756e-18 -0.004467763093 -6.384155772e-17 -0.001904615007 0 -0.003785262298 2.807789475e-16 0.01808522714)
(0.01158905614 -1.702478827e-16 -0.004081815712 -6.016308933e-17 -0.00167171504 0 -0.003473323384 2.414796446e-16 0.01787893995)
(0.01154888784 -2.401037629e-16 -0.003683690356 -4.89750899e-17 -0.001450790598 7.715460316e-15 -0.003146762394 2.115094556e-16 0.01768774198)
(0.01142583142 9.119271027e-17 -0.003278055914 -4.531974536e-17 -0.001242322953 0 -0.002808951651 2.025777081e-16 0.01751288625)
(0.01122197984 3.140861089e-16 -0.002869689352 -4.924519789e-17 -0.0010466892 0 -0.002463515592 1.955135246e-16 0.01735531787)
(0.01094031332 2.858287676e-16 -0.00246330103 -5.512278033e-17 -0.0008641668901 0 -0.002114205754 1.982069398e-16 0.01721565176)
(0.01058547784 2.609674068e-16 -0.002063411959 -5.916362089e-17 -0.0006949291451 0 -0.001764820717 1.925397148e-16 0.01709416709)
(0.01016380515 2.419993811e-16 -0.001674140961 -6.039078763e-17 -0.000539028258 0 -0.001419075335 1.9603852e-16 0.01699077869)
(0.009679918056 2.337865785e-16 -0.001299062475 -6.35826789e-17 -0.0003963945451 0 -0.001080520698 1.99921124e-16 0.0169049581)
(0.009129163942 1.164383002e-16 -0.0009414201561 -6.489677978e-17 -0.0002669138226 -7.934842089e-15 -0.0007526254466 2.090513763e-16 0.01683590569)
(0.008499360274 2.205442098e-18 -0.0006050478583 -6.357153546e-17 -0.0001506103878 0 -0.0004390119755 2.036218196e-16 0.01678393678)
(0.007973183784 1.755956425e-18 -0.0002207862812 -6.31111072e-17 -4.764366296e-05 0 -0.0001421879906 1.990594354e-16 0.01675207546)
(-0.006321990226 3.475218526e-15 -0.0002493339834 -7.605006161e-15 -0.01031354024 0 -0.0001989353139 -4.852985637e-17 0.02413567915)
(-0.008340850889 8.171459953e-16 -0.0005425017748 -5.623561042e-15 -0.009034939335 0 -0.0005213187063 -1.400019893e-16 0.02411309439)
(-0.008069365516 -1.265752132e-15 -0.0008575693886 -2.647306846e-15 -0.008600970338 0 -0.0008243461354 -2.521347161e-16 0.02406450601)
(-0.008056995956 -5.03706854e-16 -0.001179287003 -1.686972369e-15 -0.008464288838 0 -0.001132629883 -5.479328125e-17 0.02399340609)
(-0.007840934143 -1.036133894e-16 -0.001489184484 -1.284816066e-15 -0.008358796458 0 -0.001436247844 8.404986915e-17 0.02390171593)
(-0.007530384219 1.295762091e-16 -0.001784365843 -1.037622976e-15 -0.008243074224 0 -0.00173117399 1.919199335e-16 0.02379156703)
(-0.007166622157 2.842024741e-16 -0.002064774107 -9.403623285e-16 -0.008113580694 0 -0.002016626582 4.390336427e-16 0.02366498706)
(-0.006754431446 3.841819267e-16 -0.002329945171 -8.547123174e-16 -0.007970097661 0 -0.002292040116 6.541048642e-16 0.02352393753)
(-0.006296902004 4.391035675e-16 -0.002579500873 -8.210140958e-16 -0.007812692692 0 -0.002556648363 8.476860901e-16 0.02337029181)
(-0.005798629243 5.007532989e-16 -0.002813166044 -7.832414264e-16 -0.007642037816 -2.864425788e-14 -0.002809431269 1.057023571e-15 0.02320582273)
(-0.005262837247 1.411312055e-16 -0.003030995201 -7.545970972e-16 -0.007458957949 0 -0.003049518601 1.057505735e-15 0.02303219987)
(-0.004693826264 1.616517702e-16 -0.003233265393 -6.961259055e-16 -0.007264264635 0 -0.00327610138 1.076540199e-15 0.02285091951)
(-0.004096469503 2.077169873e-16 -0.003420179675 -6.930667806e-16 -0.007058980576 -1.182833972e-14 -0.00348820708 1.116352535e-15 0.02266330873)
(-0.0034744145 -4.128863693e-16 -0.003591885531 -6.047477458e-16 -0.006844127036 0 -0.003684789714 1.092429588e-15 0.02247053651)
(-0.002832440279 -6.088039634e-16 -0.003748554528 -5.26195397e-16 -0.006620678033 -1.077648173e-14 -0.003864886181 1.089458947e-15 0.02227357749)
(-0.002175647845 -4.434035317e-16 -0.003890274925 -5.060240019e-16 -0.006389728157 -1.036337156e-14 -0.004027594936 1.070866632e-15 0.02207322037)
(-0.001507845277 -3.056138783e-16 -0.004016854168 -4.495545601e-16 -0.006152337719 -1.000747543e-14 -0.004171963976 9.842912576e-16 0.02187010263)
(-0.0008335730088 -4.759226195e-16 -0.004127950081 -4.167606613e-16 -0.005909509436 0 -0.004297133105 8.029415226e-16 0.02166469773)
(-0.0001571755944 -6.523691164e-16 -0.004223092061 -3.49973627e-16 -0.005662288926 9.430868264e-15 -0.004402381887 6.41993999e-16 0.0214573506)
(0.0005175361946 -8.181892485e-16 -0.004301592113 -3.233184167e-16 -0.00541164806 0 -0.004487059742 5.48633832e-16 0.02124830935)
(0.00118522279 -1.229178807e-15 -0.004362486586 -2.546440302e-16 -0.005158545925 0 -0.004550528048 4.648589906e-16 0.02103773098)