/*--------------------------------*- C++ -*----------------------------------*\
  =========                 |
  \\      /  F ield         | OpenFOAM: The Open Source CFD Toolbox
   \\    /   O peration     | Website:  https://openfoam.org
    \\  /    A nd           | Version:  7
     \\/     M anipulation  |
\*---------------------------------------------------------------------------*/
FoamFile
{
    version     2.0;
    format      ascii;
    class       volScalarField;
    location    "0.003";
    object      p;
}
// * * * * * * * * * * * * * * * * * * * * * * * * * * * * * * * * * * * * * //

dimensions      [1 -1 -2 0 0 0 0];

internalField   nonuniform List<scalar> 
14000
(
1117295.679
1146861.87
1145246.481
1147305.792
1152853.014
1159835.895
1167922.581
1177166.739
1187571.935
1199124.347
1211825.098
1225688.487
1240736.437
1256996.413
1274500.962
1293283.527
1313364.606
1334769.01
1357565.663
1381809.908
1407551.319
1434821.279
1463678.643
1494234.101
1526549.785
1560709.815
1596852.235
1635060.022
1675506.647
1718308.579
1763605.21
1811606.954
1862479.556
1916344.785
1973289.861
2033415.572
2096681.566
2162972.046
2231979.766
2303338.931
2376442.923
2450553.884
2524810.008
2598286.377
2670097.165
2739301.222
2804730.906
2865962.195
2926938.13
2990574.447
1263459.502
1299282.632
1297377.041
1300012.425
1306904.192
1315491.225
1325304.375
1336360.705
1348605.502
1362002.598
1376523.298
1392157.601
1408911.916
1426790.248
1445798.554
1466023.456
1487520.169
1510299.443
1534471.361
1560095.679
1587236.922
1615974.062
1646369.145
1678440.318
1712248.547
1747783.036
1784978.562
1823725.736
1863881.989
1905240.729
1947491.378
1990252.572
2033119.098
2075665.701
2117436.726
2157991.088
2196959.8
2234025.761
2268938.922
2301492.505
2331560.133
2359036.011
2383789.078
2405670.922
2424452.007
2439855.878
2451549.131
2458762.189
2459860.286
2454805.766
1291158.717
1328408.229
1325938.417
1327292.707
1332573.244
1339332.406
1347158.888
1356158.404
1366386.636
1377846.085
1390522.692
1404407.801
1419557.164
1435967.154
1453647.637
1472625.912
1492899.721
1514493.163
1537369.316
1561433.374
1586659.704
1612983.219
1640278.88
1668348.544
1697024.54
1726108.46
1755342.207
1784533.08
1813400.897
1841717.85
1869293.647
1895936.224
1921460.651
1945773.955
1968733.457
1990263.117
2010250.092
2028579.901
2045192.257
2059935.874
2072693.408
2083290.642
2091589.612
2097437.317
2100657.354
2101119.991
2098745.091
2093297.7
2084085.722
2071945.768
1487419.303
1520774.026
1518407.487
1519923.645
1525178.023
1531906.153
1539731.113
1548710.125
1558901.738
1570290.3
1582806.787
1596469.724
1611231.742
1627108.088
1644036.695
1661969.981
1680837.705
1700581.066
1721066.714
1742204.692
1763871.247
1785909.482
1808163.363
1830501.884
1852705.247
1874615.527
1896113.085
1917049.727
1937238.214
1956574.916
1974924.303
1992190.338
2008210.691
2022912.343
2036225.853
2048011.425
2058227.931
2066777.832
2073605.067
2078643.856
2081848.161
2083187.446
2082638.999
2080180.092
2075826.452
2069639.562
2061688.904
2051839.733
2039593.175
2025888.589
1544867.763
1574937.828
1573421.415
1575041.269
1579888.049
1586061.371
1593209.324
1601393.012
1610604.034
1620752.435
1631856.176
1643859.201
1656666.812
1670257.456
1684545.242
1699399.673
1714777.078
1730554.535
1746608.332
1762874.555
1779182.005
1795385.952
1811374.456
1827051.993
1842297.837
1856964.565
1870971.118
1884200.024
1896550.489
1907959.118
1918346.212
1927608.523
1935740.662
1942625.555
1948273.301
1952622.806
1955639.748
1957315.301
1957634.628
1956595.555
1954191.81
1950444.393
1945397.687
1939086.351
1931534.442
1922785.157
1913033.327
1902418.591
1890744.335
1878491.516
1681547.227
1705613.662
1704556.593
1706406.622
1711005.507
1716783.241
1723448.466
1730985.284
1739387.818
1748499.323
1758355.011
1768823.022
1779807.014
1791216.026
1803026.242
1815079.232
1827276.733
1839555.91
1851806.234
1863909.323
1875744.726
1887235.607
1898301.956
1908839.95
1918779.161
1928061.41
1936554.588
1944239.486
1951052.612
1956937.368
1961861.771
1965764.539
1968673.233
1970496.886
1971254.386
1970963.569
1969572.746
1967098.512
1963595.156
1959059.985
1953486.381
1946959.57
1939604.584
1931512.846
1922109.183
1909334.706
1896473.191
1915648.334
2007576.119
2107854.791
1710417.837
1730192.939
1729767.614
1731482.683
1735342.332
1740131.932
1745653.85
1751799.303
1758553.174
1765861.355
1773579.227
1781684.954
1790082.24
1798654.876
1807332.955
1816060.673
1824725.48
1833244.827
1841545.47
1849542.292
1857139.157
1864318.635
1871010.643
1877100.074
1882569.533
1887376.753
1891470.831
1894794.006
1897351.642
1899079.16
1899987.796
1900063.467
1899263.142
1897640.212
1895162.574
1891829.787
1887697.719
1882771.636
1877068.886
1870672.406
1863716.316
1856264.402
1847220.776
1834721.449
1827808.339
1868995.293
1957647.398
2043875.792
2116641.247
2180431.046
1782378.519
1797146.669
1796787.325
1798238.483
1801394.563
1805322.421
1809757.489
1814707.343
1820037.17
1825768.337
1831749.421
1837893.808
1844174.342
1850494.646
1856772.973
1862931.492
1868899.858
1874623.352
1880043.585
1885099.014
1889723.718
1893881.76
1897509.164
1900560.161
1903030.422
1904827.785
1906003.61
1906461.316
1906255.046
1905316.291
1903673.078
1901325.757
1898234.675
1894482.502
1890037.455
1884923.947
1879213.942
1872923.532
1866258.342
1859213.379
1850512.71
1838178.682
1833655
1885464.284
1975615.662
2063665.901
2137585.687
2175423.488
2145810.166
2101854.874
1787677.714
1799693.368
1799523.263
1800586.27
1802915.439
1805833.24
1809052.082
1812648.789
1816489.794
1820511.915
1824685.715
1828920.311
1833149.985
1837318.088
1841368.295
1845245.802
1848890.921
1852225.757
1855209.856
1857822.52
1860033.993
1861757.986
1862987.46
1863695.138
1863852.363
1863447.803
1862455.293
1860874.742
1858693.68
1855912.451
1852545.506
1848572.791
1844058.954
1838977.142
1833376.589
1827336.324
1820997.922
1814415.593
1806084.537
1793950.939
1790803.468
1848811.895
1941712.154
2031888.807
2103457.148
2123369.267
2094698.689
2058153.717
2022647.975
1988644.259
1817056.545
1826468.498
1826089.788
1826782.012
1828514.304
1830627.287
1832994.985
1835540.253
1838271.47
1841102.243
1843972.26
1846837.334
1849642.833
1852325.193
1854836.005
1857143.906
1859216.37
1861003.134
1862444.558
1863497.266
1864199.106
1864475.455
1864301.141
1863705.133
1862604.463
1861073.994
1859028.711
1856544.513
1853552.713
1850133.754
1846236.296
1841921.727
1837192.923
1832126.107
1826902.82
1821520.521
1814372.622
1803362.405
1802076.327
1865181.855
1960947.198
2053452.97
2125148.176
2137390.135
2110364.944
2078610.305
2049470.3
2022787.376
1998932.2
1979777.831
1805885.078
1814237.842
1813773.087
1814088.382
1815146.761
1816443.744
1817896.393
1819439.26
1821018.613
1822643.715
1824249.091
1825787.302
1827221.099
1828515.025
1829636.045
1830549.925
1831219.822
1831622.864
1831752.193
1831576.208
1831064.955
1830234.869
1829060.37
1827534.869
1825666.579
1823444.962
1820886.077
1818000.751
1814790.363
1811290.841
1807486.986
1803479.062
1799435.556
1795337.223
1789547.016
1779840.513
1780373.96
1846955.797
1944141.653
2037851.859
2110147.363
2120103.774
2095594.212
2067738.046
2042453.815
2019451.448
1999527.212
1986185.389
1983309.328
1988863.904
1808399.04
1815829.834
1815141.883
1815108.826
1815679.353
1816444.068
1817219.721
1818057.403
1818900.852
1819702.552
1820429.152
1821075.601
1821617.181
1822024.644
1822267.888
1822308.58
1822138.461
1821749.895
1821140.092
1820283.286
1819165.764
1817809.421
1816178.597
1814287.632
1812173.639
1809788.633
1807207.286
1804356.943
1801337.795
1798119.733
1794991.312
1791826.95
1787032.824
1778319.482
1779980.232
1848089.313
1945703.898
2039973.939
2112610.053
2121031.332
2097793.025
2071917.616
2048447.807
2027083.472
2008652.977
1996425.8
1993912.43
2000193.197
2010828.602
2022271.819
1788466.542
1795909.193
1795041.425
1794689.586
1794893.253
1795168.096
1795439.629
1795644.996
1795843.349
1795990.103
1796050.416
1796005.586
1795838.101
1795531.363
1795070.844
1794445.587
1793656.875
1792712.561
1791557.051
1790186.969
1788649.29
1786908.944
1784947.994
1782834.96
1780498.754
1777999.875
1775318.711
1772507.586
1769775.562
1767042.888
1762694.585
1754482.962
1756347.726
1823699.305
1921084.931
2015737.857
2088592.381
2095341.52
2072249.525
2046989.246
2023842.779
2002514.76
1983882.748
1971335.567
1968654.956
1974899.27
1984962.339
1995306.68
2005090.585
2013993.362
1776723.427
1784129.177
1783036.527
1782501.596
1782475.592
1782463.037
1782426.966
1782331.385
1782147.866
1781898.425
1781579.901
1781156.866
1780611.982
1779935.498
1779123.859
1778185.476
1777100.854
1775846.217
1774390.637
1772797.389
1771048.311
1769101.147
1767003.601
1764742.734
1762289.899
1759734.974
1757240.285
1754757.546
1750696.666
1742856.085
1744413
1809206.924
1906046.323
2001243.031
2074709.5
2080781.156
2057683.783
2032598.812
2009467.317
1987824.674
1968577.502
1955091.861
1951537.627
1957426.023
1967563.264
1978008.022
1987496.991
1995606.487
2002298.589
2007827.762
1752393.833
1760245.271
1759046.152
1758351.055
1758112.914
1757897.311
1757584.338
1757233.5
1756767.378
1756208.407
1755558.411
1754805.52
1753940.057
1752954.685
1751840.113
1750588.77
1749195.575
1747649.731
1745940.816
1744093.224
1742095.521
1739935.916
1737610.161
1735177.26
1732821.642
1730460.439
1726630.393
1719126.586
1720079.572
1780939.288
1876711.325
1972321.09
2046793.048
2053985.685
2031285.457
2006337.745
1983319.266
1961634.6
1941913.907
1927373.653
1922724.526
1928194.482
1938608.015
1949541.329
1959556.741
1968217.189
1975231.452
1980635.676
1984975.393
1988769.653
1732102.029
1740298.493
1738948.867
1738115.969
1737757.042
1737418.596
1736961.372
1736425.95
1735789.312
1735050.033
1734209.016
1733257.803
1732188.772
1730996.334
1729675.386
1728219.24
1726622.616
1724888.305
1723019.704
1720983.935
1718795.852
1716534.421
1714314.583
1712097.11
1708549.898
1701444.951
1701777.969
1758223.07
1852563.924
1948285.316
2023891.566
2034029.088
2012265.579
1987537.72
1964581.692
1943052.442
1923223.648
1907684.325
1901506.154
1906224.843
1916903.646
1928481.592
1939169.063
1948525.548
1956279.286
1962374.529
1967094.175
1970953.831
1974537.465
1978050.793
1704138.757
1712812.011
1711346.62
1710393.382
1709936.659
1709462.159
1708863.829
1708153.742
1707338.197
1706417.153
1705384.575
1704235.744
1702965.321
1701566.837
1700036.439
1698371.061
1696567.081
1694631.539
1692589.414
1690435.401
1688313.553
1686234.273
1682921.989
1676184.025
1676021.271
1728460.147
1821029.566
1916327.664
1992896.162
2007027.747
1986553.578
1962111.931
1939204.3
1917768.723
1897862.837
1881509.174
1873559.603
1876974.331
1887702.175
1899983.209
1911444.508
1921581.187
1930133.4
1937003.467
1942410.468
1946788.618
1950579.525
1954103.039
1957578.202
1960984.085
1677772.783
1686766.279
1685170.612
1684119.567
1683601.215
1683029.268
1682335.412
1681499.877
1680566.696
1679529.026
1678371.823
1677090.758
1675683.774
1674148.4
1672480.093
1670672.701
1668731.074
1666716.39
1664789.802
1662896.86
1659785.611
1653374.023
1653074.279
1703028.094
1793759.152
1888065.821
1965167.858
1983352.956
1964473.339
1940493.405
1917792.63
1896361.878
1876384.201
1859291.607
1849535.27
1851147.381
1861425.966
1874302.008
1886580.634
1897567.624
1906994.873
1914708.147
1920850.7
1925834.495
1930115.285
1934005.887
1937622.222
1941019.642
1944330.418
1947550.602
1646517.862
1655880.498
1654195.019
1653045.627
1652447.881
1651785.406
1650983.104
1650007.927
1648960.06
1647796.437
1646482.837
1645033.927
1643465.554
1641779.035
1639985.841
1638143.151
1636367.198
1634573.423
1631540.551
1625338.246
1625392.413
1675425.492
1764362.477
1856945.887
1933817.899
1955165.429
1937542.045
1914304.542
1892011.655
1870563.365
1850461.772
1832703.53
1821089.152
1820510.436
1829934.104
1843192.151
1856209.752
1868016.12
1878341.03
1886971.883
1893943.421
1899598.251
1904406.613
1908736.69
1912757.219
1916498.071
1919950.116
1923150.78
1926248.716
1929250.853
1616252.893
1625794.806
1624062.232
1622844.941
1622150.424
1621437.157
1620515.154
1619478.185
1618330.746
1617012.688
1615567.392
1614012.155
1612364.286
1610679.52
1609055.835
1607372.845
1604343.889
1598129.532
1599247.265
1653174.58
1740591.447
1830581.074
1906104.065
1928736.195
1911974.342
1889301.676
1867552.289
1846443.876
1826154.457
1807782.518
1794352.542
1791197.365
1799192.349
1812585.033
1826301.898
1838880.385
1850051.769
1859591.366
1867428.36
1873812.172
1879194.655
1883988.616
1888420.789
1892550.515
1896379.852
1899906.612
1903139.5
1906125.504
1909023.992
1911859.429
1583070.373
1592694.004
1590903.498
1589649.862
1588875.084
1588040.527
1587021.898
1585874.198
1584563.263
1583138.724
1581642.142
1580079.987
1578517.534
1576823.207
1573551.285
1566971.521
1570179.876
1633219.712
1719486.358
1805731.369
1878330.369
1899205.458
1882770.796
1860724.368
1839396.879
1818524.901
1798273.379
1779373.778
1764393.521
1758624.274
1764680.063
1777825.006
1792143.683
1805464.188
1817454.427
1827890.281
1836622
1843786.532
1849777.044
1855030.643
1859849.689
1864347.586
1868530.153
1872395.417
1875956.039
1879224.162
1882215.907
1884996.995
1887737.387
1890452.645
1551130.637
1560688.141
1558816.6
1557466.92
1556635.722
1555713.046
1554631.365
1553402.406
1552050.525
1550574.724
1548988.395
1546942.703
1542994.136
1537915.04
1552424.501
1623455.508
1706643.102
1787844.023
1855707.98
1870592.608
1853712.709
1832475.038
1811694.524
1791096.383
1770968.532
1751892.024
1735609.623
1727126.993
1730702.244
1743184.295
1757998.826
1771997.197
1784694.327
1795933.422
1805526.362
1813491.478
1820139.527
1825896.707
1831107.909
1835944.578
1840445.651
1844614.724
1848461.213
1852002.427
1855257.342
1858253.782
1861023.846
1863636.07
1866247.165
1868857.123
1516486.66
1526123.487
1524341.773
1523053.343
1522244.566
1521279.338
1520023.381
1518508.315
1516719.082
1513840.781
1508463.76
1509298.959
1552606.845
1624086.516
1699919.375
1774775.408
1835932.108
1839403.885
1821155.313
1801071.237
1781129.353
1760989.241
1741137.513
1722120.815
1705121.404
1694451.763
1695343.347
1706526.338
1721479.133
1736050.349
1749404.374
1761399.109
1771822.097
1780584.806
1787894.247
1794158.383
1799767.87
1804951.026
1809773.855
1814245.086
1818372.453
1822172.949
1825664.254
1828873.215
1831838.536
1834599.217
1837184.103
1839641.536
1842107.955
1844579.019
1490618.63
1498802.716
1496078.267
1493593.909
1491255.55
1488759.538
1485463.922
1480353.005
1479891.073
1512283.222
1572324.475
1638014.432
1704515.36
1769845.068
1814796.484
1807292.523
1788555.643
1769832.776
1750853.507
1731366.021
1711997.755
1693259.943
1675935.151
1663581.836
1661881.203
1671419.611
1686202.937
1701194.91
1715076.983
1727713.583
1738905.012
1748468.062
1756476.96
1763271.875
1769260.729
1774742.628
1779837.551
1784569.399
1788946.764
1792979.881
1796686.762
1800088.608
1803219.882
1806123.457
1808840.071
1811395.078
1813799.098
1816089.891
1818397.263
1820718.479
1426780.401
1437616.171
1435896.851
1433750.198
1434974.227
1456124.163
1498474.045
1547675.423
1600046.114
1655154.604
1713259.295
1765339.634
1778819.748
1766894.765
1750850.126
1734215.386
1716659.877
1698424.677
1680153.712
1662271.975
1645279.647
1632061.026
1628444.031
1636433.746
1650892.124
1666222.676
1680557.684
1693719.703
1705547.151
1715829.839
1724539.875
1731915.31
1738333.214
1744133.474
1749500.62
1754485.928
1759098.983
1763351.212
1767261.354
1770847.365
1774137.464
1777171.926
1779994.996
1782643.007
1785137.977
1787491.432
1789710.613
1791830.6
1793972.956
1796132.389
1499932.086
1516343.625
1531216.11
1553338.811
1582138.162
1616030.603
1654891.66
1698581.421
1740504.945
1754970.056
1746000.86
1732776.098
1718932.619
1703620.911
1686959.585
1669605.198
1652148.264
1634878.889
1618084.6
1604328.598
1599147.24
1605433.703
1619081.409
1634330.32
1648809.817
1662231.636
1674458.184
1685264.82
1694529.221
1702376.078
1709134.308
1715176.398
1720751.357
1725938.669
1730748.704
1735188.824
1739276.144
1743029.538
1746470.118
1749632.123
1752558.311
1755289.494
1757854.88
1760272.563
1762556.443
1764717.087
1766760.459
1768718.224
1770700.721
1772706.987
1673130.812
1676450.661
1690435.013
1711058.014
1734046.772
1743503.668
1737370.933
1727706.745
1717345.457
1705825.507
1692600.802
1677965.366
1662004.248
1645187.35
1628273.883
1611467.063
1594921.191
1580857.931
1574502.026
1579078.161
1591398.485
1605973.993
1620048.055
1633253.677
1645487.218
1656504.389
1666106.529
1674305.001
1681343.188
1687561.913
1693245.971
1698532.803
1703454.64
1708016.575
1712228.577
1716106.716
1719665.872
1722932.002
1725943.443
1728743.172
1731366.31
1733834.301
1736161.684
1738362.076
1740448.139
1742428.664
1744307.159
1746113.206
1747952.638
1749819.842
1727652.318
1713549.374
1712709.417
1709771.632
1704572.029
1698010.472
1689919.119
1680108.744
1668541.498
1655134.094
1640497.34
1624899.314
1608419.638
1592173.344
1576332.402
1562635.76
1555872.554
1559074.299
1569719.884
1582872.736
1595913.631
1608366.591
1620115.106
1630907.719
1640492.083
1648774.749
1655890.408
1662128.324
1667788.766
1673059.687
1677994.694
1682594.902
1686861.823
1690806.096
1694440.36
1697780.15
1700854.788
1703703.437
1706364.509
1708865.636
1711223.115
1713449.365
1715557.205
1717556.943
1719458.818
1721269.298
1722993.688
1724658.044
1726361.364
1728095.795
1708914.087
1690049.45
1688506.48
1683900.523
1676179.056
1666244.255
1654639.025
1641378.508
1626969.705
1611588.392
1596036.437
1579684.493
1563925.39
1551062.002
1544545.739
1546605.636
1555070.208
1566051.331
1577302.038
1588350.199
1599048.236
1609115.224
1618243.761
1626242.895
1633150.252
1639185.703
1644634.054
1649714.373
1654505.29
1659009.763
1663219.816
1667136.405
1670766.331
1674115.823
1677202.991
1680059.317
1682722.667
1685224.664
1687584.355
1689813.749
1691923.698
1693925.275
1695828.447
1697641.682
1699373.832
1701031.322
1702614.887
1704145.903
1705717.576
1707324.392
1664562.681
1643487.602
1641022.172
1635326.085
1626924.268
1616339.426
1604354.465
1591715.914
1577789.508
1563765.731
1550025.307
1539258.58
1534760.412
1536853.543
1543498.23
1552283.745
1561634.363
1571133.302
1580607.226
1589749.215
1598201.38
1605742.155
1612334.733
1618113.777
1623307.869
1628133.657
1632709.002
1637053.393
1641151.771
1644993.673
1648577.82
1651905.943
1654983.205
1657829.759
1660477.712
1662960.8
1665303.34
1667517.268
1669612.022
1671598.686
1673486.164
1675283.156
1676996.214
1678635.537
1680208.501
1681718.199
1683165.045
1684572.178
1686022.751
1687510.118
1617245.142
1596619.304
1594326.121
1588687.788
1580458.757
1570789.319
1559714.007
1548513.042
1538275.297
1531291.362
1528816.743
1531076.804
1536043.638
1542463.221
1549782.255
1557560.676
1565585.764
1573541.391
1581071.005
1587947.267
1594062.174
1599451.168
1604278.492
1608752.922
1613022.108
1617118.384
1621027.026
1624723.981
1628199.049
1631448.617
1634469.144
1637269.154
1639871.505
1642307.536
1644604.724
1646779.482
1648840.708
1650795.88
1652653.987
1654422.642
1656108.46
1657716.194
1659254.111
1660729.321
1662146.994
1663510.747
1664824.953
1666112.935
1667449.287
1668822.236
1567601.855
1548578.94
1546819.902
1542415.443
1535990.081
1529677.805
1524689.583
1521857.429
1521844.522
1523840.369
1527629.503
1532460.855
1538210.116
1544624.793
1551439.122
1558367.247
1565070.291
1571336.223
1577014.379
1582057.363
1586566.166
1590751.401
1594758.846
1598631.857
1602357.518
1605910.913
1609275.561
1612442.242
1615404.414
1618158.222
1620714.333
1623096.834
1625337.834
1627460.071
1629473.78
1631385
1633200.85
1634929.596
1636577.69
1638149.167
1639651.046
1641089.877
1642470.489
1643795.088
1645070.746
1646303.883
1647497.601
1648671.064
1649895.846
1651159.162
1522294.541
1508435.264
1509214.338
1509328.631
1509034.831
1509307.116
1510698.759
1513155.928
1516478.718
1520802.463
1525838.547
1531534.841
1537607.095
1543853.291
1549962.39
1555771.92
1561123.387
1565908.887
1570228.874
1574233.972
1578046.528
1581735.343
1585303.33
1588718.911
1591972.147
1595057.056
1597957.979
1600664.538
1603179.704
1605520.51
1607713.661
1609784.455
1611748.892
1613614.52
1615385.859
1617068.398
1618669.345
1620195.438
1621650.918
1623042.661
1624375.977
1625656.87
1626889.198
1628078.613
1629229.595
1630345.93
1631431.008
1632502.279
1633621.786
1634778.538
1498635.898
1490943.01
1492978.189
1495014.179
1497198.927
1500113.938
1503711.816
1507943.357
1512830.979
1518172.23
1523818.97
1529611.564
1535328.625
1540806.203
1545928.372
1550559.808
1554786.396
1558705.913
1562409.606
1565967.318
1569432.856
1572779.069
1575974.942
1579006.785
1581866.585
1584545.779
1587033.543
1589340.615
1591491.373
1593514.037
1595431.064
1597253.876
1598985.356
1600629.896
1602194.569
1603684.844
1605104.942
1606457.943
1607750.404
1608988.241
1610175.125
1611315.712
1612417.33
1613488.537
1614532.861
1615549.031
1616539.429
1617519.804
1618545.231
1619602.503
1490317.957
1486317.083
1488550.236
1491223.659
1494330.314
1498016.897
1502239.501
1506921.55
1511934.446
1517075.921
1522266.045
1527285.261
1532074.566
1536497.099
1540596.138
1544422.778
1548023.671
1551511.845
1554911.259
1558195.436
1561338.386
1564315.797
1567133.491
1569794.983
1572282.008
1574591.417
1576736.657
1578741.983
1580631.143
1582418.007
1584113.044
1585722.198
1587251.476
1588706.247
1590092.209
1591414.542
1592677.778
1593886.374
1595043.228
1596148.47
1597210.903
1598237.8
1599235.051
1600207.517
1601160.665
1602093.716
1603003.885
1603905.585
1604849.403
1605822.369
1489943.769
1487721.536
1489772.821
1492336.664
1495351.36
1498848.106
1502759.798
1506983.639
1511324.167
1515682.636
1519934.503
1523993.444
1527836.57
1531491.429
1534954.83
1538346.784
1541658.872
1544855.748
1547920.243
1550869.324
1553679.104
1556332.774
1558818.564
1561122.595
1563258.918
1565248.708
1567120.893
1568893.569
1570575.202
1572170.806
1573683.945
1575119.197
1576482.925
1577781.407
1579018.181
1580199.062
1581328.802
1582412.852
1583453.454
1584453.972
1585418.961
1586356.546
1587271.615
1588167.897
1589047.783
1589912.207
1590756.041
1591593.069
1592468.403
1593368.402
1491794.438
1490323.21
1492096.745
1494329.37
1496929.515
1499904.858
1503195.018
1506659.313
1510158.205
1513661.599
1517050.583
1520382.704
1523609.967
1526807.451
1529955.548
1533002.152
1535976.438
1538855.797
1541605.917
1544200.088
1546649.436
1548957.34
1551109.376
1553109.535
1554973.883
1556724.425
1558383.086
1559958.248
1561454.564
1562879.152
1564235.642
1565526.749
1566754.201
1567920.898
1569035.562
1570102.532
1571124.247
1572104.278
1573050.316
1573969.686
1574861.251
1575731.049
1576583.737
1577421.255
1578244.64
1579053.071
1579844.476
1580628.869
1581445.791
1582282.743
1493853.675
1492600.2
1494058.343
1495870.527
1497940.741
1500312.628
1502926.155
1505640.603
1508440.545
1511278.917
1514136.857
1517004.985
1519887.475
1522707.604
1525511.234
1528245.308
1530858.797
1533372.686
1535786.123
1538065.333
1540184.855
1542157.345
1544002.476
1545747.034
1547400.431
1548969.184
1550453.239
1551862.174
1553203.138
1554480.372
1555698.497
1556862.587
1557975.444
1559038.223
1560053.438
1561025.591
1561959.991
1562862.779
1563739.703
1564595.49
1565432.598
1566252.421
1567057.881
1567850.094
1568629.344
1569394.468
1570143.151
1570882.184
1571649.403
1572434.459
1495144.737
1493894.085
1495048.49
1496447.633
1498063.532
1499954.112
1502024.493
1504233.939
1506596.36
1509008.709
1511523.913
1514035.91
1516569.898
1519072.826
1521505.846
1523896.891
1526200.915
1528379.85
1530441.961
1532397.407
1534230.935
1535942.489
1537558.363
1539097.134
1540568.347
1541975.03
1543313.142
1544583.329
1545793.987
1546950.183
1548054.16
1549110.893
1550126.098
1551102.837
1552035.743
1552932.925
1553801.929
1554647.715
1555473.871
1556283.923
1557079.799
1557861.617
1558630.535
1559387.613
1560132.408
1560861.055
1561571.651
1562271.943
1562997.264
1563736.169
1495449.6
1494131.624
1495078.677
1496226.015
1497576.759
1499133.242
1500858.283
1502781.462
1504808.197
1506931.062
1509105.617
1511313.117
1513498.704
1515690.766
1517815.667
1519866.278
1521854.64
1523736.407
1525499.281
1527163.725
1528755.6
1530273.913
1531715.106
1533091.027
1534406.026
1535664.453
1536874.744
1538031.563
1539132.95
1540186.275
1541197.266
1542168.875
1543103.345
1544003.241
1544872.065
1545713.666
1546534.22
1547337.745
1548127.022
1548903.063
1549666.207
1550417.459
1551157.615
1551886.19
1552600.221
1553294.776
1553972.139
1554638.842
1555326.953
1556025.421
1495120.479
1493768.684
1494626.578
1495649.216
1496803.459
1498115.452
1499630.867
1501303.341
1503054.288
1504913.397
1506791.172
1508716.724
1510619.046
1512499.819
1514344.989
1516102.357
1517783.885
1519399.303
1520926.445
1522380.949
1523780.464
1525135.608
1526433.89
1527671.227
1528857.695
1529997.206
1531093.062
1532149.124
1533159.51
1534129.254
1535063.39
1535963.144
1536830.62
1537671.482
1538490.942
1539290.461
1540074.784
1540846.708
1541607.139
1542355.871
1543091.57
1543817.965
1544533.245
1545234.044
1545916.943
1546582.304
1547229.824
1547865.228
1548519.181
1549182.979
1494545.441
1493170.414
1493951.97
1494849.53
1495831.267
1496982.747
1498316.464
1499755.141
1501293.685
1502900.092
1504540.247
1506195.256
1507846.626
1509453.011
1511026.144
1512532.659
1513972.833
1515367.873
1516718.793
1518015.319
1519265.769
1520475.046
1521646.874
1522769.285
1523848.176
1524887.618
1525888.872
1526855.871
1527790.487
1528690.277
1529557.729
1530396.979
1531213.125
1532009.937
1532789.824
1533556.835
1534313.108
1535059.321
1535795.013
1536518.366
1537232.108
1537935.728
1538625.22
1539297.841
1539951.362
1540589.479
1541208.782
1541814.821
1542435.224
1543066.736
1493814.535
1492400.901
1493110.239
1493892.6
1494744.419
1495773.087
1496936.72
1498178.201
1499522.988
1500904.398
1502330.1
1503745.218
1505161.544
1506531.114
1507866.447
1509174.294
1510435.794
1511665.832
1512873.872
1514037.936
1515162.231
1516252.375
1517312.579
1518337.607
1519324.729
1520277.97
1521200.684
1522095.269
1522963.252
1523800.284
1524612.232
1525404.564
1526180.653
1526942.391
1527691.259
1528432.125
1529164.673
1529888.129
1530601.026
1531301.424
1531993.838
1532672.655
1533335.288
1533979.844
1534606.582
1535217.726
1535809.32
1536384.927
1536975.126
1537576.271
1492968.52
1491518.468
1492160.236
1492849.437
1493611.389
1494506.229
1495506.404
1496592.132
1497751.902
1498935.405
1500151.749
1501356.784
1502559.626
1503739.898
1504900.391
1506053.458
1507176.793
1508276.13
1509355.337
1510405.499
1511424.581
1512415.876
1513380.862
1514319.916
1515227.349
1516108.131
1516964.797
1517797.039
1518603.399
1519388.372
1520156.804
1520911.707
1521655.075
1522387.703
1523111.653
1523829.824
1524540.357
1525241.976
1525932.713
1526611.862
1527279.478
1527932.409
1528568.375
1529183.896
1529785.406
1530370.127
1530932.906
1531479.004
1532041.807
1532612.497
1492038.602
1490553.599
1491132.241
1491753.52
1492421.462
1493188.698
1494037.253
1494974.458
1495961.503
1496970.925
1498004.902
1499037.612
1500074.046
1501113.92
1502143.744
1503169.285
1504176.898
1505164.305
1506134.175
1507088.923
1508018.317
1508924.74
1509808.801
1510671.225
1511510.712
1512329.552
1513127.163
1513902.816
1514658.971
1515402.641
1516135.715
1516860.086
1517576.334
1518282.663
1518985.236
1519682.1
1520371.796
1521052.415
1521718.571
1522374.174
1523016.727
1523643.253
1524249.798
1524840.274
1525416.409
1525973.165
1526506.487
1527027.345
1527561.788
1528100.662
1491028.265
1489517.683
1490049.342
1490605.16
1491176.027
1491825.796
1492545.553
1493338.47
1494170.526
1495037.141
1495926.278
1496831.212
1497744.86
1498670.165
1499589.919
1500505.528
1501412.265
1502305.966
1503187.467
1504056.015
1504905.733
1505737.564
1506552.125
1507349.005
1508129.391
1508891.465
1509636.242
1510366.245
1511081.646
1511790.999
1512494.913
1513193.348
1513884.525
1514568.186
1515249.731
1515926.186
1516594.782
1517249.903
1517892.013
1518523.317
1519139.907
1519737.369
1520316.897
1520883.488
1521432.33
1521959.675
1522466.997
1522963.036
1523468.537
1523975.747
1489932.81
1488416.94
1488907.35
1489392.279
1489872.809
1490418.868
1491029.651
1491704.548
1492418.645
1493173.503
1493952.321
1494756.374
1495570.854
1496396.022
1497219.744
1498042.476
1498863.832
1499677.272
1500481.55
1501273.858
1502053.704
1502821.52
1503576.652
1504315.674
1505040.905
1505753.31
1506454.851
1507144.838
1507828.304
1508510.119
1509189.243
1509863.635
1510529.919
1511194.05
1511855.91
1512511.577
1513154.86
1513783.115
1514402.631
1515008.802
1515597.069
1516166.632
1516722.594
1517262.379
1517782.477
1518282.784
1518766.481
1519236.259
1519711.915
1520192.256
1488765.261
1487256.794
1487702.343
1488126.088
1488533.126
1488996.563
1489525.103
1490110.856
1490737.81
1491403.581
1492095.179
1492810.232
1493537.965
1494275.713
1495019.597
1495766.35
1496511.773
1497254.028
1497989.956
1498715.729
1499435.617
1500148.306
1500849.502
1501534.155
1502212.277
1502884.671
1503549.696
1504204.748
1504862.843
1505521.162
1506176.975
1506826.802
1507471.802
1508117.748
1508759.495
1509390.411
1510005.512
1510611.387
1511206.237
1511784.787
1512344.231
1512889.485
1513420.038
1513932.065
1514424.616
1514901.324
1515359.846
1515801.367
1516251.392
1516707.244
1487546.936
1486054.577
1486463.868
1486840.418
1487192.201
1487594.625
1488060.83
1488577.305
1489133.728
1489724.855
1490342.075
1490979.474
1491633.924
1492300.065
1492975.908
1493656.032
1494334.268
1495013.863
1495690.36
1496359.025
1497027
1497687.919
1498335.517
1498977.41
1499618.379
1500256.25
1500888.259
1501518.585
1502153.932
1502790.074
1503422.692
1504048.525
1504676.63
1505303.21
1505920.621
1506522.163
1507114.032
1507696.982
1508265.048
1508814.194
1509348.732
1509869.956
1510373.628
1510857.657
1511326.324
1511778.912
1512209.998
1512627.317
1513054.323
1513481.994
1486314.683
1484849.628
1485230.459
1485571.068
1485881.738
1486238.844
1486651.437
1487109.631
1487606.08
1488132.244
1488686.487
1489261.092
1489854.535