/*--------------------------------*- C++ -*----------------------------------*\
  =========                 |
  \\      /  F ield         | OpenFOAM: The Open Source CFD Toolbox
   \\    /   O peration     | Website:  https://openfoam.org
    \\  /    A nd           | Version:  7
     \\/     M anipulation  |
\*---------------------------------------------------------------------------*/
FoamFile
{
    version     2.0;
    format      ascii;
    class       volVectorField;
    location    "0.003";
    object      U;
}
// * * * * * * * * * * * * * * * * * * * * * * * * * * * * * * * * * * * * * //

dimensions      [0 1 -1 0 0 0 0];

internalField   nonuniform List<vector> 
14000
(
(-6.072857281e-08 3.294364624e-20 -0.002000023234)
(-1.593329716e-07 3.386716008e-20 -0.002000029053)
(-2.538642441e-07 1.948755081e-20 -0.002000043687)
(-3.535454691e-07 2.011256803e-21 -0.002000064794)
(-4.564175864e-07 -1.758087491e-20 -0.002000092261)
(-5.622497073e-07 -5.04627058e-21 -0.002000125866)
(-6.716293483e-07 2.258804807e-21 -0.002000165327)
(-7.850704082e-07 6.512680692e-21 -0.002000210398)
(-9.029116717e-07 9.107597868e-21 -0.002000260876)
(-1.025365741e-06 1.113415736e-20 -0.002000316596)
(-1.152536065e-06 1.263659127e-20 -0.002000377422)
(-1.284419551e-06 1.364720876e-20 -0.002000443246)
(-1.420909862e-06 1.444089919e-20 -0.002000513985)
(-1.561801311e-06 1.511132285e-20 -0.00200058958)
(-1.706791631e-06 1.583677687e-20 -0.002000669989)
(-1.855484822e-06 1.658126505e-20 -0.002000755185)
(-2.007401868e-06 1.72070433e-20 -0.002000845157)
(-2.161989568e-06 1.772259955e-20 -0.002000939908)
(-2.318599111e-06 1.840069563e-20 -0.002001039457)
(-2.47647557e-06 1.945163299e-20 -0.002001143839)
(-2.634773801e-06 2.055119352e-20 -0.002001253102)
(-2.792577437e-06 2.157798156e-20 -0.002001367306)
(-2.94890025e-06 2.263856813e-20 -0.002001486529)
(-3.102650816e-06 2.924809227e-20 -0.00200161086)
(-3.252643012e-06 3.575380168e-20 -0.002001740398)
(-3.397621912e-06 4.260871351e-20 -0.002001875247)
(-3.536233256e-06 5.002709308e-20 -0.002002015504)
(-3.667040521e-06 4.783677191e-20 -0.002002161248)
(-3.788517546e-06 4.587617964e-20 -0.002002312521)
(-3.89904364e-06 5.258529665e-20 -0.002002469309)
(-3.996932082e-06 5.876053299e-20 -0.002002631517)
(-4.080383767e-06 6.059801952e-20 -0.002002798949)
(-4.147473229e-06 6.279952791e-20 -0.002002971274)
(-4.196179449e-06 6.520443286e-20 -0.002003147999)
(-4.224393119e-06 6.777336866e-20 -0.002003328458)
(-4.22987461e-06 7.050478653e-20 -0.002003511797)
(-4.210246664e-06 7.333932186e-20 -0.002003696967)
(-4.16300037e-06 7.635369924e-20 -0.002003882733)
(-4.085502771e-06 7.957090857e-20 -0.002004067679)
(-3.974973123e-06 8.294709498e-20 -0.002004250228)
(-3.828473731e-06 8.330956769e-20 -0.002004428647)
(-3.642940846e-06 8.401794776e-20 -0.002004601057)
(-3.415180257e-06 8.508242749e-20 -0.002004765422)
(-3.141879169e-06 8.638135248e-20 -0.002004919522)
(-2.819588058e-06 8.793603794e-20 -0.002005060904)
(-2.444767409e-06 8.982418371e-20 -0.002005186806)
(-2.014141157e-06 9.207987422e-20 -0.002005294064)
(-1.524655394e-06 9.126424135e-20 -0.002005379056)
(-9.694577786e-07 9.070272696e-20 -0.002005437458)
(-3.356165018e-07 9.044235524e-20 -0.002005463288)
(-1.560978313e-07 7.358994709e-20 -0.002003016379)
(-4.090477407e-07 1.484154906e-19 -0.002003034829)
(-6.478374432e-07 2.123007457e-19 -0.002003075767)
(-8.92496501e-07 1.825986077e-19 -0.002003135542)
(-1.135692004e-06 1.701577156e-19 -0.002003212665)
(-1.374942347e-06 1.640665949e-19 -0.002003305557)
(-1.610069208e-06 1.151195398e-19 -0.002003412684)
(-1.840975232e-06 7.478990506e-20 -0.002003532591)
(-2.067393174e-06 3.94064673e-20 -0.002003663907)
(-2.288958991e-06 3.955206234e-20 -0.002003805342)
(-2.505219656e-06 3.795768435e-20 -0.002003955692)
(-2.715641448e-06 3.510778694e-20 -0.002004113837)
(-2.919611235e-06 3.065087715e-20 -0.002004278734)
(-3.116452397e-06 3.623489834e-20 -0.002004449416)
(-3.305448979e-06 3.948774313e-20 -0.002004624985)
(-3.485809917e-06 3.105441447e-20 -0.002004804611)
(-3.656662402e-06 3.161853349e-20 -0.002004987527)
(-3.817124664e-06 4.10568112e-20 -0.00200517303)
(-3.966282311e-06 4.903305334e-20 -0.002005360481)
(-4.103176458e-06 5.534611435e-20 -0.0020055493)
(-4.226846233e-06 6.065860871e-20 -0.002005738968)
(-4.336324453e-06 6.530565389e-20 -0.002005929026)
(-4.430644079e-06 7.563885697e-20 -0.002006119074)
(-4.508872722e-06 8.439134255e-20 -0.00200630878)
(-4.570101546e-06 9.279187955e-20 -0.002006497864)
(-4.613445685e-06 9.51906982e-20 -0.002006686108)
(-4.638085462e-06 9.753078128e-20 -0.00200687335)
(-4.643278822e-06 1.000778289e-19 -0.002007059479)
(-4.628356357e-06 1.02332055e-19 -0.002007244431)
(-4.592720521e-06 1.042588839e-19 -0.002007428179)
(-4.53587548e-06 1.065646505e-19 -0.002007610718)
(-4.4574602e-06 1.092508852e-19 -0.002007792044)
(-4.357253527e-06 1.121047132e-19 -0.002007972121)
(-4.235174468e-06 1.150502635e-19 -0.002008150845)
(-4.091308475e-06 1.180177116e-19 -0.002008328)
(-3.92594265e-06 1.210674223e-19 -0.002008503206)
(-3.739577214e-06 1.242113956e-19 -0.002008675879)
(-3.532939976e-06 1.275026365e-19 -0.002008845188)
(-3.307012023e-06 1.309285182e-19 -0.002009010034)
(-3.063057134e-06 1.345672905e-19 -0.002009169063)
(-2.802632322e-06 1.385849369e-19 -0.002009320687)
(-2.527588012e-06 1.39157402e-19 -0.002009463159)
(-2.240094664e-06 1.365328279e-19 -0.002009594654)
(-1.942658525e-06 1.343433111e-19 -0.002009713385)
(-1.638137232e-06 1.32527753e-19 -0.00200981772)
(-1.329738921e-06 1.310685094e-19 -0.002009906317)
(-1.02097757e-06 1.299144399e-19 -0.002009978241)
(-7.158033763e-07 1.29173463e-19 -0.002010033064)
(-4.190608223e-07 1.286864987e-19 -0.002010070993)
(-1.357735091e-07 1.284278835e-19 -0.002010093035)
(-1.856253295e-07 1.004061255e-20 -0.002007843484)
(-4.853707666e-07 -3.361505774e-20 -0.002007861589)
(-7.653812216e-07 7.316616653e-20 -0.002007900069)
(-1.049036326e-06 1.516788151e-19 -0.002007956403)
(-1.326676449e-06 2.173223814e-19 -0.002008029114)
(-1.594508679e-06 2.01582851e-19 -0.002008116572)
(-1.851629906e-06 1.966946864e-19 -0.002008217216)
(-2.09740777e-06 1.956321625e-19 -0.002008329542)
(-2.331122314e-06 1.966470883e-19 -0.002008452095)
(-2.552067804e-06 1.979254853e-19 -0.002008583488)
(-2.759601839e-06 2.011800752e-19 -0.002008722415)
(-2.953147908e-06 2.057291596e-19 -0.00200886765)
(-3.132140677e-06 1.960670433e-19 -0.002009018064)
(-3.296032916e-06 1.881848152e-19 -0.002009172618)
(-3.444330657e-06 1.822621507e-19 -0.002009330377)
(-3.576569418e-06 1.778477454e-19 -0.002009490505)
(-3.692323972e-06 1.736287811e-19 -0.002009652265)
(-3.791205094e-06 1.699740915e-19 -0.002009815017)
(-3.872872695e-06 1.678616129e-19 -0.00200997822)
(-3.937093012e-06 1.672439377e-19 -0.002010141422)
(-3.98370607e-06 1.679131541e-19 -0.002010304258)
(-4.012589816e-06 1.696457918e-19 -0.002010466436)
(-4.02369339e-06 1.650515669e-19 -0.002010627731)
(-4.017079061e-06 1.559076745e-19 -0.002010787966)
(-3.992911968e-06 1.54830905e-19 -0.002010946996)
(-3.951434408e-06 1.486768883e-19 -0.002011104688)
(-3.892996089e-06 1.374877304e-19 -0.002011260892)
(-3.818035608e-06 1.371217685e-19 -0.002011415426)
(-3.727089711e-06 1.373799113e-19 -0.002011568051)
(-3.620815729e-06 1.303368018e-19 -0.002011718447)
(-3.499961708e-06 1.246748622e-19 -0.002011866207)
(-3.365371369e-06 1.240338665e-19 -0.002012010825)
(-3.2180052e-06 1.240945466e-19 -0.002012151707)
(-3.058914737e-06 1.29487858e-19 -0.002012288185)
(-2.889243945e-06 1.310152582e-19 -0.002012419537)
(-2.710232676e-06 1.331076506e-19 -0.002012545021)
(-2.523207105e-06 1.315067464e-19 -0.002012663904)
(-2.329594627e-06 1.2641984e-19 -0.002012775494)
(-2.130888097e-06 1.18103965e-19 -0.002012879171)
(-1.928646594e-06 1.1045298e-19 -0.002012974407)
(-1.724495651e-06 1.058280284e-19 -0.002013060788)
(-1.520109274e-06 1.054031247e-19 -0.00201313802)
(-1.317187061e-06 1.052985465e-19 -0.002013205943)
(-1.117412356e-06 1.053610955e-19 -0.002013264534)
(-9.224350634e-07 1.056056916e-19 -0.002013313906)
(-7.338309614e-07 1.060548544e-19 -0.002013354305)
(-5.530405962e-07 1.066564078e-19 -0.002013386094)
(-3.81386744e-07 1.091203169e-19 -0.002013409737)
(-2.202628703e-07 1.088069288e-19 -0.00201342577)
(-7.092423279e-08 1.086591676e-19 -0.002013434824)
(-1.650641778e-07 2.394167923e-20 -0.002012663517)
(-4.318960901e-07 5.268761051e-21 -0.002012676406)
(-6.810497931e-07 -3.605509245e-20 -0.00201270282)
(-9.319673536e-07 2.703709406e-20 -0.002012741648)
(-1.175405718e-06 6.813283774e-20 -0.00201279188)
(-1.407662182e-06 9.784803671e-20 -0.002012852396)
(-1.627622323e-06 1.760677764e-19 -0.002012922149)
(-1.834499389e-06 2.446387596e-19 -0.002013000136)
(-2.027514638e-06 3.086253298e-19 -0.002013085385)
(-2.205966885e-06 3.362433472e-19 -0.002013176964)
(-2.369315146e-06 3.299098149e-19 -0.00201327399)
(-2.517129038e-06 3.304181184e-19 -0.002013375642)
(-2.649068999e-06 3.367730926e-19 -0.002013481162)
(-2.764875627e-06 3.193033814e-19 -0.002013589855)
(-2.864370498e-06 3.076678561e-19 -0.002013701096)
(-2.947479391e-06 2.990784524e-19 -0.002013814322)
(-3.014217406e-06 2.744110237e-19 -0.002013929032)
(-3.064675537e-06 2.343991392e-19 -0.002014044781)
(-3.099039597e-06 1.990190816e-19 -0.002014161167)
(-3.117584517e-06 1.768312352e-19 -0.002014277831)
(-3.120649764e-06 1.57345009e-19 -0.002014394443)
(-3.108658564e-06 1.396215457e-19 -0.002014510692)
(-3.082117779e-06 1.173696962e-19 -0.00201462627)
(-3.041590875e-06 1.038466133e-19 -0.002014740866)
(-2.987723361e-06 9.093828312e-20 -0.002014854157)
(-2.921249125e-06 8.452620341e-20 -0.002014965806)
(-2.842942298e-06 7.863261382e-20 -0.002015075456)
(-2.753617613e-06 7.906911062e-20 -0.002015182732)
(-2.654164701e-06 7.968223454e-20 -0.002015287245)
(-2.545528281e-06 8.0298941e-20 -0.002015388598)
(-2.428691145e-06 8.093170163e-20 -0.002015486396)
(-2.304672808e-06 7.64946874e-20 -0.002015580253)
(-2.174541707e-06 7.223270606e-20 -0.002015669803)
(-2.039403786e-06 6.330298926e-20 -0.002015754707)
(-1.900361743e-06 5.490464235e-20 -0.002015834665)
(-1.758540738e-06 4.67215635e-20 -0.002015909418)
(-1.615068811e-06 4.304110486e-20 -0.002015978757)
(-1.471055532e-06 3.942919551e-20 -0.002016042525)
(-1.327591186e-06 3.966030459e-20 -0.002016100623)
(-1.185727909e-06 3.958004907e-20 -0.002016153009)
(-1.046470535e-06 3.55917597e-20 -0.002016199701)
(-9.107594313e-07 3.383313017e-20 -0.002016240774)
(-7.794599794e-07 3.764194823e-20 -0.002016276362)
(-6.533597018e-07 4.104204379e-20 -0.00201630665)
(-5.3315875e-07 4.408062837e-20 -0.00201633187)
(-4.194514295e-07 4.681151696e-20 -0.002016352294)
(-3.127190261e-07 4.933061922e-20 -0.002016368226)
(-2.133857737e-07 5.178742954e-20 -0.002016379991)
(-1.219654183e-07 5.179646609e-20 -0.002016387937)
(-3.906625474e-08 5.183299115e-20 -0.002016392439)
(-1.297574823e-07 9.564714979e-20 -0.002017095916)
(-3.389072835e-07 2.107377532e-19 -0.002017104173)
(-5.330740859e-07 1.653175304e-19 -0.002017120456)
(-7.278670552e-07 1.461118219e-19 -0.0020171445)
(-9.158076645e-07 1.400851457e-19 -0.002017175697)
(-1.093814235e-06 1.407405104e-19 -0.002017213381)
(-1.260843747e-06 1.457167067e-19 -0.002017256946)
(-1.416149196e-06 1.533478032e-19 -0.002017305815)
(-1.55905079e-06 1.625671532e-19 -0.00201735943)
(-1.689036993e-06 1.723184769e-19 -0.002017417255)
(-1.805717677e-06 1.837600372e-19 -0.002017478775)
(-1.90879271e-06 1.78816138e-19 -0.002017543507)
(-1.998110166e-06 1.898055454e-19 -0.002017610995)
(-2.073619144e-06 1.875876285e-19 -0.00201768081)
(-2.13535041e-06 1.738763006e-19 -0.002017752544)
(-2.18346493e-06 1.639150623e-19 -0.002017825816)
(-2.218205436e-06 1.569491267e-19 -0.002017900262)
(-2.239880187e-06 1.524539563e-19 -0.00201797553)
(-2.248893694e-06 1.397428301e-19 -0.00201805128)
(-2.245698506e-06 1.289771521e-19 -0.002018127178)
(-2.230811499e-06 1.11070708e-19 -0.002018202895)
(-2.204840823e-06 8.660419453e-20 -0.002018278101)
(-2.168447439e-06 7.035597893e-20 -0.002018352464)
(-2.122320792e-06 5.508149058e-20 -0.002018425658)
(-2.06718118e-06 3.492730117e-20 -0.002018497356)
(-2.003800681e-06 2.759900593e-20 -0.002018567238)
(-1.932981409e-06 2.545758007e-20 -0.002018634996)
(-1.855543269e-06 2.301457286e-20 -0.002018700333)
(-1.77233289e-06 2.038203923e-20 -0.002018762969)
(-1.684200495e-06 1.742375612e-20 -0.002018822647)
(-1.591991747e-06 1.420775784e-20 -0.002018879137)
(-1.496564239e-06 1.079465824e-20 -0.002018932238)
(-1.398755129e-06 1.175434489e-20 -0.00201898178)
(-1.299388914e-06 8.371431745e-21 -0.002019027634)
(-1.199269282e-06 8.014845517e-21 -0.002019069704)
(-1.099158963e-06 7.008107289e-21 -0.002019107933)
(-9.997959512e-07 8.633179977e-21 -0.002019142303)
(-9.018742344e-07 1.289244381e-20 -0.002019172833)
(-8.060393944e-07 1.954164413e-20 -0.002019199579)
(-7.128878237e-07 2.56336905e-20 -0.002019222629)
(-6.229662224e-07 3.141061511e-20 -0.002019242103)
(-5.36768004e-07 3.406229581e-20 -0.00201925815)
(-4.547232079e-07 3.646718023e-20 -0.002019270941)
(-3.772006045e-07 3.56470114e-20 -0.002019280669)
(-3.045183863e-07 3.7899549e-20 -0.002019287546)
(-2.369491645e-07 3.71704996e-20 -0.002019291788)
(-1.746874433e-07 3.645517488e-20 -0.002019293577)
(-1.178394775e-07 3.575308284e-20 -0.002019293094)
(-6.652918584e-08 3.732732428e-20 -0.002019290983)
(-2.11323643e-08 3.876438454e-20 -0.002019288919)
(-9.660022964e-08 4.16108273e-20 -0.002020972138)
(-2.524761673e-07 5.622049547e-20 -0.002020977243)
(-3.973239369e-07 5.311875688e-20 -0.002020986913)
(-5.421234517e-07 4.757116251e-20 -0.002021001238)
(-6.810464231e-07 4.053962099e-20 -0.002021019873)
(-8.117742784e-07 3.297851969e-20 -0.00202104243)
(-9.334605994e-07 2.570270816e-20 -0.002021068564)
(-1.045512322e-06 1.990708731e-20 -0.002021097946)
(-1.147413838e-06 1.695962356e-20 -0.00202113025)
(-1.238815146e-06 -2.717019307e-20 -0.002021165157)
(-1.3194747e-06 -3.33957736e-20 -0.002021202359)
(-1.389240323e-06 -3.947001966e-20 -0.002021241549)
(-1.448107382e-06 -4.663683016e-20 -0.00202128243)
(-1.496176803e-06 -5.570492298e-20 -0.002021324709)
(-1.533602201e-06 -6.635801342e-20 -0.002021368096)
(-1.560620777e-06 -6.862020639e-20 -0.002021412302)
(-1.577576164e-06 -6.34567425e-20 -0.002021457044)
(-1.584856385e-06 -4.100584137e-20 -0.00202150204)
(-1.582896585e-06 -2.108631001e-20 -0.002021547009)
(-1.572196547e-06 -1.122276506e-20 -0.002021591675)
(-1.553316503e-06 -2.081742471e-21 -0.002021635762)
(-1.526852964e-06 -1.667866648e-21 -0.002021679001)
(-1.49341885e-06 -1.389707684e-21 -0.002021721132)
(-1.453654527e-06 -2.357487683e-23 -0.002021761908)
(-1.408220947e-06 1.192962443e-21 -0.002021801092)
(-1.357777867e-06 2.103038686e-21 -0.002021838464)
(-1.303010165e-06 3.157861632e-21 -0.002021873823)
(-1.24460847e-06 5.156237515e-21 -0.002021906987)
(-1.18324384e-06 7.056826823e-21 -0.002021937798)
(-1.119584063e-06 8.939526177e-21 -0.002021966123)
(-1.054279724e-06 1.098956884e-20 -0.002021991853)
(-9.879686669e-07 1.764232634e-20 -0.002022014907)
(-9.21253656e-07 2.423313624e-20 -0.002022035231)
(-8.547157083e-07 3.513488828e-20 -0.002022052796)
(-7.889174279e-07 4.630955516e-20 -0.002022067599)
(-7.243678909e-07 5.36351732e-20 -0.002022079664)
(-6.615500102e-07 5.800470078e-20 -0.002022089033)
(-6.009215987e-07 5.922210083e-20 -0.002022095776)
(-5.428859203e-07 5.792274831e-20 -0.002022099977)
(-4.87802626e-07 5.385912243e-20 -0.00202210174)
(-4.360086924e-07 5.379433094e-20 -0.002022101185)
(-3.877977916e-07 5.101368361e-20 -0.002022098443)
(-3.433931293e-07 4.595953574e-20 -0.002022093662)
(-3.029439449e-07 4.166192353e-20 -0.002022086981)
(-2.666661601e-07 3.782495806e-20 -0.002022078498)
(-2.353820826e-07 3.743474493e-20 -0.002022068365)
(-2.101123564e-07 3.731898842e-20 -0.002022057426)
(-1.850610573e-07 3.605985411e-20 -0.002022047114)
(-1.387579743e-07 3.606886344e-20 -0.002022038563)
(-5.224054068e-08 3.620342098e-20 -0.002022032839)
(-7.042479498e-08 4.175619398e-20 -0.002024520416)
(-1.837449663e-07 5.738101228e-20 -0.002024523569)
(-2.885340867e-07 5.63754067e-20 -0.002024529305)
(-3.930359678e-07 5.184816357e-20 -0.002024537805)
(-4.929354577e-07 4.530449963e-20 -0.00202454886)
(-5.86526195e-07 3.715773409e-20 -0.002024562239)
(-6.731332061e-07 2.743212361e-20 -0.002024577731)
(-7.523104146e-07 1.578973943e-20 -0.002024595128)
(-8.237247645e-07 2.30098595e-21 -0.002024614225)
(-8.871178021e-07 -3.43174818e-20 -0.00202463481)
(-9.423705657e-07 -7.103538413e-20 -0.002024656678)
(-9.894624538e-07 -9.324448645e-20 -0.002024679617)
(-1.028438429e-06 -1.176326414e-19 -0.002024703414)
(-1.059449938e-06 -1.307777065e-19 -0.002024727857)
(-1.082727055e-06 -1.34703261e-19 -0.002024752737)
(-1.0985413e-06 -1.412158382e-19 -0.00202477784)
(-1.107223154e-06 -1.381938641e-19 -0.002024802954)
(-1.109165521e-06 -1.382598966e-19 -0.002024827873)
(-1.104798569e-06 -1.315330814e-19 -0.002024852392)
(-1.094587392e-06 -1.272906003e-19 -0.002024876312)
(-1.079039683e-06 -1.172535067e-19 -0.002024899442)
(-1.058672367e-06 -1.018741583e-19 -0.002024921603)
(-1.034000139e-06 -8.924035972e-20 -0.002024942625)
(-1.00557552e-06 -7.151985686e-20 -0.002024962354)
(-9.739618118e-07 -5.579565547e-20 -0.002024980647)
(-9.397058891e-07 -4.78110909e-20 -0.002024997379)
(-9.033526195e-07 -4.082425382e-20 -0.002025012439)
(-8.654501594e-07 -3.470475958e-20 -0.002025025738)
(-8.265275331e-07 -3.489387195e-20 -0.002025037202)
(-7.87100365e-07 -3.515220135e-20 -0.002025046776)
(-7.47669241e-07 -3.538563464e-20 -0.002025054426)
(-7.087026281e-07 -3.55021474e-20 -0.002025060133)
(-6.706594313e-07 -4.494076995e-20 -0.002025063898)
(-6.339657621e-07 -5.393080045e-20 -0.002025065735)
(-5.990152016e-07 -5.805928774e-20 -0.002025065675)
(-5.661890078e-07 -6.198343809e-20 -0.002025063765)
(-5.358295914e-07 -6.172880931e-20 -0.002025060063)
(-5.08243916e-07 -6.146680779e-20 -0.002025054638)
(-4.837188719e-07 -6.133863788e-20 -0.002025047571)
(-4.625030655e-07 -6.119410108e-20 -0.002025038952)
(-4.44781123e-07 -6.116716101e-20 -0.002025028882)
(-4.306639331e-07 -6.11619836e-20 -0.002025017452)
(-4.204828827e-07 -6.132830155e-20 -0.002025004696)
(-4.153994824e-07 -6.177400891e-20 -0.002024990706)
(-4.155457147e-07 -6.541884835e-20 -0.002024976493)
(-4.091693036e-07 -6.62881732e-20 -0.002024963657)
(-3.756344552e-07 -6.872382748e-20 -0.0020249536)
(-3.063821173e-07 -7.130444565e-20 -0.002024947508)
(-2.046718605e-07 -7.406342042e-20 -0.002024945824)
(-7.229043215e-08 -7.702161499e-20 -0.002024946534)
(-5.149985716e-08 -8.894623533e-21 -0.002027764183)
(-1.344898393e-07 1.875260456e-19 -0.002027766095)
(-2.11419175e-07 1.590955349e-19 -0.002027769439)
(-2.880350703e-07 1.451316805e-19 -0.002027774371)
(-3.610755955e-07 1.385000111e-19 -0.002027780765)
(-4.292780219e-07 1.35931314e-19 -0.00202778847)
(-4.921697995e-07 1.356511326e-19 -0.002027797347)
(-5.494317604e-07 1.362740994e-19 -0.002027807249)
(-6.008434245e-07 1.108057328e-19 -0.002027818035)
(-6.462582632e-07 1.275293038e-19 -0.002027829558)
(-6.856107913e-07 1.02257371e-19 -0.002027841669)
(-7.189590318e-07 6.299618391e-20 -0.00202785422)
(-7.464074296e-07 2.941771876e-20 -0.00202786706)
(-7.681127829e-07 -9.755800782e-22 -0.002027880041)
(-7.843029167e-07 -2.740060325e-20 -0.002027893015)
(-7.952592139e-07 -5.102586391e-20 -0.00202790584)
(-8.013074464e-07 -6.117278594e-20 -0.002027918376)
(-8.028039155e-07 -8.06101588e-20 -0.002027930488)
(-8.001279041e-07 -8.861447267e-20 -0.002027942048)
(-7.936819169e-07 -9.650108208e-20 -0.002027952936)
(-7.838925863e-07 -8.613083063e-20 -0.002027963039)
(-7.711970511e-07 -6.88235941e-20 -0.002027972259)
(-7.560415281e-07 -5.269575804e-20 -0.002027980505)
(-7.388851161e-07 -5.249633148e-20 -0.002027987698)
(-7.201736269e-07 -5.235043581e-20 -0.002027993771)
(-7.003616736e-07 -5.940013182e-20 -0.002027998669)
(-6.798877154e-07 -6.640489177e-20 -0.002028002352)
(-6.591805489e-07 -7.928293993e-20 -0.00202800479)
(-6.38656824e-07 -9.195744733e-20 -0.002028005968)
(-6.187133544e-07 -9.914953097e-20 -0.002028005879)
(-5.997381386e-07 -1.06960983e-19 -0.00202800453)
(-5.820865912e-07 -1.154162136e-19 -0.00202800194)
(-5.6610955e-07 -1.244601654e-19 -0.002027998134)
(-5.521253201e-07 -1.343396188e-19 -0.002027993149)
(-5.404219839e-07 -1.451627206e-19 -0.002027987027)
(-5.312791157e-07 -1.527009624e-19 -0.00202797982)
(-5.249365211e-07 -1.614644348e-19 -0.002027971584)
(-5.216059709e-07 -1.632757423e-19 -0.002027962383)
(-5.214344265e-07 -1.663820275e-19 -0.002027952289)
(-5.244914719e-07 -1.632233565e-19 -0.002027941358)
(-5.311537229e-07 -1.61397804e-19 -0.002027929574)
(-5.427932427e-07 -1.573598622e-19 -0.002027916981)
(-5.59136372e-07 -1.51049021e-19 -0.002027904756)
(-5.649777439e-07 -1.457878467e-19 -0.002027894722)
(-5.39402353e-07 -1.415223326e-19 -0.002027888532)
(-4.76369059e-07 -1.410813177e-19 -0.002027887517)
(-3.790770435e-07 -1.412994106e-19 -0.002027891604)
(-2.574522264e-07 -1.422181694e-19 -0.002027898684)
(-1.38347272e-07 -1.424298024e-19 -0.002027905881)
(-4.224012333e-08 -1.433765982e-19 -0.002027910893)
(-3.919446288e-08 1.471748138e-19 -0.00203086639)
(-1.022054394e-07 3.448807717e-19 -0.002030867346)
(-1.604188431e-07 3.419100515e-19 -0.002030868898)
(-2.184225318e-07 2.318839734e-19 -0.002030871162)
(-2.737708277e-07 1.609317187e-19 -0.002030874068)
(-3.255052251e-07 1.098440083e-19 -0.002030877522)
(-3.732908966e-07 7.021821618e-20 -0.002030881427)
(-4.169082975e-07 3.744279061e-20 -0.00203088569)
(-4.5619044e-07 1.019023243e-20 -0.002030890208)
(-4.910841964e-07 7.18596384e-21 -0.002030894882)
(-5.215827521e-07 5.788097382e-21 -0.002030899611)
(-5.477399042e-07 5.047025646e-21 -0.002030904292)
(-5.696789737e-07 4.430594924e-21 -0.002030908827)
(-5.875694149e-07 4.244867842e-21 -0.002030913119)
(-6.016195919e-07 3.925588709e-21 -0.002030917072)
(-6.120721698e-07 3.413863583e-21 -0.002030920598)
(-6.192013499e-07 -9.139241356e-21 -0.002030923613)
(-6.233198674e-07 -2.140935495e-20 -0.00203092604)
(-6.247670768e-07 -3.392703171e-20 -0.002030927812)
(-6.238840025e-07 -3.654805701e-20 -0.002030928866)
(-6.210085779e-07 -4.021796914e-20 -0.002030929147)
(-6.165026808e-07 -3.550678468e-20 -0.002030928613)
(-6.107390122e-07 -3.150923012e-20 -0.002030927228)
(-6.040782505e-07 -3.518025304e-20 -0.002030924966)
(-5.968796942e-07 -3.899475217e-20 -0.002030921812)
(-5.894942904e-07 -4.264600791e-20 -0.00203091776)
(-5.822650523e-07 -4.638902495e-20 -0.002030912814)
(-5.755235253e-07 -5.022656908e-20 -0.002030906984)
(-5.695863003e-07 -4.841339945e-20 -0.002030900291)
(-5.647567816e-07 -4.707322064e-20 -0.002030892763)
(-5.61316646e-07 -4.58598061e-20 -0.002030884435)
(-5.59536401e-07 -4.473632111e-20 -0.002030875346)
(-5.59658929e-07 -3.880234242e-20 -0.002030865543)
(-5.619057653e-07 -3.298030132e-20 -0.002030855075)
(-5.664848535e-07 -3.160292646e-20 -0.002030843997)
(-5.735617442e-07 -2.996638466e-20 -0.002030832368)
(-5.832379971e-07 -3.226530971e-20 -0.002030820255)
(-5.955344224e-07 -3.42843204e-20 -0.002030807706)
(-6.108415957e-07 -3.591453431e-20 -0.002030794678)
(-6.306801082e-07 -3.729272273e-20 -0.002030781193)
(-6.545232106e-07 -3.835409707e-20 -0.002030768568)
(-6.650697817e-07 -3.914854539e-20 -0.002030758778)
(-6.408700147e-07 -3.97723856e-20 -0.002030753587)
(-5.77026321e-07 -3.675301928e-20 -0.002030754429)
(-4.777048344e-07 -3.341671493e-20 -0.002030760957)
(-3.58992685e-07 -3.1441146e-20 -0.002030770858)
(-2.471416372e-07 -2.934097909e-20 -0.00203078103)
(-1.549168022e-07 -2.70393596e-20 -0.002030789084)
(-8.128171859e-08 -2.612013034e-20 -0.002030794113)
(-2.46446052e-08 -2.49988177e-20 -0.002030796636)
(-3.163982193e-08 1.936187432e-19 -0.002033843396)
(-8.262217797e-08 2.200690371e-19 -0.002033843545)
(-1.29986782e-07 2.439376443e-19 -0.002033843541)
(-1.77337307e-07 1.443664535e-19 -0.002033843493)
(-2.226812004e-07 7.47569839e-20 -0.002033843377)
(-2.653161816e-07 1.984877937e-20 -0.002033843145)
(-3.050072331e-07 -2.758102964e-20 -0.002033842739)
(-3.416296277e-07 -7.117270025e-20 -0.002033842107)
(-3.750983503e-07 -8.816970773e-20 -0.002033841186)
(-4.05375463e-07 -1.074653671e-19 -0.002033839915)
(-4.324959782e-07 -8.94448452e-20 -0.002033838232)
(-4.565387886e-07 -5.899959302e-20 -0.002033836078)
(-4.776214291e-07 -3.383406918e-20 -0.002033833392)
(-4.959055525e-07 2.589600448e-21 -0.002033830121)
(-5.115897864e-07 3.550740066e-20 -0.002033826212)
(-5.248927832e-07 6.61848035e-20 -0.002033821619)
(-5.360453228e-07 7.138140408e-20 -0.002033816302)
(-5.45296889e-07 7.734227364e-20 -0.002033810223)
(-5.529239461e-07 7.393322411e-20 -0.002033803357)
(-5.592259687e-07 7.167499979e-20 -0.002033795684)
(-5.644827849e-07 5.24893674e-20 -0.002033787192)
(-5.689715714e-07 3.477423181e-20 -0.002033777875)
(-5.729913998e-07 1.84476831e-20 -0.002033767738)
(-5.768180907e-07 1.076670781e-20 -0.002033756791)
(-5.8073319e-07 3.449465198e-21 -0.002033745054)
(-5.850022869e-07 3.320222876e-21 -0.002033732554)
(-5.89880845e-07 3.162600174e-21 -0.002033719324)
(-5.956121368e-07 9.658143434e-21 -0.002033705404)
(-6.024249271e-07 1.61377293e-20 -0.002033690839)
(-6.105316403e-07 1.700276271e-20 -0.00203367568)
(-6.201253723e-07 1.829817403e-20 -0.002033659983)
(-6.313876216e-07 2.006463353e-20 -0.002033643806)
(-6.444726124e-07 2.232848586e-20 -0.002033627212)
(-6.595089361e-07 2.504967347e-20 -0.002033610268)
(-6.765451283e-07 2.822069483e-20 -0.002033593053)
(-6.955509548e-07 3.185008535e-20 -0.00203357562)
(-7.169332869e-07 3.593450697e-20 -0.002033557921)
(-7.42318236e-07 3.631183005e-20 -0.002033539964)
(-7.709802224e-07 3.731203398e-20 -0.002033523223)
(-7.838585355e-07 3.508475767e-20 -0.002033509825)
(-7.587737488e-07 3.35745807e-20 -0.002033501595)
(-6.915380447e-07 3.26940171e-20 -0.002033499966)
(-5.868660835e-07 2.864575652e-20 -0.00203350435)
(-4.644094213e-07 2.52329966e-20 -0.002033512252)
(-3.508055395e-07 2.254157164e-20 -0.002033520452)
(-2.557131111e-07 2.060285695e-20 -0.002033526587)
(-1.773528361e-07 1.770239277e-20 -0.002033530067)
(-1.131638185e-07 1.675428323e-20 -0.002033531386)
(-6.095138263e-08 1.628360864e-20 -0.002033531196)
(-1.861852473e-08 1.616059037e-20 -0.00203353055)
(-2.745598932e-08 -2.950643969e-20 -0.002036768464)
(-7.165125891e-08 -1.456248475e-19 -0.002036767922)
(-1.127396725e-07 -7.74775338e-20 -0.002036766589)
(-1.540261221e-07 -4.897518094e-20 -0.002036764584)
(-1.93888348e-07 -3.412447493e-20 -0.002036761923)
(-2.318013217e-07 -2.50245279e-20 -0.002036758593)
(-2.675985112e-07 -1.845211794e-20 -0.002036754582)
(-3.011984455e-07 -1.272768873e-20 -0.002036749867)
(-3.325871197e-07 -6.758243281e-21 -0.002036744429)
(-3.617724229e-07 -3.843512972e-23 -0.002036738242)
(-3.887924411e-07 7.818305823e-21 -0.002036731282)
(-4.137371685e-07 1.655140609e-20 -0.002036723524)
(-4.367285718e-07 2.582629756e-20 -0.002036714945)
(-4.579135349e-07 3.544656874e-20 -0.002036705526)
(-4.774600931e-07 4.50569674e-20 -0.002036695252)
(-4.955548554e-07 5.455051376e-20 -0.002036684113)
(-5.124030606e-07 6.418630048e-20 -0.002036672103)
(-5.282224146e-07 7.34869808e-20 -0.00203665922)
(-5.432294102e-07 8.250036709e-20 -0.002036645468)
(-5.576434195e-07 8.135052305e-20 -0.002036630859)
(-5.716960389e-07 8.063250577e-20 -0.002036615411)
(-5.856096504e-07 7.140583101e-20 -0.002036599147)
(-5.995979859e-07 6.303984586e-20 -0.002036582096)
(-6.138756023e-07 5.539041872e-20 -0.002036564293)
(-6.28643997e-07 4.831241678e-20 -0.002036545778)
(-6.440952979e-07 4.168837369e-20 -0.002036526597)
(-6.604098865e-07 3.531704195e-20 -0.002036506799)
(-6.777495349e-07 2.874316702e-20 -0.00203648644)
(-6.962648764e-07 2.210733935e-20 -0.002036465575)
(-7.160862122e-07 1.526677982e-20 -0.002036444265)
(-7.373329689e-07 8.157255761e-21 -0.002036422573)
(-7.600951572e-07 6.556460175e-22 -0.002036400567)
(-7.843746751e-07 -1.956074069e-21 -0.002036378328)
(-8.101010177e-07 -6.822935661e-23 -0.002036355909)
(-8.376833622e-07 1.001294289e-21 -0.002036333247)
(-8.688711924e-07 1.324922362e-21 -0.002036310336)
(-9.027737131e-07 9.536013333e-22 -0.002036288822)
(-9.186325876e-07 -6.227306914e-23 -0.002036271051)
(-8.93397745e-07 -1.691383581e-21 -0.002036258982)
(-8.234625234e-07 -3.948193377e-21 -0.002036254085)
(-7.139757761e-07 -6.817745335e-21 -0.002036255475)
(-5.867236516e-07 -1.030759001e-20 -0.002036260356)
(-4.689849344e-07 -1.43223926e-20 -0.002036265267)
(-3.691114444e-07 -1.879833525e-20 -0.002036267736)
(-2.851570625e-07 -2.367406339e-20 -0.002036267321)
(-2.146520418e-07 -2.56849001e-20 -0.002036264541)
(-1.554262918e-07 -2.500165002e-20 -0.002036260048)
(-1.046329486e-07 -2.494390327e-20 -0.002036254917)
(-5.952936994e-08 -2.395273015e-20 -0.002036250344)
(-1.828992142e-08 -2.34450451e-20 -0.002036247391)
(-2.558987178e-08 -8.189278178e-20 -0.002039631884)
(-6.688423298e-08 -2.933645752e-19 -0.002039630799)
(-1.055258924e-07 -3.202132283e-19 -0.002039628401)
(-1.446014633e-07 -2.379267072e-19 -0.002039624826)
(-1.826861124e-07 -1.997275247e-19 -0.002039620121)
(-2.193381475e-07 -1.389496795e-19 -0.002039614319)
(-2.544757866e-07 -9.778802318e-20 -0.002039607443)
(-2.880798047e-07 -6.846801086e-20 -0.002039599513)
(-3.201393409e-07 -4.675339265e-20 -0.002039590539)
(-3.506983779e-07 -3.017305904e-20 -0.002039580537)
(-3.798367295e-07 -1.713771098e-20 -0.002039569517)
(-4.076476731e-07 -6.694909774e-21 -0.002039557491)
(-4.342346165e-07 1.790082083e-21 -0.002039544472)
(-4.597210641e-07 8.310370384e-21 -0.002039530475)
(-4.84249608e-07 1.3020821e-20 -0.002039515516)
(-5.079844454e-07 1.622430769e-20 -0.002039499614)
(-5.310996475e-07 3.100472453e-20 -0.002039482792)
(-5.537662606e-07 4.432879011e-20 -0.002039465076)
(-5.761506713e-07 5.652102443e-20 -0.002039446497)
(-5.984224174e-07 6.776041926e-20 -0.002039427091)
(-6.207581491e-07 7.844217116e-20 -0.002039406892)
(-6.43320305e-07 7.939884077e-20 -0.002039385942)
(-6.662688752e-07 8.079553102e-20 -0.002039364285)
(-6.897642903e-07 8.270643058e-20 -0.002039341967)
(-7.139376796e-07 8.506753055e-20 -0.002039319038)