/*--------------------------------*- C++ -*----------------------------------*\
  =========                 |
  \\      /  F ield         | OpenFOAM: The Open Source CFD Toolbox
   \\    /   O peration     | Website:  https://openfoam.org
    \\  /    A nd           | Version:  7
     \\/     M anipulation  |
\*---------------------------------------------------------------------------*/
FoamFile
{
    version     2.0;
    format      ascii;
    class       surfaceScalarField;
    location    "0.003";
    object      phi;
}
// * * * * * * * * * * * * * * * * * * * * * * * * * * * * * * * * * * * * * //

dimensions      [1 0 -1 0 0 0 0];

internalField   nonuniform List<scalar> 
2260
(
-2.920361669e-13
7.499022735e-11
-1.143445878e-12
2.191766109e-10
-2.514184839e-12
3.545265958e-10
-4.360506227e-12
4.809380688e-10
-6.635781679e-12
5.98406371e-10
-9.29168235e-12
7.069950881e-10
-1.227847612e-11
8.068188002e-10
-1.554563786e-11
8.98039727e-10
-1.904229344e-11
9.808598238e-10
-2.271769584e-11
1.055513068e-09
-2.652151549e-11
1.122258838e-09
-3.040414324e-11
1.181376422e-09
-3.431716014e-11
1.23316011e-09
-3.82136452e-11
1.277915017e-09
-4.204834927e-11
1.315953367e-09
-4.577807101e-11
1.347591392e-09
-4.936186345e-11
1.3731469e-09
1.392936875e-09
-2.968352776e-13
7.528706263e-11
-1.16189376e-12
2.200416694e-10
-2.553366584e-12
3.559180685e-10
-4.425075052e-12
4.828097773e-10
-6.727647573e-12
6.007089436e-10
-9.409663561e-12
7.096771041e-10
-1.241841876e-11
8.098275554e-10
-1.570040282e-11
9.013217111e-10
-1.920202755e-11
9.843614486e-10
-2.287009157e-11
1.059181132e-09
-2.665227138e-11
1.126041018e-09
-3.049745352e-11
1.185221605e-09
-3.435634015e-11
1.237018997e-09
-3.818147061e-11
1.281740148e-09
-4.192766387e-11
1.31969956e-09
-4.55524033e-11
1.351216131e-09
-4.901584869e-11
1.376610345e-09
-5.228116879e-11
1.396202195e-09
-5.531473488e-11
1.410309031e-09
-5.808600161e-11
1.419243493e-09
-6.056767666e-11
1.42331215e-09
-6.273574162e-11
1.422813971e-09
-6.456931894e-11
1.418038475e-09
-6.605061303e-11
1.409264256e-09
-6.716467774e-11
1.396757479e-09
-6.789934449e-11
1.3807702e-09
-6.824504092e-11
1.361538501e-09
-6.819450173e-11
1.339280638e-09
-6.774261097e-11
1.31419448e-09
-6.688634199e-11
1.286455302e-09
-6.56245621e-11
1.256212099e-09
-6.395779166e-11
1.223583654e-09
-6.188861098e-11
1.18865395e-09
-5.942171097e-11
1.151465626e-09
-5.656448776e-11
1.112012577e-09
-5.332787514e-11
1.070231334e-09
-4.972790206e-11
1.025991722e-09
-4.578757061e-11
9.790882272e-10
-4.153932694e-11
9.29235213e-10
-3.702818131e-11
8.760681618e-10
-3.231416942e-11
8.191530008e-10
-2.74750061e-11
7.580045479e-10
-2.26075031e-11
6.921109085e-10
-1.782846089e-11
6.209596788e-10
-1.327484079e-11
5.440629891e-10
-9.103177039e-12
4.609752658e-10
-5.488827101e-12
3.713054143e-10
-2.625055209e-12
2.747372951e-10
-7.213879209e-13
1.71075397e-10
6.023364853e-11
-3.047697402e-13
7.559183236e-11
-1.192606693e-12
2.209295063e-10
-2.61941442e-12
3.573448763e-10
-4.536066391e-12
4.847264292e-10
-6.889888822e-12
6.03062766e-10
-9.625759551e-12
7.124129749e-10
-1.268720901e-11
8.12889005e-10
-1.601713416e-11
9.046516366e-10
-1.955851965e-11
9.879028343e-10
-2.325508351e-11
1.062877695e-09
-2.705180974e-11
1.129837744e-09
-3.089557946e-11
1.189065374e-09
-3.47353219e-11
1.240858739e-09
-3.852257587e-11
1.285527402e-09
-4.221182709e-11
1.323388811e-09
-4.576061979e-11
1.354764924e-09
-4.91299331e-11
1.379979659e-09
-5.228409454e-11
1.399356356e-09
-5.519105927e-11
1.413215996e-09
-5.782234148e-11
1.421874775e-09
-6.015313374e-11
1.425642942e-09
-6.216200285e-11
1.42482284e-09
-6.383083821e-11
1.41970731e-09
-6.514475954e-11
1.410578178e-09
-6.609184777e-11
1.397704568e-09
-6.666288435e-11
1.381341237e-09
-6.68512951e-11
1.361726912e-09
-6.665259938e-11
1.339081942e-09
-6.606445481e-11
1.313606335e-09
-6.508633864e-11
1.285477186e-09
-6.371940467e-11
1.254845165e-09
-6.196664489e-11
1.221830894e-09
-5.983259677e-11
1.186519902e-09
-5.732383264e-11
1.148956862e-09
-5.444956795e-11
1.109138312e-09
-5.122240193e-11
1.067004168e-09
-4.765965722e-11
1.022428977e-09
-4.378558505e-11
9.752141546e-10
-3.96333226e-11
9.2508295e-10
-3.524785983e-11
8.71682699e-10
-3.068830496e-11
8.145934458e-10
-2.603014567e-11
7.533463885e-10
-2.136624303e-11
6.874470059e-10
-1.680754352e-11
6.164009791e-10
-1.248274732e-11
5.397381927e-10
-8.537586298e-12
4.570301046e-10
-5.133819509e-12
3.679016473e-10
-2.448149597e-12
2.720516251e-10
-6.703680429e-13
1.692976154e-10
5.956328054e-11
-3.156582475e-13
7.590749061e-11
-1.234882343e-12
2.218487305e-10
-2.710865668e-12
3.588208596e-10
-4.691154933e-12
4.867067185e-10
-7.119096398e-12
6.054907075e-10
-9.935484855e-12
7.152293634e-10
-1.307952099e-11
8.160330412e-10
-1.648983862e-11
9.080619539e-10
-2.010539313e-11
9.915183885e-10
-2.386622817e-11
1.066638531e-09
-2.771407883e-11
1.133685595e-09
-3.159298872e-11
1.192944284e-09
-3.544967648e-11
1.244715427e-09
-3.923422176e-11
1.289311947e-09
-4.289999695e-11
1.327054587e-09
-4.640434892e-11
1.358269276e-09
-4.970832895e-11
1.383283639e-09
-5.277723729e-11
1.402425265e-09
-5.558032094e-11
1.41601908e-09
-5.809088217e-11
1.424385337e-09
-6.02862043e-11
1.427838265e-09
-6.214740596e-11
1.426684042e-09
-6.365920353e-11
1.421219108e-09
-6.480958302e-11
1.411728557e-09
-6.558970743e-11
1.398484692e-09
-6.599347037e-11
1.381744999e-09
-6.601725278e-11
1.361750694e-09
-6.565973652e-11
1.338724427e-09
-6.492161975e-11
1.312868219e-09
-6.380516863e-11
1.284360734e-09
-6.231423574e-11
1.253354232e-09
-6.045421219e-11
1.219970871e-09
-5.823219803e-11
1.184297887e-09
-5.565696702e-11
1.146381631e-09
-5.273961476e-11
1.106220959e-09
-4.949467903e-11
1.063759232e-09
-4.594110657e-11
1.018875405e-09
-4.210426448e-11
9.713773128e-10
-3.801818317e-11
9.20996869e-10
-3.37278223e-11
8.673923382e-10
-2.929149521e-11
8.101571187e-10
-2.478243329e-11
7.488373265e-10
-2.028983478e-11
6.829544072e-10
-1.59191833e-11
6.120303275e-10
-1.179162709e-11
5.356106365e-10
-8.04304037e-12
4.532815179e-10
-4.822924092e-12
3.64681531e-10
-2.293057228e-12
2.695217583e-10
-6.256278192e-13
1.676301862e-10
5.893765295e-11
-3.292132966e-13
7.62367039e-11
-1.287620357e-12
2.228071375e-10
-2.825401245e-12
3.603586405e-10
-4.886367713e-12
4.887676849e-10
-7.409555331e-12
6.08013895e-10
-1.033118519e-11
7.181509933e-10
-1.358577028e-11
8.192876263e-10
-1.710723809e-11
9.115834217e-10
-2.083001109e-11
9.952411615e-10
-2.468984855e-11
1.070498368e-09
-2.862468511e-11
1.137620432e-09
-3.25752143e-11
1.196894814e-09
-3.648553737e-11
1.24862575e-09
-4.030340557e-11
1.293129815e-09
-4.398084362e-11
1.330732025e-09
-4.747407531e-11
1.361762508e-09
-5.0744144e-11
1.386553707e-09
-5.375657314e-11
1.405437694e-09
-5.648154459e-11
1.418744052e-09
-5.889388146e-11
1.426797674e-09
-6.097275461e-11
1.429917138e-09
-6.270152822e-11
1.428412815e-09
-6.406747291e-11
1.422585053e-09
-6.50614928e-11
1.412722577e-09
-6.56777842e-11
1.399100983e-09
-6.591342599e-11
1.381980641e-09
-6.576803336e-11
1.361605302e-09
-6.524344968e-11
1.338199843e-09
-6.434342896e-11
1.311968198e-09
-6.307338818e-11
1.283090694e-09
-6.144033025e-11
1.251721174e-09
-5.94523548e-11
1.217982895e-09
-5.711911093e-11
1.181964644e-09
-5.445201879e-11
1.143714538e-09
-5.146451112e-11
1.103233452e-09
-4.817304786e-11
1.060467769e-09
-4.459852795e-11
1.015300885e-09
-4.076758919e-11
9.675463736e-10
-3.671528272e-11
9.169445622e-10
-3.248664913e-11
8.631637043e-10
-2.813927708e-11
8.058097466e-10
-2.374447027e-11
7.444425196e-10
-1.938806538e-11
6.785980021e-10
-1.517060035e-11
6.078128623e-10
-1.120636502e-11
5.31646401e-10
-7.622498473e-12
4.496976513e-10
-4.557608878e-12
3.616166414e-10
-2.160314529e-12
2.67124464e-10
-5.872319879e-13
1.660571038e-10
5.835042131e-11
-3.450239698e-13
7.658172793e-11
-1.349233358e-12
2.238113469e-10
-2.959557238e-12
3.619689645e-10
-5.115801332e-12
4.909239292e-10
-7.752633951e-12
6.106507278e-10
-1.080134745e-11
7.211997068e-10
-1.419148224e-11
8.22677761e-10
-1.785199127e-11
9.152439307e-10
-2.171241404e-11
9.991015842e-10
-2.570387008e-11
1.074489824e-09
-2.976007473e-11
1.141676637e-09
-3.381790184e-11
1.20095264e-09
-3.781810885e-11
1.252625957e-09
-4.170579781e-11
1.297017504e-09
-4.543088276e-11
1.33445711e-09
-4.89482543e-11
1.365279879e-09
-5.221799637e-11
1.38982345e-09
-5.520566439e-11
1.408425362e-09
-5.788178868e-11
1.421420175e-09
-6.022215216e-11
1.429138037e-09
-6.220748326e-11
1.431902469e-09
-6.382317494e-11
1.430028507e-09
-6.505878774e-11
1.423820665e-09
-6.590796089e-11
1.41357175e-09
-6.636772416e-11
1.399560747e-09
-6.643828029e-11
1.382051197e-09
-6.61225483e-11
1.36128957e-09
-6.542566348e-11
1.337502958e-09
-6.435470862e-11
1.310897243e-09
-6.29183827e-11
1.281654368e-09
-6.112670419e-11
1.249929495e-09
-5.899115674e-11
1.215847348e-09
-5.652423778e-11
1.179497725e-09
-5.37400116e-11
1.140930312e-09
-5.065471485e-11
1.100148155e-09
-4.728705841e-11
1.057100112e-09
-4.36599215e-11
1.011673748e-09
-3.980171599e-11
9.636881684e-10
-3.574840921e-11
9.128912553e-10
-3.154555062e-11
8.589608456e-10
-2.725012583e-11
8.015143217e-10
-2.293178176e-11
7.401241755e-10
-1.86735587e-11
6.743397792e-10
-1.457155824e-11
6.037108618e-10
-1.073417104e-11
5.278090138e-10
-7.28089057e-12
4.462443709e-10
-4.340898833e-12
3.586766498e-10
-2.051397787e-12
2.648349631e-10
-5.556270674e-13
1.645613333e-10
5.779479459e-11
-3.624840549e-13
7.694421197e-11
-1.41735095e-12
2.248662139e-10
-3.108169239e-12
3.636597828e-10
-5.370791372e-12
4.931865512e-10
-8.135400688e-12
6.134153369e-10
-1.132851204e-11
7.243928181e-10
-1.487458817e-11
8.262238371e-10
-1.869748444e-11
9.190668269e-10
-2.272173569e-11
1.003125835e-09
-2.687367106e-11
1.078641759e-09
-3.108236714e-11
1.145885332e-09
-3.528053452e-11
1.205150808e-09
-3.940521506e-11
1.256750637e-09
-4.339839802e-11
1.301010687e-09
-4.720727772e-11
1.338265989e-09
-5.078484043e-11
1.368857442e-09
-5.408985174e-11
1.393128461e-09
-5.708689661e-11
1.411422406e-09
-5.974655449e-11
1.424079833e-09
-6.204510166e-11
1.431436584e-09
-6.396426278e-11
1.43382163e-09
-6.549083689e-11
1.431555081e-09
-6.661645605e-11
1.424946285e-09
-6.733711247e-11
1.414292407e-09
-6.765259112e-11
1.399876226e-09
-6.756603477e-11
1.381964641e-09
-6.708348191e-11
1.360807017e-09
-6.621335702e-11
1.336632833e-09
-6.496616969e-11
1.309650056e-09
-6.335406762e-11
1.280042266e-09
-6.139041717e-11
1.247965845e-09
-5.908986959e-11
1.2135468e-09
-5.64683681e-11
1.176876223e-09
-5.354297657e-11
1.138004921e-09
-5.033265142e-11
1.09693783e-09
-4.685895556e-11
1.053626416e-09
-4.314690875e-11
1.007961701e-09
-3.922695523e-11
9.597682147e-10
-3.513629413e-11
9.088005945e-10
-3.092122811e-11
8.547457798e-10
-2.6638484e-11
7.972315777e-10
-2.235648584e-11
7.358421774e-10
-1.815594993e-11
6.701392433e-10
-1.412934596e-11
5.996842581e-10
-1.038014426e-11
5.240598123e-10
-7.021428344e-12
4.428856551e-10
-4.174473312e-12
3.558296949e-10
-1.966950908e-12
2.62627441e-10
-5.309031184e-13
1.631252856e-10
5.72638915e-11
-3.807458037e-13
7.732495778e-11
-1.488698356e-12
2.259741664e-10
-3.264198422e-12
3.654352829e-10
-5.639405594e-12
4.955617585e-10
-8.540184075e-12
6.163161156e-10
-1.18885792e-11
7.277412133e-10
-1.560430508e-11
8.299395631e-10
-1.960633672e-11
9.230688588e-10
-2.381426678e-11
1.007333766e-09
-2.814959722e-11
1.08297709e-09
-3.253678727e-11
1.150272523e-09
-3.69041968e-11
1.209518217e-09
-4.11848772e-11
1.261031318e-09
-4.531709884e-11
1.305142909e-09
-4.924511191e-11
1.342194002e-09
-5.291921471e-11
1.372531545e-09
-5.629622614e-11
1.396505472e-09
-5.933939129e-11
1.414465571e-09
-6.201842748e-11
1.426758869e-09
-6.430940268e-11
1.433727559e-09
-6.619450506e-11
1.435706733e-09
-6.766150661e-11
1.433022083e-09
-6.87034799e-11
1.425988258e-09
-6.931826949e-11
1.414907196e-09
-6.950790032e-11
1.400065857e-09
-6.927835528e-11
1.381735096e-09
-6.863858395e-11
1.360167246e-09
-6.760021774e-11
1.335594467e-09
-6.617701273e-11
1.30822685e-09
-6.438450355e-11
1.278249756e-09
-6.223973979e-11
1.245821081e-09
-5.976075488e-11
1.211067815e-09
-5.696678024e-11
1.174082248e-09
-5.387840457e-11
1.134916545e-09
-5.051763116e-11
1.093577057e-09
-4.690896437e-11
1.050017749e-09
-4.30800683e-11
1.004132804e-09
-3.906350468e-11
9.557516509e-10
-3.48982472e-11
9.046353369e-10
-3.063155795e-11
8.504790905e-10
-2.63203347e-11
7.929203544e-10
-2.203242181e-11
7.315542646e-10
-1.784678051e-11
6.659536023e-10
-1.385314748e-11
5.956906254e-10
-1.015110742e-11
5.203577726e-10
-6.848780746e-12
4.395833288e-10
-4.061157642e-12
3.530420721e-10
-1.908366305e-12
2.604746497e-10
-5.134741351e-13
1.617303933e-10
5.675041697e-11
-3.986706004e-13
7.772362836e-11
-1.558848219e-12
2.27134344e-10
-3.418045642e-12
3.672944802e-10
-5.905151274e-12
4.980488641e-10
-8.942537894e-12
6.193535023e-10
-1.244824892e-11
7.312469243e-10
-1.633794059e-11
8.338292548e-10
-2.052628986e-11
9.27257208e-10
-2.492846496e-11
1.011735941e-09
-2.946148381e-11
1.087510109e-09
-3.404543625e-11
1.154856475e-09
-3.860431809e-11
1.2140771e-09
-4.306695855e-11
1.265493958e-09
-4.736787164e-11
1.309443822e-09
-5.144767899e-11
1.34627381e-09
-5.525366535e-11
1.376337531e-09
-5.873995179e-11
1.399991759e-09
-6.186770941e-11
1.417593329e-09
-6.4605156e-11
1.429496316e-09
-6.692738125e-11
1.436049785e-09
-6.881610792e-11
1.437595459e-09
-7.025928952e-11
1.434465264e-09
-7.125084388e-11
1.426979812e-09
-7.178986462e-11
1.415446216e-09
-7.18802066e-11
1.400156198e-09
-7.152987847e-11
1.381384768e-09
-7.075037859e-11
1.359387745e-09
-6.955636277e-11
1.334400451e-09
-6.796474856e-11
1.306635236e-09
-6.599436865e-11
1.276279377e-09
-6.366565673e-11
1.243492369e-09
-6.100040286e-11
1.208402561e-09
-5.802127285e-11
1.171103118e-09
-5.475233241e-11
1.131647605e-09
-5.121909655e-11
1.090043821e-09
-4.744911191e-11
1.046247765e-09
-4.347316052e-11
1.000156854e-09
-3.932621768e-11
9.516047086e-10
-3.504939332e-11
9.003585127e-10
-3.069127263e-11
8.461209703e-10
-2.6309571e-11
7.885386535e-10
-2.19720649e-11
7.272167592e-10
-1.775678141e-11
6.617383194e-10
-1.375170367e-11
5.916855483e-10
-1.005378401e-11
5.166598534e-10
-6.767636912e-12
4.36297182e-10
-4.003791111e-12
3.502782266e-10
-1.876913807e-12
2.583477724e-10
-5.036277089e-13
1.603571069e-10
5.624678837e-11
-4.147331642e-13
7.81383616e-11
-1.621861924e-12
2.283414728e-10
-3.556708744e-12
3.692293271e-10
-6.145844184e-12
5.006379995e-10
-9.309220674e-12
6.225168786e-10
-1.296215249e-11
7.34899856e-10
-1.701724172e-11
8.378843439e-10
-2.138592094e-11
9.316258871e-10
-2.597991814e-11
1.016329938e-09
-3.071260135e-11
1.092242792e-09
-3.550006203e-11
1.159643936e-09
-4.026236595e-11
1.218839404e-09
-4.492443955e-11
1.270156032e-09
-4.941680321e-11
1.313936185e-09
-5.367625574e-11
1.350533262e-09
-5.764646364e-11
1.380307739e-09
-6.127843673e-11
1.403623732e-09
-6.453036103e-11
1.420845254e-09
-6.736801942e-11
1.432333974e-09
-6.976467159e-11
1.438446437e-09
-7.170070383e-11
1.439531491e-09
-7.316330276e-11
1.435927863e-09
-7.41461411e-11
1.427962651e-09
-7.464869466e-11
1.41594877e-09
-7.467590452e-11
1.400183408e-09
-7.423718724e-11
1.380946051e-09
-7.334605558e-11
1.358496614e-09
-7.201942556e-11
1.333073821e-09
-7.027704057e-11
1.304892851e-09
-6.814093123e-11
1.274143267e-09
-6.563472389e-11
1.240986162e-09
-6.278365645e-11
1.205551494e-09
-5.961421659e-11
1.167933679e-09
-5.615387619e-11
1.128187265e-09
-5.243188408e-11
1.086321829e-09
-4.847917559e-11
1.042295056e-09
-4.432975773e-11
9.960074358e-10
-4.00215202e-11
9.47296471e-10
-3.559805716e-11
8.959350501e-10
-3.110989219e-11
8.416328058e-10
-2.661604382e-11
7.840448052e-10
-2.218494588e-11
7.227856613e-10
-1.789462008e-11
6.574479938e-10
-1.383240577e-11
5.876233342e-10
-1.009407409e-11
5.129215221e-10
-6.782324756e-12
4.329854329e-10
-4.00519312e-12
3.475010948e-10
-1.874200901e-12
2.562167797e-10
-5.019744031e-13
1.589848797e-10
5.574481287e-11
-4.268925017e-13
7.856525409e-11
-1.669780404e-12
2.295843607e-10
-3.662887397e-12
3.71222434e-10
-6.332013766e-12
5.033071259e-10
-9.59611787e-12
6.257809828e-10
-1.336962441e-11
7.386733626e-10
-1.756389792e-11
8.420786174e-10
-2.208879452e-11
9.361507838e-10
-2.685407342e-11
1.021095217e-09
-3.177072687e-11
1.097159445e-09
-3.675206678e-11
1.164625275e-09
-4.171507012e-11
1.223802406e-09
-4.658112782e-11
1.27502209e-09
-5.127699663e-11
1.318632054e-09
-5.573567379e-11
1.354991939e-09
-5.989694684e-11
1.384469012e-09
-6.370778144e-11
1.407434566e-09
-6.71228953e-11
1.424260367e-09
-7.010469081e-11
1.43531577e-09
-7.262341238e-11
1.440965158e-09
-7.465684224e-11
1.441564921e-09
-7.619034126e-11
1.437461362e-09
-7.721617546e-11
1.428988485e-09
-7.773307092e-11
1.416465666e-09
-7.774569763e-11
1.400196035e-09
-7.726401063e-11
1.380464364e-09
-7.63026946e-11
1.357535298e-09
-7.488024964e-11
1.331651376e-09
-7.301849234e-11
1.303031094e-09
-7.074196652e-11
1.271866741e-09
-6.807746725e-11
1.238321663e-09
-6.505331355e-11
1.20252734e-09
-6.169947624e-11
1.164579842e-09
-5.804724189e-11
1.12453503e-09
-5.412929782e-11
1.082403885e-09
-4.998044291e-11
1.038146202e-09
-4.563802194e-11
9.916650149e-10
-4.114332466e-11
9.42801774e-10
-3.654272995e-11
8.913344556e-10
-3.188924061e-11
8.369793165e-10
-2.724394922e-11
7.793995141e-10
-2.267669485e-11
7.182184071e-10
-1.826649165e-11
6.530377903e-10
-1.410130589e-11
5.834581481e-10
-1.027716145e-11
5.090973772e-10
-6.896744024e-12
4.29605015e-10
-4.067727973e-12
3.446720782e-10
-1.901033082e-12
2.540500842e-10
-5.084127893e-13
1.575922588e-10
5.523639938e-11
-4.32478459e-13
7.899773255e-11
-1.692204068e-12
2.308440863e-10
-3.713950277e-12
3.732441803e-10
-6.424703612e-12
5.060178792e-10
-9.74492717e-12
6.291012062e-10
-1.359045547e-11
7.425188908e-10
-1.78740027e-11
8.463621646e-10
-2.25063166e-11
9.407830977e-10
-2.739750666e-11
1.025986407e-09
-3.245823541e-11
1.102220174e-09
-3.760090405e-11
1.169767944e-09
-4.274061951e-11
1.228942122e-09
-4.779623498e-11
1.280077705e-09
-5.269159284e-11
1.323527412e-09
-5.735596598e-11
1.359656313e-09
-6.172517244e-11
1.388838219e-09
-6.574186537e-11
1.411451259e-09
-6.935627036e-11
1.427874772e-09
-7.252642663e-11
1.438485926e-09
-7.521842499e-11
1.443657157e-09
-7.740616191e-11
1.443752658e-09
-7.907149613e-11
1.439126696e-09
-8.020367053e-11
1.430120659e-09
-8.079928945e-11
1.417061285e-09
-8.086139163e-11
1.400258137e-09
-8.039902265e-11
1.380001995e-09
-7.942655205e-11
1.356562827e-09
-7.796303284e-11
1.330187856e-09
-7.60314944e-11
1.301099556e-09
-7.365818711e-11
1.269493434e-09
-7.087210283e-11
1.235535579e-09
-6.77045366e-11
1.199359774e-09
-6.418838599e-11
1.161063691e-09
-6.035854946e-11
1.120705194e-09
-5.625127393e-11
1.07829661e-09
-5.190510998e-11
1.033800038e-09
-4.7361063e-11
9.871209687e-10
-4.266405988e-11
9.381047715e-10
-3.786377983e-11
8.865341757e-10
-3.301631083e-11
8.32131847e-10
-2.818537832e-11
7.745685812e-10
-2.344321531e-11
7.134762438e-10
-1.887100795e-11
6.484655825e-10
-1.455879083e-11
5.791459302e-10
-1.060454389e-11
5.051431293e-10
-7.112901029e-12
4.261133711e-10
-4.193630354e-12
3.417528068e-10
-1.959675554e-12
2.518161291e-10
-5.244356243e-13
1.561570189e-10
5.471196416e-11
-4.280514105e-13
7.942578394e-11
-1.675720133e-12
2.32091755e-10
-3.680536188e-12
3.752489963e-10
-6.373414094e-12
5.087107572e-10
-9.679594056e-12
6.324073864e-10
-1.351977287e-11
7.463590699e-10
-1.781135693e-11
8.506537488e-10
-2.246943199e-11
9.454411728e-10
-2.740773323e-11
1.030924708e-09
-3.253958531e-11
1.107352026e-09
-3.777894697e-11
1.175007306e-09
-4.30413237e-11
1.234204499e-09
-4.824505874e-11
1.28528144e-09
-5.331193033e-11
1.328594284e-09
-5.816850512e-11
1.364512887e-09
-6.274665605e-11
1.393416369e-09
-6.698462901e-11
1.415689232e-09
-7.082753999e-11
1.431717683e-09
-7.422801179e-11
1.441886398e-09
-7.714645812e-11
1.446575603e-09
-7.955139233e-11
1.446157592e-09
-8.141937917e-11
1.440994683e-09
-8.273495268e-11
1.431436233e-09
-8.34902743e-11
1.417816606e-09
-8.368484988e-11
1.400452713e-09
-8.332507789e-11
1.379642223e-09
-8.242325768e-11
1.355661007e-09
-8.099730179e-11
1.328761901e-09
-7.906997024e-11
1.299172224e-09
-7.666798818e-11
1.267091453e-09
-7.3821615e-11
1.232689206e-09
-7.056399417e-11
1.196102154e-09
-6.693068945e-11
1.157430387e-09
-6.295935388e-11
1.116733859e-09
-5.868985803e-11
1.074027114e-09
-5.416416296e-11
1.029274343e-09
-4.942720678e-11
9.823840119e-10
-4.452758901e-11
9.332051529e-10
-3.951867592e-11
8.81525262e-10
-3.446024079e-11
8.270734116e-10
-2.941932281e-11
7.695276622e-10
-2.447146115e-11
7.085283809e-10
-1.97012121e-11
6.436953322e-10
-1.5202036e-11
5.746467527e-10
-1.107563265e-11
5.010167247e-10
-7.430815448e-12
4.224685529e-10
-4.382068233e-12
3.387040589e-10
-2.047741367e-12
2.494818022e-10
-5.476841001e-13
1.546569624e-10
5.416428197e-11
-4.092295909e-13
7.983501361e-11
-1.60318862e-12
2.332857141e-10
-3.525117311e-12
3.771709251e-10
-6.113658156e-12
5.11299298e-10
-9.302793878e-12
6.35596522e-10
-1.302264835e-11
7.500789244e-10
-1.71999679e-11
8.548310685e-10
-2.175872293e-11
9.499999279e-10
-2.662063409e-11
1.035786619e-09
-3.170580693e-11
1.112437199e-09
-3.693352385e-11
1.180235023e-09
-4.222316202e-11
1.239494137e-09
-4.749486465e-11
1.290553143e-09
-5.267079881e-11
1.333770218e-09
-5.767592584e-11
1.369518014e-09
-6.243935949e-11
1.398179803e-09
-6.689489949e-11
1.420144773e-09
-7.098216952e-11
1.435804954e-09
-7.464753078e-11
1.445551759e-09
-7.78443322e-11
1.449772404e-09
-8.053378058e-11
1.448847041e-09
-8.26850311e-11
1.443145934e-09
-8.427559419e-11
1.433026796e-09
-8.529081404e-11
1.418831826e-09
-8.572418048e-11
1.400886079e-09
-8.557654084e-11
1.379494583e-09
-8.485605459e-11
1.354940521e-09
-8.357720389e-11
1.327483051e-09
-8.176019337e-11
1.297355214e-09
-7.94305333e-11
1.264761793e-09
-7.661810248e-11
1.229876775e-09
-7.335645024e-11
1.192840501e-09
-6.968267653e-11
1.153756613e-09
-6.563652113e-11
1.112687703e-09
-6.126058531e-11
1.069651178e-09
-5.66000788e-11
1.024613836e-09
-5.170363193e-11
9.774875645e-10
-4.662359175e-11
9.28125112e-10
-4.141741868e-11
8.763190879e-10
-3.614887959e-11
8.218048713e-10
-3.08892252e-11
7.642680068e-10
-2.571830976e-11
7.033574645e-10
-2.072538286e-11
6.387024043e-10
-1.600908709e-11
5.699304558e-10
-1.167697268e-11
4.966846092e-10
-7.844549002e-12
4.186361287e-10
-4.633805967e-12
3.354933158e-10
-2.171117078e-12
2.470191139e-10
-5.837963378e-13
1.530696432e-10
5.358048871e-11
-3.70518651e-13
8.020553225e-11
-1.453144929e-12
2.343683404e-10
-3.200710118e-12
3.789184902e-10
-5.56424904e-12
5.136628369e-10
-8.491825334e-12
6.385240983e-10
-1.192853182e-11
7.535156308e-10
-1.581640624e-11
8.587189428e-10
-2.009423352e-11
9.542777551e-10
-2.46975332e-11
1.040389919e-09
-2.955876343e-11
1.117298429e-09
-3.460772831e-11
1.185283988e-09
-3.977198065e-11
1.244658389e-09
-4.497769761e-11
1.295758859e-09
-5.015052888e-11
1.338943049e-09
-5.521666295e-11
1.374584149e-09
-6.010372682e-11
1.403066867e-09
-6.474226276e-11
1.424783308e-09
-6.90665138e-11
1.440129205e-09
-7.301571443e-11
1.44950096e-09
-7.653508116e-11
1.453291771e-09
-7.957659543e-11
1.451888555e-09
-8.209968298e-11
1.445669021e-09
-8.407169945e-11
1.434998812e-09
-8.5468429e-11
1.420228556e-09
-8.627399025e-11
1.401691641e-09
-8.648068493e-11
1.379701278e-09
-8.60889227e-11
1.354548759e-09
-8.510667527e-11
1.326500803e-09
-8.354898006e-11
1.295797519e-09
-8.14371548e-11
1.262649967e-09
-7.879834666e-11
1.227237967e-09
-7.566470814e-11
1.189706863e-09
-7.207273638e-11
1.150164641e-09
-6.806304724e-11
1.108678014e-09
-6.367975908e-11
1.065267889e-09
-5.8970605e-11
1.019904681e-09
-5.398714962e-11
9.725041081e-10
-4.878533145e-11
9.229232928e-10
-4.342662913e-11
8.709603845e-10
-3.797899427e-11
8.163572353e-10
-3.251824879e-11
7.5880726e-10
-2.712935698e-11
6.979685717e-10
-2.190723625e-11
6.33480283e-10
-1.695699564e-11
5.64980215e-10
-1.239386214e-11
4.92121476e-10
-8.34239158e-12
4.145846587e-10
-4.935529475e-12
3.320864547e-10
-2.313134707e-12
2.443967207e-10
-6.201752088e-13
1.513766857e-10
5.296031652e-11
-3.052400193e-13
8.051077228e-11
-1.199447601e-12
2.35262548e-10
-2.649880723e-12
3.803689234e-10
-4.625626856e-12
5.156385832e-10
-7.095462694e-12
6.409939343e-10
-1.002642811e-11
7.564465962e-10
-1.338306077e-11
8.620755755e-10
-1.712639423e-11
9.580210886e-10
-2.121315962e-11
1.044476684e-09
-2.55953149e-11
1.121680585e-09
-3.021984749e-11
1.18990852e-09
-3.502888423e-11
1.249467426e-09
-3.99603572e-11
1.300690333e-09
-4.494814246e-11
1.343930834e-09
-4.992358229e-11
1.379559589e-09
-5.481609847e-11
1.407959384e-09
-5.955465091e-11
1.429521861e-09
-6.406935853e-11
1.444643912e-09
-6.829246761e-11
1.453724069e-09
-7.215992952e-11
1.457159233e-09
-7.561268824e-11
1.455341314e-09
-7.859807024e-11
1.448654403e-09
-8.1070296e-11
1.437471038e-09
-8.299166377e-11
1.422149924e-09
-8.433286642e-11
1.403032843e-09
-8.507356625e-11
1.380441978e-09
-8.520219133e-11
1.354677384e-09
-8.471588501e-11
1.326014496e-09
-8.362027547e-11
1.294701909e-09
-8.192883683e-11
1.260958528e-09
-7.966229133e-11
1.224971421e-09
-7.684825138e-11
1.186892822e-09
-7.352004874e-11
1.146836437e-09
-6.971667408e-11
1.104874638e-09
-6.548189298e-11
1.061033107e-09
-6.086454902e-11
1.015287336e-09
-5.591810537e-11
9.675576637e-10
-5.070152483e-11
9.177067117e-10
-4.527997759e-11
8.655388368e-10
-3.972572828e-11
8.10802986e-10
-3.411989789e-11
7.532014302e-10
-2.855349463e-11
6.92402169e-10
-2.312857394e-11
6.280553631e-10
-1.795883477e-11
5.59810477e-10
-1.316972211e-11
4.873323648e-10
-8.897865512e-12
4.103128036e-10
-5.289706803e-12
3.284782974e-10
-2.498858366e-12
2.416058737e-10
-6.80962094e-13
1.495587906e-10
5.227935551e-11
-2.055061706e-13
8.071627846e-11
-8.111522524e-13
2.358681941e-10
-1.804410614e-12
3.813621817e-10
-3.179379905e-12
5.170135523e-10
-4.933068134e-12
6.427476224e-10
-7.062837468e-12
7.585763656e-10
-9.564431334e-12
8.645771693e-10
-1.243004657e-11
9.608867038e-10
-1.564661671e-11
1.047693254e-09
-1.919455304e-11
1.125228521e-09
-2.304681389e-11
1.193760781e-09
-2.716855329e-11
1.253589166e-09
-3.151666901e-11
1.305038449e-09
-3.604061757e-11
1.348454783e-09
-4.068254012e-11
1.384201511e-09
-4.537873035e-11
1.412655574e-09
-5.006057861e-11
1.43420371e-09
-5.46562666e-11
1.449239601e-09
-5.909248874e-11
1.458160291e-09
-6.329611649e-11
1.461362861e-09
-6.719600179e-11
1.459241199e-09
-7.072471108e-11
1.452183113e-09
-7.382029771e-11
1.440566625e-09
-7.642763089e-11
1.424757257e-09
-7.849934131e-11
1.405104553e-09
-7.999699192e-11
1.381939628e-09
-8.089164816e-11
1.35557204e-09
-8.116420831e-11
1.326287056e-09
-8.080518672e-11
1.294342887e-09
-7.981497703e-11
1.259968318e-09
-7.820306016e-11
1.223359503e-09
-7.598749872e-11
1.18467726e-09
-7.319460134e-11
1.144043539e-09
-6.985790667e-11
1.101537943e-09
-6.601797438e-11
1.057193174e-09
-6.172171151e-11
1.010991073e-09
-5.702243925e-11
9.628583915e-10
-5.198034611e-11
9.126646189e-10
-4.666262224e-11
8.602211135e-10
-4.114498409e-11
8.052853488e-10
-3.551281111e-11
7.475692586e-10
-2.986264466e-11
6.867520045e-10
-2.430342662e-11
6.224961476e-10
-1.895760338e-11
5.544646565e-10
-1.396172926e-11
4.823364933e-10
-9.466708512e-12
4.058177853e-10
-5.637801959e-12
3.246493928e-10
-2.654696771e-12
2.386227692e-10
-7.121548215e-13
1.47616248e-10
5.15671983e-11
-6.235946908e-14
8.077863795e-11
-2.530758766e-13
2.360589105e-10
-5.866592433e-13
3.816957652e-10
-1.090095276e-12
5.175169885e-10
-1.79722684e-12
6.434547541e-10
-2.745015771e-12
7.595241544e-10
-3.970341378e-12
8.658024949e-10
-5.506895669e-12
9.62423258e-10
-7.382426331e-12
1.049568785e-09
-9.616580799e-12
1.127462676e-09
-1.221902984e-11
1.19636323e-09
-1.518812201e-11
1.256558258e-09
-1.851020784e-11
1.308360534e-09
-2.215935939e-11
1.352103934e-09
-2.609747582e-11
1.388139627e-09
-3.027497062e-11
1.416833069e-09
-3.463209385e-11
1.438560832e-09
-3.910017581e-11
1.453707682e-09
-4.360361105e-11
1.462663727e-09
-4.80619745e-11
1.465821225e-09
-5.239240963e-11
1.463571634e-09
-5.651160921e-11
1.456302312e-09
-6.033838022e-11
1.444393396e-09
-6.379586139e-11
1.428214738e-09
-6.681367289e-11
1.408122365e-09
-6.932904938e-11
1.384455004e-09
-7.128873396e-11
1.357531724e-09
-7.264990558e-11
1.327648227e-09
-7.338078488e-11
1.295073766e-09
-7.346090028e-11
1.260048433e-09
-7.288131549e-11
1.222779918e-09
-7.164401896e-11
1.183439963e-09
-6.976183195e-11
1.142161352e-09
-6.725748014e-11
1.099033591e-09
-6.416334778e-11
1.054099042e-09
-6.052062507e-11
1.007348351e-09
-5.637940269e-11
9.5871717e-10
-5.179844233e-11
9.080836598e-10
-4.684569368e-11
8.552683666e-10
-4.159934953e-11
8.000390068e-10
-3.614907405e-11
7.421189858e-10
-3.059763453e-11
6.81200568e-10
-2.506244573e-11
6.16960962e-10
-1.967714959e-11
5.490793637e-10
-1.459246736e-11
4.772518141e-10
-9.976034924e-12
4.012013552e-10
-6.010922504e-12
3.206842815e-10
-2.891165051e-12
2.35503011e-10
-8.119698327e-13
1.4553705e-10
5.075522232e-11
1.337202068e-13
8.064491774e-11
5.122600157e-13
2.356803707e-10
1.086415051e-12
3.811216102e-10
1.788003912e-12
5.168153996e-10
2.536935963e-12
6.42705822e-10
3.246772233e-12
7.588143182e-10
3.828957161e-12
8.652203099e-10
4.197090236e-12
9.62055125e-10
4.270827804e-12
1.049495048e-09
3.979199897e-12
1.127754303e-09
3.26345878e-12
1.197078971e-09
2.079255957e-12
1.257742461e-09
3.982058441e-13
1.310041585e-09
-1.790615166e-12
1.354292756e-09
-4.480717436e-12
1.39082973e-09
-7.647727665e-12
1.420000079e-09
-1.125032277e-11
1.442163427e-09
-1.523173231e-11
1.457689092e-09
-1.952107139e-11
1.466953066e-09
-2.403568848e-11
1.470335842e-09
-2.868391624e-11
1.468219862e-09
-3.336789867e-11
1.460986294e-09
-3.798647066e-11
1.449011967e-09
-4.243819497e-11
1.432666462e-09
-4.662444622e-11
1.412308616e-09
-5.045226737e-11
1.388282825e-09
-5.383642046e-11
1.360915877e-09
-5.670163621e-11
1.330513443e-09
-5.898444546e-11
1.297356575e-09
-6.063387663e-11
1.261697864e-09
-6.161253894e-11
1.22375858e-09
-6.189679054e-11
1.183724215e-09
-6.147656136e-11
1.141741123e-09
-6.035508849e-11
1.097912119e-09
-5.854827811e-11
1.052292233e-09