/*--------------------------------*- C++ -*----------------------------------*\
  =========                 |
  \\      /  F ield         | OpenFOAM: The Open Source CFD Toolbox
   \\    /   O peration     | Website:  https://openfoam.org
    \\  /    A nd           | Version:  7
     \\/     M anipulation  |
\*---------------------------------------------------------------------------*/
FoamFile
{
    version     2.0;
    format      ascii;
    class       volScalarField;
    location    "0.003";
    object      thermo:mu;
}
// * * * * * * * * * * * * * * * * * * * * * * * * * * * * * * * * * * * * * //

dimensions      [1 -1 -1 0 0 0 0];

internalField   nonuniform List<scalar> 
1167
(
169318.971
167418.5233
163417.9761
157683.2251
150526.8506
142260.0995
133197.9341
123642.7814
113865.7613
104107.6698
94570.6133
85416.38381
76763.74807
68694.48847
61259.68311
54476.57397
48344.63118
42841.40466
165211.565
163334.8771
159385.942
153733.9024
146680.9007
138547.146
129641.0625
120261.4459
110679.4338
101131.6762
91815.22863
82885.13985
74457.02515
66610.36952
59388.40292
52809.01438
46866.06882
41538.85727
36792.65942
32585.95514
28873.24169
25607.6781
22742.5493
20233.19813
18038.11481
16119.06015
14441.45299
12974.47784
11690.62389
10565.83696
9579.044526
8711.894239
7948.558282
7275.216817
6679.966012
6152.626975
5684.393135
5267.578884
4895.706535
4563.091525
4264.878981
3996.838137
3755.366015
3537.252341
3339.814816
3160.643437
2997.64348
2849.019077
2713.181924
2588.731048
161175.9778
159323.9193
155432.7027
149861.2623
142917.3379
134916.2284
126168.9223
116968.5291
107582.9318
98244.87752
89146.48184
80438.52127
72234.00543
64604.2363
57591.41349
51209.54586
45451.55383
40293.57649
35702.15473
31635.01994
28046.767
24891.39553
22123.39772
19699.30244
17578.53897
15723.99375
14102.2359
12683.41722
11441.0778
10352.14139
9396.205818
8555.586653
7814.989611
7161.24832
6582.906961
6070.104584
5614.396955
5208.430581
4845.882647
4521.383951
4230.170779
3968.237022
3732.048089
3518.544252
3325.132769
3149.470037
2989.541471
2843.617299
2710.146353
2587.778893
157215.7009
155391.258
151555.2608
146065.8532
139234.787
131368.8096
122780.0568
113760.0527
104571.3215
95442.49544
86561.31435
78075.05659
70088.50677
62671.91368
55863.58725
49674.2187
44095.03158
39101.95292
34659.52011
30726.26933
27257.88664
24208.55654
21533.65884
19190.84677
17140.87681
15347.81849
13779.35318
12406.51623
11203.79662
10148.86034
9222.170515
8406.783438
7687.89046
7052.75296
6490.447079
5991.500004
5547.676939
5152.027416
4798.37608
4481.582332
4197.041698
3940.920638
3709.768259
3500.673236
3311.09241
3138.780497
2981.78712
2838.445236
2707.23879
2586.866682
153332.465
151533.9078
147753.8667
142351.7396
135631.4373
127904.5795
119476.1715
110635.7005
101643.626
92723.68604
84058.06617
75788.46275
68016.62212
60809.73933
54199.98468
48198.66298
42793.12825
37958.88314
33660.88751
29857.05
26503.50109
23555.69115
20970.13871
18705.39152
16723.29887
14988.98131
13471.24468
12142.20123
10977.30416
9954.897622
9056.155113
8264.706934
7566.497403
6949.161671
6402.115724
5916.364448
5483.936934
5098.074046
4752.942321
4443.483233
4165.34287
3914.753577
3688.417932
3483.541285
3297.627704
3128.525476
2974.347853
2833.479942
2704.446595
2585.990524
149524.4691
147752.3053
144030.7732
138716.4069
132108.3349
124520.5567
116254.1834
107594.5548
98798.39953
90084.62963
81631.21352
73575.70942
66016.00352
59012.48515
52598.1552
46778.20989
41541.73399
36861.68024
32702.46448
29023.35575
25780.75169
22930.74399
20430.69891
18240.6215
16323.53941
14645.57194
13176.5058
11889.3931
10760.52405
9769.169374
8897.17714
8128.727293
7450.201148
6849.876427
6317.496363
5844.308608
5422.788607
5046.30063
4709.325872
4406.895623
4134.89095
3889.607274
3667.906131
3467.06646
3284.675193
3118.657389
2967.192405
2828.699117
2701.757434
2585.14661
145792.6268
144048.7905
140387.9209
135159.1476
128667.4939
121217.0631
113112.064
104632.8672
96031.46693
87521.95875
79279.17696
71434.93727
64081.44809
57278.2532
51052.92032
45410.74356
40337.14508
35806.35988
31781.85412
28222.79828
25086.6505
22330.73888
19913.13285
17794.92698
15940.11871
14316.05433
12893.59672
11646.71641
10552.50122
9590.900904
8744.449535
7998.056876
7338.49548
6754.401625
6236.097561
5775.020806
5363.927528
4996.491198
4667.311562
4371.666046
4105.537513
3865.360112
3648.128187
3451.170624
3272.174142
3109.13052
2960.282471
2824.081172
2699.159323
2584.331222
142141.5661
140425.3954
136822.6594
131681.8789
125305.5743
117995.9203
110051.183
101750.7186
93342.61403
85036.05263
77000.00958
69361.68167
62211.39809
55602.97405
49562.31877
44091.93658
39177.33128
34790.38645
30895.61479
27452.77462
24419.56584
21753.92632
19415.36224
17366.21064
15571.35944
13999.22388
12621.52196
11413.15358
10352.19207
9419.235168
8597.397288
7872.085624
7230.764535
6662.370094
6157.533102
5708.136812
5307.071733
4948.360149
4626.698061
4337.607681
4077.142669
3841.900999
3628.983787
3435.779436
3260.066614
3099.904193
2953.586484
2819.605238
2696.640651
2583.540752
138568.3925
136879.5041
133335.4229
128285.812
122022.6333
114853.6892
107070.2581
98948.17077
90730.88631
82623.49962
74790.31453
67355.25276
60403.13543
53984.33396
48123.57358
42820.17359
38058.82266
33811.64457
30042.23428
26711.0064
23776.90402
21198.44841
18936.17822
16953.30432
15215.93363
13693.69788
12359.12244
11187.9324
10158.88736
9253.408648
8455.290162
7750.385509
7126.541772
6573.2951
6081.483794
5643.335283
5252.002209
4901.687194
4587.312556
4304.553285
4049.574804
3819.136342
3610.384539
3420.822093
3248.297197
3090.938584
2947.074047
2815.251133
2694.190142
2582.771682
135072.8798
133411.5336
129930.3848
124968.5472
118822.4761
111790.4395
104167.5608
96222.44144
88193.86856
80282.79175
72650.49624
65413.93485
58654.29453
52421.54217
46734.33409
41593.33675
36980.61288
32867.72196
29219.56032
25996.36586
23157.52117
20662.72264
18473.84718
16554.92143
14873.0332
13398.70337
12105.46817
10970.08929
9971.89259
9092.920737
8317.578658
7632.384358
7025.487943
6486.815284
6007.642135
5580.34547
5198.456063
4856.271896
4548.990089
4272.357722
4022.712055
3796.945186
3592.247471
3406.231723
3236.813183
3082.18805
2940.716362
2810.99964
2691.797007
2582.020627
131656.9725
130025.4777
126604.3984
121730.6197
115701.7738
108809.9354
101345.0907
93574.73281
85733.05528
78016.32274
70579.13691
63535.99191
56965.8815
50912.22035
45394.7254
40409.85453
35940.9826
31958.32721
28426.46691
25307.08193
22560.175
20146.12963
18027.69221
16170.05879
14541.53253
13113.42012
11860.11597
10759.07293
9790.555719
8937.212564
8183.917698
7517.681935
6927.208663
6402.6457
5935.70188
5518.965113
5146.214955
4811.944509
4511.556636
4240.892262
3996.467876
3775.234909
3574.49621
3391.946442
3225.576968
3073.615168
2934.486181
2806.832515
2689.450969
2581.284352
128321.6668
126718.2984
123357.4053
118575.9194
112660.9784
105909.2366
98603.40511
91006.50688
83348.77143
75821.88625
68575.90003
61723.42053
55336.08579
49457.40247
44103.2361
39270.38482
34939.47256
31082.05559
27662.67949
24643.10345
21984.16758
19647.62163
17597.02091
15798.43465
14221.06953
12837.24688
11622.36606
10554.52289
9614.579951
8785.879269
8053.917717
7406.038534
6831.405943
6320.583839
5865.447034
5458.996794
5095.10975
4768.583378
4474.882747
4210.044851
3970.725972
3753.925599
3557.063939
3377.911477
3214.53348
3065.186096
2928.358644
2802.732979
2687.142501
2580.559835
125064.4169
123489.6537
120191.8039
115501.3056
109703.609
103089.5803
95942.17156
88517.35839
81041.28283
73701.4932
66644.42314
59975.91904
53766.73783
48057.42966
42861.42566
38174.41013
33977.04533
30239.67955
26927.85148
24004.20799
21429.87271
19167.45273
17181.59939
15439.5863
13911.43068
12570.23226
11392.09916
10356.11837
9443.752078
8638.809979
7927.350901
7297.254339
6737.918706
6240.402732
5796.7544
5400.275652
5045.021899
4726.04048
4438.868992
4179.750529
3945.407241
3732.952118
3539.895711
3364.093661
3203.644849
3056.871581
2922.312078
2798.686287
2684.86317
2579.844373
121885.1999
120341.5161
117107.6273
112507.699
106829.3363
100355.7594
93364.94771
86110.91996
78814.98423
71659.25885
64785.33394
58296.31027
52260.64882
46714.16891
41671.06878
37124.36914
33054.45585
29432.47348
26223.72719
23391.25746
20897.56364
18706.0907
16782.2444
15094.08077
13612.76525
12312.35085
11169.54398
10164.03139
9278.037898
8495.978673
7804.256541
7191.248994
6646.76045
6162.04607
5729.57123
5342.737402
4995.924765
4684.253546
4403.4562
4149.937153
3920.461531
3712.269604
3522.954117
3350.447687
3192.883774
3048.649686
2916.329783
2794.680783
2682.606146
2579.135726
118787.5285
117273.8748
114103.6315
109598.9907
104039.0914
97707.61224
90875.09981
83791.34674
76672.97461
69697.46231
63003.09599
56689.76632
50820.72217
45432.47448
40535.06674
36123.1517
32175.23288
28662.56186
25551.95417
22806.45981
20389.2428
18264.81444
16399.78616
14762.91263
13326.16566
12064.30195
10955.07751
9978.69992
9117.865866
8357.603248
7684.848724
7088.192045
6557.972467
6085.622222
5663.910447
5286.420024
4947.789389
4643.22541
4368.667683
4120.586727
3895.873626
3691.861062
3506.234677
3336.956118
3182.235519
3040.507868
2910.401792
2790.709289
2680.367114
2578.432427
115767.2562
114284.8256
111181.3398
106774.7301
101337.1693
95148.21831
88475.34361
81561.98675
74619.9297
67822.79968
61304.90433
55160.85645
49453.94548
44216.7264
39459.86171
35175.202
31343.29359
27934.67379
24916.24027
22252.54008
19907.51042
17846.37961
16036.46021
14447.68554
13052.91595
11827.52428
10749.86073
9800.928
8963.9728
8224.362912
7569.574944
6988.575957
6471.890927
6011.412011
5599.98347
5231.527984
4900.743504
4603.053323
4334.551937
4091.752413
3871.681432
3671.761496
3489.739402
3323.629363
3171.705671
3032.448379
2904.528239
2786.770857
2678.144943
2577.73391
112823.9944
111374.9771
108343.4265
104036.1305
98726.43726
92684.18162
86172.3697
79430.45223
72664.80759
66043.78223
59697.32759
53718.55021
48167.64599
43075.25892
38451.63965
34288.37255
30564.93136
27253.84577
24322.04477
21734.55689
19456.37578
17454.06099
15695.48282
14151.43678
12795.44888
11603.91647
10555.72154
9632.319169
8817.579145
8097.358824
7459.355523
6893.068299
6389.178793
5939.890759
5538.228842
5178.358096
4855.0653
4563.993853
4301.276285
4063.569771
3847.989612
3652.051558
3473.527744
3310.510994
3161.325429
3024.492926
2898.723613
2782.874464
2675.944306
2577.041457
109959.529
108546.634
105588.2611
101387.3374
96209.28786
90319.54763
83973.7237
77405.50414
70815.86236
64369.04637
58191.46541
52373.65298
46972.06928
42018.54405
37520.58714
33471.04945
29849.43363
26628.3657
23776.27182
21258.94188
19042.21313
17093.30497
15381.38781
13878.0987
12557.55154
11396.69745
10375.28194
9475.23579
8680.755602
7978.246306
7355.73902
6802.9114
6310.89445
5871.940759
5479.414207
5127.521869
4811.269371
4526.426773
4269.182302
4036.315307
3825.040768
3632.896491
3457.736814
3297.70581
3151.17258
3016.696871
2893.024902
2779.04246
2673.776388
2576.358111
107172.3066
105796.9926
102917.1569
98830.9522
93791.32683
88060.28102
81886.24673
75495.72688
69084.00995
62811.67031
56801.03054
51138.78376
45881.82107
41059.21573
36680.0118
32735.68302
29207.71461
26069.18424
23289.11003
20834.6063
18672.79631
16771.59238
15100.96721
13633.49365
12344.1907
11210.48079
10212.55511
9333.047496
8556.518012
7869.596088
7260.836885
6720.020419
6238.588771
5808.929665
5424.629736
5079.971826
4770.170311
4491.004487
4238.804593
4010.432169
3803.163622
3614.573282
3442.584253
3285.382377
3141.375392
3009.155488
2887.500183
2775.320026
2671.666445
2575.691553
104460.6691
103126.2074
100334.5406
96368.61409
91478.89428
85915.34155
79920.18137
73713.38419
67483.9648
61386.96731
55540.7328
50030.89037
44912.63869
40214.28315
35945.46774
32098.39886
28654.75263
25589.93443
22873.58709
20473.9101
18359.21168
16498.75904
14863.2148
13425.93331
12162.62138
11051.56092
10073.2832
9210.750382
8449.1578
7775.312243
7177.964871
6647.274232
6174.732171
5753.000432
5375.687113
5037.262567
4733.037775
4458.82647
4211.063436
3986.68958
3782.983686
3597.591982
3428.477803
3273.859604
3132.175859
3002.044714
2882.269539
2771.781434
2669.652755
2575.052709
101825.0682
100537.0278
97838.86384
94004.36071
89275.80166
83892.6693
78087.63666
72072.57945
66030.38605
60110.81096
54428.98473
49069.50413
44084.32529
39503.92011
35336.87527
31578.01619
28209.71428
25208.48186
22546.3068
20192.35482
18116.18002
16288.13994
14680.1711
13266.28279
12022.85438
10928.79635
9965.22756
9115.413155
8364.821164
7700.68488
7111.816388
6588.692238
6122.834709
5707.116864
5335.153862
5001.580648
4701.703364
4431.424003
4187.244331
3966.114653
3765.35193
3582.63884
3415.964822
3263.568761
3123.908746
2995.618985
2877.519453
2768.553729
2667.808063
2574.464215
99265.46238
98026.82951
95431.18746
91742.81303
87187.69018
81999.345
76397.6527
70585.43215
64738.7167
59001.66489
53487.08347
48275.59401
43419.81638
38950.95331
34878.20511
31197.9718
27894.99165
24947.22569
22328.52089
20009.95582
17962.39349
16157.39107
14568.10544
13169.43189
11938.44218
10854.57352
9899.564688
9056.965047
8312.484908
7653.692634
7069.499956
6550.518956
6088.407758
5676.074324
5307.207076
4976.514581
4679.286085
4411.470309
4169.607893
3950.625141
3751.86938
3571.032281
3406.111573
3255.351621
3117.21702
2990.347367
2873.570188
2765.834631
2666.234207
2573.955379
96778.71391
95594.74301
93113.95157
89584.40214
85221.39148
80242.67218
74860.28012
69264.84421
63624.6765
58078.52876
52734.7087
47672.03897
42943.86745
38581.12576
34595.60046
30985.13992
27737.38343
24832.31185
22245.89027
19951.3917
17921.29989
16128.64697
14547.79842
13154.68169
11927.13614
10845.21145
9891.139865
9048.81858
8304.215687
7645.108199
7060.534017
6541.187779
6078.803858
5666.305555
5297.406798
4966.829414
4669.840124
4402.385371
4161.002473
3942.584832
3744.473107
3564.343565
3400.179482
3250.2103
3112.887219
2986.836417
2870.874121
2763.937946
2665.113541
2573.583372
93241.4525
90886.4665
87530.41825
83377.77384
78629.62164
73483.79066
68121.66277
62702.40299
57357.49533
52191.3273
47281.21136
42680.7549
38421.42179
34517.56892
30969.41182
27767.51164
24894.56152
22329.23999
20047.01629
18022.47718
16230.40497
14646.60043
13248.00536
12013.42763
10923.67256
9961.326898
9110.753211
8358.233134
7691.606894
7100.088638
6574.460656
6106.412976
5688.927411
5315.664738
4981.300272
4681.089486
4410.918076
4167.268566
3947.001642
3747.40404
3566.108421
3401.057444
3250.443605
3112.684798
2986.377818
2870.313708
2763.408109
2664.726657
2573.429608
)
;

boundaryField
{
    front_top
    {
        type            wedge;
    }
    front_middle
    {
        type            wedge;
    }
    front_bottom
    {
        type            wedge;
    }
    back_top
    {
        type            wedge;
    }
    back_middle
    {
        type            wedge;
    }
    back_bottom
    {
        type            wedge;
    }
    axis_top
    {
        type            symmetryPlane;
    }
    axis_middle
    {
        type            symmetryPlane;
    }
    axis_bottom
    {
        type            symmetryPlane;
    }
    wall_top
    {
        type            calculated;
        value           nonuniform 0();
    }
    wall_middle
    {
        type            calculated;
        value           uniform 2530.329233;
    }
    wall_bottom
    {
        type            calculated;
        value           nonuniform 0();
    }
    inlet
    {
        type            calculated;
        value           nonuniform 0();
    }
    outlet
    {
        type            calculated;
        value           nonuniform 0();
    }
    procBoundary3to2
    {
        type            processor;
        value           nonuniform List<scalar> 
51
(
94363.84918
94363.84918
90965.24462
88746.48322
85581.69571
81656.57092
77159.21493
72271.09467
67161.42214
61979.27111
56849.23192
51871.32934
47120.86469
42651.465
38495.82651
34670.71821
31179.61162
28015.90473
25165.75533
22611.06765
20329.59821
18298.54993
16494.9934
14895.83646
13479.64166
12226.36687
11117.44774
10136.02064
9267.042321
8497.0327
7813.91487
7207.221965
6667.560127
6186.804062
5757.790092
5374.246107
5030.672848
4722.359007
4445.070294
4195.183227
3969.547952
3765.347131
3580.144298
3411.814678
3258.487604
3118.517617
2990.439782
2872.9827
2765.003198
2665.51234
2573.629454
)
;
    }
    procBoundary3to4
    {
        type            processor;
        value           nonuniform List<scalar> 
51
(
173496.6661
171573.4668
167523.3911
161712.1016
154452.1422
146056.5671
136844.7758
127114.4693
117143.6465
107176.6078
97419.67992
88037.76686
79156.86134
70863.5634
63209.15527
56219.02524
49890.72396
44206.44015
37934.79291
37934.79291
33583.69375
29741.37998
26360.4152
23393.5012
20794.94898
18522.06839
16535.3602
14799.05148
13281.27027
11953.58517
10791.01468
9771.756739
8876.711326
8089.30085
7395.240343
6782.184723
6239.528056
5758.038708
5329.823478
4948.088719
4606.925238
4301.337253
4026.874229
3779.836254
3556.882353
3355.207737
3172.352278
3006.129764
2854.674454
2716.358635
2589.727182
)
;
    }
}


// ************************************************************************* //
