/*--------------------------------*- C++ -*----------------------------------*\
  =========                 |
  \\      /  F ield         | OpenFOAM: The Open Source CFD Toolbox
   \\    /   O peration     | Website:  https://openfoam.org
    \\  /    A nd           | Version:  7
     \\/     M anipulation  |
\*---------------------------------------------------------------------------*/
FoamFile
{
    version     2.0;
    format      ascii;
    class       volVectorField;
    location    "0.003";
    object      U;
}
// * * * * * * * * * * * * * * * * * * * * * * * * * * * * * * * * * * * * * //

dimensions      [0 1 -1 0 0 0 0];

internalField   nonuniform List<vector> 
1167
(
(-0.0001285862646 -1.173426124e-18 -0.01099273333)
(-0.0003342377203 -3.840929835e-18 -0.01098068131)
(-0.0005264391056 -1.70342145e-18 -0.01095479584)
(-0.0007230634098 -2.308028979e-18 -0.01091623085)
(-0.0009149898236 -2.457284617e-18 -0.01086600862)
(-0.001100282175 -4.366623233e-18 -0.01080496719)
(-0.00127870795 -5.686038072e-18 -0.01073376904)
(-0.0014499112 -4.723301015e-18 -0.01065304384)
(-0.00161354973 -4.479056495e-18 -0.01056338844)
(-0.001769363397 -4.014341159e-18 -0.01046535692)
(-0.001917149757 -3.627683707e-18 -0.01035946155)
(-0.002056748699 -3.926249851e-18 -0.01024617538)
(-0.002188036723 -5.399285627e-18 -0.01012593436)
(-0.002310923127 -6.471863219e-18 -0.009999139533)
(-0.002425344558 -7.47096543e-18 -0.009866159637)
(-0.002531262712 -8.199991269e-18 -0.009727334201)
(-0.00262866167 -7.904798587e-18 -0.009582976701)
(-0.00271754564 -7.825116586e-18 -0.009433376766)
(-0.000134461267 0 -0.01150618731)
(-0.0003495900759 5.093996795e-18 -0.01149346806)
(-0.0005506243806 3.936818868e-19 -0.01146617917)
(-0.0007561780279 -4.213223432e-19 -0.01142551876)
(-0.0009567981078 9.260860509e-19 -0.01137255994)
(-0.001150416557 -4.344290897e-18 -0.01130818421)
(-0.001336775529 -6.661203531e-18 -0.01123308839)
(-0.001515501065 -7.494992994e-18 -0.01114793075)
(-0.001686231607 -6.906764062e-18 -0.01105333669)
(-0.001848692189 -6.179122397e-18 -0.010949887)
(-0.002002670334 -5.644894146e-18 -0.01083811877)
(-0.002147999963 -6.238953192e-18 -0.01071852838)
(-0.002284555443 -8.17757772e-18 -0.01059157436)
(-0.002412245382 -8.965711932e-18 -0.01045767844)
(-0.002531008743 -9.282425548e-18 -0.01031722975)
(-0.002640812225 -9.642947998e-18 -0.01017058836)
(-0.002741646531 -1.004172753e-17 -0.01001808674)
(-0.002833524057 -9.588508681e-18 -0.009860033719)
(-0.002916476584 -9.730365534e-18 -0.00969671547)
(-0.002990552834 -9.968073259e-18 -0.0095283962)
(-0.003055816046 -8.938095917e-18 -0.009355319338)
(-0.003112341198 -8.584846878e-18 -0.009177706316)
(-0.003160212001 -8.077524682e-18 -0.008995754762)
(-0.003199517649 -8.210035072e-18 -0.008809635311)
(-0.003230348429 -8.373582699e-18 -0.008619487422)
(-0.003252791111 -8.623369583e-18 -0.008425413971)
(-0.003266923594 -8.95342084e-18 -0.008227473605)
(-0.003272807948 -8.821990883e-18 -0.008025671538)
(-0.003270482556 -8.646067199e-18 -0.007819947873)
(-0.003259952567 -8.596647819e-18 -0.007610162355)
(-0.00324117744 -8.526478588e-18 -0.007396075306)
(-0.003214056018 -7.79922314e-18 -0.007177323318)
(-0.003178407666 -7.019039984e-18 -0.006953388358)
(-0.003133948699 -7.166777974e-18 -0.006723558168)
(-0.003080262949 -7.098442443e-18 -0.00648687679)
(-0.003016766674 -7.167977548e-18 -0.006242086986)
(-0.002942669618 -7.08627103e-18 -0.005987566649)
(-0.002856934846 -7.518449018e-18 -0.005721266245)
(-0.002758245229 -7.871571324e-18 -0.005440663879)
(-0.002644986163 -7.531619023e-18 -0.005142754422)
(-0.002515251527 -7.171590496e-18 -0.004824085364)
(-0.00236687838 -7.157897148e-18 -0.004480843139)
(-0.002197504331 -6.752680702e-18 -0.004108978158)
(-0.00200463771 -5.843699284e-18 -0.003704344553)
(-0.001785730586 -4.88264271e-18 -0.003262831865)
(-0.001538257546 -4.48873167e-18 -0.00278046638)
(-0.001259787823 -4.176898874e-18 -0.002253476575)
(-0.0009478911416 -3.338083762e-18 -0.001678416298)
(-0.0005996536847 -1.971094755e-18 -0.001052454536)
(-0.0002115991009 -6.903138413e-19 -0.0003733319598)
(-0.0001408554692 5.866444447e-18 -0.01205509388)
(-0.0003662981317 5.116297308e-18 -0.01204163737)
(-0.0005769419994 4.233376862e-19 -0.01201279487)
(-0.0007922067371 -1.812571326e-18 -0.01196981818)
(-0.001002276651 -1.738314595e-18 -0.01191383757)
(-0.001204939875 -4.942710921e-18 -0.0118457823)
(-0.001399909656 -6.898929828e-18 -0.01176638829)
(-0.001586790997 -8.086887905e-18 -0.01167634983)
(-0.001765201431 -7.695366432e-18 -0.011576325)
(-0.001934849881 -7.176022303e-18 -0.01146692591)
(-0.002095513212 -7.537108893e-18 -0.01134871947)
(-0.002247019618 -7.633832013e-18 -0.01122223023)
(-0.002389239859 -8.176674859e-18 -0.01108794224)
(-0.002522082771 -9.304446019e-18 -0.01094630302)
(-0.002645491457 -9.614946125e-18 -0.01079772655)
(-0.002759438257 -1.002418281e-17 -0.01064259593)
(-0.002863922131 -1.047668001e-17 -0.01048126707)
(-0.002958965708 -1.071341325e-17 -0.01031407038)
(-0.00304461227 -1.14596263e-17 -0.01014131341)
(-0.003120923171 -1.128611732e-17 -0.009963281709)
(-0.003187975748 -1.105629884e-17 -0.0097802383)
(-0.003245859368 -1.001957244e-17 -0.009592422755)
(-0.003294672243 -9.13458364e-18 -0.009400049797)
(-0.003334517882 -8.590133493e-18 -0.00920330576)
(-0.003365500637 -8.347863704e-18 -0.009002343915)
(-0.003387720689 -8.1061903e-18 -0.008797278401)
(-0.003401268166 -8.41656563e-18 -0.008588176506)
(-0.003406215863 -8.793858894e-18 -0.008375048945)
(-0.003402611157 -8.977494445e-18 -0.008157837778)
(-0.003390465766 -9.069237543e-18 -0.007936401122)
(-0.003369743411 -8.774470998e-18 -0.007710493554)
(-0.003340344457 -8.287134274e-18 -0.007479740469)
(-0.003302086122 -7.694629362e-18 -0.00724360643)
(-0.003254678548 -7.206718637e-18 -0.00700135569)
(-0.003197695405 -7.038776035e-18 -0.006752002644)
(-0.003130538398 -7.221220583e-18 -0.006494252978)
(-0.003052397635 -7.239593351e-18 -0.006226440418)
(-0.002962212353 -7.322566548e-18 -0.005946465757)
(-0.002858637129 -7.346221998e-18 -0.005651752468)
(-0.002740025208 -7.178181129e-18 -0.005339237808)
(-0.002604434915 -7.246248974e-18 -0.005005410545)
(-0.0024496644 -7.24661235e-18 -0.00464639827)
(-0.002273309367 -7.143299758e-18 -0.004258094387)
(-0.002072833506 -6.395990015e-18 -0.003836298906)
(-0.001845642601 -5.414498453e-18 -0.003376853366)
(-0.001589164637 -4.231217188e-18 -0.002875742366)
(-0.001300922999 -3.434668271e-18 -0.002329160641)
(-0.0009784365713 -2.37701323e-18 -0.001733641374)
(-0.0006187165133 -1.048571638e-18 -0.001086354098)
(-0.0002182038945 -1.489425618e-19 -0.00038504758)
(-0.000147810656 9.153336456e-19 -0.01264319583)
(-0.0003844707692 -3.699499259e-18 -0.01262892207)
(-0.0006055647869 -5.797137839e-18 -0.01259835577)
(-0.0008313881935 -2.953254972e-18 -0.01255281285)
(-0.001051727676 -5.616947834e-18 -0.01249348418)
(-0.001264215147 -6.85220285e-18 -0.01242135697)
(-0.001468532612 -7.734372076e-18 -0.01233720981)
(-0.001664260733 -8.750836219e-18 -0.01224177836)
(-0.001850993395 -8.730370349e-18 -0.01213576063)
(-0.002028422229 -8.841177277e-18 -0.01201980568)
(-0.002196312576 -8.644466606e-18 -0.01189451502)
(-0.002354484983 -9.416612883e-18 -0.011760446)
(-0.002502807344 -9.482593896e-18 -0.0116181144)
(-0.002641190256 -9.982342521e-18 -0.01146799848)
(-0.002769580336 -1.018125536e-17 -0.01131054052)
(-0.00288795731 -1.029504926e-17 -0.01114615204)
(-0.002996329853 -1.061299001e-17 -0.01097521517)
(-0.003094732373 -1.118845207e-17 -0.0107980867)
(-0.003183221876 -1.158716563e-17 -0.01061509867)
(-0.003261875095 -1.174746873e-17 -0.01042655976)
(-0.003330785125 -1.210027272e-17 -0.01023275542)
(-0.003390058067 -1.10428417e-17 -0.01003394632)
(-0.00343980946 -1.023830735e-17 -0.009830365885)
(-0.003480159776 -9.592115009e-18 -0.009622216931)
(-0.003511229799 -9.016908686e-18 -0.009409667031)
(-0.003533135173 -8.380880317e-18 -0.00919284209)
(-0.003545980216 -8.561269209e-18 -0.00897181843)
(-0.003549850565 -8.92026322e-18 -0.008746612492)
(-0.003544804547 -9.215926015e-18 -0.008517167885)
(-0.003530862191 -9.391794285e-18 -0.008283339694)
(-0.003507992663 -9.415211047e-18 -0.008044874732)
(-0.003476098398 -9.337147533e-18 -0.007801385927)
(-0.003434995486 -8.774554448e-18 -0.007552319504)
(-0.003384388564 -8.199389973e-18 -0.007296913828)
(-0.00332384084 -7.686873705e-18 -0.007034150363)
(-0.003252738932 -7.52730616e-18 -0.006762695239)
(-0.003170252669 -7.67485825e-18 -0.006480834698)
(-0.003075295536 -7.779343219e-18 -0.006186415444)
(-0.002966491786 -7.729048826e-18 -0.005876801693)
(-0.002842159113 -7.494914289e-18 -0.005548866736)
(-0.002700316016 -7.56191098e-18 -0.005199032428)
(-0.00253871622 -7.50691843e-18 -0.004823358169)
(-0.002354906965 -7.262273902e-18 -0.004417668743)
(-0.002146299769 -7.360854712e-18 -0.003977697166)
(-0.001910245465 -6.924795898e-18 -0.003499221755)
(-0.001644115805 -5.931691645e-18 -0.002978168497)
(-0.001345378456 -5.046240635e-18 -0.00241068077)
(-0.001011490611 -3.649136881e-18 -0.001793252266)
(-0.0006393757104 -2.283134348e-18 -0.001123033998)
(-0.0002253772985 -9.847109663e-19 -0.0003977643605)
(-0.0001553686563 -1.657250514e-18 -0.01327466194)
(-0.0004042185541 -5.925578846e-18 -0.01325948206)
(-0.0006366688744 -6.604847951e-18 -0.01322700162)
(-0.0008739632861 -5.582581674e-18 -0.01317860943)
(-0.001105457116 -7.847592733e-18 -0.01311556518)
(-0.001328612184 -8.688519153e-18 -0.01303892137)
(-0.001543074766 -1.030158779e-17 -0.01294950732)
(-0.001748399866 -9.217070292e-18 -0.01284810504)
(-0.001944154877 -9.820784263e-18 -0.01273545814)
(-0.00213001129 -1.115359415e-17 -0.01261225909)
(-0.002305721243 -1.061520252e-17 -0.01247915071)
(-0.002471097673 -1.067167458e-17 -0.01233672944)
(-0.002626006094 -1.054602109e-17 -0.01218554877)
(-0.002770357138 -9.573559866e-18 -0.01202612167)
(-0.002904102671 -9.37686669e-18 -0.01185892525)
(-0.003027230264 -9.905056713e-18 -0.01168440335)
(-0.003139759653 -1.014692357e-17 -0.01150297049)
(-0.003241739184 -1.018066407e-17 -0.01131501269)
(-0.003333241209 -9.583853239e-18 -0.01112089104)
(-0.003414359862 -1.013318261e-17 -0.01092094154)
(-0.00348520697 -1.093135842e-17 -0.01071547437)
(-0.003545907948 -1.105840787e-17 -0.01050477331)
(-0.003596597719 -1.075749975e-17 -0.010289093)
(-0.003637416376 -1.048522014e-17 -0.01006865508)
(-0.003668503921 -1.017470995e-17 -0.009843642746)
(-0.003689994164 -9.925947741e-18 -0.009614194163)
(-0.003702008082 -9.893420673e-18 -0.009380394448)
(-0.003704646173 -9.610878414e-18 -0.009142265291)
(-0.003697979353 -9.401419808e-18 -0.008899751727)
(-0.003682037998 -9.632079921e-18 -0.008652705654)
(-0.00365679853 -9.832211995e-18 -0.008400864868)
(-0.003622166799 -1.000353162e-17 -0.008143827129)
(-0.003577958062 -1.009639661e-17 -0.007881017777)
(-0.003523872066 -9.862606382e-18 -0.00761164787)
(-0.003459461999 -9.370469063e-18 -0.007334662878)
(-0.003384098599 -9.008377236e-18 -0.007048685258)
(-0.003296930596 -8.784308441e-18 -0.006751950362)
(-0.003196844037 -8.545163261e-18 -0.006442245782)
(-0.003082430186 -9.128807218e-18 -0.006116870291)
(-0.002951967897 -9.358266483e-18 -0.005772626466)
(-0.002803431356 -9.256421707e-18 -0.005405860661)
(-0.002634524335 -9.211137172e-18 -0.005012553838)
(-0.002442738793 -8.741297292e-18 -0.004588449655)
(-0.0022254265 -7.892880117e-18 -0.004129200964)
(-0.001979874866 -7.018672681e-18 -0.003630507604)
(-0.001703390092 -5.981410584e-18 -0.003088220394)
(-0.00139337442 -4.8429861e-18 -0.0024984136)
(-0.001047212711 -3.620203941e-18 -0.001857522704)
(-0.0006617281847 -1.982881924e-18 -0.001162661274)
(-0.000233152105 -5.851933768e-19 -0.0004115393217)
(-0.0001635708209 -1.614279887e-19 -0.01395412778)
(-0.0004256501236 -4.297722499e-18 -0.0139379435)
(-0.0006704252858 -5.313654552e-18 -0.01390333535)
(-0.0009201669857 -6.714952819e-18 -0.01385177751)
(-0.001163764365 -8.637273245e-18 -0.01378460893)
(-0.001398494452 -9.080524434e-18 -0.01370295147)
(-0.001623962969 -1.074672432e-17 -0.0136076941)
(-0.001839696265 -1.158297694e-17 -0.01349967288)
(-0.002045232786 -1.18275341e-17 -0.01337968307)
(-0.002240221852 -1.186165656e-17 -0.01324846722)
(-0.002424400946 -1.111705666e-17 -0.0131067164)
(-0.002597574129 -1.089714551e-17 -0.01295507254)
(-0.002759602143 -1.113792225e-17 -0.01279413233)
(-0.002910396823 -9.122048865e-18 -0.01262445094)
(-0.003049914984 -9.356140118e-18 -0.01244654579)
(-0.003178153073 -9.876016755e-18 -0.01226089913)
(-0.003295143018 -1.016487651e-17 -0.01206796221)
(-0.003400947915 -1.037508614e-17 -0.01186815706)
(-0.003495658098 -1.053359699e-17 -0.01166187727)
(-0.003579386963 -1.093780186e-17 -0.01144949001)
(-0.003652267051 -1.102803049e-17 -0.01123133502)
(-0.003714445867 -1.126413395e-17 -0.01100772258)
(-0.003766080757 -1.18710973e-17 -0.01077893064)
(-0.003807334136 -1.176903296e-17 -0.01054520129)
(-0.003838367552 -1.113065217e-17 -0.01030673521)
(-0.003859335662 -1.069411449e-17 -0.0100636846)
(-0.003870378989 -1.063910645e-17 -0.009816144328)
(-0.003871615553 -1.040094713e-17 -0.009564141251)
(-0.003863131263 -1.008733784e-17 -0.009307620724)
(-0.003844968534 -9.841090074e-18 -0.009046430088)
(-0.003817112508 -9.711710178e-18 -0.008780297441)
(-0.003779474317 -9.856504819e-18 -0.008508804361)
(-0.003731869688 -9.945068765e-18 -0.008231352217)
(-0.003673993621 -9.939837838e-18 -0.007947121158)
(-0.00360538961 -9.72615257e-18 -0.007655018388)
(-0.003525412372 -9.828112607e-18 -0.00735361844)
(-0.003433188093 -9.897370959e-18 -0.00704110049)
(-0.003327574008 -1.000618027e-17 -0.006715187886)
(-0.003207125528 -9.882381923e-18 -0.006373107273)
(-0.003070079269 -9.873024087e-18 -0.0060115824)
(-0.002914360269 -9.824167815e-18 -0.005626874869)
(-0.002737616826 -9.825478542e-18 -0.005214876202)
(-0.002537279061 -9.361330967e-18 -0.004771236718)
(-0.002310631345 -8.933177483e-18 -0.004291514938)
(-0.002054889107 -8.067634931e-18 -0.003771316481)
(-0.001767284126 -6.667217687e-18 -0.003206400753)
(-0.001445143849 -5.240665194e-18 -0.002592755509)
(-0.001085770508 -3.501696163e-18 -0.001926739422)
(-0.0006858749593 -2.053510282e-18 -0.001205409944)
(-0.0002415621058 -4.590271382e-19 -0.0004264313072)
(-0.0001724550409 -6.841888153e-18 -0.01468672744)
(-0.0004488646705 -6.665606476e-18 -0.01466942949)
(-0.000706990745 -1.042965714e-17 -0.01463245739)
(-0.0009702173387 -1.166847753e-17 -0.0145773868)
(-0.001226928632 -7.918184334e-18 -0.01450564199)
(-0.001474202195 -8.734358725e-18 -0.01441842411)
(-0.001711600039 -9.485377585e-18 -0.01431668636)
(-0.001938615452 -1.006670673e-17 -0.01420132703)
(-0.002154754934 -1.140101698e-17 -0.01407320133)
(-0.002359643616 -1.178529503e-17 -0.01393310887)
(-0.002553001592 -1.252809529e-17 -0.01378179492)
(-0.002734621316 -1.207341824e-17 -0.01361995419)
(-0.002904358942 -1.078511289e-17 -0.01344823452)
(-0.003062126401 -9.94770544e-18 -0.01326723996)
(-0.003207884939 -1.02218828e-17 -0.01307753437)
(-0.003341640172 -1.03885962e-17 -0.0128796456)
(-0.003463436927 -1.053520394e-17 -0.01267406745)
(-0.003573354297 -1.071740813e-17 -0.0124612628)
(-0.003671501363 -1.086823861e-17 -0.01224166496)
(-0.003758013267 -1.150045545e-17 -0.01201567695)
(-0.003833045799 -1.169850517e-17 -0.01178367146)
(-0.003896770335 -1.194360283e-17 -0.01154598942)
(-0.003949369263 -1.259768254e-17 -0.01130293655)
(-0.003991030365 -1.275107213e-17 -0.01105477841)
(-0.004021939891 -1.271529552e-17 -0.01080173499)
(-0.004042276262 -1.206240505e-17 -0.01054397359)
(-0.004052202062 -1.206621377e-17 -0.01028159979)
(-0.004051855377 -1.095705562e-17 -0.01001464654)
(-0.004041339939 -1.037645119e-17 -0.009743059985)
(-0.004020712763 -1.01598114e-17 -0.009466681922)
(-0.003989969749 -9.795418954e-18 -0.00918522845)
(-0.003949028413 -1.002692577e-17 -0.008898263103)
(-0.003897706628 -1.035018572e-17 -0.008605162007)
(-0.003835695782 -1.032763674e-17 -0.00830507059)
(-0.003762529465 -1.026785674e-17 -0.007996853303)
(-0.003677546422 -1.034667343e-17 -0.00767903326)
(-0.003579849252 -1.042339073e-17 -0.007349727735)
(-0.003468264562 -1.046321987e-17 -0.007006589365)
(-0.003341309239 -1.007453038e-17 -0.006646765329)
(-0.003197173974 -9.830352935e-18 -0.006266891502)
(-0.003033729993 -9.704523544e-18 -0.005863134806)
(-0.002848564288 -9.701090306e-18 -0.005431285227)
(-0.00263903869 -9.197775257e-18 -0.004966887373)
(-0.002402362781 -8.094300703e-18 -0.004465391033)
(-0.002135671757 -6.977320343e-18 -0.003922291928)
(-0.00183611442 -5.974345327e-18 -0.003333241667)
(-0.001500934336 -4.752425239e-18 -0.002694124113)
(-0.001127341387 -3.00924948e-18 -0.002001202959)
(-0.0007119225993 -1.875071541e-18 -0.001251461567)
(-0.0002506428306 -6.654541841e-19 -0.0004425013851)
(-0.0001820517145 -1.051451855e-17 -0.01547811612)
(-0.0004739429877 -8.624970319e-18 -0.0154595873)
(-0.0007464967018 -1.009701057e-17 -0.0154199965)
(-0.001024298422 -1.24420001e-17 -0.01536103679)
(-0.00129518912 -1.076198168e-17 -0.01528422338)
(-0.001556030896 -1.01028646e-17 -0.01519084824)
(-0.001806338486 -9.982142399e-18 -0.01508193594)
(-0.002045570178 -1.089317202e-17 -0.01495845262)
(-0.002273196301 -1.064911412e-17 -0.01482132042)
(-0.002488813765 -1.034240908e-17 -0.01467140392)
(-0.002692122708 -1.032423458e-17 -0.01450951056)
(-0.0028829031 -1.016886555e-17 -0.01433639538)
(-0.003061003699 -1.018343046e-17 -0.01415276423)
(-0.003226334298 -1.0476214e-17 -0.013959277)
(-0.003378860302 -1.070269912e-17 -0.01375655242)
(-0.003518595615 -1.101795632e-17 -0.01354516981)
(-0.003645597779 -1.121928584e-17 -0.01332567364)
(-0.003759962546 -1.125655534e-17 -0.01309857425)
(-0.003861819149 -1.12763809e-17 -0.01286434965)
(-0.003951325145 -1.122771659e-17 -0.01262344571)
(-0.004028661415 -1.175293685e-17 -0.01237627441)
(-0.004094026052 -1.21154644e-17 -0.01212321152)
(-0.004147629078 -1.265116997e-17 -0.01186459392)
(-0.004189685782 -1.233566411e-17 -0.01160071456)
(-0.004220410015 -1.266910992e-17 -0.01133181653)
(-0.004240007154 -1.303428774e-17 -0.01105808494)
(-0.004248665097 -1.308516483e-17 -0.01077963756)
(-0.004246545091 -1.323028989e-17 -0.01049651358)
(-0.004233771026 -1.245488397e-17 -0.01020865987)
(-0.004210417051 -1.191881453e-17 -0.009915913157)
(-0.004176492586 -1.146152716e-17 -0.009617976933)
(-0.004131923718 -1.085246153e-17 -0.009314393772)
(-0.004076531457 -1.080821781e-17 -0.009004511466)
(-0.004010005013 -1.070956104e-17 -0.008687438787)
(-0.003931868723 -1.063731851e-17 -0.008361992736)
(-0.003841444884 -1.067070368e-17 -0.008026639432)
(-0.003737811914 -1.081737133e-17 -0.007679428704)
(-0.003619763749 -1.10607863e-17 -0.007317935189)
(-0.003485776312 -1.039118009e-17 -0.00693921837)
(-0.003333990524 -9.181233059e-18 -0.006539816803)
(-0.00316221922 -8.435117325e-18 -0.006115791634)
(-0.002967982459 -8.071295439e-18 -0.005662818932)
(-0.002748567281 -8.017281764e-18 -0.005176324315)
(-0.00250110134 -7.160601787e-18 -0.004651634191)
(-0.002222631884 -5.982171759e-18 -0.004084119044)
(-0.001910216717 -5.19135173e-18 -0.003469306452)
(-0.001561007007 -4.250386359e-18 -0.002802959165)
(-0.001172111153 -2.693712247e-18 -0.002081228001)
(-0.0007399817328 -1.305894041e-18 -0.001301004913)
(-0.0002604307978 -1.666366043e-19 -0.0004598123432)
(-0.0001923809503 -3.502977209e-18 -0.01633448847)
(-0.0005009393035 -1.40773334e-17 -0.01631460622)
(-0.0007890317967 -1.490549672e-17 -0.01627212658)
(-0.001082534858 -1.175887228e-17 -0.01620887505)
(-0.001368711498 -1.092054701e-17 -0.01612646935)
(-0.001644192897 -1.064078718e-17 -0.0160262961)
(-0.001908441046 -1.079827425e-17 -0.01590946211)
(-0.002160876626 -9.12848146e-18 -0.01577700784)
(-0.002400930774 -7.98621968e-18 -0.01562992858)
(-0.002628168745 -8.185736676e-18 -0.01546916087)
(-0.002842267804 -7.572301734e-18 -0.01529558222)
(-0.00304299124 -8.856067618e-18 -0.01511001436)
(-0.003230176881 -9.652149756e-18 -0.01491322853)
(-0.003403731392 -9.739729462e-18 -0.01470594938)
(-0.003563621049 -1.054115424e-17 -0.01448885679)
(-0.003709866767 -1.087829173e-17 -0.01426259107)
(-0.003842538054 -1.094202172e-17 -0.01402775353)
(-0.00396174648 -1.154847838e-17 -0.0137849103)
(-0.004067641524 -1.186496836e-17 -0.01353459207)
(-0.004160404469 -1.243896698e-17 -0.01327729308)
(-0.004240241923 -1.261746275e-17 -0.01301347095)
(-0.004307380211 -1.279465055e-17 -0.01274354358)
(-0.004362059352 -1.288853731e-17 -0.0124678847)
(-0.004404525052 -1.255176211e-17 -0.01218681882)
(-0.004435021628 -1.206414177e-17 -0.0119006152)
(-0.004453783827 -1.179289425e-17 -0.01160948005)
(-0.004461027812 -1.186924185e-17 -0.01131354673)
(-0.004456941518 -1.253246273e-17 -0.01101286309)
(-0.004441672408 -1.299721975e-17 -0.01070737697)
(-0.004415314484 -1.295196269e-17 -0.01039691901)
(-0.004377892889 -1.307175269e-17 -0.01008117971)
(-0.004329345091 -1.24899598e-17 -0.009759680194)
(-0.004269497336 -1.19372807e-17 -0.009431736478)
(-0.004198037529 -1.150750575e-17 -0.009096416577)
(-0.004114481939 -1.117499104e-17 -0.008752486625)
(-0.004018136355 -1.141410813e-17 -0.008398349945)
(-0.003908054413 -1.178835702e-17 -0.008031982419)
(-0.003782995663 -1.140214771e-17 -0.007650872882)
(-0.003641392433 -1.046104248e-17 -0.007251983579)
(-0.003481332188 -9.924745333e-18 -0.006831745678)
(-0.003300564805 -9.335359273e-18 -0.006386102647)
(-0.003096538181 -8.731600912e-18 -0.005910604475)
(-0.002866458377 -8.216141278e-18 -0.00540054374)
(-0.002607364153 -7.597485815e-18 -0.004851108297)
(-0.002316207905 -6.788728539e-18 -0.004257528551)
(-0.001989949175 -5.820863325e-18 -0.003615192346)
(-0.001625639039 -4.676021649e-18 -0.002919724446)
(-0.001220276106 -3.451215361e-18 -0.002167145284)
(-0.000770168931 -2.558305363e-18 -0.00135423837)
(-0.0002709644803 -8.210124512e-19 -0.000478430685)
(-0.0002034459452 0 -0.01726257008)
(-0.000529863634 -6.192866442e-18 -0.01724120721)
(-0.0008346132776 -8.848994222e-18 -0.01719555497)
(-0.00114495712 -6.992123357e-18 -0.01712759291)
(-0.001447545286 -1.034955871e-17 -0.01703904885)
(-0.001738764277 -1.063380526e-17 -0.01693141028)
(-0.002018020105 -1.018914176e-17 -0.01680586954)
(-0.002284691138 -1.005768912e-17 -0.01666354982)
(-0.002538166497 -1.005050388e-17 -0.01650552666)
(-0.002777976434 -8.550208732e-18 -0.01633281392)
(-0.003003769622 -7.835042461e-18 -0.01614636444)
(-0.003215288248 -9.47826358e-18 -0.01594707518)
(-0.003412357611 -1.035430211e-17 -0.01573579059)
(-0.003594875341 -1.047206925e-17 -0.01551330607)
(-0.003762805949 -1.112344327e-17 -0.01528037183)
(-0.003916174198 -1.147340951e-17 -0.01503769595)
(-0.004055058517 -1.159799241e-17 -0.01478594677)
(-0.004179585393 -1.177678064e-17 -0.014525753)
(-0.004289922797 -1.24941874e-17 -0.01425770599)
(-0.004386274772 -1.37392282e-17 -0.01398235802)
(-0.004468874607 -1.361811244e-17 -0.01370021947)
(-0.004537977899 -1.38328726e-17 -0.01341175642)
(-0.004593855399 -1.404478871e-17 -0.01311738633)
(-0.004636785144 -1.422225907e-17 -0.01281747237)
(-0.004667044684 -1.374133061e-17 -0.01251231577)
(-0.004684901306 -1.293973993e-17 -0.01220214764)
(-0.004690602548 -1.205886159e-17 -0.01188711944)
(-0.004684365499 -1.233698812e-17 -0.01156729059)
(-0.004666364625 -1.242180626e-17 -0.0112426131)
(-0.004636717478 -1.240584121e-17 -0.01091291229)
(-0.004595467932 -1.252774717e-17 -0.01057786428)
(-0.004542566964 -1.246114602e-17 -0.01023696741)
(-0.004477848831 -1.227613424e-17 -0.009889504863)
(-0.00440100194 -1.259501405e-17 -0.009534499804)
(-0.004311535431 -1.237032585e-17 -0.009170662682)
(-0.00420873916 -1.232395404e-17 -0.008796328518)
(-0.004091641256 -1.194656991e-17 -0.008409391919)
(-0.003958965698 -1.163176017e-17 -0.008007247725)
(-0.00380909872 -1.094074976e-17 -0.007586751227)
(-0.003640070943 -1.075643247e-17 -0.007144214902)
(-0.003449564841 -1.008974731e-17 -0.006675451733)
(-0.003234951023 -9.444743403e-18 -0.00617587283)
(-0.002993349043 -9.115260688e-18 -0.005640623716)
(-0.002721702688 -8.586672961e-18 -0.005064739183)
(-0.002416863373 -8.155726369e-18 -0.004443294539)
(-0.002075685996 -7.474578114e-18 -0.003771522607)
(-0.001695115228 -6.456318688e-18 -0.003044894314)
(-0.001272033228 -4.566216099e-18 -0.002259283818)
(-0.0008025968117 -3.031779513e-18 -0.001411350998)
(-0.0002822788154 -1.021825781e-18 -0.0004984143912)
(-0.0002152230283 -2.902195146e-18 -0.01826956362)
(-0.0005606551703 -7.534367643e-18 -0.0182465933)
(-0.0008831517519 -2.616169359e-18 -0.01819748427)
(-0.00121145391 -5.035813967e-18 -0.01812439233)
(-0.001531567061 -1.028898947e-17 -0.01802915598)
(-0.001839618818 -1.288272979e-17 -0.0179133745)
(-0.002134958356 -1.503473405e-17 -0.01777832863)
(-0.002416920492 -1.318532411e-17 -0.01762522701)
(-0.00268484725 -1.272198377e-17 -0.01745523011)
(-0.002938228316 -1.239291498e-17 -0.01726943469)
(-0.003176679965 -1.033532938e-17 -0.01706887483)
(-0.003399919756 -9.419288197e-18 -0.01685452858)
(-0.003607752066 -9.806986559e-18 -0.01662731894)
(-0.00380006115 -1.097705857e-17 -0.01638811968)
(-0.003976804512 -1.156369141e-17 -0.01613775894)
(-0.004138005741 -1.1698326e-17 -0.01587702065)
(-0.004283747875 -1.160140274e-17 -0.01560664749)
(-0.004414167563 -1.200547838e-17 -0.01532734185)
(-0.004529449218 -1.222255609e-17 -0.01503976381)
(-0.004629817421 -1.263917493e-17 -0.01474453153)
(-0.004715529989 -1.35341409e-17 -0.01444221829)
(-0.004786871383 -1.393255212e-17 -0.0141333478)
(-0.004844143881 -1.447289065e-17 -0.01381838883)
(-0.004887658966 -1.478707116e-17 -0.01349774978)
(-0.004917728503 -1.465031686e-17 -0.01317177099)
(-0.00493465467 -1.460072004e-17 -0.0128407157)
(-0.004938719554 -1.460833815e-17 -0.012504759)
(-0.004930172845 -1.383011491e-17 -0.01216397495)
(-0.004909218899 -1.329747405e-17 -0.01181832188)
(-0.004876001891 -1.297718777e-17 -0.01146762288)
(-0.004830588293 -1.270391832e-17 -0.01111154113)
(-0.004772945722 -1.260772555e-17 -0.01074955068)
(-0.004702918755 -1.248458145e-17 -0.01038089997)
(-0.004620198992 -1.227053446e-17 -0.01000456496)
(-0.00452428976 -1.22624845e-17 -0.009619195461)
(-0.004414466054 -1.17330085e-17 -0.009223052565)
(-0.004289730242 -1.13333478e-17 -0.008813942135)
(-0.004148769767 -1.093326898e-17 -0.008389155704)
(-0.003989922495 -1.024076763e-17 -0.007945431554)
(-0.00381115926 -9.596101035e-18 -0.00747895164)
(-0.003610091414 -9.306809015e-18 -0.006985386259)
(-0.003384007636 -9.537885463e-18 -0.006459993771)
(-0.003129935793 -9.055141259e-18 -0.005897758077)
(-0.002844719917 -7.820540072e-18 -0.005293547434)
(-0.002525105714 -6.868095021e-18 -0.00464226841)
(-0.002167838416 -6.143371521e-18 -0.003938984224)
(-0.001769751195 -5.731298854e-18 -0.003178996677)
(-0.001327604883 -5.294681947e-18 -0.002358018583)
(-0.0008373979383 -3.539994602e-18 -0.00147256963)
(-0.0002944183331 -1.248031576e-18 -0.0005198424359)
(-0.0002276502877 -1.125946715e-18 -0.0193630478)
(-0.0005931559758 -3.8197074e-18 -0.01933835288)
(-0.0009344068272 -2.409927047e-18 -0.01928551774)
(-0.001281705792 -7.281611588e-18 -0.0192068932)
(-0.001620393566 -1.032965181e-17 -0.01910443365)
(-0.001946328738 -1.273315018e-17 -0.01897984994)
(-0.002258800365 -1.458433993e-17 -0.01883451788)
(-0.002557099485 -1.35744915e-17 -0.01866973219)
(-0.00284051824 -1.281395114e-17 -0.0184867393)
(-0.003108501254 -1.237685642e-17 -0.01828672164)
(-0.003360627713 -1.171139681e-17 -0.018070798)
(-0.003596581275 -1.120049683e-17 -0.01784002893)
(-0.003816139046 -1.165141533e-17 -0.01759542204)
(-0.004019165224 -1.214205392e-17 -0.01733793594)
(-0.00420560197 -1.252180612e-17 -0.01706848181)
(-0.004375464219 -1.294430701e-17 -0.01678792792)
(-0.004528832694 -1.242003591e-17 -0.0164970993)
(-0.004665848012 -1.286101199e-17 -0.01619677945)
(-0.004786704361 -1.375649379e-17 -0.0158877089)
(-0.004891642568 -1.39144458e-17 -0.01557058177)
(-0.004980941786 -1.427956579e-17 -0.01524604284)
(-0.005054911988 -1.431779074e-17 -0.01491468346)
(-0.005113885091 -1.41481969e-17 -0.01457703495)
(-0.005158205842 -1.49432463e-17 -0.01423356109)
(-0.005188221267 -1.536340199e-17 -0.0138846495)
(-0.005204269724 -1.500885636e-17 -0.01353060258)
(-0.00520666926 -1.531769454e-17 -0.01317162656)
(-0.00519570515 -1.504238689e-17 -0.01280781758)
(-0.005171615237 -1.430086197e-17 -0.01243914482)
(-0.005134573599 -1.365560895e-17 -0.01206543147)
(-0.005084672364 -1.307228936e-17 -0.01168633044)
(-0.005021899734 -1.226449912e-17 -0.01130129305)
(-0.004946113666 -1.119990806e-17 -0.0109095314)
(-0.00485701164 -1.065693163e-17 -0.01050997214)
(-0.004754093455 -1.024941249e-17 -0.01010120042)
(-0.004636620324 -1.01477542e-17 -0.009681397177)
(-0.00450356944 -1.000918572e-17 -0.00924827233)
(-0.004353591118 -9.917619166e-18 -0.008799004967)
(-0.00418497325 -9.239042455e-18 -0.00833020542)
(-0.003995624167 -8.849966356e-18 -0.007837912159)
(-0.003783080811 -8.637114454e-18 -0.007317640347)
(-0.003544546356 -8.631529935e-18 -0.006764481915)
(-0.003276953058 -8.423204448e-18 -0.006173245358)
(-0.002977041676 -7.875642706e-18 -0.005538618972)
(-0.002641448894 -6.999899619e-18 -0.004855327694)
(-0.002266807619 -5.717029857e-18 -0.004118252381)
(-0.001849837408 -4.435213158e-18 -0.003322513578)
(-0.001387176324 -3.109020305e-18 -0.002463651822)
(-0.0008746634249 -1.52621783e-18 -0.001538038917)
(-0.0003074033728 -5.949379257e-19 -0.0005427400761)
(-0.0002406139813 -2.022095763e-18 -0.02055079787)
(-0.000627072056 6.454566223e-18 -0.02052427964)
(-0.0009879214074 -8.323948641e-18 -0.02046747918)
(-0.001355101366 -1.204530443e-17 -0.02038296512)
(-0.00171327745 -1.214994178e-17 -0.0202728109)
(-0.002058034993 -1.430345862e-17 -0.02013883469)
(-0.002388603433 -1.558401879e-17 -0.01998250379)
(-0.002704228877 -1.423771693e-17 -0.01980520022)
(-0.003004152325 -1.312404626e-17 -0.01960825471)
(-0.003287769138 -1.186298061e-17 -0.01939293266)
(-0.003554612886 -1.285869906e-17 -0.01916043617)
(-0.003804326869 -1.31175171e-17 -0.01891191017)
(-0.004036653568 -1.36633904e-17 -0.01864844867)
(-0.004251424928 -1.451533389e-17 -0.0183710961)
(-0.004448558087 -1.499667483e-17 -0.01808085303)
(-0.004628048583 -1.560968639e-17 -0.01777867599)