/*--------------------------------*- C++ -*----------------------------------*\
  =========                 |
  \\      /  F ield         | OpenFOAM: The Open Source CFD Toolbox
   \\    /   O peration     | Website:  https://openfoam.org
    \\  /    A nd           | Version:  7
     \\/     M anipulation  |
\*---------------------------------------------------------------------------*/
FoamFile
{
    version     2.0;
    format      ascii;
    class       volVectorField;
    location    "0.0006";
    object      grad(generalizedNewtonian:nu);
}
// * * * * * * * * * * * * * * * * * * * * * * * * * * * * * * * * * * * * * //

dimensions      [0 1 -1 0 0 0 0];

internalField   nonuniform List<vector> 
1167
(
(-639.8047353 0 -1434.351186)
(-714.3352034 4.166966829e-10 -2815.166393)
(-380.2323796 0 -2789.036913)
(-796.0687612 0 -2735.810747)
(-1548.412262 0 -2619.601391)
(-1799.046025 -5.15666669e-11 -2498.462797)
(-2103.78872 0 -2351.718353)
(-2399.550734 0 -2184.13685)
(-2655.831129 0 -2001.791488)
(-2874.343857 0 -1808.34288)
(-3057.90016 0 -1606.997629)
(-3207.623714 0 -1400.834813)
(-3324.808314 0 -1192.631416)
(-3411.718263 0 -984.6734026)
(-3471.101089 0 -778.8348489)
(-3505.666699 -1.055954369e-11 -576.5703188)
(-3518.482112 -2.030949943e-11 -379.1170129)
(-3512.65663 0 -187.039758)
(-3490.92735 0 -1.08179862)
(-3456.668258 0 178.7641061)
(-3413.020451 -9.011478556e-12 352.5383873)
(-3362.214762 0 520.1590576)
(-3307.332394 8.634426345e-12 682.0813757)
(-3251.110162 8.479916219e-12 838.7567965)
(-3195.691394 8.344416676e-12 990.4088188)
(-3143.702796 0 1137.613408)
(-3097.828959 -8.122057424e-12 1280.992325)
(-3060.521503 4.015900765e-12 1421.003419)
(-3034.389282 0 1558.237126)
(-3022.548898 0 1693.472483)
(-3027.973722 3.914626408e-12 1827.378307)
(-3053.943005 0 1960.772991)
(-3103.905534 0 2094.604572)
(-3180.904782 3.854792337e-12 2229.660678)
(-3287.404918 0 2366.6989)
(-3423.981023 0 2505.839179)
(-3587.542544 -3.827513537e-12 2646.031761)
(-3769.77858 0 2784.286908)
(-3955.154608 0 2914.65706)
(-4120.527324 -1.913392543e-12 3027.859414)
(-4238.90283 3.831683847e-12 3112.236913)
(-4285.490035 -5.758411109e-12 3156.118517)
(-4245.337381 1.924224513e-12 3151.304587)
(-4119.458316 0 3096.377949)
(-3925.924077 1.936924276e-12 2998.001493)
(-3695.595668 -1.944789343e-12 2869.377962)
(-3463.80454 -9.768090521e-13 2726.061253)
(-3261.522752 -9.816900741e-13 2581.153588)
(-3108.949483 0 2442.038311)
(-3004.9623 0 2305.469107)
(-2853.000796 0 2117.189424)
(-812.5476511 0 -4737.347154)
(-462.209402 0 -4690.685244)
(-957.1028014 0 -4625.634268)
(-1828.418849 0 -4469.013958)
(-2134.169131 0 -4303.708484)
(-2497.063056 -4.713125668e-11 -4105.218472)
(-2848.642614 0 -3879.472948)
(-3154.409105 -3.653932013e-11 -3634.266677)
(-3416.048482 0 -3374.839711)
(-3636.774329 0 -3105.78149)
(-3818.065282 0 -2831.426655)
(-3961.660282 0 -2555.656835)
(-4070.207873 0 -2281.663914)
(-4147.146325 0 -2012.197138)
(-4195.506883 0 -1749.304025)
(-4219.201114 0 -1494.489648)
(-4221.655396 0 -1248.799674)
(-4206.190787 -1.03255863e-11 -1012.878338)
(-4176.696183 0 -786.6960993)
(-4135.931412 0 -570.2904939)
(-4087.045778 0 -363.1049065)
(-4032.96747 9.380933565e-12 -164.4468954)
(-3975.796388 9.21306501e-12 26.37332857)
(-3918.118077 9.065850501e-12 210.3414146)
(-3862.355451 0 388.5091652)
(-3810.152947 0 561.7333106)
(-3763.789972 0 730.9780164)
(-3725.621358 -4.320648631e-12 897.2935186)
(-3697.5388 0 1061.477171)
(-3682.075551 -4.253073528e-12 1224.340672)
(-3681.771454 0 1386.748849)
(-3699.184854 4.205407431e-12 1549.343756)
(-3736.950461 -4.188066429e-12 1712.752123)
(-3797.28775 0 1877.388569)
(-3881.415668 0 2043.228405)
(-3988.191525 0 2209.43976)
(-4112.102512 -2.077608381e-12 2373.551869)
(-4241.518639 2.07750394e-12 2530.752184)
(-4356.917997 -4.157637706e-12 2673.051282)
(-4431.438727 0 2789.004093)
(-4436.655595 -2.085422171e-12 2865.628931)
(-4349.706323 -2.090587332e-12 2890.940947)
(-4158.838343 0 2856.398386)
(-3863.211627 -1.05219253e-12 2757.661966)
(-3466.205565 -1.056465059e-12 2593.140856)
(-2968.564212 0 2362.714676)
(-2369.319493 0 2068.923263)
(-1678.576201 0 1720.487595)
(-952.6487012 1.078634424e-12 1345.730002)
(-471.5494794 -1.085377095e-12 1096.022016)
(-980.1488951 -4.936315227e-10 -7603.816268)
(-602.0547144 -1.686914579e-10 -7531.460116)
(-1200.785704 0 -7446.899236)
(-2239.427751 0 -7224.985983)
(-2621.096588 6.108743687e-11 -6986.709765)
(-3065.812492 0 -6703.362272)
(-3493.902121 0 -6383.280408)
(-3865.532423 -3.984104618e-11 -6037.66744)
(-4181.95264 -3.614413238e-11 -5674.631461)
(-4446.87194 0 -5301.294171)
(-4662.190385 0 -4924.23221)
(-4830.337226 0 -4549.194505)
(-4954.305828 0 -4180.924037)
(-5038.459518 2.613921357e-11 -3823.176987)
(-5087.300811 -2.501831116e-11 -3478.729835)
(-5105.224525 1.202962429e-11 -3149.137232)
(-5097.064561 0 -2835.381425)
(-5067.322107 0 -2537.383511)
(-5020.719938 0 -2254.381162)
(-4961.868785 1.067527067e-11 -1985.063278)
(-4894.393284 0 -1727.61388)
(-4822.265986 0 -1480.07209)
(-4749.058293 0 -1240.186626)
(-4677.258509 9.885048965e-12 -1005.966573)
(-4609.725627 0 -775.5708914)
(-4548.547579 -9.621635355e-12 -547.4141447)
(-4495.457016 0 -320.3476276)
(-4452.412497 0 -93.42562969)
(-4420.673507 0 133.7781325)
(-4401.752632 -9.274770173e-12 361.6204822)
(-4397.306385 0 590.3432752)
(-4408.666305 4.58541183e-12 819.9510513)
(-4437.49245 4.566503885e-12 1050.668548)
(-4485.093621 -9.103708067e-12 1282.552943)
(-4552.423163 0 1515.660507)
(-4639.047339 -4.534188591e-12 1749.584963)
(-4741.805581 0 1983.003411)
(-4853.224303 -2.265229096e-12 2213.016151)
(-4958.467902 4.533325601e-12 2433.746103)
(-5034.245069 0 2635.61489)
(-5050.365635 -2.273862789e-12 2805.358012)
(-4977.357403 0 2928.287558)
(-4800.805704 -2.28640362e-12 2994.265339)
(-4536.341277 2.294539183e-12 3005.64332)
(-4237.209109 1.151928209e-12 2983.485355)
(-3981.491057 0 2962.907018)
(-3827.590117 -1.162939821e-12 2966.68973)
(-3756.714365 1.169258966e-12 2966.731214)
(-3673.514844 -5.880503968e-13 2880.405813)
(-3381.450495 0 2563.526973)
(-1200.343483 0 -11805.97437)
(-793.124664 -1.846553567e-10 -11689.64723)
(-1584.001911 1.138672091e-10 -11565.03849)
(-2895.646786 0 -11233.53099)
(-3398.966964 0 -10872.19237)
(-3968.645179 0 -10446.7932)
(-4509.24754 4.8941242e-11 -9968.543567)
(-4973.137928 0 -9454.225408)
(-5361.965518 -3.95645858e-11 -8916.161697)
(-5680.625587 0 -8365.189861)
(-5932.480481 3.385609801e-11 -7811.019537)
(-6121.911809 0 -7261.860355)
(-6254.248131 -3.005893583e-11 -6724.267273)
(-6335.874348 0 -6203.072051)
(-6374.658545 0 -5701.581509)
(-6378.096414 0 -5221.740869)
(-6353.2274 0 -4764.566532)
(-6307.77697 -2.464812055e-11 -4329.948248)
(-6248.475734 -1.198316389e-11 -3917.667381)
(-6181.754148 0 -3527.21519)
(-6112.826846 0 -3158.206054)
(-6045.582981 0 -2810.656948)
(-5983.319786 -1.099621504e-11 -2484.68563)
(-5927.414088 0 -2180.98044)
(-5878.862612 0 -1899.746787)
(-5837.591171 0 -1641.404961)
(-5803.046424 0 -1405.438077)
(-5774.870342 0 -1190.677171)
(-5752.604831 1.022665714e-11 -994.9090648)
(-5736.789002 0 -814.6566945)
(-5728.097466 0 -645.4666954)
(-5728.359872 0 -481.7756175)
(-5739.875981 -4.998649078e-12 -317.2271612)
(-5764.90146 -4.982612888e-12 -145.4137632)
(-5805.69295 4.970916034e-12 40.0237974)
(-5863.385596 0 244.2520454)
(-5936.863079 2.479720755e-12 470.7422846)
(-6021.264276 0 720.2077261)
(-6105.751494 -2.481165548e-12 989.9427976)
(-6170.431297 -2.484341679e-12 1272.580576)
(-6184.033271 2.489046886e-12 1555.240942)
(-6104.18363 0 1818.775038)
(-5886.092138 1.251387238e-12 2039.590315)
(-5495.692856 0 2193.473857)
(-4910.931295 1.260939488e-12 2254.136893)
(-4092.634543 -1.266663703e-12 2175.32307)
(-2945.680354 6.364965666e-13 1874.613049)
(-1341.442462 0 1272.280548)
(741.4587387 -6.436997928e-13 373.2083776)
(2065.530321 1.943170914e-12 -159.1234743)
(-1587.560555 -1.188036878e-09 -18658.3046)
(-1155.005087 0 -18460.49216)
(-2236.159199 0 -18228.17805)
(-3965.063066 0 -17658.97817)
(-4659.713662 0 -17033.83408)
(-5428.582453 0 -16306.34723)
(-6149.022844 0 -15499.85006)
(-6760.163808 -9.5886567e-11 -14646.04093)
(-7265.16 0 -13768.52227)
(-7670.887533 0 -12887.19459)
(-7983.241691 3.721903636e-11 -12019.23903)
(-8209.66991 0 -11178.52012)
(-8359.046051 -6.608940136e-11 -10375.72153)
(-8440.962977 0 -9618.817932)
(-8465.095432 3.010613677e-11 -8913.879508)
(-8440.714594 2.895203535e-11 -8265.955893)
(-8376.426205 2.79577724e-11 -7679.138127)
(-8278.248288 0 -7157.760359)
(-8150.603567 0 -6706.713045)
(-7997.637907 0 -6330.332477)
(-7821.293862 2.511964423e-11 -6032.756328)
(-7623.87437 0 -5816.619548)
(-7407.909205 -1.208847299e-11 -5682.171679)
(-7177.552035 2.379062586e-11 -5626.551186)
(-6938.426299 1.172613879e-11 -5643.062044)
(-6698.207062 0 -5721.459773)
(-6466.660188 0 -5847.739216)
(-6254.41777 0 -6005.625354)
(-6073.161738 0 -6176.940974)
(-5934.637953 -1.116092527e-11 -6342.768762)
(-5849.95836 0 -6483.81009)
(-5828.551321 1.65537596e-11 -6580.63629)
(-5877.51815 0 -6613.263779)
(-6000.464793 5.477537625e-12 -6561.081997)
(-6196.666723 -5.464678881e-12 -6403.227059)
(-6460.719138 -5.456279677e-12 -6120.326794)
(-6782.777744 5.452064596e-12 -5697.15661)
(-7149.681803 -5.451790542e-12 -5126.027743)
(-7546.133391 -5.455241304e-12 -4410.508517)
(-7954.747236 0 -3567.888498)
(-8352.592597 -2.736284784e-12 -2628.410528)
(-8701.769573 -5.486124074e-12 -1628.576821)
(-8947.763893 2.751375957e-12 -597.483025)
(-9031.276383 1.380583009e-12 449.7015056)
(-8897.36158 0 1485.958852)
(-8535.154792 -1.392481866e-12 2453.244081)
(-8137.144243 0 3365.480262)
(-8028.591303 0 4360.656512)
(-7822.636597 7.076387292e-13 5240.592246)
(-6217.863019 3.560311293e-13 5210.438237)
(-2054.827151 0 -28429.9042)
(-1723.573594 0 -28090.45621)
(-3310.555824 0 -27840.86093)
(-5617.247462 1.621145429e-10 -27165.76983)
(-6586.60726 -1.296415651e-10 -26397.70928)
(-7622.752597 0 -25523.89275)
(-8548.44241 0 -24572.63065)
(-9292.499578 0 -23583.12977)
(-9867.001889 7.67061466e-11 -22589.32868)
(-10286.1674 0 -21618.53911)
(-10562.93442 -6.563877168e-11 -20694.21247)
(-10712.40211 -6.161497134e-11 -19836.06525)
(-10749.9298 0 -19060.99838)
(-10689.53517 0 -18384.29689)
(-10542.88039 0 -17820.44462)
(-10319.48136 2.552962441e-11 -17382.45468)
(-10026.69201 4.930578596e-11 -17081.36194)
(-9668.822712 0 -16924.42324)
(-9250.384679 0 -16912.18015)
(-8779.177769 0 -17034.4646)
(-8264.740645 0 -17268.87858)
(-7721.335265 0 -17577.20163)
(-7167.579739 0 -17905.24141)
(-6625.207472 0 -18183.11788)
(-6117.665699 0 -18329.27764)
(-5667.618901 0 -18257.77593)
(-5295.174753 -1.009620547e-11 -17889.0652)
(-5015.918221 0 -17163.84048)
(-4841.399184 -9.913505491e-12 -16056.96363)
(-4781.291196 0 -14587.59395)
(-4846.482373 0 -12821.24703)
(-5053.557118 0 -10860.456)
(-5426.490579 0 -8825.855818)
(-5993.873837 0 -6833.274612)
(-6779.866899 0 -4976.10964)
(-7790.306499 0 -3316.817691)
(-8999.170926 0 -1888.361693)
(-10337.11609 0 -700.4547227)
(-11692.47006 0 252.9846635)
(-12938.37021 0 988.7297097)
(-14000.5326 0 1530.102758)
(-14925.21665 4.837611092e-12 1900.478927)
(-15842.2343 0 2113.50222)
(-16745.76719 0 2165.835439)
(-17258.98397 0 2047.353489)
(-16819.7786 0 1766.796488)
(-15356.71703 0 1351.014762)
(-13351.50602 1.240717983e-12 788.2080383)
(-10695.24042 0 39.47714332)
(-6937.038082 0 -776.0711548)
(-2606.189662 0 -39932.40672)
(-2332.059708 0 -39396.55439)
(-4280.202694 0 -38895.05169)
(-7059.630304 0 -37762.58325)
(-8245.194365 0 -36464.2759)
(-9486.330505 0 -35015.60715)
(-10549.2045 0 -33477.0702)
(-11352.74924 0 -31918.11167)
(-11917.62376 0 -30399.11924)
(-12266.38534 0 -28970.18097)
(-12416.36495 0 -27672.87876)
(-12385.42542 0 -26542.33873)
(-12188.97595 0 -25607.53901)
(-11838.89388 0 -24889.98258)
(-11346.53912 0 -24399.64214)
(-10725.24663 2.552962441e-11 -24130.67883)
(-9993.039256 0 -24056.3471)
(-9177.058642 0 -24124.62109)
(-8321.400927 0 -24254.00635)
(-7486.942153 0 -24336.64211)
(-6750.153227 0 -24246.38746)
(-6203.471559 0 -23851.46457)
(-5946.56704 0 -23037.75409)
(-6076.388066 0 -21728.53469)
(-6667.518233 0 -19905.4572)
(-7751.228036 0 -17613.81926)
(-9292.704581 0 -14956.30661)
(-11174.67203 0 -12069.94504)
(-13200.86939 0 -9100.984583)
(-15123.45607 -1.968319149e-11 -6180.269976)
(-16696.75796 0 -3412.466885)
(-17741.65262 0 -872.9475825)
(-18193.89852 0 1386.26129)
(-18109.48699 0 3331.388243)
(-17627.4413 0 4941.079116)
(-16912.23308 0 6204.781738)
(-16104.7448 0 7121.940231)
(-15298.38579 0 7703.568573)
(-14540.59043 0 7973.878882)
(-13847.81924 0 7970.54338)
(-13212.76652 0 7737.30847)
(-12591.11427 0 7304.715691)
(-11882.68507 0 6668.434389)
(-10953.09754 0 5793.25636)
(-9705.960954 0 4666.644893)
(-8129.084534 -1.227877028e-12 3370.292727)
(-6271.384158 0 2071.84492)
(-4241.271164 0 901.0397798)
(-2255.149889 0 -87.7914543)
(-899.3231659 0 -753.5911938)
(-3424.001469 0 -56749.83269)
(-3539.045318 0 -55911.82677)
(-6325.483542 0 -54974.80987)
(-9981.596358 0 -53095.12244)
(-11596.15995 0 -50955.92026)
(-13158.34911 0 -48640.05041)
(-14386.08979 0 -46274.27616)
(-15195.85329 0 -43988.81065)
(-15622.89059 0 -41892.83966)
(-15705.93542 0 -40072.7265)
(-15477.23906 0 -38588.8846)
(-14968.50715 0 -37471.39259)
(-14215.65262 0 -36712.52436)
(-13266.86768 -5.547341208e-11 -36256.94875)
(-12189.05102 0 -35992.8365)
(-11072.23057 0 -35749.80672)
(-10031.84002 0 -35306.79821)
(-9208.099578 0 -34415.35242)
(-8753.485068 0 -32841.39353)
(-8807.224318 0 -30423.77561)
(-9468.403293 0 -27123.49214)
(-10756.34743 0 -23051.94071)
(-12584.822 0 -18453.52522)
(-14756.13499 0 -13649.40393)
(-16988.35484 0 -8968.857631)
(-18978.31019 0 -4692.034951)
(-20476.69046 0 -1022.273617)
(-21344.27777 0 1921.403664)
(-21568.55764 0 4098.844768)
(-21236.55212 -9.841595743e-12 5540.184838)
(-20484.48481 0 6333.411749)
(-19456.19912 0 6605.995275)
(-18279.98166 0 6501.63445)
(-17063.38423 0 6155.928776)
(-15892.68462 0 5679.557783)
(-14833.198 0 5150.862909)
(-13925.85241 0 4618.646518)
(-13184.25735 0 4108.416015)
(-12592.39816 0 3629.207828)
(-12100.89953 0 3177.029995)
(-11623.08069 0 2736.926325)
(-11042.98864 0 2287.523641)
(-10251.71736 0 1812.630952)
(-9205.604047 0 1316.117999)
(-7967.621666 0 826.9259045)
(-6691.608687 0 388.3740837)
(-5543.829275 0 43.73220015)
(-4610.908632 0 -170.6963983)
(-3882.347943 0 -235.3017533)
(-3227.987122 0 -158.7185468)
(-4747.406804 0 -83574.1758)
(-5491.318891 0 -82209.77127)
(-9443.190417 0 -80526.53798)
(-14272.75278 0 -77487.4554)
(-16360.02334 0 -74152.61053)
(-18150.71321 0 -70752.0517)
(-19303.10771 0 -67538.66293)
(-19743.24945 0 -64730.35985)
(-19549.978 0 -62456.05268)
(-18820.10105 0 -60746.10696)
(-17667.36321 0 -59520.76281)
(-16238.90718 0 -58581.7882)
(-14726.22441 0 -57617.26172)
(-13370.78332 -5.547341208e-11 -56229.27101)
(-12454.15531 0 -53996.71885)
(-12266.09721 5.105924881e-11 -50573.20185)
(-13049.18696 0 -45796.70236)
(-14918.97075 0 -39763.92012)
(-17775.36636 0 -32828.22657)
(-21264.02782 0 -25506.15507)
(-24824.69414 0 -18341.06536)
(-27839.29547 0 -11794.26107)
(-29832.38554 0 -6183.062833)
(-30607.35449 0 -1675.859864)
(-30256.72704 0 1695.526855)
(-29060.78489 0 4006.783195)
(-27351.03673 0 5411.951168)
(-25412.09113 0 6104.455572)
(-23441.9826 0 6284.731479)
(-21557.10621 -9.841595743e-12 6130.349707)
(-19812.72946 0 5783.651035)
(-18227.66962 0 5347.629008)
(-16803.81567 0 4891.422859)
(-15538.86665 0 4456.403436)
(-14430.99028 0 4063.037624)
(-13477.22301 0 3716.073316)
(-12667.14647 0 3408.888201)
(-11974.52734 0 3126.840051)
(-11352.56886 0 2849.967914)
(-10735.26548 0 2556.337571)
(-10050.2012 0 2227.688838)
(-9242.006877 0 1857.492964)
(-8296.744582 0 1457.727906)
(-7247.287618 0 1057.274944)
(-6154.600192 0 690.4773099)
(-5077.24272 -1.227877028e-12 381.2066472)
(-4055.199462 0 133.3925475)
(-3118.963902 0 -65.31280979)
(-2312.508641 0 -229.1834632)
(-1763.102272 0 -364.6313717)
(-6910.237398 0 -128558.3106)
(-9013.158219 1.432008002e-09 -126197.0504)
(-14928.37245 0 -123004.6534)
(-21400.92069 0 -117999.9332)
(-23835.46295 0 -112942.806)
(-25367.19234 0 -108307.6717)
(-25686.7449 -1.897704228e-10 -104386.2174)
(-24898.61008 0 -101207.9551)
(-23362.91362 0 -98486.94141)
(-21513.0685 1.411272662e-10 -95670.85831)
(-19847.5099 -1.312775434e-10 -92034.24162)
(-18906.12967 0 -86836.56573)
(-19200.83173 0 -79544.45503)
(-21093.72629 0 -70050.35469)
(-24633.58512 0 -58773.77603)
(-29425.17175 1.021184976e-10 -46561.20086)
(-34643.76127 4.930578596e-11 -34422.75136)
(-39253.53488 4.778673421e-11 -23267.56458)
(-42371.55731 0 -13744.63746)
(-43578.49179 0 -6194.868735)
(-42973.84998 0 -678.3293368)
(-41004.99724 0 2974.783278)
(-38217.65644 0 5091.14445)
(-35078.0112 0 6065.772649)
(-31911.05073 0 6280.370443)
(-28911.61347 0 6046.897807)
(-26179.33242 0 5588.649051)
(-23750.92224 0 5047.780432)
(-21624.80959 0 4505.838531)
(-19776.46029 0 4004.72766)
(-18171.87227 0 3561.988858)
(-16774.59611 0 3182.41603)
(-15552.99354 0 2863.007515)
(-14481.95805 0 2597.169921)
(-13542.56259 9.637401741e-12 2374.747771)
(-12717.36617 0 2183.436505)
(-11983.44125 0 2008.310592)
(-11306.01303 -4.807336091e-12 1833.545467)
(-10637.89639 0 1644.113495)
(-9927.916776 0 1429.817895)
(-9136.589518 2.412829394e-12 1188.723117)
(-8252.656597 2.418805546e-12 929.5955779)
(-7298.63049 0 669.3794868)
(-6322.589553 0 427.5102345)
(-5380.781459 -1.222328066e-12 219.8343275)
(-4520.545425 0 55.87124857)
(-3770.780258 0 -60.15242388)
(-3143.709215 0 -127.6434157)
(-2648.231606 0 -149.7151729)
(-2276.461118 -6.278896109e-13 -134.8404388)
(-10780.74226 0 -213141.6097)
(-15550.39962 0 -209280.9184)
(-24248.43 -8.830437264e-10 -203814.3348)
(-32225.40732 0 -196324.6856)
(-33897.74807 0 -189122.5866)
(-33887.5498 0 -182172.0598)
(-32598.1647 0 -174727.6287)
(-31020.80951 0 -165558.2053)
(-30384.72142 -1.534122932e-10 -153371.2459)
(-31741.26773 2.822545324e-10 -137384.42)
(-35716.50117 0 -117806.8529)
(-42216.08935 0 -95904.39767)
(-50240.6562 0 -73566.184)
(-58068.74224 -1.109468242e-10 -52656.652)
(-63877.97801 0 -34555.09039)
(-66513.52381 0 -20009.63384)
(-65864.41796 0 -9196.326369)
(-62645.44474 0 -1841.729156)
(-57890.56597 0 2638.388964)
(-52518.3064 0 4974.659093)
(-47150.5887 0 5877.434981)
(-42133.79 0 5930.242841)
(-37619.33283 0 5546.071149)
(-33643.39577 0 4987.285113)
(-30183.27306 0 4401.706207)
(-27191.2926 0 3864.484652)
(-24612.86479 0 3404.758412)
(-22393.26415 0 3027.998067)
(-20481.29659 0 2726.22373)
(-18828.51931 -9.841595743e-12 2487.57381)
(-17391.22225 -9.781168704e-12 2298.665324)
(-16130.77918 0 2147.499952)
(-15015.10843 0 2023.388443)
(-14018.31545 -9.660079362e-12 1916.604273)
(-13117.89184 0 1817.753493)
(-12291.67493 0 1716.916304)
(-11512.9734 0 1604.061473)
(-10749.70915 0 1469.961712)
(-9968.746772 0 1308.98428)
(-9144.992273 0 1121.422261)
(-8271.026722 0 914.9001284)
(-7360.911232 0 702.8419388)
(-6444.87613 0 500.5419554)
(-5558.859336 0 320.9252395)
(-4733.253225 0 171.5499822)
(-3987.013515 0 54.1778522)
(-3328.056547 0 -33.86956472)
(-2758.583754 0 -97.52013176)
(-2284.866132 0 -142.4161278)
(-1939.35597 0 -174.9053532)
(-16774.81948 8.380795319e-09 -403309.1846)
(-25977.48943 0 -396467.9577)
(-38130.47339 8.830437264e-10 -382468.7923)
(-47549.5351 0 -362793.6673)
(-49496.72327 5.185662604e-10 -337453.8132)
(-52049.99625 0 -304710.12)
(-57172.25033 0 -264257.893)
(-66178.91902 0 -218151.7876)
(-78786.56327 3.068245864e-10 -170413.2226)
(-92652.0601 -2.822545324e-10 -125374.61)
(-104208.2619 0 -86216.49083)
(-110411.7773 0 -54562.95711)
(-110206.2881 1.165539884e-10 -30759.78082)
(-104634.721 -1.109468242e-10 -14249.89334)
(-95794.77831 0 -3859.804096)
(-85690.65811 0 1912.864225)
(-75674.69469 0 4574.374528)
(-66454.72336 0 5376.785114)
(-58309.80396 0 5213.082258)
(-51273.76184 0 4636.58975)
(-45264.08531 0 3952.814509)
(-40155.29447 -2.170744419e-11 3311.669465)
(-35813.89399 0 2773.04745)
(-32116.02068 0 2351.582982)
(-28954.03955 0 2038.683541)
(-26238.26873 0 1817.880898)
(-23894.80033 0 1669.522623)
(-21863.12451 0 1574.896485)
(-20092.99497 0 1517.312971)
(-18541.62745 -9.841595743e-12 1482.695052)
(-17171.0357 0 1460.076572)
(-15948.95933 0 1440.470021)
(-14847.10354 0 1417.367402)
(-13841.03154 0 1384.749221)
(-12907.92054 0 1337.545175)
(-12024.89143 0 1270.671381)
(-11167.70646 0 1180.143477)
(-10312.86934 0 1064.007)
(-9442.970322 -4.810378996e-12 924.2376221)
(-8551.953819 0 767.151996)
(-7648.301 2.412829394e-12 602.9113779)
(-6752.389298 0 442.89259)
(-5890.452983 -1.213068337e-12 297.1955503)
(-5087.222828 0 172.7058177)
(-4360.630299 -1.222328066e-12 72.61387042)
(-3720.351082 0 -2.833281225)
(-3168.839362 0 -55.19554138)
(-2704.92723 0 -86.96371173)
(-2329.449009 0 -101.2245742)
(-2043.777601 0 -102.1088622)
(-28260.99143 0 -831531.7266)
(-54649.14959 0 -795041.3203)
(-84651.28648 -1.766087453e-09 -700550.3231)
(-113509.7651 0 -581900.3611)
(-140433.0304 0 -453194.5545)
(-170204.0521 0 -332342.2283)
(-196277.9531 0 -230020.5561)
(-211286.8883 0 -149401.1658)
(-211545.779 0 -89606.83465)
(-198975.0138 2.822545324e-10 -48123.51459)
(-178845.8226 0 -21669.4312)
(-156308.0739 0 -6540.684492)
(-134656.5362 0 927.9722021)
(-115395.6244 -1.109468242e-10 3821.593655)
(-98924.92456 0 4338.149112)
(-85111.01436 1.021184976e-10 3820.014249)
(-73615.07128 0 2983.630043)
(-64065.76345 0 2167.651625)
(-56122.68112 0 1506.310319)
(-49486.65874 0 1028.84082)
(-43912.15474 0 721.3206148)
(-39199.21577 0 551.7937389)
(-35187.82585 0 486.9573898)
(-31749.33614 0 496.0744922)
(-28781.36926 0 554.2583238)
(-26203.67317 0 641.3550554)
(-23950.79461 0 742.4975786)
(-21970.84071 0 845.6116577)
(-20220.58517 0 942.3512714)
(-18663.49 -9.841595743e-12 1025.756217)
(-17266.86791 0 1091.392087)
(-16002.28615 0 1135.695689)
(-14844.05547 0 1156.307692)
(-13768.61494 0 1151.349919)
(-12754.37763 0 1119.355038)
(-11780.84553 0 1059.74418)
(-10829.91845 0 973.261783)
(-9888.38793 0 863.1583315)
(-8951.293002 0 735.4274614)
(-8023.502968 0 598.5121759)
(-7118.551417 -2.412829394e-12 461.8450893)
(-6254.383674 0 333.9761305)
(-5448.937462 0 221.2681745)
(-4715.755861 0 127.1459687)
(-4062.114174 0 52.39631087)
(-3489.407181 0 -4.150807936)
(-2994.614133 0 -44.80338032)
(-2573.049367 0 -72.40968501)
(-2223.09015 0 -90.06159916)
(-1954.113887 0 -101.171751)
(-110012.6846 0 -1039812.575)
(-276066.6157 0 -884860.4499)
(-417669.179 3.532174906e-09 -649928.0254)
(-490450.9302 0 -432373.455)
(-501496.6376 0 -263018.02)
(-462510.3943 0 -144982.893)
(-399475.3566 0 -70302.13481)
(-333640.6832 0 -28062.73286)
(-275181.8706 0 -7381.046061)
(-226744.4948 0 810.1886545)
(-187724.5518 0 2790.907795)
(-156576.3607 0 2211.552428)
(-131717.377 0 891.847644)
(-111795.5794 -2.218936483e-10 -383.1120539)
(-95724.95328 0 -1341.136831)
(-82653.14625 0 -1939.709709)
(-71925.20501 0 -2227.013521)
(-63047.20683 0 -2271.446822)
(-55636.98079 4.646490293e-11 -2143.673253)
(-49398.78337 4.531075074e-11 -1904.169808)
(-44104.86786 0 -1598.876279)
(-39576.94478 0 -1263.806439)
(-35676.40455 2.131899682e-11 -922.7372357)
(-32292.75302 0 -593.5043384)
(-29338.51137 -2.067999104e-11 -286.3414722)
(-26744.54315 0 -8.757990503)
(-24453.80594 0 235.9204463)
(-22419.96651 0 445.3240773)
(-20604.00717 0 618.7305094)
(-18972.05056 0 755.947697)
(-17494.11743 9.781168704e-12 857.2403765)
(-16142.77024 0 923.4650021)
(-14893.70686 0 955.4023349)
(-13724.39189 9.660079362e-12 954.5650706)
(-12615.40525 0 922.5801309)
(-11550.50821 0 862.4253744)
(-10518.00077 0 778.2154877)
(-9512.598453 0 676.0368159)
(-8536.23731 0 563.2128445)
(-7597.432562 0 447.8180678)
(-6708.375737 0 337.2048387)
(-5881.836342 1.209402773e-12 237.1190758)
(-5128.179541 0 151.1962002)
(-4453.315179 0 80.88767036)
(-3858.63051 0 25.991931)
(-3341.828237 -1.227877028e-12 -14.76422117)
(-2898.100557 0 -43.18529945)
(-2522.096716 0 -61.26257238)
(-2211.073988 -6.239889687e-13 -71.02293467)
(-1966.558997 0 -74.7102408)
(-424184.3804 0 -486018.0449)
(-768067.1564 0 -331893.6986)
(-874167.1795 0 -177548.513)
(-794901.9944 2.593832687e-09 -68706.80586)
(-654844.6511 0 -16164.64614)
(-521283.1218 0 1649.918078)
(-413043.032 -7.590816911e-10 3903.26078)
(-329952.9133 0 1017.324837)
(-266889.9507 3.068245864e-10 -2622.561584)
(-218726.0457 0 -5533.046313)
(-181492.3042 0 -7410.390557)
(-152327.4937 -2.464598854e-10 -8362.964116)
(-129193.7839 0 -8606.036569)
(-110624.1609 0 -8351.63941)
(-95544.16662 0 -7776.08502)
(-83156.68014 1.021184976e-10 -7015.512136)
(-72876.70757 1.479173579e-10 -6165.033883)
(-64268.63461 0 -5289.785917)
(-56994.53093 0 -4435.927947)
(-50798.29507 0 -3630.675565)
(-45480.15671 0 -2890.563421)
(-40884.59644 0 -2223.790291)
(-36889.2034 0 -1632.608198)
(-33394.56258 0 -1116.255743)
(-30321.12676 0 -671.3563202)
(-27604.53756 0 -293.6905658)
(-25191.44931 -2.019241095e-11 21.39033509)
(-23036.21011 0 278.7665739)
(-21101.04234 -9.913505491e-12 482.5231797)
(-19351.9096 0 637.0071883)
(-17759.02304 0 745.5637362)
(-16295.43588 0 811.9721995)
(-14937.56862 0 839.5705645)
(-13664.64577 0 832.2353804)
(-12460.13706 0 794.242975)
(-11312.20444 0 730.8161082)
(-10214.14375 0 648.1156027)
(-9165.21688 0 553.1607208)
(-8169.647429 0 453.1338124)
(-7235.207655 0 354.7863929)
(-6370.100872 0 263.4839636)
(-5581.421402 1.209402773e-12 182.918544)
(-4873.230151 -1.213068337e-12 114.9865945)
(-4245.823195 0 60.04742642)
(-3696.446587 0 17.37618513)
(-3220.067526 0 -14.39778729)
(-2810.265462 0 -36.96571188)
(-2460.714966 6.203589913e-13 -52.09687003)
(-2167.912924 0 -61.56007321)
(-1934.91738 0 -67.18378867)
(-503820.988 0 22883.14822)
(-819409.8692 0 41089.07157)
(-868523.8525 0 29925.78379)
(-768218.9121 0 13176.53939)
(-624227.4414 0 -2509.852096)
(-497710.8393 0 -13201.09702)
(-397728.5901 0 -19111.6195)
(-321043.0707 0 -21642.48089)
(-262439.1485 0 -22072.25423)
(-217292.3051 0 -21253.31818)
(-182052.7371 0 -19723.66551)
(-154155.9465 0 -17828.47655)
(-131775.795 0 -15790.84959)
(-113598.2544 -1.109468242e-10 -13754.04003)
(-98658.53382 0 -11808.78121)
(-86248.01379 0 -10004.96968)
(-75843.94889 0 -8364.223788)
(-67044.86953 0 -6895.760955)
(-59543.57776 0 -5599.393446)
(-53105.14946 0 -4465.591188)
(-47542.08725 0 -3484.056375)
(-42707.84941 0 -2640.647071)
(-38484.59308 0 -1922.692667)
(-34775.77066 0 -1316.551655)
(-31503.13933 0 -810.5171455)
(-28601.70506 0 -392.8615057)
(-26017.19777 0 -54.33430634)
(-23702.77773 0 214.2776171)
(-21619.0443 0 420.1279525)
(-19730.94877 -9.841595743e-12 570.1109489)
(-18007.86933 0 670.05258)
(-16423.20395 0 725.5153518)
(-14953.93684 0 741.9896675)
(-13581.44614 0 724.9971017)
(-12291.81841 0 680.6927461)
(-11076.40718 0 615.4743499)
(-9931.330554 0 536.2944731)
(-8857.006844 0 449.913955)
(-7857.01293 0 362.621658)
(-6936.110427 0 279.5779711)
(-6097.9757 0 204.4715691)
(-5344.656876 0 139.5347278)
(-4675.441819 0 85.58116082)
(-4086.964874 0 42.39994287)
(-3574.028099 0 9.10154903)
(-3130.223125 -1.227877028e-12 -15.54930089)
(-2748.585425 0 -32.93510082)
(-2422.756748 0 -44.40778279)
(-2149.004148 0 -51.25228646)
(-1928.258761 0 -54.77991284)
(-470702.9478 0 166459.2423)
(-770643.1745 0 95433.50052)
(-823891.2015 0 29196.27243)
(-737248.7573 0 -12266.36636)
(-607671.4509 0 -31381.9441)
(-491167.5368 0 -38435.82291)
(-397505.0996 0 -39426.0623)
(-324474.8 0 -37426.65305)
(-267761.729 0 -34082.56816)
(-223462.8834 0 -30267.68087)
(-188471.0299 0 -26421.56919)
(-160469.5387 0 -22763.11311)
(-137776.8421 0 -19397.06702)
(-119164.6198 -1.109468242e-10 -16368.65512)
(-103733.1934 0 -13686.69279)
(-90820.73997 1.021184976e-10 -11335.33215)
(-79923.9504 0 -9290.972463)
(-70652.76312 0 -7528.6867)
(-62711.43361 0 -6018.53235)
(-55868.1094 0 -4731.682215)
(-49936.36769 0 -3642.23895)
(-44768.92038 0 -2724.77417)
(-40245.28234 0 -1958.359111)
(-36266.50149 0 -1322.780301)
(-32751.18965 0 -801.7157181)
(-29631.19591 0 -379.9363052)
(-26849.10378 0 -45.16569164)
(-24355.70801 0 213.741902)
(-22108.90064 0 406.2547154)
(-20072.63691 -9.841595743e-12 540.5622732)
(-18214.97645 0 624.3624934)
(-16509.55521 0 664.456009)
(-14934.26122 0 667.8740945)
(-13472.06702 0 641.2855051)
(-12111.0332 0 591.8081366)
(-10843.97611 0 526.2740656)
(-9667.633472 0 451.4823431)
(-8581.460531 0 373.4212794)
(-7586.571673 0 297.2308259)
(-6683.835658 0 226.6557365)
(-5872.803031 0 164.1236725)
(-5151.3893 0 110.8735621)
(-4515.348722 0 67.09041788)
(-3958.79533 0 32.26715392)
(-3474.916847 0 5.471656806)
(-3056.386386 -1.227877028e-12 -14.41709621)
(-2695.824418 0 -28.58710011)
(-2386.751956 0 -38.17377217)
(-2125.278369 0 -44.24622914)
(-1912.47765 0 -47.86651445)
(-322340.7251 0 310075.3753)
(-579267.8192 0 198328.5439)
(-685481.7007 0 83736.59795)
(-664170.1641 0 9120.597135)
(-578453.6119 0 -26525.0766)
(-483579.528 0 -40158.74165)
(-399952.6513 0 -43166.42222)
(-331428.8927 0 -41370.45446)
(-276478.3947 0 -37549.08379)
(-232555.398 0 -33061.52433)
(-197268.3607 0 -28560.43223)
(-168658.7722 0 -24341.37352)
(-145222.7572 0 -20526.25479)
(-125831.1356 -1.109468242e-10 -17149.66504)
(-109643.705 0 -14200.2814)
(-96022.24849 1.021184976e-10 -11647.89091)
(-84467.68992 0 -9457.653877)
(-74598.24457 0 -7592.099366)
(-66121.36567 0 -6010.172219)
(-58798.90898 0 -4677.030806)
(-52441.50996 0 -3559.656376)
(-46896.10506 0 -2629.260265)
(-42037.4433 0 -1860.413458)
(-37761.98214 0 -1231.071734)
(-33983.11257 0 -722.0079672)
(-30628.93588 0 -316.9129547)
(-27637.70921 0 -1.459985574)
(-24957.84862 0 236.289323)
(-22544.37028 0 407.403438)
(-20359.57088 -9.841595743e-12 520.9688622)
(-18370.94668 0 585.8796806)
(-16552.04212 0 609.9962129)
(-14881.46791 0 601.1901032)
(-13343.03333 0 566.8721221)
(-11925.52381 0 514.3365165)
(-10621.60708 0 450.3017973)
(-9426.942884 0 380.8712538)
(-8338.669638 0 311.0578979)
(-7354.723103 0 244.833178)
(-6472.119278 0 184.8211373)
(-5686.875808 0 132.5422227)
(-4993.709815 0 88.56337703)
(-4385.838918 0 52.70763205)
(-3855.713272 0 24.33740855)
(-3395.559203 0 2.569325564)
(-2997.596933 0 -13.58200819)
(-2654.360414 0 -25.09966189)