/*--------------------------------*- C++ -*----------------------------------*\
  =========                 |
  \\      /  F ield         | OpenFOAM: The Open Source CFD Toolbox
   \\    /   O peration     | Website:  https://openfoam.org
    \\  /    A nd           | Version:  7
     \\/     M anipulation  |
\*---------------------------------------------------------------------------*/
FoamFile
{
    version     2.0;
    format      ascii;
    class       volTensorField;
    location    "0.0006";
    object      grad(U);
}
// * * * * * * * * * * * * * * * * * * * * * * * * * * * * * * * * * * * * * //

dimensions      [0 0 -1 0 0 0 0];

internalField   nonuniform List<tensor> 
1167
(
(-44.57948571 -1.495902885e-12 3.09295761 -1.127359545e-12 -72.62630739 0 -0.6569461178 5.694363604e-14 120.855323)
(-41.70506818 -5.913206712e-13 2.844932149 2.034651772e-12 -67.89764047 -2.604354268e-11 -1.11003417 5.388984875e-13 113.05035)
(-55.5137569 -2.449891604e-13 6.922466973 1.112500666e-12 -59.55537851 0 -3.276462744 1.454756901e-13 113.1141797)
(-54.83127146 1.271214602e-13 11.39116481 6.86020423e-13 -57.03051998 0 -5.133866262 -2.984295632e-13 113.2813177)
(-56.29913895 -2.758710504e-13 15.81323924 5.037752218e-13 -56.66234856 0 -6.95706853 -4.443519267e-13 113.539668)
(-56.81362445 -1.435991929e-14 20.27651175 5.035807314e-13 -56.63355807 0 -8.735660225 -5.104875519e-13 113.8756139)
(-57.13799807 1.120328014e-13 24.80210254 3.389116356e-13 -56.67045112 0 -10.4133437 -2.622906175e-13 114.2767411)
(-57.51236985 -1.557796284e-13 29.42125779 1.474291493e-13 -56.74816414 0 -11.96634322 -2.256618517e-13 114.7318694)
(-57.91962708 4.31069452e-14 34.16125247 2.627470945e-13 -56.85596944 0 -13.3845772 -1.775914528e-13 115.2290306)
(-58.33743852 2.355730192e-13 39.05050593 2.383663752e-13 -56.98433302 0 -14.65800492 -2.397951959e-13 115.7545282)
(-58.75629109 3.169257438e-13 44.11920435 1.096391762e-13 -57.1267781 0 -15.77584891 -8.881201976e-14 116.2926502)
(-59.16482735 -2.948064837e-14 49.39827793 1.019871079e-13 -57.27855484 1.631793726e-12 -16.72797151 -1.922829785e-13 116.8254319)
(-59.54736966 -2.47751903e-13 54.91885455 0 -57.43550552 0 -17.50519328 -6.644507564e-14 117.3323812)
(-59.88498905 -1.344081507e-13 60.71185162 0 -57.59358251 0 -18.09926568 -3.926061997e-14 117.7902235)
(-60.15589987 -9.49464766e-14 66.80754088 3.447701845e-13 -57.74865503 0 -18.50291342 -7.48302529e-14 118.1726723)
(-60.33526607 -9.425862215e-14 73.23497363 3.299857404e-13 -57.89639618 0 -18.71002586 -5.060589006e-14 118.4501369)
(-60.39497031 -2.071670588e-13 80.02146973 4.760038929e-13 -58.03220595 6.346718572e-13 -18.71602317 -6.487752792e-14 118.5895542)
(-60.30367482 -2.789065174e-13 87.19185649 1.53219031e-13 -58.15115846 0 -18.51803791 -5.701503061e-14 118.5542932)
(-60.0265742 -1.473383929e-13 94.767887 2.969970754e-13 -58.24798896 0 -18.11538856 -8.880291151e-14 118.3039888)
(-59.52532614 -8.897525947e-14 102.7675055 1.443909124e-13 -58.31705465 0 -17.51012043 -5.876452911e-14 117.7945864)
(-58.75857119 -2.491577018e-13 111.2041812 2.816087049e-13 -58.35234077 5.632174098e-13 -16.70727698 -3.938040212e-14 116.9784121)
(-57.6815996 -3.511533826e-13 120.0865908 1.376650321e-13 -58.34748678 0 -15.71575151 2.3792346e-14 115.8041814)
(-56.24647986 -3.088240868e-13 129.4179393 0 -58.29576869 -5.396516466e-13 -14.54899518 1.194151299e-13 114.2173801)
(-54.40292985 -8.954013097e-14 139.1957652 -1.324986909e-13 -58.19013787 -5.299947637e-13 -13.22545585 2.710630143e-14 112.1605624)
(-52.09834132 1.119192849e-13 149.4121105 -1.303815106e-13 -58.02326909 -5.215260422e-13 -11.76952545 -3.569023001e-14 109.5736861)
(-49.27807047 1.725829635e-13 160.0536999 0 -57.78758602 0 -10.2123865 -9.713208117e-14 106.3947221)
(-45.8863395 9.109057933e-14 171.1027454 1.269071473e-13 -57.47531344 5.07628589e-13 -8.592539802 -1.038138805e-13 102.5601769)
(-41.86662775 -2.255022402e-14 182.5385659 -1.254968989e-13 -57.0785436 -5.019875957e-13 -6.956565329 -9.749069395e-14 98.00551572)
(-37.16174183 -1.347129749e-14 194.3395762 0 -56.58928712 0 -5.359951533 -9.67422606e-14 92.66560682)
(-31.71417494 4.813512355e-16 206.4863973 0 -55.99951849 0 -3.867609219 -1.556966015e-13 86.47486943)
(-25.4658242 1.078768203e-13 218.9662829 -1.223320753e-13 -55.30122605 -4.89328301e-13 -2.554493024 -2.028732265e-13 79.36689392)
(-18.35683745 1.908013709e-13 231.7786399 0 -54.486425 0 -1.506477485 -2.283708687e-13 71.27352436)
(-10.32397058 1.340730335e-13 244.9423996 0 -53.54713985 0 -0.8211468482 -2.006426754e-13 62.12291656)
(-1.297498147 1.779876955e-13 258.5051245 -1.204622605e-13 -52.47534551 -4.818490422e-13 -0.6091512834 -1.96313605e-13 51.8363594)
(8.803246592 2.378063784e-13 272.5538236 0 -51.2628334 0 -0.9960622093 -2.228336196e-13 40.3236028)
(20.07566518 2.153716943e-13 287.2268861 0 -49.90100804 0 -2.12494898 -2.445971618e-13 27.4765463)
(32.64077815 1.594407952e-13 302.7243863 1.19609798e-13 -48.38059339 2.39219596e-13 -4.159769375 -2.383284016e-13 13.16209547)
(46.64936866 1.299051426e-13 319.3138034 0 -46.69126883 0 -7.289043818 -2.561622773e-13 -2.784742549)
(62.28517826 2.188318918e-13 337.3253516 -1.195113905e-13 -44.82128637 -2.390227811e-13 -11.72894169 -2.920818885e-13 -20.56445838)
(79.76101073 1.938617933e-13 357.1287973 1.195870339e-13 -42.75715191 2.391740679e-13 -17.72372487 -3.217416391e-13 -40.40887836)
(99.30368216 4.775572763e-13 379.0901657 -1.197401202e-13 -40.48353239 -2.394802404e-13 -25.54085549 -4.58635019e-13 -62.56567941)
(121.1268361 2.571556068e-13 403.5130164 1.199668981e-13 -37.98354624 2.399337962e-13 -35.45866084 -3.380767354e-13 -87.26990065)
(145.3953794 1.303643316e-14 430.5781873 -6.013201603e-14 -35.23954603 -1.202640321e-13 -47.74609206 -1.962565043e-13 -114.7060745)
(172.1938893 3.671866769e-13 460.3113895 0 -32.23435871 0 -62.63827542 -3.712871747e-13 -144.9735667)
(201.5169623 4.640744778e-13 492.6174394 -6.052888362e-14 -28.95268773 -1.210577672e-13 -80.31474053 -4.152376906e-13 -178.0756778)
(233.2931911 5.532037802e-13 527.4222268 0 -25.38217962 0 -100.8840268 -4.330291203e-13 -213.9560413)
(267.4501935 5.391408849e-13 564.9423706 6.105056575e-14 -21.51370379 0 -124.3765984 -4.041787479e-13 -252.5916325)
(304.1076577 4.279315497e-13 606.0128867 3.067781482e-14 -17.3403718 0 -150.8003963 -3.365081836e-13 -294.0981461)
(344.0923803 3.662484435e-13 652.2941713 0 -12.85278693 0 -180.397815 -2.797187125e-13 -338.7504492)
(389.6758049 4.196554789e-13 706.2180166 0 -8.02574161 0 -214.073188 -2.661395017e-13 -386.8962559)
(435.7059935 4.711269819e-13 775.1690263 0 -2.797918102 0 -248.1528581 -2.86162676e-13 -441.5820826)
(-37.4768927 -2.333610654e-13 2.521383127 3.757955066e-12 -61.00189048 0 -1.491325032 -2.444795315e-13 101.7278191)
(-49.90987326 3.732874834e-13 6.197091072 1.510855269e-12 -53.51343754 0 -4.234578166 -4.485144352e-13 101.832084)
(-49.36269466 6.639930462e-13 10.22345439 5.589988046e-13 -51.26195476 0 -6.652290487 -3.878665816e-13 102.0944753)
(-50.79874704 5.339675988e-13 14.18986054 2.736650757e-13 -50.96337513 0 -9.060685348 -2.849912382e-13 102.4947553)
(-51.42067265 -3.808460093e-13 18.20158177 0 -50.98621279 0 -11.42801254 -2.711646691e-13 103.0190254)
(-51.905879 -5.976268662e-13 22.27821332 3.682129428e-13 -51.08108287 0 -13.69707176 -1.449720543e-13 103.6558991)
(-52.47264637 -1.562649084e-13 26.44830445 1.601754417e-13 -51.22446134 0 -15.84695737 -2.582165575e-13 104.3960049)
(-53.10759527 -1.878929273e-13 30.73960287 2.854634385e-13 -51.40650525 0 -17.86926995 -3.487377165e-13 105.2298055)
(-53.79151502 -3.501471263e-13 35.18178233 1.294874169e-13 -51.6185398 0 -19.75509979 -1.228520011e-13 106.1466675)
(-54.51713848 1.384284446e-14 39.80683191 1.191182582e-13 -51.85470199 0 -21.49459741 -4.427367409e-14 107.1346247)
(-55.2760201 -3.073096731e-14 44.64839079 1.108046145e-13 -52.1107661 -1.772873833e-12 -23.07816915 6.461044559e-14 108.1801751)
(-56.05614781 -1.380394285e-13 49.74145607 1.040120491e-13 -52.38311101 0 -24.49665442 1.106967534e-13 109.2679983)
(-56.84285898 2.04248017e-13 55.122149 2.951316596e-13 -52.66827432 0 -25.74115089 -1.198252666e-14 110.3806719)
(-57.6192381 -3.840887742e-15 60.82760223 2.809335035e-13 -52.96276959 0 -26.80297882 3.003040416e-14 111.4983393)
(-58.36564609 -4.779037505e-14 66.89566974 2.688865058e-13 -53.26298526 0 -27.67373699 1.089311843e-14 112.5984075)
(-59.05957532 -1.969643937e-14 73.36447115 2.585788964e-13 -53.56507669 0 -28.34538003 -9.109796635e-15 113.6552056)
(-59.67553664 -5.575957418e-14 80.27221285 3.329318015e-13 -53.86493515 0 -28.81026769 -4.116042353e-14 114.639679)
(-60.18433788 -8.80737723e-14 87.65680907 3.226745719e-13 -54.15813399 1.290698287e-12 -29.06145207 -5.574704172e-14 115.5188941)
(-60.55307089 -1.636152304e-13 95.5553986 3.13749056e-13 -54.43986819 0 -29.0927964 -1.575414954e-15 116.2557439)
(-60.74463059 -2.736869959e-13 104.0041657 1.529778842e-13 -54.70494564 0 -28.89932999 5.215875788e-14 116.8083563)
(-60.71699835 -5.683259443e-13 113.0378888 2.991342929e-13 -54.94772407 0 -28.47783602 1.124798002e-13 117.129667)
(-60.42320116 -3.804706027e-13 122.6895646 1.46577087e-13 -55.16207606 -5.863083478e-13 -27.82722774 3.13030618e-14 117.166955)
(-59.81056879 -1.16681579e-14 132.9901841 0 -55.34136463 -5.758165631e-13 -26.94937861 -1.082833842e-13 116.861259)
(-58.82016588 6.114358401e-14 143.968342 1.416539141e-13 -55.47838674 -1.133231313e-12 -25.85010191 -8.515764885e-14 116.1469735)
(-57.38677213 1.692308646e-13 155.6502118 2.792786549e-13 -55.56534397 0 -24.5400553 -1.534171972e-13 114.9513896)
(-55.43821742 2.597352665e-13 168.0595588 0 -55.59382152 0 -23.03605295 -2.148045948e-13 113.1942598)
(-52.89485454 1.567191534e-13 181.2181229 0 -55.55474617 0 -21.36264429 -1.645025724e-13 110.7874544)
(-49.66948219 2.755784802e-13 195.1466753 1.350202697e-13 -55.43836333 5.400810789e-13 -19.55363977 -2.408906621e-13 107.6345915)
(-45.66673672 3.564023234e-13 209.8665119 0 -55.23422097 0 -17.65389851 -2.969833901e-13 103.6305932)
(-40.78231259 1.374513204e-13 225.4023017 1.329085478e-13 -54.93113901 5.31634191e-13 -15.72150088 -2.480411259e-13 98.66103693)
(-34.90203738 1.402192773e-13 241.7862964 0 -54.51717893 0 -13.82994943 -2.259051148e-13 92.60114799)
(-27.90009567 1.450229003e-13 259.0643317 -1.314189822e-13 -53.97959776 0 -12.07074897 -1.965368688e-13 85.3141303)
(-19.63625304 1.036536216e-13 277.3044212 1.308770759e-13 -53.30476853 0 -10.55656775 -1.764176944e-13 76.64850666)
(-9.95174862 1.555549314e-13 296.6081232 0 -52.47805506 0 -9.424900541 -2.138080302e-13 66.43404593)
(1.336643155 2.341191998e-13 317.1250246 0 -51.48361939 0 -8.842756865 -2.522399574e-13 54.47585482)
(14.44419465 2.690389957e-13 339.0690273 0 -50.30413989 0 -9.012323573 -2.678286646e-13 40.54666858)
(29.62657146 2.519658114e-13 362.7327177 1.298505238e-13 -48.9204396 2.597010476e-13 -10.17759908 -2.585462008e-13 24.3782633)
(47.18628237 3.470537283e-13 388.4933765 -1.298439963e-13 -47.31104466 -2.596879925e-13 -12.63122958 -2.998096876e-13 5.65461206)
(67.47172768 3.40929337e-13 416.7990336 1.299261783e-13 -45.4517655 5.197047132e-13 -16.71915979 -2.629393496e-13 -15.98810752)
(90.86142183 2.683157815e-13 448.118892 -1.300925001e-13 -43.31548561 -2.601850002e-13 -22.8397088 -2.457700997e-13 -40.94561273)
(117.7247717 2.970810149e-13 482.8520979 6.516944286e-14 -40.8724304 0 -31.43161248 -2.090183262e-13 -69.60598156)
(148.3531407 2.471598915e-13 521.1999955 6.533085412e-14 -38.09126201 2.613234165e-13 -42.94495092 -2.399187522e-13 -102.2812315)
(182.8565753 2.740181623e-13 563.0113588 0 -34.94130716 0 -57.78794055 -2.368864231e-13 -139.1052131)
(221.0147744 2.859107144e-13 607.599165 6.576203315e-14 -31.39622434 1.315240663e-13 -76.2388465 -2.068383492e-13 -179.8916632)
(262.0659185 1.981516801e-13 653.4808495 0 -27.4395744 1.320581324e-13 -98.31390335 -1.342590254e-13 -223.935743)
(304.4828402 1.618060449e-13 697.9452658 0 -23.07285006 0 -123.6269436 -1.036452907e-13 -269.7424032)
(345.9734224 1.993948917e-13 736.4199607 0 -18.32480928 0 -151.3914475 -1.187730192e-13 -314.7301565)
(383.746006 2.260372179e-13 762.1317673 0 -13.25646647 0 -180.619988 -1.299850181e-13 -355.2310995)
(412.9975177 3.485120229e-13 768.2454327 -1.685366288e-14 -7.960877384 -3.370732576e-14 -209.3707309 -2.134978527e-13 -387.9819716)
(425.0278407 3.583917286e-13 754.3089543 4.239754276e-15 -2.604102033 8.479508551e-15 -233.8137631 -2.116512404e-13 -414.0177635)
(-32.14903501 5.978699053e-14 2.135374424 -3.615465254e-13 -52.27474843 0 -1.757405051 -4.146546749e-13 87.23080912)
(-42.8692304 -1.359408207e-13 5.300600796 -8.236887595e-14 -45.88738575 1.054321612e-11 -4.884887507 -6.676781724e-13 87.35373273)
(-42.4856049 -3.930469356e-13 8.75843415 0 -43.9988879 0 -7.694378512 -1.772551475e-13 87.66800825)
(-43.830329 -4.484647498e-13 12.14258457 0 -43.78576972 0 -10.52130199 -1.79327356e-14 88.14409628)
(-44.51856158 -1.865405778e-13 15.5682906 1.193114001e-13 -43.85853187 -3.817964805e-12 -13.31785655 1.129161017e-13 88.76838203)
(-45.12694613 1.114473735e-13 19.05045 2.007424987e-13 -44.00392656 0 -16.03016495 -6.766290457e-14 89.53094879)
(-45.84428574 3.41452517e-13 22.61195205 1.746490397e-13 -44.20202522 0 -18.64257167 -1.271748252e-13 90.42369245)
(-46.66088156 -2.854213132e-13 26.27760407 1.556290867e-13 -44.4447132 2.490065386e-12 -21.15061261 -1.290332065e-13 91.43865839)
(-47.56151459 -7.012522021e-13 30.07464633 2.823760342e-13 -44.72477236 0 -23.54907014 -1.620570632e-13 92.56725046)
(-48.54161572 -3.305392675e-13 34.03266501 2.597637836e-13 -45.03734899 0 -25.83193494 -2.871409859e-13 93.80004711)
(-49.59616825 -4.194379935e-13 38.1832288 1.208170198e-13 -45.37902906 0 -27.99348903 -1.408107802e-13 95.12662185)
(-50.71757016 -1.793084746e-13 42.55977837 3.402320161e-13 -45.74696546 1.814570752e-12 -30.02841629 -2.365743113e-13 96.53532222)
(-51.89631601 2.042675931e-14 47.19758682 2.145333491e-13 -46.13850916 0 -31.93161618 -1.992755236e-13 98.01306226)
(-53.12137162 -1.605382303e-14 52.13371235 0 -46.55103847 -1.633700848e-12 -33.69809757 -1.877049458e-13 99.5451006)
(-54.38001843 3.636160489e-14 57.40702307 3.909111119e-13 -46.98188532 0 -35.32293396 -3.060624307e-13 101.1148928)
(-55.65756573 -4.423735738e-14 63.05802042 1.879628795e-13 -47.42825751 0 -36.8010638 -2.856626676e-13 102.7039073)
(-56.9373487 -9.146297014e-14 69.12898574 2.722618646e-13 -47.88719614 0 -38.12717248 -2.206254838e-13 104.2913669)
(-58.20035055 -1.980771464e-13 75.66406954 2.638738047e-13 -48.35554899 0 -39.29558731 -1.534796693e-13 105.8540194)
(-59.4248843 -2.784571334e-13 82.70931133 2.565747792e-13 -48.82992446 0 -40.30001364 -1.054605939e-13 107.3658516)
(-60.58635246 -2.155057235e-13 90.31299162 8.340055208e-14 -49.30666621 -6.672044167e-13 -41.13344376 -1.134768184e-13 108.7975922)
(-61.65650231 -1.519339729e-13 98.52576325 2.44623252e-13 -49.78181851 0 -41.78803615 -1.681619481e-13 110.1162455)
(-62.60276461 -1.351619033e-13 107.4010113 2.397328908e-13 -50.25106906 0 -42.25512027 -2.576266963e-13 111.2843056)
(-63.38755981 -1.943630605e-13 116.9952243 1.569619669e-13 -50.70969996 0 -42.52537724 -2.320536926e-13 112.258848)
(-63.96701274 5.97302153e-14 127.3682521 1.544538901e-13 -51.15252243 -6.178155603e-13 -42.58915397 -3.156498534e-13 112.99039)
(-64.28974368 4.181127166e-13 138.5838163 1.522572624e-13 -51.57378437 0 -42.4371739 -4.150340349e-13 113.4214223)
(-64.29539138 1.403546661e-13 150.7099341 3.006761049e-13 -51.96708133 6.013522097e-13 -42.06151094 -2.91630096e-13 113.484824)
(-63.91269584 2.308410369e-14 163.8192658 1.486674351e-13 -52.32523619 0 -41.45696997 -2.081919506e-13 113.1019718)
(-63.05791621 1.854637308e-13 177.9899344 1.472208219e-13 -52.64016681 0 -40.62275851 -2.608201046e-13 112.1806529)
(-61.63258995 2.357873229e-13 193.3066143 0 -52.90275682 0 -39.56472275 -2.14359863e-13 110.6126546)
(-59.52094263 1.548248073e-13 209.8618921 1.44918284e-13 -53.10268766 5.796731358e-13 -38.29814231 -1.516618508e-13 108.2711773)
(-56.58751292 -5.063501692e-14 227.7588453 0 -53.22826802 0 -36.85080262 -7.162277942e-14 105.0077274)
(-52.67362672 -1.959099293e-14 247.114837 -1.432941197e-13 -53.26625151 -1.146352957e-12 -35.26705157 -9.383349953e-14 100.6483829)
(-47.59315156 2.442956943e-13 268.0670186 -2.854064928e-13 -53.20160797 -5.708129857e-13 -33.61262501 -2.155918269e-13 94.98918255)
(-41.12704187 3.34221216e-13 290.7806336 1.422454386e-13 -53.01726977 5.689817542e-13 -31.98058074 -2.729251362e-13 87.78996932)
(-33.01576922 2.285274274e-13 315.4607583 0 -52.69380603 0 -30.49902612 -1.996149704e-13 78.76608813)
(-22.94923308 1.362968677e-13 342.3678866 1.416933935e-13 -52.2090151 2.833867869e-13 -29.34100892 -1.348479986e-13 67.57720382)
(-10.55323727 8.047055642e-14 371.8360314 0 -51.53739212 0 -28.73770458 -8.850176115e-14 53.81278709)
(4.626223122 7.051189203e-15 404.2900134 0 -50.64944337 2.83153637e-13 -28.99519425 -4.585252257e-14 36.97435993)
(23.13853549 9.80873978e-14 440.2505867 -2.833328501e-13 -49.51087141 -5.666657001e-13 -30.51522712 -3.507228319e-14 16.4578279)
(45.63681846 3.244213784e-13 480.3070229 0 -48.08169044 0 -33.81837239 -1.442934155e-13 -8.456273701)
(72.86610303 2.911721272e-13 525.0304276 1.421164243e-13 -46.31551486 2.842328486e-13 -39.56479405 -1.243639629e-13 -38.59177901)
(105.6192738 1.874071876e-13 574.8083222 0 -44.15942934 0 -48.56654786 -6.296058731e-14 -74.82905319)
(144.6641257 7.800901021e-14 629.6322422 7.145011311e-14 -41.55490088 2.858004524e-13 -61.78987056 8.67210805e-15 -118.019672)
(190.6869892 1.380868917e-13 688.9795066 -1.434086989e-13 -38.43982166 -2.868173979e-13 -80.3624739 -1.254737389e-14 -168.9094162)
(244.351395 3.895069751e-13 752.1023703 -7.199551308e-14 -34.75066146 -1.439910262e-13 -105.6169181 -1.502178249e-13 -228.2044966)
(306.5938875 4.939673019e-13 819.1564907 -7.232235018e-14 -30.42221267 0 -139.1824904 -2.280106196e-13 -296.9827082)
(379.3268811 4.076393673e-13 893.2545564 7.268373883e-14 -25.38135026 1.453674777e-13 -183.13051 -1.821862978e-13 -377.385273)
(466.6751608 4.528880249e-13 982.4688117 -3.653934269e-14 -19.52922074 -7.307868539e-14 -240.2601659 -2.309413812e-13 -472.6771993)
(576.8869378 4.786882411e-13 1099.534149 3.67531498e-14 -12.70716923 7.35062996e-14 -314.9128292 -2.724682388e-13 -585.24353)
(698.6301523 3.777835581e-13 1270.267552 0 -4.639890562 0 -398.13088 -1.983579663e-13 -721.56108)
(-25.96455303 7.959021979e-13 1.759778387 -2.638406768e-13 -42.22856814 0 -1.827606425 -5.126609328e-14 70.694535)
(-34.62526512 -5.72328481e-13 4.404578504 -8.114737355e-13 -37.06337353 1.154095979e-11 -5.018908873 -6.982591136e-15 70.82792128)
(-34.35079559 -8.537521341e-13 7.292022501 1.111984464e-13 -35.53865308 -7.116700568e-12 -7.920326194 1.407491835e-13 71.17762265)
(-35.51378188 -2.002374165e-13 10.10712293 1.633159016e-13 -35.38332831 0 -10.85472663 5.258312498e-14 71.70128151)
(-36.17213946 -3.25485372e-13 12.96123173 1.959034214e-13 -35.47149287 0 -13.7679718 1.729733328e-13 72.38736187)
(-36.78502967 -1.609420214e-13 15.86749085 2.197395066e-13 -35.62715686 0 -16.61234057 3.250992599e-14 73.22702072)
(-37.50519621 1.500102537e-13 18.84587575 9.558836327e-14 -35.83276641 0 -19.3770185 7.223374747e-14 74.21249504)
(-38.3242775 3.239109148e-13 21.91948599 1.703568448e-13 -36.08108074 0 -22.06077884 4.764200342e-14 75.33636357)
(-39.22847338 1.641330225e-13 25.11432609 2.318237449e-13 -36.36572629 2.472786613e-12 -24.66151574 -1.295975252e-13 76.59090434)
(-40.21239731 -1.337038015e-13 28.45883593 0 -36.68226533 0 -27.17639417 -1.074474524e-13 77.96784912)
(-41.27033804 -2.186522443e-13 31.98361372 -6.612519142e-14 -37.02744705 -2.116006125e-12 -29.60283027 -4.232126145e-14 79.45827939)
(-42.39455409 -2.183416055e-13 35.72129414 1.862147174e-13 -37.39849703 0 -31.9385196 -1.311262431e-13 81.05253118)
(-43.57595496 -1.685586383e-14 39.70644445 2.348354361e-13 -37.79282302 1.878683489e-12 -34.18124013 -2.672489741e-13 82.74015521)
(-44.80445825 3.609571173e-13 43.9753336 1.117690015e-13 -38.20788976 0 -36.32867263 -3.551288816e-13 84.50995152)
(-46.06932506 3.04317811e-13 48.56572508 1.069761203e-13 -38.641163 0 -38.37824357 -3.042942081e-13 86.35007676)
(-47.3593601 -2.20116873e-13 53.51677683 1.028752524e-13 -39.09010195 0 -40.32686804 -1.618084561e-13 88.24819272)
(-48.66283908 -3.858246874e-13 58.86891694 1.986846769e-13 -39.55215423 0 -42.17083166 -1.267240689e-13 90.19160162)
(-49.96782436 -3.158303716e-13 64.6637232 1.925634418e-13 -40.02474754 7.702537673e-13 -43.9055822 -1.346351208e-13 92.16754393)
(-51.26239961 -2.870722551e-13 70.94422182 9.361846791e-14 -40.50531874 7.489477433e-13 -45.52546463 -1.447847821e-13 94.16324112)
(-52.53455835 -1.789308233e-13 77.75539368 0 -40.99132296 0 -47.02370709 -1.816435942e-13 96.16588131)
(-53.77206465 -1.555906733e-13 85.14494947 0 -41.48024089 0 -48.39236694 -1.558775595e-13 98.16247529)
(-54.96190978 -1.120750822e-13 93.16462444 0 -41.96957272 0 -49.62240239 -1.726680892e-13 100.1393004)
(-56.0897505 -2.718180597e-14 101.8718806 1.7181586e-13 -42.45680599 1.37452688e-12 -50.70377854 -2.256366756e-13 102.0810985)
(-57.13858563 -4.804638342e-14 111.3321318 0 -42.93938121 0 -51.62577815 -2.440986266e-13 103.9697705)
(-58.08718697 -4.622375487e-14 121.6211041 0 -43.41459379 0 -52.37725189 -1.69163807e-13 105.7827631)
(-58.90834323 -1.317806477e-14 132.8278607 8.228255079e-14 -43.87949676 6.582604063e-13 -52.94689941 -1.202867293e-13 107.4909252)
(-59.56618361 -4.878913099e-14 145.0579573 1.627363848e-13 -44.33075405 0 -53.32369895 -1.205093161e-13 109.0559767)
(-60.01350402 -4.35931117e-14 158.4369846 1.61152875e-13 -44.76445742 0 -53.4972114 -9.869032241e-14 110.4275189)
(-60.18823245 -5.617670546e-14 173.1148285 7.989575888e-14 -45.17592294 -1.278332142e-12 -53.4582168 -6.031826439e-14 111.5395138)
(-60.00935802 1.889956813e-14 189.2705822 1.586324407e-13 -45.55942847 0 -53.19944644 -9.184388833e-14 112.3061843)
(-59.37194197 2.215532205e-13 207.1189099 1.576584419e-13 -45.90792922 0 -52.71676416 -1.74981218e-13 112.6169818)
(-58.140532 2.469234137e-13 226.9183855 7.842728774e-14 -46.21270089 0 -52.01119305 -2.147168159e-13 112.330346)
(-56.14108575 2.225655824e-13 248.9830298 7.810389185e-14 -46.46291809 6.248311348e-13 -51.09173982 -2.082225098e-13 111.2654641)
(-53.14949006 9.321111147e-14 273.6981863 7.785332638e-14 -46.6451395 6.228266111e-13 -49.98023176 -1.4455212e-13 109.1911639)
(-48.87594804 -1.456323057e-14 301.5425447 -7.767056303e-14 -46.74263479 -6.213645043e-13 -48.71865961 -1.017919633e-13 105.8106529)
(-42.9434805 6.346473754e-14 333.1190198 0 -46.73452343 0 -47.38036709 -1.540532705e-13 100.7400702)
(-34.85760842 1.312205746e-13 369.1966713 -7.749127359e-14 -46.59462506 -3.099650943e-13 -46.08695442 -1.98024793e-13 93.47867552)
(-23.96448952 5.009437959e-14 410.7660422 0 -46.28992089 0 -45.03316552 -1.76038516e-13 83.36758228)
(-9.395105315 6.496704225e-14 459.1071928 7.753642339e-14 -45.7784899 3.101456936e-13 -44.52242797 -2.187488787e-13 69.53437626)
(10.00365032 2.415500668e-13 515.8591563 7.763567746e-14 -45.00680713 3.105427098e-13 -45.01509215 -2.902793615e-13 50.82334088)
(35.74091694 2.312212745e-13 583.0559989 -7.778271519e-14 -43.90637442 -3.111308608e-13 -47.18844156 -2.586999202e-13 25.72036725)
(69.73142511 1.180291203e-13 663.0452519 7.797536724e-14 -42.38994944 3.119014689e-13 -52.00143723 -1.924880006e-13 -7.69484911)
(114.2642598 1.469524564e-13 758.1422847 -7.821170239e-14 -40.34810195 -3.128468096e-13 -60.74238274 -1.722137238e-13 -51.6986233)
(171.7377651 2.613011737e-13 869.8206843 0 -37.64790069 0 -74.98555363 -2.27409718e-13 -108.6601667)
(243.7846425 3.304732764e-13 997.1325761 0 -34.13832395 0 -96.24502074 -2.503618758e-13 -180.3736569)
(329.2757163 2.600742613e-13 1133.41303 7.916648144e-14 -29.67328411 1.583329629e-13 -125.0166922 -1.929240724e-13 -266.4041826)
(421.7030381 3.23065518e-13 1258.777584 -3.978103541e-14 -24.16723973 -1.591241416e-13 -159.556186 -1.930892532e-13 -359.9118212)
(508.4018216 5.211744019e-13 1328.624269 0 -17.67504261 0 -196.3453967 -2.866921381e-13 -441.1671743)
(562.398296 3.988157102e-13 1281.798061 2.011561852e-14 -10.44543809 4.023123705e-14 -228.7153783 -1.810696136e-13 -484.4445386)
(547.6950694 5.070224401e-13 1096.237525 -1.518102277e-14 -3.178035017 -2.024136369e-14 -258.6419481 -2.27946992e-13 -501.6477075)
(-19.82406896 5.310938706e-15 1.341962031 -9.42656214e-13 -32.21625548 3.712615243e-11 -1.725812615 6.835055055e-14 54.02606238)
(-26.48193358 -6.354698552e-13 3.370257265 -3.469191106e-13 -28.28954537 0 -4.704808599 2.898890036e-13 54.14643866)
(-26.35237874 -5.394128283e-13 5.583340534 2.444876557e-13 -27.1583314 0 -7.431995707 -1.408701861e-14 54.47550018)
(-27.34250604 -6.764239263e-13 7.731957345 1.346535965e-13 -27.07866638 0 -10.19403173 1.890349511e-15 54.97260476)
(-27.97789808 -7.508246143e-14 9.905846319 2.871501046e-13 -27.1925649 -4.594401674e-12 -12.9462405 -1.362351473e-13 55.62403186)
(-28.61169548 2.801956889e-13 12.11789476 2.415663106e-13 -27.36705403 3.86506097e-12 -15.64619327 -2.806251029e-13 56.42168209)
(-29.3605167 1.802012511e-13 14.38316444 1.576247846e-13 -27.58916765 0 -18.28604501 -2.684367093e-13 57.35976526)
(-30.21854252 3.189586122e-13 16.71957594 2.34098064e-13 -27.85350546 2.996455219e-12 -20.86722146 -1.983366491e-13 58.43254843)
(-31.17650076 -1.376294307e-13 19.14826993 1.699005871e-13 -28.15531276 0 -23.39034766 -2.692433755e-14 59.63398693)
(-32.23185702 -4.835382817e-13 21.69261438 7.814760109e-14 -28.49134422 0 -25.85541866 8.55097902e-14 60.9577112)
(-33.3822066 -3.104378624e-13 24.37756777 0 -28.85929133 -2.326189772e-12 -28.26280929 4.276015444e-14 62.39703819)
(-34.62413118 4.692637783e-13 27.22945292 6.823716402e-14 -29.2572653 0 -30.61328502 -1.418738305e-13 63.94499054)
(-35.95376054 3.920326962e-13 30.2756668 1.29080862e-13 -29.68358396 2.065293793e-12 -32.90784191 -1.15875965e-13 65.59437254)
(-37.36706551 -1.647480085e-13 33.54428627 0 -30.13668664 0 -35.14763546 1.003373652e-13 67.3378696)
(-38.85998031 -2.008653e-13 37.06366684 -5.880104838e-14 -30.61509375 -1.881633548e-12 -37.33402081 2.264508474e-13 69.1680889)
(-40.42823499 -8.603529181e-14 40.862078 5.654694404e-14 -31.11738863 -1.809502209e-12 -39.46883947 2.389295899e-13 71.07754675)
(-42.06714413 -7.380210304e-14 44.96726505 0 -31.64218337 -8.736803874e-13 -41.55476646 1.744120501e-13 73.05859698)
(-43.77147845 -2.057990515e-13 49.40639132 1.587681282e-13 -32.18809726 0 -43.59562035 1.441391593e-13 75.10307397)
(-45.53476955 -2.469419934e-13 54.20633373 2.058352472e-13 -32.75373157 0 -45.59703912 1.071965792e-13 77.20164558)
(-47.34872764 -3.291142628e-13 59.3938565 1.003612284e-13 -33.33760487 0 -47.56712748 1.040924529e-13 79.3432443)
(-49.20276279 -2.697441044e-13 64.99642063 9.812361028e-14 -33.93810797 -1.569977764e-12 -49.51685462 8.050674837e-14 81.51432904)
(-51.0834573 -1.615220787e-14 71.04335796 9.616198172e-14 -34.55344034 0 -51.46029669 -2.964771225e-14 83.69820756)
(-52.97437803 2.490148702e-15 77.56724279 9.444119521e-14 -35.18156113 7.555295617e-13 -53.4143913 -4.12961393e-14 85.87475294)
(-54.85625728 -1.519222553e-13 84.60563181 -9.293213227e-14 -35.82015008 -7.434570582e-13 -55.39824016 1.324966094e-14 88.02043354)
(-56.70764171 -1.107556138e-13 92.20298661 -9.161045926e-14 -36.46659982 -7.328836741e-13 -57.43179092 -1.4637819e-14 90.10896923)
(-58.50575635 -3.895602216e-14 100.4127964 0 -37.11803631 0 -59.53423881 -5.350567315e-14 92.11232871)
(-60.22779369 -1.947994792e-14 109.2997361 0 -37.77136549 0 -61.72212195 -5.876193932e-14 94.00226334)
(-61.85228085 -4.619315064e-14 118.9420864 0 -38.42335535 0 -64.00740129 -6.428371712e-14 95.75176346)
(-63.3601475 1.304611525e-13 129.4343757 1.756636688e-13 -39.07073028 0 -66.39587529 -1.423376472e-13 97.33654929)
(-64.73567487 1.813718478e-13 140.8905709 1.743894574e-13 -39.71026953 6.975578295e-13 -68.88569979 -1.35000676e-13 98.73601572)
(-65.96694116 6.245566774e-14 153.4485248 0 -40.33890521 0 -71.46621269 -8.109692932e-14 99.93346626)
(-67.04542484 1.038988207e-13 167.2765273 -2.586524937e-13 -40.95379753 -1.379479966e-12 -74.11679781 -7.417539976e-14 100.9150482)
(-67.96412441 2.361204459e-13 182.583534 0 -41.55237462 6.868958426e-13 -76.80581306 -1.340744307e-13 101.6668766)
(-68.71327257 3.659158283e-13 199.634836 0 -42.13229827 -6.846922031e-13 -79.48977972 -1.813980784e-13 102.1693362)
(-69.27238844 3.793989396e-13 218.7756767 8.538560751e-14 -42.6913189 6.830848601e-13 -82.11318578 -2.147433262e-13 102.3874051)
(-69.59710764 3.070489418e-13 240.4658994 8.525436995e-14 -43.22695416 6.820349596e-13 -84.6098973 -1.957231745e-13 102.2552475)
(-69.5984552 2.410901367e-13 265.3300427 0 -43.73592455 0 -86.90745499 -1.708361513e-13 101.6530197)
(-69.11157247 2.919889038e-13 294.2300476 8.518422721e-14 -44.21323408 0 -88.9358334 -1.963084262e-13 100.3723136)
(-67.84818482 2.087668639e-13 328.3733594 1.704762908e-13 -44.6507747 6.81905163e-13 -90.64359168 -1.746211648e-13 98.06416004)
(-65.32295123 1.011831738e-13 369.4768942 0 -45.03521581 0 -92.02689837 -1.165242214e-13 94.15857064)
(-60.73788561 9.736657891e-14 420.0152173 8.550889949e-14 -45.34482986 3.42035598e-13 -93.18196687 -9.686697378e-14 87.7363109)
(-52.78860577 -7.986087595e-14 483.5764208 1.714413773e-13 -45.54467018 6.857655092e-13 -94.40620939 2.498046333e-15 77.32176596)
(-39.33456608 -1.847237276e-13 565.3474819 -8.598049865e-14 -45.57887834 -3.439219946e-13 -96.39165584 3.008499925e-14 60.5352368)
(-16.89576739 5.055845979e-16 672.8265099 -8.628643804e-14 -45.35826001 -3.451457522e-13 -100.5559739 -3.75633872e-14 33.45596647)
(20.11031711 1.905333094e-13 816.952682 0 -44.74159924 0 -109.6149695 -1.239975007e-13 -10.56118681)
(81.38361733 1.704056483e-13 1013.742396 8.703011664e-14 -43.50735277 3.481204665e-13 -129.0568827 -9.178853388e-14 -82.91568671)
(188.3497201 7.499440416e-14 1288.767341 0 -41.28852506 0 -172.0000745 -4.128976858e-14 -204.5374637)