/*--------------------------------*- C++ -*----------------------------------*\
  =========                 |
  \\      /  F ield         | OpenFOAM: The Open Source CFD Toolbox
   \\    /   O peration     | Website:  https://openfoam.org
    \\  /    A nd           | Version:  7
     \\/     M anipulation  |
\*---------------------------------------------------------------------------*/
FoamFile
{
    version     2.0;
    format      ascii;
    class       volScalarField;
    location    "0.0006";
    object      p;
}
// * * * * * * * * * * * * * * * * * * * * * * * * * * * * * * * * * * * * * //

dimensions      [1 -1 -2 0 0 0 0];

internalField   nonuniform List<scalar> 
1167
(
904046.0032
890640.4903
901700.1403
900703.0952
901237.2763
902950.2827
905042.3431
907409.5994
910058.0235
912962.8588
916091.9221
919417.8179
922917.4489
926571.2146
930362.9919
934280.1308
938313.062
942455.5927
946703.8011
951056.6946
955515.3956
960082.5824
964762.6442
969561.1488
974484.1668
979538.3818
984730.6546
990067.4664
995554.7858
1001197.737
1007000.077
1012963.854
1019088.927
1025372.194
1031806.904
1038381.447
1045077.953
1051870.57
1058723.922
1065592.713
1072423.177
1079157.31
1085739.078
1092120.719
1098266.157
1104146.877
1109726.381
1114947.861
1119784.27
1124346.767
1128547.236
878103.3841
888761.4403
887710.1283
888039.3294
889448.6858
891172.442
893109.1724
895266.7231
897623.2026
900148.5795
902816.8355
905605.7065
908495.9452
911471.1463
914518.1827
917626.8842
920789.9671
924002.8475
927263.7793
930573.1066
933933.5238
937349.5836
940827.314
944374.1502
947998.7117
951710.2581
955518.5296
959433.8002
963466.2651
967625.7803
971921.8541
976362.9131
980955.9542
985705.8057
990613.9929
995677.1631
1000884.524
1006214.769
1011632.945
1017088.501
1022517.122
1027846.912
1033006.989
1037934.392
1042577.03
1046904.023
1050961.607
1054985.647
1059289.919
1063187.973
868652.1077
878663.5968
877574.8382
877781.2961
879008.7483
880532.9424
882260.9858
884208.2467
886363.1256
888706.1905
891221.9183
893898.4729
896726.6975
899699.8744
902813.8973
906067.3116
909460.3031
912995.2786
916676.2728
920508.9114
924500.3027
928658.5605
932993.2802
937515.0171
942235.2843
947166.7772
952323.0522
957718.5493
963368.2518
969287.6457
975492.3239
981997.4411
988817.4579
995965.2221
1003451.265
1011282.404
1019459.875
1027976.658
1036813.627
1045935.556
1055288.956
1064805.202
1074413.358
1084061.917
1093735.309
1103430.212
1113066.907
1122434.739
1131328.732
1139261.153
858718.0679
868112.2946
866874.2121
866674.6898
867302.2896
868082.2514
868926.4355
869848.9752
870838.3299
871873.7365
872936.5313
874010.1787
875079.3334
876129.793
877148.5509
878124.1755
879046.6254
879907.9453
880702.0911
881425.8678
882079.279
882665.8664
883193.2959
883673.3452
884122.6988
884561.9926
885016.514
885515.2291
886090.6423
886778.465
887616.9718
888646.9234
889911.4212
891455.4147
893325.826
895570.6108
898237.5973
901371.5788
905009.6083
909172.4282
913851.4572
918992.6537
924485.7377
930165.2192
935805.3031
941085.7719
945680.8434
949916.2847
955609.5715
962975.8679
853406.6218
862073.2349
860992.4937
860989.4941
861842.9497
862926.1323
864166.4275
865587.0522
867189.1127
868967.5059
870920.7863
873051.1209
875363.2775
877864.4325
880563.9046
883473.0998
886606.2677
889979.3854
893609.7066
897516.4046
901718.5975
906234.724
911080.9879
916269.9762
921809.5299
927701.6274
933942.8034
940523.9089
947431.7081
954650.3543
962163.3107
969955.3521
978014.5826
986334.8517
994918.1974
1003777.789
1012941.22
1022454.43
1032385.581
1042829.754
1053912.152
1065787.437
1078636.856
1092657.933
1108016.816
1124830.895
1143595.681
1166144.938
1194569.273
1223768.724
848531.5575
856704.2875
854958.5911
854110.0342
853775.67
853371.7958
852868.8042
852303.5932
851682.7615
851007.2868
850278.9614
849499.6737
848670.9823
847794.4253
846871.9021
845906.2666
844899.9499
843853.3316
842763.1514
841620.4431
840406.521
839092.2453
837635.9288
835985.4633
834080.6309
831858.7259
829260.8554
826239.7263
822766.2298
818835.4585
814469.2438
809715.572
804643.2099
799334.3766
793875.9046
788353.588
782849.2643
777442.7297
772215.7825
767262.5159
762708.3265
758730.5593
755542.8165
753295.0905
751920.8166
750992.2352
749278.4331
743723.7093
730530.2875
712749.3795
847566.5969
855124.8831
853472.7944
852831.4007
852730.0896
852618.1311
852477.3418
852347.0536
852238.5377
852159.9024
852123.8781
852145.2895
852239.4066
852420.7508
852701.5816
853087.7221
853573.455
854137.1509
854740.2925
855325.1786
855817.6412
856136.115
856198.518
855937.7422
855310.8958
854311.4179
852972.7216
851370.111
849612.5486
847834.6497
846182.9219
844806.4679
843846.241
843429.4939
843662.0987
844623.1446
846357.9506
848873.3507
852135.1999
856069.1487
860558.1482
865423.8168
870381.8381
874995.2241
878717.3114
881127.1143
882142.8621
881388.7488
876890.3821
868630.3691
844734.4357
851731.912
850026.6206
849123.2255
848604.9842
847976.5539
847229.3513
846407.0985
845529.1971
844609.5872
843662.8721
842698.8175
841715.8624
840695.2536
839595.9339
838350.4371
836867.1859
835039.8481
832763.0008
829949.2973
826555.0939
822595.9812
818155.7901
813382.5894
808468.9334
803626.8643
799057.4375
794928.2885
791357.2675
788407.532
786091.8789
784384.3365
783236.7555
782594.3334
782408.2343
782640.1285
783262.0339
784249.9386
785574.7932
787187.5344
788997.2299
790844.5677
792486.3611
793607.8552
793855.8142
792871.2743
790360.3247
786294.979
781133.9863
775944.2634
842689.0245
848837.2205
847018.5059
845838.01
844918.4887
843824.2433
842568.8009
841206.5913
839766.4917
838259.913
836677.1363
834979.4081
833094.8701
830922.5277
828344.4877
825249.2969
821561.9862
817273.3903
812456.2799
807269.3138
801939.3312
796722.0976
791867.3709
787578.6067
783996.3762
781189.7828
779167.834
777892.1507
777298.4674
777308.9515
777846.0093
778837.7795
780223.5093
781954.7623
783995.249
786316.8797
788892.4238
791684.7926
794633.4458
797640.4754
800561.1366
803206.4411
805363.7679
806833.9606
807477.0302
807239.4643
806094.9142
803852.3934
800195.752
796047.9822
839984.1112
845270.2224
843312.0941
841776.6525
840350.0217
838661.3732
836731.9245
834588.4186
832204.5778
829507.5809
826386.8289
822712.3357
818367.4217
813290.0047
807509.4511
801166.3887
794506.3299
787836.6873
781471.2642
775679.5512
770644.1934
766452.6161
763108.6438
760556.5996
758711.1698
757478.7237
756771.8193
756514.0724
756641.323
757100.4161
757846.5438
758843.249
760060.2305
761474.1355
763065.3694
764815.3985
766698.7424
768674.13
770673.7406
772597.4761
774315.0014
775680.6189
776555.6285
776831.237
776445.0251
775392.777
773737.499
771596.2012
769117.6296
766704.6826
836298.0491
840604.3052
838443.0994
836423.5159
834270.1791
831628.9195
828440.2378
824624.6799
820057.4535
814634.254
808323.3942
801212.0628
793524.5765
785597.996
777819.5551
770553.9253
764076.9933
758544.093
753997.8995
750395.8859
747643.5492
745631.523
744250.295
743404.6777
743013.4233
743012.475
743349.8082
743985.5259
744886.2574
746025.1664
747377.8683
748922.5166
750638.3626
752504.7951
754499.451
756593.9827
758748.7473
760906.1504
762987.4796
764894.8033
766520.9309
767764.8549
768547.7771
768825.0351
768591.0023
767875.7718
766722.8864
765139.3054
763121.2961
761101.4312
831312.0032
834305.0741
831570.6074
828378.9854
824410.1933
819306.6004
812997.1859
805537.7077
797111.1114
788056.7185
778828.4249
769900.1133
761674.957
754423.3019
748266.2822
743197.9878
739128.0216
735930.5069
733478.6025
731654.3293
730358.316
729509.7137
729042.1463
728903.7731
729051.7285
729453.0424
730080.5168
730912.3353
731929.8804
733116.281
734455.5991
735930.7802
737524.1836
739214.6489
740976.7494
742776.6697
744569.3237
746295.5599
747883.7996
749255.5782
750336.0121
751064.5414
751403.7582
751343.4815
750900.9774
750119.4744
749060.8371
747780.7954
746321.8801
744914.8223
822005.4001
822221.8586
817300.2452
810809.8605
802747.0011
793363.6623
783207.2718
772918.9712
763079.0069
754119.5757
746289.688
739660.1442
734172.2857
729700.8198
726103.0736
723243.3699
721004.7492
719292.6851
718030.7115
717155.603
716619.0574
716379.9084
716405.8717
716669.5081
717148.5621
717823.827
718679.7752
719701.7435
720877.0578
722191.8134
723631.8828
725180.3115
726817.2549
728518.1645
730252.1078
731980.2731
733654.4904
735218.5019
736611.4346
737774.4489
738658.3441
739229.9216
739475.7538
739402.2429
739033.701
738408.9803
737571.4478
736544.1571
735336.4901
734165.1128
795979.1551
792172.9761
784413.8796
774904.0739
764782.0741
754971.5041
746046.5724
738256.2342
731626.2758
726058.7308
721412.0399
717551.3315
714360.9611
711744.9359
709623.1696
707930.8882
706614.8999
705634.4867
704952.5738
704539.0015
704369.4327
704420.9494
704676.2433
705117.9634
705732.6809
706506.5898
707428.5128
708486.4889
709668.8677
710962.5815
712352.4706
713820.6862
715344.9249
716898.4372
718447.9598
719954.4493
721372.9265
722655.7245
723756.136
724634.1237
725260.798
725621.6338
725717.4037
725562.7683
725184.2082
724617.8284
723903.1955
723065.7854
722116.7194
721203.4931
751248.2287
746544.7066
740775.2368
734248.6312
728034.8549
722468.9225
717575.9694
713285.6584
709544.6017
706299.7302
703501.1251
701105.9562
699078.6889
697388.5435
696007.664
694910.7688
694077.1234
693487.1712
693121.8829
692966.8369
693007.0662
693229.5438
693622.7021
694175.0772
694876.4113
695716.2944
696684.3359
697769.925
698960.6942
700243.243
701600.6293
703013.3183
704457.077
705903.4291
707319.0162
708666.6813
709907.0997
711001.8573
711916.8764
712626.274
713114.6733
713378.4073
713424.9324
713271.067
712941.0642
712464.7552
711871.9528
711177.2838
710383.0719
709617.7807
714971.0733
711768.1086
709419.335
706519.6953
703527.708
700625.8388
697885.2058
695331.452
692986.6938
690869.8719
688987.7234
687340.5242
685925.7405
684737.9001
683768.734
683010.6926
682455.985
682094.0689
681915.5148
681912.6663
682075.0321
682395.1097
682863.1245
683470.9459
684208.9591
685068.4822
686038.581
687108.7353
688265.5891
689494.4607
690777.3503
692093.0989
693416.9545
694720.3634
695972.1605
697139.3081
698189.6279
699093.9533
699829.0845
700379.7786
700739.7961
700912.0165
700907.213
700742.4235
700439.4156
700023.47
699519.2948
698939.1276
698284.1215
697654.0041
690012.0057
688302.9319
687759.2329
686701.9936
685284.061
683694.9778
682043.8889
680409.167
678836.5067
677365.9142
676025.5146
674832.5103
673797.9719
672927.4393
672223.863
671688.7854
671319.1331
671110.3096
671059.4757
671160.7169
671407.2566
671793.6883
672311.7167
672954.6662
673713.3635
674579.249
675541.4114
676588.2965
677706.1633
678878.7715
680087.58
681310.5293
682523.2847
683698.6641
684808.7248
685825.4931
686723.6206
687481.8751
688085.3121
688525.9566
688803.1255
688922.9772
688897.1921
688741.5599
688474.8
688117.6941
687689.6979
687198.8967
686643.9903
686110.0809
669064.6722
668917.0863
669544.582
669709.1896
669372.0626
668696.0591
667801.6096
666800.5351
665767.5389
664753.5808
663798.2988
662930.9993
662171.7137
661534.6629
661029.7976
660661.6849
660431.4919
660339.2986
660385.1089
660564.0655
660872.7778
661305.6654
661856.5485
662518.1908
663282.5218
664140.0406
665080.1295
666089.917
667155.4471
668259.4576
669383.1637
670504.821
671601.2573
672647.9361
673620.7169
674496.9918
675257.5699
675887.7687
676378.7372
676727.4799
676936.747
677014.2903
676971.6938
676823.2149
676584.9425
676274.1962
675906.9049
675489.3527
675019.704
674568.1106
651211.8993
651969.8056
653108.5075
654041.8064
654526.1749
654581.7024
654304.8791
653817.9447
653218.7712
652574.0968
651932.9134
651332.7898
650801.5834
650359.6596
650020.7045
649792.4698
649679.4271
649686.4558
649813.3273
650057.1989
650416.8299
650886.4706
651461.7172
652134.4625
652897.5718
653740.6842
654653.2168
655621.5578
656631.321
657665.3069
658704.7392
659729.2019
660717.2068
661647.4708
662499.7431
663256.4233
663903.4287
664431.1746
664835.0796
665115.3192
665276.5412
665326.9675
665277.4523
665140.5565
664929.9725
664660.0788
664343.7955
663985.5951
663583.0314
663196.0574
635463.0854
636708.3047
637919.1204
639226.476
640286.7482
640932.3254
641195.0273
641165.6151
640950.6011
640631.2009
640267.6508
639904.8425
639577.0281
639308.328
639116.3746
639012.0461
639004.223
639098.9679
639296.5859
639597.5658
640000.0161
640499.5696
641091.9582
641769.4479
642524.6862
643347.4158
644226.443
645148.4457
646098.4629
647060.0634
648014.9721
648944.6342
649829.8018
650652.5175
651396.3661
652048.0536
652597.6606
653039.4806
653371.8839
653597.0413
653720.5442
653750.5364
653696.95
653570.7819
653383.6975
653147.7423
652873.6015
652564.6894
652218.4544
651885.776
621172.1235
622692.0474
623765.0967
625161.678
626543.4618
627620.6546
628335.219
628719.3273
628859.3479
628841.2879
628733.3495
628588.4923
628446.4552
628336.1801
628278.5508
628287.7412
628376.7349
628550.8088
628812.0578
629163.7616
629602.9773
630127.3959
630731.7741
631409.6957
632152.8008
632951.5706
633794.1267
634667.8333
635557.6033
636447.9912
637321.9415
638162.8578
638954.1184
639680.9097
640330.3254
640892.614
641361.147
641733.0011
642008.5376
642191.0937
642286.588
642302.7533
642248.517
642133.4478
641967.4814
641760.7391
641522.0771
641254.0104
640953.9099
640665.6422
607893.3756
609590.2212
610465.171
611798.3694
613291.1096
614633.0878
615687.9841
616430.2639
616895.1739
617158.3873
617290.5329
617350.0039
617381.8233
617418.9857
617485.6198
617601.3559
617778.9179
618024.9176
618344.9165
618741.3858
619212.2413
619756.5837
620368.4733
621042.6095
621769.9045
622541.4568
623345.2917
624169.1926
624998.8145
625819.6959
626616.5915
627374.8013
628080.5183
628721.6584
629288.4675
629774.0091
630174.1865
630488.0362
630717.2168
630865.7314
630939.4654
630945.587
630892.0449
630787.1737
630639.4642
630457.4736
630248.6187
630014.796
629753.4297
629502.4187
595321.9303
597145.5978
597842.3321
599047.4034
600517.1252
601981.3826
603261.3203
604283.4583
605036.2557
605559.7797
605917.8018
606170.3337
606365.6258
606540.595
606724.9533
606940.1507
607199.355
607511.2056
607884.5243
608320.3859
608818.9969
609378.7844
609994.6846
610661.338
611370.1654
612112.1802
612876.2161
613650.2616
614421.3587
615175.9855
615900.9964
616583.5656
617212.5551
617778.2867
618273.6722
618693.9587
619037.0004
619303.1595
619494.885
619616.4968
619673.6382
619672.8523
619621.1742
619525.8606
619394.1872
619233.4219
619049.8043
618844.7295
618615.6884
618395.7265
607281.1751
607645.8172
607940.8316
608167.4536
608328.5906
608428.6136
608472.8329
608467.1751
608417.8578
608331.1943
608213.4438
608070.8154
607908.5952
607727.8015
607526.022
607332.2141
)
;

boundaryField
{
    front_top
    {
        type            wedge;
    }
    front_middle
    {
        type            wedge;
    }
    front_bottom
    {
        type            wedge;
    }
    back_top
    {
        type            wedge;
    }
    back_middle
    {
        type            wedge;
    }
    back_bottom
    {
        type            wedge;
    }
    axis_top
    {
        type            symmetryPlane;
    }
    axis_middle
    {
        type            symmetryPlane;
    }
    axis_bottom
    {
        type            symmetryPlane;
    }
    wall_top
    {
        type            fixedFluxPressure;
        gradient        nonuniform 0();
        value           nonuniform 0();
    }
    wall_middle
    {
        type            fixedFluxPressure;
        gradient        uniform 0;
        value           nonuniform List<scalar> 5(1128547.236 1063187.973 1139261.153 962975.8679 1223768.724);
    }
    wall_bottom
    {
        type            fixedFluxPressure;
        gradient        uniform 0;
        value           nonuniform List<scalar> 
19
(
712749.3795
868630.3691
775944.2634
796047.9822
766704.6826
761101.4312
744914.8223
734165.1128
721203.4931
709617.7807
697654.0041
686110.0809
674568.1106
663196.0574
651885.776
640665.6422
629502.4187
618395.7265
607332.2141
)
;
    }
    inlet
    {
        type            zeroGradient;
    }
    outlet
    {
        type            fixedValue;
        value           nonuniform 0();
    }
    procBoundary2to1
    {
        type            processor;
        value           nonuniform List<scalar> 
51
(
583261.8229
585188.7869
585741.1084
586805.3679
588189.4829
589671.3247
591071.7946
592288.5947
593274.3543
594030.6001
594598.9606
595033.3103
595383.4155
595690.4579
595986.7225
596294.0973
596628.3399
597002.1805
597423.3736
597893.7675
598415.9834
598987.1554
599603.8607
600260.0113
600948.3115
601659.3275
602383.1892
603108.2084
603822.9821
604515.2044
605173.6794
605787.5971
606348.0488
606847.5784
606847.5784
596309.8759
596627.2508
596881.9583
597075.8224
597211.9813
597294.7004
597328.9094
597319.9459
597273.3013
597194.4768
597088.8742
596961.8226
596817.8211
596657.5858
596478.8021
596307.0267
)
;
    }
    procBoundary2to3
    {
        type            processor;
        value           nonuniform List<scalar> 
51
(
918961.7289
915488.6047
915488.6047
914536.0817
915206.9432
917111.3343
919424.3684
922038.9709
924956.7073
928146.9914
931571.9867
935198.7085
938998.4716
942946.1114
947020.171
951202.5658
955478.4944
959836.2627
964266.7727
968763.334
973321.5656
977938.5667
982612.6392
987343.2939
992130.5906
996974.8066
1001876.306
1006835.358
1011851.607
1016923.991
1022050.644
1027228.279
1032452.18
1037715.594
1043009.259
1048320.505
1053632.318
1058922.099
1064161.025
1069314.188
1074342.311
1079205.232
1083866.274
1088296.429
1092476.928
1096399.033
1100063.451
1103494.979
1106788.923
1110074.999
1112993.471
)
;
    }
}


// ************************************************************************* //
