/*--------------------------------*- C++ -*----------------------------------*\
  =========                 |
  \\      /  F ield         | OpenFOAM: The Open Source CFD Toolbox
   \\    /   O peration     | Website:  https://openfoam.org
    \\  /    A nd           | Version:  7
     \\/     M anipulation  |
\*---------------------------------------------------------------------------*/
FoamFile
{
    version     2.0;
    format      ascii;
    class       surfaceScalarField;
    location    "0.0006";
    object      phi;
}
// * * * * * * * * * * * * * * * * * * * * * * * * * * * * * * * * * * * * * //

dimensions      [1 0 -1 0 0 0 0];

internalField   nonuniform List<scalar> 
2259
(
7.469899837e-11
2.684623927e-12
7.201437445e-11
1.050659369e-11
2.1058832e-10
2.307747675e-11
3.409782473e-10
3.996520781e-11
4.632623611e-10
6.07050207e-11
5.775513457e-10
8.480794415e-11
6.839817129e-10
1.117674912e-10
7.827080797e-10
1.410654749e-10
8.738993147e-10
1.721772771e-10
9.577344666e-10
2.045763675e-10
1.03439902e-09
2.377384242e-10
1.104082e-09
2.711451317e-10
1.166973431e-09
3.042878292e-10
1.223262599e-09
3.366709908e-10
1.27313616e-09
3.678159556e-10
1.316777182e-09
3.972643489e-10
1.35436463e-09
4.245825054e-10
1.386072396e-09
4.493648864e-10
1.412070079e-09
4.712392253e-10
1.432522468e-09
4.898706484e-10
1.447590112e-09
5.049665435e-10
1.457430339e-09
5.162817015e-10
1.462197743e-09
5.236231684e-10
1.46204478e-09
5.268545557e-10
1.457123517e-09
5.259009304e-10
1.447585523e-09
5.207522142e-10
1.433583364e-09
5.114658213e-10
1.415270962e-09
4.981685222e-10
1.392803618e-09
4.81056658e-10
1.366338404e-09
4.6039439e-10
1.336033014e-09
4.365104771e-10
1.30204467e-09
4.097931283e-10
1.264527456e-09
3.80682099e-10
1.22362925e-09
3.496598124e-10
1.179486403e-09
3.172402802e-10
1.132217656e-09
2.83958026e-10
1.081915881e-09
2.503568864e-10
1.028639316e-09
2.169808928e-10
9.724024061e-10
1.843692183e-10
9.131688358e-10
1.530546382e-10
8.508509906e-10
1.23565387e-10
7.853183681e-10
9.642608691e-11
7.164187476e-10
7.215223345e-11
6.440115405e-10
5.122988808e-11
5.680095478e-10
3.40709311e-11
4.884238566e-10
2.093006842e-11
4.054077393e-10
1.176340321e-11
3.193036688e-10
6.00476965e-12
2.30705588e-10
2.253049936e-12
1.405261005e-10
4.863556022e-11
3.25405613e-12
6.876031835e-11
1.274799048e-11
2.010943857e-10
2.803618246e-11
3.256900554e-10
4.863412467e-11
4.426644189e-10
7.402867637e-11
5.521567941e-10
1.036858406e-10
6.543245486e-10
1.370563601e-10
7.4933756e-10
1.735808598e-10
8.373748152e-10
2.126941568e-10
9.186211696e-10
2.538288537e-10
9.932643227e-10
2.96418444e-10
1.06149241e-09
3.398999786e-10
1.123491897e-09
3.837165597e-10
1.179446018e-09
4.273193032e-10
1.229533416e-09
4.701697472e-10
1.273926738e-09
5.117418219e-10
1.312792555e-09
5.515241819e-10
1.346290036e-09
5.890226829e-10
1.374571577e-09
6.237632258e-10
1.397781925e-09
6.5529477e-10
1.416058568e-09
6.831932044e-10
1.429531905e-09
7.070653467e-10
1.4383256e-09
7.265535735e-10
1.442556554e-09
7.41341129e-10
1.442335962e-09
7.511575302e-10
1.437769123e-09
7.557848906e-10
1.428956003e-09
7.550637698e-10
1.415992083e-09
7.488993798e-10
1.398968008e-09
7.372679241e-10
1.37796986e-09
7.202212806e-10
1.353079658e-09
6.97892177e-10
1.324373773e-09
6.704967015e-10
1.291922931e-09
6.383362433e-10
1.255789708e-09
6.017967505e-10
1.216025896e-09
5.613461552e-10
1.172668251e-09
5.175296451e-10
1.125732391e-09
4.709635249e-10
1.075205436e-09
4.22328609e-10
1.021037322e-09
3.723653065e-10
9.631321382e-10
3.21872453e-10
9.013438441e-10
2.717098587e-10
8.354809623e-10
2.228020681e-10
7.653265379e-10
1.761346575e-10
6.906789509e-10
1.32733731e-10
6.114104741e-10
9.362646681e-11
5.275311204e-10
5.98065795e-11
4.392276261e-10
3.227108475e-11
3.46839163e-10
1.222638688e-11
2.50750285e-10
1.54716604e-12
1.512053209e-10
5.018272625e-11
3.78790667e-12
6.497241168e-11
1.484158639e-11
1.90040706e-10
3.266624587e-11
3.078653959e-10
5.673636989e-11
4.185942948e-10
8.650321621e-11
5.223899477e-10
1.214017957e-10
6.194259691e-10
1.608555408e-10
7.09883815e-10
2.042806841e-10
7.939496718e-10
2.510898034e-10
8.718120503e-10
3.006945988e-10
9.436595276e-10
3.525081682e-10
1.009678841e-09
4.059468327e-10
1.070053232e-09
4.604317031e-10
1.124961148e-09
5.153897425e-10
1.174575377e-09
5.702546687e-10
1.219061812e-09
6.244681434e-10
1.25857908e-09
6.774800152e-10
1.293278164e-09
7.28749411e-10
1.323302181e-09
7.777452535e-10
1.348786083e-09
8.239469487e-10
1.369856872e-09
8.66845827e-10
1.386633026e-09
9.059460017e-10
1.399225426e-09
9.407662306e-10
1.407736325e-09
9.708424729e-10
1.41225972e-09
9.957304826e-10
1.412881113e-09
1.015009892e-09
1.409676593e-09
1.028289004e-09
1.402712971e-09
1.035210485e-09
1.392046528e-09
1.03545823e-09
1.377722114e-09
1.028765312e-09
1.359772575e-09
1.014922513e-09
1.338216572e-09
9.937877491e-10
1.313057695e-09
9.65296341e-10
1.284281116e-09
9.294712638e-10
1.251850973e-09
8.864336718e-10
1.215705843e-09
8.364140438e-10
1.175752019e-09
7.797639082e-10
1.131855571e-09
7.169702334e-10
1.083830996e-09
6.486752877e-10
1.031427083e-09
5.757076281e-10
9.743115032e-10
4.991324439e-10
9.120561456e-10
4.203265407e-10
8.441324404e-10
3.410775273e-10
7.699279633e-10
2.636874329e-10
6.888005674e-10
1.91034696e-10
6.001838562e-10
1.26513515e-10
5.037488059e-10
7.368149442e-11
3.996711818e-10
3.522152682e-11
2.892102498e-10
1.073482656e-11
1.756920192e-10
6.09175528e-11
4.247526695e-12
6.072488502e-11
1.665662465e-11
1.77631608e-10
3.669683384e-11
2.878251866e-10
6.381624188e-11
3.914748868e-10
9.744854714e-11
4.887576425e-10
1.370182297e-10
5.798562866e-10
1.819447797e-10
6.64957265e-10
2.31646002e-10
7.442484493e-10
2.855409788e-10
8.179170735e-10
3.430522195e-10
8.861482868e-10
4.036073885e-10
9.491236715e-10
4.666405554e-10
1.007020065e-09
5.315930795e-10
1.060008624e-09
5.979141915e-10
1.108254265e-09
6.65060904e-10
1.1519151e-09
7.324979502e-10
1.191142034e-09
7.996972506e-10
1.226078864e-09
8.661372687e-10
1.256862164e-09
9.313017446e-10
1.283621608e-09
9.94678474e-10
1.306480143e-09
1.055757885e-09
1.325553614e-09
1.114031501e-09
1.34095181e-09
1.168990252e-09
1.352777573e-09
1.220122775e-09
1.361127197e-09
1.266914391e-09
1.366089496e-09
1.308845346e-09
1.367745638e-09
1.345390639e-09
1.366167678e-09
1.376019343e-09
1.361417823e-09
1.400194845e-09
1.353546613e-09
1.417375822e-09
1.342591598e-09
1.427017834e-09
1.32857456e-09
1.428575784e-09
1.311499744e-09
1.421507044e-09
1.291349856e-09
1.405275673e-09
1.268082344e-09
1.379358512e-09
1.241623003e-09
1.343252016e-09
1.211858515e-09
1.296483031e-09
1.178624556e-09
1.238622832e-09
1.141691195e-09
1.169309132e-09
1.100740783e-09
1.088280663e-09
1.055339972e-09
9.954363672e-10
1.004900441e-09
8.909365581e-10
9.486322491e-10
7.753727236e-10
8.854917973e-10
6.500361509e-10
8.141371393e-10
5.173152279e-10
7.329047786e-10
3.812409479e-10
6.398230851e-10
2.481923191e-10
5.327198099e-10
1.280467282e-10
4.093558393e-10
3.763761397e-11
2.661011327e-10
9.855516676e-11
4.582020241e-12
5.614286477e-11
1.79701094e-11
1.642435189e-10
3.961075839e-11
2.661845377e-10
6.893874208e-11
3.621469031e-10
1.05381466e-10
4.523149185e-10
1.4836299e-10
5.368747625e-10
1.973074555e-10
6.160127994e-10
2.516413616e-10
6.899145433e-10
3.107955855e-10
7.587628497e-10
3.742068811e-10
8.227369912e-10
4.413188518e-10
8.820117009e-10
5.115825625e-10
9.36756354e-10
5.844568043e-10
9.871343818e-10
6.594081546e-10
1.033302914e-09
7.359108083e-10
1.075412446e-09
8.134461539e-10
1.113606688e-09
8.915027455e-10
1.148022272e-09
9.695762612e-10
1.178788648e-09
1.047169479e-09
1.20602839e-09
1.123793014e-09
1.229856608e-09
1.198965867e-09
1.25038076e-09
1.272216398e-09
1.26770128e-09
1.343083234e-09
1.281910737e-09
1.411115321e-09
1.29309511e-09
1.475871595e-09
1.301333222e-09
1.536919118e-09
1.306698116e-09
1.593829849e-09
1.309256947e-09
1.646175577e-09
1.309072094e-09
1.693521307e-09
1.306200883e-09
1.735416333e-09
1.300696573e-09
1.771384e-09
1.292606892e-09
1.800908943e-09
1.281974801e-09
1.8234225e-09
1.268836299e-09
1.838285291e-09
1.253219554e-09
1.844767276e-09
1.235141018e-09
1.842024577e-09
1.214601214e-09
1.829071678e-09
1.191577455e-09
1.804748732e-09
1.16601414e-09
1.767679917e-09
1.137809598e-09
1.716220335e-09
1.106799553e-09
1.64838704e-09
1.072733735e-09
1.561777352e-09
1.035241937e-09
1.453494283e-09
9.937748652e-10
1.320144995e-09
9.474864255e-10
1.15804514e-09
8.95004633e-10
9.638494206e-10
8.340188032e-10
7.359569786e-10
7.606122496e-10
4.776114195e-10
6.677013944e-10
2.051718363e-10
5.385407128e-10
3.03727003e-10
-4.632419773e-13
5.660610675e-11
-1.821794944e-12
1.656020719e-10
-4.039696971e-12
2.684024397e-10
-7.091870684e-12
3.651990768e-10
-1.09607126e-11
4.561837604e-10
-1.563497768e-11
5.415490276e-10
-2.110873351e-11
6.214865552e-10
-2.737998787e-11
6.961857976e-10
-3.444962682e-11
7.658324887e-10
-4.232020098e-11
8.306075653e-10
-5.099493905e-11
8.90686439e-10
-6.047678863e-11
9.462382036e-10
-7.076752453e-11
9.974251177e-10
-8.186685323e-11
1.044402243e-09
-9.377148647e-11
1.087317079e-09
-1.064739657e-10
1.126309168e-09
-1.199614873e-10
1.161509794e-09
-1.34214642e-10
1.193041802e-09
-1.49205984e-10
1.221019732e-09
-1.64898476e-10
1.245549099e-09
-1.812447887e-10
1.266727073e-09
-1.981865099e-10
1.284643002e-09
-2.156546881e-10
1.299378915e-09
-2.335706492e-10
1.311011071e-09
-2.518478492e-10
1.319610422e-09
-2.703937222e-10
1.325243989e-09
-2.891115262e-10
1.327974751e-09
-3.079012054e-10
1.327861774e-09
-3.266593656e-10
1.324959044e-09
-3.452777081e-10
1.319314915e-09
-3.636406929e-10
1.310969877e-09
-3.816223388e-10
1.299956447e-09
-3.990833526e-10
1.286297313e-09
-4.158680406e-10
1.270004241e-09
-4.318013331e-10
1.251074311e-09
-4.46683766e-10
1.229483647e-09
-4.60283311e-10
1.205177e-09
-4.723209759e-10
1.178051805e-09
-4.824483467e-10
1.147936968e-09
-4.90212219e-10
1.114563425e-09
-4.94997737e-10
1.077519253e-09
-4.95930546e-10
1.036174745e-09
-4.917013989e-10
9.895457178e-10
-4.802684499e-10
9.36053476e-10
-4.584076755e-10
8.731438581e-10
-4.211345978e-10
7.967457248e-10
-3.61099983e-10
7.005776341e-10
-2.68622264e-10
5.752236738e-10
-1.355172165e-10
4.054356638e-10
1.682097865e-10
-3.598697061e-13
5.696597646e-11
-1.417913537e-12
1.666601157e-10
-3.14897466e-12
2.701335009e-10
-5.536654044e-12
3.675867562e-10
-8.571727744e-12
4.592188341e-10
-1.225054241e-11
5.452278423e-10
-1.657378267e-11
6.258097955e-10
-2.154484218e-11
7.011568571e-10
-2.716861926e-11
7.714562657e-10
-3.345024217e-11
8.368891882e-10
-4.039371269e-11
8.976299095e-10
-4.800057128e-11
9.538450622e-10
-5.626848991e-11
1.005693036e-09
-6.518973761e-11
1.053323491e-09
-7.47493943e-11
1.096876736e-09
-8.492363853e-11
1.136483412e-09
-9.567833937e-11
1.172264495e-09
-1.069683244e-10
1.204331788e-09
-1.187371426e-10
1.23278855e-09
-1.309184897e-10
1.257730447e-09
-1.434391238e-10
1.279247707e-09
-1.562221282e-10
1.297426006e-09
-1.691918936e-10
1.312348681e-09
-1.82277722e-10
1.3240969e-09
-1.954176956e-10
1.332750396e-09
-2.085600445e-10
1.338386337e-09
-2.216635589e-10
1.341078266e-09
-2.346951419e-10
1.340893357e-09
-2.476265884e-10
1.33789049e-09
-2.604288046e-10
1.332117132e-09
-2.730658669e-10
1.323606939e-09
-2.854872993e-10
1.31237788e-09
-2.976210853e-10
1.298431099e-09
-3.093657181e-10
1.281748874e-09
-3.205829655e-10
1.262291558e-09
-3.3108842e-10
1.239989102e-09
-3.406388696e-10
1.214727449e-09
-3.489120421e-10
1.186324978e-09
-3.554744616e-10
1.154499387e-09
-3.597294633e-10
1.118818426e-09
-3.60836369e-10
1.078626159e-09
-3.575934004e-10
1.032931776e-09
-3.482926731e-10
9.802449901e-10
-3.305958309e-10
9.183566331e-10
-3.015520611e-10
8.441000876e-10
-2.579900309e-10
7.531836935e-10
-1.976858391e-10
6.402734408e-10
-1.222273703e-10
4.997652028e-10
-4.493506234e-11
3.281433544e-10
1.232747241e-10
-2.690654969e-13
5.723504195e-11
-1.059718411e-12
1.674507686e-10
-2.355820297e-12
2.714296027e-10
-4.148465917e-12
3.693794018e-10
-6.434739914e-12
4.615051081e-10
-9.215997211e-12
5.480090996e-10
-1.249641841e-11
6.290902167e-10
-1.628123078e-11
7.049416695e-10
-2.05750843e-11
7.757501193e-10
-2.538046093e-11
8.416945648e-10
-3.069588603e-11
9.029453346e-10
-3.651414548e-11
9.596633217e-10
-4.28206065e-11
1.011999497e-09
-4.959184226e-11
1.060094726e-09
-5.679486828e-11
1.104079762e-09
-6.438759037e-11
1.144076134e-09
-7.232054046e-11
1.180197445e-09
-8.053988066e-11
1.212551128e-09
-8.89911596e-11
1.241239829e-09
-9.762400138e-11
1.266363288e-09
-1.063953039e-10
1.28801901e-09
-1.152716924e-10
1.306302395e-09
-1.24230011e-10
1.321306999e-09
-1.332558481e-10
1.333122737e-09
-1.42341188e-10
1.341835736e-09
-1.514805196e-10
1.347525669e-09
-1.606671802e-10
1.350264926e-09
-1.698890937e-10
1.35011527e-09
-1.791250506e-10
1.347126447e-09
-1.8834102e-10
1.341333101e-09
-1.974863773e-10
1.332752296e-09
-2.064896291e-10
1.321381132e-09
-2.152525382e-10
1.307194008e-09
-2.236427455e-10
1.290139081e-09
-2.314834814e-10
1.270132294e-09
-2.385411414e-10
1.247046761e-09
-2.445084687e-10
1.220694776e-09
-2.489832105e-10
1.19079972e-09
-2.514387419e-10
1.156954918e-09
-2.511868118e-10
1.118566496e-09
-2.473369793e-10
1.074776326e-09
-2.38775529e-10
1.024370326e-09
-2.242143163e-10
9.656837771e-10
-2.023935543e-10
8.965358707e-10
-1.725380078e-10
8.142445404e-10
-1.351243807e-10
7.157700656e-10
-9.286135652e-11
5.980104155e-10
-5.129171589e-11
4.581955604e-10
-1.731597337e-11
2.941676107e-10
1.059587507e-10
-1.917179658e-13
5.742675992e-11
-7.561555037e-13
1.680152061e-10
-1.684232244e-12
2.723576795e-10
-2.972981056e-12
3.706681506e-10
-4.624124894e-12
4.63156252e-10
-6.642287013e-12
5.500272617e-10
-9.032979812e-12
6.314809095e-10
-1.180073868e-11
7.077094284e-10
-1.494704622e-11
7.788964268e-10
-1.846849109e-11
8.452160097e-10
-2.235524904e-11
9.068320926e-10
-2.659016262e-11
9.638982353e-10
-3.114883291e-11
1.016558168e-09
-3.600094636e-11
1.06494684e-09
-4.111302405e-11
1.10919184e-09
-4.645210507e-11
1.149415215e-09
-5.198966524e-11
1.185735005e-09
-5.770480801e-11
1.218266271e-09
-6.35865756e-11
1.247121597e-09
-6.963428879e-11
1.272411002e-09
-7.585588069e-11
1.294240602e-09
-8.226571897e-11
1.312712233e-09
-8.888025047e-11
1.327921531e-09
-9.571475124e-11
1.339957238e-09
-1.027791134e-10
1.348900099e-09
-1.100754204e-10
1.354821976e-09
-1.175950216e-10
1.357784528e-09
-1.253173475e-10
1.357837597e-09
-1.332072801e-10
1.355016379e-09
-1.412138185e-10
1.34933964e-09
-1.492669147e-10
1.340805393e-09
-1.572744248e-10
1.329388642e-09
-1.651167638e-10
1.315036347e-09
-1.726399719e-10
1.297662289e-09
-1.796457547e-10
1.277138077e-09
-1.858786476e-10
1.253279654e-09
-1.910100943e-10
1.225826223e-09
-1.946198708e-10
1.194409496e-09
-1.961772926e-10
1.15851234e-09
-1.950284784e-10
1.117417682e-09
-1.904039153e-10
1.070151763e-09
-1.814698948e-10
1.015436305e-09
-1.674519086e-10
9.516657909e-10
-1.478520931e-10
8.769360552e-10
-1.22753299e-10
7.891457464e-10
-9.316829771e-11
6.861850643e-10
-6.137702785e-11
5.662191458e-10
-3.124355436e-11
4.280620872e-10
-8.678759176e-12
2.716028156e-10
9.727999152e-11
-1.288789522e-13
5.755563887e-11
-5.089636681e-13
1.683952909e-10
-1.136580297e-12
2.729852961e-10
-2.01281542e-12
3.715443857e-10
-3.141746007e-12
4.642851826e-10
-4.528430313e-12
5.51413946e-10
-6.176440852e-12
6.3312892e-10
-8.086175499e-12
7.096191631e-10
-1.025330106e-11
7.810635524e-10
-1.266821576e-11
8.476309244e-10
-1.531665198e-11
9.094805289e-10
-1.818151789e-11
9.667631013e-10
-2.124571061e-11
1.019622361e-09
-2.449529669e-11
1.068196426e-09
-2.792238986e-11
1.112618933e-09
-3.152707843e-11
1.153019904e-09
-3.531763602e-11
1.189525563e-09
-3.93096586e-11
1.222258293e-09
-4.352408502e-11
1.251336023e-09
-4.798400136e-11
1.276870918e-09
-5.271215766e-11
1.298968758e-09
-5.772831321e-11
1.317728389e-09
-6.304702525e-11
1.333240243e-09
-6.867599685e-11
1.345586209e-09
-7.461407192e-11
1.354838174e-09
-8.084963282e-11
1.361057537e-09
-8.735875978e-11
1.364293655e-09
-9.410380742e-11
1.364582644e-09
-1.010318906e-10
1.361944463e-09
-1.080730233e-10
1.356380772e-09
-1.151382533e-10
1.347870623e-09
-1.22116011e-10
1.336366399e-09
-1.288681063e-10
1.321788442e-09
-1.352226401e-10
1.304016823e-09
-1.409661642e-10
1.282881601e-09
-1.458326775e-10
1.258146168e-09
-1.49493145e-10
1.229486691e-09
-1.515459607e-10
1.196462312e-09
-1.515158493e-10
1.158482229e-09
-1.488682263e-10
1.114770059e-09
-1.43053796e-10
1.064337332e-09
-1.335936737e-10
1.005976183e-09
-1.202134032e-10
9.382855202e-10
-1.030160031e-10
8.597386546e-10
-8.266447932e-11
7.687942221e-10
-6.051949237e-11
6.640400768e-10
-3.865074451e-11
5.443503972e-10
-1.961638422e-11
4.090277258e-10
-5.883999737e-12
2.578704305e-10
9.13959918e-11
-7.988420967e-14
5.763552308e-11
-3.160323432e-13
1.68631439e-10
-7.082316461e-13
2.733774954e-10
-1.259275182e-12
3.720954293e-10
-1.973006913e-12
4.649989143e-10
-2.85231935e-12
5.522932585e-10
-3.897519911e-12
6.341741206e-10
-5.105913273e-12
7.108275564e-10
-6.472566256e-12
7.824302054e-10
-7.991851763e-12
8.4915021e-10
-9.659778052e-12
9.111484552e-10
-1.147631938e-11
9.685796427e-10
-1.344716704e-11
1.021593208e-09
-1.558445018e-11
1.070333709e-09
-1.790642537e-11
1.114940908e-09
-2.043595086e-11
1.155549429e-09
-2.31985811e-11
1.192288193e-09
-2.622067418e-11
1.225280386e-09
-2.952737363e-11
1.254642723e-09
-3.314081908e-11
1.280484363e-09
-3.707914649e-11
1.302907086e-09
-4.135458431e-11
1.322003827e-09
-4.597289184e-11
1.337858551e-09
-5.093177063e-11
1.350545088e-09
-5.622042343e-11
1.360126826e-09
-6.181783139e-11
1.366654945e-09
-6.769212433e-11
1.370167947e-09
-7.379852188e-11
1.370689042e-09
-8.007841327e-11
1.368224354e-09
-8.645673744e-11
1.362759096e-09
-9.284005356e-11
1.354253939e-09
-9.9112905e-11
1.342639251e-09
-1.051335189e-10
1.327809056e-09
-1.107281539e-10
1.309611458e-09
-1.156841801e-10
1.287837627e-09
-1.197433252e-10
1.262205313e-09
-1.225963044e-10
1.23233967e-09
-1.238837321e-10
1.19774974e-09
-1.232073857e-10
1.157805882e-09
-1.201597321e-10
1.111722405e-09
-1.143763157e-10
1.058553916e-09
-1.056126242e-10
9.972124914e-10
-9.383912979e-11
9.26512026e-10
-7.933807128e-11
8.452375964e-10
-6.278131875e-11
7.522374699e-10
-4.52675673e-11
6.465263257e-10
-2.83056572e-11
5.273884876e-10
-1.374429962e-11
3.94466369e-10
-3.689274452e-12
2.478154058e-10
8.770671734e-11
-4.335606328e-14
5.767887914e-11
-1.719346132e-13
1.687600175e-10
-3.869925674e-13
2.735925534e-10
-6.911019539e-13
3.723995387e-10
-1.086949574e-12
4.653947619e-10
-1.576409123e-12
5.52782718e-10
-2.160847842e-12
6.347585593e-10
-2.842103662e-12
7.115088123e-10
-3.624173493e-12
7.832122753e-10
-4.51468553e-12
8.50040722e-10
-5.525755613e-12
9.121595253e-10
-6.674211523e-12
9.697280986e-10
-7.981004197e-12
1.022900001e-09
-9.470116022e-12
1.071822821e-09
-1.116721946e-11
1.116638012e-09
-1.309833853e-11
1.157480548e-09
-1.5288767e-11
1.194478621e-09
-1.77618676e-11
1.227753487e-09
-2.053755008e-11
1.257418405e-09
-2.363168359e-11
1.283578497e-09
-2.70551576e-11
1.30633056e-09
-3.081303884e-11
1.325761708e-09
-3.490418336e-11
1.341949695e-09
-3.932007527e-11
1.35496098e-09
-4.404446987e-11
1.364851221e-09
-4.905187513e-11
1.37166235e-09
-5.430665385e-11
1.375422726e-09
-5.976130782e-11
1.376143696e-09
-6.535474754e-11
1.373817794e-09
-7.101023673e-11
1.368414586e-09
-7.66325186e-11
1.359876221e-09
-8.210512902e-11
1.348111861e-09
-8.728589693e-11
1.332989824e-09
-9.200334837e-11
1.314328909e-09
-9.605186759e-11
1.291886147e-09
-9.918949242e-11
1.265342938e-09
-1.011387529e-10
1.23428893e-09
-1.015957414e-10
1.198206728e-09
-1.002497004e-10
1.156459841e-09
-9.681791058e-11
1.108290616e-09
-9.109442759e-11
1.052830433e-09
-8.301062009e-11
9.891286839e-10
-7.269722803e-11
9.161986338e-10
-6.053603575e-11
8.330764039e-10
-4.71872242e-11
7.388886581e-10
-3.357909905e-11
6.329182002e-10
-2.085015958e-11
5.146595477e-10
-1.023825909e-11
3.838544678e-10
-2.912834473e-12
2.404899807e-10
8.479388287e-11
-1.754756818e-14
5.769642671e-11
-7.033486708e-14
1.688128048e-10
-1.60482868e-13
2.736827014e-10
-2.910470306e-13
3.725301028e-10
-4.660963767e-13
4.655698113e-10
-6.908022634e-13
5.530074239e-10
-9.724646462e-13
6.350402217e-10
-1.321175009e-12
7.118575227e-10
-1.750333044e-12
7.836414333e-10
-2.276725516e-12
8.505671145e-10
-2.920108448e-12
9.128029082e-10
-3.702651403e-12
9.705106415e-10
-4.648222093e-12
1.023845572e-09
-5.781488195e-12
1.072956087e-09
-7.126878229e-12
1.117983402e-09
-8.707747442e-12
1.159061418e-09
-1.054562671e-11
1.196316501e-09
-1.265935696e-11
1.229867217e-09
-1.506440242e-11
1.259823451e-09
-1.77725708e-11
1.286286665e-09
-2.079095716e-11
1.309348946e-09
-2.412181844e-11
1.329092569e-09
-2.776154944e-11
1.345589426e-09
-3.170021774e-11
1.358899648e-09
-3.592043092e-11
1.369071434e-09
-4.0396504e-11
1.376138423e-09
-4.509274354e-11
1.380118966e-09
-4.996234203e-11
1.381013294e-09
-5.494491448e-11
1.378800366e-09
-5.996498128e-11
1.373434653e-09
-6.492885342e-11
1.364840093e-09
-6.972231934e-11
1.352905327e-09
-7.420738193e-11
1.337474886e-09
-7.821966054e-11
1.318341188e-09
-8.156690387e-11
1.29523339e-09
-8.402983178e-11
1.267805866e-09
-8.536828141e-11
1.23562738e-09
-8.533399507e-11
1.198172442e-09
-8.369301391e-11
1.15481886e-09
-8.025716344e-11
1.104854765e-09
-7.492274125e-11
1.047496011e-09
-6.771167011e-11
9.819176129e-10
-5.880709864e-11
9.072940626e-10
-4.857684369e-11
8.228461492e-10
-3.7577818e-11
7.278896328e-10
-2.653861006e-11
6.218789927e-10
-1.632067963e-11
5.044416179e-10
-7.864239547e-12
3.753980286e-10
-2.135688941e-12
2.347614306e-10
8.265819393e-11
-2.207179062e-15
5.769863389e-11
-9.722064431e-15
1.688203197e-10
-2.600547791e-14
2.736989848e-10
-5.61150029e-14
3.725602123e-10
-1.070151975e-13
4.656207115e-10
-1.8778899e-13
5.530881977e-10
-3.099305358e-13
6.351623633e-10
-4.875088973e-13
7.12035101e-10
-7.371233504e-13
7.838910478e-10
-1.077663647e-12
8.509076548e-10
-1.529886629e-12
9.132551312e-10
-2.115720385e-12
9.710964753e-10
-2.857584897e-12
1.024587436e-09
-3.777725946e-12
1.073876228e-09
-4.897698168e-12
1.119103374e-09
-6.237748755e-12
1.160401468e-09
-7.816386814e-12
1.197895139e-09
-9.649514174e-12
1.231700345e-09
-1.17502955e-11
1.261924232e-09
-1.412852702e-11
1.288664897e-09
-1.678986011e-11
1.312010279e-09
-1.973566606e-11
1.332038375e-09
-2.296170067e-11
1.348815461e-09
-2.645797117e-11
1.362395919e-09
-3.020708206e-11
1.372820545e-09
-3.418377028e-11
1.380115111e-09
-3.835287303e-11
1.384288068e-09
-4.266826094e-11
1.385328682e-09
-4.707066918e-11
1.383202774e-09
-5.148582565e-11
1.377849809e-09
-5.582231842e-11
1.369176586e-09
-5.996917475e-11
1.357052184e-09
-6.379440689e-11
1.341300119e-09
-6.714346562e-11
1.321690247e-09
-6.984075093e-11
1.297930675e-09
-7.169298047e-11
1.269658095e-09
-7.249857684e-11
1.236432977e-09
-7.206183633e-11
1.197735702e-09
-7.021457467e-11
1.152971599e-09
-6.684196981e-11
1.10148216e-09
-6.191147547e-11
1.042565517e-09
-5.549948607e-11
9.755056234e-10
-4.781092087e-11
8.996054973e-10
-3.918808953e-11
8.142233177e-10
-3.010529693e-11
7.188068399e-10
-2.114832331e-11
6.129220188e-10
-1.297951393e-11
4.962728081e-10
-6.291366253e-12
3.687098803e-10
-1.751707673e-12
2.302217718e-10
8.090648626e-11
3.956699975e-15
5.769467719e-11
1.491521549e-14
1.688093612e-10
2.894394676e-14
2.736849561e-10
4.013368053e-14
3.725490226e-10
4.061864163e-14
4.656202265e-10
2.019681716e-14
5.531086195e-10
-3.352640615e-14
6.352160865e-10
-1.352127854e-13
7.121367874e-10
-3.013309977e-13
7.84057166e-10
-5.498857233e-13
8.511562095e-10
-9.000492124e-13
9.136052947e-10
-1.371715589e-12
9.715681416e-10
-1.985000121e-12
1.025200721e-09
-2.759770427e-12
1.074650999e-09
-3.715218306e-12
1.120058822e-09
-4.869476121e-12
1.161555726e-09
-6.239025914e-12
1.199264688e-09
-7.83828682e-12
1.233299605e-09
-9.679354657e-12
1.2637653e-09
-1.177110672e-11
1.290756649e-09
-1.411893893e-11
1.314358111e-09
-1.672399312e-11
1.334643429e-09
-1.95823382e-11
1.351673806e-09
-2.268428435e-11
1.365497865e-09
-2.601318336e-11
1.376149444e-09
-2.954439174e-11
1.38364632e-09
-3.324391624e-11
1.387987593e-09
-3.706670935e-11
1.389151475e-09
-4.095531963e-11
1.387091384e-09
-4.483761041e-11
1.3817321e-09
-4.862563386e-11
1.372964609e-09
-5.22135451e-11
1.360640095e-09
-5.547734027e-11
1.344563914e-09
-5.827499695e-11
1.324487903e-09
-6.044943062e-11
1.300105109e-09
-6.183417073e-11
1.271042835e-09
-6.22633746e-11
1.236862181e-09
-6.158592719e-11
1.197058254e-09
-5.968383963e-11
1.151069511e-09
-5.649225201e-11
1.098290573e-09
-5.20196936e-11
1.038092959e-09
-4.636439803e-11
9.698503281e-10
-3.97243305e-11
8.9296543e-10
-3.239875816e-11
8.068977457e-10
-2.478038468e-11
7.111884668e-10
-1.733850588e-11
6.054801405e-10
-1.059526262e-11
4.895295654e-10
-5.098244764e-12
3.632128633e-10
-1.395594356e-12
2.265191218e-10
7.95108919e-11
4.990310034e-15
5.768968688e-11
1.895534648e-14
1.687953962e-10
3.851004641e-14
2.736654014e-10
5.83241775e-14
3.725292085e-10
7.110085199e-14
4.656074498e-10
6.73388443e-14
5.531123815e-10
3.558188378e-14
6.352478434e-10
-3.752135054e-14
7.122098906e-10
-1.669303831e-13
7.84186575e-10
-3.688222878e-13
8.513581014e-10
-6.603179393e-13
9.138967903e-10
-1.059147971e-12
9.719669717e-10
-1.583273595e-12
1.025724846e-09
-2.25052279e-12
1.075318248e-09
-3.078285318e-12
1.120886584e-09
-4.083043838e-12
1.162560484e-09
-5.279895439e-12
1.20046154e-09
-6.68230687e-12
1.234702017e-09
-8.301584276e-12
1.265384577e-09
-1.014607463e-11
1.292601139e-09
-1.222105681e-11
1.316433094e-09
-1.452749206e-11
1.336949864e-09
-1.706179971e-11
1.354208113e-09
-1.981449344e-11
1.368250558e-09
-2.276962003e-11
1.379104571e-09
-2.590307915e-11
1.386779779e-09
-2.918197219e-11
1.391266486e-09
-3.256247694e-11
1.39253198e-09
-3.598899451e-11
1.390517902e-09
-3.939216444e-11
1.38513527e-09
-4.268796678e-11
1.376260412e-09
-4.577685407e-11
1.363728982e-09
-4.854392127e-11
1.347330981e-09
-5.086087797e-11
1.32680486e-09
-5.258961099e-11
1.301833842e-09
-5.358934074e-11
1.272042565e-09
-5.372605001e-11
1.23699889e-09
-5.288560084e-11
1.196217805e-09
-5.098830481e-11
1.149172215e-09
-4.800415139e-11
1.09530642e-09
-4.396655564e-11
1.034055363e-09
-3.898202301e-11
9.648657954e-10
-3.323486351e-11
8.872182704e-10
-2.698540279e-11
8.006482848e-10
-2.056181099e-11
7.047648748e-10
-1.434594208e-11
5.992642713e-10
-8.754896602e-12
4.839385196e-10
-4.219950425e-12
3.586779166e-10
-1.164988942e-12
2.234641601e-10
7.834590297e-11
3.941581242e-15
5.76857453e-11
1.485408229e-14
1.687844837e-10
3.010715988e-14
2.736501483e-10
4.537817279e-14
3.725139375e-10
5.442555222e-14
4.655984025e-10
4.911139367e-14
5.531176957e-10
1.947419534e-14
6.352774806e-10
-4.600854054e-14
7.122753733e-10
-1.603596464e-13
7.843009261e-10
-3.377502174e-13
8.51535492e-10
-5.932425962e-13
9.141522827e-10
-9.425465419e-13
9.723162756e-10
-1.401702236e-12
1.026184002e-09
-1.986804597e-12
1.07590335e-09
-2.713650376e-12
1.12161343e-09
-3.59727031e-12
1.163444104e-09
-4.651675885e-12
1.201515946e-09
-5.889492616e-12
1.235939834e-09
-7.321188808e-12
1.266816273e-09
-8.95475275e-12
1.294234703e-09
-1.079515945e-11
1.3182735e-09
-1.284331563e-11
1.338998021e-09
-1.509580927e-11
1.356460607e-09
-1.754344137e-11
1.37069819e-09
-2.017079295e-11
1.381731922e-09
-2.295457264e-11
1.389563558e-09
-2.586288479e-11
1.394174798e-09
-2.885358752e-11
1.395522683e-09
-3.187315997e-11
1.393537475e-09
-3.485569379e-11
1.388117804e-09
-3.772185711e-11
1.379126575e-09
-4.037929181e-11
1.366386417e-09
-4.272311935e-11
1.349674809e-09
-4.463909572e-11
1.328720836e-09
-4.60076038e-11
1.30320235e-09
-4.671104803e-11
1.272746009e-09
-4.664243932e-11
1.236930281e-09
-4.571668684e-11
1.195292053e-09
-4.38817701e-11
1.147337298e-09
-4.113008686e-11
1.092554736e-09
-3.750751994e-11
1.030432796e-09
-3.311899913e-11
9.604772748e-10
-2.813020049e-11
8.82229472e-10
-2.276453303e-11
7.952826177e-10
-1.729586111e-11
6.992962033e-10
-1.203748279e-11
5.940058934e-10
-7.328862295e-12
4.792298997e-10
-3.521466702e-12
3.548705219e-10
-9.660474343e-13
2.209087413e-10
7.737985553e-11
2.221108297e-15
5.768352419e-11
8.289004143e-15
1.687784158e-10
1.630808154e-14
2.736421292e-10
2.290061084e-14
3.725073449e-10
2.292809339e-14
4.65598375e-10
9.666367798e-15
5.531309574e-10
-2.530612401e-14
6.353124531e-10
-9.180094414e-14
7.123418681e-10
-2.009331469e-13
7.844100583e-10
-3.64976998e-13
8.516995358e-10
-5.971252875e-13
9.14384431e-10
-9.112496655e-13
9.726304e-10
-1.32166702e-12
1.026594419e-09
-1.842842831e-12
1.076424526e-09
-2.489032199e-12
1.122259619e-09
-3.274003681e-12
1.164229076e-09
-4.210698721e-12
1.202452641e-09
-5.310784542e-12
1.237039919e-09
-6.583935255e-12
1.268089424e-09
-8.03771715e-12
1.295688485e-09
-9.676591238e-12
1.319912374e-09
-1.150145135e-11
1.340822881e-09
-1.350874525e-11
1.358467901e-09
-1.568965507e-11
1.3728791e-09
-1.802905694e-11
1.384071324e-09
-2.05045587e-11
1.39203906e-09
-2.308522472e-11
1.396755464e-09
-2.573076112e-11
1.398168219e-09
-2.839000797e-11
1.396196721e-09
-3.100080455e-11
1.3907286e-09
-3.348911644e-11
1.381614887e-09
-3.57700863e-11
1.368667387e-09
-3.77492346e-11
1.351653957e-09
-3.932589319e-11
1.330297495e-09
-4.03976925e-11
1.30427415e-09
-4.086731355e-11
1.273215631e-09
-4.065022624e-11
1.236713194e-09
-3.968391303e-11
1.19432574e-09
-3.793642931e-11
1.145589815e-09
-3.54146635e-11
1.090032971e-09
-3.217021771e-11
1.02718835e-09
-2.830255523e-11
9.566096123e-10
-2.39590615e-11
8.778859782e-10
-1.933176197e-11
7.90655318e-10
-1.465099037e-11
6.946154315e-10
-1.017666734e-11
5.895315702e-10
-6.188072705e-12
4.752413048e-10
-2.972986196e-12
3.51655435e-10
-8.173103386e-13
2.187530653e-10
7.65625452e-11
3.397785885e-16
5.768318441e-11
1.064736001e-15
1.687776908e-10
1.020473288e-15
2.736421735e-10
-2.220849768e-15
3.725105863e-10
-1.267894184e-14
4.656088331e-10
-3.584815656e-14
5.531541266e-10
-7.875864663e-14
6.353553636e-10
-1.49748915e-13
7.124128584e-10
-2.583231416e-13
7.845186325e-10
-4.150717934e-13
8.518562845e-10
-6.315121314e-13
9.146008713e-10
-9.198751961e-13
9.72918763e-10