/*--------------------------------*- C++ -*----------------------------------*\
  =========                 |
  \\      /  F ield         | OpenFOAM: The Open Source CFD Toolbox
   \\    /   O peration     | Website:  https://openfoam.org
    \\  /    A nd           | Version:  7
     \\/     M anipulation  |
\*---------------------------------------------------------------------------*/
FoamFile
{
    version     2.0;
    format      ascii;
    class       volScalarField;
    location    "0.0006";
    object      rho;
}
// * * * * * * * * * * * * * * * * * * * * * * * * * * * * * * * * * * * * * //

dimensions      [1 -3 0 0 0 0 0];

internalField   nonuniform List<scalar> 
1167
(
940.0195142
939.8180335
939.7251973
939.5261276
939.2320204
938.8493197
938.3838259
937.8409471
937.226105
936.5446332
935.8017067
935.0025127
934.1521572
933.2558721
932.3186209
931.3454057
930.3411208
929.3105451
928.2583259
927.1892272
926.1073586
925.0169759
923.9222652
922.8267783
921.7341568
920.6478054
919.5707622
918.5057847
917.4555091
916.4222649
915.407951
914.4145117
913.4433396
912.4957922
911.5729014
910.6754533
909.8039616
908.9589848
908.1405539
907.3487438
906.5835382
905.8445574
905.1313973
904.4435841
903.7805209
903.1415174
902.5257269
901.9323378
901.3603769
900.8089502
900.2771076
939.6167148
939.527615
939.3365699
939.0543768
938.6868923
938.2399054
937.7183797
937.1274254
936.4720237
935.7570216
934.9872456
934.1674255
933.3023617
932.3966911
931.4548975
930.4816932
929.481192
928.458009
927.4161839
926.3597427
925.292736
924.2187533
923.1413648
922.0641191
920.9900141
919.9220095
918.8630858
917.8156074
916.7819061
915.7642227
914.7642775
913.7838663
912.8243653
911.88713
910.9731458
910.0833093
909.2181902
908.3785648
907.5645561
906.7764291
906.0144227
905.2783648
904.5681029
903.8833944
903.2238651
902.5889681
901.9781296
901.3905898
900.8255652
900.282085
939.4156016
939.3309988
939.1496471
938.8814622
938.5323207
938.1072919
937.6113495
937.0490948
936.4251325
935.7439516
935.0099916
934.2275837
933.4010119
932.5346625
931.6325073
930.6987102
929.7372071
928.7519212
927.7467104
926.7251989
925.6908319
924.6472557
923.597473
922.5446604
921.4918234
920.4415698
919.3966124
918.3593176
917.3317842
916.3162123
915.3142876
914.3277054
913.3579978
912.4064022
911.4742272
910.56229
909.6716104
908.8029117
907.9568307
907.1341636
906.3353163
905.5608736
904.8114623
904.087563
903.3896114
902.7179368
902.0727177
901.4538248
900.8608024
900.2927874
939.2147296
939.1352386
938.9647185
938.7125059
938.3842767
937.9844409
937.5177379
936.9884576
936.4007551
935.7587549
935.0665081
934.3279533
933.5469213
932.7273134
931.8729226
930.9872301
930.0738533
929.1363506
928.1780107
927.2022865
926.2121143
925.2107085
924.2008863
923.185376
922.1669298
921.1478224
920.1305321
919.1170664
918.1094492
917.109489
916.1186479
915.1386278
914.1704034
913.2152909
912.2740919
911.3477193
910.436627
909.5415428
908.6627434
907.8008046
906.9560591
906.1290201
905.3205894
904.531583
903.763422
903.0180306
902.2977203
901.605283
900.9438354
900.3164193
939.0155607
938.9421866
938.7847554
938.552041
938.248883
937.8796184
937.448341
936.9591404
936.4156463
935.8215843
935.1805894
934.4961876
933.7717833
933.0107513
932.2163923
931.3919638
930.5405787
929.6651332
928.7687446
927.854285
926.9243615
925.9818325
925.0289932
924.0685441
923.1024388
922.1331976
921.1625168
920.1925124
919.224707
918.2608732
917.3021633
916.3499489
915.4050598
914.4684439
913.5404875
912.6217195
911.712034
910.8114871
909.9193778
909.0352184
908.1579379
907.2863776
906.4192697
905.5550869
904.6927883
903.8314854
902.9714665
902.1145097
901.2645359
900.4286461
938.8521643
938.780201
938.6260701
938.3982478
938.101357
937.7398668
937.3175223
936.8383539
936.3059469
935.7238388
935.0955445
934.4244572
933.71386
932.9670065
932.1870647
931.3771826
930.5403023
929.6792336
928.7969543
927.8962705
926.9796542
926.0498781
925.1091977
924.1601223
923.204705
922.2451927
921.283409
920.321234
919.3602376
918.4019983
917.4476319
916.4983641
915.5548857
914.618023
913.6880115
912.7651993
911.8495018
910.9407404
910.0385129
909.1423524
908.2519355
907.3667268
906.4868533
905.6122698
904.7436269
903.8815417
903.0262575
902.1766012
901.32753
900.4676192
938.7312835
938.6591635
938.5046457
938.2761636
937.9785126
937.6160712
937.1926793
936.7121373
936.1782624
935.5944995
934.9643409
934.2911603
933.5782397
932.828842
932.0462207
931.2333791
930.3932515
929.5287438
928.6429719
927.7384683
926.8179958
925.8841206
924.9392647
923.985888
923.0259993
922.0618986
921.0952951
920.1280425
919.1616248
918.1975099
917.236759
916.2803911
915.3291372
914.3835717
913.4440565
912.5108592
911.5840949
910.6638417
909.750157
908.8434136
907.9439689
907.0528497
906.1710464
905.3003686
904.4424307
903.5991461
902.7721113
901.9622249
901.170188
900.3971661
938.6105584
938.5380993
938.3827739
938.1531138
937.8540838
937.4898064
937.064416
936.5815599
936.0449597
935.4582813
934.824968
934.148369
933.4318057
932.678653
931.8920165
931.0749641
930.2304848
929.3617226
928.4714654
927.5624745
926.6376028
925.6991734
924.7499399
923.7919522
922.8275716
921.8586645
920.8872844
919.9148115
918.9430473
917.9730202
917.0060493
916.0428347
915.0843391
914.1309972
913.1834687
912.2421937
911.3077689
910.3807291
909.4620398
908.5527717
907.654524
906.7689376
905.8983638
905.0447631
904.2103893
903.3971145
902.6060721
901.8380116
901.0931826
900.3712133
938.489859
938.4170859
938.261072
938.0304168
937.7301976
937.3643661
936.9372544
936.4524443
935.9136607
935.3245384
934.6886095
934.0092689
933.2898591
932.5336985
931.7439668
930.9237731
930.0762266
929.2043369
928.3109048
927.3988982
926.4708249
925.5292874
924.5767713
923.615453
922.6475201
921.6749099
920.6994432
919.7227058
918.7461249
917.7710588
916.7984642
915.8294726
914.864767
913.9053808
912.9518693
912.0054772
911.0669561
910.1378164
909.2193585
908.3137369
907.4227422
906.5488555
905.6941831
904.8607696
904.050423
903.2640668
902.5020324
901.764148
901.0494548
900.3568874
938.3691356
938.2961278
938.1395981
937.9083174
937.6071201
937.2402567
936.8117783
936.325573
935.7852498
935.1944689
934.5567738
933.8755894
933.1542969
932.3962254
931.6045646
930.7824988
929.9331068
929.0592808
928.1639658
927.2500104
926.3198324
925.3762289
924.4213296
923.4575746
922.4868204
921.5112498
920.5323516
919.552011
918.5714013
917.5920381
916.6149432
915.6413025
914.6721851
913.7086432
912.7519535
911.8034117
910.8646603
909.9373194
909.023546
908.1254054
907.2451904
906.3850559
905.5468047
904.7320786
903.9416742
903.1758868
902.4343937
901.7165755
901.0213058
900.3476327
938.2483817
938.1752087
938.018347
937.7866354
937.4847565
937.1172259
936.6878635
936.2007324
935.6594592
935.0676829
934.4289544
933.7467193
933.0243821
932.2652653
931.4725654
930.6495543
929.799066
928.9240998
928.0277092
927.1124242
926.1809007
925.2356771
924.2790258
923.3132212
922.3402329
921.3620543
920.3803599
919.3968073
918.4129139
917.4299595
916.4494231
915.4723831
914.5004472
913.5347559
912.5770966
911.6290563
910.6926495
909.7698161
908.862903
907.9739201
907.1051894
906.2582983
905.4347875
904.6355879
903.8610133
903.1109465
902.3848307
901.6818071
901.0008099
900.3409143
938.1275959
938.0543124
937.8973423
937.6652797
937.362987
936.9950567
936.5652564
936.077517
935.5357523
934.9434811
934.304251
933.6215162
932.8986915
932.1390815
931.3459983
930.5224245
929.6713279
928.7957738
927.8986296
926.9824194
926.0499397
925.1034488
924.1454438
923.1779151
922.2031069
921.2227296
920.238734
919.2525978
918.2661381
917.2806139
916.2976777
915.3187653
914.3454888
913.379586
912.4228596
911.477427
910.5452233
909.6285885
908.7295875
907.8503195
906.9925819
906.1577168
905.3469193
904.5605337
903.7986298
903.0608768
902.3466304
901.6549718
900.9849517
900.3357055
938.006823
937.933551
937.7764384
937.5441605
937.2417472
936.8735155
936.4435285
935.9555878
935.4135099
934.821062
934.1816566
933.4987496
932.7757776
932.0161002
931.222805
930.3989618
929.5475416
928.6717067
927.7740426
926.8572675
925.9240066
924.9765736
924.0174693
923.0485968
922.0722902
921.0902418
920.1043922
919.1164309
918.1280705
917.1409732
916.1567096
915.1772114
914.2040571
913.239435
912.2852185
911.3437224
910.4169363
909.5071972
908.6163848
907.7465243
906.8989134
906.0747469
905.2747672
904.4991066
903.7476567
903.0200246
902.3154545
901.6330961
900.9720467
900.3314723
937.8861085
937.8127945
937.6555912
937.4231865
937.1207651
936.7523663
936.3223443
935.8343767
935.2922867
934.6997636
934.0603461
933.3774835
932.6545853
931.8949033
931.1015793
930.2776514
929.4262121
928.550172
927.6521911
926.7350947
925.8012519
924.8532115
923.8932104
922.9234053
921.9459034
920.962688
919.9755119
918.9863965
917.996949
917.0092037
916.0247677
915.0457616
914.0740655
913.1118275
912.1612983
911.2245993
910.3039357
909.4013198
908.518665
907.6575786
906.8191873
906.0045043
905.2138889
904.4473909
903.7047891
902.9856789
902.2892373
901.6146875
900.9611773
900.3279042
937.7653647
937.692023
937.5347619
937.3023789
936.9999086
936.6315204
936.2014378
935.7135301
935.1715207
934.5790878
933.9397726
933.2570316
932.5342572
931.774685
930.9814546
930.1576034
929.3062659
928.4301634
927.5320967
926.6148003
925.6805851
924.7321739
923.7715544
922.8011433
921.82284
920.8389286
919.8510462
918.8613865
917.8717335
916.8840968
915.9004737
914.9229061
913.95364
912.9946934
912.0486036
911.1172538
910.2029876
909.3074798
908.4326494
907.5797227
906.7497083
905.9434648
905.1610827
904.4025728
903.667666
902.9559265
902.26653
901.59875
900.9517727
900.3248183
937.6445939
937.5712311
937.4139275
937.1816319
936.8790976
936.510782
936.0806512
935.5928471
935.050966
934.4586763
933.8195219
933.1369675
932.4143887
931.6550063
930.8619595
930.0383808
929.1871631
928.3111262
927.4131746
926.4957884
925.5614985
924.61284
923.6519548
922.6811865
921.7025873
920.7183206
919.7303473
918.7407191
917.7515739
916.7648266
915.782827
914.8075519
913.841425
912.8865153
911.9452704
911.019646
910.111762
909.2232115
908.355799
907.5104503
906.6881316
905.8894303
905.1143955
904.3629732
903.6348935
902.9296435
902.2464676
901.5846658
900.9434595
900.3220898
937.5238004
937.4504198
937.2931925
937.060882
936.7582975
936.3900715
935.960033
935.4722355
934.9305102
934.3383954
933.6994396
933.0171158
932.2947839
931.5356513
930.7429512
929.9196321
929.0686281
928.192817
927.2950571
926.3777331
925.443569
924.4948625
923.5340092
922.5631695
921.5846567
920.6004785
919.6129345
918.6239425
917.63593
916.6508309
915.6710399
914.6987579
913.7362722
912.7858688
911.8497498
910.9299873
910.0284092
909.1466443
908.2861758
907.4478739
906.6326191
905.8407782
905.0723863
904.3273498
903.605412
902.9059984
902.2284188
901.5719964
900.9359827
900.3196363
937.4029899
937.3296616
937.1724777
936.9401253
936.6375977
936.2693722
935.839451
935.3517312
934.8101096
934.2181922
933.579462
932.8974016
932.1753566
931.4165967
930.6242462
929.8012286
928.9505185
928.0751009
927.1775765
926.2605002
925.3265892
924.3780459
923.4174801
922.4468875
921.468818
920.4852136
919.4985189
918.5107883
917.5243692
916.5415057
915.564452
914.5956564
913.6372257
912.6916232
911.760796
910.8469079
909.9515077
909.0762581
908.222355
907.3906326
906.5819109
905.7963736
905.0340595
904.2948527
903.5785154
902.8844238
902.2119484
901.5604337
900.9291585
900.3173966
937.2822935
937.2089691
937.0517547
936.8193643
936.5169332
936.148682
935.7188877
935.2313248
934.689823
934.0980506
933.4595653
932.7778098
932.0561551
931.297771
930.5057628
929.6831053
928.8328173
927.9578201
927.0606395
926.1440163
925.210452
924.2623887
923.3022429
922.3322963
921.3549202
920.3723381
919.3868697
918.4008654
917.4165205
916.436361
915.4625016
914.4975451
913.5435126
912.602841
911.67742
910.7693067
909.8799193
909.0109133
908.1632277
907.337714
906.5350421
905.7553499
904.9986559
904.2648608
903.5536631
902.8644861
902.196726
901.549747
900.9228514
900.3153267
937.1616108
937.0882717
936.9310287
936.6986357
936.3962741
936.0280489
935.598344
935.1109471
934.5696364
933.9780881
933.3398585
932.6584278
931.9371109
931.1790977
930.3874728
929.5652277
928.7154884
927.840927
926.9441992
926.0281522
925.0950954
924.1477099
923.1882212
922.2192024
921.2428446
920.2616436
919.2777913
918.2939171
917.3121128
916.3349779
915.364731
914.4038124
913.4544077
912.5187358
911.5987594
910.6962934
909.8127799
908.9497177
908.1079371
907.2882915
906.4912814
905.7170546
904.965606
904.2368582
903.5304541
902.845863
902.1825053
901.5397625
900.9169584
900.3133927
937.040928
936.9675748
936.8103053
936.5780139
936.2756251
935.9075192
935.4778234
934.9906008
934.4494916
933.8581805
933.220238
932.5391348
931.8181782
931.0605654
930.2693613
929.44767
928.5984465
927.7243999
926.8283321
925.912875
924.9805205
924.0339647
923.0753818
922.1075323
921.1325364
920.1529995
919.1712068
918.1897083
917.2108208
916.2369774
915.2706017
914.3139218
913.3692679
912.4386413
911.5240696
910.6271374
909.7493367
908.8919559
908.0558023
907.2417179
906.450054
905.6809764
904.9344644
904.210466
903.5085743
902.8283026
902.1690941
901.5303456
900.9114003
900.3115685
936.9202501
936.846884
936.6896319
936.4574037
936.1549921
935.7870111
935.3573933
934.8702897
934.329392
933.7383298
933.1006884
932.4199296
931.6993544
930.9421694
930.151458
929.3303591
928.4816817
927.6082266
926.7129157
925.7981718
924.8667451
923.9211257
922.9637569
921.9972241
921.0239203
920.0462857
919.0668541
918.0880217
917.1123253
916.1420176
915.1797072
914.2274053
913.2875726
912.3619956
911.4527623
910.5612393
909.6889714
908.8370542
908.0062816
907.1974938
906.4109086
905.6467155
904.904889
904.1853895
903.4877794
902.8116091
902.1563428
901.5213913
900.906115
900.3098338
936.7995827
936.7262062
936.5690636
936.336811
936.0344199
935.6665312
935.2370722
934.7500249
934.2093419
933.6185397
932.9812124
932.300814
931.5806406
930.8239222
930.0338124
929.2132645
928.3651922
927.4925071
926.5979468
925.6840366
924.7536831
923.809174
922.853219
921.8882287
920.9168626
919.9413886
918.9645746
917.9886725
917.0163732
916.0498522
915.0916884
914.1439366
913.2088773
912.2883781
911.3843445
910.4981035
909.6311983
908.7845471
907.958974
907.155219
906.3734847
905.6139534
904.8766221
904.1613946
903.4678754
902.7956271
902.144133
901.5128164
900.9010534
900.3081725
911.3184074
910.4373598
909.5756203
908.7340566
907.9135026
907.114572
906.3374942
905.5824362
904.8494197
904.1382953
903.4487086
902.7802333
902.1323708
901.504555
900.8961767
900.3065719
)
;

boundaryField
{
    front_top
    {
        type            wedge;
    }
    front_middle
    {
        type            wedge;
    }
    front_bottom
    {
        type            wedge;
    }
    back_top
    {
        type            wedge;
    }
    back_middle
    {
        type            wedge;
    }
    back_bottom
    {
        type            wedge;
    }
    axis_top
    {
        type            symmetryPlane;
    }
    axis_middle
    {
        type            symmetryPlane;
    }
    axis_bottom
    {
        type            symmetryPlane;
    }
    wall_top
    {
        type            calculated;
        value           nonuniform 0();
    }
    wall_middle
    {
        type            calculated;
        value           uniform 900.0184441;
    }
    wall_bottom
    {
        type            calculated;
        value           uniform 900.0184441;
    }
    inlet
    {
        type            calculated;
        value           nonuniform 0();
    }
    outlet
    {
        type            calculated;
        value           nonuniform 0();
    }
    procBoundary2to1
    {
        type            processor;
        value           nonuniform List<scalar> 
51
(
936.6789844
936.6056767
936.4485149
936.2162419
935.9139704
935.5460854
935.116791
934.6299327
934.0893585
933.4988153
932.8618149
932.1817929
931.4620687
930.705921
929.9163419
929.0963906
928.2489826
927.377156
926.483429
925.5705644
924.6413305
923.6981326
922.7437438
921.7805391
920.8112889
919.8382673
918.8642248
917.8915333
916.9227348
915.9601728
915.0062293
914.0630818
913.1327998
912.2173446
912.2173446
911.2546096
910.3786512
909.5219113
908.6852743
907.8695694
907.0752932
906.3027048
905.5519599
904.8231059
904.1159426
903.4301558
902.7653292
902.1209809
901.4965545
900.8914538
900.3050217
)
;
    }
    procBoundary2to3
    {
        type            processor;
        value           nonuniform List<scalar> 
51
(
940.2213096
939.9236896
939.9236896
939.7182382
939.4145964
939.0197385
938.5394559
937.9795911
937.3458054
936.6437485
935.878882
935.0567123
934.1826815
933.2623483
932.3010604
931.3041705
930.2768364
929.2242746
928.1513645
927.0630568
925.9638903
924.8582352
923.7502681
922.6440009
921.5429878
920.4505706
919.3699177
918.3038026
917.2545925
916.2245437
915.2155543
914.2290627
913.2666242
912.3290519
911.4173748
910.5318772
909.6730891
908.8410609
908.0356928
907.256931
906.5043392
905.7774357
905.075637
904.3983201
903.7447614
903.114189
902.5057148
901.9185409
901.3517432
900.8045061
900.2759286
)
;
    }
}


// ************************************************************************* //
