/*--------------------------------*- C++ -*----------------------------------*\
  =========                 |
  \\      /  F ield         | OpenFOAM: The Open Source CFD Toolbox
   \\    /   O peration     | Website:  https://openfoam.org
    \\  /    A nd           | Version:  7
     \\/     M anipulation  |
\*---------------------------------------------------------------------------*/
FoamFile
{
    version     2.0;
    format      ascii;
    class       volScalarField;
    location    "0.0006";
    object      T;
}
// * * * * * * * * * * * * * * * * * * * * * * * * * * * * * * * * * * * * * //

dimensions      [0 0 0 1 0 0 0];

internalField   nonuniform List<scalar> 
1167
(
450.1701409
450.473929
450.6139492
450.9142895
451.3582475
451.936355
452.6401653
453.4618614
454.3936302
455.4278032
456.5569535
457.7736263
459.0704721
460.4399219
461.874781
463.3677545
464.9116657
466.4994638
468.1242453
469.7788684
471.4571443
473.1526001
474.8588116
476.5702852
478.2813347
479.9865915
481.6812148
483.3607614
485.020941
486.657912
488.2684862
489.8493782
491.3981594
492.9124424
494.3903475
495.8303816
497.2314851
498.5925254
499.9132217
501.1932275
502.43235
503.6309928
504.7896094
505.9087775
506.9892866
508.0320897
509.0384079
510.0094182
510.9465737
511.8512106
512.7247688
450.777603
450.9120447
451.2003964
451.6265359
452.1818581
452.8579062
453.6475056
454.5432836
455.5380741
456.6249176
457.796879
459.0471548
460.368812
461.7551369
463.1996155
464.6953425
466.2362879
467.8156023
469.4272723
471.0652548
472.7234158
474.3962844
476.0783692
477.7641614
479.4489653
481.1281014
482.7968143
484.4512795
486.0876906
487.7023534
489.2923721
490.8547082
492.3869721
493.8867922
495.3523768
496.7820682
498.174729
499.5288869
500.8441217
502.119788
503.3552854
504.5506853
505.7060351
506.8215374
507.8976173
508.9349931
509.9344372
510.8970384
511.8239358
512.7165883
451.081097
451.2088071
451.4826394
451.8877797
452.4155659
453.0585989
453.8096554
454.6620969
455.6092927
456.6447907
457.7622098
458.9553221
460.217954
461.5437511
462.9269637
464.3615154
465.8416421
467.3615597
468.9155409
470.4981761
472.1042878
473.7283412
475.3657566
477.011641
478.6613252
480.3107218
481.9555411
483.5920016
485.2167114
486.8260886
488.4173389
489.9876304
491.5343694
493.0554151
494.5484982
496.0121242
497.4444654
498.8441624
500.2099912
501.5404659
502.8347288
504.0916322
505.3099584
506.4887272
507.6270323
508.7241436
509.7795808
510.7933736
511.7660952
512.698999
451.3843568
451.5044008
451.7619818
452.1431358
452.6394762
453.2445677
453.9515056
454.7540846
455.646316
456.6222615
457.6760917
458.8021402
459.9948908
461.248701
462.5580692
463.9179451
465.3230402
466.7681229
468.2483422
469.7585568
471.2943875
472.8509863
474.4240843
476.0095144
477.6030356
479.201119
480.7998842
482.3961584
483.9867149
485.5686405
487.1395465
488.6966432
490.2382775
491.7622375
493.2671195
494.7513313
496.2140075
497.653838
499.0702326
500.4621165
501.828803
503.1693116
504.4820261
505.7654624
507.0171435
508.2337584
509.4113459
510.5451393
511.6298175
512.6601616
451.6851734
451.7960261
452.0339294
452.3857437
452.8443155
453.4032839
454.0566809
454.7985613
455.6236877
456.5266822
457.5023035
458.5454695
459.6512736
460.8148399
462.0313879
463.2961816
464.6046836
465.9526638
467.3355254
468.7490191
470.1892763
471.6520093
473.1337738
474.6304656
476.1391143
477.6558375
479.1780131
480.7023366
482.2264115
483.7474253
485.2635247
486.772493
488.2729568
489.7633435
491.2429649
492.7109006
494.16724
495.6118151
497.0456749
498.4695343
499.8850564
501.2940598
502.6985544
504.1009877
505.503034
506.9061324
508.3098104
509.7111529
511.1037089
512.4757545
451.9320561
452.0408146
452.2738099
452.6183424
453.0675775
453.614944
454.2549909
454.981851
455.7903427
456.6753614
457.631837
458.654879
459.7397554
460.8817663
462.0763262
463.3188608
464.6050892
465.9309113
467.2919428
468.6840362
470.1035331
471.5462814
473.008902
474.4875942
475.9792389
477.4803884
478.9882303
480.4998401
482.0127572
483.524487
485.0332464
486.5370633
488.0347993
489.5250913
491.0075081
492.4814361
493.9469495
495.4042758
496.8540037
498.296832
499.7332336
501.1640286
502.5889699
504.0080888
505.4202849
506.8245037
508.2202948
509.6095219
511.0004086
512.4117254
452.1147553
452.2237787
452.4574188
452.8030384
453.2535408
453.8024913
454.4442948
455.1734331
455.9843724
456.8721499
457.8317298
458.8582521
459.9469879
461.0932243
462.2922458
463.5397009
464.8313226
466.1628648
467.5297311
468.9281972
470.3541564
471.8037767
473.2734222
474.7593684
476.2585666
477.767486
479.2834947
480.8037105
482.3258107
483.8474771
485.3670174
486.8827907
488.3936019
489.8984945
491.3968444
492.8881733
494.3722446
495.8488788
497.3179294
498.7787405
500.2306768
501.6720138
503.1010742
504.5148369
505.9105764
507.2850607
508.6355536
509.9604448
511.2584392
512.5274739
452.2972663
452.4068305
452.6417522
452.9892438
453.4419523
453.9938304
454.6388378
455.3716889
456.1869968
457.0794642
458.0441312
459.0761767
460.1708135
461.3231585
462.5287241
463.7830614
465.0818207
466.4203898
467.7946774
469.2006071
470.6339314
472.091195
473.5682464
475.061998
476.5688516
478.0859534
479.6101333
481.1392532
482.6704925
484.2022289
485.7323653
487.2597705
488.782885
490.3009795
491.8129582
493.3180692
494.8153026
496.3037415
497.7817672
499.2475802
500.6985122
502.1318075
503.5435377
504.9303823
506.2885203
507.6147295
508.9069775
510.1638517
511.3847556
512.5701165
452.4797854
452.5898525
452.8258764
453.1749644
453.629592
454.1839716
454.8317627
455.5677801
456.3866326
457.2830707
458.2520008
459.288533
460.387848
461.5451503
462.7558392
464.0154026
465.3193065
466.6631439
468.042804
469.4538904
470.8926882
472.3553096
473.8380177
475.3375295
476.850517
478.3740177
479.9052268
481.4416861
482.981166
484.521528
486.0612506
487.5985225
489.1322305
490.660694
492.1829823
493.6970529
495.2016389
496.6942429
498.1726867
499.6333967
501.0733609
502.4884272
503.8750223
505.2296511
506.5491824
507.8319127
509.0771013
510.2848339
511.456494
512.593656
452.6623878
452.7728382
453.0097034
453.3598286
453.8160563
454.3721458
455.0221823
455.7605162
456.5819318
457.4811415
458.4530342
459.4926744
460.5951837
461.7557495
462.9697557
464.2325741
465.539716
466.8869545
468.2699566
469.6845083
471.127035
472.5933467
474.0802597
475.5840816
477.1020022
478.6306774
480.1678245
481.7105175
483.2569296
484.8046755
486.3521343
487.8974085
489.4387721
490.9745103
492.5025367
494.020716
495.5263401
497.0167148
498.4882605
499.937518
501.3606359
502.7539592
504.1143816
505.4390412
506.7264387
507.9758898
509.1877237
510.3627637
511.5026778
512.6088631
452.8450833
452.9558122
453.1932407
453.5441089
454.0014878
454.5587341
455.2102831
455.9502188
456.7732987
457.6742662
458.6479985
459.6895279
460.7939396
461.9564303
463.1723724
464.437002
465.746206
467.0955928
468.4806605
469.8976874
471.3427315
472.8120034
474.3020998
475.8095867
477.3314801
478.8647329
480.4067748
481.9550388
483.5071587
485.0611226
486.6145866
488.1658224
489.7122444
491.2519914
492.7821513
494.30011
495.8025454
497.2862303
498.7472563
500.1822312
501.5872336
502.959509
504.2963623
505.5960778
506.85794
508.0819397
509.2687935
510.4197239
511.5363071
512.619903
453.0278742
453.1387987
453.3764526
453.7279429
454.1860674
454.7440647
455.3964483
456.1375022
456.9615465
457.8635062
458.8382623
459.880833
460.9862867
462.1498465
463.3667059
464.6325445
465.9430433
467.2937084
468.6803241
470.0991791
471.5461134
473.0177728
474.5104063
476.0210234
477.5462131
479.0833728
480.6295006
482.1823141
483.7389747
485.2975042
486.8552815
488.4100087
489.9590864
491.4996938
493.0288819
494.5431738
496.0393576
497.5135453
498.9622634
500.3819591
501.7695446
503.1226524
504.4391423
505.7182498
506.9596596
508.1637157
509.3312833
510.4636903
511.5623278
512.6284622
453.2106926
453.3216282
453.5595592
453.9114664
454.369892
454.9284909
455.5813273
456.3228798
457.1476154
458.0500798
459.0253586
460.0684659
461.1744357
462.3384051
463.5559109
464.8224986
466.1338435
467.4853017
468.8730921
470.2932039
471.7417422
473.2152685
474.7100259
476.2231622
477.7511263
479.291346
480.8408355
482.39698
483.9571057
485.5185954
487.078954
488.6350917
490.1844549
491.7234941
493.2491356
494.7575717
496.2454892
497.7089889
499.1448827
500.5497253
501.9212278
503.2572571
504.5564052
505.8182547
507.0427841
508.2304437
509.3822862
510.4995327
511.5835033
512.6354183
453.3934698
453.5044976
453.7426271
454.0948172
454.5533733
455.1123701
455.7654284
456.5072138
457.3321813
458.2349942
459.2105444
460.2538547
461.3599985
462.524277
463.7421436
465.0091912
466.3209074
467.6730348
469.0616786
470.4826615
471.9324855
473.4073483
474.9039035
476.418905
477.9491568
479.4916312
481.0436375
482.6020386
484.1643244
485.7272866
487.2883681
488.8441716
490.3916558
491.9273246
493.4474901
494.9486414
496.4271068
497.8794976
499.3025618
500.6935205
502.050358
503.3712329
504.6553602
505.9024597
507.1126977
508.2865484
509.4251794
510.5296959
511.6013393
512.6412816
453.5763383
453.6874367
453.9257152
454.2779631
454.7367117
455.2958365
455.9491553
456.6910412
457.516099
458.4190073
459.3946532
460.4380465
461.544286
462.7086964
463.9267332
465.1939895
466.5058869
467.8584595
469.2475949
470.6692555
472.1200346
473.5958592
475.0937711
476.6101195
478.1420326
479.6860123
481.2395479
482.7992293
484.3622652
485.9254821
487.4856992
489.0396364
490.5836618
492.1144763
493.6279236
495.1208632
496.5893918
498.0306541
499.4413832
500.8194104
502.1629098
503.4702902
504.7412051
505.9754415
507.173248
508.3351535
509.4623321
510.5558109
511.6167718
512.6463525
453.7592949
453.8704539
454.1088582
454.4610644
454.9200283
455.479187
456.1327476
456.8746672
457.6997422
458.6026651
459.5783164
460.6216929
461.7279174
462.8923356
464.1104028
465.3775646
466.6896132
468.042431
469.431744
470.8539083
472.3051763
473.7817654
475.280479
476.7977784
478.330554
479.8754945
481.4295803
482.9896214
484.5522651
486.1144821
487.6725269
489.2232152
490.7626231
492.2873618
493.7934081
495.2774979
496.7360778
498.1664197
499.5654351
500.9314393
502.2626745
503.5579904
504.8171108
506.0399314
507.226706
508.3780932
509.4951588
510.5788901
511.6304138
512.650836
453.9423331
454.0535477
454.2918978
454.6442174
455.1033757
455.6625425
456.3161313
457.0582318
457.8832823
458.7861707
459.7617699
460.8050618
461.9111918
463.0755253
464.2933714
465.5604571
466.8725107
468.2253246
469.6146943
471.0371242
472.4885662
473.9656062
475.4646522
476.9824509
478.515483
480.0606799
481.6144874
483.1739231
484.7351722
486.2951706
487.8500943
489.3963964
490.9303617
492.4482476
493.9464147
495.421406
496.8701308
498.2897995
499.677839
501.032654
502.3526259
503.6369638
504.8854176
506.0979508
507.2747993
508.4167255
509.5246922
510.5996513
511.6426833
512.654868
454.1254442
454.2366082
454.4749538
454.8274278
455.2866181
455.8459282
456.4995071
457.2416807
458.0667855
458.9696052
459.9451106
460.9882674
462.0942414
463.2583009
464.4759203
465.7428645
467.0547986
468.4073476
469.7967048
471.2191106
472.6705258
474.1476847
475.6466603
477.1644554
478.6971784
480.2418619
481.7947202
483.3525526
484.9116655
486.4684986
488.0194439
489.5605548
491.0883955
492.5989339
494.0889316
495.5547794
496.9938304
498.4032379
499.7808905
501.1252517
502.4348021
503.70905
504.9477422
506.1508824
507.3186784
508.4519766
509.5516438
510.6185995
511.6538822
512.6585484
454.3084296
454.4196162
454.6580695
455.0106918
455.469854
456.0293474
456.6829017
457.4250276
458.2501622
459.1529929
460.1283746
461.1713327
462.2769917
463.4407717
464.6581751
465.9248868
467.2365026
468.5887438
469.9779191
471.3999798
472.8512205
474.3280019
475.8266962
477.3438585
478.8758743
480.4193323
481.9706391
483.5261237
485.0823273
486.6352383
488.181463
489.7168024
491.2379516
492.7409136
494.2225378
495.6793804
497.1090024
498.5085671
499.8763763
501.2108672
502.5107646
503.775654
505.0053183
506.199737
507.3592249
508.4845548
509.576554
510.6361127
511.6642325
512.6619498
454.4914412
454.6026789
454.8412369
455.1939541
455.6531291
456.2127269
456.8663137
457.608378
458.4334335
459.3361542
460.3113954
461.3541236
462.4595475
463.6230549
464.8401787
466.1065766
467.4176775
468.7695859
470.1584094
471.579932
473.0307459
474.5068384
476.0048775
477.5209616
479.0517548
480.593416
482.142549
483.6950382
485.247583
486.7960492
488.3368736
489.8661085
491.3801823
492.8754398
494.3486102
495.7966344
497.2170339
498.6072222
499.9656776
501.2908357
502.5816969
503.8378338
505.0590706
506.2453541
507.3970923
508.5149862
509.5998259
510.6524755
511.6739035
512.665128
454.6745003
454.7857879
455.0244477
455.3771014
455.8364359
456.3959967
457.0497378
457.7917277
458.6166882
459.5192786
460.4943312
461.536825
462.641979
463.805168
465.0219538
466.2878195
467.598455
468.9499075
470.3380562
471.7590177
473.2090996
474.6842631
476.1812552
477.6958777
479.2249043
480.7643164
482.3105684
483.8596642
485.4079434
486.9515291
488.4865279
490.0093237
491.5161099
493.0035742
494.4683387
495.9077114
497.3191326
498.7003537
500.049892
501.3662025
502.6485292
503.8964185
505.1097229
506.2883504
507.432793
508.5436823
509.6217738
510.6679084
511.683025
512.6681257
454.8575989
454.9689349
455.2076296
455.5602783
456.0197657
456.5792806
457.2330714
457.9750708
458.7999211
459.7023631
460.6772054
461.7194386
462.8242898
463.987118
465.2034548
466.4687275
467.7788501
469.1297266
470.5170491
471.937256
473.3862523
474.8603175
476.355777
477.8687028
479.3954381
480.9322201
482.4751076
484.0203419
485.5639106
487.1022169
488.6310687
490.1471901
491.6465623
493.1262126
494.5826638
496.0135716
497.4162914
498.788885
500.1298928
501.4377745
502.7119922
503.9520568
505.1578313
506.3292056
507.4667251
508.5709629
509.6426423
510.6825837
511.691699
512.6709764
455.040729
455.1521092
455.3906993
455.7434757
456.2030503
456.762569
457.4162862
458.1583907
458.9831254
459.8854021
460.8600138
461.9019616
463.0064783
464.1688855
465.3846049
466.6493476
467.9588651
469.3088884
470.6953924
472.1146557
473.5623376
475.0350304
476.528641
478.0395118
479.5635648
481.0973036
482.6364143
484.1773613
485.715883
487.2485009
488.7710643
490.2802251
491.7722467
493.2440254
494.692373
496.1150089
497.5092903
498.8735652
500.206327
501.5061985
502.7726695
504.0052652
505.2038141
506.368301
507.4992049
508.5970818
509.6626253
510.6966374
511.7000059
512.6737064
494.7981204
496.2126169
497.598767
498.9550025
500.2798019
501.5719938
502.8310277
504.0564555
505.248068
506.4059391
507.5304832
508.6222402
509.6818764
510.7101775
511.7080095
512.6763368
)
;

boundaryField
{
    front_top
    {
        type            wedge;
    }
    front_middle
    {
        type            wedge;
    }
    front_bottom
    {
        type            wedge;
    }
    back_top
    {
        type            wedge;
    }
    back_middle
    {
        type            wedge;
    }
    back_bottom
    {
        type            wedge;
    }
    axis_top
    {
        type            symmetryPlane;
    }
    axis_middle
    {
        type            symmetryPlane;
    }
    axis_bottom
    {
        type            symmetryPlane;
    }
    wall_top
    {
        type            convectiveRadiativeHeatFlux;
        mode            convectiveRadiative;
        kappaMethod     fluidThermo;
        kappa           none;
        alphaAni        Anialpha;
        h               nonuniform 0();
        Ta              constant 513.15;
        emissivityNozzle 0.95;
        emissivityFilament 0.95;
        dNozzle         2;
        dFilament       1.65;
        refValue        nonuniform 0();
        refGradient     nonuniform 0();
        valueFraction   nonuniform 0();
        value           nonuniform 0();
    }
    wall_middle
    {
        type            fixedValue;
        value           uniform 513.15;
    }
    wall_bottom
    {
        type            fixedValue;
        value           uniform 513.15;
    }
    inlet
    {
        type            fixedValue;
        value           nonuniform 0();
    }
    outlet
    {
        type            zeroGradient;
    }
    procBoundary2to1
    {
        type            processor;
        value           nonuniform List<scalar> 
51
(
455.2238013
455.3351058
455.5737863
455.9266846
456.3861956
456.9458526
457.5994873
458.3414945
459.1662751
460.0683875
461.0427488
462.0843863
463.1884955
464.3503209
465.5655311
466.8296727
468.1384925
469.4875243
470.8730799
472.2910686
473.737361
475.2083649
476.6998844
478.2083146
479.7293996
481.2596296
482.794713
484.3309208
485.8642219
487.3908673
488.9070147
490.4091171
491.8937711
493.3577211
493.3577211
494.9004517
496.3069667
497.6852454
499.0336932
500.3507984
501.6355803
502.8874428
504.1059586
505.290879
506.4423626
507.5607609
508.6465992
509.7005184
510.7232904
511.7157608
512.6788843
)
;
    }
    procBoundary2to3
    {
        type            processor;
        value           nonuniform List<scalar> 
51
(
449.8660086
450.3146071
450.3146071
450.6244469
451.0826154
451.678864
452.404783
453.2519243
454.2121378
455.2773022
456.4395805
457.6910564
459.0238889
460.4300276
461.9017036
463.4310933
465.0106185
466.6325538
468.2896308
469.9744073
471.6800138
473.3997789
475.12727
476.8562499
478.5811398
480.2966414
481.9976796
483.6797571
485.33898
486.9715978
488.5743993
490.1448829
491.6803437
493.1792483
494.6397111
496.0610351
497.4421303
498.7826796
500.0826144
501.3417989
502.5607244
503.7399671
504.8802796
505.9824913
507.0476068
508.0767224
509.0711361
510.0320114
510.9607298
511.8585062
512.7267066
)
;
    }
}


// ************************************************************************* //
