/*--------------------------------*- C++ -*----------------------------------*\
  =========                 |
  \\      /  F ield         | OpenFOAM: The Open Source CFD Toolbox
   \\    /   O peration     | Website:  https://openfoam.org
    \\  /    A nd           | Version:  7
     \\/     M anipulation  |
\*---------------------------------------------------------------------------*/
FoamFile
{
    version     2.0;
    format      ascii;
    class       volScalarField;
    location    "0.0006";
    object      thermo:alpha;
}
// * * * * * * * * * * * * * * * * * * * * * * * * * * * * * * * * * * * * * //

dimensions      [1 -1 -1 0 0 0 0];

internalField   nonuniform List<scalar> 
1167
(
0.0001197300962
0.0001197015786
0.0001196884386
0.0001196602622
0.0001196186343
0.0001195644668
0.0001194939811
0.0001194123632
0.0001193230612
0.0001192169286
0.000119101225
0.0001189709273
0.0001188263835
0.0001186740325
0.0001185079608
0.0001183266074
0.0001181271957
0.0001179225636
0.0001177045904
0.0001174769781
0.0001172345415
0.0001169867046
0.0001167221442
0.0001164535176
0.0001161817021
0.0001158954788
0.0001156055654
0.0001153154765
0.0001150160721
0.0001147168684
0.0001144129775
0.0001141089456
0.0001138038397
0.0001135061559
0.0001132049116
0.0001129036682
0.000112604413
0.0001123142626
0.0001120262966
0.0001117427947
0.0001114662587
0.0001111908163
0.0001109249982
0.0001106686277
0.0001104138971
0.000110166307
0.0001099196931
0.0001096810244
0.0001094509744
0.0001092291835
0.0001090100952
0.0001196730839
0.0001196604728
0.0001196334323
0.0001195934907
0.0001195411779
0.0001194715686
0.0001193950166
0.0001193076933
0.000119205621
0.0001190942666
0.0001189683333
0.0001188289801
0.0001186819362
0.0001185223478
0.0001183483502
0.0001181551101
0.0001179564498
0.0001177471059
0.0001175253003
0.0001172919043
0.0001170494043
0.0001167938005
0.0001165334264
0.0001162638661
0.0001159831229
0.0001157006072
0.000115414092
0.0001151187303
0.0001148240507
0.0001145197215
0.000114218833
0.0001139108244
0.000113609385
0.0001133082219
0.0001130058942
0.0001127003395
0.0001124032723
0.0001121115175
0.0001118200673
0.0001115378839
0.0001112541328
0.0001109797796
0.0001107150415
0.0001104537581
0.0001101982148
0.0001099451304
0.0001096994431
0.0001094631268
0.0001092358665
0.0001090121708
0.0001196446184
0.0001196326437
0.0001196069753
0.0001195690165
0.0001195171067
0.0001194509171
0.0001193798691
0.0001192954948
0.000119198319
0.000119092232
0.000118972201
0.0001188392072
0.0001186987065
0.0001185477725
0.0001183815411
0.0001181982038
0.0001180072872
0.0001178096834
0.0001175956732
0.0001173749659
0.0001171398842
0.0001168973618
0.0001166436593
0.0001163812755
0.0001161161452
0.000115841191
0.0001155584547
0.0001152737325
0.0001149808111
0.0001146851045
0.0001143849252
0.0001140816839
0.0001137770377
0.0001134780816
0.0001131724798
0.0001128648183
0.0001125589737
0.000112260677
0.0001119605226
0.0001116659719
0.0001113737439
0.000111085083
0.0001108057521
0.0001105328681
0.0001102624372
0.0001099970047
0.0001097374887
0.0001094885615
0.0001092500398
0.0001090166339
0.0001196161869
0.0001196049358
0.0001195808005
0.0001195451025
0.000119494052
0.0001194326729
0.0001193666207
0.0001192860518
0.0001191945233
0.0001190945385
0.000118981809
0.0001188562696
0.00011872351
0.0001185832726
0.0001184258426
0.0001182554954
0.000118074135
0.0001178879842
0.0001176875013
0.000117479769
0.0001172583612
0.0001170307708
0.0001167894923
0.0001165440727
0.0001162887217
0.0001160235489
0.0001157570392
0.0001154828238
0.0001152025087
0.0001149174477
0.0001146259207
0.000114332304
0.0001140322725
0.0001137322114
0.0001134354528
0.0001131308953
0.0001128216743
0.0001125143169
0.0001122125514
0.0001119046641
0.000111602208
0.0001112968553
0.0001109955253
0.0001107014355
0.0001104072786
0.0001101177094
0.00010982799
0.0001095494815
0.0001092834376
0.0001090264887
0.0001195879965
0.0001195776112
0.0001195553286
0.0001195201779
0.0001194729674
0.0001194178376
0.0001193567993
0.0001192814865
0.0001191968432
0.0001191043245
0.0001190012017
0.0001188848675
0.0001187617337
0.0001186323739
0.0001184891327
0.0001183358622
0.0001181668112
0.0001179929828
0.0001178132727
0.000117618584
0.0001174202389
0.0001172060297
0.0001169894772
0.0001167575146
0.0001165240348
0.0001162805757
0.0001160273184
0.000115773816
0.000115511955
0.0001152456825
0.0001149723808
0.0001146952264
0.0001144121349
0.0001141259132
0.0001138343834
0.0001135457402
0.0001132506759
0.0001129504025
0.0001126440664
0.0001123404601
0.0001120325403
0.0001117204829
0.0001114050474
0.0001110829362
0.0001107615273
0.0001104336553
0.0001100989845
0.0001097543029
0.0001094124299
0.0001090732885
0.0001195648694
0.0001195546838
0.0001195317062
0.0001194962277
0.0001194499933
0.0001193980589
0.0001193373009
0.0001192626757
0.0001191797593
0.0001190891024
0.0001189867468
0.000118872676
0.0001187518893
0.0001186249398
0.0001184837307
0.0001183329295
0.0001181667589
0.0001179957853
0.0001178192817
0.0001176275261
0.0001174323783
0.0001172214984
0.0001170077094
0.0001167796508
0.0001165487542
0.0001163076452
0.0001160597744
0.0001158086498
0.0001155486311
0.000115285919
0.0001150138555
0.0001147396978
0.000114457029
0.0001141729114
0.0001138807359
0.000113590822
0.0001132958762
0.0001129947919
0.0001126849811
0.0001123772535
0.0001120662009
0.0001117492563
0.0001114302427
0.0001111042543
0.00011078048
0.0001104530531
0.0001101210245
0.0001097792785
0.000109437768
0.0001090895408
0.0001195477599
0.0001195368596
0.0001195127968
0.0001194772156
0.0001194318341
0.0001193805383
0.0001193178581
0.0001192430191
0.0001191598742
0.0001190689597
0.0001189644456
0.0001188500191
0.0001187288376
0.0001186014557
0.0001184577801
0.0001183043775
0.0001181375622
0.0001179659059
0.0001177865009
0.0001175939321
0.0001173960713
0.0001171838292
0.0001169679497
0.0001167375464
0.000116504567
0.0001162633532
0.0001160101111
0.0001157563812
0.0001154948957
0.000115227629
0.0001149537454
0.0001146743967
0.0001143893983
0.0001140992598
0.0001138040985
0.0001135109219
0.0001132086244
0.0001128997137
0.0001125859685
0.0001122746067
0.000111955939
0.0001116368778
0.0001113125337
0.0001109880006
0.000110668216
0.0001103436366
0.0001100188046
0.0001096930542
0.0001093744833
0.0001090601617
0.0001195292902
0.0001195180063
0.0001194938177
0.0001194580532
0.0001194142238
0.0001193626682
0.0001192978826
0.0001192226834
0.0001191391141
0.0001190477456
0.0001189407557
0.0001188257482
0.0001187039477
0.0001185743126
0.0001184293677
0.000118272924
0.0001181052447
0.0001179327438
0.000117749989
0.0001175564649
0.0001173550755
0.0001171417984
0.0001169221979
0.0001166906804
0.0001164537524
0.0001162142423
0.0001159568423
0.0001156986902
0.0001154357582
0.0001151636368
0.0001148879801
0.000114603228
0.00011431606
0.0001140199143
0.0001137222355
0.0001134249878
0.0001131177825
0.0001128025014
0.0001124870374
0.0001121739217
0.000111852308
0.0001115352275
0.0001112108979
0.0001108927296
0.0001105804752
0.0001102653578
0.0001099520221
0.0001096430944
0.0001093435109
0.0001090493394
0.0001195104937
0.0001194991609
0.0001194748651
0.0001194391798
0.0001193966903
0.0001193445963
0.0001192780787
0.0001192025752
0.0001191186659
0.0001190256723
0.000118917578
0.0001188021047
0.0001186798203
0.0001185476042
0.000118402089
0.0001182429047
0.0001180746165
0.0001179014946
0.0001177158072
0.0001175216412
0.0001173171737
0.0001171031903
0.0001168803504
0.0001166480279
0.0001164076435
0.000116165709
0.0001159087387
0.0001156467149
0.0001153824796
0.0001151060665
0.0001148288067
0.0001145393077
0.0001142502791
0.0001139490376
0.0001136494789
0.0001133471676
0.0001130381449
0.0001127190924
0.0001124037075
0.0001120883395
0.0001117693224
0.0001114533624
0.0001111347945
0.0001108241503
0.0001105184951
0.0001102138074
0.0001099101765
0.0001096133859
0.0001093259232
0.0001090433655
0.0001194916934
0.000119480324
0.000119455948
0.0001194218991
0.0001193792712
0.0001193252677
0.0001192585372
0.0001191828165
0.0001190986675
0.0001190035635
0.0001188951691
0.0001187793824
0.0001186567781
0.0001185222741
0.0001183764036
0.0001182148542
0.0001180461996
0.0001178726934
0.0001176845251
0.0001174899443
0.0001172828592
0.0001170684063
0.0001168427866
0.0001166098754
0.0001163664904
0.0001161214314
0.0001158657846
0.0001156005323
0.0001153342248
0.0001150550356
0.00011477464
0.0001144829346
0.0001141899427
0.0001138872331
0.0001135866758
0.0001132807389
0.0001129686827
0.0001126502476
0.0001123364711
0.0001120209107
0.0001117057529
0.0001113923103
0.0001110798629
0.0001107761839
0.0001104763597
0.0001101796415
0.0001098829717
0.0001095942519
0.0001093146015
0.0001090395063
0.0001194728883
0.0001194614933
0.0001194374711
0.0001194046775
0.0001193619531
0.0001193061069
0.0001192392389
0.000119163374
0.0001190790771
0.0001189820127
0.0001188734427
0.0001187574774
0.0001186346956
0.0001184981439
0.0001183518737
0.0001181884575
0.0001180195853
0.0001178458527
0.0001176555171
0.0001174606534
0.0001172512854
0.0001170364645
0.0001168083975
0.0001165749911
0.000116330625
0.000116081067
0.0001158246623
0.000115558541
0.000115289047
0.0001150088341
0.0001147250525
0.0001144323285
0.0001141359918
0.0001138326068
0.0001135317448
0.0001132234197
0.0001129096194
0.0001125927319
0.0001122813108
0.000111966674
0.0001116556278
0.0001113450647
0.0001110381113
0.0001107402194
0.0001104451072
0.0001101544801
0.0001098630373
0.0001095802679
0.000109306358
0.0001090367048
0.0001194540783
0.000119442666
0.0001194203453
0.000119387502
0.000119344381
0.0001192870803
0.0001192201441
0.0001191441845
0.0001190598111
0.000118960901
0.0001188522458
0.0001187361957
0.0001186133311
0.0001184748937
0.000118326743
0.0001181632151
0.0001179942223
0.0001178190383
0.0001176280369
0.0001174329763
0.0001172215229
0.0001170064141
0.0001167761161
0.0001165422931
0.0001162974886
0.000116043373
0.0001157863443
0.0001155195239
0.0001152472075
0.000114966262
0.0001146795915
0.0001143863065
0.000114087312
0.0001137838604
0.0001134832913
0.0001131735716
0.0001128589976
0.0001125442383
0.0001122355339
0.0001119224209
0.0001116153106
0.0001113075756
0.0001110053607
0.0001107122448
0.0001104209365
0.0001101349564
0.000109847673
0.0001095694746
0.0001092999797
0.0001090345327
0.0001194358396
0.0001194254696
0.0001194032338
0.00011937036
0.0001193254991
0.0001192681515
0.0001192011862
0.0001191251953
0.0001190407732
0.0001189400923
0.0001188314073
0.000118715328
0.0001185922104
0.0001184522334
0.0001183022821
0.0001181387008
0.0001179696438
0.000117792625
0.000117601513
0.0001174050048
0.000117192903
0.0001169769764
0.0001167451896
0.0001165103665
0.0001162658767
0.0001160088304
0.0001157499969
0.0001154826828
0.0001152078502
0.0001149264562
0.0001146373592
0.0001143438986
0.0001140428814
0.000113739832
0.0001134391469
0.0001131296161
0.0001128149475
0.000112502556
0.0001121966633
0.0001118852589
0.0001115817741
0.0001112766508
0.0001109784679
0.0001106893495
0.0001104011868
0.0001101185256
0.0001098351339
0.0001095606762
0.0001092947893
0.0001090327675
0.0001194187549
0.0001194083789
0.0001193861303
0.0001193532385
0.0001193066574
0.0001192492837
0.000119182313
0.0001191063179
0.00011902019
0.000118919474
0.000118810787
0.0001186947153
0.0001185698797
0.0001184299019
0.0001182782117
0.0001181146137
0.0001179455529
0.0001177667507
0.0001175755714
0.0001173772393
0.0001171650053
0.0001169471643
0.0001167151608
0.0001164783061
0.0001162353351
0.0001159761651
0.000115715127
0.0001154475007
0.0001151704727
0.0001148888941
0.0001145978307
0.0001143045176
0.0001140020445
0.0001136997441
0.0001133984081
0.0001130904543
0.0001127761464
0.0001124662006
0.0001121617229
0.0001118534134
0.0001115532295
0.0001112504698
0.0001109557771
0.0001106700739
0.0001103845776
0.0001101047117
0.0001098245893
0.0001095532722
0.0001092904176
0.0001090312796
0.000119401666
0.0001193912861
0.0001193690292
0.0001193349412
0.0001192878351
0.0001192304631
0.000119163483
0.0001190874972
0.0001189996621
0.0001188989616
0.000118790292
0.0001186742409
0.0001185477081
0.0001184077506
0.0001182543599
0.0001180907772
0.0001179217367
0.0001177412013
0.0001175500037
0.0001173499005
0.0001171375819
0.0001169179139
0.000116685761
0.0001164469957
0.0001162055965
0.0001159444713
0.0001156814514
0.0001154136779
0.0001151347787
0.000114853231
0.0001145605935
0.0001142677113
0.0001139642128
0.0001136629462
0.0001133613596
0.0001130551642
0.0001127414836
0.0001124339786
0.0001121309265
0.0001118255384
0.0001115282367
0.0001112277189
0.0001109360951
0.0001106533692
0.0001103701942
0.0001100927452
0.0001098154564
0.0001095468621
0.0001092866351
0.0001090299929
0.0001193845732
0.0001193741904
0.0001193519275
0.000119316136
0.00011926902
0.0001192116593
0.0001191446716
0.000119068702
0.0001189791702
0.000118878494
0.0001187698518
0.0001186538325
0.0001185256212
0.0001183856987
0.0001182306332
0.0001180671046
0.0001178980879
0.0001177158586
0.0001175246856
0.0001173228532
0.0001171105177
0.0001168890751
0.0001166568581
0.0001164162755
0.0001161732087
0.0001159135845
0.0001156487949
0.0001153810299
0.0001151005259
0.0001148192317
0.0001145253475
0.0001142324823
0.0001139289603
0.0001136289619
0.0001133273886
0.0001130219139
0.0001127101593
0.0001124050431
0.0001121034115
0.0001118007366
0.0001115052856
0.0001112075791
0.0001109186937
0.0001106386095
0.0001103574964
0.0001100821741
0.0001098073873
0.0001095411974
0.0001092832915
0.0001090288551
0.0001193674773
0.0001193570919
0.0001193335099
0.0001192973303
0.0001192502065
0.0001191928598
0.0001191258865
0.000119049918
0.0001189586951
0.0001188580486
0.0001187494402
0.0001186334601
0.0001185035829
0.0001183637065
0.000118207003
0.000118043526
0.0001178745518
0.0001176906708
0.0001174995387
0.0001172960231
0.0001170837163
0.000116860564
0.0001166283548
0.0001163860521
0.0001161413022
0.0001158834059
0.0001156170274
0.0001153492147
0.0001150675602
0.0001147854051
0.000114491857
0.0001141983045
0.0001138959263
0.0001135973435
0.0001132959859
0.0001129911275
0.0001126815382
0.000112378752
0.0001120784841
0.0001117783322
0.0001114845949
0.0001111894453
0.0001109030359
0.0001106253319
0.0001103460737
0.000110072664
0.000109800128
0.0001095361018
0.0001092802843
0.000109027832
0.000119350379
0.0001193391892
0.0001193147097
0.0001192785236
0.0001192314087
0.000119174062
0.000119107107
0.000119030293
0.0001189382294
0.0001188376165
0.0001187290464
0.0001186131111
0.0001184815772
0.0001183407608
0.000118183433
0.0001180200159
0.0001178511002
0.0001176656093
0.0001174745274
0.0001172693799
0.0001170571307
0.0001168323334
0.0001166001937
0.0001163564062
0.0001161099615
0.0001158530417
0.0001155860707
0.0001153169586
0.0001150357583
0.000114752652
0.000114459924
0.0001141659148
0.0001138648106
0.0001135677359
0.0001132667421
0.0001129626003
0.0001126551322
0.0001123545832
0.0001120556341
0.0001117578379
0.0001114656948
0.0001111728947
0.0001108887507
0.0001106132115
0.0001103356526
0.0001100639867
0.0001097935036
0.0001095314512
0.0001092775396
0.0001090268981
0.0001193318118
0.0001193203924
0.0001192959082
0.0001192597163
0.0001192126163
0.0001191552657
0.0001190883305
0.0001190098263
0.000118917783
0.0001188171948
0.0001187086664
0.0001185925839
0.0001184596132
0.0001183171668
0.000118159907
0.0001179965615
0.0001178269261
0.0001176406404
0.0001174496317
0.000117242907
0.0001170307366
0.0001168043829
0.0001165723448
0.0001163287146
0.0001160791459
0.0001158225015
0.0001155558624
0.0001152856236
0.0001150050146
0.0001147211514
0.0001144293803
0.0001141350928
0.0001138353702
0.0001135398447
0.0001132393318
0.0001129359541
0.0001126305507
0.0001123321455
0.0001120344646
0.0001117388912
0.0001114482257
0.0001111576042
0.0001108755549
0.000110601591
0.0001103260235
0.0001100559677
0.0001097873811
0.000109527153
0.0001092750029
0.000109026035
0.0001193130166
0.000119301595
0.0001192771063
0.000119240914
0.0001191938248
0.0001191364783
0.000119069557
0.0001189893645
0.0001188973537
0.0001187968035
0.0001186883186
0.0001185705866
0.0001184376781
0.0001182936031
0.0001181364194
0.0001179731558
0.0001178019469
0.000117615754
0.0001174247638
0.0001172165748
0.0001170045198
0.0001167766689
0.0001165447896
0.0001163013847
0.0001160488233
0.0001157925515
0.0001155263496
0.0001152551364
0.0001149752516
0.0001146907776
0.0001144000888
0.0001141056463
0.0001138073775
0.0001135134226
0.0001132134718
0.0001129108832
0.0001126074967
0.0001123111325
0.0001120146687
0.0001117211963
0.000111431915
0.0001111433307
0.0001108632364
0.0001105907413
0.0001103170311
0.0001100484775
0.0001097816615
0.0001095231372
0.0001092726327
0.0001090252285
0.0001192942214
0.0001192827976
0.0001192583048
0.0001192221283
0.0001191750349
0.0001191177069
0.0001190507871
0.000118968908
0.0001188769314
0.0001187764216
0.0001186679855
0.0001185486057
0.0001184157636
0.0001182700673
0.0001181129673
0.0001179498137
0.0001177770289
0.0001175909456
0.0001173984309
0.000117190376
0.000116977934
0.0001167491804
0.0001165172316
0.000116274399
0.0001160196687
0.0001157631561
0.0001154975115
0.0001152254301
0.0001149463767
0.0001146614171
0.0001143718881
0.0001140774067
0.0001137806303
0.0001134882605
0.0001131889172
0.0001128871367
0.0001125857118
0.0001122912985
0.0001119960026
0.0001117045213
0.0001114165486
0.0001111298835
0.0001108516292
0.0001105805156
0.0001103085537
0.0001100414146
0.0001097762675
0.0001095193498
0.0001092703972
0.0001090244678
0.000119275427
0.0001192640011
0.0001192395111
0.0001192033444
0.0001191562475
0.000119098939
0.0001190312542
0.0001189484575
0.0001188565169
0.0001187560494
0.0001186476645
0.0001185266409
0.0001183938692
0.0001182465587
0.0001180895565
0.0001179265205
0.0001177521697
0.0001175662125
0.0001173722004
0.0001171643077
0.0001169504381
0.000116721911
0.0001164886448
0.0001162477422
0.0001159918525
0.000115734283
0.0001154692772
0.0001151964427
0.000114918299
0.0001146329675
0.0001143446565
0.000114050227
0.0001137549653
0.0001134641818
0.0001131654745
0.0001128645089
0.0001125649838
0.0001122724466
0.0001119782724
0.0001116886875
0.0001114019581
0.0001111171136
0.0001108406057
0.0001105707996
0.0001103004966
0.0001100347004
0.0001097711389
0.0001095157483
0.0001092682714
0.0001090237445
0.0001192566342
0.0001192452067
0.0001192207337
0.0001191845632
0.0001191374695
0.0001190801754
0.000119010802
0.0001189280148
0.0001188361107
0.0001187356875
0.0001186273559
0.0001185046927
0.000118371995
0.0001182230795
0.0001180661968
0.0001179032703
0.0001177273692
0.0001175415759
0.0001173460716
0.0001171383684
0.0001169231147
0.0001166948558
0.0001164603363
0.0001162214027
0.0001159644353
0.0001157059013
0.0001154416038
0.0001151681215
0.0001148909463
0.0001146053551
0.0001143182864
0.0001140240047
0.0001137302427
0.0001134401966
0.0001131429817
0.0001128428296
0.0001125451459
0.0001122544169
0.0001119613345
0.0001116735516
0.0001113880092
0.0001111049023
0.0001108300699
0.0001105615026
0.0001102927848
0.0001100282724
0.000109766228
0.0001095122994
0.0001092662357
0.0001090230517
0.0001131213044
0.0001128219715
0.0001125260617
0.0001122370796
0.0001119450541
0.0001116589985
0.0001113745946
0.000111093155
0.0001108199309
0.0001105525527
0.0001102853585
0.0001100220809
0.0001097614972
0.0001095089766
0.0001092642742
0.0001090223843
)
;

boundaryField
{
    front_top
    {
        type            wedge;
    }
    front_middle
    {
        type            wedge;
    }
    front_bottom
    {
        type            wedge;
    }
    back_top
    {
        type            wedge;
    }
    back_middle
    {
        type            wedge;
    }
    back_bottom
    {
        type            wedge;
    }
    axis_top
    {
        type            symmetryPlane;
    }
    axis_middle
    {
        type            symmetryPlane;
    }
    axis_bottom
    {
        type            symmetryPlane;
    }
    wall_top
    {
        type            calculated;
        value           nonuniform 0();
    }
    wall_middle
    {
        type            calculated;
        value           uniform 0.0001089022317;
    }
    wall_bottom
    {
        type            calculated;
        value           uniform 0.0001089022317;
    }
    inlet
    {
        type            calculated;
        value           nonuniform 0();
    }
    outlet
    {
        type            calculated;
        value           nonuniform 0();
    }
    procBoundary2to1
    {
        type            processor;
        value           nonuniform List<scalar> 
51
(
0.0001192378522
0.0001192264354
0.0001192019594
0.0001191657857
0.0001191187107
0.0001190614171
0.0001189903566
0.0001189076015
0.0001188157159
0.0001187153367
0.0001186070607
0.0001184827619
0.0001183497884
0.0001181996492
0.0001180428719
0.0001178800639
0.0001177026283
0.0001175170178
0.0001173200454
0.0001171125797
0.0001168959627
0.0001166680207
0.0001164323
0.0001161943036
0.0001159373982
0.000115678
0.0001154144524
0.0001151404303
0.0001148642531
0.0001145784874
0.0001142926831
0.0001139986036
0.0001137063424
0.0001134168438
0.0001134168438
0.0001131003303
0.0001128018123
0.0001125076192
0.0001122203289
0.0001119293243
0.0001116449352
0.0001113616276
0.0001110817956
0.000110810123
0.000110543892
0.00011027817
0.0001100160864
0.0001097569161
0.0001095057588
0.0001092623746
0.0001090217378
)
;
    }
    procBoundary2to3
    {
        type            processor;
        value           nonuniform List<scalar> 
51
(
0.0001197613285
0.0001197165332
0.0001197165332
0.0001196874535
0.000119644476
0.0001195885877
0.0001195182171
0.0001194319852
0.0001193417029
0.0001192323642
0.0001191132436
0.0001189801393
0.000118831571
0.0001186751322
0.0001185047237
0.0001183184181
0.0001181144296
0.0001179054318
0.0001176818162
0.0001174501141
0.0001172019329
0.000116948339
0.0001166805748
0.0001164067052
0.0001161299761
0.0001158436141
0.0001155512197
0.0001152578942
0.0001149587937
0.0001146576278
0.0001143553324
0.0001140506818
0.0001137483199
0.0001134535033
0.0001131537781
0.0001128543646
0.0001125594718
0.0001122737679
0.0001119887503
0.0001117099204
0.0001114367374
0.0001111657968
0.0001109042136
0.0001106517556
0.000110400041
0.0001101557178
0.0001099116436
0.0001096754748
0.0001094475016
0.0001092273959
0.0001090096035
)
;
    }
}


// ************************************************************************* //
