/*--------------------------------*- C++ -*----------------------------------*\
  =========                 |
  \\      /  F ield         | OpenFOAM: The Open Source CFD Toolbox
   \\    /   O peration     | Website:  https://openfoam.org
    \\  /    A nd           | Version:  7
     \\/     M anipulation  |
\*---------------------------------------------------------------------------*/
FoamFile
{
    version     2.0;
    format      ascii;
    class       volVectorField;
    location    "0.0006";
    object      U;
}
// * * * * * * * * * * * * * * * * * * * * * * * * * * * * * * * * * * * * * //

dimensions      [0 1 -1 0 0 0 0];

internalField   nonuniform List<vector> 
1167
(
(-0.0002750489342 4.633610544e-18 -0.04032190134)
(-0.0002471061316 -7.132733133e-18 -0.04230106657)
(-0.0006462206766 -1.278847099e-17 -0.04227381373)
(-0.001022472537 -1.17915107e-17 -0.04221151669)
(-0.001409484677 -1.098502203e-17 -0.04211892534)
(-0.00179489303 -1.508629316e-17 -0.04199736543)
(-0.002175280319 -1.176529121e-17 -0.04184782071)
(-0.002550966324 -1.328184585e-17 -0.04167092911)
(-0.00292230564 -1.384284134e-17 -0.04146711057)
(-0.003289418959 -1.281351991e-17 -0.04123660189)
(-0.003652362795 -1.093388539e-17 -0.04097946256)
(-0.004011141133 -8.925765156e-18 -0.04069558467)
(-0.004365678588 -1.113135432e-17 -0.04038470582)
(-0.004715803893 -1.19070443e-17 -0.04004642227)
(-0.005061240863 -1.269604772e-17 -0.03968020406)
(-0.005401599942 -1.300409358e-17 -0.039285411)
(-0.005736369507 -1.373819823e-17 -0.03886131183)
(-0.006064907332 -1.526287988e-17 -0.03840710339)
(-0.006386434963 -1.674540068e-17 -0.03792193492)
(-0.006700028997 -1.68591342e-17 -0.03740493021)
(-0.007004616896 -1.76547817e-17 -0.03685521545)
(-0.007298975866 -1.937596941e-17 -0.03627194409)
(-0.007581727146 -2.116679885e-17 -0.03565432318)
(-0.007851337674 -2.241799791e-17 -0.03500164007)
(-0.008106124463 -2.206460666e-17 -0.03431328575)
(-0.008344257278 -2.136898325e-17 -0.03358877495)
(-0.008563766167 -2.046653298e-17 -0.03282776325)
(-0.008762552675 -2.051800078e-17 -0.03203005589)
(-0.008938400425 -2.066985104e-17 -0.03119560717)
(-0.009088986108 -2.064325198e-17 -0.03032451018)
(-0.009211892259 -2.066790947e-17 -0.02941696954)
(-0.009304614832 -1.974593646e-17 -0.02847325629)
(-0.009364565533 -1.908133359e-17 -0.02749364077)
(-0.009389066092 -1.865321637e-17 -0.02647829732)
(-0.009375327249 -1.766889569e-17 -0.02542717928)
(-0.009320411481 -1.678715983e-17 -0.02433985965)
(-0.009221173918 -1.60076047e-17 -0.02321534147)
(-0.009074183202 -1.557810974e-17 -0.02205185479)
(-0.008875631125 -1.504596293e-17 -0.02084666401)
(-0.00862124779 -1.399417204e-17 -0.01959593938)
(-0.00830625754 -1.365087727e-17 -0.01829476487)
(-0.007925414438 -1.0684532e-17 -0.01693733119)
(-0.007473149551 -1.181991372e-17 -0.01551733695)
(-0.006943833732 -1.063116293e-17 -0.01402854198)
(-0.006332100634 -9.385477008e-18 -0.01246530289)
(-0.005633121627 -7.617923298e-18 -0.01082280896)
(-0.00484272191 -5.852483881e-18 -0.009096643261)
(-0.003957211304 -4.235597102e-18 -0.007281347176)
(-0.002972322337 -3.210694092e-18 -0.005368133425)
(-0.001880057607 -2.02574954e-18 -0.003342537773)
(-0.0006636450087 -7.243756569e-19 -0.001182885402)
(-0.0002129945196 -1.295012838e-17 -0.04411478474)
(-0.0005570818457 -1.506952657e-17 -0.04409161212)
(-0.0008817303283 -9.437660871e-18 -0.04403794842)
(-0.001216242753 -5.895209957e-18 -0.04395824076)
(-0.001550292956 -2.398872783e-18 -0.04385358603)
(-0.00188111329 -9.941880846e-18 -0.04372476617)
(-0.002209157122 -1.045132699e-17 -0.04357228161)
(-0.002534918165 -1.183971782e-17 -0.04339643165)
(-0.002858681246 -1.277517699e-17 -0.04319733799)
(-0.003180670038 -1.594419781e-17 -0.04297494784)
(-0.003501060736 -1.287096646e-17 -0.04272903921)
(-0.003819960693 -1.606495427e-17 -0.04245922779)
(-0.004137395402 -1.460084711e-17 -0.04216497365)
(-0.004453301668 -1.376813403e-17 -0.04184558953)
(-0.004767521764 -1.459285674e-17 -0.04150024807)
(-0.005079793594 -1.431377673e-17 -0.04112799247)
(-0.005389745217 -1.478342788e-17 -0.04072774782)
(-0.005696886231 -1.490213869e-17 -0.04029833257)
(-0.006000597018 -1.566252851e-17 -0.0398384724)
(-0.00630012247 -1.65296751e-17 -0.0393468151)
(-0.006594559301 -1.831921094e-17 -0.03882194443)
(-0.006882845423 -2.194604137e-17 -0.03826239725)
(-0.007163750137 -2.198473803e-17 -0.03766667892)
(-0.007435859814 -2.205417033e-17 -0.03703327995)
(-0.007697566266 -2.144735587e-17 -0.03636069254)
(-0.007947056055 -2.055220977e-17 -0.03564742473)
(-0.008182296672 -1.918755046e-17 -0.03489201425)
(-0.008401025051 -1.918210108e-17 -0.03409303713)
(-0.008600737162 -1.690976008e-17 -0.03324911053)
(-0.008778675386 -1.620889267e-17 -0.03235888805)
(-0.008931815778 -1.579176646e-17 -0.03142103971)
(-0.009056852494 -1.509861547e-17 -0.03043421601)
(-0.009150175989 -1.465286163e-17 -0.02939698639)
(-0.009207841941 -1.430268434e-17 -0.02830774667)
(-0.009225525939 -1.349033457e-17 -0.02716458702)
(-0.00919845835 -1.257521461e-17 -0.02596511432)
(-0.009121337261 -1.154055192e-17 -0.02470623252)
(-0.008988221401 -1.077646406e-17 -0.02338390231)
(-0.008792419731 -9.130789655e-18 -0.0219929257)
(-0.008526415184 -8.425029634e-18 -0.02052684821)
(-0.008181882371 -7.333023842e-18 -0.01897811192)
(-0.007749880855 -6.459869381e-18 -0.0173385624)
(-0.007221305572 -5.729863751e-18 -0.01560037671)
(-0.006587682224 -4.721956441e-18 -0.01375742868)
(-0.005842434903 -3.940731083e-18 -0.01180714966)
(-0.004982781985 -3.503325482e-18 -0.009753176969)
(-0.004012052387 -2.969090417e-18 -0.007609376464)
(-0.002941187224 -2.327807273e-18 -0.005405570902)
(-0.001789135422 -1.659799114e-18 -0.003192601578)
(-0.0005925911029 -3.541660101e-19 -0.001034961289)
(-0.0001747973646 1.792037833e-18 -0.04571197254)
(-0.0004574748962 2.313737333e-18 -0.04569317816)
(-0.000724769837 4.969962786e-19 -0.04564909304)
(-0.001000720663 -2.559120721e-18 -0.04558374141)
(-0.001277123525 -5.198532137e-18 -0.0454980018)
(-0.00155190125 -5.088729729e-18 -0.04539249467)
(-0.001825614887 -3.916831405e-18 -0.04526763365)
(-0.002098861429 -1.10998889e-18 -0.04512366529)
(-0.002372061538 -6.830067646e-18 -0.04496068045)
(-0.002645581161 -9.322856534e-18 -0.04477861615)
(-0.002919746736 -1.061068205e-17 -0.04457725812)
(-0.003194829554 -1.389390652e-17 -0.04435624376)
(-0.003471037384 -1.272054683e-17 -0.04411506474)
(-0.003748509335 -1.360668025e-17 -0.04385307007)
(-0.004027313298 -1.293908934e-17 -0.04356946931)
(-0.004307440623 -1.320750691e-17 -0.04326333558)
(-0.00458880179 -1.338877565e-17 -0.04293361085)
(-0.004871222507 -1.410426119e-17 -0.04257910782)
(-0.005154437103 -1.530104972e-17 -0.04219851452)
(-0.00543808305 -1.675458031e-17 -0.04179039655)
(-0.005721693922 -1.7341008e-17 -0.04135319869)
(-0.006004688935 -1.814452414e-17 -0.04088524658)
(-0.006286362229 -1.856961401e-17 -0.04038474588)
(-0.006565869092 -1.984747938e-17 -0.03984978155)
(-0.006842207249 -1.8112837e-17 -0.03927831597)
(-0.007114196706 -1.628202801e-17 -0.03866818525)
(-0.007380453477 -1.689043155e-17 -0.03801709539)
(-0.007639359211 -1.611828573e-17 -0.03732261749)
(-0.007889028815 -1.539448478e-17 -0.03658217944)
(-0.008127269921 -1.42593405e-17 -0.03579305494)
(-0.008351538985 -1.417313539e-17 -0.03495234769)
(-0.008558892689 -1.463658826e-17 -0.03405696475)
(-0.008745928837 -1.433605357e-17 -0.03310357776)
(-0.008908719386 -1.286024369e-17 -0.03208856382)
(-0.009042727152 -1.191799214e-17 -0.0310079179)
(-0.00914270305 -1.124125245e-17 -0.02985712663)
(-0.00920255448 -1.096688395e-17 -0.02863099536)
(-0.009215177314 -1.069189791e-17 -0.02732342983)
(-0.009172252891 -1.091264116e-17 -0.02592718819)
(-0.009064019099 -1.006446639e-17 -0.0244336773)
(-0.008879061415 -8.830334051e-18 -0.02283292909)
(-0.008604208228 -8.213959381e-18 -0.02111397252)
(-0.008224634759 -7.665033376e-18 -0.019265812)
(-0.007724215422 -7.730231496e-18 -0.01727897828)
(-0.007085938554 -6.85331871e-18 -0.01514699385)
(-0.006291862675 -5.45079185e-18 -0.01286596867)
(-0.005321813483 -4.00756432e-18 -0.01042949188)
(-0.004149517523 -3.138156776e-18 -0.007817133083)
(-0.002734946833 -1.505253644e-18 -0.004979719078)
(-0.001011166476 -5.213869483e-19 -0.001831799933)
(-0.0001349640869 4.631212368e-19 -0.04703680921)
(-0.0003531732764 7.1570871e-18 -0.04702200515)
(-0.0005595363587 -3.275761737e-18 -0.0469869075)
(-0.0007729430524 -4.541037638e-18 -0.04693491433)
(-0.0009872501735 -5.698558739e-18 -0.04686670182)
(-0.001200943995 -8.279233426e-18 -0.04678273269)
(-0.001414543398 -7.773569591e-18 -0.04668330714)
(-0.001628591385 -6.602540089e-18 -0.04656858418)
(-0.001843482486 -4.208868275e-18 -0.04643858385)
(-0.002059554817 -4.669366512e-18 -0.04629318738)
(-0.002277103072 -5.631172909e-18 -0.04613213788)
(-0.00249636732 -6.971013104e-18 -0.04595504141)
(-0.002717527859 -7.915639443e-18 -0.04576136842)
(-0.002940703325 -7.200723939e-18 -0.04555045592)
(-0.003165950368 -4.365470567e-18 -0.04532151153)
(-0.003393265729 -4.133891237e-18 -0.04507361794)
(-0.003622588214 -6.420444881e-18 -0.04480573797)
(-0.003853800139 -7.814020074e-18 -0.04451672027)
(-0.004086732236 -9.353456757e-18 -0.04420530541)
(-0.00432116718 -1.044385076e-17 -0.04387012877)
(-0.004556843064 -1.096893343e-17 -0.04350972209)
(-0.004793455434 -1.180270336e-17 -0.04312251018)
(-0.005030655964 -1.195114357e-17 -0.04270680232)
(-0.005268049951 -1.203464525e-17 -0.04226077655)
(-0.005505184823 -1.234616816e-17 -0.04178245595)
(-0.005741536353 -1.241665188e-17 -0.04126967836)
(-0.005976485989 -1.245419792e-17 -0.04072005471)
(-0.006209289906 -1.2794332e-17 -0.04013092198)
(-0.006439041284 -1.279727024e-17 -0.03949928429)
(-0.006664619908 -1.321235525e-17 -0.03882174544)
(-0.006884633386 -1.267332649e-17 -0.03809442772)
(-0.007097342029 -1.160619924e-17 -0.0373128748)
(-0.007300567155 -1.089954282e-17 -0.03647193105)
(-0.007491577108 -1.004609085e-17 -0.03556558787)
(-0.007666938598 -1.023870849e-17 -0.03458678424)
(-0.007822325248 -1.015012906e-17 -0.03352714305)
(-0.00795226268 -9.821845886e-18 -0.03237661731)
(-0.008049787116 -9.298183777e-18 -0.03112302004)
(-0.008105986015 -9.490162814e-18 -0.02975140473)
(-0.008109390721 -8.902812908e-18 -0.02824328368)
(-0.008045204315 -8.007207643e-18 -0.02657572817)
(-0.007894403052 -7.500655158e-18 -0.02472054516)
(-0.00763284454 -7.302466861e-18 -0.02264404324)
(-0.007230739491 -6.651441218e-18 -0.0203083425)
(-0.006653427659 -5.812201055e-18 -0.01767568816)
(-0.005865742439 -4.799616569e-18 -0.01471810558)
(-0.004843294917 -4.371540226e-18 -0.01143849915)
(-0.003589567261 -3.066058728e-18 -0.007917772336)
(-0.002148798398 -1.60919524e-18 -0.004390418479)
(-0.0006619764525 -9.784028144e-19 -0.00123886414)
(-9.820343016e-05 3.16744136e-18 -0.04807784373)
(-0.0002571038559 3.205589901e-18 -0.04806707652)
(-0.0004078215455 -3.039036549e-18 -0.04804143762)
(-0.0005641775777 -3.834133255e-18 -0.04800347447)
(-0.0007218345418 -1.025424423e-17 -0.04795372717)
(-0.0008798514889 -5.565278517e-18 -0.04789254118)
(-0.001038757735 -6.75799517e-18 -0.04782014291)
(-0.001199091131 -3.838679899e-18 -0.04773665752)
(-0.001361278048 -3.234481499e-18 -0.04764210372)
(-0.001525702586 -5.166873035e-18 -0.04753639015)
(-0.001692716848 -8.167278527e-18 -0.04741931664)
(-0.001862635192 -8.408931866e-18 -0.04729057612)
(-0.002035732651 -3.689559562e-18 -0.04714975758)
(-0.002212245894 -4.415081073e-18 -0.04699635065)
(-0.002392374925 -5.26031358e-18 -0.04682975206)
(-0.002576285247 -6.293763183e-18 -0.04664927361)
(-0.002764107983 -6.088066711e-18 -0.04645415133)
(-0.002955940084 -6.93318555e-18 -0.04624355636)
(-0.003151843536 -7.909482045e-18 -0.04601660356)
(-0.00335183988 -9.076840976e-18 -0.04577235853)
(-0.003555905118 -1.07098979e-17 -0.04550984378)
(-0.003763961529 -1.135995116e-17 -0.04522803834)
(-0.003975869677 -1.08676246e-17 -0.04492587409)
(-0.004191420554 -1.131951479e-17 -0.04460222521)
(-0.00441033083 -1.206561455e-17 -0.04425589246)
(-0.00463224166 -1.21932323e-17 -0.0438855806)
(-0.004856721582 -1.236304701e-17 -0.04348987065)
(-0.005083275343 -1.23416678e-17 -0.04306718653)
(-0.005311356342 -1.269530534e-17 -0.04261575614)
(-0.005540381731 -1.142986087e-17 -0.04213356681)
(-0.005769749494 -1.138908495e-17 -0.0416183129)
(-0.00599885407 -1.100317585e-17 -0.04106733125)
(-0.006227098006 -1.06804783e-17 -0.04047751708)
(-0.006453892731 -9.436537983e-18 -0.03984520746)
(-0.00667864106 -8.274681979e-18 -0.03916601618)
(-0.006900688472 -6.990886884e-18 -0.03843459519)
(-0.007119228669 -6.320467796e-18 -0.03764429286)
(-0.007333139981 -5.494688323e-18 -0.0367866649)
(-0.007540725315 -4.539905477e-18 -0.03585077556)
(-0.007739305757 -4.238233996e-18 -0.03482218453)
(-0.007924593849 -3.946621913e-18 -0.03368146146)
(-0.008089723789 -3.678166005e-18 -0.03240199871)
(-0.008223688963 -4.384487052e-18 -0.03094688631)
(-0.00830879554 -4.711005098e-18 -0.02926456891)
(-0.008316766001 -4.392608154e-18 -0.02728260272)
(-0.008202755543 -3.69822159e-18 -0.02489835336)
(-0.007891925352 -3.491284684e-18 -0.02196574119)
(-0.007236442952 -3.31070109e-18 -0.0182653061)
(-0.005885735571 -3.031812289e-18 -0.01337772509)
(-0.002951127168 -2.700567122e-18 -0.006255181731)
(-7.179364464e-05 -1.072710205e-18 -0.04869443627)
(-0.0001876475768 -8.838773454e-19 -0.04868582933)
(-0.0002975204978 -2.28613124e-18 -0.04866552868)
(-0.0004119334638 -3.228408916e-18 -0.04863563455)
(-0.0005275078335 -2.586289954e-18 -0.04859644781)
(-0.0006436553824 -6.621091881e-19 -0.0485482019)
(-0.000760822889 -7.555582323e-19 -0.04849106795)
(-0.0008794066244 -1.732813422e-18 -0.04842511898)
(-0.0009997021267 -2.729367945e-18 -0.04835032673)
(-0.001121958191 -5.014036701e-18 -0.04826656201)
(-0.001246378074 -5.764079705e-18 -0.04817359593)
(-0.001373114166 -5.719229648e-18 -0.04807110192)
(-0.001502266714 -6.145825017e-18 -0.04795865894)
(-0.001633883279 -8.637403701e-18 -0.0478357547)
(-0.001767956815 -9.552032609e-18 -0.04770178818)
(-0.001904420636 -1.056827769e-17 -0.04755607056)
(-0.00204314191 -1.071042294e-17 -0.04739782388)
(-0.002183915623 -1.019268441e-17 -0.04722617453)
(-0.002326455854 -1.022622554e-17 -0.04704014131)
(-0.002470386304 -1.048101474e-17 -0.04683862243)
(-0.00261523822 -1.092114881e-17 -0.04662038246)
(-0.002760452088 -1.079254538e-17 -0.04638404058)
(-0.00290538788 -1.064816078e-17 -0.04612806915)
(-0.00304934359 -1.086224385e-17 -0.04585079987)
(-0.003191578739 -1.082747929e-17 -0.04555044466)
(-0.003331340544 -1.049422292e-17 -0.04522512477)
(-0.003467885586 -1.060047089e-17 -0.04487290816)
(-0.003600492317 -1.043351127e-17 -0.04449184518)
(-0.003728459859 -1.026447115e-17 -0.04408000015)
(-0.003851092998 -1.120511404e-17 -0.04363546949)
(-0.003967676039 -1.095077388e-17 -0.04315638552)
(-0.004077441098 -1.067324839e-17 -0.04264090007)
(-0.004179538438 -9.996404357e-18 -0.04208714748)
(-0.00427301226 -9.410134318e-18 -0.0414931782)
(-0.004356779924 -8.752317775e-18 -0.04085685696)
(-0.004429604488 -8.179689429e-18 -0.04017571039)
(-0.004490044679 -7.72716496e-18 -0.03944671599)
(-0.004536366152 -7.191678435e-18 -0.03866602255)
(-0.0045663963 -6.738426622e-18 -0.03782860466)
(-0.004577297517 -6.392330896e-18 -0.03692785432)
(-0.004565201505 -6.098747969e-18 -0.03595506818)
(-0.004524595485 -5.870840698e-18 -0.03489855227)
(-0.00444727981 -5.049910063e-18 -0.03374149616)
(-0.004320626026 -5.346958501e-18 -0.03245685728)
(-0.004124530441 -5.011269178e-18 -0.03099639934)
(-0.003825989513 -4.661763838e-18 -0.02926923473)
(-0.003373041408 -4.253124969e-18 -0.02709881325)
(-0.002703095779 -5.264173663e-18 -0.02411634009)
(-0.001790863394 -2.859652866e-18 -0.01941510129)
(-0.0007522810147 -1.506948173e-18 -0.01038517661)
(-5.579705343e-05 -1.528453971e-18 -0.04905204513)
(-0.0001459313286 -2.007585888e-18 -0.04904450365)
(-0.0002317214221 -2.186813651e-18 -0.04902665725)
(-0.0003213581237 -1.995197568e-18 -0.04900042852)
(-0.0004121887471 -1.078042091e-19 -0.04896600035)
(-0.000503855336 -1.114832084e-18 -0.04892350988)
(-0.0005967709419 -1.104712773e-18 -0.0488730314)
(-0.0006912714876 -3.249339148e-18 -0.04881452912)
(-0.0007875909343 -4.652220259e-18 -0.04874785386)
(-0.0008859055958 -5.325601671e-18 -0.04867274565)
(-0.0009863317979 -5.301330024e-18 -0.04858883332)
(-0.001088916131 -6.157698255e-18 -0.0484956353)
(-0.001193629642 -7.73963818e-18 -0.04839255955)
(-0.001300360998 -9.459202927e-18 -0.04827890047)
(-0.001408906206 -9.956953887e-18 -0.04815383164)
(-0.001518958362 -1.046963668e-17 -0.04801639517)
(-0.001630102409 -1.121936844e-17 -0.04786548742)
(-0.001741817549 -1.086870776e-17 -0.04769984479)
(-0.001853486724 -1.068038469e-17 -0.04751803564)
(-0.001964421106 -1.062252813e-17 -0.04731846791)
(-0.002073901287 -1.062582516e-17 -0.04709941266)
(-0.002181223314 -1.058925906e-17 -0.04685904866)
(-0.002285750474 -1.051847008e-17 -0.04659552247)
(-0.002386957543 -1.04481744e-17 -0.04630700916)
(-0.002484460966 -1.033563327e-17 -0.04599175892)
(-0.002578029346 -1.009237957e-17 -0.04564810737)
(-0.002667572216 -9.775481829e-18 -0.04527444122)
(-0.002753108342 -9.742587649e-18 -0.04486911506)
(-0.002834718121 -9.643480816e-18 -0.04443033577)
(-0.002912484671 -1.036125019e-17 -0.04395603455)
(-0.002986428023 -1.007885076e-17 -0.04344375597)
(-0.003056436588 -9.937113394e-18 -0.04289058211)
(-0.003122201526 -9.75505197e-18 -0.04229309125)
(-0.003183158125 -9.485581801e-18 -0.04164731363)
(-0.003238434431 -9.151030931e-18 -0.04094861784)
(-0.003286799234 -8.812311751e-18 -0.04019144763)
(-0.003326590917 -8.473149605e-18 -0.03936884028)
(-0.003355601403 -8.117201158e-18 -0.03847167559)
(-0.003370878199 -7.747634016e-18 -0.03748759185)
(-0.003368392136 -7.387827211e-18 -0.03639941668)
(-0.00334250146 -7.015640604e-18 -0.03518272946)
(-0.003285155325 -6.597230003e-18 -0.03380179431)
(-0.003184879597 -6.049383867e-18 -0.03220271553)
(-0.00302585366 -5.391474105e-18 -0.03030270898)
(-0.002787631296 -4.622219094e-18 -0.02797546883)
(-0.002445487644 -3.638596364e-18 -0.02503594033)
(-0.001971717106 -3.217899977e-18 -0.0212384221)
(-0.001354545039 -2.600884654e-18 -0.01633289304)
(-0.0006855719265 -1.658032432e-18 -0.0102614384)
(-0.0001649098728 -5.796640733e-19 -0.003446488722)
(-4.170873123e-05 -8.276591977e-19 -0.04932775971)
(-0.0001090568581 2.013910662e-20 -0.0493214413)
(-0.0001732521107 -8.972666016e-19 -0.04930640942)
(-0.0002405867923 -1.693886196e-18 -0.04928433036)
(-0.0003091280493 -2.278027364e-18 -0.04925528966)
(-0.0003786483462 -3.117447516e-18 -0.04921933436)
(-0.0004494736542 -4.306937014e-18 -0.04917643634)
(-0.0005218436608 -5.293046482e-18 -0.04912644677)
(-0.0005958889841 -6.15697735e-18 -0.04906909096)
(-0.0006716593588 -6.944073458e-18 -0.04900396902)
(-0.0007491183067 -7.636670283e-18 -0.04893055093)
(-0.0008281312342 -7.931003139e-18 -0.04884816734)
(-0.0009084581884 -8.150259299e-18 -0.04875599713)
(-0.0009897515815 -8.008417916e-18 -0.04865305316)
(-0.001071561895 -8.920477855e-18 -0.0485381717)
(-0.001153357101 -8.694944812e-18 -0.04841001212)
(-0.001234557593 -9.731379112e-18 -0.04826707527)
(-0.00131458252 -9.974926195e-18 -0.04810774713)
(-0.00139290185 -1.021388626e-17 -0.04793036831)
(-0.001469089344 -1.043242194e-17 -0.04773331586)
(-0.001542859382 -1.058234184e-17 -0.04751507755)
(-0.001614081395 -1.06733046e-17 -0.04727429922)
(-0.001682771862 -1.065761716e-17 -0.04700978238)
(-0.001749063252 -1.059264404e-17 -0.04672043535)
(-0.001813160534 -1.053518793e-17 -0.0464051838)
(-0.001875290528 -1.038894065e-17 -0.04606286725)
(-0.001935652611 -1.017035139e-17 -0.04569213976)
(-0.00199437526 -9.972709972e-18 -0.04529138999)
(-0.002051479551 -9.694710612e-18 -0.04485867823)
(-0.002106851254 -9.346525192e-18 -0.04439168457)
(-0.002160216995 -9.70596937e-18 -0.04388765441)
(-0.002211118671 -9.785104061e-18 -0.04334334276)
(-0.002258878845 -9.712998984e-18 -0.04275494987)
(-0.002302552449 -9.567400487e-18 -0.04211803256)
(-0.002340860825 -9.37986911e-18 -0.04142734085)
(-0.002372107386 -9.162207892e-18 -0.04067651358)
(-0.002394069327 -8.921268244e-18 -0.0398575458)
(-0.002403855794 -8.640868327e-18 -0.03895993728)
(-0.002397714581 -8.303793983e-18 -0.0379693999)
(-0.002370774319 -7.923276584e-18 -0.03686593665)
(-0.002316740661 -7.488081545e-18 -0.03562103479)
(-0.002227653652 -6.980906091e-18 -0.03419376159)
(-0.002093977487 -6.414439173e-18 -0.03252590504)
(-0.001905548633 -5.735563301e-18 -0.03053712183)
(-0.001654254217 -4.980907176e-18 -0.02812218012)
(-0.001339424284 -2.738106267e-18 -0.0251525795)
(-0.0009756387723 -3.399687286e-18 -0.02148131442)
(-0.000599278877 -2.537676895e-18 -0.01694207817)
(-0.0002691914057 -1.631754376e-18 -0.0113319284)
(-6.488272342e-05 -5.983414731e-19 -0.004375840013)
(-2.971130568e-05 2.818246641e-18 -0.04952978619)
(-7.774671782e-05 1.341298773e-17 -0.04952455599)
(-0.0001237238002 2.592755179e-18 -0.04951204156)
(-0.0001721916272 -7.466430248e-19 -0.04949358964)
(-0.0002218294736 -2.058488278e-18 -0.04946918852)
(-0.0002725068444 -2.366644313e-18 -0.04943876316)
(-0.000324448856 -6.819889206e-18 -0.04940213588)
(-0.0003777759495 -6.725635802e-18 -0.04935898573)
(-0.0004324859674 -7.165662637e-18 -0.04930883595)
(-0.0004884702781 -8.214459698e-18 -0.04925104498)
(-0.0005455150063 -1.085696111e-17 -0.04918479416)
(-0.000603307271 -9.509867178e-18 -0.04910907809)
(-0.0006614552339 -8.975193454e-18 -0.04902270713)
(-0.0007195231773 -8.460310023e-18 -0.04892433191)
(-0.000777080704 -9.051829116e-18 -0.04881249608)
(-0.000833758949 -9.111990446e-18 -0.04868571345)
(-0.0008893008325 -9.340853877e-18 -0.04854255431)
(-0.0009435943552 -9.20711214e-18 -0.04838171622)
(-0.0009966855833 -1.003360677e-17 -0.04820205153)
(-0.001048766571 -1.056453036e-17 -0.04800253804)
(-0.001100138129 -1.08826972e-17 -0.04778220685)
(-0.001151162235 -1.105974305e-17 -0.04754005191)
(-0.001202206204 -1.113402247e-17 -0.0472749553)
(-0.001253591003 -1.110872784e-17 -0.04698564751)
(-0.001305550219 -1.103379457e-17 -0.04667069378)
(-0.001358202101 -1.091304266e-17 -0.04632848652)
(-0.001411534301 -1.070517994e-17 -0.04595721554)
(-0.00146539802 -1.04031055e-17 -0.045554809)
(-0.001519503634 -9.973746543e-18 -0.04511884672)
(-0.001573415708 -9.787659455e-18 -0.04464645959)
(-0.001626544496 -9.849427061e-18 -0.04413421963)
(-0.00167812918 -9.985405346e-18 -0.0435780237)
(-0.001727209438 -9.985904053e-18 -0.04297296055)
(-0.001772579651 -9.880176177e-18 -0.04231313266)
(-0.001812722432 -9.637161128e-18 -0.04159138233)
(-0.0018457188 -9.554924648e-18 -0.04079884589)
(-0.001869135939 -9.432595152e-18 -0.03992424533)
(-0.001879895021 -9.295545263e-18 -0.0389528135)
(-0.001874131318 -8.845270491e-18 -0.03786476338)
(-0.001847083336 -8.333916311e-18 -0.03663323759)
(-0.001793094002 -7.783016527e-18 -0.03522179521)
(-0.001705878714 -7.173832639e-18 -0.03358173095)
(-0.001579280525 -6.489661462e-18 -0.03164990475)
(-0.00140872371 -5.683781713e-18 -0.02934812261)
(-0.001193328999 -4.681773377e-18 -0.0265854116)
(-0.0009382716159 -3.232809963e-18 -0.02326483142)
(-0.0006574065963 -2.888004322e-18 -0.01929730292)
(-0.0003786333984 -2.224140957e-18 -0.01462502947)
(-0.0001523570159 -1.400607737e-18 -0.009251524828)
(-2.763660488e-05 -4.857350931e-19 -0.003261515242)
(-1.996291086e-05 -1.117717994e-18 -0.04967155779)
(-5.227312851e-05 -1.286207663e-18 -0.04966726054)
(-8.336322459e-05 -2.220705279e-18 -0.04965697513)
(-0.0001163727125 -2.19588476e-18 -0.04964171838)
(-0.0001504446565 -2.474543593e-18 -0.04962135555)
(-0.000185478139 -3.722554398e-18 -0.04959564445)
(-0.0002215593669 -4.644370456e-18 -0.04956419576)
(-0.0002586546044 -5.788828012e-18 -0.04952643213)
(-0.0002966122121 -6.637984596e-18 -0.0494815794)
(-0.0003351953074 -7.565998055e-18 -0.04942867116)
(-0.000374116034 -7.588101546e-18 -0.04936657477)
(-0.0004130808659 -9.084815467e-18 -0.0492940443)
(-0.0004518425194 -1.017430595e-17 -0.04920979789)
(-0.0004902471272 -1.15799824e-17 -0.04911260283)
(-0.0005282670338 -1.122511156e-17 -0.04900134048)
(-0.000566012272 -1.104662432e-17 -0.04887502562)
(-0.0006037160178 -1.106547263e-17 -0.04873277455)
(-0.0006417015277 -1.168889612e-17 -0.04857373881)
(-0.0006803397295 -1.178565674e-17 -0.04839703533)
(-0.0007199997831 -1.190066623e-17 -0.04820170052)
(-0.0007610078178 -1.199957249e-17 -0.04798667215)
(-0.0008036188259 -1.206758263e-17 -0.0477507811)
(-0.0008479970788 -1.203140036e-17 -0.04749273997)
(-0.000894206281 -1.192592347e-17 -0.04721111662)
(-0.0009422022564 -1.179118763e-17 -0.04690430122)
(-0.0009918264822 -1.164559408e-17 -0.04657046529)
(-0.001042800761 -1.14901154e-17 -0.04620751377)
(-0.001094723414 -1.134918097e-17 -0.04581302065)
(-0.001147066573 -1.121609679e-17 -0.04538415013)
(-0.001199171253 -1.122059886e-17 -0.0449175567)
(-0.001250239787 -1.124505468e-17 -0.04440927039)
(-0.001299319102 -1.106786723e-17 -0.04385455521)
(-0.001345273585 -1.099382108e-17 -0.04324773439)
(-0.001386741463 -1.104311453e-17 -0.04258194932)
(-0.001422075678 -1.041207023e-17 -0.04184881099)
(-0.001449267858 -1.02646878e-17 -0.04103787821)
(-0.00146586584 -9.739263897e-18 -0.04013589178)
(-0.001468900175 -8.626056142e-18 -0.03912570666)
(-0.001454857119 -9.05640863e-18 -0.03798491794)
(-0.001419754461 -8.684323579e-18 -0.03668427898)
(-0.001359412918 -9.153891613e-18 -0.03518616555)
(-0.001270019166 -6.842400709e-18 -0.03344353535)
(-0.00114906322 -6.93186026e-18 -0.03139995387)
(-0.0009966374801 -5.802047601e-18 -0.02899124183)
(-0.0008169178397 -4.493330765e-18 -0.02614897438)
(-0.0006193980424 -3.825689016e-18 -0.02280542256)
(-0.0004192535655 -3.076118437e-18 -0.01889878428)
(-0.0002366650539 -2.213292311e-18 -0.01437716395)
(-9.563529894e-05 -1.20781531e-18 -0.009199618898)
(-1.962191549e-05 2.871851346e-20 -0.00333010026)
(-1.236311043e-05 1.520987718e-17 -0.0497652033)
(-3.240434346e-05 -2.080240856e-18 -0.04976174967)
(-5.183446569e-05 4.1466006e-18 -0.04975343007)
(-7.264851443e-05 8.364184785e-19 -0.04974090253)
(-9.430249043e-05 1.329811752e-18 -0.04972383341)
(-0.0001166737454 -3.012638484e-18 -0.04970171692)
(-0.0001397211807 -2.919269049e-18 -0.04967386195)
(-0.0001633240038 -4.355138139e-18 -0.04963939126)
(-0.0001873220055 -4.288692491e-18 -0.04959729451)
(-0.0002115725276 -6.334300239e-18 -0.04954650261)
(-0.0002359939344 -6.837212689e-18 -0.04948596761)
(-0.0002605988577 -8.893393781e-18 -0.04941472172)
(-0.0002855093393 -1.040736453e-17 -0.04933189192)
(-0.0003109505438 -1.231561442e-17 -0.04923666924)
(-0.0003372264957 -1.282689844e-17 -0.0491282554)
(-0.0003646825607 -1.339090539e-17 -0.04900581846)
(-0.0003936654231 -1.355667172e-17 -0.0488684748)
(-0.0004244917614 -1.380120489e-17 -0.04871528774)
(-0.0004574243566 -1.335507359e-17 -0.04854526473)
(-0.0004926554374 -1.318635328e-17 -0.04835734093)
(-0.0005303008014 -1.322103209e-17 -0.04815034744)
(-0.0005703945174 -1.350471701e-17 -0.04792297689)
(-0.0006128869898 -1.304211214e-17 -0.04767375057)
(-0.0006576447735 -1.273817888e-17 -0.0474009861)
(-0.0007044503038 -1.251344319e-17 -0.04710276756)
(-0.0007529994779 -1.229573651e-17 -0.04677690971)
(-0.0008028978974 -1.208005998e-17 -0.04642091387)
(-0.0008536547534 -1.186131484e-17 -0.04603190478)
(-0.0009046758669 -1.165514163e-17 -0.04560654666)
(-0.0009552534521 -1.154898761e-17 -0.04514093132)
(-0.001004551988 -1.111560314e-17 -0.04463043806)
(-0.001051588653 -1.089480389e-17 -0.04406955735)
(-0.001095203484 -1.05944283e-17 -0.04345166424)
(-0.001134020367 -1.023922713e-17 -0.04276871841)
(-0.001166397544 -1.038090834e-17 -0.04201084962)
(-0.001190375219 -1.007433229e-17 -0.04116579104)
(-0.001203633109 -9.719474077e-18 -0.04021811814)
(-0.001203485824 -9.277835053e-18 -0.03914830333)
(-0.001186952031 -9.072595968e-18 -0.03793166183)
(-0.00115094851 -8.606947159e-18 -0.03653737141)
(-0.001092655957 -8.063516631e-18 -0.03492784947)
(-0.001010079779 -7.557059954e-18 -0.03305882571)
(-0.0009027767463 -6.893352181e-18 -0.03088039793)
(-0.0007726338153 -6.034143542e-18 -0.02833923477)
(-0.0006245099682 -5.150554618e-18 -0.02538187216)
(-0.0004665127449 -4.324793583e-18 -0.02195894751)
(-0.0003099170092 -3.423751039e-18 -0.01803013611)
(-0.0001694942998 -2.499415533e-18 -0.0135693463)
(-6.452503959e-05 -1.532304347e-18 -0.008569057464)
(-1.113464585e-05 -5.205474632e-19 -0.003040964455)
(-6.698736181e-06 -3.053933232e-18 -0.04982244713)
(-1.758172067e-05 -5.668418315e-18 -0.0498196875)
(-2.824361541e-05 -1.000809169e-17 -0.04981287862)
(-3.977348601e-05 -5.937000632e-18 -0.04980226944)
(-5.185197516e-05 -5.561130055e-18 -0.04978726655)
(-6.438497952e-05 -5.665100258e-18 -0.04976712162)
(-7.734629142e-05 -5.822688485e-18 -0.04974100255)
(-9.072115023e-05 -6.418039158e-18 -0.04970805464)
(-0.0001045415426 -7.083840383e-18 -0.04966745745)
(-0.0001189162449 -7.193735537e-18 -0.04961843936)
(-0.0001340330894 -8.892659952e-18 -0.04956025265)
(-0.0001501440905 -1.031702246e-17 -0.04949213884)
(-0.0001675408736 -1.11599268e-17 -0.04941330979)
(-0.0001865259718 -1.196917182e-17 -0.04932295122)
(-0.0002073869273 -1.2830575e-17 -0.04922023212)
(-0.0002303769017 -1.354695807e-17 -0.04910430104)
(-0.0002557037656 -1.325527141e-17 -0.04897426421)
(-0.0002835230523 -1.310072736e-17 -0.04882915668)
(-0.000313929013 -1.292713042e-17 -0.0486679157)
(-0.0003469521838 -1.281415833e-17 -0.04848935597)
(-0.000382561105 -1.276219491e-17 -0.04829214543)
(-0.0004206613046 -1.266534907e-17 -0.04807478433)
(-0.0004610969096 -1.277432042e-17 -0.0478355806)
(-0.0005036496101 -1.285888137e-17 -0.0475726237)
(-0.0005480372592 -1.287432189e-17 -0.04728375163)
(-0.0005939095705 -1.27503183e-17 -0.04696651018)
(-0.0006408412165 -1.250998086e-17 -0.04661809774)
(-0.0006883235846 -1.217535414e-17 -0.04623529384)
(-0.0007357531956 -1.174443404e-17 -0.04581436248)
(-0.0007824187882 -1.087103263e-17 -0.04535092863)
(-0.0008274837559 -1.086145231e-17 -0.04483981745)
(-0.000869966254 -1.076263251e-17 -0.04427485526)
(-0.0009087119585 -1.056509145e-17 -0.04364861186)
(-0.000942364514 -1.022732098e-17 -0.04295207094)