/*--------------------------------*- C++ -*----------------------------------*\
  =========                 |
  \\      /  F ield         | OpenFOAM: The Open Source CFD Toolbox
   \\    /   O peration     | Website:  https://openfoam.org
    \\  /    A nd           | Version:  7
     \\/     M anipulation  |
\*---------------------------------------------------------------------------*/
FoamFile
{
    version     2.0;
    format      ascii;
    class       volScalarField;
    location    "0.0018";
    object      generalizedNewtonian:nu;
}
// * * * * * * * * * * * * * * * * * * * * * * * * * * * * * * * * * * * * * //

dimensions      [0 2 -1 0 0 0 0];

internalField   nonuniform List<scalar> 
1167
(
910.1319623
906.8451912
900.3633532
890.4941321
877.8792636
862.7493941
845.3845831
826.0971409
805.1826402
782.9054877
759.5214289
735.3005974
710.4603088
685.2132709
659.7828065
634.3121544
608.9920637
583.9321642
559.2776433
535.1121292
511.5404543
488.6146885
466.4100934
444.9483855
424.282964
404.412628
385.3699226
367.1392036
349.7274789
333.1201387
317.3025338
302.2611503
287.9653629
274.4038227
261.5363101
249.3462021
885.3502995
882.1389875
875.825873
866.1954589
853.8640627
839.0941656
822.1692386
803.3875389
783.0028415
761.2938035
738.5352516
714.9541283
690.772735
666.2303207
641.4841043
616.7327477
592.1160556
567.7749234
543.8269188
520.3682738
497.4854868
475.2424256
453.6938643
432.8806024
412.8286778
393.5656758
375.0896292
357.4171378
340.527215
324.4278341
309.0891653
294.5030486
280.6432855
267.4863898
255.0098591
243.1803078
231.9803388
221.3716308
211.3359543
201.837744
192.8550914
184.3583185
176.3227204
168.7241957
161.5363948
154.7391134
148.3064263
142.2224833
136.4644631
131.0053008
861.6523972
858.5031654
852.3354961
842.9302635
830.9080477
816.5127587
800.0160302
781.6825438
761.806115
740.6632022
718.4843554
695.5069939
671.9785679
648.076652
624.0056254
599.9342033
575.9971584
552.3476304
529.0709361
506.2923624
484.0614704
462.4712464
441.5469316
421.3483918
401.8884198
383.1962902
365.2730722
348.1226388
331.742404
316.1165463
301.2406889
287.0840798
273.6409435
260.8732455
248.7656849
237.2870076
226.4129613
216.1174599
206.3698964
197.149403
188.4218312
180.1705428
172.3617572
164.9788302
157.9921112
151.3838808
145.1293248
139.2114816
133.6109996
128.2984092
838.9723031
835.898852
829.8918378
820.7119437
808.980251
794.9170337
778.7993488
760.9181041
741.5494225
720.9228845
699.2940198
676.9178209
653.9896162
630.719665
607.3030387
583.872195
560.6037896
537.5958336
514.9810848
492.8320131
471.2428507
450.2590078
429.945085
410.3226963
391.4367548
373.2825596
355.8897833
339.2391305
323.3411225
308.1756798
293.7341376
279.9973282
266.9418961
254.5505923
242.7906045
231.6482171
221.086205
211.0876125
201.6192855
192.6596916
184.1809949
176.1587989
168.5703469
161.3894926
154.5971092
148.1673053
142.0843053
136.3239989
130.8748678
125.7013344
817.265858
814.2573597
808.3970806
799.4117015
787.9327293
774.2005926
758.4789612
741.0431799
722.1248332
701.9975237
680.9217008
659.1047317
636.7625684
614.1149799
591.299707
568.5031894
545.852343
523.4768511
501.481658
479.9518813
458.9665804
438.5784593
418.8402133
399.7847439
381.4364651
363.8117147
346.9130558
330.7492637
315.3047536
300.5830182
286.5550606
273.2174933
260.5376271
248.5010333
237.0802598
226.2519086
215.9926175
206.2726688
197.0730648
188.3604919
180.1196023
172.3173685
164.9378516
157.9522025
151.3431722
145.0864544
139.1646779
133.5576249
128.2502897
123.2122142
796.3485017
793.3991948
787.6785632
778.9078915
767.7131126
754.3197197
738.9715498
721.923696
703.4588332
683.8392938
663.2793396
642.0076247
620.2524429
598.1713468
575.9568409
553.7648938
531.7171637
509.9559221
488.5535041
467.6264582
447.214883
427.4040989
408.2137826
389.7030349
371.8702385
354.7486028
338.3307075
322.6270292
307.6262689
293.3202749
279.6962843
266.7322064
254.4152255
242.7140502
231.6179324
221.0912469
211.1187741
201.6690691
192.721799
184.2503069
176.2311756
168.6424274
161.4587208
154.6614385
148.2253772
142.1349764
136.3659321
130.9056634
125.7330357
120.8249247
776.1960225
773.3183878
767.7459189
759.1838606
748.2494694
735.1447944
720.1354057
703.500566
685.5003325
666.3514579
646.2973633
625.5752247
604.3614038
582.8496592
561.226808
539.6123212
518.1663605
496.9801752
476.1704327
455.8061071
435.9656512
416.6964763
398.0500576
380.0482887
362.7221735
346.074684
330.1244813
314.857258
300.2835447
286.3768986
273.1370781
260.535937
248.5609047
237.1877095
226.3947204
216.160721
206.4576691
197.2678885
188.5595997
180.3181982
172.5117748
165.125448
158.130582
151.5109509
145.2423667
139.3081435
133.6873698
128.3644531
123.3228661
118.5363547
756.7155967
753.9008492
748.4584718
740.0688447
729.3646527
716.5676088
701.930262
685.7145094
668.1377664
649.458957
629.9218264
609.7168357
589.0427353
568.1052038
547.0358347
526.0019019
505.1236546
484.5112439
464.2679272
444.4593925
425.1679182
406.4307433
388.304231
370.8031495
353.960145
337.7792806
322.2717585
307.434748
293.261717
279.7458265
266.867269
254.6171138
242.9665572
231.9073364
221.405986
211.4495406
202.0076699
193.0621057
184.5867952
176.5600099
168.9600572
161.7630227
154.9503227
148.497915
142.390171
136.6036297
131.124856
125.9322647
121.0160647
116.3449024
737.6832731
734.9300159
729.613463
721.4289102
711.0016368
698.5364305
684.2659442
668.4279916
651.2904433
633.0999771
614.0558794
594.3657819
574.2456572
553.8482247
533.3414545
512.8777062
492.557712
472.5168335
452.8192025
433.5648733
414.7989569
396.589665
378.9588268
361.9504552
345.5691583
329.8428844
314.7600453
300.3378954
286.5533299
273.410035
260.8838927
248.9653204
237.6327216
226.8672224
216.6493524
206.9535705
197.7631393
189.0485492
180.7955385
172.9737211
165.5696791
158.5545054
151.9136168
145.6224465
139.6656931
134.02191
128.6759633
123.6096188
118.8105406
114.2509208
719.0486613
716.3770763
711.2051485
703.2378221
693.0795091
680.9129935
666.9858511
651.5625742
634.8879944
617.1660621
598.6154488
579.4620482
559.877438
540.0287296
520.0943972
500.181418
480.4322157
460.9377471
441.7931696
423.0726596
404.8348875
387.1326634
369.9970641
353.4607303
337.5392937
322.2457636
307.5854543
293.5546509
280.1522037
267.3616504
255.1777285
243.5750764
232.5476668
222.0648587
212.1165896
202.6732057
193.719473
185.2294879
177.1840535
169.5613544
162.3395798
155.4998127
149.0197082
142.8832036
137.0682934
131.5609222
126.3400524
121.3941315
116.7054891
112.2525172
700.7380074
698.1441424
693.0991677
685.3276557
675.4121564
663.5618185
650.0242838
635.0372644
618.8045089
601.5580871
583.5313737
564.9109093
545.867131
526.590102
507.2082466
487.8626388
468.6774115
449.7335763
431.1427459
412.9504553
395.2398641
378.0343465
361.3900432
345.3146416
329.8451322
314.9738944
300.724085
287.0775072
274.0423834
261.5983273
249.7400004
238.4481997
227.708001
217.5014342
207.8063718
198.6068691
189.8765163
181.6012109
173.7527855
166.3190771
159.2713058
152.5969866
146.2707696
140.2793243
134.6004043
129.2204
124.1195901
119.2858578
114.7030442
110.3496141
682.5096791
679.9959088
675.0698615
667.5182651
657.9012494
646.4099695
633.2752032
618.6987164
602.925957
586.1935797
568.6985467
550.6140514
532.1418947
513.4328875
494.6218368
475.8615124
457.236566
438.8645738
420.8147213
403.1665168
385.9696994
369.271471
353.1049922
337.4973686
322.4643559
308.0193423
294.1626345
280.8987219
268.2155776
256.1116847
244.5661796
233.5753803
223.1122123
213.1703344
203.7205961
194.7519599
186.2383652
178.1641832
170.5072184
163.2486397
156.3689257
149.8481332
143.6695003
137.8129979
132.2638324
127.0025127
122.0160306
117.2869726
112.8048169
108.5442004
664.2258701
661.8202663
657.042525
649.7462333
640.4424245
629.3064861
616.5490656
602.4194655
587.152891
570.9510771
553.990539
536.481253
518.5971171
500.4695102
482.2628406
464.0835404
446.0442401
428.2465983
410.7549294
393.6568945
376.9814173
360.7948707
345.1088842
329.9691753
315.3730115
301.3496263
287.8863236
274.9968719
262.6645514
250.8896546
239.6552793
228.9518612
218.7628627
209.0708062
199.8606264
191.1100278
182.8051417
174.921389
167.4464141
160.3538971
153.6329264
147.257742
141.2175388
135.4889836
130.0607785
124.9119642
120.0317468
115.4017689
111.013026
106.8399755
645.821612
643.5229519
638.8796093
631.8309957
622.8165938
612.0325858
599.7107628
586.0785139
571.3383851
555.6723082
539.2940244
522.3943696
505.105758
487.6000034
470.0112887
452.4410225
435.0164514
417.8053991
400.9022388
384.3554426
368.2268391
352.5507823
337.3653915
322.6897198
308.5451232
294.9367867
281.8748864
269.3528381
257.3731634
245.9205685
234.9940744
224.5717277
214.6498219
205.2021793
196.2224749
187.6844995
179.5775174
171.8788702
164.5738969
157.6423999
151.0678463
144.8326795
138.9196615
133.3131096
127.9958599
122.9538282
118.1709782
113.6347184
109.3312964
105.2414269
627.0302145
624.8343804
620.3076421
613.508931
604.825599
594.4573505
582.6150357
569.4957538
555.290227
540.2147802
524.465012
508.1830622
491.5385019
474.6924663
457.7437731
440.8271252
424.0319105
407.4438111
391.1446248
375.1783334
359.6137208
344.4699387
329.7992691
315.6041553
301.9203073
288.7401423
276.0840394
263.9387876
252.3116152
241.1878813
230.5648668
220.4275153
210.7646277
201.5621718
192.8033424
184.4748345
176.5568314
169.0371889
161.893768
155.115391
148.6794227
142.5759521
136.7823563
131.2896193
126.075847
121.1327135
116.4401288
111.9902164
107.7654228
103.7524637
607.5665436
605.4969773
601.1265363
594.6319475
586.3274439
576.4034335
565.0449792
552.4527338
538.84026
524.404
509.295902
493.6846202
477.7394263
461.573008
445.3143127
429.0846784
412.95702
397.0340011
381.3645767
366.0209225
351.0388617
336.4654826
322.323288
308.6407585
295.4282156
282.7010985
270.4587499
258.7077736
247.4391555
236.6549095
226.3395131
216.491443
207.089912
198.1324819
189.5949224
181.4722993
173.7417996
166.3945
159.409713
152.7757837
146.474544
140.4928208
134.8141451
129.4247226
124.3095214
119.4552181
114.8477769
110.47476
106.3236729
102.3791548
587.3274267
585.3922355
581.2004026
575.0228759
567.1036175
557.6177978
546.7694224
534.7637963
521.7929815
508.015265
493.5973254
478.7135611
463.494998
448.0617726
432.5487938
417.0383424
401.6325929
386.4050934
371.4134696
356.7248622
342.3673872
328.3959411
314.8190565
301.6776537
288.9682899
276.7182031
264.9168552
253.579067
242.6919048
232.2605229
222.2711096
212.7200948
203.5942678
194.8840042
186.5767889
178.6591442
171.119693
163.9418641
157.1148883
150.6210319
144.4505091
138.5849564
133.0151634
127.7227543
122.6992029
117.9269827
113.3975543
109.0946546
105.0104342
101.1278678
566.1097719
564.2960195
560.2905038
554.4194742
546.886182
537.8829684
527.602396
516.2282805
503.9205655
490.8447178
477.1744369
463.0577161
448.6082499
433.9663767
419.2336057
404.4974329
389.8612039
375.3735991
361.1129613
347.1164333
333.4369129
320.0998814
307.1385031
294.5678666
282.4069611
270.6611692
259.3400251
248.4407761
237.9677729
227.9120959
218.2742319
209.0400194
200.2085743
191.7617113
183.6977481
175.996679
168.6559764
161.6548366
154.9882101
148.6378365
142.5964138
136.8472501
131.381635
126.1840939
121.245604
116.5515247
112.0926511
107.8549715
103.8301618
100.0042407
543.6506906
541.9461007
538.1535882
532.6143875
525.5177819
517.0438626
507.3655727
496.6395987
485.0316418
472.7103912
459.8341955
446.5153198
432.8890719
419.0818456
405.1731578
391.2695894
377.4373494
363.7444573
350.2542457
337.0012765
324.0412817
311.3874803
299.0832503
287.1297489
275.5576639
264.3598476
253.557238
243.1375576
233.1137035
223.4718553
214.2163205
205.3336407
196.8221556
188.6691175
180.8684423
173.4090052
166.2810869
159.4745826
152.9781397
146.7827565
140.8758815
135.2490023
129.8890314
124.7879139
119.9327825
115.3153285
110.9230285
106.7474369
102.7767894
99.00382251
519.8468356
518.2503049
514.7247083
509.5421317
502.9059333
494.9787907
485.9072818
475.8574047
464.9922243
453.4677593
441.4034064
428.9297445
416.1767564
403.2329116
390.1962481
377.1603317
364.1779944
351.3271041
338.6451776
326.1873325
313.98134
302.0622512
290.4495842
279.1633723
268.2149885
257.6143096
247.3650435
237.4718776
227.9325767
218.748172
209.9107868
201.4198477
193.2635037
185.4402319
177.9361308
170.7494301
163.8642046
157.2787003
150.9766993
144.9567804
139.202667
133.7122452
128.4702697
123.474012
118.7092278
114.1722434
109.8493016
105.7366543
101.8204394
98.09851319
494.7474481
493.2432394
490.0167024
485.1826003
479.0082023
471.6217722
463.1803129
453.8381142
443.7454763
433.0273224
421.8079948
410.2159021
398.354658
386.3116759
374.1872399
362.0428113
349.9500681
337.9668232
326.131248
314.497949
303.083332
291.9310086
281.0465171
270.4609638
260.1726917
250.2029405
240.5444089
231.2124497
222.1954589
213.5038884
205.1231689
197.0592616
189.2974756
181.8390049
174.6710792
167.7908406
161.1867778
154.8538305
148.7822838
142.9657204
137.395638
132.0651435
126.9667809
122.0938677
117.4391151
112.9959281
108.7571675
104.7168006
100.8669217
97.19987921
468.4268854
466.992922
464.0885694
459.5853215
453.869577
447.0476215
439.2569377
430.6403255
421.3234561
411.4266671
401.0723386
390.3757917
379.4194009
368.3003629
357.0977484
345.8685169
334.6862973
323.5875134
312.6258239
301.830427
291.2354328
280.8641015
270.7353544
260.8663764
251.2656658
241.9439279
232.9041243
224.1514719
215.6855903
207.5058751
199.6105457
191.9948173
184.6559648
177.5864546
170.7834637
164.2367551
157.9433429
151.8923368
146.0813495
140.4990276
135.1434123
130.0035396
125.0782947
120.3576765
115.8403838
111.5174218
107.3876635
103.4440047
99.68552413
96.09123451
441.0456942
439.6678073
437.1057482
432.940803
427.698402
421.4481165
414.3122146
406.4135269
397.8703793
388.7989194
379.3168178
369.5086787
359.4616147
349.2699491
338.987444
328.6830181
318.4084693
308.2025262
298.1162227
288.1674756
278.3974788
268.8152274
259.4499719
250.3051091
241.4004421
232.7346122
224.3218238
216.1570881
208.2500579
200.5918929
193.1900326
186.0326578
179.1255039
172.4555406
166.0268072
159.8257199
153.8537369
148.0992025
142.5618341
137.2313083
132.1064851
127.1786243
122.4468496
117.9036002
113.5482041
109.373979
105.3811802
101.5653946
97.93133215
94.43893255
273.5868148
264.6303587
255.8365671
247.226654
238.8063693
230.5920384
222.5838793
214.7939742
207.2196927
199.8680256
192.7348119
185.8232253
179.1284169
172.6504423
166.3848326
160.3287306
154.4778365
148.8280516
143.3757817
138.1160978
133.046015
128.1606103
123.4580112
118.9341137
114.587349
110.4144175
106.4139551
102.5836324
98.92495016
95.44309422
92.08423964
)
;

boundaryField
{
    front_top
    {
        type            wedge;
    }
    front_middle
    {
        type            wedge;
    }
    front_bottom
    {
        type            wedge;
    }
    back_top
    {
        type            wedge;
    }
    back_middle
    {
        type            wedge;
    }
    back_bottom
    {
        type            wedge;
    }
    axis_top
    {
        type            symmetryPlane;
    }
    axis_middle
    {
        type            symmetryPlane;
    }
    axis_bottom
    {
        type            symmetryPlane;
    }
    wall_top
    {
        type            calculated;
        value           nonuniform List<scalar> 
23
(
128.3657858
125.7291346
123.2013695
120.7764241
118.4502412
116.2200679
114.0858887
112.045152
110.096854
108.2415268
106.4816567
104.8208721
103.2613379
101.8086471
100.4685085
99.24811973
98.15219432
97.1753729
96.29143937
95.41402464
94.33190388
92.72001211
90.42258055
)
;
    }
    wall_middle
    {
        type            calculated;
        value           nonuniform 0();
    }
    wall_bottom
    {
        type            calculated;
        value           nonuniform 0();
    }
    inlet
    {
        type            calculated;
        value           nonuniform 0();
    }
    outlet
    {
        type            calculated;
        value           nonuniform 0();
    }
    procBoundary7to6
    {
        type            processor;
        value           nonuniform List<scalar> 
51
(
412.9166343
411.5923126
409.3882896
405.5585611
400.7824897
395.0945719
388.5931064
381.3961273
373.6157154
365.3632914
356.7304012
347.7992738
338.6578214
329.3729346
320.0007836
310.6092621
301.2310058
291.9149829
282.6900567
282.6900567
258.2370194
250.0790639
242.0627942
234.1953512
226.4929935
218.959394
211.6055993
204.4327197
197.4479789
190.6493225
184.0421212
177.6217804
171.3922807
165.3476167
159.4911421
153.8150768
148.3223552
143.0050121
137.8662857
132.897986
128.103623
123.4754762
119.0176812
114.7234631
110.5965552
106.6310701
102.8299875
99.18809806
95.71151874
92.40430253
89.20372859
)
;
    }
    procBoundary7to8
    {
        type            processor;
        value           nonuniform List<scalar> 
51
(
936.1587305
932.7806732
926.1113586
915.982222
903.029423
887.5011894
869.7074434
849.9167166
828.4280899
805.5401603
781.525056
756.6181616
731.0825074
705.119821
678.9370576
652.7328836
626.6467583
600.8534723
575.440815
550.5531212
526.2452878
502.6229602
479.7166834
457.5942381
436.270776
415.7792981
396.1282017
377.3198896
359.3556988
342.2157515
325.9007756
310.3759759
295.6327408
281.6368495
268.3658763
255.7911609
237.7976201
237.7976201
226.8663486
216.5228818
206.7365146
197.4838194
188.7305475
180.4581372
172.6324011
165.236307
158.2387513
151.622288
145.3616911
139.4415791
133.8262347
)
;
    }
}


// ************************************************************************* //
