/*--------------------------------*- C++ -*----------------------------------*\
  =========                 |
  \\      /  F ield         | OpenFOAM: The Open Source CFD Toolbox
   \\    /   O peration     | Website:  https://openfoam.org
    \\  /    A nd           | Version:  7
     \\/     M anipulation  |
\*---------------------------------------------------------------------------*/
FoamFile
{
    version     2.0;
    format      ascii;
    class       volTensorField;
    location    "0.0018";
    object      grad(U);
}
// * * * * * * * * * * * * * * * * * * * * * * * * * * * * * * * * * * * * * //

dimensions      [0 0 -1 0 0 0 0];

internalField   nonuniform List<tensor> 
1167
(
(0.0008965159531 -1.469699744e-15 -8.434521287e-05 -2.10523821e-15 0.001470018392 4.206368637e-13 -8.930777113e-06 -1.240530695e-14 0.01079464286)
(0.001185884411 -2.188206636e-15 -0.0001951782853 5.856374855e-16 0.001283736422 0 -2.307841591e-05 -5.048000215e-15 0.01079648417)
(0.001155300123 -2.578550305e-15 -0.0003156044014 1.2497592e-15 0.001223213064 -8.864092957e-14 -3.595007699e-05 2.061025573e-15 0.01080033192)
(0.001159326183 3.039046186e-15 -0.0004357770705 1.68453476e-15 0.001207179517 0 -4.86046262e-05 -2.291603946e-16 0.01080612526)
(0.001133782989 6.399539563e-15 -0.0005552601417 -3.812568495e-16 0.001194562318 0 -6.101776792e-05 3.308498843e-17 0.01081372143)
(0.001099451264 4.833823097e-15 -0.0006745465733 -1.200079834e-15 0.001180969154 0 -7.341317884e-05 1.346733526e-15 0.01082305919)
(0.00106005392 1.17036814e-15 -0.0007931992078 -1.695189295e-15 0.001166257652 -3.809873993e-14 -8.52094276e-05 4.052921556e-15 0.01083423619)
(0.001013989962 2.286752134e-15 -0.0009107451631 -1.237056604e-15 0.001150186606 0 -9.588120767e-05 1.439212535e-16 0.01084651066)
(0.0009623601962 3.741701593e-16 -0.001027396229 -1.787733692e-15 0.001132460953 3.079939939e-14 -0.0001056352028 -4.052152828e-15 0.01085999825)
(0.0009070344293 -4.093359945e-15 -0.001143591758 -1.120593459e-15 0.001113280359 2.833302967e-14 -0.0001148323126 -2.291781435e-15 0.01087467037)
(0.0008472439818 -2.478319192e-15 -0.001258872364 -7.431809464e-16 0.001092796577 0 -0.0001230141364 -4.163099378e-16 0.01089030209)
(0.0007837457127 -1.240684428e-15 -0.001373248076 -5.405818016e-16 0.001070978785 0 -0.0001303111136 6.049481849e-16 0.01090680483)
(0.000717777768 -1.012089511e-15 -0.001487083627 -4.570242721e-16 0.001048035563 0 -0.0001371618817 1.808675355e-16 0.0109243176)
(0.0006484843252 6.711169791e-17 -0.001599498517 -3.398732871e-16 0.001024082913 0 -0.0001428958517 4.245105621e-16 0.01094234921)
(0.0005764917929 -1.346915061e-16 -0.001710458288 -4.007681606e-16 0.0009991361219 0 -0.0001477748993 2.739767069e-16 0.0109609406)
(0.0005021776915 -6.318821818e-16 -0.001819683633 -2.903050242e-16 0.0009733435965 0 -0.0001517841038 2.894875286e-16 0.01097998596)
(0.0004258321463 8.766618823e-17 -0.001926854958 -2.900021862e-16 0.000946739691 0 -0.0001549764255 3.905803012e-16 0.01099934041)
(0.00034811398 -2.868568112e-16 -0.002031737158 -2.740408803e-16 0.0009194532512 0 -0.0001574957409 5.517940832e-16 0.01101913176)
(0.0002689639999 1.100657972e-15 -0.002133760304 -2.368538842e-16 0.000891555578 -9.328399133e-15 -0.0001592384873 1.228510958e-15 0.01103897515)
(0.0001887617203 2.581541672e-15 -0.002232397226 -3.397933097e-16 0.0008631275577 0 -0.000160195601 1.551509339e-15 0.01105904276)
(0.0001076554818 1.993569491e-15 -0.002327167314 -4.255856959e-16 0.0008342446325 -2.668161751e-14 -0.0001604316824 2.181257863e-15 0.01107896467)
(2.611453654e-05 7.824548825e-16 -0.002417442202 -4.660204184e-16 0.0008049713868 0 -0.000159934149 1.885147594e-15 0.01109890876)
(-5.566548249e-05 3.35289152e-16 -0.002502717844 -4.535014054e-16 0.0007753926174 -8.560100261e-15 -0.0001588116583 1.825975714e-15 0.01111856287)
(-0.0001373119875 5.662956312e-16 -0.002582255344 -4.585938058e-16 0.0007455630853 0 -0.0001570297337 1.143678067e-15 0.01113802529)
(-0.0002190743723 5.66499223e-16 -0.002655401072 -4.622078706e-16 0.0007155671461 0 -0.0001546138885 5.873791397e-16 0.0111570655)
(-0.0003009122431 6.116268023e-16 -0.002721345121 -4.64388417e-16 0.0006854245276 0 -0.0001515451178 5.976608135e-16 0.01117562287)
(-0.0003823120742 7.243015502e-16 -0.002779507289 -4.711045205e-16 0.0006552022072 0 -0.0001479738347 8.941577472e-16 0.01119369528)
(-0.0004628998482 8.494177969e-16 -0.002829344077 -4.782814516e-16 0.0006249389636 0 -0.0001441711766 9.991481339e-16 0.01121111685)
(-0.000542753384 4.029158985e-16 -0.002869782084 -4.917336118e-16 0.0005947046031 0 -0.0001398392995 9.515306469e-16 0.01122798674)
(-0.0006223206755 -5.753433984e-16 -0.002900186622 -4.765896537e-16 0.0005645202195 0 -0.0001351990774 8.98956727e-16 0.01124400293)
(-0.0007008320766 -6.942736119e-16 -0.002919430828 -4.381865962e-16 0.0005344182923 -7.854758416e-15 -0.0001299681607 8.655877696e-16 0.01125942)
(-0.0007784979542 -2.645852898e-16 -0.002927019395 -4.187813814e-16 0.0005044492974 0 -0.0001244803448 4.4579932e-16 0.01127396563)
(-0.0008550127017 -1.436705093e-16 -0.002921817575 -4.066044262e-16 0.0004746259937 0 -0.0001184909024 2.525078278e-16 0.01128778052)
(-0.0009302209454 -1.706696608e-16 -0.002903227754 -3.958303599e-16 0.0004450015633 0 -0.0001122181844 8.610076029e-17 0.01130071136)
(-0.001004002328 2.47924942e-16 -0.002870550029 -3.835642649e-16 0.0004155885134 0 -0.0001058397864 -5.159393301e-17 0.01131277505)
(-0.001076484557 1.201850588e-15 -0.00282286584 -3.895777347e-16 0.0003864341114 0 -9.922855803e-05 -9.473848757e-17 0.01132401454)
(0.0009157261497 -6.949842818e-15 -8.661470798e-05 -3.260487185e-14 0.001501570465 0 -9.825473579e-06 -2.434716213e-15 0.01067441606)
(0.001211235667 -1.028242067e-14 -0.000200542035 -4.787022091e-15 0.001311261606 0 -2.556298842e-05 -7.314305103e-15 0.01067666719)
(0.001179830575 -1.133419466e-15 -0.0003248728209 1.266475237e-15 0.001249395659 0 -4.046869074e-05 -5.843643678e-15 0.01068131361)
(0.001184493635 3.649313094e-15 -0.0004496023351 -8.190710358e-16 0.001232936452 6.610669877e-14 -5.576313078e-05 -7.23575293e-15 0.01068834777)
(0.001159887873 4.648443941e-16 -0.0005733349415 -9.679859946e-16 0.001220258648 0 -7.050343355e-05 -3.013054281e-15 0.01069775839)
(0.001124591455 -1.922962267e-15 -0.0006961120287 -7.220326621e-16 0.001206814813 0 -8.447210329e-05 -6.683319226e-16 0.01070889105)
(0.001082170828 3.870379999e-15 -0.0008173758997 -1.369714574e-16 0.001191803355 -3.869207513e-14 -9.707934938e-05 1.137369099e-15 0.01072151804)
(0.001034708235 8.839761832e-15 -0.0009377863002 -1.42046463e-15 0.001175101869 3.447835926e-14 -0.0001088928863 -1.474449165e-15 0.01073579381)
(0.0009829767202 7.361865886e-16 -0.001057907186 -2.079034031e-15 0.001156928738 0 -0.0001203183592 3.03730707e-17 0.01075167295)
(0.0009257946058 -5.764080562e-15 -0.001176839648 -1.34528177e-15 0.001137348098 0 -0.0001304534629 -1.079330434e-15 0.0107687095)
(0.0008642050568 -3.808196721e-15 -0.001294718804 -7.024775621e-16 0.00111626737 0 -0.0001395192674 -1.70915024e-15 0.01078686276)
(0.0007998474323 -3.572924857e-16 -0.001412084321 -5.152631477e-16 0.001093914458 0 -0.0001480703193 -2.194086389e-15 0.01080629418)
(0.0007316884357 3.56630531e-16 -0.001528046262 -5.45366607e-16 0.001070438653 0 -0.0001553682787 -1.461740133e-15 0.01082654233)
(0.0006604661266 -4.967375143e-16 -0.001642644175 -4.970395349e-16 0.001045824319 2.26208215e-14 -0.0001617127883 -1.416229374e-15 0.01084759326)
(0.000586919713 -7.722563707e-16 -0.001755826895 -4.175812478e-16 0.001020262541 -1.082539741e-14 -0.0001672509038 -1.384776303e-16 0.0108694673)
(0.0005109010241 -6.406183672e-16 -0.001866947579 -3.507414228e-16 0.0009938039749 0 -0.0001716760633 -1.619424216e-16 0.01089173437)
(0.0004330602953 -5.386109002e-16 -0.001976006728 -3.067901764e-16 0.0009665577989 0 -0.0001753383986 -2.286999307e-16 0.0109146223)
(0.000353532556 -7.204624174e-16 -0.002082307597 -2.640364477e-16 0.0009386116499 0 -0.0001779722437 -2.755625691e-16 0.01093763004)
(0.0002725243123 -4.593044642e-16 -0.002185535628 -2.127876457e-16 0.0009100464752 1.89473521e-14 -0.0001797368006 -7.443334288e-16 0.01096094921)
(0.0001903622429 -3.151452332e-16 -0.002285152112 -1.984803308e-16 0.0008809357207 -9.238357217e-15 -0.000180621813 2.585093309e-16 0.01098413962)
(0.0001073968791 6.303301705e-16 -0.002380655566 -1.675930304e-16 0.0008513585025 0 -0.0001806827247 9.029272451e-16 0.01100743793)
(2.392881906e-05 1.5817848e-15 -0.002471554293 -2.269141298e-16 0.0008213889062 -8.851812148e-15 -0.0001800379968 1.402162037e-15 0.01103041826)
(-5.967619351e-05 1.956746448e-15 -0.002557171387 -2.737915396e-16 0.0007911013775 0 -0.000178650579 1.097488268e-15 0.01105333846)
(-0.0001433941813 2.501930633e-15 -0.002636988136 -3.487797024e-16 0.0007605704525 0 -0.0001766801357 9.612289746e-16 0.01107579615)
(-0.0002272195264 1.151982354e-15 -0.00270999088 -4.199949487e-16 0.0007298482248 0 -0.0001738453658 8.891220809e-16 0.01109799482)
(-0.0003109784936 -9.66555469e-17 -0.002775770147 -4.004709613e-16 0.0006989884842 0 -0.0001704759247 7.559543611e-16 0.01111957123)
(-0.0003937852564 7.220829794e-17 -0.002833444139 -3.899899852e-16 0.0006680377883 0 -0.0001664826225 1.244663075e-15 0.01114075013)
(-0.0004757763696 2.471263474e-16 -0.002882387345 -3.822137893e-16 0.0006370840735 0 -0.0001619899577 1.396237653e-15 0.01116123039)
(-0.0005571070143 -7.709312842e-17 -0.002921655702 -3.799719326e-16 0.000606149318 -1.617002635e-14 -0.0001569150232 1.732779742e-15 0.01118102856)
(-0.000637773226 -3.40227084e-16 -0.002950551436 -3.566403316e-16 0.0005752938693 -8.026367023e-15 -0.0001513496129 1.525464787e-15 0.01120006422)
(-0.0007176847686 4.85022611e-16 -0.002968423797 -3.447129197e-16 0.000544530602 0 -0.0001455189949 1.019042425e-15 0.01121819996)
(-0.0007967567282 1.176554957e-15 -0.002974205367 -3.642689048e-16 0.0005139113788 0 -0.0001391648441 6.457100274e-16 0.01123555821)
(-0.000875166065 1.169487406e-15 -0.002967351472 -3.830277593e-16 0.0004834462359 0 -0.0001326187967 2.727954328e-16 0.01125183788)
(-0.0009517278121 1.140691625e-15 -0.002946813413 -3.991097398e-16 0.0004531689331 0 -0.0001256676341 -1.913600989e-16 0.01126733566)
(-0.001026748763 8.823581302e-16 -0.002912095727 -4.144835151e-16 0.0004231339365 7.859835545e-15 -0.0001186210644 -4.701371585e-16 0.01128177593)
(-0.001100427379 5.331165678e-16 -0.002862045447 -4.205522945e-16 0.0003933522144 7.84775489e-15 -0.0001111818275 -4.200009615e-16 0.01129531201)
(-0.001172901162 4.274310067e-16 -0.002796042798 -4.173557044e-16 0.0003638599015 0 -0.0001035183235 -2.679174482e-17 0.01130778392)
(-0.001244046607 7.332998741e-16 -0.002713343317 -4.173347223e-16 0.0003346578646 -7.841298269e-15 -9.572159397e-05 4.164608678e-16 0.01131924529)
(-0.001313695867 1.223810193e-15 -0.002613207697 -4.281346191e-16 0.0003057800352 -1.569252259e-14 -8.779491537e-05 4.782980344e-16 0.0113297193)
(-0.001381867528 9.649687176e-16 -0.002495026809 -4.469040933e-16 0.0002772298909 0 -7.991250628e-05 3.514222329e-16 0.01133911668)
(-0.001448519506 5.332463096e-18 -0.002357898479 -4.482309152e-16 0.0002490344247 0 -7.187514203e-05 2.99462389e-16 0.01134760141)
(-0.001514105385 -4.36889335e-16 -0.002201320346 -4.324847772e-16 0.0002211953607 0 -6.390287276e-05 3.058156394e-16 0.01135497725)
(-0.001578193822 -3.397510151e-16 -0.002024463684 -4.202696818e-16 0.0001937206619 0 -5.584070197e-05 2.775088e-16 0.01136148936)
(-0.00164076644 -3.132953228e-16 -0.001826902247 -4.096454122e-16 0.0001666234536 0 -4.790266881e-05 2.276131573e-16 0.0113669631)
(-0.00170165524 -3.160491553e-17 -0.001607954646 -3.993833051e-16 0.000139909419 7.975010446e-15 -4.0025728e-05 1.651520949e-16 0.01137162335)
(-0.001761415143 2.160999262e-16 -0.00136717478 -3.963067129e-16 0.0001135933108 0 -3.232267112e-05 2.391285686e-16 0.01137533292)
(-0.001820230502 2.952382221e-16 -0.001103933013 -3.933729456e-16 8.766318934e-05 0 -2.47196119e-05 5.890277584e-17 0.01137826086)
(-0.00187420737 3.990128971e-16 -0.0008177965559 -3.940281972e-16 6.212684765e-05 8.094994336e-15 -1.729826989e-05 -2.309820719e-17 0.01138034794)
(-0.001911778286 4.120683501e-16 -0.000508170216 -3.938489766e-16 3.707181964e-05 0 -1.002810047e-05 5.30908907e-17 0.01138172635)
(-0.002006710268 2.188549211e-16 -0.0001732746834 -3.944356811e-16 1.278358801e-05 8.193260473e-15 -3.108609963e-06 -1.07334283e-16 0.01138237822)
(0.0009372318452 1.097680792e-14 -9.015618235e-05 -1.901892014e-14 0.001536861866 0 -1.118383495e-05 3.523413108e-15 0.01055155234)
(0.001240224437 1.592959208e-15 -0.0002082643967 -1.606423125e-14 0.001342065515 0 -2.894088937e-05 -7.232491942e-16 0.01055433236)
(0.001208993866 -2.01058485e-15 -0.0003368860985 -6.768586638e-15 0.001279096828 0 -4.545234555e-05 -4.499050964e-15 0.01055995565)
(0.001213433269 -3.020650847e-15 -0.0004658637195 -5.503170419e-15 0.001262675645 0 -6.22686607e-05 -3.094145463e-15 0.01056796282)
(0.00118645254 -5.392489906e-15 -0.0005932458661 -2.726355998e-15 0.001249635906 0 -7.803460874e-05 -2.201684303e-15 0.01057821487)
(0.001149058309 -2.911120503e-15 -0.000719188066 -1.618172168e-15 0.001235457618 0 -9.267134182e-05 -1.919242942e-15 0.010590707)
(0.001106540045 3.215538512e-15 -0.0008446449834 -1.048081219e-15 0.00121973212 0 -0.0001069596005 -2.677443063e-15 0.01060531895)
(0.001059090014 4.119865724e-15 -0.0009694335433 -1.94695739e-15 0.001202643673 0 -0.0001205777697 -2.690964756e-16 0.01062208302)
(0.001004926017 -1.629584179e-16 -0.001092596213 -1.770173824e-15 0.00118406889 0 -0.0001325669716 1.278559931e-15 0.0106402202)
(0.000945673159 -6.787096195e-16 -0.00121458647 -1.537457685e-15 0.001163802874 0 -0.0001434122635 -7.122184388e-16 0.01065982966)
(0.0008833970921 -2.377032833e-16 -0.001336118434 -1.34387984e-15 0.001142127343 0 -0.0001537617039 -1.74484748e-15 0.01068109244)
(0.0008168381611 -1.829593546e-15 -0.001456292245 -1.252152636e-15 0.00111921291 0 -0.0001628140016 -1.002322977e-15 0.01070350401)
(0.000746812981 -2.588430429e-15 -0.00157513402 -8.926572576e-16 0.001095019268 0 -0.0001708186629 7.455037865e-17 0.01072694191)
(0.0006742524367 -2.875711055e-15 -0.001692731437 -7.347356945e-16 0.001069769576 0 -0.0001780082776 -2.359625858e-16 0.01075151742)
(0.0005984853675 -2.814933257e-15 -0.001808109413 -4.375049023e-16 0.001043523379 0 -0.0001837204036 -4.945903342e-16 0.01077658282)
(0.0005203840901 -4.274434826e-16 -0.001921472487 -3.329730636e-16 0.001016346847 0 -0.0001884922307 -8.136725107e-16 0.01080239424)
(0.0004402578682 3.358849251e-16 -0.002032234051 -3.439710888e-16 0.0009883664741 0 -0.0001921069585 -9.996193459e-16 0.01082853092)
(0.0003583851285 9.28986339e-16 -0.002140123118 -3.333737554e-16 0.0009596453076 0 -0.0001947383291 -1.247883842e-15 0.0108550531)
(0.0002752607533 -2.719367727e-16 -0.002244599936 -3.969691025e-16 0.0009302925736 0 -0.0001963271692 -1.536435582e-15 0.0108817429)
(0.0001910426105 -1.413934551e-15 -0.00234529053 -2.863229992e-16 0.0009003854529 0 -0.000197020793 -1.344702383e-15 0.01090854695)
(0.0001061997945 -8.285523794e-16 -0.002441645808 -2.441070252e-16 0.0008700093437 0 -0.0001968557059 -1.354469178e-15 0.01093530627)
(2.097520194e-05 3.517589944e-16 -0.002533142497 -1.99721607e-16 0.0008392492609 0 -0.0001959004663 -1.015723135e-15 0.01096195751)
(-6.43008766e-05 1.475231024e-15 -0.002619235755 -2.500343758e-16 0.0008081788969 0 -0.0001942809891 -4.656661205e-16 0.01098833417)
(-0.0001499164768 1.133765448e-15 -0.002699096909 -2.863386142e-16 0.0007768785842 0 -0.0001918336137 2.20727517e-16 0.01101441558)
(-0.0002356321019 1.121990311e-15 -0.002772077184 -3.073566777e-16 0.0007453791639 -8.56416974e-15 -0.0001886764121 9.294201707e-16 0.01103989457)
(-0.0003209391064 -3.909537931e-16 -0.002837466584 -3.385790412e-16 0.0007137553509 0 -0.0001848204442 6.343727724e-16 0.01106495088)
(-0.0004058157056 -1.02753306e-15 -0.002894769064 -2.674449729e-16 0.0006820547607 0 -0.0001805611745 3.587152324e-16 0.01108918685)
(-0.000489898202 -5.361451535e-16 -0.002942887365 -2.60799198e-16 0.0006503334052 0 -0.0001755884055 4.498699352e-16 0.01111287221)
(-0.0005733357549 5.501156762e-17 -0.002981310375 -2.255198246e-16 0.0006186437302 -8.210926235e-15 -0.0001701955122 5.126174426e-16 0.01113562751)
(-0.0006556779544 1.517939177e-15 -0.003008943374 -2.477649317e-16 0.0005870184038 0 -0.0001641347556 6.407809866e-16 0.01115769957)
(-0.0007371855032 1.921912791e-15 -0.003025244333 -2.907455309e-16 0.0005555187746 0 -0.0001576681426 5.527767466e-16 0.01117876445)
(-0.0008176959137 2.008870665e-15 -0.003029173093 -3.286185996e-16 0.0005241538848 0 -0.0001506454898 7.130656526e-16 0.01119890967)
(-0.0008968211282 2.454257455e-15 -0.003020157281 -3.674366133e-16 0.0004929799468 0 -0.0001432926068 9.145336626e-16 0.01121804313)
(-0.000974385467 2.166693563e-15 -0.002997605719 -4.199756431e-16 0.0004620163909 0 -0.0001358785176 1.183106396e-15 0.01123609459)
(-0.001050586783 9.702649884e-16 -0.002960414064 -4.443240048e-16 0.0004313146686 0 -0.0001280797342 1.451637483e-15 0.01125315991)
(-0.001125957554 -2.676075063e-16 -0.002907970138 -4.446139709e-16 0.0004008785133 0 -0.0001201342265 1.50128845e-15 0.01126896876)
(-0.001199742167 -1.077869203e-15 -0.002839267992 -4.170504319e-16 0.0003707293107 0 -0.000111833683 1.566954476e-15 0.01128378355)
(-0.001272033369 -3.797546848e-16 -0.002753850541 -3.868944689e-16 0.0003408960266 0 -0.0001034973791 1.483421833e-15 0.01129734432)
(-0.001342557553 7.216534603e-16 -0.002650745999 -3.881120597e-16 0.00031139049 0 -9.493286686e-05 1.566384719e-15 0.01130986693)
(-0.001411451453 6.432378019e-16 -0.002529487996 -3.978614813e-16 0.0002822448498 0 -8.638746039e-05 1.715051864e-15 0.01132116432)
(-0.001478826849 1.250284067e-16 -0.002389175257 -3.956875961e-16 0.0002534615297 -7.993767662e-15 -7.770147813e-05 1.692327249e-15 0.01133135942)
(-0.001544723762 7.954378574e-17 -0.002229239526 -3.89330991e-16 0.0002250631331 0 -6.896896272e-05 1.342658471e-15 0.01134039574)
(-0.001609154015 3.353371772e-16 -0.002049128301 -3.870768787e-16 0.0001970481596 0 -6.032153035e-05 1.042618128e-15 0.01134829979)
(-0.001671829213 5.330532904e-16 -0.001848196549 -3.874695135e-16 0.00016943474 0 -5.171449591e-05 7.772705122e-16 0.01135513444)
(-0.001732882658 1.594322333e-16 -0.001625990139 -3.912673952e-16 0.0001422279249 8.099210363e-15 -4.329926112e-05 5.141452516e-16 0.01136085672)
(-0.001792779349 2.892798322e-16 -0.001381837659 -3.811256801e-16 0.0001154382669 0 -3.494335662e-05 5.948561556e-16 0.01136559179)
(-0.001851632889 5.004381535e-16 -0.00111534158 -3.880207653e-16 8.905593826e-05 0 -2.678218473e-05 6.508723374e-16 0.01136925399)
(-0.00190558609 -5.311513911e-17 -0.0008259655397 -3.843587729e-16 6.308679559e-05 -8.221062839e-15 -1.877405382e-05 8.096929557e-16 0.01137202578)
(-0.001942593222 3.240755422e-16 -0.0005132743542 -3.765136248e-16 3.761931635e-05 0 -1.101906266e-05 8.413733323e-16 0.01137381581)
(-0.002035368736 4.385418773e-16 -0.0001751145699 -3.828349475e-16 1.294899417e-05 0 -3.528959843e-06 8.804838157e-16 0.01137484619)
(0.0009609653651 4.040180921e-15 -9.369287524e-05 -8.96845135e-15 0.001576487135 0 -1.193319888e-05 1.180616521e-15 0.01042528217)
(0.001270985184 3.715793282e-15 -0.0002162353529 -6.573091695e-15 0.001376287494 -1.505676817e-13 -3.08408817e-05 1.773240833e-15 0.01042814178)
(0.00123818647 1.758228909e-15 -0.0003492531915 -4.924570577e-15 0.001311210347 0 -4.809864469e-05 7.131354407e-16 0.0104342913)
(0.001242243399 -4.119423247e-16 -0.0004824445631 -3.897230827e-15 0.001293978406 0 -6.553049479e-05 -1.594842961e-16 0.01044346261)
(0.001214756285 -1.646239427e-15 -0.0006147961752 -2.672305965e-15 0.001280301481 0 -8.266550916e-05 -2.31616717e-16 0.01045541758)
(0.001177855458 -9.408313226e-16 -0.0007462892328 -1.945731136e-15 0.001265686588 0 -9.924998385e-05 -3.669502575e-16 0.01047015357)
(0.001134493507 4.491023578e-16 -0.000876472631 -1.595387555e-15 0.001249820004 0 -0.0001147156248 -5.635230998e-16 0.01048725837)
(0.001083556512 1.342613106e-15 -0.001004636911 -1.554041064e-15 0.001232302934 0 -0.0001283569482 2.052706124e-15 0.01050602625)
(0.001027394016 1.889448706e-15 -0.001131546188 -1.541765408e-15 0.00121292761 -3.226089966e-14 -0.0001408874555 2.522866683e-15 0.01052676014)
(0.0009678392682 1.91262334e-16 -0.001258058797 -1.612119795e-15 0.001192043797 0 -0.0001530203801 2.392575489e-15 0.01054962304)
(0.0009033670774 -3.306334398e-15 -0.001383084435 -1.314260395e-15 0.001169806208 0 -0.0001637362452 2.456573504e-15 0.01057397931)
(0.0008349371783 -4.123577397e-15 -0.001506576072 -8.414421322e-16 0.001146145191 0 -0.0001731776841 2.636907341e-15 0.01059963321)
(0.0007635450093 -1.189575448e-15 -0.001628858994 -5.265822038e-16 0.001121307475 0 -0.0001817640851 9.044070897e-16 0.010626695)
(0.0006879909579 6.712594176e-16 -0.00174879497 -5.610576289e-16 0.001095349374 0 -0.0001886366475 3.157816938e-16 0.0106543804)
(0.0006097353066 4.494773646e-16 -0.001866683888 -5.451759803e-16 0.001068279281 0 -0.0001944065637 -5.691473262e-16 0.01068296755)
(0.0005294790664 4.671722564e-16 -0.001982244965 -5.531122092e-16 0.001040301961 1.073719246e-14 -0.0001990723432 -1.600524638e-15 0.01071227277)
(0.0004471586865 4.532571723e-16 -0.002095085879 -5.391801017e-16 0.001011472757 0 -0.0002026595046 -1.445350364e-15 0.01074201021)
(0.0003632234779 5.349600689e-16 -0.002204891162 -5.421956049e-16 0.000981921656 2.009803799e-14 -0.0002052785052 -1.450507605e-15 0.01077226369)
(0.0002778586075 -2.579729655e-16 -0.002311086384 -5.367399446e-16 0.0009517156755 0 -0.0002068551297 -6.603087667e-16 0.01080258466)
(0.0001916036711 -7.525576431e-16 -0.002413225852 -4.722300914e-16 0.0009209580589 0 -0.0002074846105 -1.267790746e-15 0.01083319584)
(0.000104648691 -2.066897482e-16 -0.002510767462 -4.3213434e-16 0.0008897314536 0 -0.0002071989183 -1.201653075e-15 0.01086358926)
(1.752499295e-05 -6.386582582e-16 -0.002603160022 -4.190375162e-16 0.0008581190625 9.129668438e-15 -0.0002060818535 -1.301979437e-15 0.01089401857)
(-6.998100098e-05 -1.162310315e-15 -0.002689817693 -3.54624017e-16 0.00082621335 0 -0.0002041874055 -6.149420115e-16 0.01092400296)
(-0.0001578486875 -1.089076548e-15 -0.002769807295 -3.101844631e-16 0.0007940544513 0 -0.0002013247362 -3.561374848e-16 0.01095365928)
(-0.0002456448964 1.258128705e-16 -0.00284263584 -2.611811489e-16 0.0007617115224 0 -0.0001977022245 -1.520722586e-16 0.01098267737)
(-0.000332684427 1.413305233e-15 -0.002907572619 -2.956287953e-16 0.0007292365739 -8.587911669e-15 -0.0001933767527 4.000696228e-16 0.0110111528)
(-0.0004189680216 5.355948378e-16 -0.002964015345 -3.296641077e-16 0.0006967192643 8.492479153e-15 -0.0001884759309 -2.436977492e-16 0.0110388944)
(-0.0005045732761 -1.877400465e-16 -0.003011291115 -3.100308326e-16 0.0006641925684 0 -0.0001831546699 -3.564353323e-16 0.01106579596)
(-0.0005895447551 -6.14680475e-16 -0.003048443526 -3.023222105e-16 0.000631720522 8.338799827e-15 -0.0001772250992 -6.439805068e-16 0.0110918979)
(-0.0006739038412 -4.156915778e-16 -0.003074841607 -2.627394195e-16 0.0005993217942 0 -0.0001709203429 -3.572213555e-16 0.01111690224)
(-0.0007573294497 2.836118589e-16 -0.003089405555 -2.641392036e-16 0.0005670452046 0 -0.0001639732284 1.733283421e-16 0.01114103591)
(-0.0008397879031 1.124775565e-16 -0.003091683617 -2.627924116e-16 0.0005349168429 0 -0.0001567781078 5.178284431e-16 0.01116392459)
(-0.0009201860811 -2.370181075e-16 -0.00308065749 -2.577284275e-16 0.0005029755938 0 -0.000149147113 1.019708224e-15 0.01118590349)
(-0.0009989990721 -5.000512711e-16 -0.00305583926 -2.410312317e-16 0.0004712864777 -8.125629012e-15 -0.0001413775402 1.791297169e-15 0.01120661942)
(-0.001076581953 -1.050122725e-16 -0.003016066836 -2.246322926e-16 0.000439856117 -1.621310785e-14 -0.0001331651874 1.951502992e-15 0.01122620755)
(-0.001152837875 1.507285494e-16 -0.002960737513 -2.27251176e-16 0.0004087228893 -8.09409406e-15 -0.0001246838916 2.000875317e-15 0.01124452405)
(-0.001227572449 4.70157998e-16 -0.002889197234 -2.221391979e-16 0.0003778925978 -8.087841374e-15 -0.0001161059637 1.824757275e-15 0.01126157994)
(-0.001300647493 7.094483909e-16 -0.002800595826 -2.369365655e-16 0.0003474032866 0 -0.0001073152799 1.626380565e-15 0.01127741477)
(-0.001372066216 4.282819228e-16 -0.002694376664 -2.400501124e-16 0.0003172613014 -8.092553584e-15 -9.853332749e-05 1.853757316e-15 0.01129188257)
(-0.001441770391 5.343091634e-16 -0.002569646872 -2.433247802e-16 0.0002874972031 -8.102913004e-15 -8.956518878e-05 1.970831151e-15 0.01130517646)
(-0.001510208919 1.333115505e-15 -0.002425917905 -2.50227109e-16 0.0002581153411 -8.118259315e-15 -8.063881605e-05 1.80926463e-15 0.01131703413)
(-0.0015768108 1.895221533e-15 -0.002262359883 -2.791602774e-16 0.000229126004 0 -7.159482479e-05 1.369043352e-15 0.01132774021)
(-0.001641624306 1.7318097e-15 -0.002078567294 -3.024268294e-16 0.0002005490392 0 -6.265672803e-05 1.050781295e-15 0.01133705513)
(-0.001704516034 1.664316384e-15 -0.001873854891 -3.230031229e-16 0.0001723895315 0 -5.375683412e-05 9.561956543e-16 0.01134520898)
(-0.001765658091 6.438571571e-16 -0.001647791359 -3.426389999e-16 0.0001446669966 0 -4.501652644e-05 9.497401676e-16 0.01135203874)
(-0.001825631763 -3.091887039e-16 -0.001399751363 -3.323430804e-16 0.0001173787497 0 -3.636177225e-05 8.739686485e-16 0.01135770327)
(-0.00188428599 -5.520768953e-16 -0.001129360434 -3.243739298e-16 9.052497013e-05 -8.303972602e-15 -2.79047275e-05 1.032182816e-15 0.01136212377)
(-0.00193783008 -3.642531016e-16 -0.0008361453398 -3.089378916e-16 6.410640901e-05 0 -1.966296258e-05 9.786156387e-16 0.01136542014)
(-0.001974469339 1.21270256e-16 -0.0005197199477 -3.067732038e-16 3.821869843e-05 0 -1.174224368e-05 9.20248931e-16 0.01136756644)
(-0.002067417864 6.168426896e-17 -0.0001775309186 -3.043390315e-16 1.314621673e-05 -4.225222491e-15 -3.951947413e-06 1.16612499e-15 0.01136866175)
(0.0009846820788 9.391391313e-15 -9.732456888e-05 -1.112911542e-14 0.001615611512 0 -1.211532856e-05 1.521347232e-15 0.01029709168)
(0.001302215322 2.96321818e-15 -0.0002249070531 -1.202095863e-14 0.001410326905 0 -3.145705083e-05 4.13065525e-15 0.01030045609)
(0.001268759864 1.304006797e-15 -0.000363934254 -5.789725656e-15 0.001343525216 0 -4.967433262e-05 3.925828978e-15 0.01030772726)
(0.001273880751 -1.47900086e-15 -0.0005032825866 -5.631537498e-15 0.001325937522 0 -6.827326204e-05 3.701961942e-15 0.01031863179)
(0.00124645983 -4.959262501e-15 -0.0006411547788 -2.899808634e-15 0.001312266887 0 -8.604131677e-05 2.311573792e-15 0.0103326905)
(0.001207115271 -2.275781212e-15 -0.0007772220346 -1.850931846e-15 0.001297542121 0 -0.0001024782749 1.227248375e-15 0.01034921711)
(0.001160204324 -1.560798554e-15 -0.0009111085091 -1.358027797e-15 0.001281010675 0 -0.0001171699105 2.782794838e-16 0.01036808228)
(0.001108302189 -1.487808593e-15 -0.00104397374 -9.897083268e-16 0.001262613473 0 -0.0001311349977 1.802359379e-15 0.0103895202)
(0.001052223684 -7.272242228e-16 -0.001176373244 -7.258962875e-16 0.001242676883 0 -0.0001447647838 2.839321348e-15 0.01041362702)
(0.0009902491998 -5.529088146e-16 -0.00130695379 -6.438530592e-16 0.001221274901 -3.013968149e-14 -0.0001567721888 3.665628662e-15 0.01043954079)
(0.0009234717639 -7.767967051e-16 -0.00143575466 -5.099346195e-16 0.00119827363 2.803613693e-14 -0.0001673487987 1.888015408e-15 0.01046705967)
(0.0008533810017 1.395339207e-15 -0.001563288443 -4.240606392e-16 0.00117392307 0 -0.000177051695 -7.362122646e-17 0.01049632782)
(0.0007786932839 2.116274701e-15 -0.001688290338 -6.289777324e-16 0.001148325712 2.48917178e-14 -0.0001848414197 -1.968544346e-15 0.01052660196)
(0.0007008419694 2.771329167e-16 -0.001811242745 -6.507814707e-16 0.001121455939 0 -0.0001914765908 -1.966667065e-15 0.01055795881)
(0.000620837654 1.324335842e-15 -0.001932310151 -5.81349666e-16 0.001093561841 0 -0.0001973198271 -1.541958178e-15 0.01059048724)
(0.0005383899824 1.415453036e-15 -0.00205050649 -7.187965252e-16 0.001064709567 0 -0.0002017733412 -1.300261502e-15 0.01062355975)
(0.0004540513043 1.575358648e-17 -0.002165814227 -6.76116316e-16 0.001035028979 0 -0.0002052148648 -7.249900972e-16 0.01065744441)
(0.0003678744093 -8.90144331e-16 -0.002277519968 -6.478112446e-16 0.001004606175 0 -0.0002074027813 -6.450814263e-16 0.01069142943)
(0.0002803350047 -6.125430968e-16 -0.00238542816 -5.329856236e-16 0.0009735294295 -9.923223247e-15 -0.0002086402698 -2.29271691e-17 0.01072583547)
(0.0001918296485 -1.752553103e-16 -0.002488918315 -5.362840643e-16 0.0009418932516 0 -0.0002088619272 -3.952747401e-17 0.01076004306)
(0.0001028143832 -7.284614041e-16 -0.00258756194 -4.781310402e-16 0.0009097851477 0 -0.0002082196003 9.573940037e-17 0.01079436774)
(1.359649665e-05 -1.128846667e-15 -0.002680786412 -4.391452632e-16 0.0008773015067 -9.271850505e-15 -0.0002067751768 1.753529132e-16 0.01082826573)
(-7.617776399e-05 -8.810253483e-16 -0.002767748902 -3.601467998e-16 0.0008445208861 0 -0.0002043541396 -2.154782726e-16 0.01086196151)
(-0.0001663922543 -6.336364521e-17 -0.002847943498 -3.500168453e-16 0.0008114853145 0 -0.0002011754049 -3.817056022e-16 0.01089488118)
(-0.0002561998796 -8.519454585e-16 -0.002920684121 -3.342564757e-16 0.0007782594548 0 -0.0001972719065 -5.004371348e-16 0.01092743254)
(-0.0003452550912 -6.262336032e-17 -0.00298550294 -2.7468108e-16 0.0007449225657 0 -0.0001929127421 -4.308646495e-17 0.01095910569)
(-0.000433254352 9.849522273e-16 -0.003041367366 -3.074247385e-16 0.000711538311 -8.62473787e-15 -0.000187846347 1.757900588e-16 0.01099023524)
(-0.0005206768737 5.646099735e-16 -0.003087770886 -3.127739778e-16 0.0006781802603 0 -0.000182333652 -6.238010225e-17 0.01102032351)
(-0.0006074233086 1.806679158e-17 -0.003123627096 -3.204695083e-16 0.0006448668531 -8.468665199e-15 -0.0001761423571 -1.316509677e-16 0.01104955532)
(-0.0006933164585 -8.269643287e-16 -0.003148373343 -3.017245398e-16 0.0006116602993 8.407236156e-15 -0.0001694932931 -8.021302859e-16 0.01107764736)