/*--------------------------------*- C++ -*----------------------------------*\
  =========                 |
  \\      /  F ield         | OpenFOAM: The Open Source CFD Toolbox
   \\    /   O peration     | Website:  https://openfoam.org
    \\  /    A nd           | Version:  7
     \\/     M anipulation  |
\*---------------------------------------------------------------------------*/
FoamFile
{
    version     2.0;
    format      ascii;
    class       volScalarField;
    location    "0.0018";
    object      thermo:alpha;
}
// * * * * * * * * * * * * * * * * * * * * * * * * * * * * * * * * * * * * * //

dimensions      [1 -1 -1 0 0 0 0];

internalField   nonuniform List<scalar> 
1167
(
0.0001215189598
0.0001215193002
0.0001215200297
0.0001215210341
0.0001215208381
0.0001215205996
0.0001215203215
0.0001215200064
0.000121519657
0.0001215192759
0.0001215188649
0.0001215141242
0.0001215061125
0.0001214976966
0.0001214889204
0.000121479804
0.0001214667404
0.0001214524733
0.0001214378471
0.0001214228903
0.0001214041364
0.0001213836567
0.0001213588866
0.0001213327386
0.0001213063324
0.0001212792299
0.0001212471566
0.0001212134137
0.0001211757127
0.0001211378979
0.0001211000149
0.0001210621158
0.0001210242173
0.0001209814094
0.0001209374936
0.0001208892305
0.0001215209026
0.0001215208552
0.0001215207537
0.0001215206037
0.0001215204086
0.0001215201713
0.0001215198946
0.0001215195814
0.000121519234
0.0001215188547
0.0001215144586
0.0001215069233
0.0001214989501
0.000121490585
0.0001214818507
0.0001214702678
0.0001214564809
0.0001214422902
0.0001214277389
0.0001214110217
0.0001213909893
0.0001213684936
0.0001213428031
0.0001213167943
0.0001212905113
0.0001212604825
0.0001212285537
0.0001211919601
0.0001211544298
0.00012111681
0.0001210791086
0.0001210413924
0.0001210011472
0.0001209581728
0.0001209116269
0.0001208635723
0.0001208204779
0.0001207775352
0.0001207301396
0.0001206815065
0.0001206295132
0.000120580212
0.0001205340588
0.0001204852393
0.000120434822
0.0001203848657
0.0001203353606
0.000120286356
0.0001202378286
0.0001201856828
0.0001215204794
0.0001215204322
0.0001215203312
0.0001215201819
0.0001215199878
0.0001215197518
0.0001215194768
0.0001215191652
0.0001215188195
0.0001215143936
0.0001215073658
0.0001214998662
0.0001214919402
0.0001214836153
0.0001214734188
0.0001214601484
0.0001214464284
0.0001214323157
0.0001214175897
0.0001213980438
0.0001213778015
0.0001213526122
0.0001213270426
0.0001213011679
0.0001212736443
0.0001212421047
0.0001212081104
0.0001211709283
0.0001211335917
0.0001210961362
0.0001210586279
0.000121020992
0.0001209781809
0.0001209342207
0.0001208862656
0.0001208406962
0.0001207983055
0.0001207528491
0.0001207056535
0.0001206545745
0.0001206027985
0.0001205563802
0.000120509835
0.0001204592334
0.0001204090399
0.0001203593077
0.0001203100273
0.0001202612364
0.0001202110865
0.0001201585273
0.0001215200646
0.0001215200177
0.0001215199171
0.0001215197687
0.0001215195758
0.0001215193412
0.0001215190675
0.0001215187574
0.0001215138973
0.0001215074093
0.0001215004143
0.0001214929576
0.0001214850705
0.0001214761552
0.0001214634394
0.0001214502298
0.0001214365873
0.0001214225387
0.0001214047803
0.0001213853224
0.0001213621212
0.0001213370439
0.0001213116096
0.0001212858491
0.0001212554897
0.0001212240878
0.0001211873302
0.0001211503172
0.0001211131618
0.0001210758856
0.0001210385479
0.0001209982926
0.000120955663
0.0001209091525
0.0001208613984
0.0001208187781
0.0001207758505
0.0001207286433
0.00012068002
0.0001206281653
0.0001205790957
0.0001205330115
0.0001204841265
0.0001204337316
0.0001203837748
0.000120334245
0.0001202851961
0.0001202366031
0.0001201842446
0.0001201318969
0.0001215196585
0.0001215196118
0.0001215195119
0.0001215193643
0.0001215191723
0.0001215189387
0.0001215182666
0.0001215129363
0.0001215070219
0.0001215005637
0.0001214936078
0.0001214861881
0.000121478337
0.0001214663158
0.0001214536574
0.000121440519
0.0001214269405
0.0001214111572
0.0001213922234
0.0001213712829
0.0001213467491
0.000121321794
0.0001212964795
0.0001212686629
0.0001212376907
0.0001212035849
0.000121166956
0.0001211301287
0.0001210931306
0.0001210560399
0.0001210184667
0.0001209760353
0.0001209321917
0.0001208845712
0.000120839451
0.0001207972859
0.0001207519208
0.0001207049069
0.0001206539119
0.0001206022674
0.0001205559923
0.0001205094746
0.0001204589151
0.0001204087381
0.0001203589978
0.000120309687
0.0001202608444
0.0001202105776
0.0001201579201
0.000120107775
0.0001215192607
0.0001215192143
0.0001215191148
0.0001215189679
0.0001215187767
0.0001215161585
0.0001215114763
0.0001215061702
0.0001215002825
0.0001214938602
0.0001214869388
0.0001214795524
0.0001214687378
0.0001214566703
0.0001214440745
0.0001214310022
0.0001214171307
0.0001213987642
0.0001213799129
0.0001213561062
0.0001213316781
0.0001213068514
0.0001212815764
0.0001212510801
0.0001212196424
0.0001211834541
0.0001211469919
0.0001211103332
0.000121073511
0.00012103658
0.0001209964668
0.0001209542096
0.0001209078928
0.000120860466
0.0001208182035
0.0001207754516
0.0001207284539
0.000120680004
0.0001206283075
0.0001205793356
0.0001205333351
0.0001204845486
0.0001204341895
0.0001203842419
0.000120334698
0.0001202856119
0.0001202369615
0.0001201845538
0.0001201321018
0.0001200845143
0.0001215188708
0.0001215188246
0.0001215187255
0.0001215167634
0.0001215134778
0.0001215094813
0.00012150482
0.0001214995375
0.0001214936829
0.0001214872919
0.0001214804011
0.0001214706641
0.000121459229
0.000121447216
0.0001214346876
0.0001214216721
0.0001214049014
0.0001213866138
0.0001213650663
0.0001213412259
0.0001213169207
0.0001212922004
0.0001212642083
0.0001212338394
0.0001211997529
0.0001211637142
0.0001211274297
0.0001210909215
0.0001210542774
0.0001210169144
0.0001209748925
0.0001209313196
0.000120884063
0.0001208392837
0.0001207973663
0.0001207522503
0.0001207054392
0.0001206546891
0.0001206031959
0.0001205569333
0.0001205106044
0.0001204601018
0.0001204099528
0.0001203602163
0.000120310884
0.0001202619991
0.0001202117766
0.0001201590287
0.0001201086818
0.0001200616998
0.0001215151971
0.0001215144026
0.0001215127001
0.0001215101856
0.0001215069144
0.0001215029355
0.0001214982946
0.0001214930431
0.0001214872157
0.0001214808525
0.0001214720518
0.0001214612923
0.0001214499065
0.0001214379591
0.0001214254843
0.0001214105895
0.0001213929107
0.0001213735781
0.0001213503759
0.0001213266407
0.0001213024517
0.0001212770253
0.0001212471773
0.0001212157999
0.0001211802486
0.0001211443731
0.0001211082458
0.0001210719092
0.0001210354153
0.0001209955885
0.000120953734
0.0001209077619
0.0001208606916
0.0001208186821
0.00012077626
0.0001207294949
0.0001206813761
0.0001206298596
0.0001205808615
0.0001205349609
0.0001204864316
0.0001204361231
0.0001203861965
0.0001203366505
0.0001202875363
0.0001202388379
0.0001201865396
0.0001201339914
0.0001200861251
0.0001200393212
0.0001215087265
0.0001215079355
0.0001215062403
0.0001215037367
0.0001215004796
0.0001214965206
0.0001214919064
0.0001214866774
0.0001214808751
0.0001214728562
0.0001214628173
0.0001214521035
0.0001214407772
0.0001214288826
0.0001214157811
0.0001213987583
0.0001213811531
0.0001213590771
0.0001213359705
0.000121312353
0.000121288263
0.0001212602025
0.0001212304754
0.0001211965293
0.0001211611203
0.000121125415
0.0001210894316
0.0001210532656
0.0001210162524
0.0001209746725
0.0001209315171
0.000120884656
0.0001208401213
0.0001207984758
0.0001207537602
0.0001207071752
0.0001206568248
0.0001206055049
0.0001205591339
0.0001205131495
0.0001204627205
0.0001204126127
0.0001203628937
0.0001203135502
0.000120264634
0.0001202146121
0.0001201617832
0.0001201110905
0.0001200639983
0.000120015817
0.0001215023824
0.0001215015947
0.0001214999068
0.0001214974152
0.0001214941768
0.0001214902375
0.0001214856429
0.000121480436
0.000121473031
0.0001214637595
0.0001214537625
0.0001214431012
0.0001214318278
0.0001214199824
0.0001214041094
0.0001213871565
0.0001213672759
0.0001213448565
0.0001213218558
0.0001212983412
0.0001212728629
0.000121243704
0.0001212125015
0.0001211776293
0.0001211423795
0.0001211068209
0.0001210710038
0.0001210349797
0.0001209955761
0.0001209541569
0.0001209086735
0.0001208619917
0.0001208201417
0.000120778197
0.0001207316898
0.0001206840538
0.0001206327413
0.000120583603
0.0001205378205
0.0001204897014
0.0001204394605
0.0001203895684
0.0001203400341
0.0001202909022
0.0001202421671
0.0001201901318
0.0001201374969
0.0001200892108
0.0001200422918
0.0001199921587
0.0001214961651
0.0001214953819
0.0001214937034
0.0001214912245
0.0001214879995
0.0001214840767
0.0001214795011
0.0001214725281
0.0001214640726
0.0001214548392
0.0001214448885
0.000121434279
0.0001214230516
0.0001214089146
0.0001213926632
0.0001213749165
0.0001213532398
0.0001213309097
0.0001213080203
0.000121284599
0.0001212565665
0.0001212275221
0.000121193828
0.0001211590911
0.0001211240038
0.0001210885831
0.0001210529289
0.0001210163971
0.0001209752943
0.0001209326961
0.0001208862649
0.0001208418899
0.0001208005427
0.0001207563724
0.0001207100391
0.0001206602375
0.000120609115
0.0001205625246
0.0001205169118
0.0001204666982
0.000120416647
0.0001203669609
0.0001203176185
0.0001202686834
0.0001202190136
0.0001201661148
0.0001201149403
0.0001200677454
0.0001200198017
0.0001199689479
0.0001214900742
0.0001214892942
0.0001214876226
0.0001214851538
0.000121481942
0.0001214779936
0.0001214712974
0.0001214637086
0.0001214552874
0.0001214460947
0.0001214361938
0.000121425627
0.0001214131224
0.000121397624
0.0001213814371
0.0001213610646
0.000121339473
0.0001213172496
0.00012129445
0.0001212690081
0.0001212405819
0.0001212096589
0.0001211755108
0.0001211409284
0.0001211059784
0.0001210707174
0.0001210351982
0.0001209963466
0.0001209553979
0.0001209105402
0.0001208642813
0.0001208225091
0.0001207811827
0.0001207349614
0.0001206879537
0.0001206368717
0.0001205874894
0.0001205418453
0.000120494284
0.0001204441295
0.0001203942873
0.0001203447804
0.0001202956432
0.000120246884
0.0001201952609
0.0001201425505
0.0001200937113
0.000120046685
0.0001199968481
0.0001199461743
0.000121484101
0.0001214833241
0.0001214816593
0.0001214792004
0.0001214750052
0.0001214692872
0.0001214626177
0.0001214550591
0.0001214466738
0.0001214375281
0.0001214276664
0.0001214166795
0.0001214019878
0.00012138655
0.0001213682727
0.0001213474776
0.0001213259761
0.0001213038507
0.0001212809715
0.0001212532198
0.0001212249016
0.0001211915613
0.0001211575416
0.0001211231142
0.000121088296
0.0001210531905
0.0001210172636
0.0001209766756
0.000120934767
0.0001208888029
0.0001208445148
0.0001208034947
0.0001207600079
0.0001207139541
0.0001206648444
0.0001206139459
0.0001205670355
0.0001205215554
0.0001204719613
0.0001204219854
0.0001203723482
0.0001203230209
0.0001202740812
0.0001202249104
0.0001201719543
0.0001201201697
0.0001200728813
0.0001200253209
0.0001199743252
0.000119924346
0.0001214782428
0.0001214771617
0.0001214747249
0.0001214711258
0.0001214664437
0.0001214607482
0.0001214541047
0.0001214465783
0.0001214382359
0.0001214291258
0.0001214193024
0.000121405701
0.000121391066
0.0001213748034
0.0001213548655
0.0001213341495
0.0001213127484
0.0001212907068
0.0001212653787
0.0001212377311
0.0001212071823
0.0001211738061
0.0001211399355
0.0001211056367
0.0001210709711
0.0001210359945
0.0001209978156
0.0001209573752
0.0001209132729
0.0001208674742
0.00012082571
0.0001207848376
0.0001207392307
0.0001206929912
0.0001206421685
0.0001205924489
0.0001205469653
0.000120500104
0.0001204500567
0.000120400282
0.00012035082
0.0001203016919
0.000120252923
0.0001202018564
0.0001201490836
0.0001200995658
0.0001200524413
0.0001200030438
0.0001199522234
0.0001199044346
0.0001214698556
0.0001214687229
0.0001214662955
0.0001214627104
0.0001214580462
0.0001214523726
0.0001214457585
0.0001214382697
0.0001214299592
0.0001214208839
0.0001214087082
0.0001213949318
0.000121380352
0.0001213615761
0.0001213417128
0.0001213210878
0.0001212997713
0.0001212769986
0.0001212500806
0.0001212223107
0.00012118964
0.0001211563854
0.0001211226624
0.0001210884885
0.0001210539717
0.0001210187652
0.0001209787324
0.0001209376384
0.0001208921811
0.0001208479194
0.0001208072573
0.0001207645858
0.0001207188418
0.000120670561
0.0001206199156
0.0001205725946
0.0001205272697
0.0001204784346
0.0001204285605
0.0001203789846
0.0001203296931
0.0001202807605
0.000120232159
0.0001201792319
0.0001201267169
0.0001200793457
0.0001200323097
0.0001199811815
0.0001199305331
0.000119884894
0.0001214615738
0.0001214604454
0.0001214580272
0.0001214544555
0.000121449809
0.000121444163
0.00012143758
0.0001214301194
0.0001214218401
0.0001214109515
0.000121398092
0.0001213843668
0.0001213675463
0.0001213485989
0.0001213288112
0.0001213082774
0.000121287039
0.0001212618906
0.0001212350702
0.00012120498
0.0001211724265
0.0001211393151
0.0001211057124
0.0001210716842
0.0001210372901
0.0001209998967
0.0001209600049
0.0001209167803
0.0001208714816
0.0001208296679
0.0001207891478
0.0001207444172
0.0001206988315
0.0001206485472
0.0001205984076
0.0001205531088
0.0001205070841
0.0001204571672
0.0001204074798
0.0001203580822
0.0001203089795
0.0001202602172
0.0001202098469
0.0001201570263
0.0001201067125
0.0001200595007
0.0001200106816
0.000119959724
0.0001199111038
0.0001198657157
0.0001214534496
0.0001214523254
0.0001214499161
0.0001214463607
0.0001214417384
0.0001214361155
0.0001214295568
0.0001214221236
0.0001214123709
0.000121400489
0.0001213876765
0.0001213727103
0.0001213547449
0.000121335866
0.0001213161676
0.0001212957077
0.0001212730985
0.0001212470655
0.0001212197603
0.0001211879727
0.0001211555351
0.0001211225626
0.0001210890779
0.0001210551921
0.0001210208129
0.0001209813781
0.0001209412161
0.0001208963082
0.000120852025
0.0001208117541
0.0001207700227
0.0001207246211
0.0001206773001
0.0001206269392
0.0001205791279
0.0001205339826
0.0001204860408
0.0001204362917
0.0001203867971
0.000120337565
0.0001202886521
0.0001202400526
0.0001201878757
0.00012013523
0.0001200870768
0.0001200400214
0.0001199894521
0.000119938662
0.0001198921296
0.0001198468908
0.0001214454839
0.0001214443655
0.0001214419686
0.0001214384284
0.0001214338228
0.0001214282203
0.0001214216853
0.000121412904
0.0001214020629
0.0001213902236
0.0001213769998
0.0001213600853
0.0001213421836
0.0001213233818
0.0001213037604
0.0001212833726
0.0001212584582
0.0001212325162
0.0001212029583
0.0001211712809
0.0001211389788
0.0001211061202
0.0001210727737
0.0001210390047
0.0001210025007
0.0001209632005
0.0001209209681
0.000120876212
0.0001208343038
0.0001207941692
0.0001207504369
0.0001207051879
0.0001206559201
0.0001206057269
0.0001205602014
0.0001205151441
0.0001204653828
0.0001204158048
0.0001203664932
0.0001203174344
0.000120268697
0.0001202191581
0.0001201663066
0.0001201150877
0.000120067801
0.0001200196951
0.0001199686113
0.0001199190409
0.0001198735032
0.0001198277254
0.0001214376764
0.0001214365619
0.0001214341735
0.0001214306459
0.0001214260566
0.000121420474
0.000121412486
0.0001214027514
0.0001213919484
0.0001213801507
0.0001213645517
0.0001213476961
0.0001213298576
0.0001213111374
0.0001212915839
0.0001212691833
0.0001212440891
0.0001212173144
0.0001211864662
0.0001211548986
0.0001211227271
0.0001210899797
0.0001210567688
0.0001210231138
0.0001209845236
0.000120945355
0.0001209010896
0.0001208567498
0.0001208169056
0.0001207762318
0.0001207312077
0.0001206849708
0.0001206349284
0.0001205865582
0.0001205416191
0.0001204946986
0.0001204451
0.0001203957091
0.0001203465581
0.0001202976838
0.0001202491047
0.0001201978107
0.0001201451294
0.0001200960102
0.0001200488759
0.0001199990701
0.0001199481495
0.000119900608
0.0001198552159
0.0001198077915
0.0001214300159
0.0001214289053
0.0001214265252
0.0001214230098
0.0001214183876
0.0001214110496
0.0001214024899
0.0001213927889
0.000121382023
0.0001213680733
0.0001213523353
0.0001213355369
0.0001213177763
0.0001212991196
0.0001212791727
0.000121254994
0.0001212299842
0.0001212010213
0.0001211702761
0.0001211388363
0.0001211067719
0.0001210741544
0.0001210410551
0.0001210055357
0.0001209668724
0.0001209257385
0.0001208815702
0.0001208395352
0.0001207998218
0.0001207572025
0.0001207123251
0.0001206641951
0.0001206143147
0.0001205681649
0.0001205233716
0.0001204746214
0.0001204251825
0.0001203759753
0.0001203269822
0.000120278289
0.0001202297115
0.0001201768481
0.000120124624
0.0001200772769
0.0001200300143
0.0001199788173
0.000119928186
0.000119882508
0.0001198372588
0.0001197882175
0.0001214224992
0.0001214213923
0.0001214190203
0.0001214145366
0.0001214085246
0.0001214012112
0.0001213926804
0.0001213830118
0.0001213705762
0.0001213560305
0.0001213403448
0.0001213236123
0.0001213059175
0.0001212873227
0.0001212651632
0.0001212410642
0.0001212148743
0.0001211850247
0.0001211543827
0.0001211230651
0.0001210911052
0.000121058616
0.0001210256246
0.0001209880763
0.0001209495381
0.0001209064265
0.0001208624003
0.0001208226286
0.0001207830433
0.0001207385129
0.0001206934771
0.0001206437898
0.0001205948036
0.0001205500995
0.0001205043221
0.0001204549018
0.0001204056391
0.0001203565934
0.0001203077784
0.0001202592404
0.0001202089568
0.0001201562594
0.000120106077
0.0001200588786
0.0001200099641
0.0001199589265
0.0001199102681
0.0001198647323
0.000119818071
0.0001197689938
0.0001214140172
0.0001214125621
0.0001214094436
0.0001214048376
0.0001213988453
0.0001213915558
0.0001213830528
0.0001213719837
0.0001213587081
0.0001213442096
0.0001213285777
0.0001213119131
0.0001212942757
0.0001212745261
0.0001212514084
0.0001212273869
0.0001211990705
0.0001211693162
0.0001211387943
0.0001211075767
0.0001210757376
0.0001210433552
0.0001210089057
0.0001209709271
0.000120930989
0.0001208874563
0.0001208452756
0.0001208060208
0.0001207646211
0.0001207201527
0.0001206732746
0.0001206237433
0.0001205769154
0.0001205323522
0.0001204847947
0.0001204355293
0.000120386445
0.0001203375528
0.0001202889142
0.0001202405277
0.0001201885683
0.0001201360341
0.0001200878577
0.0001200408056
0.0001199902685
0.0001199393877
0.0001198926675
0.0001198472714
0.0001197990387
0.0001197501105
0.0001214044691
0.0001214030186
0.00012139991
0.0001213953186
0.0001213893454
0.0001213820791
0.000121372216
0.0001213602915
0.0001213470578
0.000121332605
0.0001213170388
0.0001213004268
0.0001212828449
0.0001212609465
0.0001212379014
0.0001212123388
0.0001211835492
0.0001211538914
0.0001211234828
0.0001210923627
0.0001210606445
0.0001210283633
0.0001209919389
0.0001209540786
0.0001209122149
0.0001208688171
0.0001208288346
0.0001207897022
0.0001207464417
0.0001207021115
0.0001206534227
0.0001206040445
0.0001205593374
0.0001205148179
0.0001204656059
0.0001204164983
0.0001203675841
0.000120318852
0.0001202703778
0.0001202212265
0.0001201685344
0.000120117202
0.0001200699562
0.0001200220558
0.0001199709167
0.0001199210427
0.0001198753747
0.000119829599
0.0001197803393
0.000119731597
0.0001210774309
0.0001210458142
0.0001210125096
0.0001209752657
0.0001209366108
0.0001208937635
0.0001208514322
0.0001208126754
0.0001207725929
0.0001207285728
0.0001206830522
0.0001206339088
0.0001205863614
0.0001205420591
0.0001204958056
0.0001204467439
0.0001203978098
0.0001203490449
0.0001203004845
0.0001202521582
0.0001202013758
0.0001201488433
0.0001200994645
0.0001200523619
0.000120002883
0.0001199518974
0.000119903911
0.00011985838
0.0001198110758
0.000119761962
0.0001197150424
)
;

boundaryField
{
    front_top
    {
        type            wedge;
    }
    front_middle
    {
        type            wedge;
    }
    front_bottom
    {
        type            wedge;
    }
    back_top
    {
        type            wedge;
    }
    back_middle
    {
        type            wedge;
    }
    back_bottom
    {
        type            wedge;
    }
    axis_top
    {
        type            symmetryPlane;
    }
    axis_middle
    {
        type            symmetryPlane;
    }
    axis_bottom
    {
        type            symmetryPlane;
    }
    wall_top
    {
        type            calculated;
        value           nonuniform List<scalar> 
23
(
0.0001201593683
0.0001201323206
0.0001201077887
0.0001200841663
0.0001200609981
0.0001200382744
0.0001200142951
0.0001199902743
0.0001199667095
0.0001199435903
0.0001199216925
0.000119901482
0.0001198816495
0.0001198621863
0.0001198430839
0.0001198232448
0.0001198030213
0.0001197831657
0.0001197636688
0.0001197445206
0.0001197262886
0.0001197095099
0.0001196930206
)
;
    }
    wall_middle
    {
        type            calculated;
        value           nonuniform 0();
    }
    wall_bottom
    {
        type            calculated;
        value           nonuniform 0();
    }
    inlet
    {
        type            calculated;
        value           nonuniform 0();
    }
    outlet
    {
        type            calculated;
        value           nonuniform 0();
    }
    procBoundary7to6
    {
        type            processor;
        value           nonuniform List<scalar> 
51
(
0.0001213950979
0.0001213936518
0.0001213905528
0.0001213859755
0.0001213800206
0.0001213711902
0.0001213607012
0.0001213488131
0.0001213356199
0.0001213212246
0.0001213057088
0.0001212891476
0.0001212696048
0.0001212476097
0.0001212246349
0.0001211970042
0.0001211683021
0.0001211387558
0.0001211084398
0.0001211084398
0.0001210627602
0.0001210312377
0.0001209960084
0.0001209588753
0.0001209183429
0.000120875623
0.0001208354278
0.0001207967875
0.0001207548905
0.0001207110025
0.0001206637162
0.0001206147201
0.0001205692372
0.0001205250687
0.0001204771102
0.0001204281963
0.0001203794329
0.0001203308151
0.000120282424
0.0001202342434
0.0001201818576
0.0001201294824
0.0001200820251
0.0001200350638
0.0001199840332
0.0001199331991
0.0001198870688
0.0001198416728
0.0001197928661
0.0001197438961
0.0001196987683
)
;
    }
    procBoundary7to8
    {
        type            processor;
        value           nonuniform List<scalar> 
51
(
0.0001215158088
0.0001215161509
0.0001215168841
0.000121517967
0.0001215193755
0.0001215210367
0.0001215207572
0.0001215204405
0.0001215200891
0.0001215197056
0.0001215192926
0.000121518852
0.0001215134215
0.0001215049633
0.0001214961345
0.0001214869737
0.0001214772089
0.0001214628731
0.000121448161
0.0001214331326
0.0001214175503
0.0001213969738
0.0001213752957
0.0001213490255
0.0001213224732
0.0001212956975
0.0001212661345
0.0001212337099
0.0001211974266
0.000121159414
0.0001211213554
0.0001210832555
0.0001210451866
0.0001210051114
0.0001209618178
0.0001209154016
0.0001208430923
0.0001208430923
0.0001208004963
0.0001207551128
0.0001207077547
0.0001206567585
0.0001206048688
0.0001205581669
0.0001205117612
0.0001204611306
0.0001204109303
0.0001203612165
0.0001203119734
0.0001202632422
0.0001202133754
)
;
    }
}


// ************************************************************************* //
