/*--------------------------------*- C++ -*----------------------------------*\
  =========                 |
  \\      /  F ield         | OpenFOAM: The Open Source CFD Toolbox
   \\    /   O peration     | Website:  https://openfoam.org
    \\  /    A nd           | Version:  7
     \\/     M anipulation  |
\*---------------------------------------------------------------------------*/
FoamFile
{
    version     2.0;
    format      ascii;
    class       volTensorField;
    location    "0.0012";
    object      grad(U);
}
// * * * * * * * * * * * * * * * * * * * * * * * * * * * * * * * * * * * * * //

dimensions      [0 0 -1 0 0 0 0];

internalField   nonuniform List<tensor> 
1166
(
(0.0009414081449 2.293840844e-15 -0.0001051688013 -6.035141009e-15 0.001535672115 0 -8.614315217e-06 -6.495408706e-16 0.01602047216)
(0.001249777886 3.08400254e-15 -0.0002432691298 -4.052702552e-15 0.001345354095 0 -2.243185719e-05 -1.891214092e-15 0.01601780239)
(0.001223864622 -1.817419816e-15 -0.0003924737924 -3.621714515e-15 0.001285789992 0 -3.51919002e-05 -1.670396282e-15 0.01601220661)
(0.001238515092 -5.222641253e-15 -0.0005399473673 -1.068446235e-15 0.001272265301 0 -4.774712544e-05 -2.067563158e-15 0.01600392449)
(0.001226719762 1.983624161e-16 -0.00068365044 2.243639233e-16 0.001263975113 5.035587012e-14 -5.935426663e-05 -2.942334061e-15 0.01599311166)
(0.001205232453 3.932423449e-15 -0.0008230982993 -6.308809011e-16 0.001255597478 0 -6.978686063e-05 -1.411322864e-15 0.01597995965)
(0.001178258199 3.060943352e-15 -0.000958112821 -1.016770329e-15 0.001246229932 0 -7.909106087e-05 -4.609111393e-16 0.01596467278)
(0.001146418939 9.326586584e-16 -0.001088527689 -1.246807432e-15 0.001235708378 0 -8.726452481e-05 2.550442469e-16 0.01594748037)
(0.001109549726 -6.741350198e-16 -0.001214204816 -1.018366471e-15 0.001223912566 0 -9.430652177e-05 4.194385729e-16 0.01592861456)
(0.00106782351 -3.914688326e-16 -0.001335184253 -8.632101443e-16 0.001210791708 0 -0.0001003513075 5.980547295e-16 0.01590833757)
(0.001021499954 -1.65934699e-16 -0.001451473313 -7.718413197e-16 0.001196346699 0 -0.0001054838701 8.100975152e-16 0.01588684645)
(0.0009707930357 2.902359698e-17 -0.001563088824 -7.040754309e-16 0.001180606206 0 -0.0001097936099 7.439171424e-16 0.01586435858)
(0.0009157730934 2.222733635e-16 -0.001670040982 -6.576426894e-16 0.001163608796 -2.26361719e-14 -0.0001133548707 6.995933139e-16 0.01584101665)
(0.0008564640176 4.015994867e-16 -0.001772198003 -6.417865361e-16 0.001145385586 0 -0.000116114763 5.773312526e-16 0.01581697657)
(0.0007927506147 5.363070977e-16 -0.001869518964 -6.293703162e-16 0.001125968871 0 -0.0001180883869 4.553212629e-16 0.01579237988)
(0.0007249648559 6.642384885e-16 -0.001962043732 -6.246115712e-16 0.001105370907 0 -0.0001193549873 3.650768282e-16 0.0157673843)
(0.0006535296895 7.861334141e-16 -0.002049759461 -6.31215343e-16 0.001083654653 0 -0.0001199171391 3.391245414e-16 0.01574215952)
(0.0005782255234 8.911290853e-16 -0.002132708433 -6.389580664e-16 0.001060868945 0 -0.0001198093629 3.479100133e-16 0.01571683511)
(0.0009761687862 1.963692641e-15 -9.822575277e-05 -5.4859497e-15 0.001592651356 0 -7.390873628e-06 2.288464918e-16 0.01578966281)
(0.001295305328 2.53775656e-15 -0.0002274337745 -3.572788442e-15 0.001395122478 0 -1.922487496e-05 6.440919816e-16 0.01578720679)
(0.001266997518 2.919531379e-15 -0.0003670021181 -3.098761032e-15 0.001332919034 -8.708422084e-14 -3.005152694e-05 1.148925045e-15 0.01578205829)
(0.00128003627 4.043216998e-15 -0.0005048660406 -3.161580964e-15 0.00131819679 0 -4.063546907e-05 -7.934572432e-16 0.01577447645)
(0.001265164133 -8.366663951e-16 -0.0006393032646 -3.480298103e-15 0.001308678886 5.114009338e-14 -5.041386824e-05 -2.517709428e-15 0.01576467066)
(0.001240329143 -4.524447632e-15 -0.000769965077 -1.898485406e-15 0.00129891373 0 -5.923399224e-05 -1.483326483e-15 0.01575286013)
(0.001210117199 -3.293365328e-15 -0.000896773892 -1.096571814e-15 0.001288111461 0 -6.718725535e-05 -8.682146219e-16 0.01573927419)
(0.001175035706 -1.227796339e-15 -0.001019625374 -5.801833612e-16 0.001276131973 0 -7.429132553e-05 -4.148223266e-16 0.01572411662)
(0.001135023799 7.764992251e-17 -0.001138418649 -5.61437039e-16 0.00126286538 0 -8.055199642e-05 -4.316208075e-16 0.01570759288)
(0.001090290835 -6.297495714e-16 -0.001253111527 -4.858970685e-16 0.001248288193 0 -8.600783122e-05 -3.614819861e-16 0.01568989783)
(0.001040963517 1.109744327e-16 -0.001363654203 -3.571627835e-16 0.001232406257 0 -9.068179263e-05 -2.777168636e-16 0.01567118562)
(0.0009871599006 9.076531773e-16 -0.001469965902 -4.242771046e-16 0.001215240736 0 -9.4562576e-05 -2.176987177e-16 0.01565161761)
(0.0009288595901 7.801066701e-16 -0.001572003107 -4.405793156e-16 0.001196820861 0 -9.766015458e-05 -1.624812301e-16 0.01563132424)
(0.0008662256355 8.259856863e-16 -0.001669751824 -4.647949874e-16 0.001177163433 0 -0.0001000050751 -9.576100354e-17 0.01561045138)
(0.0007995267366 7.105169568e-16 -0.001763251495 -4.832139497e-16 0.001156314107 0 -0.0001016483726 -2.408939347e-17 0.01558915096)
(0.0007288163493 5.56996311e-16 -0.00185259043 -4.917356862e-16 0.001134316373 0 -0.000102674755 5.623153317e-17 0.01556756529)
(0.0006541369687 3.972962041e-16 -0.001937685646 -4.938425761e-16 0.001111208547 0 -0.0001030099863 1.494996095e-16 0.01554582351)
(0.0005754798552 2.334353616e-16 -0.002018521065 -4.832300746e-16 0.001087027264 0 -0.000102631711 2.580527159e-16 0.01552404702)
(0.0004925921487 6.704250051e-17 -0.002095153268 -4.676259749e-16 0.001061801341 -9.164574131e-15 -0.0001015867324 3.801905834e-16 0.01550235357)
(0.0004055000826 -8.556802235e-17 -0.002167528963 -4.494648997e-16 0.001035539114 0 -9.983692849e-05 3.153688791e-16 0.01548085491)
(0.0003147461043 -2.088183002e-16 -0.002235686201 -4.245112426e-16 0.001008269614 0 -9.742768233e-05 2.653657621e-16 0.01545967685)
(0.0002203430752 -3.031621292e-16 -0.002299678598 -3.972094756e-16 0.0009800433446 0 -9.442319095e-05 2.291213423e-16 0.01543892438)
(0.0001214040808 -3.852172579e-16 -0.002359322999 -3.69569887e-16 0.0009508833844 0 -9.071117793e-05 2.800392822e-16 0.01541867253)
(1.778146116e-05 -4.812754948e-16 -0.002414455483 -3.45481344e-16 0.0009207710873 0 -8.62738466e-05 2.671382964e-16 0.0153989727)
(-8.925028374e-05 1.470535292e-16 -0.0024651023 -3.166684399e-16 0.0008897224709 0 -8.129454405e-05 2.617124282e-16 0.0153799356)
(-0.0001989094323 7.654701739e-16 -0.002511268463 -3.323420291e-16 0.0008578055133 0 -7.595002178e-05 2.738578715e-16 0.01536166379)
(-0.0003115909266 1.040484775e-15 -0.002552775007 -3.442062481e-16 0.0008250767973 0 -7.031863935e-05 2.938510731e-16 0.01534423464)
(-0.0004265232146 1.340531344e-15 -0.002589368264 -3.716688723e-16 0.0007915667636 0 -6.451784448e-05 2.09168987e-16 0.01532769349)
(-0.0005414408869 9.968218372e-16 -0.00262088687 -3.971713173e-16 0.0007573626347 0 -5.880690783e-05 1.263409052e-16 0.01531212851)
(-0.0006555022556 6.676586186e-16 -0.002647023221 -4.037684947e-16 0.0007225999148 0 -5.335150299e-05 3.170101572e-17 0.01529758099)
(-0.0007693214981 6.516610271e-16 -0.002667173855 -4.10709309e-16 0.0006873805352 0 -4.814779948e-05 -7.578636582e-17 0.01528406714)
(-0.0008831289252 6.350986898e-16 -0.002680527017 -4.161127122e-16 0.000651778601 0 -4.312105981e-05 -9.948609795e-17 0.01527157315)
(-0.0009956021036 6.257296563e-16 -0.002686370141 -4.181301802e-16 0.0006158623655 0 -3.842966316e-05 -9.099372386e-17 0.01526010046)
(-0.001104959088 6.267912388e-16 -0.002683995029 -4.2423142e-16 0.0005797454769 0 -3.430461998e-05 -5.165342904e-17 0.015249668)
(-0.001211657103 6.401103804e-16 -0.002672285041 -4.297325644e-16 0.0005435499151 0 -3.065778977e-05 -6.979743107e-17 0.01524024066)
(-0.001317846603 6.813466525e-16 -0.0026497445 -4.327789466e-16 0.0005073423091 0 -2.719397862e-05 -1.44545629e-16 0.01523174735)
(-0.001424004732 4.623535214e-16 -0.002614859426 -4.380006587e-16 0.0004711366025 0 -2.381087957e-05 -1.566724197e-16 0.01522411867)
(-0.001528315368 2.497774584e-16 -0.002566335139 -4.342748025e-16 0.000434970148 0 -2.074380415e-05 -1.818532554e-16 0.0152173368)
(-0.001630408238 3.120846521e-16 -0.002502605491 -4.308434894e-16 0.0003989170983 0 -1.801605643e-05 -1.706974149e-16 0.01521135941)
(-0.001732107359 3.704945384e-16 -0.00242167432 -4.295395573e-16 0.0003630163794 0 -1.53754173e-05 -1.645921857e-16 0.01520610707)
(-0.001833787262 4.280465988e-16 -0.002321568073 -4.294235848e-16 0.0003272671778 0 -1.278931218e-05 -1.646146163e-16 0.01520151297)
(-0.001933664584 4.87210828e-16 -0.002200475258 -4.304871759e-16 0.0002916905553 0 -1.049206773e-05 -1.711483669e-16 0.0151975518)
(-0.002031319069 5.511907878e-16 -0.002056340898 -4.317919468e-16 0.0002563397002 0 -8.51886057e-06 -1.835905775e-16 0.01519418168)
(-0.002128308986 6.260356836e-16 -0.001886734658 -4.333283629e-16 0.0002212413892 0 -6.65838388e-06 -1.686500446e-16 0.01519132954)
(-0.002224770541 4.624368272e-16 -0.001689287989 -4.36971443e-16 0.0001863938156 0 -4.926672558e-06 -1.562720943e-16 0.01518894959)
(-0.002319686586 2.979393637e-16 -0.001461772333 -4.346980373e-16 0.0001518159727 0 -3.540277455e-06 -1.223917263e-16 0.01518702929)
(-0.002413559827 1.272969114e-16 -0.001201620067 -4.335425706e-16 0.0001175324739 0 -2.407462037e-06 -1.172341095e-16 0.01518552995)
(-0.002500163928 -5.613914283e-17 -0.0009059566184 -4.263391575e-16 8.354454951e-05 0 -1.339199508e-06 -1.15251966e-16 0.01518440206)
(-0.002555313383 -1.380869067e-17 -0.0005720950366 -4.207812004e-16 5.003136384e-05 0 -5.293094791e-07 -1.119199426e-16 0.01518364909)
(-0.002721842036 2.798290853e-18 -0.0001972281088 -4.155806734e-16 1.757845526e-05 0 -5.248797736e-08 -8.366972565e-17 0.01518327515)
(0.001004782065 8.399479314e-17 -9.203342047e-05 -2.833722036e-15 0.001639746542 0 -6.142990646e-06 -6.221692806e-17 0.01556937033)
(0.001332689663 -3.527145998e-16 -0.0002133499072 -1.024188821e-15 0.001436153909 0 -1.59600008e-05 -1.521802095e-16 0.0155671982)
(0.00130242367 4.688474103e-15 -0.0003445330937 -3.6166438e-16 0.001371692733 0 -2.494115985e-05 -1.28670113e-16 0.01556266606)
(0.001314294692 8.415224449e-15 -0.0004742104494 -2.71928551e-15 0.001355984358 0 -3.377228134e-05 9.727863538e-17 0.01555603708)
(0.001297183661 1.957811977e-15 -0.0006008796797 -3.870514021e-15 0.001345495897 0 -4.200231767e-05 5.02592839e-16 0.01554750873)
(0.001270001407 -2.422549287e-15 -0.0007243163105 -2.61340336e-15 0.001334681932 0 -4.955298065e-05 -4.45752668e-16 0.01553728189)
(0.001237496932 -1.178915876e-15 -0.0008443943052 -1.995288486e-15 0.001322825982 0 -5.643919781e-05 -1.151901948e-15 0.01552555981)
(0.001199985673 -7.451123704e-16 -0.0009609584577 -1.649812937e-15 0.001309780344 3.387285108e-14 -6.261807707e-05 -1.850816803e-15 0.01551249181)
(0.001157397006 -8.949441674e-16 -0.001073919515 -1.387939706e-15 0.001295423271 0 -6.809502073e-05 -1.678689662e-15 0.01549823601)
(0.001109969589 -1.033763631e-15 -0.001183183376 -1.14566522e-15 0.001279729434 0 -7.284200212e-05 -1.754902283e-15 0.01548294392)
(0.001057756583 -7.635872321e-16 -0.001288697299 -9.661969335e-16 0.001262704796 2.629596438e-14 -7.685882481e-05 -2.078166223e-15 0.01546675746)
(0.001000920427 -4.51370715e-16 -0.001390435322 -8.436901797e-16 0.001244358635 0 -8.016349126e-05 -1.581065791e-15 0.01544982182)
(0.0009397054849 -3.040753358e-16 -0.001488409236 -7.552343407e-16 0.001224729077 0 -8.27848295e-05 -1.310485786e-15 0.01543228628)
(0.0008743235328 -2.092142549e-16 -0.001582644135 -6.917732616e-16 0.0012038588 0 -8.475084935e-05 -9.795203758e-16 0.01541429405)
(0.0008049263431 -1.522023209e-16 -0.001673150454 -6.387400824e-16 0.001181800457 0 -8.606328691e-05 -7.398259998e-16 0.01539597709)
(0.0007312651822 -1.420297375e-16 -0.001759933105 -5.942786009e-16 0.00115859986 0 -8.671739697e-05 -5.683876865e-16 0.01537745137)
(0.0006532773801 -1.729131063e-16 -0.001842947179 -5.545802948e-16 0.00113426856 0 -8.667601934e-05 -4.468047519e-16 0.01535880963)
(0.0005712971436 -2.283643503e-16 -0.001922243602 -5.211358228e-16 0.001108838589 0 -8.596894533e-05 -3.62657079e-16 0.01534018731)
(0.0004850799862 -2.259219827e-16 -0.001997851573 -4.862700455e-16 0.001082352131 0 -8.460307303e-05 -3.077726611e-16 0.01532170154)
(0.0003946529264 -2.43985638e-16 -0.002069773105 -4.564646872e-16 0.001054813449 0 -8.26014064e-05 -2.892957769e-16 0.0153034395)
(0.0003006010008 -3.559506035e-16 -0.002138034279 -4.24623079e-16 0.00102626178 0 -8.000297518e-05 -2.923846034e-16 0.01528551269)
(0.0002022434152 -4.906782427e-16 -0.00220254164 -3.94902922e-16 0.0009967467756 0 -7.675034126e-05 -3.108261209e-16 0.01526799648)
(9.896792527e-05 -2.426298029e-16 -0.0022630486 -3.565591504e-16 0.000966249771 0 -7.272285677e-05 -3.40617051e-16 0.01525095375)
(-7.930047005e-06 -3.933328662e-18 -0.002319607232 -3.488099101e-16 0.0009347748953 0 -6.812332311e-05 -3.721680427e-16 0.01523447743)
(-0.0001171644767 1.918685492e-16 -0.002372388123 -3.357586035e-16 0.0009023971837 8.28474241e-15 -6.326510034e-05 -4.154884744e-16 0.01521867664)
(-0.0002288169137 3.570348298e-16 -0.002421250106 -3.395149384e-16 0.0008691965269 0 -5.821404532e-05 -3.267557507e-16 0.01520363078)
(-0.0003429066931 8.181071523e-16 -0.002465862331 -3.357421044e-16 0.0008352232565 0 -5.295747034e-05 -2.484403078e-16 0.01518938675)
(-0.0004578467901 1.29686895e-15 -0.00250608298 -3.637669418e-16 0.0008005383752 0 -4.774974543e-05 -1.09908762e-16 0.01517600151)
(-0.0005718377457 1.236484345e-15 -0.002541748024 -3.859037711e-16 0.0007652643776 -7.943024353e-15 -4.286722843e-05 2.72877521e-17 0.01516354198)
(-0.0006848775814 1.256095457e-15 -0.002572307071 -4.100566247e-16 0.0007295335647 0 -3.828515511e-05 5.360133953e-17 0.0151520242)
(-0.0007979629105 9.938936188e-16 -0.002596989123 -4.324121574e-16 0.0006934348948 0 -3.389262642e-05 8.478257506e-17 0.0151414321)
(-0.0009104421014 4.513325687e-16 -0.00261504968 -4.397252382e-16 0.000657022808 0 -2.975471755e-05 1.163782551e-16 0.01513175036)
(-0.001020033217 2.155607478e-16 -0.002625898722 -4.303291426e-16 0.0006203959558 0 -2.616729539e-05 1.451039212e-16 0.01512301082)
(-0.001126525176 2.704161681e-16 -0.002628581235 -4.289485901e-16 0.0005836904099 0 -2.311946963e-05 1.789951916e-16 0.0151151868)
(-0.001232332881 3.120088566e-16 -0.00262163952 -4.260564187e-16 0.0005469857003 0 -2.025658348e-05 1.702303199e-16 0.01510819973)
(-0.001338549631 3.359974588e-16 -0.002603579812 -4.244604113e-16 0.0005102919862 0 -1.740824591e-05 1.664612709e-16 0.01510197048)
(-0.001443297501 3.506846266e-16 -0.002573197472 -4.22251662e-16 0.0004736329903 0 -1.482526327e-05 2.136520201e-16 0.01509648208)
(-0.001545528189 3.695425452e-16 -0.002529119662 -4.203496747e-16 0.000437085382 0 -1.26278079e-05 2.291679585e-16 0.01509170544)
(-0.001647021679 3.938631905e-16 -0.00246945988 -4.196747537e-16 0.0004007009564 0 -1.055418845e-05 2.138337516e-16 0.01508755528)
(-0.001748740546 4.190692262e-16 -0.002392263857 -4.192698074e-16 0.0003644790914 0 -8.483858232e-06 2.058306517e-16 0.01508395662)
(-0.001848949098 4.459574258e-16 -0.002295813192 -4.20063873e-16 0.0003284315658 0 -6.652922907e-06 2.032360999e-16 0.01508088186)
(-0.001946655454 4.73739545e-16 -0.002178244129 -4.211042821e-16 0.000292612754 0 -5.180858095e-06 2.031108836e-16 0.01507829775)
(-0.002043412275 2.479873261e-16 -0.00203724538 -4.214314443e-16 0.0002570595066 0 -3.843498326e-06 2.030834288e-16 0.01507612764)
(-0.002139751637 3.964605992e-18 -0.001870486759 -4.15310617e-16 0.0002217687792 0 -2.578506635e-06 1.910805135e-16 0.01507431259)
(-0.002234050544 -1.633471269e-17 -0.001675851547 -4.093457145e-16 0.000186756525 0 -1.614669694e-06 2.353736903e-16 0.01507283674)
(-0.002327090714 -4.811337937e-17 -0.001450963441 -4.035179493e-16 0.000152064325 0 -9.23207171e-07 2.464097575e-16 0.01507166425)
(-0.002420409377 -9.302122316e-17 -0.001193122373 -3.970856753e-16 0.0001176815801 0 -2.95986615e-07 2.578643535e-16 0.01507073681)
(-0.002505105158 -1.521861625e-16 -0.000899833555 -3.89777995e-16 8.36038953e-05 0 9.511129678e-08 2.415413989e-16 0.01507004679)
(-0.002557717053 -1.904815793e-16 -0.0005684730982 -3.826600874e-16 5.004857937e-05 0 1.480771433e-07 2.258534574e-16 0.01506959833)
(-0.002722420799 -9.765110527e-17 -0.0001960337078 -3.755947165e-16 1.757594447e-05 0 1.345475243e-07 2.101472608e-16 0.01506935854)
(0.001027938511 2.405311776e-15 -8.678458734e-05 -6.302011104e-15 0.001677834343 0 -5.063038083e-06 -1.028424099e-15 0.01536087102)
(0.001363033065 2.655494159e-15 -0.0002014652248 -4.236122292e-15 0.00146935158 0 -1.315600417e-05 -3.030866672e-15 0.01535901955)
(0.001331377907 1.954647732e-15 -0.0003256257349 -3.418053116e-15 0.001403124395 0 -2.058699846e-05 -3.568205483e-15 0.01535516413)
(0.001342583254 1.743445417e-15 -0.0004484458956 -2.958894268e-15 0.001386712064 0 -2.794019686e-05 -9.352197554e-16 0.01534952267)
(0.001324072587 1.621406414e-15 -0.0005685931553 -2.691353057e-15 0.001375558604 0 -3.484815449e-05 7.555463796e-16 0.01534225393)
(0.001295239298 1.702562242e-15 -0.0006859050585 -2.491607396e-15 0.001364059677 0 -4.125162454e-05 5.34630352e-16 0.01533351286)
(0.001260737534 2.149650538e-15 -0.0008001980922 -2.39629131e-15 0.001351468738 0 -4.709730695e-05 3.883842239e-16 0.01532344269)
(0.001221047721 6.74687287e-16 -0.0009112852027 -2.397779992e-15 0.001337609275 0 -5.229917088e-05 2.778691883e-16 0.01531219088)
(0.001176136756 -2.746861304e-16 -0.001019134608 -2.02671146e-15 0.001322392337 -3.120830879e-14 -5.68868189e-05 1.491213408e-16 0.01529989754)
(0.001126192892 1.033237049e-15 -0.00112370011 -1.867919986e-15 0.001305780442 0 -6.085382383e-05 -2.769741933e-17 0.01528670562)
(0.00107151795 -7.5213414e-16 -0.00122496797 -1.858169937e-15 0.001287789799 0 -6.420611705e-05 -1.789775552e-16 0.01527275719)
(0.001012350042 -2.323707728e-15 -0.001322949296 -1.46579046e-15 0.00126845997 0 -6.69602519e-05 -2.253424675e-16 0.01525817961)
(0.0009487192909 -1.835182836e-15 -0.001417654772 -1.244559676e-15 0.001247839827 0 -6.911792672e-05 -2.396141779e-16 0.01524311356)
(0.0008806751038 -1.680994679e-15 -0.001509059487 -1.033156884e-15 0.001225960288 0 -7.064978213e-05 -2.585916772e-16 0.01522767759)
(0.0008083424738 -1.131425542e-15 -0.001597143253 -8.833753665e-16 0.001202863382 0 -7.152358641e-05 -2.744218709e-16 0.01521198367)
(0.0007315831358 -7.818137459e-16 -0.001681872258 -7.861152903e-16 0.001178586513 0 -7.16884733e-05 -2.950808992e-16 0.01519614054)
(0.0006505938886 -5.613853269e-16 -0.001763313262 -7.101433274e-16 0.001153147225 0 -7.119930136e-05 -3.274365574e-16 0.0151802455)
(0.0005655596475 -4.273563645e-16 -0.001841616296 -6.50291447e-16 0.001126596242 0 -7.016710156e-05 -3.750244224e-16 0.01516442845)
(0.0004762028978 -2.864765557e-16 -0.001916670005 -6.023038875e-16 0.001098964081 -9.452247981e-15 -6.847128057e-05 -3.19720627e-16 0.01514879146)
(0.0003827089301 -1.609576483e-16 -0.001988456199 -5.693402673e-16 0.001070266937 0 -6.6124173e-05 -3.808997066e-16 0.01513339685)
(0.0002852162833 -1.016037947e-16 -0.002057002667 -5.412451846e-16 0.001040547033 0 -6.318580567e-05 -4.625283259e-16 0.01511832797)
(0.0001829060976 -5.896277465e-17 -0.002122170685 -5.196439319e-16 0.001009828801 0 -5.958787673e-05 -5.64943634e-16 0.01510366104)
(7.62312419e-05 -6.43370146e-17 -0.002183914701 -4.997570086e-16 0.0009780890157 8.67374876e-15 -5.542346695e-05 -6.884464167e-16 0.01508946468)
(-3.264668542e-05 -7.660323606e-17 -0.002242366457 -4.77185008e-16 0.0009453857803 0 -5.095978269e-05 -6.735852048e-16 0.01507587344)
(-0.0001430830371 -1.111523554e-16 -0.002297541659 -4.621819649e-16 0.0009118406036 8.413765904e-15 -4.637492779e-05 -6.789336615e-16 0.01506296379)
(-0.000255969838 -1.567436772e-16 -0.002349164732 -4.421583944e-16 0.000877530269 0 -4.165519296e-05 -6.303425866e-16 0.01505078313)
(-0.0003705911348 -1.823042207e-16 -0.002396979826 -4.252106783e-16 0.0008424936957 1.643078244e-14 -3.69140919e-05 -6.111924621e-16 0.01503935895)
(-0.0004844680528 -2.314633857e-16 -0.002440889907 -4.051836075e-16 0.0008068312304 0 -3.246721906e-05 -3.777811806e-16 0.01502877945)
(-0.0005968273719 6.271357614e-17 -0.002480538432 -3.899442772e-16 0.0007706997567 0 -2.841716968e-05 -2.284851101e-16 0.01501906379)
(-0.0007090238933 3.359940578e-16 -0.002515162128 -3.871157436e-16 0.0007342068399 0 -2.458819233e-05 -7.874742901e-17 0.01501019516)
(-0.0008211504478 2.78424849e-16 -0.002543979989 -3.827957412e-16 0.0006974045216 -7.959042417e-15 -2.094497026e-05 7.799822234e-17 0.0150021459)
(-0.0009309327349 2.620718635e-16 -0.002566480758 -3.789107257e-16 0.0006603725292 -7.91846088e-15 -1.78123627e-05 1.392187264e-16 0.01499494647)
(-0.001037437427 2.270267829e-16 -0.00258188811 -3.811987833e-16 0.0006232499459 0 -1.528363057e-05 1.110070589e-16 0.0149885908)
(-0.001142952332 4.655806098e-16 -0.002588799925 -3.770972426e-16 0.0005861315199 0 -1.296675441e-05 9.683337563e-17 0.01498299261)
(-0.001249070407 7.159481712e-16 -0.002585732786 -3.829129759e-16 0.0005490294116 0 -1.061525207e-05 1.033332396e-16 0.0149780679)
(-0.001354081858 3.83242909e-16 -0.002571558572 -3.890151119e-16 0.0005119578357 0 -8.478099569e-06 1.207205734e-16 0.01497379619)
(-0.001456495056 4.109330963e-17 -0.002545072005 -3.829841615e-16 0.0004749919942 0 -6.75552088e-06 1.396872323e-16 0.01497016174)
(-0.001557910433 2.536122202e-16 -0.002504495737 -3.772347592e-16 0.0004381935139 0 -5.18899991e-06 1.68821111e-16 0.01496707815)
(-0.001659671138 4.758977297e-16 -0.002447909833 -3.784291533e-16 0.0004015636471 0 -3.590320278e-06 2.189707107e-16 0.0149644613)
(-0.001760162028 4.462184419e-16 -0.002373680033 -3.808272921e-16 0.0003651078577 0 -2.188616081e-06 2.841492119e-16 0.01496228003)
(-0.001857983985 4.477909705e-16 -0.002280101351 -3.805898858e-16 0.000328880509 0 -1.164094837e-06 4.070805775e-16 0.01496050912)
(-0.001954650695 4.88098061e-16 -0.002164976845 -3.815325262e-16 0.0002929271509 0 -2.894260572e-07 4.759496784e-16 0.01495906923)
(-0.00205112872 6.385805048e-16 -0.002026022047 -3.831708955e-16 0.0002572435308 -7.89669428e-15 5.589558438e-07 5.295597663e-16 0.01495789007)
(-0.002145583028 3.620743251e-16 -0.001861227122 -3.90338598e-16 0.0002218394243 0 1.140311283e-06 5.325729169e-16 0.01495695378)
(-0.002237846157 2.542859424e-17 -0.001668374688 -3.831818247e-16 0.0001867634332 0 1.433522037e-06 5.078251969e-16 0.01495622762)
(-0.00233031519 1.130900819e-16 -0.001444877637 -3.795548833e-16 0.0001520250056 0 1.662835467e-06 4.632744022e-16 0.01495564762)
(-0.002421917216 1.665908042e-16 -0.001188366487 -3.763033742e-16 0.0001175996606 0 1.69727569e-06 4.290654698e-16 0.01495519661)
(-0.002503879722 2.074451713e-16 -0.0008964595565 -3.739114563e-16 8.352487993e-05 0 1.400792863e-06 4.026352655e-16 0.01495487487)
(-0.002555675481 2.484154572e-16 -0.0005662547124 -3.717607209e-16 4.999999732e-05 0 9.913540903e-07 3.776889776e-16 0.01495464515)
(-0.002719408149 1.344750942e-16 -0.0001951755659 -3.706543851e-16 1.75500324e-05 0 4.76797786e-07 3.607508824e-16 0.01495449898)
(0.001046804549 1.042749908e-14 -8.243001642e-05 -1.680288688e-14 0.0017088755 0 -4.186652934e-06 2.99336865e-16 0.01516412511)
(0.001387781224 7.719017513e-15 -0.0001915857118 -1.483387303e-14 0.00149640184 0 -1.087340657e-05 8.603094584e-16 0.01516253787)
(0.001355062026 -4.254262398e-15 -0.0003098641081 -1.021342667e-14 0.00142875193 0 -1.70134839e-05 1.384724012e-15 0.01515923888)
(0.001365796571 -6.869300711e-15 -0.0004268874806 -4.579009448e-15 0.001411797759 0 -2.309278147e-05 1.867471788e-15 0.01515440834)
(0.001346136373 -2.864259408e-15 -0.0005414393147 -2.671147448e-15 0.001400133009 0 -2.878783606e-05 2.4754232e-15 0.0151481743)
(0.001315883912 -1.011315522e-15 -0.0006533677021 -1.919811621e-15 0.001388083563 0 -3.401142342e-05 2.287550479e-15 0.01514066053)
(0.001279640399 -1.621771198e-16 -0.0007626003956 -1.576941142e-15 0.00137488734 0 -3.878872044e-05 2.368252095e-15 0.01513197978)
(0.00123803929 2.044122543e-16 -0.0008690305705 -1.390279866e-15 0.001360341742 0 -4.308215859e-05 2.72276728e-15 0.01512229197)
(0.00119127277 3.257388351e-16 -0.0009726129364 -1.26901146e-15 0.001344392585 0 -4.687565949e-05 2.328999104e-15 0.01511173045)
(0.001139494048 3.09313133e-16 -0.001073318357 -1.1816274e-15 0.001327026068 0 -5.015190615e-05 2.267695355e-15 0.01510040859)
(0.001082848404 2.779514561e-17 -0.001171087094 -1.099157853e-15 0.001308263958 -2.712138895e-14 -5.284745696e-05 2.486363999e-15 0.01508845982)
(0.001021478113 -2.323295075e-16 -0.001265948348 -9.975916819e-16 0.001288133098 0 -5.498557411e-05 1.836407074e-15 0.0150759717)
(0.0009554269748 -1.858165778e-16 -0.001357928791 -9.082745783e-16 0.001266674708 -1.203978211e-14 -5.657306683e-05 1.485539467e-15 0.0150630774)
(0.0008847503007 -8.173469187e-17 -0.001446988355 -8.421954892e-16 0.001243915818 0 -5.755172401e-05 1.016477035e-15 0.01504986315)
(0.000809482309 -5.894756121e-18 -0.001533146322 -7.900123909e-16 0.001219895552 0 -5.790932083e-05 7.038633425e-16 0.01503645675)
(0.0007297557647 8.746375489e-17 -0.001616391924 -7.468509834e-16 0.001194639725 0 -5.76066798e-05 4.945351808e-16 0.01502297366)
(0.0006462392055 1.88358866e-16 -0.001696833833 -7.162290142e-16 0.00116819393 0 -5.672772258e-05 3.555854069e-16 0.01500952521)
(0.0005584496773 -2.794144873e-16 -0.00177459622 -6.917525765e-16 0.001140642695 0 -5.535393479e-05 2.689176144e-16 0.01499619693)
(0.000465709831 -1.854089118e-16 -0.001849445003 -6.210584033e-16 0.0011119712 0 -5.327769906e-05 2.166386963e-16 0.01498304041)
(0.0003688762034 4.498494381e-16 -0.001921343139 -6.147734016e-16 0.00108219149 0 -5.050904209e-05 2.284011525e-17 0.01497014267)
(0.0002681230923 5.565806079e-16 -0.001990422993 -6.122388869e-16 0.001051367838 0 -4.721710614e-05 -1.301623487e-16 0.01495758713)
(0.0001629571105 6.517542703e-16 -0.002056563009 -6.087584787e-16 0.001019521958 0 -4.336671474e-05 -2.576792867e-16 0.01494545244)
(5.449820562e-05 3.005244198e-16 -0.002119869794 -6.107685134e-16 0.0009866704678 0 -3.919864353e-05 -3.664544156e-16 0.01493381831)
(-5.543349511e-05 -5.227127642e-17 -0.00218048647 -5.861955092e-16 0.0009529101413 0 -3.500580191e-05 -4.679951341e-16 0.01492279932)
(-0.0001669365602 -4.782010531e-17 -0.00223818947 -5.695141686e-16 0.0009183662359 8.544798661e-15 -3.076473706e-05 -5.610135024e-16 0.01491245381)
(-0.0002803731487 -1.381740064e-17 -0.002292615128 -5.479165606e-16 0.0008830989051 0 -2.643261218e-05 -5.713570272e-16 0.01490280014)
(-0.0003939011069 -6.107359635e-16 -0.002343696888 -5.357170387e-16 0.0008471822593 0 -2.233198786e-05 -5.811323606e-16 0.01489389848)
(-0.0005058920419 -8.654575281e-16 -0.002391277232 -4.841103309e-16 0.0008107626077 0 -1.872202494e-05 -5.961026453e-16 0.01488580311)
(-0.0006172439957 -4.913571785e-16 -0.002434634891 -4.580197998e-16 0.0007739743825 0 -1.539356739e-05 -6.11328665e-16 0.01487849243)
(-0.0007287554179 -5.442230122e-16 -0.002472956142 -4.308705262e-16 0.0007368780887 0 -1.221276333e-05 -5.750732848e-16 0.01487193187)
(-0.0008384811255 -3.009762184e-16 -0.002505752773 -4.084911259e-16 0.0006995389045 0 -9.473673172e-06 -5.514765955e-16 0.01486614246)
(-0.0009449287915 2.58031546e-16 -0.002532415153 -3.985550121e-16 0.000662092548 0 -7.371207113e-06 -5.371360976e-16 0.01486113885)
(-0.001050133327 4.754338932e-16 -0.00255164483 -4.027772622e-16 0.0006246484618 0 -5.532527139e-06 -5.283959713e-16 0.01485683075)
(-0.001156087012 3.194290701e-16 -0.002561977373 -4.014850997e-16 0.0005872211784 7.982927031e-15 -3.64608359e-06 -5.302344731e-16 0.01485312592)
(-0.001261277517 1.642622671e-16 -0.002562331273 -3.976260326e-16 0.0005498172933 0 -1.925366238e-06 -4.368197455e-16 0.01485000174)
(-0.001363898228 9.961393863e-17 -0.002551628529 -3.902200012e-16 0.000512509207 -7.951945896e-15 -6.173940317e-07 -3.482725882e-16 0.01484745353)
(-0.001465322995 2.545446927e-17 -0.002528214189 -3.860387697e-16 0.0004753665241 0 5.076587847e-07 -3.583819078e-16 0.0148453961)
(-0.001567135 -1.70859259e-16 -0.002490224303 -3.801999747e-16 0.0004383934796 7.945403554e-15 1.680886664e-06 -3.745406614e-16 0.01484373734)
(-0.001667876753 -4.014753219e-16 -0.002436100704 -3.64912428e-16 0.0004015915188 0 2.689273609e-06 -3.091071395e-16 0.01484244478)
(-0.001765915667 -9.078167087e-16 -0.00236426483 -3.508032466e-16 0.0003650143091 0 3.318661204e-06 -2.463896802e-16 0.01484149863)
(-0.001862661903 -9.2082651e-16 -0.002272631365 -3.242069936e-16 0.0003287133375 0 3.788427702e-06 -1.883995898e-16 0.0148408191)
(-0.001959337821 -4.174617691e-16 -0.00215897328 -3.093938902e-16 0.0002926848197 0 4.265057356e-06 -1.18646806e-16 0.01484032762)
(-0.002054122772 -1.612786085e-16 -0.002021384754 -3.005419958e-16 0.0002569344817 0 4.496564833e-06 -2.871507611e-17 0.01484000595)
(-0.002146429337 1.768928452e-16 -0.001857784948 -2.942430375e-16 0.0002215129666 -8.048210227e-15 4.429022437e-06 5.183384324e-17 0.01483982397)
(-0.00223813144 5.207962895e-16 -0.001665680337 -2.969175025e-16 0.0001864383747 0 4.30073551e-06 3.233182877e-17 0.01483971284)
(-0.00232919129 5.719814769e-16 -0.001442783531 -3.017336098e-16 0.0001516997503 0 4.006353742e-06 3.667745148e-17 0.01483964883)
(-0.002418298295 3.95479603e-16 -0.001186877609 -3.037392896e-16 0.0001173138742 0 3.400127458e-06 5.283144745e-17 0.01483962876)
(-0.002499316104 2.721605583e-16 -0.0008952941851 -3.038878155e-16 8.330423604e-05 0 2.672734234e-06 7.767791306e-17 0.0148396134)
(-0.002549995256 1.633728952e-16 -0.0005653247176 -3.03148154e-16 4.983932022e-05 -8.250464045e-15 1.836537179e-06 1.100496083e-16 0.01483958905)
(-0.002709953091 4.735416863e-17 -0.0001947995115 -3.005460597e-16 1.747650358e-05 -4.151019299e-15 7.724545657e-07 1.498756143e-16 0.01483957243)
(0.001062127277 -3.151866135e-16 -7.867917961e-05 -2.471813482e-15 0.001734121306 0 -3.39437213e-06 1.389886377e-15 0.01497784189)