/*--------------------------------*- C++ -*----------------------------------*\
  =========                 |
  \\      /  F ield         | OpenFOAM: The Open Source CFD Toolbox
   \\    /   O peration     | Website:  https://openfoam.org
    \\  /    A nd           | Version:  7
     \\/     M anipulation  |
\*---------------------------------------------------------------------------*/
FoamFile
{
    version     2.0;
    format      ascii;
    class       surfaceScalarField;
    location    "0.0027";
    object      phi;
}
// * * * * * * * * * * * * * * * * * * * * * * * * * * * * * * * * * * * * * //

dimensions      [1 0 -1 0 0 0 0];

internalField   nonuniform List<scalar> 
2260
(
-6.188519821e-13
6.481496683e-11
-2.421346567e-12
1.8950356e-10
-5.313180087e-12
3.067555115e-10
-9.189375782e-12
4.165870684e-10
-1.393689245e-11
5.190859107e-10
-1.943806349e-11
6.143753214e-10
-2.557317579e-11
7.026082456e-10
-3.22231218e-11
7.839672349e-10
-3.927103132e-11
8.586576682e-10
-4.660431181e-11
9.26902944e-10
-5.411563623e-11
9.88939663e-10
-6.170398109e-11
1.045013798e-09
-6.92753307e-11
1.095376782e-09
-7.674308986e-11
1.140282291e-09
-8.402814738e-11
1.179983151e-09
-9.105895377e-11
1.214729002e-09
-9.777135129e-11
1.244764064e-09
-1.041082694e-10
1.270325432e-09
-1.10019424e-10
1.291641833e-09
-1.15460898e-10
1.308932388e-09
-1.203948627e-10
1.322406185e-09
-1.247889447e-10
1.332261275e-09
-1.286161483e-10
1.338684851e-09
-1.318541752e-10
1.34185252e-09
-1.344853835e-10
1.341928464e-09
-1.364962997e-10
1.339065142e-09
-1.378771963e-10
1.333402717e-09
-1.386219795e-10
1.325068734e-09
-1.387278059e-10
1.31417739e-09
-1.381945379e-10
1.300828189e-09
-1.370242919e-10
1.285104109e-09
-1.352208365e-10
1.267069064e-09
-1.327887095e-10
1.246764235e-09
-1.297321327e-10
1.224202571e-09
1.199360949e-09
-6.217406103e-13
6.543670744e-11
-2.432755883e-12
1.913145751e-10
-5.338914179e-12
3.096616697e-10
-9.23558706e-12
4.204837412e-10
-1.401020482e-11
5.238605285e-10
-1.954553444e-11
6.199106512e-10
-2.572245336e-11
7.087851646e-10
-3.242216995e-11
7.906669516e-10
-3.952817667e-11
8.65763675e-10
-4.692777802e-11
9.343025451e-10
-5.451351863e-11
9.965254035e-10
-6.21839491e-11
1.052684228e-09
-6.984432324e-11
1.103037156e-09
-7.740698609e-11
1.147844954e-09
-8.47915688e-11
1.187367733e-09
-9.19249378e-11
1.22186237e-09
-9.874117556e-11
1.251580302e-09
-1.051812824e-10
1.276765539e-09
-1.111929321e-10
1.297653483e-09
-1.167300999e-10
1.314469556e-09
-1.217526624e-10
1.327428747e-09
-1.262262704e-10
1.336734884e-09
-1.301216935e-10
1.342580275e-09
-1.334148105e-10
1.345145636e-09
-1.360861459e-10
1.344599799e-09
-1.381205104e-10
1.341099507e-09
-1.39506828e-10
1.334789035e-09
-1.402377254e-10
1.325799631e-09
-1.403092548e-10
1.31424892e-09
-1.397203246e-10
1.300239259e-09
-1.384721675e-10
1.283855952e-09
-1.365677884e-10
1.265164686e-09
-1.340109974e-10
1.244207444e-09
-1.308052858e-10
1.220996859e-09
-1.269520894e-10
1.195507752e-09
-1.224486822e-10
1.167665105e-09
-1.172851196e-10
1.137326261e-09
-1.114403923e-10
1.104255065e-09
-1.048785524e-10
1.06808616e-09
-9.754594239e-11
1.028277498e-09
-8.937326842e-11
9.840552985e-10
-8.028720075e-11
9.343596281e-10
-7.023718165e-11
8.778029734e-10
-5.923892521e-11
8.126502174e-10
-4.743402846e-11
7.368183999e-10
-3.516262952e-11
6.478872616e-10
-2.30466736e-11
5.431105678e-10
-1.208148498e-11
4.194405043e-10
-3.729967911e-12
2.736110889e-10
1.02301802e-10
-6.195037762e-13
6.605621122e-11
-2.42414868e-12
1.931192201e-10
-5.320856437e-12
3.125583775e-10
-9.206340986e-12
4.243692258e-10
-1.396956149e-11
5.286237491e-10
-1.949495119e-11
6.254360409e-10
-2.566512649e-11
7.1495534e-10
-3.236272973e-11
7.973645547e-10
-3.947269417e-11
8.728736392e-10
-4.688342394e-11
9.417132749e-10
-5.44881353e-11
1.004130115e-09
-6.218581326e-11
1.060381906e-09
-6.98817343e-11
1.110733077e-09
-7.748783935e-11
1.155451059e-09
-8.492300753e-11
1.194802901e-09
-9.211302387e-11
1.229052387e-09
-9.899056098e-11
1.258457839e-09
-1.054949849e-10
1.283269963e-09
-1.115720463e-10
1.303730544e-09
-1.171738074e-10
1.320071317e-09
-1.222581071e-10
1.332513047e-09
-1.267884967e-10
1.341265273e-09
-1.307338168e-10
1.346525595e-09
-1.340680537e-10
1.348479874e-09
-1.367699455e-10
1.347301691e-09
-1.388227463e-10
1.343152307e-09
-1.402139822e-10
1.336180271e-09
-1.409350593e-10
1.326520708e-09
-1.409808842e-10
1.314294745e-09
-1.403493573e-10
1.299607733e-09
-1.390409622e-10
1.282547557e-09
-1.370579737e-10
1.263181697e-09
-1.344034515e-10
1.241552922e-09
-1.3108018e-10
1.217673588e-09
-1.270889235e-10
1.191516496e-09
-1.224263543e-10
1.163002536e-09
-1.170822031e-10
1.13198211e-09
-1.11035941e-10
1.098208803e-09
-1.042536985e-10
1.061303918e-09
-9.668720403e-11
1.020711004e-09
-8.827826672e-11
9.756463611e-10
-7.897294488e-11
9.250543063e-10
-6.874909614e-11
8.675791245e-10
-5.765778485e-11
8.01558906e-10
-4.587661993e-11
7.250372349e-10
-3.377199063e-11
6.357826321e-10
-2.196794935e-11
5.313065263e-10
-1.141997483e-11
4.088925297e-10
-3.489102849e-12
2.656802169e-10
9.881269914e-11
-6.12586178e-13
6.666879742e-11
-2.397258916e-12
1.949038929e-10
-5.262788707e-12
3.154239073e-10
-9.108139845e-12
4.282145769e-10
-1.382481329e-11
5.333404225e-10
-1.93000514e-11
6.309112788e-10
-2.541911462e-11
7.210744031e-10
-3.206731987e-11
8.0401276e-10
-3.913185113e-11
8.799381706e-10
-4.650323067e-11
9.490846545e-10
-5.407629242e-11
1.011703177e-09
-6.175110073e-11
1.068056715e-09
-6.943360406e-11
1.11841558e-09
-7.70359795e-11
1.163053434e-09
-8.447683186e-11
1.202243754e-09
-9.168128369e-11
1.236256839e-09
-9.858090631e-11
1.265357462e-09
-1.051136167e-10
1.289802674e-09
-1.112236469e-10
1.309840574e-09
-1.168611407e-10
1.325708811e-09
-1.219821919e-10
1.337634098e-09
-1.265482883e-10
1.345831369e-09
-1.305265347e-10
1.350503841e-09
-1.338890042e-10
1.351842344e-09
-1.366127769e-10
1.350025464e-09
-1.386796565e-10
1.345219187e-09
-1.400757049e-10
1.337576319e-09
-1.407910926e-10
1.327236096e-09
-1.408196386e-10
1.314323291e-09
-1.401583382e-10
1.298946432e-09
-1.388068212e-10
1.28119604e-09
-1.367665833e-10
1.261141459e-09
-1.340400423e-10
1.23882638e-09
-1.306292982e-10
1.214262844e-09
-1.265345182e-10
1.187421716e-09
-1.21751982e-10
1.15822e-09
-1.162713602e-10
1.126501488e-09
-1.100731235e-10
1.092010566e-09
-1.031262662e-10
1.054357061e-09
-9.538888973e-11
1.012973627e-09
-8.681456144e-11
9.670720328e-10
-7.736821675e-11
9.156079616e-10
-6.705362966e-11
8.572645374e-10
-5.59519536e-11
7.904572299e-10
-4.426891132e-11
7.133541925e-10
-3.238787887e-11
6.239015997e-10
-2.092695954e-11
5.198456071e-10
-1.079872672e-11
3.987642969e-10
-3.268897594e-12
2.581503878e-10
9.554380153e-11
-6.014861909e-13
6.727028361e-11
-2.354030671e-12
1.966564374e-10
-5.168953405e-12
3.1823883e-10
-8.948277744e-12
4.319939012e-10
-1.35870077e-11
5.379791524e-10
-1.897607033e-11
6.363003416e-10
-2.500430232e-11
7.271026351e-10
-3.156064421e-11
8.105691021e-10
-3.853545587e-11
8.869129824e-10
-4.582204562e-11
9.563712443e-10
-5.33176665e-11
1.019198798e-09
-6.092421425e-11
1.075663263e-09
-6.854890304e-11
1.126040269e-09
-7.610457897e-11
1.170609111e-09
-8.35100354e-11
1.20964921e-09
-9.069005397e-11
1.243436857e-09
-9.757549673e-11
1.272242905e-09
-1.041032076e-10
1.296330384e-09
-1.102159369e-10
1.315953304e-09
-1.158623194e-10
1.331355194e-09
-1.209966101e-10
1.342768389e-09
-1.255787087e-10
1.350413469e-09
-1.295738103e-10
1.354498943e-09
-1.329523466e-10
1.355220879e-09
-1.356898746e-10
1.352762992e-09
-1.377666352e-10
1.347295948e-09
-1.391673e-10
1.338976984e-09
-1.398809263e-10
1.327949723e-09
-1.399002278e-10
1.314342592e-09
-1.392212697e-10
1.298267474e-09
-1.378428466e-10
1.279817617e-09
-1.357655774e-10
1.25906419e-09
-1.329912598e-10
1.236052063e-09
-1.29521327e-10
1.210792911e-09
-1.253555373e-10
1.183255927e-09
-1.204898452e-10
1.153354308e-09
-1.149142775e-10
1.12092592e-09
-1.086107031e-10
1.085706992e-09
-1.015516133e-10
1.047297971e-09
-9.370209071e-11
1.005124105e-09
-8.502780644e-11
9.583977486e-10
-7.551165798e-11
9.060918131e-10
-6.518059581e-11
8.469334753e-10
-5.414087949e-11
7.794175138e-10
-4.261957373e-11
7.018328869e-10
-3.100958933e-11
6.122916153e-10
-1.991711772e-11
5.087531355e-10
-1.021015798e-11
3.890573372e-10
-3.065234878e-12
2.510054647e-10
9.247856662e-11
-5.867435314e-13
6.785702714e-11
-2.296566928e-12
1.983662608e-10
-5.043942916e-12
3.209862061e-10
-8.734683999e-12
4.356846423e-10
-1.32680639e-11
5.425125324e-10
-1.853938467e-11
6.415716624e-10
-2.444199777e-11
7.330052483e-10
-3.086906917e-11
8.169961732e-10
-3.771501021e-11
8.937589234e-10
-4.487662762e-11
9.635328618e-10
-5.225408514e-11
1.026576255e-09
-5.975176426e-11
1.083160942e-09
-6.727862678e-11
1.133567132e-09
-7.474870319e-11
1.178079187e-09
-8.208135593e-11
1.216981863e-09
-8.920143395e-11
1.250556935e-09
-9.60393325e-11
1.279080803e-09
-1.025310837e-10
1.302822135e-09
-1.086183427e-10
1.322040563e-09
-1.14248338e-10
1.336985189e-09
-1.193738401e-10
1.347893891e-09
-1.239531394e-10
1.354992768e-09
-1.279497792e-10
1.358495583e-09
-1.31332769e-10
1.358603869e-09
-1.340760316e-10
1.355506255e-09
-1.361583363e-10
1.349378253e-09
-1.375632456e-10
1.340381894e-09
-1.382785779e-10
1.328665055e-09
-1.382959665e-10
1.314359981e-09
-1.376105176e-10
1.297582025e-09
-1.362201057e-10
1.278427205e-09
-1.341246391e-10
1.256968723e-09
-1.313250992e-10
1.233252523e-09
-1.27822374e-10
1.207290185e-09
-1.236157736e-10
1.179049326e-09
-1.187012545e-10
1.148439789e-09
-1.130694471e-10
1.115294113e-09
-1.067040445e-10
1.079341589e-09
-9.958153839e-11
1.040175465e-09
-9.167445515e-11
9.972170212e-10
-8.296031953e-11
9.49683613e-10
-7.343885725e-11
8.965703508e-10
-6.315735554e-11
8.366519735e-10
-5.224265741e-11
7.685028156e-10
-4.093731751e-11
6.905275471e-10
-2.96378651e-11
6.00992163e-10
-1.893415271e-11
4.980494231e-10
-9.648958425e-12
3.797721428e-10
-2.875168633e-12
2.442316749e-10
8.960339798e-11
-5.689240069e-13
6.842595115e-11
-2.227087422e-12
2.000244241e-10
-4.892625859e-12
3.236517445e-10
-8.475712219e-12
4.392677287e-10
-1.288045059e-11
5.469172707e-10
-1.800716026e-11
6.466983719e-10
-2.375438938e-11
7.387524772e-10
-3.002010134e-11
8.232618852e-10
-3.670330743e-11
9.004421296e-10
-4.370490316e-11
9.705344576e-10
-5.092860752e-11
1.033799959e-09
-5.82816153e-11
1.090513949e-09
-6.567513495e-11
1.140960651e-09
-7.302479088e-11
1.185428843e-09
-8.025085482e-11
1.224207927e-09
-8.727860934e-11
1.25758469e-09
-9.403833105e-11
1.285840525e-09
-1.00465565e-10
1.30924937e-09
-1.065010772e-10
1.328076075e-09
-1.120910008e-10
1.342575113e-09
-1.171868269e-10
1.352989717e-09
-1.217453841e-10
1.359551325e-09
-1.257289061e-10
1.362479105e-09
-1.291048753e-10
1.361979838e-09
-1.318458222e-10
1.358247202e-09
-1.33929279e-10
1.351461709e-09
-1.353375946e-10
1.341790209e-09
-1.36057363e-10
1.329384823e-09
-1.360791853e-10
1.314381803e-09
-1.353972007e-10
1.296900041e-09
-1.340083278e-10
1.277038332e-09
-1.31911711e-10
1.254872107e-09
-1.291076219e-10
1.230448434e-09
-1.255963492e-10
1.203778913e-09
-1.213769005e-10
1.174829878e-09
-1.164452925e-10
1.143508181e-09
-1.107930393e-10
1.10964186e-09
-1.044060645e-10
1.072954614e-09
-9.726526289e-11
1.033034663e-09
-8.935071427e-11
9.893024727e-10
-8.065151258e-11
9.409844112e-10
-7.118274364e-11
8.871015818e-10
-6.100920049e-11
8.264784304e-10
-5.027420455e-11
7.577678197e-10
-3.923087375e-11
6.794842163e-10
-2.827461104e-11
5.900359002e-10
-1.79756642e-11
4.877504762e-10
-9.111521221e-12
3.709079999e-10
-2.696642025e-12
2.378167956e-10
8.690675594e-11
-5.486193822e-13
6.897457056e-11
-2.14789796e-12
2.016237028e-10
-4.720016148e-12
3.262238626e-10
-8.179923661e-12
4.427276362e-10
-1.243693849e-11
5.511742856e-10
-1.739697941e-11
6.51658413e-10
-2.296411859e-11
7.443196166e-10
-2.904176346e-11
8.293395303e-10
-3.553379009e-11
9.069341564e-10
-4.234565244e-11
9.7734632e-10
-4.93850107e-11
1.040839318e-09
-5.656232082e-11
1.09769126e-09
-6.379140096e-11
1.148189731e-09
-7.098980319e-11
1.192627245e-09
-7.807912827e-11
1.231297252e-09
-8.49853796e-11
1.264490941e-09
-9.163906442e-11
1.29249421e-09
-9.797550517e-11
1.31558581e-09
-1.03934897e-10
1.334035467e-09
-1.094625535e-10
1.348102769e-09
-1.145088889e-10
1.358036052e-09
-1.190296327e-10
1.364072068e-09
-1.229857647e-10
1.366435237e-09
-1.263434297e-10
1.365337504e-09
-1.290740184e-10
1.36097779e-09
-1.31153845e-10
1.353541536e-09
-1.325640085e-10
1.343200373e-09
-1.332900058e-10
1.33011082e-09
-1.333214107e-10
1.314413208e-09
-1.326513815e-10
1.296230012e-09
-1.312759479e-10
1.275662898e-09
-1.29193417e-10
1.252789576e-09
-1.264033499e-10
1.227658367e-09
-1.229055177e-10
1.20028108e-09
-1.186986526e-10
1.170623012e-09
-1.137790262e-10
1.138588554e-09
-1.081392548e-10
1.104002089e-09
-1.017677138e-10
1.066583073e-09
-9.464994382e-11
1.025916893e-09
-8.677362239e-11
9.814261514e-10
-7.813876021e-11
9.323495492e-10
-6.877426832e-11
8.777370901e-10
-5.875981997e-11
8.164639821e-10
-4.82514709e-11
7.472594706e-10
-3.750880822e-11
6.687415536e-10
-2.692226526e-11
5.794493572e-10
-1.704018264e-11
4.778683936e-10
-8.595222182e-12
3.624630394e-10
-2.528074745e-12
2.317496483e-10
8.437868119e-11
-5.264282385e-13
6.95009988e-11
-2.061321302e-12
2.031585958e-10
-4.531150452e-12
3.286936918e-10
-7.855873586e-12
4.460523593e-10
-1.195037635e-11
5.552687883e-10
-1.672648782e-11
6.564345246e-10
-2.209399375e-11
7.496871227e-10
-2.79620515e-11
8.352075878e-10
-3.423984262e-11
9.132119472e-10
-4.08375728e-11
9.839440502e-10
-4.766711068e-11
1.047668856e-09
-5.464250215e-11
1.104666651e-09
-6.168050911e-11
1.155227738e-09
-6.870092784e-11
1.199647664e-09
-7.562703441e-11
1.238223358e-09
-8.238579419e-11
1.271249701e-09
-8.890830191e-11
1.299016717e-09
-9.512995881e-11
1.321807467e-09
-1.009907686e-10
1.339896277e-09
-1.064354099e-10
1.35354741e-09
-1.114136515e-10
1.363014294e-09
-1.15880174e-10
1.368538591e-09
-1.197950386e-10
1.370350101e-09
-1.231233387e-10
1.368665803e-09
-1.258352375e-10
1.363689689e-09
-1.279060097e-10
1.355612308e-09
-1.29315622e-10
1.344609985e-09
-1.300485427e-10
1.330843741e-09
-1.300933867e-10
1.314458052e-09
-1.294422567e-10
1.295578881e-09
-1.280903731e-10
1.274311015e-09
-1.260351779e-10
1.25073438e-09
-1.232755067e-10
1.224898696e-09
-1.198106864e-10
1.19681626e-09
-1.156392468e-10
1.166451573e-09
-1.107578413e-10
1.133707149e-09
-1.051603606e-10
1.098404608e-09
-9.883786491e-11
1.060260578e-09
-9.178065115e-11
1.018859679e-09
-8.39837727e-11
9.736292727e-10
-7.545742198e-11
9.238231984e-10
-6.624273873e-11
8.685224069e-10
-5.643176666e-11
8.0665301e-10
-4.619005034e-11
7.370177543e-10
-3.578003671e-11
6.583315399e-10
-2.558420414e-11
5.692535247e-10
-1.612742769e-11
4.684116172e-10
-8.0983432e-12
3.544339549e-10
-2.36832408e-12
2.260196291e-10
8.201035709e-11
-5.029338027e-13
7.000393259e-11
-1.969629772e-12
2.046252918e-10
-4.330960014e-12
3.31055022e-10
-7.512027671e-12
4.49233427e-10
-1.143348151e-11
5.591902422e-10
-1.601304972e-11
6.610140926e-10
-2.116653212e-11
7.548406048e-10
-2.680876854e-11
8.408498243e-10
-3.285450669e-11
9.192576854e-10
-3.92189141e-11
9.903084574e-10
-4.581825492e-11
1.054268196e-09
-5.257039189e-11
1.111418788e-09
-5.939518042e-11
1.162052526e-09
-6.621497004e-11
1.206467453e-09
-7.295493552e-11
1.244963324e-09
-7.954345532e-11
1.27783822e-09
-8.59124766e-11
1.305385739e-09
-9.199779329e-11
1.327892784e-09
-9.773945575e-11
1.345637939e-09
-1.030819686e-10
1.358889924e-09
-1.079745243e-10
1.36790685e-09
-1.123712976e-10
1.372935364e-09
-1.162314316e-10
1.374210235e-09
-1.195191603e-10
1.371953532e-09
-1.222036973e-10
1.366374226e-09
-1.242593834e-10
1.357667994e-09
-1.256652315e-10
1.346015833e-09
-1.264047069e-10
1.331583217e-09
-1.264654055e-10
1.31451875e-09
-1.25838544e-10
1.29495202e-09
-1.245184096e-10
1.27299088e-09
-1.22501658e-10
1.248717629e-09
-1.197864955e-10
1.222183533e-09
-1.163717346e-10
1.193401499e-09
-1.122558579e-10
1.162335696e-09
-1.07435986e-10
1.128887277e-09
-1.019074217e-10
1.092876043e-09
-9.566403316e-11
1.054017189e-09
-8.870090554e-11
1.011896552e-09
-8.102011338e-11
9.659484807e-10
-7.264118265e-11
9.154442675e-10
-6.361586521e-11
8.594970892e-10
-5.404626112e-11
7.970834058e-10
-4.410457068e-11
7.270760638e-10
-3.405318724e-11
6.482801564e-10
-2.426418416e-11
5.594645216e-10
-1.523781389e-11
4.593852469e-10
-7.619875683e-12
3.468160168e-10
-2.216592735e-12
2.206163462e-10
7.979376434e-11
-4.78698684e-13
7.048263128e-11
-1.875012291e-12
2.060216055e-10
-4.124235076e-12
3.333042449e-10
-7.156647627e-12
4.522658396e-10
-1.089858591e-11
5.629321805e-10
-1.527359786e-11
6.653891046e-10
-2.020355192e-11
7.59770559e-10
-2.560901577e-11
8.462552883e-10
-3.141015204e-11
9.250588219e-10
-3.752720723e-11
9.964255127e-10
-4.388095719e-11
1.060621946e-09
-5.039317198e-11
1.117931003e-09
-5.698706042e-11
1.168646415e-09
-6.358769627e-11
1.213068089e-09
-7.012244904e-11
1.251498077e-09
-7.652131682e-11
1.284237088e-09
-8.271737685e-11
1.311581799e-09
-8.864723417e-11
1.333822641e-09
-9.425126127e-11
1.351241966e-09
-9.947403218e-11
1.364112695e-09
-1.042645953e-10
1.372697413e-09
-1.085767491e-10
1.377247518e-09
-1.123690153e-10
1.378002502e-09
-1.156050193e-10
1.375189536e-09
-1.182533382e-10
1.369022545e-09
-1.202873755e-10
1.359702032e-09
-1.216852572e-10
1.347413715e-09
-1.224295594e-10
1.332327519e-09
-1.225070079e-10
1.314596199e-09
-1.219079186e-10
1.29435293e-09
-1.20625746e-10
1.271708708e-09
-1.186563443e-10
1.246748227e-09
-1.159973064e-10
1.219524495e-09
-1.126470689e-10
1.190051261e-09
-1.086040453e-10
1.158292673e-09
-1.038659907e-10
1.124149223e-09
-9.842970572e-11
1.087439759e-09
-9.229194755e-11
1.047879431e-09
-8.545240617e-11
1.00505701e-09
-7.79198452e-11
9.584159198e-10
-6.97221308e-11
9.072465533e-10
-6.092005397e-11
8.506950126e-10
-5.162355341e-11
7.877869053e-10
-4.200907734e-11
7.174615877e-10
-3.233664148e-11
6.386077207e-10
-2.296600812e-11
5.500938884e-10
-1.437215394e-11
4.507913927e-10
-7.159274365e-12
3.396031371e-10
-2.072333413e-12
2.155294052e-10
7.772143092e-11
-4.542609718e-13
7.093689228e-11
-1.779575134e-12
2.073469195e-10
-3.915588335e-12
3.35440258e-10
-6.797619314e-12
4.551478705e-10
-1.035743804e-11
5.664919992e-10
-1.45243813e-11
6.69556048e-10
-1.922601998e-11
7.644721978e-10
-2.438866311e-11
8.514179312e-10
-2.993778062e-11
9.30607939e-10
-3.579855046e-11
1.002286283e-09
-4.189624549e-11
1.066719641e-09
-4.815664662e-11
1.124191404e-09
-5.450641475e-11
1.174996183e-09
-6.087352488e-11
1.219435199e-09
-6.718769028e-11
1.257812242e-09
-7.338079446e-11
1.290430193e-09
-7.938742805e-11
1.317588432e-09
-8.514517329e-11
1.339580386e-09
-9.059510608e-11
1.356691899e-09
-9.568222376e-11
1.369199812e-09
-1.003556438e-10
1.377370833e-09
-1.045690693e-10
1.381460944e-09
-1.082808649e-10
1.381714297e-09
-1.114540794e-10
1.378362751e-09
-1.140567883e-10
1.371625254e-09
-1.160617569e-10
1.361707e-09
-1.174463589e-10
1.348798317e-09
-1.181924511e-10
1.333073611e-09
-1.182859185e-10
1.314689667e-09
-1.177162585e-10
1.293783271e-09
-1.164761293e-10
1.270468578e-09
-1.14560691e-10
1.244832789e-09
-1.119669296e-10
1.216930734e-09
-1.086929502e-10
1.186777282e-09
-1.04737255e-10
1.154336977e-09
-1.000982457e-10
1.119510213e-09
-9.477430686e-11
1.08211582e-09
-8.876504628e-11
1.04187017e-09
-8.207459123e-11
9.983665553e-10
-7.471779163e-11
9.5105912e-10
-6.673001753e-11
8.99258779e-10
-5.817954024e-11
8.421445352e-10
-4.918225909e-11
7.787896242e-10
-3.99166027e-11
7.081959313e-10
-3.063820505e-11
6.293293229e-10
-2.169329302e-11
5.411489762e-10
-1.353125093e-11
4.426293506e-10
-6.716025445e-12
3.327879117e-10
-1.9350039e-12
2.107483836e-10
7.578642701e-11
-4.301421366e-13
7.136703442e-11
-1.685351268e-12
2.086021287e-10
-3.709432542e-12
3.374643393e-10
-6.442449077e-12
4.578808871e-10
-9.821333872e-12
5.69870884e-10
-1.378094739e-11
6.735156613e-10
-1.825421351e-11
7.689454636e-10
-2.31728276e-11
8.563365454e-10
-2.846744014e-11
9.359025518e-10
-3.406800048e-11
1.007886843e-09
-3.99041773e-11
1.072555818e-09
-4.590566554e-11
1.130192892e-09
-5.20026039e-11
1.181093122e-09
-5.812598963e-11
1.225558585e-09
-6.420808174e-11
1.263894334e-09
-7.018291629e-11
1.296405027e-09
-7.598668749e-11
1.323392204e-09
-8.155839194e-11
1.345152091e-09
-8.684006163e-11
1.361973568e-09
-9.177735446e-11
1.374137105e-09
-9.631988877e-11
1.381913368e-09
-1.004215156e-10
1.385562571e-09
-1.040405717e-10
1.385333354e-09
-1.071399547e-10
1.381462134e-09
-1.096874223e-10
1.374172722e-09
-1.116553065e-10
1.363674885e-09
-1.13020446e-10
1.350163456e-09
-1.13764032e-10
1.333817197e-09
-1.13871196e-10
1.314796831e-09
-1.133307798e-10
1.293242855e-09
-1.121347241e-10
1.269272523e-09
-1.102775179e-10
1.242975583e-09
-1.077556802e-10
1.214408896e-09
-1.045670233e-10
1.183588625e-09
-1.007101453e-10
1.150480099e-09
-9.618423185e-11
1.114984299e-09
-9.098923711e-11
1.076920824e-09
-8.512759682e-11
1.03600853e-09
-7.860759857e-11
9.918465571e-10
-7.144967977e-11
9.439012013e-10
-6.369547868e-11
8.915045779e-10
-5.541951841e-11
8.338685749e-10
-4.674190206e-11
7.701120077e-10
-3.78412343e-11
6.992952635e-10
-2.896710146e-11
6.204551901e-10
-2.045116932e-11
5.326330441e-10
-1.271728241e-11
4.348954637e-10
-6.290629503e-12
3.263612588e-10
-1.804556293e-12
2.062623104e-10
7.398187071e-11
-4.06815171e-13
7.177384958e-11
-1.594176869e-12
2.097894904e-10
-3.509756821e-12
3.393799194e-10
-6.09798366e-12
4.60469114e-10
-9.300639555e-12
5.730735398e-10
-1.305751189e-11
6.772725337e-10
-1.730668169e-11
7.731946335e-10
-2.198469004e-11
8.610145538e-10
-2.702699857e-11
9.409448604e-10
-3.236811529e-11
1.01322796e-09
-3.794189681e-11
1.078129599e-09
-4.368186308e-11
1.135932858e-09
-4.952161453e-11
1.186932873e-09
-5.539522778e-11
1.231432198e-09
-6.123757229e-11
1.269736679e-09
-6.698495553e-11
1.30215241e-09
-7.257555563e-11
1.328982804e-09
-7.794986005e-11
1.350526395e-09
-8.305125896e-11
1.367074967e-09
-8.782634437e-11
1.37891219e-09
-9.222550609e-11
1.386312529e-09
-9.620304457e-11
1.389540109e-09
-9.971758117e-11
1.388847889e-09
-1.027321999e-10
1.384476752e-09
-1.052145103e-10
1.376655032e-09
-1.071365709e-10
1.365596945e-09
-1.084748848e-10
1.35150177e-09
-1.09210166e-10
1.334552478e-09
-1.093270162e-10
1.31491368e-09
-1.088136602e-10
1.292729498e-09
-1.076614553e-10
1.268120318e-09
-1.058643535e-10
1.241178481e-09
-1.034184257e-10
1.211962968e-09
-1.003213075e-10
1.180491507e-09
-9.657183636e-11
1.146730628e-09
-9.216990338e-11
1.110582366e-09
-8.711709138e-11
1.071868013e-09
-8.141844907e-11
1.030309888e-09
-7.50862059e-11
9.85514314e-10
-6.814573403e-11
9.369607295e-10
-6.064410615e-11
8.840029501e-10
-5.266060592e-11
8.258850747e-10
-4.431799875e-11
7.617694008e-10
-3.579365975e-11
6.907709247e-10
-2.732972702e-11
6.119912575e-10
-1.924261247e-11
5.245459295e-10
-1.193089554e-11
4.275837468e-10
-5.882678776e-12
3.20313042e-10
-1.680551597e-12
2.020601832e-10
7.23013191e-11
-3.847151006e-13
7.215856468e-11
-1.507744347e-12
2.109125197e-10
-3.320262891e-12
3.411924379e-10
-5.770663595e-12
4.629195147e-10
-8.805047133e-12
5.761079234e-10
-1.2367561e-11
6.808350476e-10
-1.640088398e-11
7.772279566e-10
-2.084607244e-11
8.654597421e-10
-2.564287031e-11
9.457416579e-10
-3.072994232e-11
1.018315031e-09
-3.604509129e-11
1.083444749e-09
-4.152551508e-11
1.141413282e-09
-4.710814667e-11
1.192515505e-09
-5.273000158e-11
1.237054053e-09
-5.832873416e-11
1.275335412e-09
-6.384307247e-11
1.307666749e-09
-6.92132782e-11
1.334353009e-09
-7.438164309e-11
1.35569476e-09
-7.929309038e-11
1.371986415e-09
-8.389550816e-11
1.383514608e-09
-8.814026586e-11
1.390557286e-09
-9.198253163e-11
1.393382375e-09
-9.538143104e-11
1.392246789e-09
-9.830043251e-11
1.387395754e-09
-1.00707288e-10
1.379061887e-09
-1.025740932e-10
1.36746375e-09
-1.03877233e-10
1.35280491e-09
-1.045971483e-10
1.335272393e-09
-1.047180579e-10
1.31503459e-09
-1.042277532e-10
1.292239193e-09
-1.031170494e-10
1.267009614e-09
-1.013795349e-10
1.239440966e-09
-9.901092544e-11
1.209594359e-09
-9.600878229e-11
1.177489364e-09
-9.237217349e-11
1.143094019e-09
-8.810185709e-11
1.10631205e-09
-8.320095734e-11
1.066967113e-09
-7.767705378e-11
1.024785984e-09
-7.154580082e-11
9.793830611e-10
-6.483688159e-11
9.302518101e-10
-5.760200976e-11
8.767680784e-10
-4.992400961e-11
8.182070746e-10
-4.192690817e-11
7.537722992e-10
-3.378545786e-11
6.826294743e-10
-2.573348474e-11
6.039392843e-10
-1.807165008e-11
5.168840949e-10
-1.117378025e-11
4.20685877e-10
-5.492512036e-12
3.146317738e-10
-1.562911267e-12
1.981305825e-10
7.073840783e-11
-3.642282751e-13
7.252279299e-11
-1.427578932e-12
2.119758703e-10
-3.144330073e-12
3.42909189e-10
-5.466340258e-12
4.652415248e-10
-8.343330146e-12
5.789849133e-10
-1.172337832e-11
6.842150958e-10
-1.555295462e-11
7.810575329e-10
-1.977710514e-11
8.696838928e-10
-2.433942773e-11
9.503039807e-10
-2.918228868e-11
1.023157893e-09
-3.424702348e-11
1.088509484e-09
-3.947418719e-11
1.146640446e-09
-4.480388508e-11
1.197845202e-09
-5.017611046e-11
1.242426279e-09
-5.553126014e-11
1.280690561e-09
-6.081046105e-11
1.31294595e-09
-6.595624411e-11
1.339498793e-09
-7.091291358e-11
1.36065143e-09
-7.562714454e-11
1.376700646e-09
-8.004837897e-11
1.387935842e-09
-8.41293064e-11
1.394638214e-09
-8.782609419e-11
1.397079163e-09
-9.109881725e-11
1.395519513e-09
-9.391159891e-11
1.390208535e-09
-9.623263173e-11
1.38138292e-09
-9.803425717e-11
1.369265376e-09
-9.929295548e-11
1.354063609e-09
-9.998910331e-11
1.335968542e-09
-1.001067804e-10
1.315152268e-09
-9.963349041e-11
1.291765904e-09
-9.855975128e-11
1.265935875e-09
-9.687885476e-11
1.23776007e-09
-9.458636223e-11
1.207301866e-09
-9.167979836e-11
1.1745828e-09
-8.815859328e-11
1.139572814e-09
-8.402429054e-11
1.102177747e-09
-7.9281518e-11
1.06222434e-09
-7.394022606e-11
1.019444692e-09
-6.801920636e-11
9.734620414e-10
-6.155181256e-11
9.237844164e-10
-5.459326713e-11
8.698095329e-10
-4.722908168e-11
8.108428891e-10
-3.958335466e-11
7.461265721e-10
-3.182705317e-11
6.748731729e-10
-2.418500537e-11
5.962972365e-10
-1.694187801e-11
5.096409675e-10
-1.044737409e-11
4.14191373e-10
-5.120400974e-12
3.093048007e-10
-1.451535555e-12
1.944617171e-10
6.928687226e-11
-3.457118207e-13
7.286850482e-11
-1.355078422e-12
2.129852369e-10
-2.985018672e-12
3.445391292e-10
-5.190234398e-12
4.674467405e-10
-7.923443192e-12
5.817181221e-10
-1.11359684e-11
6.874276211e-10
-1.477748617e-11
7.846990507e-10
-1.879623111e-11
8.737026378e-10
-2.313908987e-11
9.546468395e-10
-2.775163145e-11
1.027770434e-09
-3.25783147e-11
1.093336167e-09
-3.756271078e-11
1.151624842e-09
-4.264787937e-11
1.202930371e-09
-4.777660264e-11
1.247555002e-09
-5.289187078e-11
1.285805829e-09
-5.79373673e-11
1.317991446e-09
-6.285790435e-11
1.344419329e-09
-6.759995564e-11
1.365393481e-09
-7.211214733e-11
1.381212837e-09
-7.634572145e-11
1.392169416e-09
-8.025493e-11
1.398547423e-09
-8.379733671e-11
1.400621569e-09
-8.693413815e-11
1.398656314e-09
-8.963038781e-11
1.392904785e-09
-9.185502944e-11
1.383607561e-09
-9.358098119e-11
1.370991327e-09
-9.478508049e-11
1.355267708e-09
-9.544783479e-11
1.336631296e-09
-9.555345574e-11
1.315257888e-09
-9.508933739e-11
1.291301785e-09
-9.404597391e-11
1.264892511e-09
-9.241642592e-11
1.236130521e-09
-9.019620351e-11
1.205081644e-09
-8.738294992e-11
1.171769547e-09
-8.397657301e-11
1.136166437e-09
-7.997944988e-11
1.098180624e-09
-7.539764793e-11
1.057642538e-09
-7.02431334e-11
1.014290178e-09
-6.453752292e-11
9.67756431e-10
-5.831727968e-11
9.175641734e-10
-5.164039352e-11
8.631326468e-10
-4.459385227e-11
8.037963479e-10
-3.730099219e-11
7.388337122e-10
-2.992809584e-11
6.675002764e-10
-2.269038322e-11
5.890595239e-10
-1.585658974e-11
5.02807174e-10
-9.753022821e-12
4.080878061e-10
-4.766576817e-12
3.043183547e-10
-1.346317677e-12
1.910414579e-10
6.794055458e-11
-3.294816525e-13
7.319798646e-11
-1.291468414e-12
2.139472237e-10
-2.844996858e-12
3.460926577e-10
-4.946959359e-12
4.695487032e-10
-7.552492872e-12
5.843236557e-10
-1.061524226e-11
6.904903705e-10
-1.408748281e-11
7.881712913e-10
-1.791997674e-11
8.775351315e-10
-2.20621256e-11
9.587889882e-10
-2.646214501e-11
1.032170453e-09
-3.106712299e-11
1.097941145e-09
-3.5823301e-11
1.15638102e-09
-4.067626502e-11
1.207783335e-09
-4.557134369e-11
1.252450081e-09
-5.045415417e-11
1.29068864e-09
-5.52708112e-11
1.322808103e-09
-5.996844102e-11
1.349116959e-09
-6.449580126e-11
1.369920841e-09
-6.880366145e-11
1.385520698e-09
-7.284525306e-11
1.396211008e-09
-7.657660251e-11
1.402278772e-09
-7.995689207e-11
1.404001859e-09
-8.29488355e-11
1.401648257e-09
-8.551871174e-11
1.395474662e-09
-8.763649751e-11
1.385725348e-09
-8.927596742e-11
1.372630798e-09
-9.041450852e-11
1.356406249e-09
-9.103316737e-11
1.337249955e-09
-9.11164262e-11
1.315341147e-09
-9.065189584e-11
1.290837255e-09
-8.963010674e-11
1.263870723e-09
-8.80442704e-11
1.234544686e-09
-8.588995413e-11
1.202927328e-09
-8.316508831e-11
1.169044681e-09
-7.986996364e-11
1.132871313e-09
-7.600784134e-11
1.094318502e-09
-7.158626721e-11
1.053220964e-09
-6.661909101e-11
1.009323001e-09
-6.11301987e-11
9.622675384e-10
-5.515860764e-11
9.115925821e-10
-4.876438354e-11
8.567384227e-10
-4.203512216e-11
7.970670865e-10
-3.509248126e-11
7.318910712e-10
-2.809744118e-11
6.605052363e-10
-2.125521929e-11
5.82217302e-10
-1.481880251e-11
4.963707573e-10
-9.091929038e-12
4.023609326e-10
-4.431264193e-12
2.996576898e-10
-1.247191444e-12
1.878573851e-10
6.669336314e-11
-3.158043928e-13
7.351379085e-11
-1.237787826e-12
2.148692072e-10
-2.726552447e-12
3.475814224e-10
-4.740573507e-12
4.715627241e-10
-7.236635756e-12
5.868197179e-10
-1.016997471e-11
6.934237094e-10
-1.349457022e-11
7.914958867e-10
-1.716301969e-11
8.812035811e-10
-2.11266185e-11
9.627525871e-10
-2.533550824e-11
1.036379343e-09
-2.973885172e-11
1.102344488e-09
-3.428502141e-11
1.16092719e-09
-3.892180573e-11
1.21242012e-09
-4.359697778e-11
1.257125253e-09
-4.825832899e-11
1.295349991e-09
-5.285433589e-11
1.32740411e-09
-5.733458128e-11
1.353597205e-09
-6.165011052e-11
1.374236371e-09
-6.575387587e-11