/*--------------------------------*- C++ -*----------------------------------*\
  =========                 |
  \\      /  F ield         | OpenFOAM: The Open Source CFD Toolbox
   \\    /   O peration     | Website:  https://openfoam.org
    \\  /    A nd           | Version:  7
     \\/     M anipulation  |
\*---------------------------------------------------------------------------*/
FoamFile
{
    version     2.0;
    format      ascii;
    class       volScalarField;
    location    "0.0027";
    object      thermo:alpha;
}
// * * * * * * * * * * * * * * * * * * * * * * * * * * * * * * * * * * * * * //

dimensions      [1 -1 -1 0 0 0 0];

internalField   nonuniform List<scalar> 
1167
(
0.0001208555458
0.0001208500094
0.0001208381086
0.0001208204186
0.0001207971939
0.0001207669232
0.0001207289721
0.0001206840257
0.0001206292327
0.0001205715064
0.000120510429
0.0001204370243
0.0001203574258
0.0001202716162
0.0001201744057
0.0001200718668
0.0001199607506
0.0001198470994
0.0001197206501
0.0001195973931
0.0001194602911
0.0001193205635
0.0001191648722
0.0001189992896
0.0001188154869
0.0001186250934
0.0001184143411
0.0001181820702
0.0001179384814
0.0001176777971
0.0001174022106
0.0001171035615
0.0001167875706
0.0001164552829
0.0001161064596
0.0001208410824
0.0001208353801
0.0001208231212
0.0001208048956
0.0001207807856
0.0001207477133
0.0001207085797
0.0001206598882
0.0001206033559
0.0001205464801
0.0001204805206
0.0001204047815
0.0001203226635
0.0001202341728
0.0001201301097
0.0001200281775
0.0001199116004
0.0001197938788
0.0001196680022
0.0001195412232
0.0001193995448
0.0001192521692
0.0001190931882
0.0001189176249
0.000118730661
0.00011853253
0.0001183135349
0.0001180741246
0.0001178278003
0.0001175583968
0.0001172738121
0.0001169742092
0.0001166514711
0.0001163152366
0.000115962358
0.0001155944244
0.0001152117036
0.0001148145407
0.0001143965642
0.0001139656901
0.000113528722
0.0001130768628
0.00011260602
0.0001121356528
0.000111652933
0.000111161598
0.0001106721641
0.0001101734855
0.000109663232
0.0001091603771
0.0001208263501
0.0001208204778
0.0001208078522
0.0001207890784
0.0001207622172
0.0001207281347
0.0001206868427
0.0001206352911
0.0001205794489
0.0001205209995
0.000120450091
0.0001203720285
0.0001202874106
0.000120192746
0.0001200891521
0.0001199801764
0.0001198649441
0.0001197391704
0.0001196151908
0.0001194797523
0.0001193398901
0.0001191841531
0.0001190204012
0.0001188368989
0.0001186470645
0.000118439135
0.0001182103201
0.0001179688093
0.0001177132065
0.0001174427264
0.0001171498643
0.0001168426744
0.0001165209055
0.0001161845333
0.0001158267154
0.0001154574724
0.0001150725643
0.0001146747989
0.0001142640727
0.0001138354227
0.0001134056494
0.0001129575699
0.0001124976888
0.0001120361503
0.0001115675577
0.0001110880199
0.0001106143659
0.0001101299074
0.0001096360747
0.0001091510316
0.0001208113456
0.0001208052999
0.0001207923005
0.000120771813
0.0001207433051
0.000120708196
0.000120663378
0.0001206102564
0.000120555333
0.0001204928429
0.0001204191905
0.0001203388042
0.0001202516983
0.0001201505708
0.00012004804
0.0001199318021
0.0001198163139
0.0001196886697
0.000119562366
0.0001194205156
0.0001192754178
0.0001191166579
0.0001189436402
0.0001187572814
0.0001185623188
0.0001183470275
0.0001181094764
0.0001178662643
0.0001176019779
0.0001173243829
0.0001170303331
0.0001167162467
0.0001163884483
0.0001160470461
0.0001156925321
0.00011532608
0.000114940895
0.0001145428729
0.0001141342305
0.000113713239
0.0001132874854
0.0001128450546
0.0001123967931
0.0001119437133
0.0001114866782
0.0001110199787
0.0001105589598
0.0001100885193
0.0001096110866
0.0001091423002
0.000120796066
0.0001207898442
0.0001207757383
0.0001207534017
0.000120724054
0.0001206869644
0.0001206395099
0.0001205864738
0.0001205308358
0.0001204636898
0.0001203879023
0.0001203051932
0.0001202140381
0.000120109796
0.0001200040132
0.0001198874261
0.0001197646009
0.0001196387878
0.0001195061782
0.0001193650342
0.0001192114199
0.0001190498488
0.0001188678888
0.0001186789199
0.0001184748798
0.0001182505344
0.0001180111303
0.0001177613276
0.0001174941464
0.0001172089135
0.0001169105976
0.0001165947839
0.000116267048
0.0001159219657
0.0001155647903
0.0001151960409
0.0001148162007
0.0001144182634
0.0001140111132
0.0001135984183
0.0001131767259
0.0001127398506
0.0001123026581
0.0001118576264
0.0001114100915
0.0001109568092
0.0001105075574
0.0001100502038
0.0001095879861
0.0001091342415
0.0001207802776
0.0001207730937
0.0001207576446
0.0001207346647
0.0001207044692
0.0001206640863
0.0001206152542
0.0001205632315
0.0001205049148
0.0001204341467
0.0001203562362
0.0001202712422
0.0001201740286
0.0001200708653
0.000119958278
0.0001198431279
0.0001197146038
0.0001195890353
0.0001194484441
0.0001193061255
0.0001191480314
0.0001189787041
0.0001187932659
0.0001186019545
0.0001183892685
0.0001181562966
0.0001179153566
0.0001176575081
0.0001173872877
0.0001170974283
0.0001167926829
0.000116475532
0.0001161462118
0.0001157995994
0.0001154431366
0.0001150725345
0.0001146922318
0.000114300499
0.0001138950128
0.0001134903671
0.0001130726954
0.0001126412163
0.0001122145603
0.0001117772019
0.0001113386589
0.0001108979796
0.0001104597527
0.0001100146157
0.0001095665561
0.0001091267761
0.0001207625018
0.0001207551161
0.0001207392322
0.0001207156045
0.00012068325
0.0001206408393
0.0001205917084
0.0001205396556
0.0001204769869
0.0001204042713
0.0001203242399
0.0001202369891
0.0001201337329
0.0001200315942
0.0001199139653
0.0001197951738
0.0001196676648
0.0001195389658
0.0001193957075
0.000119246052
0.0001190854057
0.0001189077229
0.000118719909
0.000118520754
0.0001183017356
0.0001180643974
0.0001178210175
0.0001175568217
0.0001172794808
0.0001169898894
0.0001166792404
0.0001163570469
0.0001160238297
0.000115679893
0.0001153258459
0.000114955161
0.0001145745213
0.0001141862722
0.0001137854125
0.0001133852817
0.0001129715794
0.0001125486466
0.0001121292988
0.0001117019543
0.0001112719083
0.0001108430547
0.0001104151751
0.0001099814673
0.0001095466163
0.0001091198384
0.000120744411
0.0001207368225
0.0001207205019
0.0001206961879
0.0001206608118
0.0001206172339
0.0001205692392
0.0001205157636
0.000120448722
0.0001203740949
0.0001202919922
0.0001201996375
0.0001200963662
0.0001199884523
0.0001198722453
0.0001197464929
0.0001196208924
0.0001194847842
0.0001193436181
0.0001191866663
0.0001190220642
0.000118837888
0.0001186479331
0.0001184407026
0.0001182136557
0.0001179749124
0.0001177240456
0.0001174593096
0.0001171753478
0.0001168798812
0.000116570194
0.0001162497536
0.000115912599
0.000115565641
0.0001152095661
0.0001148436039
0.0001144628686
0.0001140756614
0.000113681834
0.0001132847883
0.0001128753546
0.0001124615926
0.0001120484756
0.0001116313999
0.0001112094162
0.0001107917161
0.0001103735139
0.0001099505162
0.0001095280157
0.0001091133737
0.0001207260043
0.0001207182126
0.0001207014548
0.000120674346
0.0001206380227
0.0001205940954
0.0001205464639
0.0001204889393
0.0001204201473
0.000120343634
0.0001202594955
0.0001201615155
0.0001200594282
0.000119945229
0.000119830061
0.000119701069
0.0001195743803
0.0001194319629
0.0001192873561
0.000119128013
0.0001189556529
0.0001187692893
0.0001185759004
0.0001183624537
0.0001181277979
0.0001178879119
0.0001176299843
0.0001173608205
0.0001170748106
0.0001167737528
0.0001164620084
0.0001161400091
0.0001158026484
0.0001154565771
0.0001150987998
0.0001147337114
0.0001143569289
0.0001139709037
0.0001135839084
0.0001131899261
0.0001127846507
0.0001123796357
0.0001119724602
0.0001115651225
0.0001111507784
0.0001107435943
0.000110334538
0.0001099215568
0.0001095106263
0.0001091073357
0.0001207072816
0.000120699287
0.0001206805181
0.0001206521562
0.0001206148894
0.0001205722498
0.0001205233955
0.0001204618061
0.0001203913224
0.0001203129362
0.00012022633
0.0001201236103
0.0001200213387
0.0001199045131
0.0001197843177
0.000119657158
0.0001195265517
0.000119383557
0.0001192317356
0.0001190702016
0.0001188903438
0.0001187019785
0.0001185010861
0.000118280763
0.0001180441875
0.0001178008212
0.0001175388118
0.0001172634033
0.000116977222
0.0001166715869
0.0001163555328
0.0001160297309
0.0001156950997
0.0001153523861
0.0001149932401
0.0001146276811
0.000114256325
0.0001138715877
0.0001134912196
0.0001131002741
0.0001126990581
0.0001123024157
0.0001119009489
0.0001115016418
0.0001110956748
0.0001106984147
0.000110297976
0.0001098944119
0.0001094943385
0.0001091016851
0.0001206873381
0.000120678249
0.0001206587005
0.0001206296227
0.0001205924208
0.0001205501103
0.0001204983301
0.0001204343824
0.0001203622356
0.0001202820358
0.0001201902082
0.0001200887121
0.0001199806005
0.00011986528
0.0001197387148
0.0001196135118
0.0001194761545
0.0001193344055
0.000119176854
0.000119010788
0.0001188261877
0.0001186360543
0.0001184279624
0.0001182005054
0.0001179628346
0.0001177128515
0.000117450531
0.000117169298
0.000116877804
0.0001165733177
0.0001162589294
0.0001159296339
0.0001155922895
0.0001152477015
0.0001148926959
0.0001145268615
0.000114156624
0.0001137774298
0.0001134008549
0.0001130139863
0.0001126181839
0.0001122295373
0.0001118335328
0.0001114405781
0.0001110438506
0.0001106559376
0.000110263627
0.0001098689531
0.0001094790573
0.0001090963877
0.0001206658777
0.0001206565657
0.0001206365381
0.00012060675
0.0001205710154
0.0001205276858
0.0001204721361
0.000120406703
0.0001203329082
0.0001202509366
0.0001201539241
0.0001200537291
0.0001199398504
0.0001198252112
0.0001196968644
0.0001195701728
0.0001194276162
0.000119282331
0.0001191227406
0.0001189496884
0.0001187632621
0.0001185695296
0.0001183565403
0.0001181223213
0.0001178837884
0.0001176275607
0.0001173609989
0.0001170784259
0.0001167819937
0.0001164762032
0.000116161628
0.0001158317349
0.00011549395
0.0001151477372
0.0001147960223
0.0001144308863
0.0001140614243
0.0001136880702
0.0001133138262
0.0001129301883
0.0001125417731
0.0001121592363
0.0001117699103
0.0001113830039
0.0001109950508
0.0001106159518
0.0001102313147
0.0001098450213
0.0001094647
0.0001090914141
0.0001206440695
0.0001206345364
0.000120614034
0.0001205853374
0.0001205493192
0.0001205038066
0.000120445656
0.000120378783
0.0001203033879
0.0001202185035
0.0001201184244
0.0001200172702
0.0001199019159
0.0001197823139
0.0001196558466
0.0001195254469
0.0001193827177
0.0001192309079
0.0001190694508
0.0001188896626
0.0001187015585
0.0001185011185
0.0001182816156
0.0001180462133
0.0001178046919
0.0001175448727
0.0001172727797
0.0001169906981
0.0001166896914
0.0001163799087
0.0001160619931
0.0001157346673
0.0001153999162
0.0001150523144
0.0001147000126
0.0001143395694
0.0001139709676
0.0001136032583
0.0001132313001
0.0001128507968
0.0001124694592
0.0001120914297
0.0001117098533
0.0001113286658
0.0001109490301
0.0001105769159
0.0001102008809
0.0001098224942
0.0001094511928
0.0001090867381
0.0001206219156
0.0001206121637
0.0001205922165
0.0001205641695
0.0001205273384
0.0001204783308
0.0001204189037
0.0001203506194
0.000120273672
0.00012018398
0.0001200852563
0.0001199787479
0.0001198649886
0.0001197395735
0.0001196151005
0.0001194785692
0.0001193373266
0.0001191801923
0.000119014852
0.0001188307148
0.0001186411422
0.0001184342623
0.0001182083958
0.0001179721452
0.0001177247495
0.0001174647754
0.0001171875137
0.0001169009413
0.0001166008112
0.000116291371
0.0001159698908
0.0001156416837
0.0001153076423
0.000114961175
0.0001146084337
0.0001142525754
0.0001138849186
0.0001135227011
0.0001131530308
0.0001127755878
0.0001124009791
0.0001120272701
0.0001116530909
0.0001112773583
0.0001109055867
0.0001105399976
0.0001101721862
0.0001098012656
0.0001094384708
0.0001090823365
0.0001205996157
0.0001205906507
0.0001205713726
0.0001205427101
0.0001205039113
0.0001204525648
0.0001203919183
0.0001203222295
0.0001202437665
0.0001201493035
0.0001200520099
0.0001199402172
0.0001198274225
0.0001197002351
0.0001195746436
0.0001194329767
0.0001192890529
0.0001191301782
0.0001189585518
0.0001187728823
0.0001185808639
0.0001183689416
0.0001181370408
0.0001179001349
0.0001176471724
0.0001173845694
0.0001171050717
0.0001168140953
0.0001165147598
0.0001162073841
0.0001158830278
0.0001155525878
0.0001152169956
0.0001148741316
0.0001145211116
0.0001141659872
0.0001138030577
0.0001134455036
0.0001130786998
0.0001127042512
0.0001123361326
0.0001119665209
0.0001115993823
0.0001112288727
0.0001108645381
0.0001105051353
0.0001101451044
0.0001097812403
0.0001094264756
0.0001090781888
0.0001205790778
0.0001205699212
0.0001205502324
0.000120520964
0.0001204789205
0.0001204265163
0.000120364678
0.0001202936504
0.0001202119381
0.0001201156839
0.0001200172798
0.00011990425
0.0001197870333
0.0001196617782
0.0001195334832
0.0001193911948
0.0001192413472
0.0001190809029
0.000118903194
0.0001187161334
0.0001185181032
0.0001183013169
0.0001180674956
0.0001178294508
0.0001175718715
0.0001173043501
0.0001170253914
0.0001167303277
0.0001164274133
0.0001161173809
0.000115795765
0.0001154672125
0.0001151302509
0.0001147898203
0.0001144377428
0.0001140831691
0.000113725127
0.0001133693315
0.000113006273
0.0001126365232
0.0001122746232
0.0001119089977
0.0001115485197
0.0001111829883
0.0001108257333
0.0001104721839
0.0001101188224
0.0001097623306
0.0001094151539
0.000109074276
0.0001205582387
0.0001205488933
0.0001205288002
0.0001204970985
0.0001204536328
0.0001204002184
0.0001203371909
0.0001202648606
0.0001201787127
0.0001200839554
0.000119980631
0.0001198692935
0.0001197467578
0.0001196235334
0.0001194896606
0.0001193498151
0.0001191942575
0.0001190315867
0.0001188487772
0.0001186604925
0.0001184566678
0.0001182341839
0.0001179997312
0.000117756437
0.0001174988158
0.0001172266605
0.0001169458996
0.0001166494717
0.0001163441072
0.0001160305117
0.0001157111763
0.0001153853438
0.0001150472055
0.0001147062461
0.0001143581786
0.0001140041989
0.0001136508673
0.0001132968209
0.0001129361758
0.000112572221
0.0001122162325
0.0001118544352
0.0001114990741
0.0001111395246
0.0001107890195
0.0001104410078
0.0001100937314
0.0001097444567
0.0001094044573
0.0001090705813
0.0001205371028
0.0001205275715
0.0001205061316
0.0001204723603
0.0001204280542
0.0001203736593
0.0001203094852
0.0001202358677
0.0001201453127
0.0001200521216
0.0001199439349
0.000119834268
0.0001197089401
0.0001195855165
0.0001194461663
0.0001193049492
0.0001191477321
0.0001189793821
0.0001187952768
0.0001186058973
0.0001183965508
0.0001181686402
0.0001179336872
0.0001176853991
0.0001174278696
0.0001171513737
0.0001168666738
0.0001165714187
0.0001162675765
0.0001159513581
0.0001156299423
0.000115304317
0.0001149676417
0.000114626258
0.0001142821271
0.0001139288339
0.0001135801152
0.0001132277678
0.0001128694611
0.0001125110906
0.0001121593016
0.0001118026329
0.0001114515058
0.0001110983142
0.0001107542297
0.0001104114816
0.00011006998
0.000109727545
0.0001093943481
0.0001090670887
0.0001205156631
0.0001205048893
0.0001204817296
0.0001204473204
0.000120402214
0.000120346838
0.0001202815605
0.0001202042431
0.0001201131915
0.0001200189141
0.0001199092448
0.0001197959302
0.0001196725939
0.0001195476994
0.0001194065478
0.0001192603486
0.0001191018053
0.000118927914
0.0001187426791
0.000118548758
0.0001183363572
0.0001181045813
0.0001178692968
0.0001176163001
0.0001173544801
0.000117078414
0.0001167900192
0.000116494444
0.0001161924826
0.0001158751155
0.0001155518297
0.0001152248968
0.0001148913869
0.0001145497189
0.0001142075856
0.0001138568196
0.0001135125827
0.0001131619637
0.0001128059361
0.0001124529081
0.0001121043386
0.000111753403
0.0001114063303
0.0001110592135
0.0001107212297
0.000110383489
0.0001100474733
0.0001097115268
0.0001093847808
0.0001090637839
0.0001204915797
0.0001204806063
0.0001204570199
0.0001204219846
0.000120376104
0.000120319768
0.0001202534081
0.0001201719708
0.0001200825602
0.0001199837273
0.0001198758502
0.000119757629
0.0001196363605
0.0001195066756
0.0001193676446
0.0001192162031
0.0001190564184
0.00011887721
0.0001186909357
0.000118491774
0.0001182742403
0.0001180419917
0.0001178041488
0.0001175490059
0.0001172830069
0.0001170076291
0.0001167157973
0.0001164172261
0.0001161127511
0.0001157978864
0.000115476685
0.0001151485801
0.0001148181902
0.0001144763458
0.0001141346053
0.0001137880009
0.000113447538
0.0001130991532
0.000112745389
0.000112397483
0.0001120520112
0.0001117066119
0.000111363381
0.0001110220868
0.0001106898929
0.0001103569407
0.0001100261224
0.0001096963381
0.0001093757128
0.0001090606532
0.0001204671844
0.0001204560145
0.0001204320088
0.0001203963896
0.0001203497206
0.0001202924728
0.0001202244031
0.0001201394912
0.0001200517832
0.0001199484355
0.0001198424187
0.0001197205228
0.0001196002714
0.0001194655359
0.0001193271251
0.0001191724771
0.0001190089269
0.0001188271807
0.0001186400279
0.0001184358243
0.0001182133426
0.0001179807499
0.0001177384048
0.000117483456
0.0001172135281
0.0001169358715
0.0001166438615
0.0001163434055
0.0001160356951
0.0001157230272
0.000115404304
0.0001150751957
0.0001147446042
0.0001144059544
0.0001140646464
0.0001137221098
0.0001133830101
0.0001130386911
0.0001126875801
0.0001123446527
0.0001120021326
0.0001116620438
0.0001113224987
0.0001109867686
0.0001106600993
0.0001103317208
0.0001100058435
0.0001096819185
0.0001093671078
0.0001090576839
0.000120442484
0.0001204311208
0.0001204067206
0.0001203705125
0.0001203230733
0.0001202649314
0.000120192995
0.0001201087077
0.0001200196537
0.000119914548
0.0001198063411
0.0001196858003
0.0001195642772
0.0001194261468
0.0001192849492
0.0001191291446
0.0001189605249
0.0001187778285
0.0001185894317
0.000118380826
0.0001181536281
0.0001179208161
0.000117674163
0.0001174190629
0.0001171458589
0.0001168648569
0.0001165740683
0.0001162751176
0.0001159649831
0.0001156507537
0.0001153334774
0.000115004498
0.0001146735464
0.0001143383492
0.0001139975478
0.0001136589348
0.0001133212058
0.0001129787572
0.0001126323103
0.0001122941858
0.0001119545424
0.0001116195341
0.0001112835486
0.000110953125
0.0001106317348
0.0001103077231
0.000109986557
0.000109668211
0.0001093589316
0.0001090548641
0.0001204174902
0.0001204059511
0.0001203811585
0.0001203443582
0.0001202961937
0.000120237148
0.0001201613491
0.0001200788433
0.0001199855245
0.0001198823067
0.0001197695164
0.0001196510925
0.0001195267724
0.0001193891275
0.000119243034
0.0001190861937
0.0001189126256
0.0001187290778
0.0001185358741
0.0001183245507
0.0001180949709
0.0001178620678
0.0001176113331
0.00011735243
0.0001170799245
0.0001167957601
0.0001165052922
0.0001162088552
0.0001158966758
0.0001155808615
0.0001152624779
0.0001149363453
0.0001146050973
0.0001142732874
0.0001139330616
0.0001135983306
0.0001132619196
0.0001129213193
0.0001125794301
0.0001122459034
0.0001119090748
0.0001115789257
0.0001112463861
0.0001109210282
0.0001106043536
0.0001102848537
0.0001099681865
0.000109655161
0.0001093511511
0.0001090521823
0.0001184830106
0.0001182671447
0.0001180373457
0.0001178019494
0.0001175497812
0.0001172872524
0.0001170155538
0.0001167284342
0.0001164354057
0.0001161373654
0.0001158282574
0.0001155131477
0.0001151937758
0.0001148704965
0.0001145390819
0.0001142088363
0.000113870966
0.0001135400391
0.0001132049985
0.0001128661789
0.0001125287201
0.000112199632
0.0001118655346
0.0001115400668
0.0001112108488
0.0001108903547
0.0001105775285
0.0001102630223
0.0001099506591
0.0001096427196
0.000109343735
0.0001090496276
)
;

boundaryField
{
    front_top
    {
        type            wedge;
    }
    front_middle
    {
        type            wedge;
    }
    front_bottom
    {
        type            wedge;
    }
    back_top
    {
        type            wedge;
    }
    back_middle
    {
        type            wedge;
    }
    back_bottom
    {
        type            wedge;
    }
    axis_top
    {
        type            symmetryPlane;
    }
    axis_middle
    {
        type            symmetryPlane;
    }
    axis_bottom
    {
        type            symmetryPlane;
    }
    wall_top
    {
        type            calculated;
        value           nonuniform 0();
    }
    wall_middle
    {
        type            calculated;
        value           uniform 0.0001089022317;
    }
    wall_bottom
    {
        type            calculated;
        value           nonuniform 0();
    }
    inlet
    {
        type            calculated;
        value           nonuniform 0();
    }
    outlet
    {
        type            calculated;
        value           nonuniform 0();
    }
    procBoundary4to3
    {
        type            processor;
        value           nonuniform List<scalar> 
51
(
0.000120392234
0.0001203805075
0.000120355316
0.0001203179434
0.000120269058
0.0001202069331
0.0001201294681
0.0001200487957
0.000119951234
0.0001198499623
0.0001197326333
0.000119616414
0.0001194873804
0.0001193522438
0.0001192013929
0.0001190435591
0.0001188652027
0.0001186808962
0.0001186808962
0.0001184308213
0.0001182105363
0.0001179806065
0.0001177412348
0.0001174894296
0.0001172234606
0.0001169504495
0.0001166627078
0.0001163672718
0.0001160672546
0.0001157602496
0.0001154474683
0.0001151272181
0.0001148064402
0.000114475248
0.0001141453751
0.0001138110965
0.0001134838608
0.0001131502033
0.0001128131633
0.0001124799884
0.0001121535169
0.0001118237584
0.0001115016736
0.0001111767982
0.0001108609837
0.000110551858
0.0001102421424
0.0001099339046
0.000109630841
0.0001093366532
0.0001090471895
)
;
    }
    procBoundary4to5
    {
        type            processor;
        value           nonuniform List<scalar> 
51
(
0.0001208711061
0.0001208650569
0.0001208528162
0.0001208356473
0.0001208131131
0.0001207853904
0.0001207489606
0.0001207065907
0.0001206545966
0.0001205960441
0.0001205374093
0.0001204686968
0.00012039159
0.0001203084564
0.0001202180521
0.0001201145531
0.0001200111479
0.0001198961562
0.000119777109
0.0001196530694
0.0001195252226
0.0001193853814
0.0001192369556
0.000119078222
0.0001189013657
0.0001187141794
0.0001185140626
0.0001182924912
0.0001180513623
0.000117800858
0.000117528148
0.0001172370991
0.0001169294548
0.0001165999324
0.0001162558188
0.0001157387843
0.0001157387843
0.000115358594
0.0001149557562
0.0001145376179
0.0001141047962
0.0001136579775
0.0001132008546
0.0001127227642
0.000112241177
0.0001117453393
0.0001112414243
0.0001107350091
0.0001102206373
0.0001096928895
0.0001091704154
)
;
    }
}


// ************************************************************************* //
