/*--------------------------------*- C++ -*----------------------------------*\
  =========                 |
  \\      /  F ield         | OpenFOAM: The Open Source CFD Toolbox
   \\    /   O peration     | Website:  https://openfoam.org
    \\  /    A nd           | Version:  7
     \\/     M anipulation  |
\*---------------------------------------------------------------------------*/
FoamFile
{
    version     2.0;
    format      ascii;
    class       volVectorField;
    location    "0.0027";
    object      U;
}
// * * * * * * * * * * * * * * * * * * * * * * * * * * * * * * * * * * * * * //

dimensions      [0 1 -1 0 0 0 0];

internalField   nonuniform List<vector> 
1167
(
(-6.287792355e-05 -2.934542446e-19 -0.004350758817)
(-0.0001623873176 -4.343400175e-19 -0.004347418505)
(-0.0002554307585 -4.880431978e-19 -0.00434017162)
(-0.0003512859599 -9.719061282e-19 -0.004329313443)
(-0.0004443762937 -1.759606401e-18 -0.004315227703)
(-0.0005342346921 -2.454363019e-18 -0.004298168099)
(-0.0006207764612 -3.505342567e-18 -0.004278340082)
(-0.0007038115047 -3.826928333e-18 -0.004255953486)
(-0.0007832090606 -3.708021576e-18 -0.004231207561)
(-0.0008588880053 -3.701304619e-18 -0.004204291019)
(-0.0009307998841 -3.675608737e-18 -0.004175378841)
(-0.0009989228078 -3.36612813e-18 -0.004144633184)
(-0.001063257479 -3.38434827e-18 -0.004112201974)
(-0.001123823141 -3.369784873e-18 -0.004078217652)
(-0.001180653294 -3.288213385e-18 -0.004042796561)
(-0.001233792348 -3.009973529e-18 -0.004006038791)
(-0.001283292552 -2.723709306e-18 -0.003968027862)
(-0.001329211238 -2.828737544e-18 -0.003928830669)
(-0.001371608177 -3.072813641e-18 -0.003888497651)
(-0.001410543461 -2.941515234e-18 -0.00384706325)
(-0.001446075955 -2.872726127e-18 -0.003804546235)
(-0.001478261331 -2.744560707e-18 -0.003760949941)
(-0.001507151111 -2.570257663e-18 -0.003716263128)
(-0.001532791157 -2.364841709e-18 -0.003670459649)
(-0.001555221075 -2.473864995e-18 -0.003623499096)
(-0.001574472818 -2.464529906e-18 -0.003575325787)
(-0.00159056932 -2.571234834e-18 -0.003525868192)
(-0.001603523408 -2.601352005e-18 -0.003475037548)
(-0.001613335875 -2.530972334e-18 -0.003422725246)
(-0.001619992795 -2.432472859e-18 -0.003368799192)
(-0.001623462023 -2.415478488e-18 -0.003313098917)
(-0.00162368871 -2.345956625e-18 -0.00325542842)
(-0.001620588554 -2.272434496e-18 -0.003195545818)
(-0.001614038372 -2.290977873e-18 -0.003133148816)
(-0.001603862503 -2.321985896e-18 -0.003067853525)
(-6.496875487e-05 -3.877016073e-19 -0.004518550072)
(-0.0001678356122 -7.992576831e-19 -0.004514924154)
(-0.0002640073719 -9.252431494e-19 -0.004507034742)
(-0.0003630475083 -1.386833888e-18 -0.004495234443)
(-0.0004592433667 -1.688491471e-18 -0.00447993177)
(-0.0005520838472 -3.556941156e-18 -0.004461405853)
(-0.0006414820219 -3.636462023e-18 -0.004439887237)
(-0.0007272414109 -3.840958876e-18 -0.004415608603)
(-0.0008092252096 -3.521133162e-18 -0.004388792326)
(-0.0008873479424 -3.512868798e-18 -0.004359647891)
(-0.0009615578482 -3.647272466e-18 -0.004328371464)
(-0.001031831152 -3.316967528e-18 -0.004295143286)
(-0.00109816713 -3.108509899e-18 -0.004260127958)
(-0.001160583781 -3.201070734e-18 -0.004223472893)
(-0.001219113865 -3.244776199e-18 -0.004185307616)
(-0.001273801366 -3.10413691e-18 -0.004145743405)
(-0.001324698238 -2.879243602e-18 -0.00410487321)
(-0.001371861618 -3.001699323e-18 -0.004062771624)
(-0.001415351239 -3.055829025e-18 -0.004019495177)
(-0.001455227377 -2.977310992e-18 -0.003975082838)
(-0.001491548747 -2.867427683e-18 -0.003929556712)
(-0.001524371417 -2.792800207e-18 -0.00388292271)
(-0.001553747171 -2.728995329e-18 -0.003835170662)
(-0.001579722562 -2.631084351e-18 -0.00378627539)
(-0.001602337928 -2.719850877e-18 -0.00373619618)
(-0.001621625898 -2.836554682e-18 -0.003684876698)
(-0.001637610496 -2.845897509e-18 -0.003632244277)
(-0.00165030551 -2.680367272e-18 -0.003578208144)
(-0.001659712521 -2.635366871e-18 -0.003522656888)
(-0.001665817949 -2.583495056e-18 -0.003465454565)
(-0.001668589462 -2.358876125e-18 -0.003406435468)
(-0.001667970991 -2.145659484e-18 -0.003345396305)
(-0.001663875395 -2.092334997e-18 -0.00328208509)
(-0.001656174434 -1.958550008e-18 -0.003216185308)
(-0.001644683893 -2.000135373e-18 -0.003147292876)
(-0.001629142306 -1.935118168e-18 -0.003074882884)
(-0.001609179721 -2.019720161e-18 -0.002998260605)
(-0.001584272324 -2.03466671e-18 -0.002916490346)
(-0.001553678766 -1.943265313e-18 -0.002828294078)
(-0.001516354972 -1.789890267e-18 -0.002731914341)
(-0.001470851274 -1.634034967e-18 -0.002624945762)
(-0.001415206098 -1.614799573e-18 -0.002504155734)
(-0.001346860032 -1.673436911e-18 -0.002365325082)
(-0.001262610279 -1.751520615e-18 -0.002203134695)
(-0.001158610493 -1.479470755e-18 -0.002011100019)
(-0.00103041015 -1.190241697e-18 -0.001781531521)
(-0.0008730276523 -1.07118521e-18 -0.001505495663)
(-0.0006809651127 -8.973045973e-19 -0.001172809276)
(-0.000447912583 -6.390062163e-19 -0.00077220417)
(-0.0001660104557 -3.022808866e-19 -0.0002917469457)
(-6.701553711e-05 -4.879578144e-19 -0.004694296874)
(-0.0001731737942 -1.335274398e-18 -0.004690373501)
(-0.0002724144652 -2.26525458e-18 -0.004681818617)
(-0.0003745799788 -1.892424401e-18 -0.004669041539)
(-0.0004738290953 -2.759319298e-18 -0.004652476009)
(-0.0005696073488 -3.720555898e-18 -0.004632428237)
(-0.0006618261306 -3.644843001e-18 -0.004609153866)
(-0.0007502827779 -3.157695664e-18 -0.004582908402)
(-0.0008348344608 -3.517902248e-18 -0.004553938315)
(-0.0009153916055 -3.669963181e-18 -0.004522474063)
(-0.0009918987819 -3.380602978e-18 -0.004488731974)
(-0.001064329291 -2.933085261e-18 -0.004452911789)
(-0.001132680285 -3.001243203e-18 -0.004415194669)
(-0.001196967752 -3.016899955e-18 -0.004375742815)
(-0.001257222743 -2.885061215e-18 -0.004334698899)
(-0.001313487685 -3.080933764e-18 -0.004292185442)
(-0.001365813239 -3.140557813e-18 -0.004248304937)
(-0.001414255326 -3.168205434e-18 -0.004203139656)
(-0.001458872503 -2.739498485e-18 -0.004156752406)
(-0.001499724118 -2.723347716e-18 -0.004109187179)
(-0.00153686835 -2.748018437e-18 -0.004060469545)
(-0.001570360711 -2.752388773e-18 -0.004010608118)
(-0.001600252809 -2.714537246e-18 -0.003959594752)
(-0.001626591498 -2.696244854e-18 -0.003907405278)
(-0.001649417289 -2.776666623e-18 -0.003853999432)
(-0.001668763598 -2.860791743e-18 -0.003799320899)
(-0.0016846553 -2.849686612e-18 -0.003743296212)
(-0.001697107066 -2.762338691e-18 -0.003685833066)
(-0.001706121094 -2.78314199e-18 -0.003626817617)
(-0.00171168414 -2.611752446e-18 -0.003566110528)
(-0.00171376374 -2.505873776e-18 -0.003503541045)
(-0.001712302514 -2.21444293e-18 -0.0034388985)
(-0.001707210377 -2.033384247e-18 -0.003371920406)
(-0.001698353624 -1.944502669e-18 -0.003302275325)
(-0.001685539097 -1.823814633e-18 -0.003229538104)
(-0.001668491486 -1.815499264e-18 -0.00315315379)
(-0.001646820154 -1.723107462e-18 -0.003072385343)
(-0.001619971905 -1.724160775e-18 -0.002986238406)
(-0.00158716578 -1.831174679e-18 -0.002893356463)
(-0.001547309251 -1.883033908e-18 -0.002791884258)
(-0.001498902136 -1.609128295e-18 -0.002679308489)
(-0.00143994488 -1.511730569e-18 -0.002552300333)
(-0.001367874151 -1.618010954e-18 -0.002406590894)
(-0.001279541307 -1.578593185e-18 -0.00223689953)
(-0.001171232251 -1.492445793e-18 -0.002036908796)
(-0.001038719604 -1.334641197e-18 -0.001799259983)
(-0.0008773408459 -1.133359973e-18 -0.001515544045)
(-0.0006820112422 -8.879225512e-19 -0.001176323532)
(-0.0004469273656 -5.675567611e-19 -0.0007713175673)
(-0.0001648819397 -2.571268043e-19 -0.0002897993869)
(-6.902608505e-05 -4.687157569e-19 -0.004878125079)
(-0.0001784218964 -1.061979747e-18 -0.004873894071)
(-0.0002806835406 -1.916276921e-18 -0.00486465474)
(-0.0003859264664 -1.754551754e-18 -0.004850871762)
(-0.0004881884411 -2.28258601e-18 -0.004833004992)
(-0.0005868722528 -3.216323513e-18 -0.004811388958)
(-0.0006818870769 -4.093581285e-18 -0.004786303115)
(-0.0007730251236 -3.771336445e-18 -0.004758027165)
(-0.0008601374406 -3.550867508e-18 -0.004726830222)
(-0.0009431296904 -3.56690973e-18 -0.004692965379)
(-0.001021942982 -3.346598291e-18 -0.004656668318)
(-0.00109654689 -3.165535166e-18 -0.00461815722)
(-0.001166935137 -3.189877161e-18 -0.004577630345)
(-0.00123312095 -3.138349013e-18 -0.004535264865)
(-0.001295132699 -2.874388723e-18 -0.004491216354)
(-0.001353010315 -2.595905401e-18 -0.004445618432)
(-0.001406801925 -2.9564222e-18 -0.004398582889)
(-0.001456561007 -3.028541037e-18 -0.004350199911)
(-0.001502344315 -2.813733459e-18 -0.004300538805)
(-0.001544209361 -2.780754744e-18 -0.004249648544)
(-0.001582212958 -2.910274984e-18 -0.004197559127)
(-0.001616409506 -2.674361199e-18 -0.004144281975)
(-0.001646850211 -2.669002416e-18 -0.004089811609)
(-0.001673581421 -2.614919213e-18 -0.00403412532)
(-0.001696643923 -2.574823022e-18 -0.003977184209)
(-0.001716071724 -2.748893321e-18 -0.003918932374)
(-0.001731890265 -2.818792168e-18 -0.003859296097)
(-0.001744114984 -2.832595548e-18 -0.003798182243)
(-0.001752748756 -2.790214641e-18 -0.003735475088)
(-0.001757778745 -2.697367924e-18 -0.003671032167)
(-0.001759172193 -2.403941331e-18 -0.003604677818)
(-0.001756870262 -2.310520893e-18 -0.003536194048)
(-0.00175077978 -2.22686558e-18 -0.003465307653)
(-0.001740761323 -2.161314654e-18 -0.003391671638)
(-0.001726612444 -2.077412635e-18 -0.003314838713)
(-0.001708043476 -2.041292961e-18 -0.003234222711)
(-0.0016846428 -1.992157027e-18 -0.00314904311)
(-0.001655828026 -2.002734493e-18 -0.003058246156)
(-0.00162078014 -1.885124646e-18 -0.002960397931)
(-0.001578361939 -1.865261752e-18 -0.002853550079)
(-0.001527029609 -1.784300509e-18 -0.002735091845)
(-0.001464755635 -1.518235622e-18 -0.002601615664)
(-0.001388984057 -1.40379075e-18 -0.002448825388)
(-0.001296628588 -1.476133526e-18 -0.002271500345)
(-0.001184107053 -1.396030678e-18 -0.002063502199)
(-0.001047401939 -1.598581266e-18 -0.001817796623)
(-0.000882141134 -1.398184859e-18 -0.001526466069)
(-0.0006836076786 -1.322633206e-18 -0.001180751342)
(-0.0004464425006 -6.826756163e-19 -0.0007712506112)
(-0.0001640075665 -2.175819459e-20 -0.000288293911)
(-7.101038697e-05 1.78477174e-19 -0.005070189943)
(-0.0001836056363 2.237769083e-18 -0.005065642871)
(-0.000288854826 -6.738752282e-19 -0.005055703951)
(-0.0003971422141 -1.170101212e-18 -0.005040891736)
(-0.0005023917694 -2.132399482e-18 -0.005021693529)
(-0.0006039629658 -2.745133344e-18 -0.004998471237)
(-0.000701762831 -3.57059735e-18 -0.004971527913)
(-0.0007955790422 -3.2165942e-18 -0.004941168106)
(-0.0008852567032 -3.290357716e-18 -0.004907682654)
(-0.0009706962315 -3.534705274e-18 -0.00487134642)
(-0.001051834298 -3.491454007e-18 -0.004832415401)
(-0.001128636509 -3.531496176e-18 -0.00479112534)
(-0.001201092519 -3.373075324e-18 -0.00474769084)
(-0.001269211522 -3.360778422e-18 -0.004702303713)
(-0.001333018082 -3.076273516e-18 -0.004655132317)
(-0.001392548502 -2.655586183e-18 -0.0046063213)
(-0.001447847509 -2.560194859e-18 -0.004555991783)
(-0.001498965578 -2.530401317e-18 -0.004504241842)
(-0.001545956365 -2.791692978e-18 -0.004451147371)
(-0.001588874952 -2.869729231e-18 -0.004396762979)
(-0.001627776055 -2.936519645e-18 -0.004341122981)
(-0.001662712747 -2.703666896e-18 -0.00428424287)
(-0.001693734981 -2.532976876e-18 -0.004226119786)
(-0.001720888634 -2.63226024e-18 -0.004166733765)
(-0.001744214674 -2.697734493e-18 -0.004106047596)
(-0.001763747151 -2.688783298e-18 -0.004044006474)
(-0.001779512133 -2.939202602e-18 -0.003980537357)
(-0.00179152587 -2.975012381e-18 -0.003915546794)
(-0.001799791885 -2.832594283e-18 -0.003848917757)
(-0.001804297688 -2.720503628e-18 -0.003780504965)
(-0.001805010071 -2.510504925e-18 -0.003710127976)
(-0.001801868559 -2.384182241e-18 -0.003637561452)
(-0.001794776619 -2.216347602e-18 -0.003562521239)
(-0.001783588895 -2.294677647e-18 -0.0034846444)
(-0.001768093372 -2.409281641e-18 -0.003403460748)
(-0.001747985751 -2.324417141e-18 -0.003318351853)
(-0.001722833298 -2.297214456e-18 -0.003228492634)
(-0.001692024813 -2.084169305e-18 -0.003132769763)
(-0.001654704898 -1.88885825e-18 -0.003029673703)
(-0.001609695573 -1.759934765e-18 -0.00291716847)
(-0.001555416109 -1.814094094e-18 -0.002792556716)
(-0.001489819972 -1.743931102e-18 -0.002652368349)
(-0.001410367339 -1.608864569e-18 -0.002492298675)
(-0.001314039021 -1.229748789e-18 -0.00230720257)
(-0.001197381633 -1.168285548e-18 -0.002091126617)
(-0.001056573559 -1.08208793e-18 -0.001837350373)
(-0.0008875065803 -9.183595184e-19 -0.001538414844)
(-0.0006857919714 -7.316562499e-19 -0.001186178318)
(-0.0004464620267 -4.988666382e-19 -0.0007720251721)
(-0.0001633776451 -2.280588453e-19 -0.0002872165559)
(-7.298050271e-05 3.689127435e-18 -0.005270684068)
(-0.0001887559482 5.781785543e-18 -0.005265813934)
(-0.0002969767892 1.986070362e-18 -0.005255164084)
(-0.0004082941655 -1.492032017e-19 -0.005239305539)
(-0.000516523629 -1.438606585e-18 -0.005218752819)
(-0.000620980053 -2.030415654e-18 -0.005193894063)
(-0.0007215693815 -2.097830868e-18 -0.005165056965)
(-0.0008180747776 -3.593801292e-18 -0.005132569021)
(-0.0009103351815 -3.750010418e-18 -0.005096743766)
(-0.0009982458671 -3.425738036e-18 -0.005057875901)
(-0.001081738133 -4.103241177e-18 -0.005016241005)
(-0.001160772772 -3.431176278e-18 -0.004972092813)
(-0.001235334663 -3.435442761e-18 -0.004925661381)
(-0.001305428125 -3.56911055e-18 -0.004877152515)
(-0.001371072982 -3.551824174e-18 -0.004826747042)
(-0.001432301051 -3.215809015e-18 -0.004774600383)
(-0.00148915265 -2.954907678e-18 -0.004720842895)
(-0.001541674138 -2.802997334e-18 -0.004665580766)
(-0.001589915779 -2.914917444e-18 -0.004608896599)
(-0.001633929435 -2.955383969e-18 -0.004550850891)
(-0.001673767346 -2.839507289e-18 -0.004491483155)
(-0.001709480521 -2.711302175e-18 -0.004430813026)
(-0.001741117506 -2.602278509e-18 -0.004368841559)
(-0.001768723761 -2.655125488e-18 -0.004305551964)
(-0.001792339694 -2.545209086e-18 -0.00424090941)
(-0.001811999528 -2.610785828e-18 -0.004174861248)
(-0.001827730111 -2.744151372e-18 -0.00410733581)
(-0.001839548329 -2.758716963e-18 -0.004038239895)
(-0.001847458237 -2.693365349e-18 -0.00396745561)
(-0.001851447576 -2.646425399e-18 -0.003894835298)
(-0.001851482556 -2.60762285e-18 -0.003820193995)
(-0.001847500956 -2.368432173e-18 -0.003743299021)
(-0.001839402604 -2.153495926e-18 -0.003663854986)
(-0.001827035895 -2.263787005e-18 -0.003581482552)
(-0.001810178935 -2.486408604e-18 -0.003495688018)
(-0.001788512668 -2.491897689e-18 -0.003405820022)
(-0.001761583366 -2.339814137e-18 -0.003311008406)
(-0.001728751736 -2.203284477e-18 -0.003210080535)
(-0.001689127929 -2.094833929e-18 -0.003101453546)
(-0.001641497043 -2.045452076e-18 -0.002983009755)
(-0.001584247512 -2.149748468e-18 -0.002851975709)
(-0.001515321216 -2.218121955e-18 -0.002704833151)
(-0.001432200982 -2.265731006e-18 -0.002537284059)
(-0.001331937045 -1.988982761e-18 -0.002344269924)
(-0.001211199876 -1.584489775e-18 -0.002120023634)
(-0.001066349529 -1.22177727e-18 -0.001858125313)
(-0.0008935172343 -8.281204469e-19 -0.001551542134)
(-0.0006886074681 -2.878421234e-19 -0.001192694733)
(-0.0004469978369 9.588434685e-20 -0.0007736727653)
(-0.000162987703 2.37922475e-19 -0.0002865616217)
(-7.49502225e-05 4.152745273e-18 -0.005479844818)
(-0.0001939086317 4.932994792e-18 -0.005474646484)
(-0.0003051061249 4.033942149e-18 -0.005463278477)
(-0.0004194602258 1.687993773e-18 -0.005446361815)
(-0.0005306811761 -2.852501119e-19 -0.005424437347)
(-0.0006380390677 -1.723252473e-18 -0.005397919418)
(-0.0007414392821 -2.599029372e-18 -0.005367160341)
(-0.000840660543 -3.337874553e-18 -0.005332508681)
(-0.0009355351375 -3.906972639e-18 -0.005294300289)
(-0.001025952792 -3.93553251e-18 -0.005252849623)
(-0.001111839544 -3.635111476e-18 -0.005208450191)
(-0.001193150267 -3.501926147e-18 -0.005161372458)
(-0.0012698641 -3.755244797e-18 -0.005111861835)
(-0.001341979877 -3.502762791e-18 -0.005060137572)
(-0.00140951178 -3.682154785e-18 -0.005006392352)
(-0.00147248617 -3.506796213e-18 -0.004950792245)
(-0.001530938373 -3.3584853e-18 -0.004893476757)
(-0.001584910249 -3.412356498e-18 -0.004834560144)
(-0.00163444762 -3.221780628e-18 -0.004774132156)
(-0.0016795989 -2.973680692e-18 -0.004712259586)
(-0.001720413258 -2.997915953e-18 -0.004648987401)
(-0.001756939309 -3.16265659e-18 -0.004584340426)
(-0.001789224336 -3.016011168e-18 -0.00451832426)
(-0.001817312573 -2.692332028e-18 -0.004450925871)
(-0.001841244008 -2.648284695e-18 -0.004382114009)
(-0.001861053252 -2.622963879e-18 -0.004311838946)
(-0.001876767607 -2.674954051e-18 -0.004240030899)
(-0.001888404461 -2.755918206e-18 -0.004166597642)
(-0.001895968373 -2.591620529e-18 -0.004091421011)
(-0.001899447159 -2.513568943e-18 -0.004014351342)
(-0.001898806313 -2.340340073e-18 -0.003935199469)
(-0.001893981747 -2.03697424e-18 -0.00385372542)
(-0.001884869438 -1.811016356e-18 -0.003769622391)
(-0.001871311292 -2.002085045e-18 -0.003682494213)
(-0.001853075244 -2.004302246e-18 -0.003591823105)
(-0.001829827303 -1.944223354e-18 -0.003496924241)
(-0.001801092963 -2.013725462e-18 -0.003396882223)
(-0.001766205783 -2.023007529e-18 -0.003290465952)
(-0.001724243621 -2.096161019e-18 -0.003176022138)
(-0.001673958472 -1.945785805e-18 -0.003051357556)
(-0.001613713427 -1.85086124e-18 -0.00291363254)
(-0.001541444859 -1.930716526e-18 -0.002759293124)
(-0.001454662702 -1.94522544e-18 -0.002584059856)
(-0.001350486809 -1.841017373e-18 -0.002382967895)
(-0.001225705242 -1.943006607e-18 -0.002150434278)
(-0.001076845536 -1.591286141e-18 -0.001880324393)
(-0.0009002557141 -1.34558472e-18 -0.001566000347)
(-0.0006921023494 -1.219770161e-18 -0.001200395006)
(-0.0004480677632 -4.847703264e-19 -0.0007762321293)
(-0.0001628370487 -1.682053925e-19 -0.0002863292781)
(-7.693544378e-05 -2.044203515e-18 -0.005697963684)
(-0.0001991047065 2.429356933e-19 -0.005692433757)
(-0.0003133070639 3.057702921e-18 -0.005680343625)
(-0.0004307276194 1.810284038e-18 -0.005662360988)
(-0.0005449731328 -3.851347275e-19 -0.005639052223)
(-0.0006552692503 -1.1048984e-19 -0.005610859019)
(-0.0007615201917 -2.171558e-18 -0.005578155807)
(-0.0008635006702 -2.417308954e-18 -0.005541312533)
(-0.0009610362175 -2.996065857e-18 -0.005500684356)
(-0.001054010098 -3.508961227e-18 -0.005456605807)
(-0.001142342574 -3.424971359e-18 -0.005409387468)
(-0.001225982307 -3.827770971e-18 -0.005359315227)
(-0.001304902101 -4.443799948e-18 -0.005306648863)
(-0.001379094367 -3.841397099e-18 -0.005251620461)
(-0.001448567088 -3.736528261e-18 -0.005194434154)
(-0.0015133407 -3.641837261e-18 -0.005135266335)
(-0.001573444811 -3.781351337e-18 -0.005074265614)
(-0.00162891589 -3.110729727e-18 -0.005011554393)
(-0.001679795317 -3.116335631e-18 -0.004947229731)
(-0.001726127386 -3.347409154e-18 -0.004881365175)
(-0.001767957925 -3.380903326e-18 -0.004814011973)
(-0.00180533329 -3.51352956e-18 -0.004745200709)
(-0.001838298758 -3.313978301e-18 -0.004674942188)
(-0.001866897506 -3.023169284e-18 -0.004603228231)
(-0.001891169244 -2.976287334e-18 -0.004530031988)
(-0.001911148621 -2.945544872e-18 -0.004455307168)
(-0.00192686318 -2.701880681e-18 -0.00437898671)
(-0.00193833078 -2.53726461e-18 -0.004300980205)
(-0.001945556501 -2.533064055e-18 -0.004221169831)
(-0.001948528148 -2.349249131e-18 -0.004139404304)
(-0.001947210398 -2.442818661e-18 -0.004055490444)
(-0.001941537044 -2.240194814e-18 -0.003969181051)
(-0.001931400019 -2.117319773e-18 -0.003880157851)
(-0.001916634538 -2.153979655e-18 -0.003788007538)
(-0.001896998185 -2.35502706e-18 -0.003692187858)
(-0.001872141979 -2.232922246e-18 -0.003591980161)
(-0.001841570948 -1.921288577e-18 -0.003486423952)
(-0.001804592521 -1.61523454e-18 -0.003374230893)
(-0.001760254419 -1.495266305e-18 -0.003253680525)
(-0.001707279131 -1.3114749e-18 -0.003122510274)
(-0.001644009194 -1.469244918e-18 -0.002977823347)
(-0.001568380269 -1.559539981e-18 -0.002816040585)
(-0.001477932157 -1.819152109e-18 -0.002632910061)
(-0.001369852944 -1.685250471e-18 -0.002423564296)
(-0.001241041127 -1.625348299e-18 -0.002182599716)
(-0.001088177978 -1.278061959e-18 -0.001904150844)
(-0.0009078071373 -8.742334797e-19 -0.001581944092)
(-0.000696328794 -7.718290583e-19 -0.001209378244)
(-0.0004496942807 -6.351903204e-19 -0.0007797484415)
(-0.0001629278837 -5.729678251e-19 -0.0002865244245)
(-7.895371326e-05 -5.29241549e-18 -0.005925394765)
(-0.0002043893953 -4.475534471e-19 -0.005919530711)
(-0.0003216501563 2.732599376e-18 -0.005906716314)
(-0.000442191547 2.179753194e-18 -0.005887662219)
(-0.0005595186443 1.320457423e-18 -0.005862961142)
(-0.0006728119693 5.723210013e-19 -0.005833080911)
(-0.0007819738008 -3.378374966e-19 -0.005798415979)
(-0.0008867745339 -2.197594327e-18 -0.005759357594)
(-0.0009870334054 -2.419636662e-18 -0.005716279057)
(-0.001082626993 -3.633932719e-18 -0.005669532215)
(-0.0011734686 -3.89972771e-18 -0.005619444425)
(-0.001259500431 -3.767456266e-18 -0.005566316489)
(-0.001340688476 -3.536520098e-18 -0.005510421393)
(-0.001417018284 -3.950776489e-18 -0.005452003297)
(-0.001488491238 -4.137623627e-18 -0.005391277229)
(-0.00155512095 -4.018352261e-18 -0.005328429229)
(-0.001616930902 -3.448131985e-18 -0.005263617192)
(-0.001673952184 -3.097434757e-18 -0.00519697173)
(-0.00172622108 -3.288706286e-18 -0.005128597741)
(-0.001773777609 -3.487977283e-18 -0.005058575761)
(-0.00181666433 -3.514035188e-18 -0.004986964077)
(-0.001854924667 -3.461745249e-18 -0.004913799555)
(-0.001888602239 -3.120072529e-18 -0.004839099258)
(-0.001917739081 -2.988631775e-18 -0.004762860518)
(-0.001942374197 -2.962111899e-18 -0.004685061538)
(-0.001962542252 -3.028508375e-18 -0.004605660612)
(-0.001978271152 -2.935474822e-18 -0.00452459417)
(-0.001989579228 -2.758652223e-18 -0.004441774205)
(-0.001996471919 -2.67049569e-18 -0.004357083778)
(-0.001998936903 -2.628510165e-18 -0.004270370473)
(-0.001996937926 -2.503380461e-18 -0.004181437342)
(-0.001990406434 -2.353837658e-18 -0.004090030005)
(-0.001979230124 -2.2622388e-18 -0.003995818667)
(-0.001963237318 -2.207646216e-18 -0.00389837271)
(-0.001942175153 -2.220406685e-18 -0.003797125192)
(-0.001915679728 -2.235435537e-18 -0.003691323523)
(-0.00188323603 -2.108878183e-18 -0.003579962538)
(-0.001844126495 -1.74921335e-18 -0.003461698257)
(-0.001797370856 -1.656429295e-18 -0.003334746563)
(-0.00174166538 -1.509484075e-18 -0.003196781494)
(-0.001675336055 -1.582061004e-18 -0.003044857231)
(-0.001596321399 -1.463929665e-18 -0.002875378059)
(-0.001502192385 -1.396870373e-18 -0.002684125786)
(-0.001390202594 -1.236787614e-18 -0.002466331345)
(-0.001257353154 -1.151047446e-18 -0.002216763647)
(-0.001100465394 -8.259452533e-19 -0.001929809151)
(-0.0009162593306 -6.324613296e-19 -0.001599529845)
(-0.0007013430222 -3.196983729e-19 -0.001219747922)
(-0.0004519040871 1.552086449e-19 -0.0007842726382)
(-0.0001632648705 -5.336265698e-20 -0.0002871560179)
(-8.102376294e-05 4.250789182e-18 -0.006162561983)
(-0.000209811165 3.298837407e-18 -0.006156361751)
(-0.0003302107022 6.978904962e-18 -0.006142821551)
(-0.0004539547589 3.440951685e-18 -0.006122692466)
(-0.0005744467655 3.202113292e-18 -0.006096593801)
(-0.000690819601 5.928685579e-19 -0.006065016639)
(-0.0008029739751 -3.08451884e-19 -0.006028375626)
(-0.000910675876 -2.031507931e-18 -0.005987080284)
(-0.001013737283 -2.464104648e-18 -0.005941522796)
(-0.001112028396 -3.665742717e-18 -0.005892070381)
(-0.001205455599 -4.198038119e-18 -0.005839065295)
(-0.001293953756 -4.042129866e-18 -0.005782822089)
(-0.001377481505 -4.020361327e-18 -0.005723626221)
(-0.001456017131 -3.966880602e-18 -0.005661733319)
(-0.001529554907 -3.963291118e-18 -0.005597368802)
(-0.0015981018 -3.68519624e-18 -0.005530728239)
(-0.001661675012 -3.272116887e-18 -0.005461978473)
(-0.00172029955 -3.459267615e-18 -0.005391258454)
(-0.001774006643 -3.680641451e-18 -0.005318681071)
(-0.00182283204 -3.644471391e-18 -0.005244334688)
(-0.001866814533 -3.708826928e-18 -0.00516828486)
(-0.00190599514 -3.844085543e-18 -0.005090575804)
(-0.001940415387 -3.625802444e-18 -0.005011231186)
(-0.001970115944 -3.530167537e-18 -0.004930254972)
(-0.001995135417 -3.461701479e-18 -0.004847631307)
(-0.002015508514 -3.570995409e-18 -0.004763323778)
(-0.002031263407 -3.383443419e-18 -0.004677273137)
(-0.002042418866 -3.117349572e-18 -0.004589394359)
(-0.002048980535 -2.855957649e-18 -0.004499571858)
(-0.002050935807 -2.670801076e-18 -0.004407652556)
(-0.002048247376 -2.246761382e-18 -0.004313436086)
(-0.002040844224 -2.338463369e-18 -0.004216661048)
(-0.002028609656 -2.186961006e-18 -0.00411698606)
(-0.002011364911 -2.174861069e-18 -0.004013963073)
(-0.001988846595 -2.15989473e-18 -0.003907000382)
(-0.001960676039 -2.352307502e-18 -0.003795311573)
(-0.001926318688 -2.298147209e-18 -0.003677847495)
(-0.001885033158 -2.201889331e-18 -0.003553210372)
(-0.001835813255 -2.238951424e-18 -0.003419556024)
(-0.001777331956 -2.040504895e-18 -0.003274500716)
(-0.001707901952 -1.990463258e-18 -0.003115056671)
(-0.001625467117 -1.583500144e-18 -0.002937618494)
(-0.001527629811 -1.356954876e-18 -0.002738005976)
(-0.001411705379 -1.356314147e-18 -0.002511546957)
(-0.001274789005 -1.713618636e-18 -0.002253173729)
(-0.001113828893 -1.295988989e-18 -0.001957507342)
(-0.0009257032201 -1.003651064e-18 -0.001618917797)
(-0.0007072045476 -8.578438436e-19 -0.001231611289)
(-0.0004547272911 -4.651659978e-19 -0.0007898602205)
(-0.0001638546407 -1.994964025e-19 -0.0002882361838)
(-8.316544459e-05 2.575729747e-18 -0.006409967187)
(-0.0002154211138 1.347440135e-18 -0.006403428597)
(-0.0003390689865 4.417547041e-18 -0.00638916163)
(-0.0004661274342 2.356132776e-18 -0.006367955234)
(-0.0005898949225 1.598265198e-18 -0.006340453408)
(-0.0007094548385 1.086649546e-18 -0.006307169426)
(-0.0008247061365 -7.635010657e-19 -0.006268537992)
(-0.0009354106807 -1.616243635e-18 -0.006224984702)
(-0.001041372749 -2.192557514e-18 -0.006176918367)
(-0.001142455347 -2.781071386e-18 -0.006124721895)
(-0.001238557873 -3.445245908e-18 -0.006068750679)
(-0.001329607741 -3.882372549e-18 -0.006009331681)
(-0.00141555605 -4.220540279e-18 -0.005946761877)
(-0.001496373655 -4.045037035e-18 -0.005881307667)
(-0.001572047645 -3.81641177e-18 -0.005813204386)
(-0.001642577917 -3.07536322e-18 -0.005742656766)
(-0.001707975052 -3.38783333e-18 -0.005669840415)
(-0.001768258422 -3.50211777e-18 -0.005594902846)
(-0.001823453981 -3.39924344e-18 -0.005517965226)
(-0.001873593028 -3.452708992e-18 -0.005439124129)
(-0.001918711061 -3.649587114e-18 -0.005358453149)
(-0.001958846242 -3.633012336e-18 -0.005276004282)
(-0.001994038054 -3.725205005e-18 -0.005191808792)
(-0.002024326233 -3.820740347e-18 -0.005105878118)
(-0.002049749011 -3.875194832e-18 -0.005018203117)
(-0.00207034093 -3.904881357e-18 -0.00492875315)
(-0.002086130303 -3.858782216e-18 -0.004837474103)
(-0.002097136359 -3.787757047e-18 -0.004744284747)
(-0.002103364953 -3.423371155e-18 -0.004649071426)
(-0.002104803161 -3.114751737e-18 -0.004551680751)
(-0.00210141246 -3.106300938e-18 -0.004451909197)
(-0.00209311923 -2.878841187e-18 -0.004349488566)
(-0.002079802262 -3.007167039e-18 -0.004244065939)
(-0.002061275601 -2.842958361e-18 -0.004135175825)
(-0.002037265299 -2.721476336e-18 -0.004022201753)
(-0.002007378098 -2.690003839e-18 -0.003904323811)
(-0.001971060484 -2.645715075e-18 -0.003780449765)
(-0.001927548406 -2.446313869e-18 -0.003649130002)
(-0.00187581163 -2.286630701e-18 -0.003508463863)
(-0.001814502365 -2.026315819e-18 -0.00335601496)
(-0.001741922513 -1.916079895e-18 -0.003188759393)
(-0.001656022645 -1.74995551e-18 -0.003003087241)
(-0.001554435521 -1.81591817e-18 -0.002794858448)
(-0.001434533996 -1.481925374e-18 -0.002559494749)
(-0.001293498857 -1.22471674e-18 -0.002292081923)
(-0.001128391963 -1.162201557e-18 -0.001987457236)
(-0.0009362324318 -6.731817285e-19 -0.00164027184)
(-0.0007139760559 -6.237671472e-20 -0.001245080161)
(-0.0004581970744 -6.005652204e-20 -0.0007965711549)
(-0.0001647054315 5.837044871e-20 -0.0002897795923)
(-8.539965227e-05 6.130056029e-19 -0.006668199187)
(-0.0002212737148 1.420182524e-18 -0.006661320088)
(-0.0003483107963 3.986204953e-18 -0.006646325316)
(-0.000478826254 3.760258418e-18 -0.006624037734)
(-0.0006060082686 1.269892251e-18 -0.006595124697)
(-0.000728889703 9.858022775e-19 -0.006560122461)
(-0.000847366885 -3.76498071e-19 -0.00651948284)
(-0.0009611971058 -2.021417818e-18 -0.006473648054)
(-0.001070177416 -2.957051882e-18 -0.006423040812)
(-0.001174162894 -2.095055041e-18 -0.006368057789)
(-0.001273045433 -3.354744883e-18 -0.006309067311)
(-0.001366745112 -3.719076162e-18 -0.006246407873)
(-0.001455205602 -4.027962978e-18 -0.006180386983)
(-0.001538390253 -4.070673219e-18 -0.006111280689)
(-0.001616278488 -3.948929948e-18 -0.006039333607)
(-0.001688863386 -3.699245564e-18 -0.005964759635)
(-0.001756149364 -3.948237233e-18 -0.005887743142)
(-0.001818149805 -3.933690065e-18 -0.005808440266)
(-0.001874885649 -4.084432592e-18 -0.005726980677)
(-0.001926384092 -3.991119662e-18 -0.005643469627)
(-0.001972677003 -4.002375866e-18 -0.00555798923)
(-0.002013800073 -3.925104657e-18 -0.00547060008)
(-0.00204979121 -4.007783133e-18 -0.005381341771)
(-0.002080688893 -3.823456591e-18 -0.005290233619)
(-0.00210653091 -3.958612219e-18 -0.005197274184)
(-0.002127351883 -4.094094222e-18 -0.005102439505)
(-0.002143180455 -4.251508855e-18 -0.005005681158)
(-0.002154036254 -4.334671611e-18 -0.004906922274)
(-0.002159925288 -4.012791307e-18 -0.004806051708)
(-0.0021608343 -3.652931603e-18 -0.004702916173)
(-0.00215672341 -3.586453017e-18 -0.004597309224)
(-0.002147516274 -3.552639665e-18 -0.004488956054)
(-0.002133087045 -3.645418377e-18 -0.004377492336)
(-0.002113242525 -3.741202743e-18 -0.004262435223)
(-0.002087698237 -3.601546713e-18 -0.004143143597)
(-0.002056046561 -3.37378669e-18 -0.004018764458)
(-0.002017715601 -3.06584685e-18 -0.003888163535)
(-0.001971919732 -2.80255972e-18 -0.003749841493)
(-0.001917606357 -2.57550421e-18 -0.003601844646)
(-0.001853409018 -2.550947899e-18 -0.003441688615)