/*--------------------------------*- C++ -*----------------------------------*\
  =========                 |
  \\      /  F ield         | OpenFOAM: The Open Source CFD Toolbox
   \\    /   O peration     | Website:  https://openfoam.org
    \\  /    A nd           | Version:  7
     \\/     M anipulation  |
\*---------------------------------------------------------------------------*/
FoamFile
{
    version     2.0;
    format      ascii;
    class       volScalarField;
    location    "0.0027";
    object      p;
}
// * * * * * * * * * * * * * * * * * * * * * * * * * * * * * * * * * * * * * //

dimensions      [1 -1 -2 0 0 0 0];

internalField   nonuniform List<scalar> 
1167
(
584998.401
586861.3384
587418.4159
588477.662
589848.3
591311.8694
592690.4876
593884.3338
594848.4032
595585.2828
596136.7519
596556.2675
596893.0428
597187.7814
597472.5781
597769.1184
598093.0841
598457.1001
598869.0404
599330.7483
599844.8025
600408.4468
601018.2122
601668.0934
602350.7528
603056.8247
603776.394
604497.7994
605209.621
605899.528
606556.2929
607169.0623
607728.8771
608228.2231
573284.4854
575233.3325
575668.9868
576598.9366
577872.7353
579291.2006
580716.8481
582033.8558
583170.0927
584100.7718
584840.6916
585429.7142
585913.5883
586334.281
586723.6271
587106.3222
587500.3516
587921.7444
588376.8994
588869.7661
589403.4454
589975.249
590582.9878
591220.2606
591880.8916
592555.5071
593235.3032
593909.4774
594567.907
595199.8244
595795.7557
596346.7876
596845.8967
597287.4496
597668.0275
597985.9011
598241.3646
598436.1921
598573.478
598657.4506
598693.0095
598685.4683
598640.2972
598562.9825
598458.9142
598333.4097
598190.9618
598032.3098
597855.1864
597684.957
561867.6421
563877.6239
564215.8346
565034.8997
566212.3722
567556.5174
568975.0602
570352.2491
571606.7015
572688.865
573590.498
574333.8763
574955.2106
575493.3572
575981.0485
576444.2
576905.2989
577378.926
577872.6603
578393.439
578943.1178
579520.6424
580123.7186
580746.8341
581384.1804
582027.3429
582668.1545
583297.2367
583905.4852
584483.9719
585024.6063
585520.4395
585965.9446
586357.1716
586691.95
586969.5877
587191.0814
587358.5809
587475.2786
587545.2095
587572.8762
587563.0405
587520.5527
587450.2
587356.646
587244.4732
587117.5249
586976.3024
586818.6372
586667.0303
550674.9762
552727.5748
552985.0454
553719.6834
554807.0154
556070.249
557442.6937
558836.1848
560160.2637
561353.537
562387.5817
563265.703
564012.0404
564659.6302
565239.0579
565778.9312
566302.8484
566824.4606
567353.5622
567898.7164
568461.2186
569042.1787
569638.4977
570246.3942
570859.8885
571472.186
572075.4287
572661.9684
573223.6015
573753.2224
574243.9948
574690.7088
575089.0823
575436.5986
575732.0112
575975.4359
576168.3276
576313.0378
576412.786
576471.3553
576492.8556
576481.5447
576441.7327
576377.6079
576293.2189
576192.5317
576078.8489
575952.4802
575811.3511
575675.5512
539653.747
541731.4385
541926.3025
542592.7859
543596.4629
544784.8804
546096.552
547474.0617
548830.8615
550097.7529
551233.7089
552225.3628
553082.7587
553829.8659
554495.3317
555108.4056
555689.9853
556255.2508
556817.4546
557383.8096
557956.7843
558538.8906
559127.0035
559718.8155
560308.4957
560890.7152
561458.2474
562004.8953
562523.6269
563008.7608
563454.8351
563857.959
564215.0355
564524.598
564786.1397
565000.4349
565169.1931
565294.8573
565380.5912
565429.9168
565446.5766
565434.3837
565397.1587
565338.5792
565262.1765
565171.3997
565069.0993
564955.4312
564828.411
564706.0838
528757.2285
530854.6561
531005.834
531611.9689
532541.531
533662.7716
534913.0981
536251.584
537612.1711
538923.3641
540133.0897
541215.3673
542166.9613
543003.6001
543749.6495
544429.7898
545064.4115
545670.2849
546262.3212
546846.7016
547428.6843
548010.0721
548589.248
549164.4056
549730.789
550283.9588
550817.8725
551327.4064
551806.8808
552251.7786
552657.9265
553022.5301
553343.4959
553620.1575
553852.6026
554042.0708
554190.4338
554300.1582
554374.2794
554416.0694
554428.9319
554416.285
554381.5213
554327.8792
554258.4509
554176.2487
554083.7442
553980.9688
553866.0222
553755.2127
517964.218
520074.9542
520188.979
520742.5676
521612.3885
522668.1318
523859.7661
525152.4387
526494.8142
527824.01
529083.0908
530235.1533
531266.4711
532182.9032
533001.2769
533742.0986
534424.9043
535069.1661
535687.6246
536287.5156
536876.5675
537455.6457
538025.372
538583.6532
539127.5673
539653.0082
540155.6171
540630.8811
541074.6983
541483.344
541853.9993
542184.6225
542474.0627
542722.2364
542929.7041
543097.9908
543229.0853
543325.4292
543389.9066
543425.5407
543435.4161
543422.6223
543390.1742
543340.9284
543277.6019
543202.838
543118.7895
543025.3875
542920.8104
542819.8837
507259.6368
509370.3315
509450.4965
509956.543
510778.4142
511773.0103
512911.7756
514158.1622
515471.6919
516799.1747
518086.4355
519289.546
520385.6915
521369.4814
522250.5132
523045.1045
523772.3819
524451.2036
525092.8273
525706.9718
526301.0052
526876.73
527436.4129
527978.0198
528500.3164
528999.624
529473.1452
529917.0144
530328.5106
530704.6642
531043.8011
531344.4951
531606.4362
531829.94
532015.9398
532166.1409
532282.568
532367.6642
532424.1225
532454.7255
532462.2665
532449.5518
532419.2667
532373.9386
532315.9635
532247.6719
532170.947
532085.6392
531989.9996
531897.5835
496618.9335
498721.058
498771.9151
499240.5709
500020.4256
500961.2381
502047.7885
503249.6771
504530.3932
505845.6072
507144.5447
508381.3042
509525.6689
510564.0151
511498.3202
512339.9503
513107.977
513816.9742
514478.5375
515104.9965
515702.3218
516274.3145
516823.5102
517349.0282
517850.5851
518325.5311
518772.0753
519187.3556
519569.6097
519916.7645
520227.9333
520502.3472
520740.2786
520942.3632
521109.9038
521244.651
521348.6229
521424.2429
521474.0146
521500.5001
521506.2387
521493.7684
521465.4929
521423.6591
521370.3897
521307.7478
521237.3886
521159.0971
521071.1919
520986.1357
486029.8897
488114.4764
488139.5132
488581.6799
489321.1774
490216.8741
491251.8194
492411.4677
493657.1482
494952.0223
496250.596
497506.9468
498686.2188
499767.4444
500745.0776
501628.7053
502431.8331
503166.7409
503846.2506
504482.5987
505081.5895
505649.2121
506187.5685
506697.7933
507179.626
507632.03
508053.7314
508443.1099
508799.0364
509120.3595
509406.801
509658.1712
509875.162
510058.6868
510210.3309
510331.8574
510425.2673
510492.8924
510537.0809
510560.1957
510564.5514
510552.4453
510526.036
510487.3291
510438.2128
510380.5222
510315.7185
510243.5343
510162.3512
510083.6874
475475.8129
477536.147
477546.6838
477964.7103
478665.2744
479524.325
480513.8047
481628.9571
482841.3894
484112.222
485401.7386
486666.3115
487868.0381
488980.0204
489993.8001
490913.0621
491745.3253
492501.7789
493197.0133
493841.0401
494440.6603
495003.0331
495530.5299
496026.0367
496489.2626
496920.8037
497319.7113
497685.6517
498017.8799
498316.2427
498580.7953
498811.9594
499010.7013
499178.1793
499316.1146
499426.31
499510.7314
499571.6088
499611.1365
499631.4861
499634.7969
499623.1458
499598.4735
499562.576
499517.1408
499463.8086
499403.8751
499337.0315
499261.7182
499188.633
464950.0029
466986.2142
466988.3866
467382.5308
468048.8491
468874.0687
469823.7433
470894.9794
472071.0341
473316.4273
474591.7801
475855.4796
477069.1936
478204.1532
479247.0826
480193.8187
481049.3088
481824.2931
482531.9745
483181.089
483780.727
484337.2245
484854.2237
485335.3784
485781.2499
486193.3897
486571.5222
486916.2047
487227.1974
487505.1096
487750.284
487963.7294
488146.556
488300.1206
488426.2308
488526.6859
488603.4559
488658.6379
488694.2784
488712.3739
488714.916
488703.7854
488680.7314
488647.3688
488605.212
488555.7349
488500.0924
488437.9429
488367.7818
488299.5908
454454.6139
456463.3735
456453.8001
456823.2619
457463.9275
458253.15
459170.1747
460204.1095
461341.9661
462558.2907
463815.0252
465072.271
466291.4146
467442.3082
468505.0917
469472.2822
470345.5343
471135.895
471852.7245
472504.8765
473103.2132
473652.9793
474159.7762
474627.0929
475056.8868
475451.0934
475810.3351
476135.7829
476427.8029
476687.4938
476915.5813
477113.4444
477282.3258
477423.8329
477539.7415
477631.8274
477702.0744
477752.4423
477784.8438
477801.1255
477803.1266
477792.5625
477771.0192
477739.954
477700.7324
477654.6841
477602.8433
477544.8429
477479.2305
477415.3588
443985.1284
445958.2972
445938.5684
446285.4945
446903.9466
447659.5658
448546.6905
449546.8601
450650.7425
451836.2662
453070.781
454316.9196
455535.2972
456693.2095
457768.2251
458748.9295
459636.2831
460437.5874
461160.1741
461814.3403
462409.781
462952.2492
463448.8374
463902.7966
464317.6015
464695.1324
465037.2465
465345.2641
465620.3291
465863.8218
466076.8371
466260.9947
466417.678
466548.7058
466655.7998
466740.7153
466805.3935
466851.6889
466881.3929
466896.2198
466897.8671
466887.9061
466867.7799
466838.8101
466802.2324
466759.2523
466710.8004
466656.4903
466594.9194
466534.8841
433536.0032
435467.5044
435436.8785
435770.9383
436366.968
437093.1483
437945.567
438916.5826
439988.7812
441144.6902
442355.4647
443585.8732
444797.2834
445955.9031
447036.3762
448025.4652
448922.7685
449730.711
450455.9835
451110.3471
451701.5595
452236.6955
452722.9163
453164.1425
453564.7614
453926.884
454253.347
454545.5575
454805.4388
455034.4513
455234.1535
455406.2653
455552.316
455674.2049
455773.6619
455852.4154
455912.3409
455955.1941
455982.6432
455996.3148
455997.7677
455988.4413
455969.6535
455942.6075
455908.4276
455868.2118
455822.8012
455771.7959
455713.8403
455657.2363
423103.7684
424986.1122
424949.1478
425272.7435
425843.9029
426546.5039
427366.1757
428307.8417
429351.5024
430478.3981
431664.0457
432875.8651
434075.9711
435229.4619
436309.8504
437303.8281
438205.625
439015.9994
439742.1592
440394.3936
440979.861
441507.3598
441983.1355
442412.3201
442799.5415
443147.5113
443459.5578
443737.4902
443983.6833
444199.7382
444387.6549
444549.1528
444685.8886
444799.8058
444892.618
444966.0713
445021.9426
445061.892
445087.4748
445100.2446
445101.6348
445092.9674
445075.4499
445050.1829
445018.1933
444980.4859
444937.8247
444889.8006
444835.1036
444781.5916
412679.3128
414515.0515
414479.8884
414790.059
415336.2838
416018.4212
416810.528
417719.0812
418734.5048
419834.7871
420994.8379
422185.4067
423369.2978
424512.8918
425590.0527
426583.9228
427485.6039
428294.6918
429019.6245
429667.7667
430246.5276
430765.6454
431230.8003
431648.4204
432022.8359
432357.7853
432656.6232
432921.6262
433155.4717
433359.9902
433537.4029
433689.4614
433818.0436
433925.0066
434012.0361
434080.9222
434133.329
434170.8323
434194.8958
434206.9794
434208.4156
434200.4255
434184.1204
434160.5102
434130.5367
434095.1232
434054.967
434009.6536
433957.9169
433907.2139
402269.6245
404058.6217
404023.7704
404319.7253
404846.2033
405504.0433
406271.5374
407149.9929
408134.4037
409206.5278
410341.4383
411509.1405
412675.2198
413806.9565
414877.0731
415865.641
416762.8022
417568.5374
418289.3213
418931.0827
419502.6902
420012.7377
420467.3177
420873.5823
421235.7909
421558.6083
421845.151
422098.4586
422321.1646
422515.3561
422683.3901
422827.0703
422948.4704
423049.3463
423131.3637
423196.3015
423245.7427
423281.1823
423304.0078
423315.5885
423317.1655
423309.8711
423294.7311
423272.6761
423244.5734
423211.275
423173.42
423130.5919
423081.5677
423033.4385
391881.7683
393615.6394
393578.5355
393858.4256
394368.9537
395000.7225
395746.9164
396598.7464
397553.0044
398595.2284
399703.9102
400847.9971
401995.1241
403111.9943
404170.1275
405149.2882
406038.305
406838.3256
407552.2774
408185.8597
408749.199
409249.3923
409693.6389
410088.7599
410439.4443
410750.7558
411025.8975
411268.4856
411480.9862
411665.9205
411825.5816
411961.8628
412076.8894
412172.4085
412250.0628
412311.5846
412358.486
412392.1733
412414.0006
412425.2374
412427.0393
412420.4582
412406.4456
412385.8621
412359.51
412328.1784
412292.4557
412251.9262
412205.4091
412159.6592
381508.385
383182.9501
383143.1551
383411
383905.4371
384512.4613
385234.3928
386061.9613
386988.6541
388002.6455
389083.7629
390202.9408
391327.8473
392425.8859
393468.3658
394433.9605
395313.298
396104.3233
396808.8197
397433.4316
397987.0776
398476.6696
398910.5424
399294.5883
399634.3495
399934.8122
400199.4639
400432.093
400635.2492
400811.8115
400963.9427
401093.6253
401202.9903
401293.7574
401367.604
401426.1693
401470.8988
401503.1194
401524.1529
401535.179
401537.2761
401531.4246
401518.5092
401499.3292
401474.6288
401445.1419
401411.4125
401373.0279
401328.8493
401285.3189
371151.0375
372760.5449
372717.4173
372978.8425
373454.0026
374039.4499
374733.399
375538.1016
376437.8021
377423.3734
378476.6062
379569.4804
380670.4305
381747.1713
382770.4746
383720.4441
384587.7054
385366.8611
386059.6234
386674.0843
387217.0886
387695.777
388118.8689
388491.8701
388821.1388
389111.2075
389366.0936
389589.5254
389784.2004
389953.088
390098.3446
390222.1375
390326.4637
390413.0098
390483.5159
390539.5105
390582.3806
390613.3935
390633.8069
390644.7337
390647.1853
390642.0778
390630.2361
390612.4042
390589.2753
390561.5336
390529.6837
390493.3188
390451.3414
390409.9007
360803.859
362343.8832
362304.9085
362558.4301
363011.1517
363578.8901
364246.6773
365023.9128
365899.5499
366857.2834
367881.9748
368947.3499
370022.4209
371074.6691
372076.7623
373009.937
373861.4506
374626.0019
375305.975
375908.5393
376439.4907
376907.1802
377319.2661
377681.4402
378000.3887
378280.4442
378526.165
378740.9921
378927.8621
379089.7192
379228.7226
379347.195
379447.0065
379529.8208
379597.3731
379651.1192
379692.3819
379722.3926
379742.3368
379753.264
379756.1245
379751.7767
379740.9919
379724.465
379702.8431
379676.7665
379646.705
379612.2591
379572.3724
379532.9173
350468.0712
351940.1416
351908.6231
352151.4197
352582.4943
353131.3941
353774.8987
354521.8765
355369.8963
356301.7613
357298.4426
358334.7386
359381.2848
360407.7283
361387.8747
362301.1374
363134.2708
363881.9391
364548.0924
365137.2858
365655.2573
366111.3837
366512.0642
366863.687
367172.5228
367443.0284
367679.9702
367886.6244
368066.2811
368221.6725
368355.0049
368468.6114
368564.3381
368643.8196
368708.7477
368760.5184
368800.3845
368829.5679
368849.1721
368860.1854
368863.5025
368859.9297
368850.1901
368834.9344
368814.7688
368790.294
368761.9484
368729.3417
368691.4588
368653.9072
353135.6551
353786.1149
354360.4662
354865.2706
355308.9956
355697.8556
356038.9922
356337.8313
356599.1868
356827.6985
357026.6432
357199.5176
357348.8685
357476.9929
357586.1444
357678.1184
357754.6107
357817.201
357867.233
357905.9026
357934.4046
357953.7749
357964.9464
357968.7617
357965.9792
357957.2778
357943.2683
357924.5202
357901.5983
357874.9132
357844.0846
357808.1385
357772.4275
)
;

boundaryField
{
    front_top
    {
        type            wedge;
    }
    front_middle
    {
        type            wedge;
    }
    front_bottom
    {
        type            wedge;
    }
    back_top
    {
        type            wedge;
    }
    back_middle
    {
        type            wedge;
    }
    back_bottom
    {
        type            wedge;
    }
    axis_top
    {
        type            symmetryPlane;
    }
    axis_middle
    {
        type            symmetryPlane;
    }
    axis_bottom
    {
        type            symmetryPlane;
    }
    wall_top
    {
        type            fixedFluxPressure;
        gradient        nonuniform 0();
        value           nonuniform 0();
    }
    wall_middle
    {
        type            fixedFluxPressure;
        gradient        nonuniform 0();
        value           nonuniform 0();
    }
    wall_bottom
    {
        type            fixedFluxPressure;
        gradient        uniform 0;
        value           nonuniform List<scalar> 
23
(
597684.957
586667.0303
575675.5512
564706.0838
553755.2127
542819.8837
531897.5835
520986.1357
510083.6874
499188.633
488299.5908
477415.3588
466534.8841
455657.2363
444781.5916
433907.2139
423033.4385
412159.6592
401285.3189
390409.9007
379532.9173
368653.9072
357772.4275
)
;
    }
    inlet
    {
        type            zeroGradient;
    }
    outlet
    {
        type            fixedValue;
        value           nonuniform 0();
    }
    procBoundary1to0
    {
        type            processor;
        value           nonuniform List<scalar> 
51
(
340151.911
341553.7829
341524.2292
341752.6269
342167.5042
342691.53
343314.4005
344034.7789
344851.3364
345754.5053
346722.0113
347728.9656
348747.029
349747.374
350703.1881
351593.6169
352405.7706
352405.7706
342387.3547
343020.2725
343578.352
344069.469
344500.3623
344877.3442
345207.7531
345496.5555
345749.082
345969.4975
346161.1651
346327.573
346471.2
346594.5099
346699.5555
346788.0813
346861.8577
346922.3428
346970.831
347008.4732
347036.4144
347055.6391
347067.029
347071.379
347069.4028
347061.7372
347048.9524
347031.5888
347010.1833
346985.1186
346956.0237
346921.9654
346888.0485
)
;
    }
    procBoundary1to2
    {
        type            processor;
        value           nonuniform List<scalar> 
51
(
597105.2457
598860.1097
599560.015
600756.7549
602208.0088
603648.5218
604902.619
605900.0685
606631.042
607135.8838
607477.909
607716.345
607898.8378
608061.7957
608234.7399
608439.0954
608687.955
608989.9566
609353.8916
609780.95
610271.2741
610823.4093
611432.2383
612092.4917
612795.5427
613532.4781
614292.0898
615062.4067
615830.4288
616582.6477
617305.8647
617987.2376
618615.5615
619181.1162
608662.0304
608662.0304
609027.2193
609323.0481
609550.7029
609713.0434
609814.3995
609860.0476
609855.8873
609808.1154
609723.0293
609606.8755
609465.8517
609305.238
609126.0775
608926.0076
608733.7901
)
;
    }
}


// ************************************************************************* //
