/*--------------------------------*- C++ -*----------------------------------*\
  =========                 |
  \\      /  F ield         | OpenFOAM: The Open Source CFD Toolbox
   \\    /   O peration     | Website:  https://openfoam.org
    \\  /    A nd           | Version:  7
     \\/     M anipulation  |
\*---------------------------------------------------------------------------*/
FoamFile
{
    version     2.0;
    format      ascii;
    class       volScalarField;
    location    "0.0027";
    object      rho;
}
// * * * * * * * * * * * * * * * * * * * * * * * * * * * * * * * * * * * * * //

dimensions      [1 -3 0 0 0 0 0];

internalField   nonuniform List<scalar> 
1167
(
936.6789872
936.6057275
936.4486683
936.2165461
935.9144692
935.5468198
935.1177969
934.6312427
934.0910014
933.5008182
932.8641968
932.1845705
931.4652514
930.7095203
929.9203613
929.1008293
928.2538354
927.3824076
926.48907
925.5765693
924.6476812
923.7047941
922.7506886
921.7877233
920.8186778
919.8458075
918.8718751
917.8992355
916.9304432
915.9678265
915.0137816
914.0704731
913.1399867
912.2242723
936.5584837
936.4852155
936.3281412
936.0960042
935.7940538
935.4264161
934.9975664
934.511211
933.9712049
933.3812504
932.7449524
932.0657477
931.3469257
930.5916923
929.8031045
928.9842198
928.1380623
927.2674647
926.3750587
925.4637446
924.5360916
923.5947433
922.642312
921.6813875
920.7145761
919.7443844
918.7733782
917.8041145
916.838963
915.8804089
914.9306503
913.9919675
913.066239
912.1555062
911.2612733
910.3849707
909.5278588
908.6908207
907.8746867
907.0799689
906.3069261
905.555719
904.8263961
904.1187682
903.4325206
902.7672403
902.1224471
901.4975867
900.8920637
900.305222
936.4380054
936.3647303
936.2076443
935.9756007
935.6736798
935.3061809
934.8773892
934.391241
933.8514797
933.261826
932.625882
931.9470823
931.2287307
930.4740223
929.6860422
928.8678739
928.0226029
927.1528986
926.2615602
925.3514996
924.4252104
923.4855458
922.5349472
921.5762283
920.61182
919.6444727
918.6765492
917.7107968
916.7493968
915.7949825
914.8495572
913.9155002
912.9944991
912.0886816
911.1993555
910.3280211
909.4757727
908.6435149
907.8320779
907.0418646
906.2731655
905.5261328
904.8008412
904.0970529
903.4144917
902.752754
902.111375
901.4898087
900.887472
900.3037148
936.3175571
936.2442768
936.0871828
935.8552672
935.5533529
935.1860157
934.7572726
934.2713405
933.731834
933.1424928
932.5069158
931.8285377
931.1106785
930.3565242
929.5691908
928.7518841
927.9074592
927.0387245
926.1486138
925.2398441
924.3151016
923.3771934
922.428599
921.4722089
920.5103865
919.5459904
918.5813352
917.6191453
916.6616559
915.7113579
914.7703576
913.8408431
912.9245789
912.023558
911.1390471
910.2725693
909.4250621
908.5974693
907.7905814
907.0047432
906.2402636
905.4973143
904.775917
904.0758663
903.3968969
902.7386136
902.1005657
901.4822148
900.8829888
900.3022433
936.1971433
936.1238599
935.9668746
935.7349795
935.4330786
935.0659102
934.6373538
934.1515175
933.6122765
933.0232599
932.3880644
931.710126
930.9927828
930.2392132
929.4526538
928.6361687
927.7926505
926.9249843
926.0361643
925.1287878
924.2057537
923.2696777
922.3232946
921.3692961
920.4102553
919.4488593
918.4876131
917.5290346
916.5755227
915.6293689
914.6927981
913.7678044
912.8562503
911.9599339
911.0801669
910.2184226
909.375545
908.5525263
907.7500421
906.9684656
906.2080969
905.4691299
904.7515311
904.0551307
903.3796721
902.7247678
902.0899802
901.4747776
900.878598
900.3008021
936.0767687
936.0035564
935.8466313
935.6147433
935.3129758
934.94587
934.5175116
934.0318514
933.4928158
932.9041373
932.2693393
931.5918604
930.8750583
930.1221724
929.3363937
928.5207471
927.6781978
926.8117595
925.9242253
925.0183409
924.0971218
923.1629932
922.2189403
921.2674523
920.3113034
919.3530079
918.3952549
917.4403538
916.4908614
915.548871
914.6167222
913.6962191
912.7893219
911.8976396
911.0225669
910.1654196
909.3270693
908.5085187
907.7103338
906.9329183
906.1765655
905.4414914
904.7276092
904.0347833
903.3627656
902.7111756
902.0795874
901.4674752
900.8742867
900.2993869
935.9565617
935.8833585
935.7264379
935.4945634
935.1929604
934.8259011
934.3977509
933.9123322
933.3735399
932.7851427
932.1507525
931.4737692
930.7575989
930.005407
929.2203955
928.4056386
927.564151
926.6989807
925.8128157
924.9086221
923.9892075
923.0571718
922.1155149
921.1666545
920.213481
919.2583849
918.3041776
917.3530244
916.4075586
915.4697504
914.5419945
913.6259457
912.7236493
911.8365307
910.9660685
910.113428
909.2795105
908.4653319
907.671353
906.8980092
906.1455882
905.4143284
904.7040909
904.0147736
903.346136
902.6978036
902.0693619
901.46029
900.8700444
900.2979944
935.8364106
935.7632105
935.6062991
935.3744873
935.073013
934.7060641
934.2780787
933.7929143
933.2544323
932.6664029
932.0324283
931.3559656
930.6403788
929.8888784
929.1046777
928.2908626
927.4505798
926.5866657
925.7019494
924.7995324
923.8820148
922.9522345
922.012996
921.0669346
920.1167437
919.164993
918.2143069
917.2670014
916.325514
915.3919485
914.468498
913.5569019
912.6591097
911.7764858
910.910555
910.0623371
909.2327664
908.4228717
907.6330148
906.8636628
906.1151247
905.3875839
904.6809276
903.9950606
903.3297496
902.6846253
902.0592834
901.4532077
900.8658628
900.2966218
935.7163115
935.6431168
935.4862196
935.254571
934.9531386
934.5863875
934.1585016
933.6736054
933.1354497
932.5478054
931.9142791
931.2383494
930.5233759
929.7726043
928.9892587
928.1765057
927.3374202
926.474831
925.5917118
924.69108
923.7755445
922.8481043
921.9113681
920.9681849
920.0210476
919.0726987
918.1255757
917.1821417
916.2446396
915.3153048
914.3961316
913.488969
912.595599
911.7174082
910.8559285
910.0120548
909.1867968
908.3810608
907.5952497
906.8298175
906.0850997
905.3612114
904.6580798
903.9756114
903.3135793
902.6716189
902.0493357
901.4462169
900.8617351
900.2952669
935.5962686
935.5230818
935.3662559
935.1347244
934.8333423
934.4667998
934.0390906
933.5544132
933.0166006
932.4293605
931.7963048
931.1209346
930.4066064
929.6566021
928.8741722
928.0625689
927.2246895
926.3634919
925.4820837
924.5832716
923.6698593
922.7447745
921.8106226
920.8703773
919.926353
918.9814513
918.0379233
917.0983755
916.1648582
915.2397359
914.3248083
913.4220329
912.533029
911.6592579
910.8021071
909.9625045
909.1414848
908.3398352
907.5580007
906.7964232
906.0554647
905.3351736
904.6355158
903.9563995
903.2976035
902.6587674
902.0395055
901.4393084
900.8576559
900.293928
935.4762863
935.4031199
935.2464446
935.0149515
934.7136753
934.3473067
933.9198492
933.4353561
932.8978935
932.3110784
931.6785175
931.0037355
930.2900867
929.5408904
928.7595244
927.9490167
927.1124033
926.2527145
925.373034
924.4761141
923.5649354
922.6422419
921.7108312
920.7734818
919.8326929
918.8912047
917.9513464
917.0156409
916.0861269
915.1651695
914.2544529
913.3560179
912.4713246
911.6019105
910.7490222
909.9136224
909.096772
908.2991424
907.5212212
906.7634389
906.0261844
905.3094399
904.6132099
903.9374033
903.2818047
902.6460568
902.0297824
901.4324749
900.853621
900.2926035
935.3564325
935.2833521
935.1267044
934.895257
934.5941817
934.2279139
933.8007224
933.3165498
932.7793509
932.1929693
931.5609293
930.8867656
930.1738447
929.4256007
928.6452273
927.8358664
927.0005769
926.1425169
925.2645722
924.3696193
923.460734
922.5404957
921.6118816
920.6774764
919.7399799
918.8019175
917.8657738
916.933883
916.0084113
915.0915426
914.1850405
913.290859
912.4104223
911.5453048
910.6966164
909.8653554
909.0526104
908.2589396
907.4848737
906.7308584
905.9972293
905.2839856
904.5911411
903.9186058
903.2661687
902.6334759
902.0201579
901.4257105
900.8496268
900.2912924
935.2367208
935.1636547
935.0070395
934.7756455
934.4747813
934.1086271
933.6817171
933.1978836
932.661084
932.0751097
931.443599
930.7701037
930.0579895
929.310635
928.5312967
927.7231348
926.8892846
926.0328518
925.1567059
924.2638809
923.3572518
922.4395419
921.5137587
920.5823399
919.6481676
918.7135528
917.7811323
916.8530532
915.9316073
915.0188002
914.1165023
913.2265007
912.3502681
911.4893895
910.6448416
909.8176952
909.0089602
908.2191913
907.4489267
906.6986329
905.9685766
905.2587909
904.5692931
903.899993
903.2506846
902.6210161
902.0106254
901.4190105
900.8456706
900.2899938
935.1170808
935.0440314
934.8874539
934.6562306
934.3554792
933.9895684
933.5628398
933.0793645
932.5429855
931.9575
931.3265704
930.6537452
929.9424258
929.1960034
928.4177476
927.6108366
926.778529
925.9237287
925.0494413
924.1588018
923.254484
922.3394348
921.4164509
920.4881098
919.5572283
918.62609
917.6973831
916.7731085
915.8556693
914.946895
914.048763
913.1628969
912.2908683
911.4341197
910.5936567
909.7705787
908.965788
908.1798679
907.4133542
906.6667348
905.9402079
905.2338404
904.5476526
903.8815543
903.2353434
902.6086702
902.0011797
901.4123713
900.8417503
900.288707
934.9975164
934.9244861
934.767952
934.5369298
934.2362803
933.8706361
933.4440985
932.9609995
932.4250637
931.8400932
931.2097739
930.5376524
929.8271665
929.0817193
928.3045932
927.4990795
926.6682712
925.8151588
924.9428589
924.0543819
923.1524277
922.2400866
921.3199432
920.3947485
919.4671387
918.5395583
917.6144912
916.6940558
915.7805555
914.8757849
913.9817806
913.1000058
912.2321335
911.3794594
910.5430281
909.7239647
908.9230665
908.1409453
907.3781355
906.6351461
905.9121081
905.2091215
904.5262093
903.8632811
903.2201383
902.596433
901.9918166
901.40579
900.8378641
900.2874314
934.8780311
934.8050228
934.6486554
934.4177256
934.1171899
933.7518267
933.3256263
932.8427958
932.3073269
931.7228982
931.09322
930.421837
929.7122237
928.967795
928.1918972
927.3877939
926.5585215
925.7071501
924.8369186
923.9506234
923.0511255
922.1414872
921.2242202
920.3021974
919.3778756
918.4538584
917.5324274
916.6158445
915.7062317
914.8054783
913.9155173
913.0377911
912.1740273
911.3253779
910.4929275
909.6778279
908.880773
908.1024037
907.3432846
906.6038526
905.8842652
905.1846242
904.5049549
903.8451667
903.2050639
902.5843002
901.9825331
901.3992645
900.8340108
900.2861666
934.7586291
934.6857223
934.5294645
934.2986226
933.9983201
933.6331463
933.2073016
932.7248339
932.1897822
931.605924
930.9769187
930.3063101
929.5976094
928.8542782
928.0796834
927.2769742
926.449288
925.5997723
924.7315939
923.8475274
922.950585
922.0436258
921.1293133
920.2104393
919.2894178
918.3689655
917.451164
916.538417
915.6326676
914.7359187
913.8499419
912.9762224
912.1165211
911.2718489
910.4433631
909.632147
908.8388889
908.0642272
907.3087591
906.5728428
905.8566695
905.1603404
904.483883
903.8272058
903.1901161
902.5722685
901.9733266
901.3927931
900.8301894
900.2849123
934.6394418
934.566566
934.41037
934.1796258
933.879587
933.5146006
933.089131
932.6071032
932.0725074
931.4891793
930.8608798
930.1910825
929.4833915
928.741225
927.9678952
927.1666287
926.3405778
925.493013
924.6268867
923.7450923
922.8507424
921.9464941
921.0352024
920.1194581
919.2018157
918.2848573
917.3706794
916.4617468
915.5598356
914.6670583
913.7850282
912.9153324
912.0595907
911.2188501
910.3942985
909.5869044
908.7973988
908.0264026
907.2745452
906.5421073
905.8293135
905.1362641
904.4629886
903.8093944
903.1752915
902.5603355
901.9641952
901.3863743
900.8263991
900.2836681
934.5203491
934.4475041
934.2913765
934.0607811
933.7609779
933.3962496
932.9711207
932.4895553
931.9554951
931.3727979
930.7452024
930.0762783
929.3695854
928.6285627
927.8565423
927.0567652
926.2324689
925.3868284
924.5227981
923.643403
922.7515929
921.8500849
920.9418366
920.0292373
919.1149957
918.2015129
917.2910227
916.3858104
915.4877114
914.5988733
913.7207533
912.8550441
912.0032157
911.1663629
910.3457009
909.5420854
908.7562903
907.9889242
907.2406342
906.5116389
905.8021912
905.1123904
904.4422677
903.7917294
903.1605879
902.5484993
901.9551377
901.3800074
900.8226394
900.2824341
934.4013519
934.3285408
934.1724884
933.9421357
933.6424981
933.2781203
932.8532768
932.3721971
931.8386995
931.256665
930.6298289
929.961796
929.2561365
928.5163
927.7456331
926.9473931
926.1249289
925.2812215
924.4193288
923.5423796
922.6531346
921.754456
920.8492016
919.9397611
919.0289242
918.118913
917.2120979
916.3105863
915.4163384
914.5313428
913.6570971
912.7953348
911.9473786
911.1143714
910.2975563
909.4976778
908.7155528
907.9518107
907.2070187
906.4814317
905.7752979
905.0887154
904.4217174
903.7742085
903.1460034
902.5367585
901.9461531
901.3736916
900.8189099
900.2812099
934.2824544
934.2096806
934.0537592
933.823611
933.5241531
933.1601435
932.7356672
932.2550351
931.7221276
931.1407861
930.5147436
929.8476392
929.1430533
928.4044455
927.6351769
926.8386219
926.017925
925.1761941
924.3165385
923.4420108
922.555362
921.6595662
920.7572864
919.8510689
918.943585
918.0370401
917.1338863
916.2360557
915.3456374
914.4644483
913.5940466
912.7361885
911.8920654
911.0628975
910.2498519
909.4536711
908.6751775
907.9150222
907.173693
906.451481
905.7486299
905.0652365
904.4013355
903.7568301
903.1315368
902.5251121
901.9372405
901.3674264
900.8152103
900.2799955
934.1636613
934.0909376
933.9352209
933.7052119
933.4059918
933.0423251
932.6183035
932.1380764
931.6057862
931.025169
930.3999543
929.7338159
929.0303435
928.2930064
927.5252486
926.7303502
925.9114617
925.0717475
924.2144082
923.3422929
922.4582675
921.5653737
920.666082
919.7631239
918.8589637
917.9559252
917.0563712
916.1622014
915.2755864
914.3981737
913.5316356
912.6775912
911.837263
911.0119087
910.2025782
909.4100566
908.6351574
907.8785527
907.1406524
906.4217832
905.7221844
905.0419515
904.3811204
903.7395929
903.1171871
902.5135596
901.9283996
901.3612115
900.8115404
900.2787909
934.0450347
933.9724219
933.8168022
933.5869438
933.2880621
932.9246704
932.5011246
932.0214482
931.4896823
930.9098208
930.2854686
929.6203335
928.9180143
928.1820511
927.415823
926.6225828
925.8055431
924.9679329
924.1128921
923.2432191
922.3619332
921.4718728
920.5755799
919.675885
918.775047
917.875535
916.9795374
916.0890307
915.2061702
914.3325042
913.4697963
912.61953
911.7829596
910.9613806
910.1557273
909.366828
908.5955031
907.8423972
907.107893
906.3923354
905.6959592
905.0188587
904.361071
903.7224961
903.1029537
902.5021005
901.91963
901.3550468
900.8079
900.2775961
924.8647519
924.0119879
923.1447861
922.2662656
921.3790554
920.4858302
919.5893404
918.6918222
917.7958272
916.9033711
916.0165554
915.1373755
914.267427
913.4085166
912.5619939
911.7291456
910.911305
910.1092927
909.32398
908.5562133
907.8065517
907.0754117
906.3631351
905.6699526
904.9959569
904.3411864
903.7055391
903.0888364
902.4907345
901.9109316
901.348932
900.8042892
900.2764109
)
;

boundaryField
{
    front_top
    {
        type            wedge;
    }
    front_middle
    {
        type            wedge;
    }
    front_bottom
    {
        type            wedge;
    }
    back_top
    {
        type            wedge;
    }
    back_middle
    {
        type            wedge;
    }
    back_bottom
    {
        type            wedge;
    }
    axis_top
    {
        type            symmetryPlane;
    }
    axis_middle
    {
        type            symmetryPlane;
    }
    axis_bottom
    {
        type            symmetryPlane;
    }
    wall_top
    {
        type            calculated;
        value           nonuniform 0();
    }
    wall_middle
    {
        type            calculated;
        value           nonuniform 0();
    }
    wall_bottom
    {
        type            calculated;
        value           uniform 900.0184441;
    }
    inlet
    {
        type            calculated;
        value           nonuniform 0();
    }
    outlet
    {
        type            calculated;
        value           nonuniform 0();
    }
    procBoundary1to0
    {
        type            processor;
        value           nonuniform List<scalar> 
51
(
933.9265883
933.8540231
933.698508
933.4688115
933.1702833
932.8071853
932.3841368
931.9050371
931.373947
930.7947892
930.1713094
929.5072315
928.8061585
928.0715747
927.3068645
926.5153232
925.7001717
925.7001717
924.7621519
923.9116955
923.0470407
922.1712558
921.2869129
920.3967955
919.5034798
918.609307
917.7167887
916.8278593
915.9447138
915.0691897
914.2029528
913.3477856
912.5049733
911.675858
910.8616745
910.0632679
909.281507
908.5172642
907.7710139
907.0432065
906.334181
905.6441635
904.9732454
904.3214661
903.6887217
903.0748349
902.4794616
901.9023043
901.3428673
900.8007079
900.2752354
)
;
    }
    procBoundary1to2
    {
        type            processor;
        value           nonuniform List<scalar> 
51
(
936.7995903
936.7262614
936.5692205
936.3371174
936.0349192
935.6672641
935.2380743
934.7513286
934.2109775
933.6205305
932.983579
932.3035728
931.5838041
930.8274946
930.0378008
929.2176677
928.3700048
927.4977141
926.6035388
925.6899945
924.7599769
923.8157818
922.8601017
921.895356
920.9241862
919.9488709
918.9721612
917.996313
917.0240224
916.0574498
915.0991881
914.151279
913.2160191
912.2952643
911.3250391
911.3250391
910.4436499
909.581541
908.7395785
907.9185975
907.1192274
906.3416971
905.5861788
904.8526954
904.1411082
903.4510628
902.7821357
902.1338303
901.5055825
900.8967838
900.3067712
)
;
    }
}


// ************************************************************************* //
