/*--------------------------------*- C++ -*----------------------------------*\
  =========                 |
  \\      /  F ield         | OpenFOAM: The Open Source CFD Toolbox
   \\    /   O peration     | Website:  https://openfoam.org
    \\  /    A nd           | Version:  7
     \\/     M anipulation  |
\*---------------------------------------------------------------------------*/
FoamFile
{
    version     2.0;
    format      ascii;
    class       volScalarField;
    location    "0.0027";
    object      T;
}
// * * * * * * * * * * * * * * * * * * * * * * * * * * * * * * * * * * * * * //

dimensions      [0 0 0 1 0 0 0];

internalField   nonuniform List<scalar> 
1167
(
455.2237971
455.3350306
455.5735594
455.9262345
456.3854573
456.9447647
457.597996
458.3395503
459.1638339
460.0654077
461.0392003
462.0802421
463.1837397
464.3449339
465.5595049
466.8230062
468.1311909
469.4796076
470.8645599
472.281981
473.7277308
475.1982428
476.6893098
478.1973528
479.7181016
481.2480759
482.7829655
484.3190685
485.852335
487.3790401
488.8953198
490.3976478
491.8825962
493.3469277
455.4067723
455.5180475
455.7566607
456.109449
456.5685976
457.1280312
457.7811668
458.5226086
459.3467448
460.2482004
461.2217474
462.2624092
463.3654248
464.5261485
465.7401474
467.0029683
468.3101882
469.6576554
471.0415052
472.45743
473.9016078
475.3700719
476.8588749
478.3640721
479.8816615
481.4077642
482.938375
484.4694693
485.9972844
487.5178429
489.0275915
490.5228168
492.0004184
493.4570112
494.8900476
496.2970812
497.675924
499.0249845
500.342749
501.6282126
502.8807798
504.1000153
505.2856687
506.4378811
507.5570045
508.6435591
509.6981827
510.7216437
511.7147864
512.678564
455.5897564
455.7010706
455.9397631
456.2925002
456.751722
457.3110882
457.9643035
458.7056198
459.5295939
460.4308206
461.4040748
462.4443811
463.5469553
464.7071662
465.9205355
467.1825686
468.488745
469.8351635
471.217698
472.6320199
474.0744224
475.5406093
477.0268959
478.5289847
480.0431436
481.5651072
483.0911855
484.617049
486.1392289
487.6535097
489.1566433
490.6447568
492.1150511
493.5640026
494.9893768
496.3886159
497.7597992
499.1013018
500.411612
501.6899034
502.935531
504.148076
505.3272476
506.473268
507.5864286
508.6672362
509.7163054
510.7343922
511.7223225
512.6810408
455.772742
455.8840927
456.1228587
456.4754921
456.9348219
457.4940857
458.1473948
458.8885719
459.7123683
460.6133481
461.586289
462.6262142
463.7283124
464.887965
466.1006441
467.3616641
468.6668579
470.0121078
471.3930765
472.8057351
474.2460743
475.7098668
477.1933649
478.6921466
480.2025825
481.7202327
483.2414785
484.7620227
486.2783076
487.7863395
489.2827041
490.7638296
492.2267935
493.6682855
495.0861374
496.4777542
497.8414685
499.1755938
500.4786835
501.7500076
502.9888937
504.1948928
505.3678028
506.5077951
507.6151456
508.6903489
509.7339984
510.7468393
511.7296807
512.6834591
455.9557221
456.0671064
456.3057685
456.6584613
457.1178889
457.6770394
458.3302316
459.0714529
459.8950549
460.7957687
461.7683739
462.8078896
463.9094751
465.0685215
466.280313
467.5403804
468.8444966
470.1884231
471.567726
472.9785594
474.4165805
475.8778564
477.3582376
478.8536092
480.360009
481.8732624
483.389447
484.9045875
486.4148639
487.9165948
489.4061753
490.8803401
492.3360088
493.7701818
495.1806187
496.5648052
497.9212245
499.2481139
500.544214
501.8087506
503.0410676
504.2406824
505.4074841
506.5415888
507.6432597
508.7129806
509.7513253
510.7590297
511.7368872
512.6858276
456.1386899
456.2499945
456.4886265
456.8413991
457.3007418
457.8599405
458.5129985
459.2541411
460.0776402
460.9780672
461.9503117
462.9893871
464.0904206
465.2487074
466.4596001
467.7186874
469.0216282
470.3639824
471.7416247
473.1504767
474.58601
476.044586
477.5216599
479.0134302
480.5156151
482.0243075
483.5352919
485.0449175
486.5491115
488.044504
489.5273051
490.9945502
492.4430019
493.8699621
495.2730578
496.6500273
497.9993115
499.3191317
500.6084067
501.8663153
503.0922146
504.2855878
505.4464126
506.5747513
507.6708552
508.7351986
509.7683374
510.7709992
511.7439634
512.6881533
456.3214498
456.4327692
456.6714556
457.0242984
457.4835086
458.0427799
458.6956879
459.4366517
460.2599896
461.1602163
462.1320838
463.1706627
464.2710041
465.4285147
466.6385279
467.8965547
469.1981752
470.5388928
471.9147428
473.3213011
474.7543601
476.2100048
477.6836642
479.1716443
480.6694777
482.1734479
483.6791427
485.1831356
486.6812294
488.1702465
489.646308
491.1066846
492.5480028
493.967857
495.3637401
496.733633
498.0759297
499.3888316
500.6714289
501.9228511
503.1424664
504.3297232
505.4846862
506.6073649
507.6979998
508.7570572
509.785076
510.782777
511.7509263
512.6904417
456.5041716
456.6155149
456.8542486
457.2070866
457.6662185
458.2254652
458.8782892
459.6190544
460.4421283
461.3420216
462.3134995
463.3515427
464.4512651
465.6080021
466.8170678
468.0739523
469.374029
470.7131261
472.0870579
473.4911864
474.9216232
476.3740791
477.8442842
479.3282007
480.8216658
482.3206779
483.8211156
485.3193115
486.8113751
488.2939146
489.7633691
491.2168738
492.6512069
494.0640601
495.4528527
496.8157996
498.1512432
499.4573652
500.7334174
501.97848
503.1918879
504.3731814
505.5223841
506.6394962
507.7247485
508.7786
509.8015742
510.7943862
511.7577898
512.6926974
456.6868612
456.7982249
457.0369983
457.3896783
457.8488643
458.4079528
459.0607919
459.801337
460.6241223
461.5236553
462.4946928
463.5321807
464.6312375
465.7871426
466.9951908
468.2507457
469.5492883
470.8866564
472.2584368
473.660119
475.0877974
476.5369282
478.0035437
479.4832674
480.9722474
482.4662072
483.9613159
485.453671
486.9396873
488.4157623
489.8786486
491.3253064
492.7527798
494.1587257
495.5405521
496.8966748
498.2253163
499.5248572
500.7944844
502.0333012
503.2406015
504.4160375
505.5595703
506.671199
507.7511453
508.7998621
509.8178589
510.8058456
511.7645647
512.6949241
456.8695122
456.9808926
457.2196186
457.5722108
458.0314377
458.5903514
459.243088
459.983488
460.8059586
461.7051014
462.6756637
463.7125548
464.810896
465.9659087
467.1728449
468.4269329
469.723926
471.0594593
472.4289087
473.8280875
475.2527843
476.6985619
478.161455
479.6368873
481.1212839
482.6101142
484.0998381
485.5863236
487.0662878
488.535921
489.9922843
491.4321636
492.8528622
494.2519175
495.6269692
496.9763813
498.2983372
499.5914104
500.8547217
502.087396
503.2886853
504.4583524
505.5962966
506.7025164
507.7772255
508.8208719
509.8339514
510.8171703
511.7712601
512.6971246
457.052118
457.1634957
457.4020537
457.7546777
458.2138609
458.7726523
459.4251716
460.1654789
460.9876237
461.8863441
462.8563933
463.892643
464.9902151
466.1442717
467.3498656
468.6025685
469.8979172
471.2314317
472.5985214
473.995081
475.4166199
476.8589845
478.3179047
479.789107
481.2687226
482.752471
484.2366866
485.7173663
487.1912433
488.6545053
490.1043953
491.5375658
492.9515734
494.3438343
495.7122137
497.0550216
498.3703996
499.6571093
500.9142047
502.1408305
503.3361968
504.5001752
505.6326046
506.7334832
507.8030178
508.8416518
509.849869
510.8283722
511.7778829
512.6993012
457.2345749
457.3458502
457.5844272
457.9370719
458.3960663
458.9548468
459.6071266
460.3471328
461.1690832
462.0673678
463.0368633
464.072424
465.1691515
466.3220282
467.5263883
468.7776254
470.0712379
471.4025447
472.7672591
474.1610799
475.5793643
477.0182119
478.4730682
479.9399598
481.4146998
482.893342
484.3719731
485.8468853
487.3146081
488.7716146
490.2150206
491.641616
493.0490146
494.4345734
495.7963775
497.1326804
498.4415805
499.7220229
500.9729938
502.1936146
503.3831835
504.5415464
505.6685283
506.7641277
507.828545
508.8622201
509.8656254
510.839461
511.784439
512.7014559
457.4168622
457.5281442
457.7667328
458.1193863
458.5781762
459.136926
459.7889424
460.5286186
461.3501666
462.2480547
463.2169828
464.2517769
465.3475371
466.4993292
467.7023881
468.9520767
470.2437722
471.5728715
472.9351097
474.3259376
475.7410217
477.1762339
478.6269684
480.0894785
481.5592878
483.0327845
484.5058122
485.9749567
487.4365461
488.8873354
490.3242691
491.7444023
493.1452717
494.524217
495.8795374
497.2093711
498.5119441
499.7862085
501.0311399
502.2458273
503.4296825
504.5824978
505.7040945
506.7944722
507.8538253
508.8825912
509.8812316
510.8504444
511.7909327
512.70359
457.5990867
457.7103719
457.9489641
458.3014475
458.7601827
459.3187035
459.9706088
460.7099256
461.5310381
462.4284039
463.3966843
464.4307079
465.5255181
466.6761585
467.8778416
469.1258997
470.4155157
471.7423963
473.1020629
474.4898048
475.9015992
477.3329648
478.7796224
480.2376031
481.7025296
483.1708303
484.6382648
486.1016478
487.5571295
489.0017424
490.4322601
491.8459978
493.240334
494.6128366
495.9617591
497.2851949
498.5815436
499.8497133
501.0886846
502.2975134
503.4757237
504.6230546
505.7393244
506.8245341
507.878873
508.9027765
509.8966961
510.8613282
511.7973676
512.7057049
457.781243
457.8925273
458.1311144
458.4833813
458.942078
459.5003344
460.1521137
460.8910427
461.7116846
462.6084875
463.5760745
464.6092751
465.7030745
466.8524953
468.0527281
469.2989268
470.5865279
471.9111014
473.2679925
474.652681
476.0611001
477.4885412
478.931053
480.3843918
481.8444607
483.3074321
484.7693853
486.2269472
487.6764238
489.114902
490.5390603
491.9464689
493.3343442
494.7004893
496.0430964
497.3602176
498.6504232
499.9125764
501.1456614
502.3487015
503.5213312
504.6632373
505.774235
506.8543274
507.9036993
508.9227846
509.9120255
510.8721173
511.8037465
512.7078013
457.9633251
458.0746044
458.3129983
458.6652142
459.1238543
459.6818236
460.3332534
461.0719589
461.8920934
462.7882914
463.755137
464.78746
465.880187
467.0283201
468.2269482
469.4712653
470.7567927
472.0789738
473.4329604
474.8145621
476.2194574
477.642978
479.0812838
480.5299363
481.9851173
483.4427464
484.8992193
486.3509341
487.7944827
489.2268004
490.6447295
492.045873
493.4273602
494.7872243
496.1235943
497.4344799
498.7186191
499.9748292
501.2020475
502.3994148
503.5665245
504.7030619
505.8088396
506.883863
507.9283131
508.9426227
509.9272251
510.8828151
511.8100714
512.7098799
458.1453269
458.2564799
458.4947675
458.846939
459.30534
459.863162
460.5142133
461.2525507
462.0722531
462.9678018
463.9338561
464.9652452
466.056837
467.2035589
468.400465
469.6429234
470.9262966
472.2459043
473.5970072
474.9754453
476.3766584
477.7962917
479.2302646
480.6742624
482.124532
483.5768113
485.0278098
486.4736994
487.9113537
489.3375267
490.7493167
492.1442583
493.5194275
494.8730834
496.2032392
497.5080159
498.7861611
500.0364977
501.2579115
502.4496719
503.6113192
504.7425413
505.8431488
506.9131495
507.952721
508.9622959
509.9422989
510.8934245
511.8163441
512.7119414
458.3270477
458.4381817
458.6764359
459.0285481
459.4866631
460.0443404
460.6949833
461.4328341
462.2520447
463.1470049
464.1122164
465.1426138
466.2329193
467.3781246
468.5733654
469.8138878
471.0950282
472.4119119
473.7601292
475.1353329
476.5328021
477.9484944
479.3780261
480.8173952
482.2626244
483.7096615
485.1551904
486.5952844
488.0270802
489.4471567
490.8528632
492.241572
493.6105843
494.958102
496.2820897
497.5808535
498.8530737
500.0976029
501.3132754
502.4994878
503.6557276
504.7816857
505.8771706
506.9421934
507.9769284
508.9818083
509.9572498
510.9039475
511.8225657
512.713986
458.5086706
458.619786
458.8579965
459.2099712
459.6678428
460.2252674
460.8755539
461.6128831
462.4314787
463.3256949
464.2900653
465.3193744
466.4084099
467.552129
468.7456341
469.9841459
471.2628657
472.5770638
473.9223243
475.2940914
476.6878952
478.0995965
479.5246476
480.9593594
482.3995099
483.8413293
485.2812827
486.7157259
488.1417001
489.5557276
490.9554053
492.337937
493.700863
495.0423096
496.360198
497.6530163
498.9193771
500.1581537
501.3681534
502.5488741
503.6997593
504.8205027
505.9109114
506.9709996
508.0009392
509.0011629
509.9720802
510.9143858
511.8287372
512.7160142
458.6901941
458.8012861
459.0394425
459.3911361
459.8488711
460.405901
461.0559154
461.7926867
462.6106254
463.5040481
464.4674909
465.4956827
466.5833924
467.7255583
468.9172574
470.1536826
471.4298589
472.7413546
474.0835903
475.4518451
476.8419401
478.2495069
479.670151
481.1001795
482.5352407
483.9718443
485.4062382
486.8350571
488.255144
489.6632723
491.0569746
492.433389
493.7902913
495.1257315
496.4375865
497.7245237
498.985088
500.2181199
501.4225571
502.5978404
503.7434218
504.8589985
505.9443759
506.9995719
508.0247562
509.020362
509.9867917
510.9247405
511.8348593
512.7180261
458.8716116
458.982675
459.220692
459.5721628
460.0297392
460.5863473
461.2359638
461.972235
462.7894739
463.6820554
464.6445175
465.6715331
466.7578535
467.8983986
469.0882205
470.3223274
471.5960581
472.9047813
474.2438339
475.6086106
476.9949448
478.3982897
479.8145525
481.2397928
482.6698418
484.101234
485.5300856
486.9533076
488.3675373
489.7698197
491.1575914
492.5279533
493.8788913
495.2083322
496.5142753
497.7953927
499.0502204
500.277566
501.4764959
502.646394
503.7867211
504.8971775
505.9775677
507.0279131
508.0483815
509.0394071
510.0013853
510.9350122
511.8409323
512.7200218
459.0529162
459.1639312
459.4016962
459.7530434
460.2103724
460.7665968
461.4156809
462.1515166
462.9680133
463.8597049
464.8211321
465.8469128
466.9317807
468.0706384
469.2584068
470.490237
471.7614558
473.0673408
474.403084
475.7643932
477.1469203
478.5460091
479.9578659
481.3782567
482.8033355
484.2294485
485.652851
487.070504
488.4789143
489.8753954
491.2572013
492.621652
493.9666838
495.2901638
496.5902799
497.8656366
499.1147857
500.3365012
501.5299771
502.6945408
503.8296616
504.9350433
506.0104893
507.056025
508.0718165
509.0582993
510.015862
510.9452017
511.8469566
512.7220015
459.2340124
459.3448864
459.5825635
459.9337698
460.3906971
460.9466411
461.5951604
462.3303364
463.1462326
464.0369849
464.9973231
466.0218098
467.1051626
468.2421717
469.4278551
470.6574037
471.926045
473.2289533
474.5614111
475.919203
477.2977376
478.692674
480.1001039
481.5156347
482.9357418
484.3565398
485.7745578
487.1866343
488.5892988
489.980022
491.3559122
492.7145052
494.0536872
495.371265
496.6656124
497.9352656
499.1787663
500.3949337
501.583007
502.7422855
503.872247
504.9725984
506.0431426
507.083909
508.0950623
509.0770392
510.0302221
510.9553091
511.8529323
512.7239653
473.3896154
474.7188185
476.0730444
477.4475424
478.838296
480.241187
481.6519455
483.0670803
484.4825742
485.8952274
487.3016791
488.6987117
490.0837198
491.4537431
492.8065303
494.1399168
495.4516488
496.7402833
498.0042883
499.2421642
500.4528697
501.6355905
502.7896318
503.9144797
505.0098447
506.0755289
507.1115659
508.1181193
509.0956272
510.0444659
510.9653346
511.8588597
512.7259131
)
;

boundaryField
{
    front_top
    {
        type            wedge;
    }
    front_middle
    {
        type            wedge;
    }
    front_bottom
    {
        type            wedge;
    }
    back_top
    {
        type            wedge;
    }
    back_middle
    {
        type            wedge;
    }
    back_bottom
    {
        type            wedge;
    }
    axis_top
    {
        type            symmetryPlane;
    }
    axis_middle
    {
        type            symmetryPlane;
    }
    axis_bottom
    {
        type            symmetryPlane;
    }
    wall_top
    {
        type            convectiveRadiativeHeatFlux;
        mode            convectiveRadiative;
        kappaMethod     fluidThermo;
        kappa           none;
        alphaAni        Anialpha;
        h               nonuniform 0();
        Ta              constant 513.15;
        emissivityNozzle 0.95;
        emissivityFilament 0.95;
        dNozzle         2;
        dFilament       1.65;
        refValue        nonuniform 0();
        refGradient     nonuniform 0();
        valueFraction   nonuniform 0();
        value           nonuniform 0();
    }
    wall_middle
    {
        type            fixedValue;
        value           nonuniform 0();
    }
    wall_bottom
    {
        type            fixedValue;
        value           uniform 513.15;
    }
    inlet
    {
        type            fixedValue;
        value           nonuniform 0();
    }
    outlet
    {
        type            zeroGradient;
    }
    procBoundary1to0
    {
        type            processor;
        value           nonuniform List<scalar> 
51
(
459.4148796
459.525709
459.7632866
460.1143343
460.5708366
461.1264715
461.774392
462.5088682
463.3239305
464.2138223
465.1730548
466.1961633
467.2778555
468.4130052
469.5966198
470.8238212
472.0898213
472.0898213
473.5494083
474.8753056
476.2258435
477.5963479
478.9828883
480.3811731
481.787204
483.1973224
484.607572
486.01488
487.4157361
488.8071723
490.1864715
491.5507108
492.8977425
494.2253129
495.5313268
496.8143025
498.0727131
499.305018
500.5103131
501.6877307
502.8365821
503.9563616
505.0467834
506.1076489
507.1389963
508.1409879
509.1140635
510.0585935
510.9752783
511.8647386
512.727845
)
;
    }
    procBoundary1to2
    {
        type            processor;
        value           nonuniform List<scalar> 
51
(
455.0407177
455.1520277
455.3904675
455.7430227
456.2023115
456.7614836
457.4148008
458.1564564
458.9806957
459.882441
460.856489
461.8978466
463.0017524
464.16354
465.3786269
466.6427362
467.9516256
469.301041
470.6869484
472.1056414
473.552796
475.0249922
476.5181635
478.0286392
479.5523692
481.085841
482.6247673
484.1656066
485.7040898
487.2367625
488.7594529
490.2688336
491.7611438
493.2332982
494.7877677
494.7877677
496.2027784
497.5894887
498.9463331
500.2717884
501.5646587
502.8243942
504.0505386
505.2428809
506.4014778
507.5267438
508.6192139
509.6795513
510.7085384
511.7070396
512.676018
)
;
    }
}


// ************************************************************************* //
