/*--------------------------------*- C++ -*----------------------------------*\
  =========                 |
  \\      /  F ield         | OpenFOAM: The Open Source CFD Toolbox
   \\    /   O peration     | Website:  https://openfoam.org
    \\  /    A nd           | Version:  7
     \\/     M anipulation  |
\*---------------------------------------------------------------------------*/
FoamFile
{
    version     2.0;
    format      ascii;
    class       volScalarField;
    location    "0.0027";
    object      thermo:mu;
}
// * * * * * * * * * * * * * * * * * * * * * * * * * * * * * * * * * * * * * //

dimensions      [1 -1 -1 0 0 0 0];

internalField   nonuniform List<scalar> 
1167
(
62962.71049
62423.94963
61286.80031
59649.80107
57594.70807
55203.2258
52556.65541
49731.40585
46798.60033
43821.51543
40853.86047
37940.3502
35116.60124
32410.02112
29839.68673
27418.64
25154.10746
23049.17131
21102.1885
19309.46119
17665.32154
16162.0532
14791.73449
13545.31932
12414.15547
11389.01598
10461.48522
9623.084822
8865.987882
8182.700043
7566.339183
7010.444132
6509.096701
6056.87908
62079.34272
61549.255
60430.40036
58819.70606
56798.44674
54445.18703
51841.57048
49061.7779
46175.76248
43245.5133
40324.33548
37456.16624
34675.91939
32010.31179
29478.42631
27093.13764
24861.8799
22787.21005
20867.84167
19100.45584
17479.08681
15996.59257
14644.90138
13415.4223
12299.39822
11288.01224
10372.75178
9545.444475
8798.214929
8123.802116
7515.292846
6966.4097
6471.219616
6024.457546
5621.144314
5256.820758
4927.464251
4629.384894
4359.320072
4114.304311
3891.667593
3689.048788
3504.35335
3335.691572
3181.382356
3039.93291
2910.020696
2790.469634
2680.237089
2578.392738
61210.47117
60688.90925
59588.03764
58003.89266
56015.18132
53700.22521
51138.05587
48402.92845
45562.8932
42678.96749
39803.53252
36979.78848
34242.1445
31616.86427
29122.84881
26772.86288
24574.39227
22529.57073
20637.57402
18895.15447
17296.31572
15834.38118
14501.12931
13288.40482
12187.3507
11189.54752
10286.38785
9469.996302
8732.454702
8066.731608
7465.892155
6923.834728
6434.625512
5993.149568
5594.431365
5234.136213
4908.257611
4613.193233
4345.746906
4102.977602
3882.278869
3681.331749
3498.086165
3330.672325
3177.445797
3036.938288
2907.849098
2789.019322
2679.421521
2578.13727
60355.85975
59842.67955
58759.48618
57201.62207
55244.70593
52967.47979
50445.93936
47754.70012
44959.85039
42121.45381
39290.98399
36510.92439
33815.19299
31229.60925
28772.89616
26457.96477
24291.55681
22276.20097
20411.37878
18693.49673
17117.03644
15675.33491
14360.35482
13164.15736
12077.92565
11093.48365
10202.29319
9396.582285
8668.599341
8011.325542
7418.01723
6882.566242
6399.196765
5962.82519
5568.558376
5212.160706
4889.64426
4597.498025
4332.576782
4091.979096
3873.155097
3673.833586
3491.98661
3325.784029
3173.60966
3034.018576
2905.730927
2787.604199
2678.625509
2577.887864
59515.27469
59010.33512
57945.27886
56412.47892
54486.81614
52246.65926
49765.78117
47116.93772
44366.49433
41572.84754
38786.58244
36049.48293
33394.98729
30848.48021
28428.76675
26148.1175
24013.32969
22027.10693
20189.06172
18495.42341
16941.15407
15519.37199
14222.54602
13042.57794
11971.04174
10999.69157
10120.30994
9325.05918
8606.452181
7957.441572
7371.487236
6842.475424
6364.798912
5933.375668
5543.435939
5190.808752
4871.550437
4582.240355
4319.756636
4081.264737
3864.260125
3666.518161
3486.031208
3321.008156
3169.859608
3031.162996
2903.65844
2786.219131
2677.846182
2577.643625
58688.48498
58192.13668
57144.5423
55636.25427
53742.0092
51537.57381
49096.66625
46489.86016
43782.68763
41033.02809
38290.22433
35595.3765
32981.45325
30473.627
28090.23549
25843.27494
23739.67067
21782.37687
19970.56975
18300.87669
16768.52352
15366.41693
14087.51533
12923.56347
11866.51252
10908.05316
10040.28162
9255.300163
8545.881757
7904.955945
7326.184175
6803.452001
6331.319427
5904.709706
5518.990589
5170.009091
4853.914767
4567.358983
4307.243385
4070.798774
3855.564649
3659.36146
3480.20098
3316.329743
3166.184074
3028.362855
2901.625396
2784.859982
2677.081228
2577.403833
57876.09475
57387.75221
56356.92364
54872.73635
53009.50999
50840.03929
48438.41478
45873.20641
43208.67216
40501.91058
37801.8093
35148.57508
32574.78902
30104.94189
27757.15079
25543.39039
23470.60623
21541.77243
19755.86029
18109.98803
16599.07743
15216.44943
13955.17484
12807.0312
11764.23477
10818.47347
9962.096098
9187.207938
8486.776349
7853.768758
7282.006043
6765.401274
6298.671989
5876.74968
5495.137838
5149.703062
4836.686888
4552.811447
4295.001658
4060.552031
3847.044845
3652.344257
3474.480575
3311.736705
3162.573725
3025.611144
2899.626764
2783.523417
2676.328784
2577.167905
57077.07301
56596.54855
55582.20694
54121.98209
52288.96934
50154.18268
47790.86055
45266.5431
42644.17667
39979.88409
37321.68892
34709.35866
32174.77064
29742.185
27429.45996
25248.41609
23206.20534
21305.24734
19544.88174
17922.50832
16432.75441
15069.43349
13825.4382
12692.96322
11664.11418
10730.9113
9885.652162
9120.714365
8429.037422
7803.818294
7238.864582
6728.262888
6266.783193
5849.430306
5471.820751
5129.841695
4819.825434
4538.562795
4283.002433
4050.500658
3838.688439
3645.450951
3468.857565
3307.219279
3159.021032
3022.902217
2897.658495
2782.206755
2675.58735
2576.935377
56291.14261
55818.30712
54820.17994
53384.0867
51580.19117
49479.93562
47153.83867
44669.72156
42088.8148
39466.28002
36849.34788
34277.20755
31781.19476
29385.29575
27107.10955
24958.47397
22946.22464
21072.75268
19337.71621
17738.37986
16269.48929
14925.19885
13698.23006
12581.18479
11566.06034
10645.20059
9810.858045
9055.678329
8372.577915
7754.980159
7196.683328
6691.958824
6235.590575
5822.698883
5448.991547
5110.384083
4803.311957
4524.5842
4271.221881
4040.625161
3830.47363
3638.668869
3463.321889
3302.769578
3155.519925
3020.231528
2895.717331
2780.90784
2674.855723
2576.705871
55518.08538
55052.81245
54070.95489
52658.24949
50882.98478
48816.67467
46527.51895
44082.5931
41542.45286
38960.98269
36384.63714
33852.03827
31393.99175
29034.21372
26790.08709
24673.46312
22690.6143
20844.2374
19134.24716
17557.54394
16109.31171
14783.6772
13573.48629
12471.61643
11469.99007
10561.25735
9737.630524
8992.019038
8317.320737
7707.182236
7155.395927
6656.41553
6205.040823
5796.52933
5426.610047
5091.296037
4787.100957
4510.851809
4259.640397
4030.909577
3822.386264
3631.987717
3457.865398
3298.381233
3152.065514
3017.595418
2893.800655
2779.624942
2674.132937
2576.479089
54757.6869
54299.9157
53334.50503
51944.26926
50197.42288
48164.22373
45911.70879
43505.06365
41004.95909
38463.87712
35927.45802
33433.7674
31013.09172
28688.88078
26478.5736
24393.19582
22439.32097
20619.7532
18934.34016
17379.94254
15952.12016
14644.807
13451.24238
12364.17875
11375.89562
10479.00405
9665.936312
8929.664024
8263.214925
7660.361239
7114.944693
6621.581358
6175.088382
5770.858478
5404.64236
5072.548908
4771.168531
4497.345874
4248.241831
4021.340817
3814.415833
3625.399124
3452.481488
3294.049096
3148.653853
3014.990944
2891.906364
2778.35667
2673.418215
2576.254787
54010.13094
53560.11941
52610.08776
51241.94966
49523.52637
47522.40902
45305.92364
42937.49789
40476.26417
37974.84855
35477.71147
33022.30966
30638.46178
28349.56881
26172.21966
24117.61888
22192.29056
20399.25168
18737.93871
17205.52777
15797.79396
14508.51838
13331.30947
12258.80416
11283.65003
10398.37015
9595.687407
8868.548278
8210.21648
7614.461513
7075.302025
6587.411712
6145.694223
5745.6527
5383.05988
5054.118687
4755.494813
4484.050147
4237.013084
4011.915977
3806.553568
3618.896186
3447.164758
3289.768987
3145.281756
3012.415737
2890.032769
2777.101911
2672.710938
2576.032773
53275.24687
52832.40923
51897.50149
50551.09748
48860.61964
46891.05992
44710.00781
42379.17488
39956.68373
37494.05277
35035.47522
32617.80348
30270.32242
28015.8687
25870.9646
23846.67847
21949.59759
20182.55594
18544.98367
17034.38384
15646.2688
14374.76556
13213.62203
12155.4277
11193.17075
10319.29133
9526.797284
8808.61349
8158.235925
7569.433996
7036.416362
6553.867944
6116.82479
5720.883294
5361.838357
5035.998713
4740.063147
4470.951001
4225.94305
4002.619909
3798.792581
3612.473416
3441.910899
3285.537565
3141.946679
3009.867906
2888.178525
2775.859781
2672.010614
2575.812895
52552.36295
52116.58047
51196.54808
49872.13821
48208.52292
46270.60908
44123.806
41829.95067
39445.56939
37021.32623
34600.76114
32220.09356
29908.24234
27687.69831
25574.74485
23580.31512
21711.15651
19969.60657
18355.41435
16866.28614
15497.47949
14243.56674
13098.12059
12054.04947
11104.39611
10241.71961
9459.209434
8749.807136
8107.225269
7525.235541
6998.233703
6520.917231
6088.476058
5696.525014
5340.956859
5018.161802
4724.859451
4458.037013
4215.022535
3993.44373
3791.127237
3606.126391
3436.716464
3281.352174
3138.646604
3007.34596
2886.342574
2774.629583
2671.316856
2575.595033
51841.27528
51412.43253
50507.03274
49204.37165
47567.05921
45660.31601
43547.17135
41289.68325
38942.79417
36556.3224
34173.16297
31828.91636
29552.14147
27364.98483
25283.49298
23318.68672
21476.79675
19760.34801
18169.30107
16701.1716
15351.36585
14114.75534
12984.74354
11954.58932
11017.27077
10165.65219
9392.872335
8692.114327
8057.140518
7481.827292
6960.719948
6488.529666
6060.598685
5672.557108
5320.397851
5000.589491
4709.871908
4445.298669
4204.24396
3984.381482
3783.552885
3599.851502
3431.57867
3277.210685
3135.37993
3004.848718
2884.524082
2773.410771
2670.629361
2575.379092
51141.78434
50719.7686
49829.42598
48547.48813
46936.05414
45059.9699
42980.55334
40758.23305
38448.23151
36098.92714
33752.57974
31444.18243
29201.93836
27047.65344
24997.27005
23061.53315
21246.45592
19554.71929
17986.5017
16538.98228
15207.93298
13988.27013
12873.43035
11856.94757
10931.74085
10090.97424
9327.740381
8635.479295
8007.943915
7439.20194
6923.84421
6456.678889
6033.169376
5648.96143
5300.146326
4983.269507
4695.090585
4432.728023
4193.610508
3975.428262
3776.065719
3593.645814
3426.495272
3273.111399
3132.145384
3002.375251
2882.722394
2772.202919
2669.947894
2575.165001
50453.69461
50038.83018
49162.93206
47901.30745
46315.89055
44469.41101
42423.17673
40235.78531
37961.75334
35649.0264
33338.90994
31065.80119
28857.55168
26735.72646
24716.03075
22808.74991
21020.06894
19352.77639
17806.90238
16379.66029
15067.13601
13864.05042
12764.17608
11761.07127
10847.75608
10017.63913
9263.770604
8579.842644
7959.601179
7397.313411
6887.580078
6425.342119
6006.16898
5625.722125
5280.202216
4966.191368
4680.507089
4420.318426
4183.108136
3966.580017
3768.662618
3587.506944
3421.464465
3269.052959
3128.941961
2999.924829
2880.937003
2771.005698
2669.272273
2574.952703
49777.53253
49369.28182
48507.28931
47265.65274
45705.92036
43888.48191
41874.89517
39722.11221
37483.51723
35206.50737
32932.05213
30693.68155
28519.06513
26429.24441
24439.53218
22560.2667
20797.56899
19154.41867
17630.44101
16223.1443
14928.83281
13742.04076
12656.9171
11666.90968
10765.33492
9945.603358
9200.925859
8525.168874
7912.080717
7356.121998
6851.904429
6394.528964
5979.580871
5602.825444
5260.54748
4949.346086
4666.114282
4408.064275
4172.731704
3957.833399
3761.341028
3581.432961
3416.484799
3265.034286
3125.76887
2997.496883
2879.167514
2769.818853
2668.602361
2574.742156
49112.38769
48710.62615
47862.31728
46640.56587
45105.88392
43317.28514
41335.56199
39216.83246
37013.32791
34771.72266
32532.21234
30328.09195
28186.40194
26127.90019
24167.70186
22316.01311
20579.03363
18959.49176
17457.05515
16069.50514
14792.96687
13622.18857
12551.55688
11574.41358
10684.37949
9874.826111
9139.224645
8471.425432
7865.353975
7315.603171
6816.796447
6364.193635
5953.390439
5580.259399
5241.166009
4932.725918
4651.906067
4395.96247
4162.477568
3949.185631
3754.098854
3575.422297
3411.555112
3261.054529
3122.625492
2995.090974
2877.413626
2768.642193
2667.938054
2574.533329
48458.05711
48062.68152
47227.83877
46026.08266
44515.6187
42755.75679
40805.03338
38719.81378
36550.84374
34344.08957
32139.05059
29968.57827
27859.28562
25831.61302
23900.46542
22075.92348
20364.31503
18767.93118
17286.68367
15918.56418
14659.48689
13504.52215
12448.04296
11483.53549
10604.83201
9805.268996
9078.573587
8418.582288
7819.436361
7275.734702
6782.237343
6334.318606
5927.584751
5558.013459
5222.049344
4916.32416
4637.8772
4384.017718
4152.342658
3940.6344
3746.934371
3569.47368
3406.674474
3257.113013
3119.511347
2992.706766
2875.675113
2767.475576
2667.279275
2574.326199
47814.36054
47425.26971
46603.93389
45421.59294
43934.96566
42203.38021
40283.43891
38230.92259
36095.94167
33923.48873
31752.38035
29615.03024
27537.62889
25540.30334
23637.75166
21840.14909
20153.27022
18579.6714
17119.362
15770.25072
14528.33817
13388.94786
12346.32805
11394.28474
10526.65225
9736.896003
9018.940918
8366.611733
7774.264827
7236.496354
6748.21258
6304.890009
5902.152702
5536.09328
5203.189685
4900.134792
4624.023069
4372.215936
4142.324338
3932.177752
3739.846147
3563.58607
3401.84214
3253.209212
3116.426066
2990.344006
2873.951807
2766.318897
2666.62597
2574.12075
47181.12114
46798.26621
45990.56037
44826.9328
43363.9762
41660.00829
39770.65064
37750.03156
35648.50026
33509.80909
31372.09976
29267.35348
27221.34404
25253.88901
23379.64389
21608.38273
19945.83324
18394.64824
16954.99688
15624.50679
14399.46484
13275.37504
12246.36829
11306.59424
10449.80257
9669.712299
8960.297081
8315.488109
7729.81414
7197.869574
6714.732974
6275.895128
5877.083813
5514.481418
5184.580555
4884.152673
4610.339696
4360.554106
4132.420353
3923.814027
3732.832981
3557.758611
3397.057507
3249.342705
3113.369363
2988.002503
2872.243586
2765.172085
2665.978102
2573.916971
46558.46691
46182.04124
45387.14825
44241.94083
42802.68762
41125.49259
39266.22981
37277.49675
35208.40047
33102.94029
30998.10674
28925.45328
26910.34274
24972.44348
23125.98726
21380.55279
19741.9389
18212.88498
16793.45586
15481.27152
14272.92951
13163.75803
12148.12142
11220.39509
10374.24766
9603.670024
8902.614496
8265.203044
7686.064017
7159.837288
6681.755004
6247.322244
5852.368499
5493.164206
5166.216386
4868.373527
4596.829247
4349.029489
4122.628703
3915.541785
3725.893848
3551.990585
3392.320081
3245.513161
3110.341018
2985.682116
2870.550361
2764.035088
2665.335646
2573.714856
18034.31777
16634.6788
15340.49079
14148.56443
13054.05042
12051.60926
11135.64841
10299.9535
9538.715377
8845.867246
8215.75145
7642.995621
7122.383702
6649.265605
6219.160685
5827.998191
5472.134958
5148.092057
4852.79345
4583.489772
4337.639753
4112.94767
3907.359788
3719.027874
3546.28139
3387.629457
3241.720313
3107.340862
2983.38274
2868.872073
2762.907873
2664.698587
2573.5144
)
;

boundaryField
{
    front_top
    {
        type            wedge;
    }
    front_middle
    {
        type            wedge;
    }
    front_bottom
    {
        type            wedge;
    }
    back_top
    {
        type            wedge;
    }
    back_middle
    {
        type            wedge;
    }
    back_bottom
    {
        type            wedge;
    }
    axis_top
    {
        type            symmetryPlane;
    }
    axis_middle
    {
        type            symmetryPlane;
    }
    axis_bottom
    {
        type            symmetryPlane;
    }
    wall_top
    {
        type            calculated;
        value           nonuniform 0();
    }
    wall_middle
    {
        type            calculated;
        value           nonuniform 0();
    }
    wall_bottom
    {
        type            calculated;
        value           uniform 2530.329233;
    }
    inlet
    {
        type            calculated;
        value           nonuniform 0();
    }
    outlet
    {
        type            calculated;
        value           nonuniform 0();
    }
    procBoundary1to0
    {
        type            processor;
        value           nonuniform List<scalar> 
51
(
45946.25898
45575.814
44793.5334
43666.45816
42250.52832
40599.68852
38770.0426
36812.69447
34775.98451
32702.91246
30630.34968
28589.33054
26604.77097
24695.85179
22876.6096
21156.5872
19541.52025
19541.52025
17858.79191
16478.61081
15202.18253
14026.31651
12946.2058
11956.7596
11052.31853
10226.91371
9474.819539
8790.030674
8167.078611
7600.591278
7085.506828
6617.252692
6191.400629
5803.98557
5451.387507
5130.202734
4837.408636
4570.311687
4326.383053
4103.375863
3899.267024
3712.234349
3540.630542
3382.985316
3237.963958
3104.368767
2981.104301
2867.20868
2761.790421
2664.066918
2573.315603
)
;
    }
    procBoundary1to2
    {
        type            processor;
        value           nonuniform List<scalar> 
51
(
63861.40863
63313.22822
62157.46525
60493.70071
58404.16575
55973.78729
53283.49096
50411.97308
47432.17123
44407.16486
41392.11607
38432.58286
35564.68593
32816.0708
30206.70046
27749.37367
25451.38213
23315.51141
21340.58538
19522.28977
17855.09282
16330.96534
14941.73384
13678.31369
12531.75549
11492.74935
10552.75491
9703.094714
8935.957538
8243.61131
7619.212577
7056.115353
6548.424205
6090.568711
5648.813968
5648.813968
5280.317336
4947.353667
4646.144834
4373.36125
4126.013366
3901.365851
3697.014051
3510.817238
3340.864751
3185.437138
3043.015836
2912.255345
2791.961514
2681.075781
2578.655379
)
;
    }
}


// ************************************************************************* //
