/*--------------------------------*- C++ -*----------------------------------*\
  =========                 |
  \\      /  F ield         | OpenFOAM: The Open Source CFD Toolbox
   \\    /   O peration     | Website:  https://openfoam.org
    \\  /    A nd           | Version:  7
     \\/     M anipulation  |
\*---------------------------------------------------------------------------*/
FoamFile
{
    version     2.0;
    format      ascii;
    class       volVectorField;
    location    "0.0027";
    object      U;
}
// * * * * * * * * * * * * * * * * * * * * * * * * * * * * * * * * * * * * * //

dimensions      [0 1 -1 0 0 0 0];

internalField   nonuniform List<vector> 
1167
(
(-1.158471875e-06 -1.831657646e-18 -0.04989895537)
(-3.017101992e-06 -2.78284538e-18 -0.04989788003)
(-4.750659713e-06 -3.357702788e-18 -0.04989554332)
(-6.521555576e-06 -4.488261757e-18 -0.04989192902)
(-8.27984324e-06 -5.448602412e-18 -0.04988690139)
(-1.004624951e-05 -6.709158568e-18 -0.04988023453)
(-1.187585691e-05 -7.195395297e-18 -0.04987160655)
(-1.384067751e-05 -1.025173613e-17 -0.04986060503)
(-1.601948954e-05 -1.288369448e-17 -0.04984673462)
(-1.84948774e-05 -1.35927803e-17 -0.0498294253)
(-2.134922881e-05 -1.477635311e-17 -0.04980803342)
(-2.466065983e-05 -1.598856356e-17 -0.04978183385)
(-2.850154193e-05 -1.719215345e-17 -0.04975000674)
(-3.293774915e-05 -1.839304047e-17 -0.04971162089)
(-3.80273e-05 -1.951725209e-17 -0.04966561461)
(-4.381968895e-05 -2.100028978e-17 -0.04961077292)
(-5.035520535e-05 -2.176419817e-17 -0.0495457016)
(-5.76613748e-05 -2.150307249e-17 -0.04946879854)
(-6.574888378e-05 -2.147998558e-17 -0.04937822165)
(-7.461069187e-05 -2.15792304e-17 -0.04927184825)
(-8.421740512e-05 -2.171675963e-17 -0.04914723103)
(-9.45130295e-05 -2.183477488e-17 -0.04900154712)
(-0.0001054121638 -2.19007039e-17 -0.04883153822)
(-0.0001167954441 -2.1884155e-17 -0.04863344555)
(-0.0001285063486 -2.175726794e-17 -0.04840293516)
(-0.0001403491306 -2.148556279e-17 -0.04813501871)
(-0.0001520872415 -2.09820212e-17 -0.04782396727)
(-0.0001634447903 -2.096179701e-17 -0.04746322645)
(-0.0001741097652 -2.07276873e-17 -0.04704533102)
(-0.0001837415205 -2.075807163e-17 -0.04656182976)
(-0.0001919809733 -2.059420828e-17 -0.04600322371)
(-0.0001984652355 -2.034561397e-17 -0.04535892712)
(-0.0002028448715 -2.001338726e-17 -0.04461725582)
(-0.000204804639 -1.960617957e-17 -0.04376545096)
(-1.332462029e-06 -1.238196343e-18 -0.0499123265)
(-3.470998676e-06 -1.438756369e-18 -0.04991123264)
(-5.467081498e-06 -2.601833058e-18 -0.04990885993)
(-7.504192576e-06 -4.114819497e-18 -0.04990521614)
(-9.513803033e-06 -5.648091653e-18 -0.04990019669)
(-1.150285317e-05 -7.274209245e-18 -0.0498936178)
(-1.351267388e-05 -8.91573466e-18 -0.04988520193)
(-1.560225274e-05 -1.053021865e-17 -0.04987457809)
(-1.784181404e-05 -1.204053636e-17 -0.04986128227)
(-2.030747893e-05 -1.332098034e-17 -0.04984476281)
(-2.307725001e-05 -1.449516569e-17 -0.04982438389)
(-2.622694867e-05 -1.541904123e-17 -0.04979942188)
(-2.982711928e-05 -1.638603751e-17 -0.04976905469)
(-3.394119806e-05 -1.732859104e-17 -0.04973234558)
(-3.862502364e-05 -1.830080112e-17 -0.0496882231)
(-4.392650632e-05 -1.919022493e-17 -0.04963545695)
(-4.988408899e-05 -1.976454045e-17 -0.04957263115)
(-5.652247806e-05 -2.021748244e-17 -0.0494981143)
(-6.385075639e-05 -2.064168552e-17 -0.04941002389)
(-7.186184525e-05 -2.103668395e-17 -0.04930618482)
(-8.052649881e-05 -2.138671271e-17 -0.0491840844)
(-8.979090552e-05 -2.167603433e-17 -0.04904081854)
(-9.957310111e-05 -2.189334594e-17 -0.04887303224)
(-0.000109759533 -2.203126079e-17 -0.04867685343)
(-0.0001202022757 -2.208233726e-17 -0.04844782001)
(-0.0001307177228 -2.203005213e-17 -0.04818080241)
(-0.0001410860727 -2.189016487e-17 -0.04786992273)
(-0.0001510530546 -2.172010068e-17 -0.04750847542)
(-0.0001603343149 -2.152011632e-17 -0.04708885202)
(-0.0001686229395 -2.132384999e-17 -0.04660247613)
(-0.0001755996372 -2.105079072e-17 -0.04603975539)
(-0.0001809464927 -2.075973581e-17 -0.04539005482)
(-0.0001843626272 -2.041533067e-17 -0.04464169852)
(-0.0001855824449 -2.000515276e-17 -0.04378200304)
(-0.0001843932637 -1.952712755e-17 -0.04279734456)
(-0.0001806531914 -1.897246042e-17 -0.04167325531)
(-0.0001743054842 -1.833272237e-17 -0.04039455511)
(-0.0001653903916 -1.759219974e-17 -0.03894550546)
(-0.0001540528849 -1.672267507e-17 -0.03730998284)
(-0.0001405438378 -1.572677581e-17 -0.03547166409)
(-0.0001252174776 -1.460426337e-17 -0.03341420986)
(-0.000108523909 -1.335167771e-17 -0.03112144763)
(-9.099802123e-05 -1.195312994e-17 -0.02857754848)
(-7.324438628e-05 -1.03948209e-17 -0.02576718364)
(-5.591978817e-05 -8.648968157e-18 -0.02267565628)
(-3.970996128e-05 -6.688205784e-18 -0.01928901114)
(-2.530975692e-05 -5.458909448e-18 -0.01559411658)
(-1.345954341e-05 -4.064972586e-18 -0.01157870358)
(-5.067636281e-06 -2.529333589e-18 -0.007231312983)
(-9.023313316e-07 -8.762907181e-19 -0.002540971723)
(-1.4795986e-06 1.724877539e-18 -0.04992658965)
(-3.855244912e-06 6.46782691e-18 -0.04992547694)
(-6.075102578e-06 7.392813362e-19 -0.04992306476)
(-8.341629557e-06 -2.94759579e-18 -0.04991937901)
(-1.057195294e-05 -5.50902976e-18 -0.04991433866)
(-1.276302144e-05 -7.841288836e-18 -0.04990779228)
(-1.494482446e-05 -1.072912319e-17 -0.04989950172)
(-1.716345172e-05 -1.12100491e-17 -0.04988913548)
(-1.947897172e-05 -1.232081655e-17 -0.04987626465)
(-2.195962677e-05 -1.367598974e-17 -0.04986036249)
(-2.467792799e-05 -1.524528751e-17 -0.04984080665)
(-2.770593203e-05 -1.464167211e-17 -0.04981687806)
(-3.11117948e-05 -1.582659024e-17 -0.049787753)
(-3.495736973e-05 -1.669698437e-17 -0.04975248861)
(-3.929709051e-05 -1.740246184e-17 -0.04971000265)
(-4.417754091e-05 -1.750193799e-17 -0.04965904906)
(-4.963451985e-05 -1.790239563e-17 -0.04959819043)
(-5.56902795e-05 -1.89653e-17 -0.04952576646)
(-6.235368933e-05 -1.9831198e-17 -0.04943985518)
(-6.961669032e-05 -2.053390671e-17 -0.04933823122)
(-7.745010521e-05 -2.111548639e-17 -0.04921831908)
(-8.580207317e-05 -2.158421609e-17 -0.04907713769)
(-9.459395406e-05 -2.195822963e-17 -0.04891124129)
(-0.0001037179896 -2.228077051e-17 -0.04871665222)
(-0.0001130347695 -2.248859074e-17 -0.04848879055)
(-0.0001223725822 -2.252430342e-17 -0.04822239846)
(-0.000131527836 -2.242106264e-17 -0.04791146525)
(-0.0001402670025 -2.21909476e-17 -0.04754915339)
(-0.0001483318719 -2.182094832e-17 -0.04712773271)
(-0.0001554466983 -2.129079187e-17 -0.04663852472)
(-0.0001613284577 -2.122339502e-17 -0.04607186631)
(-0.0001656991883 -2.104211161e-17 -0.04541709335)
(-0.0001683003361 -2.074896422e-17 -0.04466255275)
(-0.0001689083949 -2.032768182e-17 -0.04379564293)
(-0.0001673497823 -1.97756853e-17 -0.04280288573)
(-0.0001635158328 -1.936116676e-17 -0.04167002232)
(-0.0001573738747 -1.884234253e-17 -0.04038214116)
(-0.0001489764395 -1.82683877e-17 -0.03892382275)
(-0.0001384666697 -1.719500127e-17 -0.03727930423)
(-0.0001260784363 -1.604027541e-17 -0.03543264885)
(-0.0001121334292 -1.474181755e-17 -0.03336791384)
(-9.703443026e-05 -1.349338528e-17 -0.03106932082)
(-8.125524212e-05 -1.207307856e-17 -0.02852141822)
(-6.532817677e-05 -1.059977627e-17 -0.02570922362)
(-4.982917841e-05 -8.990501233e-18 -0.02261834497)
(-3.535831199e-05 -7.172492166e-18 -0.0192350847)
(-2.252323398e-05 -5.729719047e-18 -0.01554651651)
(-1.197272814e-05 -4.209158564e-18 -0.01154052268)
(-4.506636434e-06 -2.581873499e-18 -0.007205744669)
(-8.022575768e-07 -8.874609904e-19 -0.002531278739)
(-1.601851881e-06 -1.570712671e-18 -0.0499416017)
(-4.174788601e-06 -1.893622169e-18 -0.04994047082)
(-6.582201064e-06 -2.419398555e-19 -0.04993801932)
(-9.041817772e-06 -4.09751824e-18 -0.0499342871)
(-1.146028041e-05 -5.946251159e-18 -0.04992921052)
(-1.382794161e-05 -6.925185949e-18 -0.04992266213)
(-1.616680355e-05 -7.024411855e-18 -0.04991443679)
(-1.851139565e-05 -9.720335182e-18 -0.04990423851)
(-2.091041281e-05 -1.161840768e-17 -0.04989167355)
(-2.342354692e-05 -1.310608228e-17 -0.04987624395)
(-2.611642883e-05 -1.448320933e-17 -0.04985734617)
(-2.90563756e-05 -1.589439771e-17 -0.04983426979)
(-3.230857139e-05 -1.735794113e-17 -0.04980619163)
(-3.593297478e-05 -1.912581747e-17 -0.04977216308)
(-3.998287971e-05 -1.956516093e-17 -0.04973109095)
(-4.45031512e-05 -2.04672704e-17 -0.04968171337)
(-4.952687748e-05 -2.051661637e-17 -0.04962257181)
(-5.507497191e-05 -2.070557059e-17 -0.04955197639)
(-6.115589391e-05 -2.086078087e-17 -0.0494679667)
(-6.776054753e-05 -2.117164612e-17 -0.04936826953)
(-7.486037745e-05 -2.161374077e-17 -0.04925024908)
(-8.240506786e-05 -2.194525075e-17 -0.04911085172)
(-9.031932339e-05 -2.204468065e-17 -0.04894654624)
(-9.850102275e-05 -2.286828307e-17 -0.04875325731)
(-0.0001068190855 -2.360779523e-17 -0.04852629696)
(-0.000115113334 -2.348272961e-17 -0.04826029182)
(-0.0001231956742 -2.331938291e-17 -0.04794911334)
(-0.0001308523618 -2.308546156e-17 -0.04758580955)
(-0.0001378495491 -2.272092677e-17 -0.0471625475)
(-0.0001439401683 -2.214879018e-17 -0.0466705664)
(-0.0001488738443 -2.200268601e-17 -0.04610015052)
(-0.0001524078984 -2.191310609e-17 -0.04544062217)
(-0.0001543204677 -2.161057972e-17 -0.04468036074)
(-0.0001544234808 -2.108682825e-17 -0.04380684943)
(-0.000152575532 -2.091873652e-17 -0.04280674838)
(-0.0001486942842 -2.018512124e-17 -0.04166599112)
(-0.000142765096 -1.928187809e-17 -0.04036990744)
(-0.0001348483843 -1.817660153e-17 -0.03890336001)
(-0.0001250828587 -1.737905752e-17 -0.03725090101)
(-0.0001136854184 -1.638534178e-17 -0.03539692814)
(-0.0001009480751 -1.520293211e-17 -0.03332584079)
(-8.723202812e-05 -1.383012693e-17 -0.03102220011)
(-7.295842709e-05 -1.237686277e-17 -0.02847087816)
(-5.859812804e-05 -1.073028623e-17 -0.02565718946)
(-4.465892654e-05 -8.880860363e-18 -0.02256700594)
(-3.166911363e-05 -7.263502969e-18 -0.01918685475)
(-2.01636067e-05 -5.563593464e-18 -0.01550399132)
(-1.07149335e-05 -3.699106953e-18 -0.01150643546)
(-4.032496671e-06 -2.201486198e-18 -0.007182925038)
(-7.177618203e-07 -5.730180386e-19 -0.002522628044)
(-1.701212112e-06 -6.27744368e-18 -0.04995722946)
(-4.434932193e-06 -1.539629871e-17 -0.04995608158)
(-6.995768631e-06 -1.408821745e-17 -0.0499535929)
(-9.61377749e-06 -9.844764349e-18 -0.04994981483)
(-1.218898999e-05 -8.645127228e-18 -0.04994469551)
(-1.470676186e-05 -8.602531486e-18 -0.04993812539)
(-1.718296346e-05 -8.16724803e-18 -0.04992992549)
(-1.964366035e-05 -1.043396106e-17 -0.04991983119)
(-2.212666254e-05 -1.190307038e-17 -0.04990748085)
(-2.468249535e-05 -1.277496888e-17 -0.04989240637)
(-2.736931592e-05 -1.367014915e-17 -0.04987402676)
(-3.024859022e-05 -1.661112593e-17 -0.04985164449)
(-3.338154531e-05 -1.763796628e-17 -0.04982443989)
(-3.682591668e-05 -1.885011822e-17 -0.04979146012)
(-4.063331008e-05 -2.000427524e-17 -0.04975160175)
(-4.484596884e-05 -2.122487325e-17 -0.0497035877)
(-4.949524868e-05 -2.258799045e-17 -0.04964593772)
(-5.460195857e-05 -2.285074008e-17 -0.04957693252)
(-6.017306458e-05 -2.307587663e-17 -0.0494945745)
(-6.619845865e-05 -2.328381166e-17 -0.04939654404)
(-7.265077762e-05 -2.347475386e-17 -0.04928014778)
(-7.948123923e-05 -2.369638905e-17 -0.04914226392)
(-8.661799698e-05 -2.386951302e-17 -0.04897928128)
(-9.396433795e-05 -2.389804222e-17 -0.04878703469)
(-0.0001013972662 -2.389861133e-17 -0.04856073741)
(-0.0001087677787 -2.400395609e-17 -0.04829491256)
(-0.0001159024622 -2.408404028e-17 -0.0479833272)
(-0.0001226062671 -2.418340533e-17 -0.04761893078)
(-0.000128667779 -2.435848791e-17 -0.04719380388)
(-0.0001338661442 -2.472202802e-17 -0.04669911997)
(-0.0001379800934 -2.469691901e-17 -0.04612512544)
(-0.0001407979638 -2.407081264e-17 -0.04546114059)
(-0.0001421293704 -2.364932337e-17 -0.04469558391)
(-0.0001418161026 -2.344036723e-17 -0.04381602318)
(-0.0001397433965 -2.251950578e-17 -0.04280924858)
(-0.0001358495319 -2.139412574e-17 -0.0416613696)
(-0.0001301331995 -2.024645889e-17 -0.04035793214)
(-0.0001226594184 -1.899881495e-17 -0.03888404928)
(-0.0001135610945 -1.810543722e-17 -0.03722454918)
(-0.0001030388158 -1.70821587e-17 -0.03536412011)
(-9.135781653e-05 -1.596468287e-17 -0.03328745876)
(-7.884272428e-05 -1.453909273e-17 -0.03097942052)
(-6.586942715e-05 -1.302121867e-17 -0.02842515768)
(-5.285638428e-05 -1.127743001e-17 -0.02561024233)
(-4.025379687e-05 -9.391966579e-18 -0.02252077684)
(-2.852957552e-05 -7.450933497e-18 -0.01914348643)
(-1.81576567e-05 -5.810544824e-18 -0.01546578912)
(-9.646714159e-06 -4.031768883e-18 -0.01147583092)
(-3.630259907e-06 -2.176701273e-18 -0.007162442142)
(-6.462044462e-07 -7.477067177e-19 -0.002514863275)
(-1.780189447e-06 3.938202493e-18 -0.04997335026)
(-4.641535244e-06 -2.891829833e-18 -0.04997218712)
(-7.323577008e-06 -6.88831758e-18 -0.04996966509)
(-1.006767149e-05 -7.592715466e-18 -0.04996584429)
(-1.276987261e-05 -7.008883703e-18 -0.04996068105)
(-1.541124553e-05 -1.021946235e-17 -0.04995407994)
(-1.800265881e-05 -1.278843516e-17 -0.04994588127)
(-2.056487969e-05 -1.216482881e-17 -0.04993584676)
(-2.312699621e-05 -1.156387637e-17 -0.04992364361)
(-2.572964935e-05 -1.328021127e-17 -0.0499088321)
(-2.8423031e-05 -1.462450347e-17 -0.04989085533)
(-3.126245088e-05 -1.574088287e-17 -0.04986903187)
(-3.430460427e-05 -1.612668664e-17 -0.04984254877)
(-3.760392307e-05 -1.723325446e-17 -0.04981045156)
(-4.120886026e-05 -1.915086364e-17 -0.04977162829)
(-4.515945025e-05 -2.061586222e-17 -0.04972478698)
(-4.948633795e-05 -2.173824529e-17 -0.04966842532)
(-5.420957942e-05 -2.266292234e-17 -0.04960079529)
(-5.933459717e-05 -2.348292956e-17 -0.04951986374)
(-6.485124289e-05 -2.408991458e-17 -0.04942326578)
(-7.073272259e-05 -2.453381794e-17 -0.0493082533)
(-7.693172093e-05 -2.515329991e-17 -0.04917164033)
(-8.338006549e-05 -2.521554093e-17 -0.04900974122)
(-8.998636589e-05 -2.456376574e-17 -0.04881830826)
(-9.663557704e-05 -2.393412967e-17 -0.04859246499)
(-0.0001031894372 -2.409454323e-17 -0.04832664194)
(-0.0001094884422 -2.418023339e-17 -0.0480145143)
(-0.0001153549061 -2.421273484e-17 -0.04764894678)
(-0.0001205980212 -2.421187401e-17 -0.04722194771)
(-0.0001250205335 -2.420326791e-17 -0.04672463847)
(-0.000128427043 -2.373917465e-17 -0.04614723934)
(-0.0001306329156 -2.341133325e-17 -0.04547907708)
(-0.0001314746874 -2.301811884e-17 -0.04470861305)
(-0.0001308192947 -2.258266195e-17 -0.04382349759)
(-0.000128573822 -2.185799367e-17 -0.04281064281)
(-0.0001246928852 -2.104967634e-17 -0.04165631829)
(-0.0001191849935 -2.017279742e-17 -0.04034626294)
(-0.0001121172956 -1.924703859e-17 -0.03886581245)
(-0.0001036162295 -1.830219411e-17 -0.03720003795)
(-9.386704033e-05 -1.70913902e-17 -0.03533388199)
(-8.311097531e-05 -1.583733784e-17 -0.03325230086)
(-7.164064498e-05 -1.453186622e-17 -0.03094040665)
(-5.979289613e-05 -1.307226931e-17 -0.02838359631)
(-4.794142727e-05 -1.147364606e-17 -0.02556766745)
(-3.648757572e-05 -9.846961738e-18 -0.02247892565)
(-2.584825925e-05 -8.113608722e-18 -0.01910427252)
(-1.644607587e-05 -6.375339697e-18 -0.01543127322)
(-8.736001597e-06 -4.605496482e-18 -0.01144819088)
(-3.287615864e-06 -2.792988463e-18 -0.007143945179)
(-5.853125496e-07 -9.565395789e-19 -0.002507850112)
(-1.840257577e-06 -3.376692399e-18 -0.04998985291)
(-4.798454979e-06 -6.590950799e-18 -0.04998867711)
(-7.572731262e-06 -8.681274603e-18 -0.04998612652)
(-1.041410802e-05 -9.912201083e-18 -0.04998226761)
(-1.32150278e-05 -1.14087638e-17 -0.04997706286)
(-1.595415065e-05 -1.232977247e-17 -0.04997042792)
(-1.863900935e-05 -1.29970243e-17 -0.04996221711)
(-2.128564361e-05 -1.315189554e-17 -0.04995221304)
(-2.391699673e-05 -1.317885312e-17 -0.04994010827)
(-2.65654452e-05 -1.33850224e-17 -0.04992548919)
(-2.927282614e-05 -1.516547233e-17 -0.04990782248)
(-3.208765001e-05 -1.644537138e-17 -0.04988644452)
(-3.506113698e-05 -1.757846739e-17 -0.04986055206)
(-3.824321196e-05 -1.889485955e-17 -0.04982919189)
(-4.16791391e-05 -1.935244335e-17 -0.0497912453)
(-4.540724438e-05 -2.006359502e-17 -0.04974540576)
(-4.945744266e-05 -2.072137644e-17 -0.04969014965)
(-5.384795101e-05 -2.149393221e-17 -0.04962370142)
(-5.858282523e-05 -2.223316328e-17 -0.04954399316)
(-6.365275598e-05 -2.284556904e-17 -0.04944861652)
(-6.903120219e-05 -2.330193582e-17 -0.04933477199)
(-7.467264072e-05 -2.361970017e-17 -0.04919921273)
(-8.051229248e-05 -2.391801536e-17 -0.04903818417)
(-8.646402966e-05 -2.405651897e-17 -0.04884736268)
(-9.242050031e-05 -2.410604827e-17 -0.04862179069)
(-9.825369132e-05 -2.412632032e-17 -0.04835581607)
(-0.0001038171009 -2.406630401e-17 -0.04804303357)
(-0.0001089490952 -2.385367055e-17 -0.04767623517)
(-0.0001134776396 -2.345983402e-17 -0.04724736921)
(-0.0001172267405 -2.281419423e-17 -0.04674751617)
(-0.0001200237764 -2.251136334e-17 -0.04616687958)
(-0.0001217076428 -2.230467811e-17 -0.04549479861)
(-0.0001221378863 -2.187160619e-17 -0.04471977949)
(-0.0001212024565 -2.117320599e-17 -0.04382955192)
(-0.0001188262658 -2.074734796e-17 -0.04281114117)
(-0.0001149770032 -2.008947553e-17 -0.04165096247)
(-0.0001096703874 -1.922981673e-17 -0.04033492783)
(-0.0001029740112 -1.816611322e-17 -0.03884857094)
(-9.500747665e-05 -1.687847946e-17 -0.03717717762)
(-8.594180275e-05 -1.593035553e-17 -0.03530591423)
(-7.5996987e-05 -1.476156746e-17 -0.0332199652)
(-6.54375319e-05 -1.33801481e-17 -0.03090466826)
(-5.456659179e-05 -1.175684636e-17 -0.02834563565)
(-4.371950831e-05 -1.025409404e-17 -0.02552886423)
(-3.32560323e-05 -8.480101582e-18 -0.02244084044)
(-2.354986376e-05 -6.960072504e-18 -0.01906862454)
(-1.498019958e-05 -5.669692287e-18 -0.01539991612)
(-7.956644452e-06 -4.206203055e-18 -0.01142308791)
(-2.994645791e-06 -2.60737533e-18 -0.007127146278)
(-5.333152044e-07 -9.000024098e-19 -0.002501479165)
(-1.882705069e-06 -1.13835486e-17 -0.0500066378)
(-4.909619845e-06 -1.240577693e-17 -0.05000545163)
(-7.750294539e-06 -1.406492097e-17 -0.05000287694)
(-1.066306165e-05 -1.125636643e-17 -0.04999898522)
(-1.35370233e-05 -1.731334408e-17 -0.04999374384)
(-1.634979787e-05 -1.513872232e-17 -0.04998707626)
(-1.910687649e-05 -1.48303179e-17 -0.04997884778)
(-2.18200532e-05 -1.48589822e-17 -0.04996885662)
(-2.450788451e-05 -1.52528416e-17 -0.04995681625)
(-2.719637215e-05 -1.584284041e-17 -0.0499423365)
(-2.991975194e-05 -1.646441742e-17 -0.0499249067)
(-3.271925145e-05 -1.714475149e-17 -0.04990388163)
(-3.563983873e-05 -1.796047817e-17 -0.04987846962)
(-3.872664308e-05 -1.718872307e-17 -0.04984772072)
(-4.202186308e-05 -1.772081717e-17 -0.04981051098)
(-4.556192423e-05 -1.755754998e-17 -0.0497655208)
(-4.93749046e-05 -1.783124215e-17 -0.04971120662)
(-5.347689711e-05 -1.972747592e-17 -0.04964576686)
(-5.787153912e-05 -2.096490868e-17 -0.04956709949)
(-6.254956366e-05 -2.178387894e-17 -0.04947275462)
(-6.748480694e-05 -2.227467161e-17 -0.04935988421)
(-7.263422599e-05 -2.240650383e-17 -0.04922518437)
(-7.793613523e-05 -2.308354915e-17 -0.04906483698)
(-8.330960306e-05 -2.351579526e-17 -0.04887444865)
(-8.865458017e-05 -2.381539893e-17 -0.04864898885)
(-9.385273531e-05 -2.406057508e-17 -0.04838273164)
(-9.876970211e-05 -2.433881674e-17 -0.04806920163)
(-0.0001032585717 -2.393259057e-17 -0.04770112823)
(-0.000107164342 -2.350734132e-17 -0.04727041038)
(-0.0001103300124 -2.259281099e-17 -0.04676809666)
(-0.0001126029939 -2.246234269e-17 -0.0461843814)
(-0.0001138427164 -2.219560946e-17 -0.04550862009)
(-0.0001139282235 -2.179601641e-17 -0.04472936472)
(-0.0001127650283 -2.12780705e-17 -0.04383441994)
(-0.0001102926415 -2.06546288e-17 -0.04281091593)
(-0.000106489076 -1.990468763e-17 -0.04164540032)
(-0.0001013754587 -1.902048269e-17 -0.04032394071)
(-9.501851012e-05 -1.798892724e-17 -0.03883224743)
(-8.753093941e-05 -1.680239737e-17 -0.0371557968)
(-7.907073532e-05 -1.572219335e-17 -0.03527995328)
(-6.983907451e-05 -1.447556415e-17 -0.03319010373)
(-6.007587214e-05 -1.338652874e-17 -0.0308717852)
(-5.00551551e-05 -1.215397456e-17 -0.02831080001)
(-4.007933202e-05 -1.093015784e-17 -0.02549332325)
(-3.047263533e-05 -9.642830356e-18 -0.02240600384)
(-2.157198547e-05 -7.99530285e-18 -0.0190360461)
(-1.37197274e-05 -6.331425087e-18 -0.01537127353)
(-7.286957072e-06 -4.617034226e-18 -0.01140016222)
(-2.743081993e-06 -2.834408744e-18 -0.00711180298)
(-4.887100374e-07 -9.73941722e-19 -0.002495658095)
(-1.909587906e-06 -2.734614957e-18 -0.05002361444)
(-4.980239477e-06 -4.336107709e-18 -0.0500224199)
(-7.864238255e-06 -3.349736894e-18 -0.05001982548)
(-1.082437861e-05 -7.973320517e-18 -0.05001590658)
(-1.374759331e-05 -1.044576798e-17 -0.05001063489)
(-1.661135234e-05 -1.186958295e-17 -0.05000393883)
(-1.942031294e-05 -1.307027594e-17 -0.04999569256)
(-2.218285553e-05 -1.437729205e-17 -0.04998570562)
(-2.491353559e-05 -1.585577506e-17 -0.04997370811)
(-2.763328775e-05 -1.751777739e-17 -0.04995932984)
(-3.036996794e-05 -1.735585376e-17 -0.0499420809)
(-3.315812636e-05 -1.763331472e-17 -0.04992133415)
(-3.603663227e-05 -1.808480586e-17 -0.04989631049)
(-3.904564728e-05 -1.851460759e-17 -0.04986606473)
(-4.222368733e-05 -1.896606373e-17 -0.04982946946)
(-4.56047219e-05 -1.947684151e-17 -0.04978519368)
(-4.921395611e-05 -2.027792129e-17 -0.04973167584)
(-5.306558225e-05 -2.098758607e-17 -0.04966708921)
(-5.716361279e-05 -2.162944946e-17 -0.0495892991)
(-6.149825038e-05 -2.216173277e-17 -0.04949581659)
(-6.604384097e-05 -2.258282582e-17 -0.04938374726)
(-7.075954578e-05 -2.291246675e-17 -0.04924973409)
(-7.558679267e-05 -2.319992463e-17 -0.0490899003)
(-8.044987016e-05 -2.340229831e-17 -0.04889978869)
(-8.525567774e-05 -2.350277428e-17 -0.04867430318)
(-8.989499184e-05 -2.348903303e-17 -0.04840765212)
(-9.42447344e-05 -2.334540821e-17 -0.04809329892)
(-9.817144901e-05 -2.325405924e-17 -0.04772391945)
(-0.0001015354924 -2.302457065e-17 -0.04729137191)
(-0.0001041966849 -2.289695849e-17 -0.04678668042)
(-0.0001060200716 -2.263656585e-17 -0.04620003567)
(-0.0001068828237 -2.227926883e-17 -0.04552081259)
(-0.0001066806061 -2.183307053e-17 -0.04473760844)
(-0.0001053339262 -2.13014688e-17 -0.04383829832)
(-0.0001027939521 -2.067552774e-17 -0.04281010928)
(-9.904671747e-05 -1.994902986e-17 -0.04163970928)
(-9.411728866e-05 -1.912353962e-17 -0.04031330691)
(-8.807081839e-05 -1.819944512e-17 -0.03881677033)
(-8.101332707e-05 -1.718314338e-17 -0.03713574464)
(-7.309094284e-05 -1.60885554e-17 -0.03525577135)
(-6.448803296e-05 -1.492319787e-17 -0.03316241782)
(-5.542312201e-05 -1.370255846e-17 -0.03084139862)
(-4.614498584e-05 -1.241587854e-17 -0.02827868571)
(-3.69277091e-05 -1.106217143e-17 -0.02546061438)
(-2.806507592e-05 -9.638883215e-18 -0.02237398082)
(-1.986256869e-05 -8.041518798e-18 -0.01900612118)
(-1.263109814e-05 -6.384003676e-18 -0.01534497415)
(-6.708918439e-06 -4.659035739e-18 -0.01137911393)
(-2.526077515e-06 -2.860489353e-18 -0.007097713788)
(-4.502651557e-07 -9.827552736e-19 -0.002490310467)
(-1.922498544e-06 -2.508352328e-18 -0.05004070092)
(-5.01456056e-06 -4.724408821e-18 -0.05003950008)
(-7.92124532e-06 -6.670339573e-18 -0.05003689032)
(-1.090676338e-05 -9.761982993e-18 -0.05003295072)
(-1.385765111e-05 -7.091952632e-18 -0.05002765578)
(-1.675169175e-05 -9.477958247e-18 -0.05002093712)
(-1.959322466e-05 -1.128712808e-17 -0.0500126759)
(-2.238835898e-05 -1.341843099e-17 -0.05000269055)
(-2.514786302e-05 -1.586158568e-17 -0.04999072347)
(-2.788884609e-05 -1.611588296e-17 -0.049976421)
(-3.063387984e-05 -1.666716275e-17 -0.04995931127)
(-3.341152317e-05 -1.743099026e-17 -0.04993878405)
(-3.625479418e-05 -1.839918034e-17 -0.04991407289)
(-3.919882303e-05 -1.974792146e-17 -0.04988423861)
(-4.227847496e-05 -2.021135619e-17 -0.04984815179)
(-4.552401403e-05 -2.11943667e-17 -0.04980447216)
(-4.89573894e-05 -2.275457283e-17 -0.04975162193)
(-5.259190568e-05 -2.241840834e-17 -0.04968775002)
(-5.643100156e-05 -2.247077314e-17 -0.04961069089)
(-6.046424949e-05 -2.267478177e-17 -0.0495179191)
(-6.466727304e-05 -2.291792573e-17 -0.04940649653)
(-6.900099736e-05 -2.314243045e-17 -0.04927301691)
(-7.341006076e-05 -2.33163766e-17 -0.04911354897)
(-7.782351981e-05 -2.340439491e-17 -0.04892357752)
(-8.215479456e-05 -2.337382508e-17 -0.04869794738)
(-8.630329026e-05 -2.318274733e-17 -0.04843080868)
(-9.015631651e-05 -2.275367708e-17 -0.04811557136)
(-9.359267825e-05 -2.281617342e-17 -0.0477448656)
(-9.648649057e-05 -2.268253209e-17 -0.04731051608)
(-9.871254364e-05 -2.283336542e-17 -0.0468035285)
(-0.0001001512608 -2.25288988e-17 -0.04621409407)
(-0.0001006951106 -2.217294545e-17 -0.04553160892)
(-0.0001002540077 -2.174753259e-17 -0.0447447145)
(-9.876110474e-05 -2.123950904e-17 -0.04384135272)
(-9.617707591e-05 -2.064004137e-17 -0.04280883972)
(-9.249422502e-05 -1.994168462e-17 -0.04163395211)
(-8.774015253e-05 -1.914516422e-17 -0.04030302642)
(-8.197817516e-05 -1.825008713e-17 -0.03880207282)
(-7.530796671e-05 -1.725457912e-17 -0.03711688752)
(-6.786489429e-05 -1.616080713e-17 -0.03523317056)
(-5.981837467e-05 -1.497052063e-17 -0.03313665098)
(-5.136820561e-05 -1.367985076e-17 -0.0308132026)
(-4.274122531e-05 -1.228503068e-17 -0.02824895003)
(-3.418706642e-05 -1.078146003e-17 -0.02543037367)
(-2.597332153e-05 -9.161992084e-18 -0.02234440416)
(-1.837849748e-05 -7.418712474e-18 -0.01897849935)
(-1.168657469e-05 -5.938873382e-18 -0.01532070576)
(-6.207664263e-06 -4.360248284e-18 -0.0113596912)
(-2.337996246e-06 -2.687166787e-18 -0.007084709635)
(-4.169670419e-07 -9.247796925e-19 -0.002485372182)
(-1.92315202e-06 -2.205915512e-18 -0.05005782291)
(-5.017028519e-06 -3.927598569e-18 -0.05005661771)
(-7.927133461e-06 -5.315047612e-18 -0.05005399729)
(-1.091786139e-05 -6.873789033e-18 -0.05005004381)
(-1.38774461e-05 -8.206018283e-18 -0.05004473294)
(-1.67833016e-05 -9.731080045e-18 -0.05003799893)
(-1.963907992e-05 -1.125696457e-17 -0.05002972775)
(-2.24506709e-05 -1.252480686e-17 -0.05001974519)
(-2.522557005e-05 -1.373359741e-17 -0.05000780276)
(-2.797698888e-05 -1.487117178e-17 -0.04999355957)
(-3.072358241e-05 -1.582306266e-17 -0.04997655905)
(-3.348878543e-05 -1.673262461e-17 -0.04995620608)
(-3.630029427e-05 -1.76312497e-17 -0.04993174624)
(-3.918869774e-05 -1.852750832e-17 -0.0499022467)
(-4.218428276e-05 -1.946036409e-17 -0.04986657778)
(-4.531270467e-05 -2.033976885e-17 -0.04982339197)
(-4.859348573e-05 -2.091469722e-17 -0.04977109602)
(-5.203932486e-05 -2.144220131e-17 -0.04970781621)
(-5.565215236e-05 -2.194126717e-17 -0.0496313585)
(-5.942084803e-05 -2.239420374e-17 -0.04953916265)
(-6.33224713e-05 -2.278825187e-17 -0.0494282496)
(-6.73196675e-05 -2.311439617e-17 -0.04929516769)
(-7.136041261e-05 -2.335948126e-17 -0.04913593552)
(-7.537807825e-05 -2.351963114e-17 -0.04894598542)
(-7.929228604e-05 -2.359473686e-17 -0.04872010859)
(-8.301038914e-05 -2.357871686e-17 -0.04845240379)
(-8.642927517e-05 -2.3465999e-17 -0.04813623407)
(-8.94388052e-05 -2.326345249e-17 -0.04776419086)
(-9.192552171e-05 -2.29807104e-17 -0.04732807106)
(-9.377734689e-05 -2.265901441e-17 -0.0468188671)
(-9.488819313e-05 -2.235609185e-17 -0.04622677359)
(-9.51637268e-05 -2.203534693e-17 -0.04554120899)
(-9.452591185e-05 -2.164545057e-17 -0.04475085741)
(-9.291839431e-05 -2.116175759e-17 -0.0438437234)
(-9.030984867e-05 -2.058120473e-17 -0.04280720524)
(-8.66975698e-05 -1.990159438e-17 -0.04162817851)
(-8.211070556e-05 -1.911829293e-17 -0.04029309572)
(-7.661039376e-05 -1.823127e-17 -0.03878809515)
(-7.029032953e-05 -1.723845164e-17 -0.03709910907)
(-6.327629191e-05 -1.614005085e-17 -0.03521198028)
(-5.572430273e-05 -1.49354497e-17 -0.03311258358)
(-4.781773766e-05 -1.361904165e-17 -0.03078693655)
(-3.976430964e-05 -1.219106216e-17 -0.02822130217)
(-3.179247669e-05 -1.065033863e-17 -0.02540229326)
(-2.41472271e-05 -8.99761166e-18 -0.02231696409)
(-1.708382835e-05 -7.239345785e-18 -0.01895288565)
(-1.086308195e-05 -5.777269845e-18 -0.015298206)
(-5.770859246e-06 -4.234629068e-18 -0.01134168273)
(-2.174178229e-06 -2.607519824e-18 -0.00707264886)
(-3.879838882e-07 -8.969914526e-19 -0.002480789607)
(-1.912965032e-06 -1.232610834e-18 -0.05007491362)
(-4.990772322e-06 -2.305566215e-18 -0.05007370636)
(-7.88664944e-06 -3.396980529e-18 -0.05007108056)
(-1.086487207e-05 -5.482212844e-18 -0.05006711983)
(-1.381584836e-05 -9.299872173e-18 -0.05006180039)
(-1.671661598e-05 -1.029938737e-17 -0.05005505911)
(-1.957016116e-05 -1.259571422e-17 -0.05004678439)
(-2.238263336e-05 -1.218382271e-17 -0.05003680786)
(-2.515983823e-05 -1.217516285e-17 -0.05002488871)
(-2.79113038e-05 -1.479192493e-17 -0.05001069539)
(-3.065189347e-05 -1.537169911e-17 -0.04999378346)
(-3.34010654e-05 -1.609381723e-17 -0.04997357061)
(-3.618207911e-05 -1.672161e-17 -0.04994931333)
(-3.902057918e-05 -1.705926452e-17 -0.04992008555)
(-4.194159024e-05 -1.833833253e-17 -0.04988475863)
(-4.49671455e-05 -1.895216251e-17 -0.04984197856)
(-4.81150165e-05 -1.861497078e-17 -0.04979013789)
(-5.139597288e-05 -2.018502369e-17 -0.04972734223)
(-5.481016525e-05 -2.12461749e-17 -0.04965137145)
(-5.834677502e-05 -2.201860828e-17 -0.04955963244)
(-6.198347551e-05 -2.260326167e-17 -0.04944910811)
(-6.568426775e-05 -2.304529137e-17 -0.04931630468)
(-6.940050388e-05 -2.336112746e-17 -0.04915719473)
(-7.306984023e-05 -2.3587006e-17 -0.04896716299)
(-7.661780548e-05 -2.375170411e-17 -0.04874095241)
(-7.995897716e-05 -2.388190241e-17 -0.04847261633)
(-8.299902246e-05 -2.400263722e-17 -0.04815547671)
(-8.563775545e-05 -2.36682777e-17 -0.04778209204)
(-8.777284936e-05 -2.327634152e-17 -0.04734423647)
(-8.930377337e-05 -2.236669559e-17 -0.04683289315)
(-9.013639514e-05 -2.223217915e-17 -0.04623826225)
(-9.018759633e-05 -2.196068547e-17 -0.04554978524)
(-8.938952288e-05 -2.158225377e-17 -0.04475618665)
(-8.769465933e-05 -2.110135696e-17 -0.04384552975)
(-8.507825058e-05 -2.052248561e-17 -0.04280528859)
(-8.154166695e-05 -1.984967254e-17 -0.04162242922)
(-7.711477088e-05 -1.907805815e-17 -0.04028350958)
(-7.185631253e-05 -1.820471228e-17 -0.03877478398)
(-6.585442818e-05 -1.722247216e-17 -0.03708230784)
(-5.922630639e-05 -1.612134089e-17 -0.03519205379)
(-5.211604229e-05 -1.491028039e-17 -0.0330900284)
(-4.469257435e-05 -1.359384307e-17 -0.03076237906)
(-3.714690421e-05 -1.21650195e-17 -0.02819549565)
(-2.968907655e-05 -1.061575799e-17 -0.02537611276)