/*--------------------------------*- C++ -*----------------------------------*\
  =========                 |
  \\      /  F ield         | OpenFOAM: The Open Source CFD Toolbox
   \\    /   O peration     | Website:  https://openfoam.org
    \\  /    A nd           | Version:  7
     \\/     M anipulation  |
\*---------------------------------------------------------------------------*/
FoamFile
{
    version     2.0;
    format      ascii;
    class       volScalarField;
    location    "0.003";
    object      rho;
}
// * * * * * * * * * * * * * * * * * * * * * * * * * * * * * * * * * * * * * //

dimensions      [1 -3 0 0 0 0 0];

internalField   nonuniform List<scalar> 
1167
(
940.0195145
939.8180384
939.7252047
939.52614
939.2320402
938.8493486
938.3838651
937.8409978
937.2261675
936.5447075
935.8017921
935.0026082
934.152261
933.2559818
932.3187339
931.3455187
930.3412304
929.3106475
928.2584173
927.1893036
926.1074164
925.0170116
923.9222756
922.8267609
921.7341095
920.647727
919.5706519
918.5056428
917.4553363
916.4220631
915.4077224
914.414259
913.4430664
912.4955023
911.5725992
910.6751429
909.8036478
908.9586719
908.1402462
907.3484458
906.5832536
905.8442896
905.1311497
904.4433596
903.7803218
903.1413458
902.5255844
901.9322256
901.360296
900.8089013
900.2770911
939.6167251
939.5276328
939.3366036
939.0544337
938.6869785
938.2400264
937.71854
937.1276282
936.4722714
935.7573154
934.9875855
934.1678105
933.3027891
932.3971581
931.4553993
930.4822252
929.4817476
928.4585824
927.4167674
926.3603299
925.293319
924.2193249
923.1419189
922.0646487
920.9905136
919.9224744
918.8635117
917.8159911
916.7822459
915.764517
914.7645262
913.7840702
912.824526
911.8872499
910.9732277
910.0833569
909.2182074
908.3785558
907.5645253
906.776381
906.0143618
905.2782953
904.5680291
903.8833201
903.2237941
902.5889037
901.978075
901.3905477
900.8255382
900.2820753
939.4156178
939.3310282
939.1497046
938.8815605
938.5324712
938.1075048
937.611633
937.0494559
936.4255764
935.744482
935.0106103
934.228291
933.4018054
932.5355398
931.6334636
930.6997383
929.7383005
928.7530699
927.747906
926.7264298
925.6920887
924.6485258
923.5987456
922.5459256
921.4930696
920.4427873
919.3977933
918.3604525
917.3328661
916.3172361
915.3152475
914.3285985
913.3588206
912.4071539
911.4749066
910.5628983
909.6721483
908.8033818
907.9572355
907.1345068
906.3356019
905.5611059
904.8116459
904.0877033
903.389714
902.7180074
902.0727624
901.4538494
900.8608128
900.2927892
939.2147521
939.1352802
938.9648005
938.7126469
938.3844932
937.9847477
937.5181481
936.9889817
936.4014016
935.7595302
935.0674165
934.3289967
933.5480996
932.7286226
931.8743596
930.9887885
930.0755233
929.1381237
928.1798737
927.2042289
926.2141208
925.2127668
924.20298
923.1874925
922.1690523
921.1499368
920.1326264
919.1191256
918.111463
917.1114441
916.1205359
915.1404377
914.1721272
913.2169235
912.2756259
911.3491513
910.4379522
909.5427595
908.6638496
907.801798
906.9569404
906.1297886
905.3212471
904.5321319
903.7638655
903.0183731
902.297969
901.6054463
900.9439237
900.3164445
939.0155887
938.9422383
938.784858
938.5522178
938.2491554
937.8800052
937.4488593
936.959804
936.416467
935.8225715
935.1817496
934.4975253
933.7733001
933.0124463
932.2182622
931.3940011
930.5427776
929.6674839
928.7712328
927.8568998
926.9270857
925.9846529
925.0318927
924.0715025
923.1054412
922.1362228
921.1655471
920.1955332
919.2276989
918.2638231
917.3050537
916.3527689
915.4077941
914.4710841
913.5430213
912.6241401
911.7143315
910.8136567
909.9214129
909.0371106
908.1596829
907.287967
906.4206979
905.5563459
904.6938685
903.8323789
902.9721644
902.1150065
901.2648296
900.4287407
938.8521965
938.7802622
938.6261924
938.3984598
938.1016843
937.7403321
937.3181456
936.8391536
936.3069366
935.7250303
935.0969462
934.4260747
933.715696
932.9690605
932.1893334
931.3796574
930.5429772
929.6820972
928.7999901
927.8994659
926.982992
926.0533362
925.1127594
924.1637636
923.2084084
922.2489329
921.2871687
920.3249895
919.3639728
918.4056907
917.4512677
916.5019233
915.5583566
914.6213884
913.6912619
912.7683194
911.8524834
910.9435697
910.0411815
909.1448457
908.2542437
907.3688343
906.4887481
905.6139376
904.7450526
903.8827158
903.0271715
902.1772534
901.3279219
900.4677523
938.7313187
938.6592314
938.5047829
938.276402
937.978881
937.6165961
937.1933829
936.7130393
936.1793804
935.5958455
934.9659246
934.2929881
933.5803144
932.831163
932.0487814
931.2361751
930.3962731
929.5319745
928.6463995
927.7420754
926.8217594
925.8880236
924.9432811
923.9899994
923.0301789
922.0661278
921.0995472
920.1322999
919.1658625
918.2017118
917.2409019
916.284461
915.3331125
914.38744
913.4477982
912.514462
911.5875401
910.6671169
909.753243
908.8462959
907.9466274
907.0552694
906.1732098
905.3022582
904.4440357
903.6004565
902.7731249
901.9629421
901.1706128
900.3973057
938.6105961
938.5381732
938.3829246
938.1533769
937.8544909
937.4903868
937.0651942
936.5825578
936.0461953
935.4597705
934.8267198
934.1503902
933.4340967
932.6812148
931.8948447
931.0780504
930.2338183
929.365285
928.4752433
927.5664451
926.6417494
925.7034741
924.7543671
923.7964869
922.8321855
921.8633383
920.8919898
919.9195298
918.9477518
917.977689
917.0106656
916.0473735
915.0887846
914.1353252
913.1876636
912.2462311
911.3116323
910.3843937
909.4654876
908.5559775
907.6574694
906.7716024
905.9007277
905.0468148
904.2121175
903.3985171
902.6071503
901.8387697
901.0936302
900.3713601
938.4898986
938.417165
938.2612344
938.0307007
937.7306383
937.364994
936.9380978
936.4535258
935.9149996
935.3261498
934.6905045
934.0114543
933.2923375
932.5364684
931.747023
930.9271067
930.0798222
929.2081827
928.3149834
927.4031858
926.4753046
925.5339317
924.5815613
923.6203595
922.6525227
921.6799792
920.7045591
919.7278382
918.7512545
917.7761566
916.8035111
915.8344402
914.8696364
913.9101234
912.9564605
912.0098969
911.0711744
910.1418116
909.2231006
908.317205
907.4259129
906.5517058
905.6967003
904.8629406
904.0522452
903.2655405
902.5031627
901.7649421
901.0499237
900.3570413
938.3691766
938.2962107
938.1397697
937.9086185
937.6075881
937.2409239
936.8126747
936.3267223
935.7866725
935.1961805
934.5587859
933.8779089
933.1569264
932.3991633
931.6078058
930.7860308
929.9369209
929.063362
928.1682921
927.2545663
926.3245966
925.3811731
924.4264344
923.4628099
922.4921648
921.5166722
920.5378255
919.5575148
918.5769028
917.5975163
916.6203657
915.6466474
914.6774197
913.7137442
912.7568869
911.8081531
910.8691754
909.9415833
909.0275259
908.1290795
907.2485324
906.3880509
905.5494399
904.7343443
903.9435715
903.177419
902.4355667
901.7174005
901.021793
900.3477926
938.2484233
938.175294
938.018525
937.7869491
937.4852446
937.1179223
936.6887983
936.2019325
935.6609444
935.0694697
934.4310547
933.7491406
933.0271274
932.2683334
931.4759482
930.653247
929.8030565
928.9283733
928.0322436
927.1172045
926.1859001
925.2408766
924.2843955
923.3187404
922.3458686
921.3677842
920.3861509
919.4026359
918.418745
917.4357696
916.4551762
915.4780484
914.5059988
913.5401561
912.582317
911.6340592
910.6974071
909.7742924
908.8670727
907.9777536
907.1086694
906.2614086
905.4375153
904.6379317
903.862974
903.1125293
902.3860424
901.6826593
901.0013132
900.3410795
938.1276373
938.0543987
937.897524
937.6656011
937.3634874
936.9957723
936.5662175
936.0787513
935.5372805
934.9453203
934.3064141
933.6240114
932.9015225
932.1422481
931.349493
930.5262431
929.6754589
928.8001983
927.9033349
926.9873859
926.0551403
925.1088645
924.1510436
923.1836779
922.2089981
921.2287258
920.2448001
919.2587023
918.2722552
917.2867051
916.3037155
915.3247091
914.3513095
913.3852418
912.4283189
911.4826492
910.5501788
909.6332401
908.73391
907.8542844
906.9961737
906.1609216
905.3497263
904.5629435
903.8006449
903.0625017
902.3478757
901.6558477
900.9854691
900.3358753
938.0068633
937.9336369
937.7766213
937.5444854
937.2422543
936.8742416
936.4445049
935.9568416
935.4150654
934.8229359
934.1838627
933.5012971
932.7786681
932.0193374
931.2263857
930.4028793
929.5517851
928.6762577
927.7788887
926.8623842
925.9293768
924.9821676
924.0232664
923.0545636
922.0784031
921.0964639
920.1106974
919.1227804
918.1344357
917.1473125
916.1629925
915.1833937
914.2101004
913.2453061
912.2908725
911.3491271
910.4220506
909.5119934
908.6208337
907.7505985
906.9025992
906.0780287
905.2776426
904.5015742
903.7497198
903.0216883
902.3167297
901.6339933
900.9725767
900.3316463
937.8861471
937.8128789
937.6557734
937.4235118
937.1212745
936.7530971
936.3233285
935.8356422
935.2938571
934.7016581
934.0625794
933.3800656
932.6575223
931.8981971
931.1052274
930.2816481
929.4305428
928.5548277
927.6571553
926.740343
925.8067674
924.8589638
923.8991787
922.929555
921.9522099
920.9691125
919.9820266
918.9929601
918.0035244
917.0157585
916.031256
915.0521486
914.0803036
913.1178813
912.1671208
911.2301571
910.3091872
909.4062375
908.5232165
907.661746
906.822954
906.0078561
905.2168246
904.4499099
903.7068953
902.9873775
902.2905395
901.6156037
900.9617185
900.3280819
937.7654012
937.6921053
937.5349422
937.3027027
937.0004178
936.6322518
936.2024257
935.7148023
935.1731016
934.5809977
933.9420272
933.259642
932.5372304
931.7780239
930.9851577
930.1616617
929.3106737
928.4349082
927.5371574
926.6201628
925.6862273
924.7380651
923.7776734
922.8074543
921.8293175
920.8455319
919.8577394
918.8681384
917.8784983
916.8908396
915.9071456
914.9294699
913.9600456
913.0009036
912.0545699
911.1229422
910.2083561
909.3125018
908.437293
907.5839713
906.7535424
905.946879
905.1640725
904.4051383
903.669809
902.9576569
902.2678567
901.5996836
900.9523243
900.3249994
937.6446278
937.5713109
937.4141055
937.1819537
936.8796056
936.5115134
936.0816408
935.5941235
935.0525546
934.4605979
933.8217934
933.1396009
932.417392
931.6583833
930.8657097
930.0424958
929.1916381
928.3159491
927.4183247
926.5012518
925.5672472
924.6188547
923.6582019
922.6876409
921.7092101
920.7250831
919.7372043
918.7476375
917.7585054
916.7717339
915.7896588
914.8142628
913.8479755
912.8928538
911.9513604
911.0254413
910.1172321
909.2283189
908.3605234
907.5147706
906.6920293
905.8929006
905.1174344
904.3655809
903.6370721
902.9314028
902.2478167
901.5856152
900.9440204
900.322274
937.5238313
937.4504967
937.2933676
937.0612016
936.7588039
936.3908025
935.9610226
935.4735154
934.932105
934.3403271
933.7017257
933.0197693
932.2978136
931.539062
930.7467394
929.9237976
929.0731631
928.1977047
927.3002874
926.3832871
925.4494186
924.5009883
923.5403767
922.5697527
921.5914156
920.6073828
919.6199369
918.6310013
917.6430084
916.6578762
915.6780117
914.7056024
913.7429485
912.792324
911.855947
910.9358802
910.0339676
909.1518313
908.2909715
907.4522579
906.6365736
905.8442989
905.0754694
904.3299957
903.6076227
902.907784
902.2297882
901.5729602
900.9365522
900.3198232
937.4030176
937.3297353
937.17265
936.9404426
936.638102
936.2701027
935.8404418
935.3530128
934.8117104
934.2201333
933.5817616
932.9000736
932.1784106
931.4200345
930.6280726
929.8054402
928.9551081
928.0800523
927.1828797
926.266131
925.3325305
924.3842723
923.4239564
922.4535804
921.4756986
920.4922374
919.505651
918.5179777
917.5315773
916.5486778
915.5715462
914.6026171
913.6440112
912.6981797
911.7670864
910.8528858
909.9571433
909.0815148
908.2272136
907.3950733
906.5859161
905.7999394
905.0371824
904.2975324
903.5807552
902.8862331
902.213336
901.5614104
900.9297356
900.3175861
937.2823176
937.2090395
937.0519242
936.8196794
936.5174362
936.1494124
935.71988
935.23261
934.6914283
934.099999
933.4618782
932.7804967
932.059229
931.3012379
930.5096249
929.6873598
928.8374528
927.9628303
927.0660099
926.1497227
925.2164771
924.2687005
923.3088179
922.3390939
921.3619104
920.3794751
919.3941171
918.4081704
917.4238429
916.4436444
915.4696957
914.5046072
913.5503867
912.6094856
911.6837852
910.7753587
909.8856224
909.0162312
908.1681418
907.3422006
906.5390924
905.7589558
905.0018141
904.2675692
903.5559289
902.8663165
902.19813
901.5507353
900.9234354
900.3155185
937.1616312
937.0883386
936.9311952
936.6989483
936.396776
936.0287789
935.5993383
935.1122363
934.5712483
933.9800463
933.3421823
932.6611323
931.9402073
931.1825925
930.3913689
929.5695228
928.7201714
927.8459921
926.9496266
926.0339285
925.1011975
924.1541053
923.1948859
922.2260947
921.2499336
920.268882
919.2851413
918.3013244
917.3195286
916.3423588
915.3720182
914.4109626
913.4613641
912.5254568
911.6051949
910.7024098
909.8185362
908.9550892
908.1129
907.2928221
906.4953714
905.7206961
904.9687956
904.2395937
903.5327429
902.8477122
902.1839238
901.540761
900.9175484
900.3135864
937.0409443
936.967638
936.8104687
936.5783244
936.2761262
935.9082498
935.4788202
934.9918947
934.4511108
933.860149
933.2225755
932.5418571
931.8212969
931.0640876
930.2732903
929.4519994
928.6031746
927.7295165
926.8338177
925.918716
924.9866875
924.0404369
923.0821215
922.1145109
921.1397079
920.1603284
919.1786408
918.1972059
917.2183248
916.2444435
915.2779701
914.3211484
913.3762955
912.4454283
911.5305659
910.6333096
909.755144
908.897374
908.0608076
907.246287
906.4541788
905.6846491
904.9376815
904.2132254
903.5108832
902.8301682
902.1705252
901.5313531
900.9119956
900.311764
936.9202622
936.8469433
936.689792
936.4577121
936.1554926
935.7877427
935.358392
934.871589
934.3310191
933.7403092
933.1030402
932.4226699
931.7024954
930.9457186
930.1554149
929.334726
928.4864529
927.6133922
926.718456
925.8040732
924.8729779
923.9276686
922.9705713
922.0042807
921.0311719
920.0536956
919.0743689
918.0955991
917.1199068
916.149558
915.187146
914.2346981
913.2946618
912.3688395
911.4593109
910.5674595
909.6948226
908.8425125
908.0113236
907.2020963
906.4150636
905.6504152
904.9081267
904.1881696
903.4901058
902.8134889
902.1577849
901.5224065
900.9067149
900.3100308
936.7995903
936.7262614
936.5692205
936.3371174
936.0349193
935.6672641
935.2380743
934.7513286
934.2109775
933.6205305
932.983579
932.3035728
931.5838041
930.8274947
930.0378008
929.2176677
928.3700049
927.4977142
926.6035388
925.6899946
924.759977
923.8157819
922.8601018
921.895356
920.9241863
919.948871
918.9721613
917.996313
917.0240225
916.0574499
915.0991882
914.1512791
913.2160192
912.2952644
911.3909381
910.5043649
909.6370872
908.7900398
907.9640423
907.1598501
906.3776657
905.6176763
904.8798804
904.1641925
903.4702169
902.7975191
902.1455846
901.5138382
900.9016572
900.3083708
911.3250392
910.4436499
909.5815411
908.7395785
907.9185976
907.1192275
906.3416971
905.5861788
904.8526954
904.1411083
903.4510628
902.7821357
902.1338303
901.5055825
900.8967838
900.3067712
)
;

boundaryField
{
    front_top
    {
        type            wedge;
    }
    front_middle
    {
        type            wedge;
    }
    front_bottom
    {
        type            wedge;
    }
    back_top
    {
        type            wedge;
    }
    back_middle
    {
        type            wedge;
    }
    back_bottom
    {
        type            wedge;
    }
    axis_top
    {
        type            symmetryPlane;
    }
    axis_middle
    {
        type            symmetryPlane;
    }
    axis_bottom
    {
        type            symmetryPlane;
    }
    wall_top
    {
        type            calculated;
        value           nonuniform 0();
    }
    wall_middle
    {
        type            calculated;
        value           uniform 900.0184441;
    }
    wall_bottom
    {
        type            calculated;
        value           uniform 900.0184441;
    }
    inlet
    {
        type            calculated;
        value           nonuniform 0();
    }
    outlet
    {
        type            calculated;
        value           nonuniform 0();
    }
    procBoundary2to1
    {
        type            processor;
        value           nonuniform List<scalar> 
51
(
936.6789872
936.6057275
936.4486683
936.2165461
935.9144692
935.5468198
935.1177969
934.6312427
934.0910014
933.5008182
932.8641968
932.1845705
931.4652514
930.7095203
929.9203614
929.1008294
928.2538354
927.3824077
926.4890701
925.5765694
924.6476813
923.7047942
922.7506887
921.7877233
920.8186779
919.8458076
918.8718752
917.8992356
916.9304433
915.9678266
915.0137817
914.0704732
913.1399867
912.2242724
912.2242724
911.2612733
910.3849707
909.5278589
908.6908208
907.8746867
907.079969
906.3069261
905.555719
904.8263961
904.1187682
903.4325206
902.7672403
902.1224471
901.4975867
900.8920637
900.305222
)
;
    }
    procBoundary2to3
    {
        type            processor;
        value           nonuniform List<scalar> 
51
(
940.2213064
939.9236882
939.9236882
939.7182331
939.4145855
939.01972
938.5394281
937.9795522
937.3457536
936.6436821
935.8787992
935.0566113
934.1825605
933.2622057
932.3008942
931.3039791
930.2766181
929.2240282
928.1510888
927.0627506
925.9635535
924.8578677
923.7498699
922.6435733
921.5425324
920.4500892
919.3694126
918.3032774
917.2540506
916.2239885
915.2149908
914.2284947
913.266057
912.3284902
911.4168226
910.5313392
909.6725701
908.8405645
908.0352226
907.2564908
906.5039314
905.7770628
905.075301
904.3980225
903.7445033
903.113971
902.5055373
901.9184038
901.351646
900.8044483
900.2759095
)
;
    }
}


// ************************************************************************* //
