/*--------------------------------*- C++ -*----------------------------------*\
  =========                 |
  \\      /  F ield         | OpenFOAM: The Open Source CFD Toolbox
   \\    /   O peration     | Website:  https://openfoam.org
    \\  /    A nd           | Version:  7
     \\/     M anipulation  |
\*---------------------------------------------------------------------------*/
FoamFile
{
    version     2.0;
    format      ascii;
    class       volScalarField;
    location    "0.003";
    object      T;
}
// * * * * * * * * * * * * * * * * * * * * * * * * * * * * * * * * * * * * * //

dimensions      [0 0 0 1 0 0 0];

internalField   nonuniform List<scalar> 
1167
(
450.1701404
450.4739218
450.6139384
450.9142712
451.3582185
451.9363125
452.6401075
453.4617868
454.393538
455.4276934
456.556827
457.7734847
459.0703179
460.4397585
461.8746124
463.3675855
464.9115014
466.4993099
468.1241076
469.778753
471.4570568
473.152546
474.8587957
476.5703116
478.2814067
479.9867114
481.6813837
483.3609793
485.021207
486.6582236
488.2688399
489.84977
491.3985838
492.9128938
494.390819
495.8308669
497.2319766
498.5930165
499.9137054
501.1936968
502.432799
503.6314158
504.7900011
505.9091333
506.9896026
508.0323624
509.0386347
510.0095969
510.9467027
511.8512887
512.7247951
450.777588
450.9120186
451.2003468
451.6264522
452.1817312
452.8577279
453.6472693
454.5429842
455.5377079
456.6244826
457.7963748
459.0465827
460.3681757
461.7544403
463.1988655
464.6945457
466.2354539
467.8147398
469.4263924
471.0643675
472.7225329
474.3954166
476.0775261
477.7633536
479.4482017
481.1273889
482.7961602
484.4506888
486.0871664
487.7018984
489.2919867
490.8543914
492.386722
493.8866052
495.3522487
496.7819936
498.174702
499.528901
500.8441701
502.1198638
503.3553816
504.5507952
505.7061521
506.8216552
507.8977301
508.9350955
509.9345243
510.8971055
511.8239789
512.7166039
451.0810732
451.2087639
451.4825549
451.887635
452.4153443
453.0582853
453.8092372
454.6615638
455.6086363
456.6440053
457.7612921
458.9542712
460.216773
461.542443
462.925535
464.3599764
465.8400021
467.359833
468.9137398
470.4963176
472.1023861
473.7264149
475.3638223
477.0097135
478.6594222
480.3088584
481.9537296
483.5902567
485.2150443
486.8245074
488.4158534
489.9862452
491.5330905
493.0542444
494.5474378
496.0111729
497.4436225
498.8434243
500.2093545
501.539925
502.834278
504.0912649
505.3096676
506.4885045
507.6268692
508.7240311
509.7795096
510.7933342
511.7660785
512.6989961
451.3843237
451.5043397
451.7618613
452.1429283
452.6391573
453.2441155
453.9509004
454.7533107
455.6453601
456.6211135
457.6747446
458.8005905
459.9931379
461.2467498
462.5559235
463.9156138
465.320537
466.7654598
468.2455382
469.7556272
471.2913548
472.8478685
474.4209061
476.0062943
477.5997993
479.1978881
480.7966769
482.3929978
483.9836173
485.5656265
487.1366296
488.693841
490.2356029
491.7596992
493.2647297
494.7490956
496.2119346
497.6519309
499.0684954
500.4605534
501.8274139
503.168098
504.4809856
505.7645925
507.0164395
508.2332137
509.4109498
510.5448788
511.6296764
512.6601212
451.6851323
451.7959499
452.0337785
452.3854835
452.8439142
453.4027138
454.0559161
454.7975812
455.6224741
456.5252207
457.5005834
458.5434834
459.6490181
460.8123153
462.0285979
463.2931367
464.6013909
465.9491373
467.3317854
468.7450809
470.1851652
471.6477444
473.1293802
474.6259735
476.1345458
477.6512246
479.1733827
480.697711
482.2218204
483.7428891
485.2590709
486.7681386
488.268726
489.7592497
491.2390283
492.7071322
494.1636561
495.608424
497.0424878
498.4665653
499.882313
501.2915562
502.6963004
504.0989969
505.5013228
506.9047143
508.3087006
509.7103614
511.1032401
512.4756032
451.9320087
452.0407246
452.2736298
452.6180303
453.0670953
453.614258
454.2540711
454.9806697
455.7888788
456.6735971
457.6297586
458.6524771
459.7370248
460.8787067
462.0729412
463.3151617
464.6010838
465.9266154
467.2873801
468.6792242
470.0984966
471.541053
473.003506
474.4820664
475.9736051
477.4746868
478.9824869
480.4940911
482.0070272
483.518811
485.0276458
486.5315693
488.0294305
489.5198749
491.0024597
492.4765803
493.9422998
495.3998549
496.8498257
498.2929208
499.7296056
501.1607097
502.5859802
504.0054521
505.4180264
506.8226404
508.2188415
509.6084829
510.9997832
512.4115126
452.1147036
452.2236788
452.4572169
452.8026872
453.2529977
453.8017171
454.4432562
455.1721002
455.9827185
456.8701562
457.8293807
458.8555372
459.9439015
461.089766
462.2884239
463.5355204
464.8267968
466.1580167
467.5245776
468.9227633
470.3484754
471.7978735
473.2673351
474.7531244
476.2522059
477.7610363
479.2769964
480.7971905
482.3193071
483.841015
485.3606325
486.8765055
488.3874499
489.8924955
491.3910298
492.8825632
494.366869
495.8437579
497.3130949
498.774216
500.2264953
501.6682005
503.0976582
504.5118474
505.9080324
507.2829798
508.6339411
509.9593016
511.2577609
512.5272506
452.2972109
452.4067216
452.6415302
452.9888564
453.4413522
453.9929743
454.6376887
455.3702139
456.1851684
457.0772578
458.0415321
459.0731736
460.1674044
461.3193402
462.5245016
463.7784454
465.076826
466.4150421
467.7889952
469.1946234
470.62767
472.0846878
473.561534
475.0551084
476.5618269
478.0788226
479.6029392
481.132024
482.6632692
484.1950452
485.7252475
487.2527573
488.7760017
490.2942641
491.8064357
493.3117786
494.8092709
496.2980085
497.7763626
499.2425448
500.6938765
502.1276052
503.5398028
504.9271346
506.2857796
507.6125011
508.9052616
510.162643
511.3840409
512.5698817
452.479727
452.5897361
452.8256372
453.1745459
453.6289423
454.183045
454.8305171
455.5661811
456.3846508
457.2806825
458.2491884
459.2852849
460.3841589
461.5410206
462.7512749
464.0104152
465.3139173
466.6573689
468.0366676
469.4474267
470.8859215
472.34828
473.8307526
475.3300721
476.8428975
478.3662805
479.8974017
481.4338191
482.9732867
484.5136809
486.0534652
487.5908431
489.1246872
490.6533317
492.17584
493.6901632
495.1950495
496.6879893
498.1668175
499.6279463
501.0683682
502.4839302
503.8710435
505.2262131
506.5462915
507.8295707
509.0753021
510.2835677
511.4557452
512.5934098
452.6623274
452.7727162
453.0094506
453.3593848
453.8153662
454.371161
455.0208581
455.7588164
456.5798255
457.4786041
458.4500473
459.4892261
460.5912686
461.7513681
462.9649137
464.2272883
465.5339974
466.8808241
468.2634455
469.6776379
471.1198362
472.5858607
474.0725145
475.5761218
477.0938594
478.6223983
480.1594489
481.7020781
483.2484757
484.7962397
486.3437662
487.8891427
489.4306596
490.9665882
492.4948589
494.0133217
495.519284
497.0100378
498.4820156
499.9317415
501.3553714
502.7492323
504.110215
505.4354522
506.723428
507.9734543
509.185856
510.3614482
511.5018999
512.6086073
452.8450221
452.9556865
453.1929785
453.5436465
454.0007678
454.557706
455.2089017
455.9484437
456.7710992
457.6716167
458.6448798
459.6859274
460.789851
461.9518533
463.1673174
464.4314743
465.7402214
467.0891716
468.4738341
469.8904768
471.3351752
472.8041285
474.2939502
475.8011927
477.3228909
478.8559815
480.3979112
481.9460984
483.4981953
485.0521725
486.6057052
488.157058
489.7036376
491.2436014
492.7740236
494.2923047
495.7951076
497.2792181
498.7407114
500.1762021
501.58175
502.9545988
504.2920481
505.5923643
506.8548281
508.0794235
509.2668641
510.4183647
511.5355031
512.6196386
453.0278132
453.1386715
453.3761848
453.727469
454.185329
454.743008
455.3950278
456.135676
456.9592827
457.8607782
458.8350495
459.8771216
460.9820693
462.1451213
463.3614824
464.6268266
465.9368462
467.2870585
468.6732386
470.0916855
471.5382507
473.0095682
474.501905
476.0122564
477.5372318
479.0742119
480.6202131
482.1729476
483.7295689
485.288118
486.8459575
488.4008101
489.9500593
491.4909038
493.0203794
494.5350237
496.0316079
497.5062562
498.9554765
500.3757217
501.7638835
503.117592
504.434702
505.7144311
506.956461
508.1611322
509.3293003
510.4622933
511.5615014
512.6281905
453.2106332
453.3215017
453.5592896
453.9109871
454.3691436
454.9274182
455.5798837
456.3210242
457.1453105
458.0472996
459.0220811
460.0646757
461.1701285
462.3335733
463.5505574
464.8166312
466.1274761
467.4784601
468.8657927
470.2854815
471.7336208
473.2067915
474.7012227
476.2140824
477.7418044
479.2818373
480.831179
482.3872349
483.9473154
485.5088238
487.0692485
488.6255213
490.1750797
491.7143667
493.2403272
494.7491345
496.237489
497.7014713
499.1378957
500.5433146
501.9154174
503.2520742
504.5518561
505.8143439
507.039509
508.2277983
509.3802554
510.4981018
511.5826568
512.63514
453.3934129
453.5043731
453.7423585
454.0943372
454.5526214
455.1112903
455.763973
456.5053403
457.3298538
458.2321828
459.2072257
460.2500119
461.3556209
462.5193596
463.7366879
465.0032035
466.3144075
467.666034
469.0541993
470.4747384
471.9241423
473.3986289
474.8948379
476.4095443
477.939537
479.4818105
481.0336575
482.591962
484.1542079
485.7171801
487.2783425
488.8342815
490.3819756
491.9179105
493.4384169
494.9399628
496.41889
497.8717878
499.2954122
500.6869618
502.0444189
503.3659386
504.6507151
505.8984671
507.109354
508.2838474
509.4231056
510.5282346
511.6004747
512.6409973
453.5762846
453.6873153
453.9254492
454.2774853
454.7359598
455.2947555
455.9476941
456.6891573
457.5137552
458.4161723
459.3913019
460.4341607
461.5398533
462.7037103
463.9211937
465.1879081
466.4992695
467.8513228
469.2399682
470.661158
472.1114975
473.586927
475.0844743
476.6005106
478.1321495
479.6759156
481.2292918
482.7888608
484.3518545
485.9150829
487.4753871
489.0294699
490.5737192
492.1048167
493.6186241
495.1119787
496.58099
498.0227792
499.4340875
500.8127229
502.1568634
503.4648965
504.7364737
505.9713747
507.1698455
508.3324017
509.4602191
510.5543218
511.6158908
512.6460628
453.759245
453.8703363
454.1085956
454.4605893
454.919278
455.4781058
456.1312834
456.8727766
457.6973866
458.5998118
459.5749392
460.6177719
461.7234387
462.8872913
464.1047916
465.3713966
466.6828933
468.035175
469.4239808
470.8456564
472.2964759
473.7726436
475.2709851
476.7879488
478.3204465
479.8651518
481.4190704
482.9789945
484.5415952
486.1038264
487.6619652
489.2128182
490.752453
492.2775003
493.7839137
495.2684445
496.7275155
498.1584092
499.5580113
500.9246378
502.2565272
503.5525076
504.8123013
506.0357975
507.2232469
508.3752953
509.4930101
510.5773757
511.6295177
512.6505414
453.9422875
454.0534342
454.2916394
454.6437455
455.1026275
455.6614617
456.3146667
457.0563357
457.8809168
458.7833019
459.75837
460.8011098
461.9066725
463.0704294
464.287702
465.5542118
466.8656991
468.2179692
469.6068083
471.0287333
472.4797108
473.9563138
475.4549731
476.9724226
478.5051653
480.0501175
481.6037519
483.1630778
484.7242734
486.2842994
487.8393135
489.3857901
490.9199942
492.4382024
493.9367512
495.4121983
496.8614286
498.2816631
499.6703021
501.0257513
502.3463882
503.6314008
504.8805377
506.0937559
507.2712887
508.4138856
509.5225111
510.598114
511.6417736
512.6545689
454.1254033
454.2364994
454.4746995
454.8269592
455.2858728
455.8448478
456.4980404
457.2397815
458.0644105
458.9667216
459.9416897
460.9842868
462.0896848
463.2531632
464.4701923
465.7365485
467.0479031
468.3998946
469.7887067
471.2106015
472.6615294
474.1382373
475.6368132
477.1542575
478.6866723
480.2311142
481.7837833
483.3415041
484.9005644
486.4574292
488.0084714
489.5497658
491.0778561
492.5887289
494.0791208
495.5454372
496.9850059
498.3949908
499.7732536
501.1182589
502.4284838
503.7034151
504.9427991
506.1466336
507.3151215
508.449099
509.5494335
510.6170415
511.6529603
512.6582452
454.308394
454.4195123
454.6578193
455.0102264
455.4691105
456.0282668
456.6814324
457.4231226
458.2477799
459.1500977
460.1249332
461.167329
462.2724043
463.4355893
464.6523922
465.9185049
467.2295364
468.5812002
469.9698176
471.3913545
472.842095
474.3184226
475.8166967
477.3334985
478.8651982
480.4084087
481.9595227
483.5148949
485.0710476
486.6239946
488.1703335
489.7058541
491.2272725
492.7305697
494.2126086
495.669921
497.1000709
498.5002228
499.8686512
501.2038015
502.5043746
503.7699552
505.0003187
506.1954425
507.3556265
508.4816434
509.5743176
510.6345362
511.6632997
512.6616431
454.4914111
454.6025801
454.8409911
455.1934922
455.652387
456.2116469
456.864841
457.6064664
458.4310409
459.3332439
460.3079371
461.3500926
462.4549253
463.6178294
464.8343433
466.1001323
467.4106382
468.761958
470.1502199
471.5711989
473.0215015
474.4971298
475.9947391
477.5104547
479.0409253
480.5823347
482.1312726
483.6836496
485.236157
486.7846526
488.3255976
489.8550214
491.3693732
492.8649751
494.3385697
495.7870728
497.2080177
498.5987927
499.957875
501.2836998
502.5752435
503.8320783
505.054021
506.2410163
507.3934573
508.5120449
509.5975664
510.6508827
511.672961
512.6648181
454.6744762
454.7856945
455.0242063
455.3766425
455.8356949
456.3949154
457.0482611
457.7898087
458.6142841
459.5163523
460.4908515
461.5327665
462.6373223
463.7999003
465.0160678
466.2813221
467.5913462
468.9421999
470.3297769
471.7501845
473.1997546
474.6744355
476.1710003
477.6852369
479.2139461
480.753094
482.2991607
483.8481341
485.3963788
486.9399985
488.4751241
489.998116
491.505188
492.9930048
494.4582018
495.8980613
497.3100354
498.6918502
500.0420218
501.3590052
502.6420203
503.8906133
505.1046294
506.2839745
507.4291258
508.5407148
509.6194941
510.6663014
511.682074
512.667813
454.857581
454.9688472
455.2073931
455.5598223
456.0190254
456.5781975
457.2315916
457.9731435
458.7975046
459.6994198
460.6737035
461.7153522
462.8195987
463.9818085
465.1975254
466.4621723
467.7716747
469.1219434
470.5086852
471.9283294
473.3768054
474.8503804
476.3454059
477.8579405
479.3843551
480.920871
482.4635732
484.0086866
485.5522243
487.0905692
488.6195537
490.1358776
491.635543
493.1155529
494.5724437
496.0038451
497.4071242
498.7803174
500.1219642
501.430524
502.7054352
503.9462085
505.1527048
506.3247968
507.46303
508.5679726
509.6403451
510.6809642
511.6907407
512.6706613
455.0407177
455.1520277
455.3904675
455.7430227
456.2023114
456.7614836
457.4148008
458.1564563
458.9806957
459.882441
460.856489
461.8978465
463.0017523
464.16354
465.3786268
466.6427361
467.9516255
469.3010409
470.6869483
472.1056413
473.5527959
475.0249921
476.5181634
478.0286391
479.5523691
481.0858409
482.6247671
484.1656065
485.7040897
487.2367624
488.7594527
490.2688335
491.7611437
493.2332981
494.6820813
496.1052167
497.500063
498.8649426
500.1983561
501.4989022
502.7660712
503.9993798
505.1986548
506.3638637
507.4954858
508.594072
509.660313
510.6950073
511.6990413
512.6733893
494.7877676
496.2027783
497.5894886
498.946333
500.2717883
501.5646586
502.8243942
504.0505385
505.2428809
506.4014777
507.5267438
508.6192139
509.6795513
510.7085384
511.7070396
512.6760179
)
;

boundaryField
{
    front_top
    {
        type            wedge;
    }
    front_middle
    {
        type            wedge;
    }
    front_bottom
    {
        type            wedge;
    }
    back_top
    {
        type            wedge;
    }
    back_middle
    {
        type            wedge;
    }
    back_bottom
    {
        type            wedge;
    }
    axis_top
    {
        type            symmetryPlane;
    }
    axis_middle
    {
        type            symmetryPlane;
    }
    axis_bottom
    {
        type            symmetryPlane;
    }
    wall_top
    {
        type            convectiveRadiativeHeatFlux;
        mode            convectiveRadiative;
        kappaMethod     fluidThermo;
        kappa           none;
        alphaAni        Anialpha;
        h               nonuniform 0();
        Ta              constant 513.15;
        emissivityNozzle 0.95;
        emissivityFilament 0.95;
        dNozzle         2;
        dFilament       1.65;
        refValue        nonuniform 0();
        refGradient     nonuniform 0();
        valueFraction   nonuniform 0();
        value           nonuniform 0();
    }
    wall_middle
    {
        type            fixedValue;
        value           uniform 513.15;
    }
    wall_bottom
    {
        type            fixedValue;
        value           uniform 513.15;
    }
    inlet
    {
        type            fixedValue;
        value           nonuniform 0();
    }
    outlet
    {
        type            zeroGradient;
    }
    procBoundary2to1
    {
        type            processor;
        value           nonuniform List<scalar> 
51
(
455.2237971
455.3350306
455.5735594
455.9262345
456.3854573
456.9447647
457.597996
458.3395503
459.1638339
460.0654077
461.0392003
462.0802421
463.1837396
464.3449339
465.5595049
466.8230061
468.1311908
469.4796075
470.8645598
472.2819809
473.7277307
475.1982426
476.6893097
478.1973527
479.7181015
481.2480757
482.7829654
484.3190684
485.8523349
487.3790399
488.8953197
490.3976477
491.8825961
493.3469276
493.3469276
494.8900475
496.2970811
497.6759239
499.0249844
500.3427489
501.6282125
502.8807797
504.1000152
505.2856686
506.437881
507.5570045
508.643559
509.6981827
510.7216437
511.7147864
512.678564
)
;
    }
    procBoundary2to3
    {
        type            processor;
        value           nonuniform List<scalar> 
51
(
449.8660134
450.3146091
450.3146091
450.6244545
451.0826314
451.6788912
452.4048239
453.2519817
454.2122142
455.2774003
456.439703
457.6912061
459.0240686
460.4302399
461.9019516
463.4313793
465.0109456
466.6329239
468.2900457
469.9748692
471.680523
473.400336
475.127875
476.8569011
478.5818352
480.297378
481.9984544
483.6805647
485.3398151
486.9724552
488.5752715
490.1457639
491.6812254
493.1801232
494.6405728
496.0618764
497.4429434
498.7834588
500.0833538
501.3424923
502.5613677
503.7405564
504.8808115
505.982963
507.0480165
508.0770688
509.0714186
510.03223
510.9608848
511.8585985
512.7267371
)
;
    }
}


// ************************************************************************* //
