/*--------------------------------*- C++ -*----------------------------------*\
  =========                 |
  \\      /  F ield         | OpenFOAM: The Open Source CFD Toolbox
   \\    /   O peration     | Website:  https://openfoam.org
    \\  /    A nd           | Version:  7
     \\/     M anipulation  |
\*---------------------------------------------------------------------------*/
FoamFile
{
    version     2.0;
    format      ascii;
    class       volScalarField;
    location    "0.003";
    object      thermo:alpha;
}
// * * * * * * * * * * * * * * * * * * * * * * * * * * * * * * * * * * * * * //

dimensions      [1 -1 -1 0 0 0 0];

internalField   nonuniform List<scalar> 
1167
(
0.0001197300962
0.0001197015793
0.0001196884396
0.0001196602639
0.000119618637
0.0001195644707
0.000119493987
0.0001194123702
0.0001193230706
0.0001192169398
0.0001191012379
0.0001189709431
0.0001188264007
0.0001186740506
0.000118507981
0.0001183266292
0.0001181272169
0.0001179225834
0.0001177046094
0.000117476994
0.0001172345543
0.000116986713
0.0001167221466
0.0001164535133
0.0001161816896
0.0001158954592
0.0001156055364
0.0001153154371
0.0001150160242
0.0001147168095
0.0001144129109
0.0001141088683
0.0001138037562
0.0001135060673
0.0001132048149
0.0001129035644
0.0001126043081
0.0001123141581
0.0001120261893
0.0001117426909
0.0001114661555
0.0001111907192
0.0001109249084
0.0001106685463
0.000110413822
0.0001101662423
0.0001099196373
0.0001096809805
0.0001094509427
0.0001092291644
0.0001090100885
0.0001196730854
0.0001196604752
0.0001196334369
0.0001195934985
0.000119541191
0.000119471587
0.0001193950387
0.0001193077241
0.0001192056586
0.0001190943111
0.0001189683896
0.0001188290438
0.000118682007
0.0001185224315
0.0001183484472
0.0001181552129
0.0001179565572
0.0001177472248
0.0001175254212
0.0001172920342
0.0001170495333
0.000116793935
0.0001165335567
0.0001162639906
0.0001159832474
0.0001157007297
0.0001154142042
0.0001151188368
0.000114824145
0.0001145198073
0.0001142189091
0.0001139108867
0.0001136094341
0.0001133082603
0.0001130059216
0.0001127003554
0.000112403278
0.0001121115144
0.0001118200566
0.0001115378672
0.0001112541107
0.0001109797544
0.0001107150147
0.0001104537301
0.000110198188
0.0001099451052
0.0001096994217
0.0001094631104
0.000109235856
0.0001090121669
0.0001196446206
0.0001196326478
0.0001196069832
0.00011956903
0.0001195171295
0.0001194509493
0.0001193799081
0.0001192955495
0.0001191983863
0.0001190923124
0.0001189723033
0.0001188393243
0.0001186988378
0.0001185479298
0.0001183817127
0.0001181984025
0.0001180074986
0.0001178099215
0.000117595921
0.0001173752382
0.0001171401622
0.0001168976606
0.0001166439587
0.0001163815909
0.0001161164735
0.0001158415116
0.0001155587657
0.0001152740474
0.0001149811114
0.0001146854031
0.0001143852052
0.000114081957
0.0001137772893
0.0001134783115
0.0001131726973
0.0001128650216
0.0001125591535
0.0001122608341
0.0001119606637
0.0001116660915
0.0001113738475
0.0001110851672
0.0001108058188
0.0001105329211
0.0001102624759
0.0001099970324
0.0001097375062
0.0001094885712
0.0001092500439
0.0001090166346
0.00011961619
0.0001196049416
0.0001195808118
0.000119545122
0.0001194940849
0.0001194327151
0.0001193666772
0.0001192861312
0.0001191946213
0.000119094656
0.0001189819593
0.0001188564423
0.000118723705
0.0001185835074
0.0001184261003
0.0001182557966
0.0001180744578
0.0001178883269
0.0001176878874
0.0001174801716
0.0001172588051
0.0001170312261
0.0001167899849
0.0001165445706
0.000116289221
0.0001160240759
0.0001157575908
0.0001154833661
0.0001152030675
0.0001149179902
0.0001146264713
0.0001143328318
0.0001140327996
0.0001137327106
0.0001134359437
0.0001131313536
0.0001128221173
0.0001125147236
0.0001122129212
0.0001119050104
0.0001116025151
0.0001112971341
0.000110995764
0.0001107016347
0.0001104074458
0.0001101178435
0.0001098280873
0.0001095495454
0.0001092834722
0.000109026499
0.0001195880004
0.0001195776184
0.0001195553427
0.0001195202047
0.0001194730087
0.0001194178909
0.0001193568708
0.0001192815871
0.0001191969676
0.0001191044741
0.0001190013937
0.0001188850889
0.0001187619847
0.0001186326543
0.0001184894681
0.0001183362559
0.0001181672363
0.0001179934372
0.0001178137884
0.0001176191259
0.0001174208415
0.0001172066536
0.0001169901187
0.0001167582105
0.0001165247411
0.0001162812874
0.0001160280738
0.0001157746116
0.000115512743
0.0001152465011
0.0001149731828
0.0001146960488
0.0001144129323
0.0001141267206
0.0001138351583
0.0001135464804
0.0001132514112
0.0001129511277
0.0001126447466
0.0001123410925
0.0001120331485
0.0001117210369
0.0001114055656
0.000111083393
0.0001107619192
0.0001104339923
0.0001100992577
0.0001097544974
0.0001094125448
0.0001090733269
0.0001195648738
0.0001195546923
0.0001195317248
0.0001194962599
0.0001194500429
0.0001193981229
0.0001193373953
0.000119262797
0.0001191799093
0.000119089283
0.0001189869788
0.0001188729437
0.0001187521931
0.0001186252796
0.0001184841376
0.0001183334079
0.0001181672759
0.0001179963388
0.0001178199108
0.0001176281883
0.00011743307
0.0001172222634
0.0001170084973
0.0001167805074
0.0001165496253
0.000116308525
0.0001160607645
0.0001158096389
0.0001155496149
0.0001152869436
0.0001150148643
0.0001147407358
0.0001144580412
0.0001141739406
0.0001138817299
0.0001135917761
0.0001132968304
0.0001129957376
0.0001126858731
0.0001123780869
0.0001120670053
0.0001117499908
0.0001114309301
0.0001111048594
0.0001107809972
0.000110453496
0.0001101213823
0.0001097795339
0.0001094379214
0.0001090895948
0.0001195477648
0.0001195368699
0.0001195128176
0.0001194772518
0.0001194318848
0.0001193806106
0.0001193179648
0.0001192431559
0.0001191600437
0.0001190691637
0.0001189647076
0.0001188503215
0.0001187291809
0.0001186018397
0.0001184582394
0.0001183049179
0.0001181381462
0.0001179665303
0.0001177872112
0.0001175946797
0.0001173969039
0.0001171846926
0.0001169688945
0.0001167385135
0.000116505609
0.0001162643481
0.0001160111711
0.0001157575025
0.0001154960118
0.0001152287949
0.000114954895
0.0001146755836
0.0001143905576
0.0001141004428
0.0001138052428
0.0001135120237
0.0001132097269
0.0001129008085
0.000112587
0.0001122755701
0.0001119568655
0.0001116377211
0.0001113133186
0.0001109886862
0.0001106687983
0.0001103441309
0.0001100192014
0.0001096933351
0.0001093746496
0.0001090602184
0.0001195292959
0.0001195180175
0.0001194938406
0.000119458093
0.0001194142799
0.0001193627481
0.0001192980006
0.0001192228346
0.0001191393014
0.0001190479713
0.0001189410455
0.0001188260827
0.0001187043267
0.000118574772
0.0001184298749
0.0001182735205
0.000118105889
0.0001179334323
0.0001177507719
0.0001175572878
0.0001173559928
0.0001171427498
0.0001169232394
0.0001166917471
0.0001164549025
0.0001162153417
0.0001159580153
0.0001156999329
0.0001154369972
0.0001151649323
0.000114889261
0.0001146045517
0.0001143173564
0.0001140212378
0.0001137235183
0.0001134262798
0.0001131190188
0.0001128037262
0.0001124881898
0.000112175039
0.0001118533346
0.0001115361562
0.0001112117555
0.000110893474
0.000110581127
0.0001102658868
0.0001099524442
0.0001096433912
0.0001093436861
0.000109049399
0.0001195104997
0.0001194991728
0.0001194748897
0.0001194392189
0.000119396751
0.0001193446915
0.0001192782066
0.0001192027392
0.0001191188689
0.0001190259389
0.0001189178916
0.0001188024663
0.0001186802304
0.0001185481009
0.0001184026372
0.000118243549
0.0001180753114
0.0001179022379
0.0001177166524
0.0001175225297
0.0001173181647
0.0001171042177
0.0001168814771
0.0001166491822
0.0001164088906
0.000116167044
0.000115910014
0.0001156480666
0.0001153838306
0.0001151074811
0.0001148302071
0.0001145407564
0.0001142516991
0.0001139504879
0.000113650883
0.000113348582
0.0001130395548
0.0001127204277
0.0001124049583
0.0001120895482
0.0001117704274
0.0001114543966
0.0001111357078
0.000110824938
0.0001105191823
0.0001102143632
0.000109910619
0.0001096136968
0.0001093261068
0.000109043428
0.0001194916996
0.0001194803366
0.000119455974
0.0001194219406
0.0001193793357
0.0001193253688
0.0001192586731
0.0001191829907
0.0001190988832
0.0001190038467
0.000118895502
0.0001187797661
0.0001186572131
0.000118522801
0.0001183769849
0.0001182155368
0.0001180469368
0.0001178734822
0.0001176854216
0.0001174908885
0.0001172839131
0.0001170695
0.0001168439874
0.0001166111069
0.0001163678227
0.0001161228594
0.0001158672263
0.0001156019819
0.0001153357514
0.0001150565557
0.0001147762214
0.0001144844933
0.0001141915435
0.000113888793
0.0001135881845
0.0001132822562
0.0001129701919
0.0001126516728
0.0001123378013
0.0001120221912
0.0001117069176
0.000111393397
0.0001110808189
0.0001107770059
0.0001104770753
0.0001101802194
0.000109883431
0.0001095945749
0.0001093147923
0.0001090395712
0.0001194728946
0.0001194615062
0.0001194374956
0.0001194047207
0.0001193620204
0.0001193062125
0.0001192393806
0.0001191635559
0.0001190793022
0.0001189823083
0.0001188737902
0.000118757878
0.0001186351498
0.0001184986942
0.0001183525274
0.0001181891712
0.0001180203566
0.0001178466787
0.0001176564568
0.000117461644
0.0001172523913
0.0001170376147
0.0001168096607
0.0001165762894
0.0001163319506
0.000116082576
0.0001158261874
0.000115560076
0.000115290665
0.0001150104463
0.0001147267303
0.0001144339807
0.0001141376895
0.0001138342581
0.0001135333412
0.0001132250207
0.0001129112096
0.000112594228
0.0001122827045
0.00011196801
0.0001116568407
0.0001113461932
0.000111039101
0.0001107410697
0.0001104458467
0.000110155077
0.0001098635116
0.0001095806016
0.000109306555
0.0001090367718
0.0001194540846
0.0001194426791
0.0001194203704
0.0001193875463
0.0001193444569
0.0001192871888
0.0001192202898
0.0001191443716
0.0001190600428
0.0001189612053
0.0001188526037
0.0001187366085
0.0001186137995
0.0001184754616
0.0001183274184
0.0001181639532
0.0001179950207
0.0001178199552
0.000117629012
0.0001174340055
0.0001172226734
0.0001170076121
0.0001167774333
0.0001165436487
0.0001162988743
0.0001160449521
0.0001157879419
0.0001155211316
0.0001152489049
0.0001149679522
0.0001146813523
0.0001143880399
0.0001140890919
0.0001137855899
0.0001134849608
0.0001131752427
0.000112860654
0.0001125457931
0.0001122369787
0.0001119238028
0.0001116165624
0.0001113087384
0.0001110063791
0.0001107131192
0.0001104216965
0.0001101355926
0.0001098481605
0.0001095698176
0.0001093001823
0.0001090346017
0.0001194358452
0.0001194254814
0.000119403259
0.0001193704047
0.000119325576
0.0001192682616
0.0001192013342
0.0001191253854
0.000119041009
0.0001189404023
0.0001188317723
0.0001187157495
0.0001185927288
0.000118452814
0.0001183029741
0.0001181394579
0.0001179704639
0.0001177935681
0.0001176025172
0.0001174061367
0.000117194091
0.0001169782922
0.0001167465532
0.0001165118539
0.0001162673146
0.0001160103815
0.0001157516575
0.000115484355
0.0001152096164
0.0001149282153
0.0001146391914
0.0001143457015
0.0001140447294
0.0001137416274
0.0001134409562
0.0001131313457
0.0001128166569
0.0001125041591
0.0001121981503
0.0001118866788
0.0001115830587
0.0001112778414
0.0001109795111
0.0001106902448
0.0001104019649
0.0001101191769
0.0001098356331
0.0001095610274
0.0001092949968
0.0001090328382
0.0001194187602
0.0001194083905
0.0001193861553
0.0001193532833
0.0001193067346
0.0001192493945
0.0001191824622
0.0001191065097
0.0001190204498
0.0001189197875
0.0001188111565
0.0001186951425
0.0001185704064
0.0001184304926
0.0001182789168
0.0001181153861
0.0001179463899
0.0001177677155
0.0001175766001
0.0001173784003
0.0001171662254
0.0001169485174
0.0001167165648
0.000116479839
0.0001162368185
0.0001159777666
0.0001157168428
0.0001154492293
0.0001151722973
0.0001148907129
0.0001145997229
0.0001143063802
0.0001140039521
0.0001137015953
0.0001134002713
0.0001130922328
0.0001127779016
0.0001124678443
0.0001121633091
0.0001118548658
0.0001115545423
0.0001112516858
0.0001109568422
0.0001106709878
0.000110385372
0.0001101053767
0.0001098250991
0.0001095536309
0.0001092906295
0.0001090313518
0.000119401671
0.0001193912974
0.0001193690541
0.0001193349903
0.0001192879123
0.000119230574
0.0001191636327
0.0001190876901
0.0001189999237
0.0001188992776
0.000118790665
0.0001186746728
0.0001185482414
0.0001184083494
0.0001182550756
0.0001180915615
0.0001179225886
0.0001177421845
0.0001175510524
0.0001173510868
0.0001171388301
0.0001169192997
0.0001166872004
0.0001164485689
0.0001162071202
0.0001159461174
0.0001156832142
0.0001154154561
0.0001151366558
0.000114855102
0.0001145625391
0.0001142696254
0.0001139661716
0.0001136648453
0.0001133632688
0.0001130569846
0.000112743278
0.0001124356571
0.0001121325448
0.0001118270191
0.0001115296277
0.0001112289576
0.0001109371798
0.0001106543
0.0001103710024
0.0001100934226
0.0001098159758
0.0001095472276
0.000109286851
0.0001090300664
0.0001193845779
0.0001193742013
0.000119351952
0.0001193161848
0.000119269097
0.0001192117702
0.0001191448216
0.0001190688955
0.000118979433
0.0001188788119
0.0001187702276
0.0001186542682
0.0001185261598
0.0001183863044
0.0001182313579
0.0001180678998
0.0001178989528
0.000117716858
0.0001175257528
0.0001173240617
0.0001171117893
0.0001168904899
0.0001166583276
0.0001164178844
0.0001161749528
0.0001159152702
0.0001156506008
0.0001153828519
0.0001151024492
0.0001148211483
0.0001145273398
0.0001142345344
0.0001139309634
0.0001136309001
0.0001133293374
0.0001130238509
0.0001127119875
0.0001124067502
0.000112105058
0.0001118022423
0.0001115066998
0.0001112088381
0.0001109197962
0.0001106395556
0.000110358318
0.0001100828629
0.0001098079154
0.0001095415691
0.0001092835111
0.0001090289299
0.0001193674816
0.0001193571025
0.0001193335364
0.0001192973788
0.0001192502833
0.0001191929706
0.0001191260365
0.000119050112
0.000118958959
0.0001188583682
0.0001187498184
0.0001186338991
0.0001185041263
0.0001183643181
0.0001182077351
0.000118044331
0.0001178754283
0.0001176916836
0.0001175006225
0.0001172972517
0.0001170850103
0.000116862005
0.0001166298526
0.0001163876931
0.0001161430821
0.000115885127
0.0001156188715
0.0001153511733
0.0001150695243
0.0001147874596
0.0001144938901
0.0001142003974
0.0001138979678
0.0001135993175
0.000113297969
0.0001129930971
0.000112683396
0.0001123804856
0.0001120801554
0.00011177986
0.0001114860296
0.0001111907226
0.0001109041545
0.0001106262918
0.0001103469075
0.0001100733631
0.0001098006641
0.0001095364791
0.0001092805073
0.0001090279079
0.0001193503828
0.0001193392003
0.0001193147358
0.0001192785717
0.0001192314851
0.0001191741728
0.0001191072572
0.0001190305051
0.0001189384942
0.0001188379376
0.0001187294269
0.0001186135532
0.000118482125
0.0001183414252
0.0001181841725
0.0001180208299
0.0001178519872
0.0001176666353
0.0001174756263
0.0001172706255
0.000117058445
0.000116833798
0.0001166017171
0.0001163579804
0.0001161117735
0.0001158548914
0.000115587949
0.0001153189535
0.0001150377584
0.0001147547436
0.0001144619928
0.0001141680433
0.0001138668855
0.0001135697409
0.000113268755
0.0001129645983
0.0001126570158
0.0001123563402
0.0001120573274
0.0001117593855
0.0001114671479
0.0001111741884
0.0001108898836
0.0001106141917
0.0001103364973
0.000110064695
0.0001097940468
0.0001095318336
0.0001092777656
0.000109026975
0.0001193318155
0.0001193204031
0.0001192959339
0.000119259764
0.0001192126926
0.0001191553764
0.0001190884809
0.0001190100389
0.0001189180486
0.0001188175171
0.000118709049
0.0001185930658
0.0001184601645
0.0001183178368
0.0001181606534
0.0001179973837
0.0001178278867
0.0001176416786
0.0001174507446
0.0001172441693
0.0001170320694
0.0001168058676
0.0001165738914
0.0001163303135
0.0001160809868
0.0001158243811
0.0001155577711
0.0001152876505
0.0001150070463
0.0001147232753
0.0001144314782
0.0001141372523
0.0001138374722
0.0001135418765
0.0001132413687
0.0001129379768
0.0001126324568
0.0001123339229
0.0001120361772
0.0001117404548
0.0001114496951
0.0001111589125
0.0001108767007
0.0001106026125
0.000110326878
0.0001100566843
0.0001097879308
0.0001095275399
0.0001092752315
0.0001090261128
0.0001193130197
0.0001193016051
0.0001192771316
0.0001192409613
0.0001191939009
0.0001191365889
0.0001190697077
0.0001189895778
0.0001188976203
0.0001187971275
0.000118688703
0.0001185710716
0.0001184382335
0.0001182942785
0.0001181371724
0.0001179739859
0.0001178029174
0.0001176168036
0.0001174259644
0.0001172178526
0.0001170058696
0.0001167781733
0.0001165463573
0.0001163030059
0.0001160506901
0.0001157944578
0.0001155282853
0.0001152571917
0.0001149773092
0.0001146929299
0.0001144022138
0.0001141078327
0.0001138095046
0.0001135154778
0.0001132155312
0.0001129129275
0.0001126094206
0.0001123129278
0.0001120163982
0.0001117227752
0.0001114333989
0.0001111446518
0.0001108643936
0.000110591773
0.0001103178943
0.0001100492014
0.0001097822168
0.0001095235282
0.0001092728637
0.0001090253071
0.0001192942239
0.0001192828072
0.0001192583296
0.0001192221753
0.0001191751109
0.0001191178177
0.0001190509381
0.000118969122
0.0001188771993
0.0001187767473
0.0001186683722
0.0001185490939
0.0001184163229
0.000118270748
0.0001181137266
0.0001179506504
0.0001177780086
0.0001175920059
0.0001173996444
0.0001171916681
0.0001169793846
0.0001167507028
0.0001165189115
0.0001162760404
0.0001160214563
0.0001157650862
0.0001154994692
0.0001152275104
0.0001149484589
0.0001146635943
0.0001143740368
0.0001140796165
0.0001137827793
0.0001134903359
0.0001131909959
0.0001128891996
0.0001125876528
0.0001122931094
0.0001119977469
0.0001117061136
0.000111418045
0.0001111312159
0.0001108527964
0.0001105815563
0.0001103094245
0.000110042145
0.0001097768278
0.0001095197442
0.0001092706303
0.0001090245472
0.0001192754288
0.0001192640101
0.0001192395353
0.0001192033911
0.0001191563233
0.0001190990499
0.0001190314194
0.0001189486724
0.000118856786
0.0001187563769
0.0001186480535
0.0001185271324
0.0001183944325
0.0001182472446
0.0001180903212
0.0001179273644
0.0001177531584
0.0001175672829
0.000117373426
0.0001171656131
0.0001169519042
0.00011672345
0.0001164903434
0.000116249402
0.0001159936601
0.0001157362344
0.0001154712562
0.0001151985452
0.0001149204027
0.0001146351664
0.0001143468257
0.000114052457
0.0001137571331
0.0001134662746
0.00011316757
0.0001128665878
0.0001125669395
0.0001122742709
0.0001119800295
0.0001116902915
0.0001114034655
0.0001111184558
0.0001108417803
0.0001105718481
0.000110301374
0.0001100354364
0.0001097717034
0.0001095161457
0.0001092685063
0.0001090238244
0.0001192566354
0.0001192452151
0.0001192207575
0.0001191846097
0.0001191375452
0.0001190802865
0.0001190109678
0.0001189282305
0.0001188363813
0.0001187360168
0.0001186277475
0.0001185051874
0.0001183725624
0.0001182237699
0.0001180669676
0.0001179041213
0.0001177283665
0.0001175426549
0.0001173473086
0.0001171396863
0.0001169245951
0.0001166964102
0.000116462052
0.0001162230791
0.0001159662609
0.0001157078718
0.0001154436017
0.0001151702415
0.0001148930687
0.0001146075706
0.0001143204734
0.0001140262499
0.0001137324265
0.0001134424001
0.0001131450916
0.0001128449223
0.0001125471141
0.0001122562527
0.0001119631008
0.0001116751655
0.000111389526
0.0001111062529
0.000110831252
0.0001105625578
0.0001102936678
0.0001100290131
0.0001097667963
0.0001095126994
0.0001092664721
0.0001090231322
0.0001131234265
0.0001128240738
0.0001125280406
0.0001122389252
0.0001119468296
0.0001116606209
0.0001113761194
0.0001110945128
0.0001108211193
0.0001105536135
0.0001102862463
0.0001100228257
0.0001097620685
0.0001095093789
0.0001092645119
0.0001090224652
)
;

boundaryField
{
    front_top
    {
        type            wedge;
    }
    front_middle
    {
        type            wedge;
    }
    front_bottom
    {
        type            wedge;
    }
    back_top
    {
        type            wedge;
    }
    back_middle
    {
        type            wedge;
    }
    back_bottom
    {
        type            wedge;
    }
    axis_top
    {
        type            symmetryPlane;
    }
    axis_middle
    {
        type            symmetryPlane;
    }
    axis_bottom
    {
        type            symmetryPlane;
    }
    wall_top
    {
        type            calculated;
        value           nonuniform 0();
    }
    wall_middle
    {
        type            calculated;
        value           uniform 0.0001089022317;
    }
    wall_bottom
    {
        type            calculated;
        value           uniform 0.0001089022317;
    }
    inlet
    {
        type            calculated;
        value           nonuniform 0();
    }
    outlet
    {
        type            calculated;
        value           nonuniform 0();
    }
    procBoundary2to1
    {
        type            processor;
        value           nonuniform List<scalar> 
51
(
0.0001192378526
0.0001192264431
0.0001192019826
0.0001191658318
0.0001191187863
0.0001190615284
0.000118990523
0.0001189078182
0.0001188159877
0.0001187156681
0.0001186074548
0.00011848326
0.0001183504035
0.0001182003448
0.0001180436487
0.0001178809217
0.0001177036339
0.000117518106
0.0001173212932
0.000117113908
0.0001168974565
0.0001166695876
0.0001164340311
0.0001161961955
0.00011593924
0.0001156799858
0.0001154164671
0.0001151425674
0.0001148663919
0.0001145807193
0.0001142948854
0.0001140008638
0.00011370854
0.0001134190606
0.0001134190606
0.0001131024627
0.0001128039244
0.000112509607
0.0001122221826
0.0001119311077
0.0001116465647
0.0001113631591
0.0001110831594
0.0001108113166
0.0001105449576
0.0001102790619
0.0001100168345
0.0001097574901
0.0001095061629
0.0001092626134
0.0001090218191
)
;
    }
    procBoundary2to3
    {
        type            processor;
        value           nonuniform List<scalar> 
51
(
0.000119761328
0.000119716533
0.000119716533
0.0001196874528
0.0001196444745
0.0001195885852
0.0001195182129
0.0001194319798
0.000119341695
0.0001192323542
0.000119113231
0.0001189801226
0.000118831551
0.0001186751086
0.0001185046939
0.0001183183811
0.0001181143874
0.0001179053842
0.000117681759
0.0001174500507
0.0001172018584
0.0001169482525
0.0001166804811
0.0001164065987
0.0001161298562
0.0001158434873
0.0001155510867
0.0001152577484
0.0001149586433
0.0001146574659
0.0001143551681
0.0001140505082
0.0001137481465
0.0001134533235
0.0001131536014
0.0001128541848
0.0001125592983
0.000112273602
0.0001119885864
0.000111709767
0.0001114365895
0.0001111656615
0.0001109040917
0.0001106516477
0.0001103999437
0.0001101556356
0.0001099115741
0.0001096754211
0.0001094474636
0.0001092273733
0.0001090095957
)
;
    }
}


// ************************************************************************* //
