/*--------------------------------*- C++ -*----------------------------------*\
  =========                 |
  \\      /  F ield         | OpenFOAM: The Open Source CFD Toolbox
   \\    /   O peration     | Website:  https://openfoam.org
    \\  /    A nd           | Version:  7
     \\/     M anipulation  |
\*---------------------------------------------------------------------------*/
FoamFile
{
    version     2.0;
    format      ascii;
    class       volTensorField;
    location    "0.0006";
    object      grad(U);
}
// * * * * * * * * * * * * * * * * * * * * * * * * * * * * * * * * * * * * * //

dimensions      [0 0 -1 0 0 0 0];

internalField   nonuniform List<tensor> 
1167
(
(-10.88249129 -1.903069899e-13 0.6371262507 2.608759808e-13 -17.89232 0 0.5267955154 -2.564429059e-15 29.60453694)
(-14.41322464 -1.089657215e-13 1.478141838 2.13961455e-13 -15.59899305 0 1.274113183 -4.043293923e-13 29.53243324)
(-14.1401531 4.943407593e-14 2.400755768 1.319387326e-13 -14.86979288 -7.036732406e-13 2.011153475 1.007910581e-13 29.3875133)
(-14.32744241 5.891525017e-14 3.318852953 6.459230854e-14 -14.7201382 0 2.762866562 -6.177814216e-14 29.17327214)
(-14.16001013 -6.774529704e-14 4.212233647 1.033077947e-13 -14.62019207 8.264623579e-13 3.479579737 -1.009529421e-13 28.894895)
(-13.90841799 -1.906207939e-13 5.085809044 8.69081447e-14 -14.516013 0 4.15930023 3.766017387e-14 28.55642446)
(-13.62031797 4.068543814e-14 5.942946073 3.780570658e-14 -14.40524404 0 4.801110168 1.191586764e-13 28.1610708)
(-13.28931056 1.608429416e-13 6.783423565 6.737703913e-14 -14.28546445 0 5.401593629 1.441401876e-13 27.71198076)
(-12.91707379 1.629602503e-14 7.607965664 0 -14.1553805 0 5.95814234 1.748237904e-13 27.21212312)
(-12.5072639 -1.943896166e-14 8.417981793 5.623021679e-14 -14.01477657 0 6.468929564 1.623893908e-13 26.66414084)
(-12.06232964 -1.930817005e-14 9.215016027 7.845859574e-14 -13.86385098 2.09222922e-13 6.93248339 8.552219005e-14 26.07040789)
(-11.58412821 -3.744778655e-14 10.00065001 2.454963728e-14 -13.70295001 1.963970982e-13 7.347626945 1.368554301e-13 25.43308226)
(-11.07432624 -5.646188406e-14 10.77648723 0 -13.53248439 0 7.713505705 1.213300839e-13 24.75415943)
(-10.53437109 -3.082279084e-14 11.54411248 0 -13.3528924 0 8.029514224 1.30066667e-13 24.03543913)
(-9.965533718 -9.829550649e-14 12.30503077 -2.115481266e-14 -13.16460838 -1.692385013e-13 8.295236135 1.359419807e-13 23.27857781)
(-9.36900492 -4.414457586e-14 13.06062207 4.068770988e-14 -12.96805822 -8.137541976e-14 8.510499887 1.050400846e-13 22.48516914)
(-8.745883522 7.366954445e-14 13.81216296 7.858084741e-14 -12.76365422 0 8.675300371 6.444222368e-14 21.65667583)
(-8.097197995 -2.404333533e-14 14.56091165 7.615986658e-14 -12.55179307 1.523197332e-13 8.78978816 7.077757373e-14 20.79450414)
(-11.62296364 6.5708231e-13 0.6865077609 1.087789646e-13 -19.102543 0 0.5694776682 -1.642006828e-13 31.61359286)
(-15.39285427 -2.056167141e-13 1.59139602 -4.460837188e-13 -16.65797179 1.189556583e-12 1.378567815 -1.352648205e-13 31.53501257)
(-15.09595686 -3.550830004e-13 2.584218078 9.169209241e-14 -15.87940293 0 2.175560429 -8.027240113e-14 31.37681052)
(-15.29159185 1.707011207e-13 3.572934539 3.366678498e-14 -15.71743084 5.386685597e-13 2.988016709 -2.609486047e-14 31.14296493)
(-15.10935395 -2.233770138e-13 4.535306788 -2.692302992e-14 -15.60914745 4.307684787e-13 3.762412202 1.131049161e-13 30.83926839)
(-14.83497728 -3.589354591e-13 5.476530575 9.059647773e-14 -15.49603282 0 4.496242392 6.430572161e-14 30.47008341)
(-14.5207854 -1.003342638e-13 6.40039086 7.882031924e-14 -15.37552511 0 5.188434389 -1.843615638e-14 30.03907014)
(-14.1603078 -1.738764493e-14 7.306742621 3.511824143e-14 -15.24514336 -2.809459314e-13 5.835305168 9.996085315e-14 29.54978319)
(-13.75527522 2.044114622e-14 8.196300057 6.371912854e-14 -15.10354259 0 6.434032914 1.091271028e-13 29.00551228)
(-13.30969488 5.346474663e-14 9.070564138 0 -14.95051862 -2.344663835e-13 6.982618467 8.323618217e-14 28.40924199)
(-12.82634789 3.96162244e-14 9.931168803 0 -14.78631423 0 7.479488848 8.280459608e-14 27.76369951)
(-12.30739754 -8.60214633e-14 10.77974832 1.023660412e-13 -14.61133343 0 7.923460106 1.010565351e-13 27.07138284)
(-11.7547171 -1.079301448e-13 11.61798654 7.261528796e-14 -14.42605185 -1.936407679e-13 8.313650724 7.095388408e-14 26.33454643)
(-11.16994103 -2.812578155e-14 12.44752899 4.608128048e-14 -14.23096379 0 8.649440681 9.387661438e-14 25.5552761)
(-10.55459216 8.183586108e-16 13.26985236 4.410522197e-14 -14.02656231 0 8.930524762 9.047527092e-14 24.73553791)
(-9.910064602 -5.218968418e-15 14.08636576 8.482894699e-14 -13.81333277 0 9.156813197 4.114878945e-14 23.87715667)
(-9.237621235 -2.919849399e-15 14.89836904 0 -13.59174268 -8.191577492e-14 9.328418006 8.392795886e-14 22.98185172)
(-8.53844097 -8.528442723e-15 15.70706009 3.969602431e-14 -13.36224072 0 9.445631183 1.04441013e-13 22.05123086)
(-7.813597753 -1.085568475e-14 16.51368042 3.859799024e-14 -13.12525583 0 9.508875628 8.105571226e-14 21.08680838)
(-7.064038779 4.3924706e-14 17.31950071 3.763924598e-14 -12.88119542 -1.505569839e-13 9.518702024 1.435178632e-14 20.08996264)
(-6.290549133 6.515478528e-14 18.12591852 7.360011046e-14 -12.63044372 7.360011046e-14 9.475737574 3.206400704e-14 19.06189719)
(-5.493701415 4.469305252e-14 18.93462074 3.606437019e-14 -12.37335878 0 9.380620563 2.411581314e-14 18.00358743)
(-4.673806393 9.892418925e-15 19.74771069 1.062570313e-13 -12.11026885 1.416760417e-13 9.23396643 1.650123365e-14 16.91571416)
(-3.83080818 -3.40021496e-14 20.56787029 6.97061085e-14 -11.84146823 6.97061085e-14 9.036294691 1.8294077e-14 15.7985711)
(-2.964172786 -4.244344037e-14 21.39853027 3.435737782e-14 -11.56720949 0 8.787948146 2.098403161e-14 14.65195486)
(-2.072786839 -6.957132165e-15 22.24412787 3.39243016e-14 -11.28769596 0 8.489014253 5.344697829e-15 13.4750154)
(-1.154767236 -6.978104701e-15 23.11040831 0 -11.00307269 -6.70946405e-14 8.139198871 1.134305697e-14 12.26607873)
(-0.2072449696 -1.346354329e-14 24.0047708 3.322088754e-14 -10.71341311 0 7.737682406 2.256880849e-14 11.02242668)
(0.7738789728 1.241693031e-14 24.93676829 3.294025035e-14 -10.4187046 0 7.282964602 2.393036641e-14 9.739997963)
(1.794322587 7.568565355e-15 25.91873648 3.270131191e-14 -10.11883039 0 6.772615555 1.103667848e-14 8.413016575)
(2.86189706 5.481290068e-14 26.96658927 1.625026355e-14 -9.813544806 -6.50010542e-14 6.202992365 2.697065497e-15 7.033507214)
(3.987093314 7.401640903e-14 28.10086694 3.23348135e-14 -9.502443857 0 5.568873923 -1.784284012e-14 5.590635547)
(5.183868935 5.934003455e-14 29.34810857 8.050370347e-14 -9.184927791 6.440296278e-14 4.862959461 -2.788380046e-14 4.069893633)
(6.470637907 5.482393315e-14 30.74257412 4.814726205e-14 -8.860154128 0 4.075273026 -5.792732271e-14 2.452066611)
(7.871416935 -9.38168657e-16 32.32808801 3.202282349e-14 -8.526979325 3.202282349e-14 3.192440964 -8.944435879e-15 0.7120381141)
(9.416941048 -1.679863173e-14 34.1597888 3.197360389e-14 -8.183890762 0 2.196918587 -1.403745443e-14 -1.182429854)
(11.14556752 -1.606805273e-14 36.305389 7.98722621e-14 -7.828934842 9.584671452e-14 1.066294114 -9.107611287e-15 -3.271685528)
(13.10349885 -3.013778323e-14 38.84483456 3.194729816e-14 -7.4596481 0 -0.2270716363 1.137805628e-14 -5.604437476)
(15.3437299 4.807615137e-15 41.86747893 1.598375942e-14 -7.073010722 -3.196751883e-14 -1.715825729 2.079248568e-15 -8.236741867)
(17.92362042 3.782247374e-14 45.46674029 3.200844058e-14 -6.665443536 0 -3.436576528 -1.373878964e-14 -11.22948667)
(20.9012246 2.58682087e-14 49.73289252 3.20690626e-14 -6.232860507 3.20690626e-14 -5.428141681 5.149212689e-15 -14.64470059)
(24.33124457 6.012144625e-15 54.74565952 1.607424568e-14 -5.770784059 -3.214849136e-14 -7.729391083 2.988018676e-14 -18.5414132)
(28.26177688 1.352974975e-13 60.56880126 -1.612296491e-14 -5.274502168 0 -10.37733454 -7.258534694e-14 -22.97216736)
(32.73228841 1.843673274e-13 67.24786427 8.090167265e-15 -4.739240288 1.618033453e-14 -13.4056967 -5.602413609e-14 -27.9810484)
(37.7719582 7.516964923e-14 74.8114143 2.436905471e-14 -4.160324395 1.624603647e-14 -16.84357217 -3.13604658e-14 -33.60337764)
(43.39868646 -2.086191675e-14 83.27479053 1.63197882e-14 -3.533343656 0 -20.71437569 2.352912297e-14 -39.86704497)
(49.63267215 7.852300321e-14 92.63686214 1.640133713e-14 -2.854285559 -8.200668566e-15 -25.04288083 -3.088833033e-14 -46.79010367)
(56.54445548 2.114208769e-13 102.8591494 0 -2.119289945 -8.245229005e-15 -29.88255985 -8.040857924e-14 -54.36814518)
(64.25735018 2.043280695e-13 113.8774929 4.146737681e-15 -1.32356318 0 -35.31963532 -8.400737736e-14 -62.57927482)
(71.84760653 1.741036028e-13 126.2784854 1.043164853e-15 -0.4612567717 2.086329707e-15 -40.83949634 -1.14874798e-13 -71.77421288)
(-12.44134237 -2.299282466e-13 0.7418661875 -5.107299881e-13 -20.4399896 3.631857693e-12 0.6159988455 -2.948670551e-14 33.83367762)
(-16.47538782 -2.028283088e-13 1.718449842 -3.878546932e-14 -17.82833202 0 1.492305754 5.083136123e-13 33.7477153)
(-16.15177515 -1.120639957e-13 2.789942252 9.566780457e-14 -16.99510707 0 2.354571766 1.734069839e-13 33.57440375)
(-16.35619011 -1.87090074e-13 3.857619814 7.025311175e-14 -16.819346 0 3.233248923 3.340558627e-13 33.31837875)
(-16.15709988 -1.123615831e-13 4.897107419 8.427118735e-14 -16.70165943 -4.494463325e-13 4.070508869 3.522044964e-13 32.98592389)
(-15.8569071 -2.856971673e-14 5.913898433 9.452468475e-14 -16.57845269 0 4.863305186 8.82635772e-14 32.58196095)
(-15.51309063 -5.898803881e-14 6.912054581 8.223791932e-14 -16.44692769 0 5.610468623 3.423376567e-14 32.11051165)
(-15.11917029 -1.781952289e-14 7.891522525 7.328189333e-14 -16.30453432 0 6.307960211 2.745456079e-14 31.5756236)
(-14.676987 2.811199651e-14 8.853092074 6.648195017e-14 -16.14988314 0 6.952696145 3.497915401e-14 30.98103002)
(-14.19094368 9.974038301e-15 9.798303443 6.115817497e-14 -15.98278873 0 7.542526894 4.683170041e-14 30.3301223)
(-13.66422642 -1.122239221e-14 10.72885564 8.533462595e-14 -15.80354892 0 8.075790169 3.336506228e-14 29.62601244)
(-13.09927055 2.346780087e-14 11.64651077 1.068045693e-13 -15.61263942 0 8.551211675 1.061173581e-13 28.8715532)
(-12.49819485 -6.653998851e-14 12.55300076 1.262730694e-13 -15.41060023 2.02036911e-13 8.967861879 5.220683528e-14 28.06935192)
(-11.86297317 -9.470314562e-14 13.44995045 4.80793362e-14 -15.19799569 0 9.325204945 3.875766057e-14 27.22188173)
(-11.19537781 -2.539056856e-14 14.33891079 9.203519364e-14 -14.97539379 0 9.622984253 3.202430749e-14 26.33141095)
(-10.49701087 -3.93268754e-14 15.22130032 4.425353891e-14 -14.74334605 0 9.861199235 4.687652173e-14 25.40007373)
(-9.769375986 -2.357870568e-14 16.09843355 8.546759156e-14 -14.50238561 0 10.04009318 5.290508534e-14 24.42987643)
(-9.013841304 -1.488431324e-14 16.97155147 4.141721944e-14 -14.25302398 0 10.16010459 4.397719958e-14 23.42269972)
(-8.231638302 -1.691091535e-15 17.84185187 4.027157517e-14 -13.99574773 -1.610863007e-13 10.22182848 5.798664431e-14 22.38029027)
(-7.423890117 3.010540935e-14 18.71064157 3.927126009e-14 -13.73101766 0 10.22599882 4.70611217e-14 21.30424161)
(-6.591519835 5.789349052e-14 19.57943342 0 -13.45926965 -2.30374097e-13 10.17342242 6.27139611e-14 20.19592983)
(-5.735170887 7.246348737e-14 20.45000645 3.762809892e-14 -13.18090741 0 10.06492115 4.651166505e-14 19.05647648)
(-4.855196153 4.756481401e-14 21.32457006 3.695475687e-14 -12.89629935 0 9.901292289 4.962478512e-14 17.88666318)
(-3.951556131 2.258561526e-14 22.20597869 3.636426104e-14 -12.6057743 0 9.683217448 3.444900543e-14 16.68683306)
(-3.023696398 1.354768037e-14 23.09792816 3.584709226e-14 -12.30961435 0 9.411189717 1.234108442e-14 15.45677761)
(-2.070414761 -9.816648144e-15 24.00520075 7.079047676e-14 -12.0080465 7.079047676e-14 9.085411414 1.199000372e-14 14.19557644)
(-1.089667181 -3.565136059e-14 24.93397035 7.000382213e-14 -11.70123248 7.000382213e-14 8.705662132 1.862929744e-14 12.90142454)
(-0.07835921085 -3.621837632e-14 25.89217985 3.466132462e-14 -11.38925491 0 8.271163759 1.765329376e-14 11.57139021)
(0.9679294756 6.880416429e-15 26.89002823 3.436851914e-14 -11.07210268 0 7.780397617 1.351415102e-14 10.20110488)
(2.055325815 9.562711253e-15 27.94062579 0 -10.74965108 -6.823844128e-14 7.23084494 1.998248334e-14 8.784384541)
(3.192137128 2.897559902e-14 29.06089463 3.390972959e-14 -10.4216377 0 6.618708959 1.490426221e-14 7.31270741)
(4.389520597 8.440796993e-14 30.27266481 3.373683107e-14 -10.08763178 0 5.938505677 1.342915812e-14 5.774544958)
(5.662290547 1.217589159e-13 31.60399526 3.359771757e-14 -9.746993914 0 5.182566538 -9.826053098e-15 4.154523184)
(7.029874053 2.259916286e-14 33.09089413 1.674496582e-14 -9.398827877 6.697986329e-14 4.340414032 3.499391376e-14 2.432353698)
(8.517489637 -3.086631079e-14 34.7793013 6.682262632e-14 -9.041921979 6.682262632e-14 3.398020699 5.268536336e-14 0.5816254136)
(10.15734194 1.247740674e-14 36.72685628 3.335995954e-14 -8.674679123 0 2.337021148 5.094840263e-17 -1.431434908)
(11.98946038 -1.897835202e-14 39.00399097 3.333418948e-14 -8.295042134 0 1.134006039 4.231972479e-14 -3.648957875)
(14.06190082 -1.015600008e-14 41.69356088 3.333251307e-14 -7.900426471 0 -0.2398515048 5.466172299e-14 -6.121641236)
(16.42968706 1.022757199e-14 44.88791569 3.335361057e-14 -7.487672418 0 -1.818546507 1.878314079e-14 -8.907690825)
(19.1522772 3.652721069e-15 48.68332897 3.339630691e-14 -7.053043953 3.339630691e-14 -3.640210278 4.494855709e-14 -12.0702625)
(22.28985313 -2.924443713e-15 53.1726867 5.018933567e-14 -6.592283721 3.345955712e-14 -5.745300426 4.045732392e-14 -15.67369371)
(25.89919308 7.920468339e-14 58.43789541 3.354243002e-14 -6.100730993 0 -8.174439696 -2.223430758e-14 -19.7792592)
(30.03033002 5.826933536e-14 64.54432833 0 -5.573483043 -3.364409327e-14 -10.96643134 -6.024927588e-15 -24.44163258)
(34.72442149 1.164092991e-13 71.53839803 8.440951865e-15 -5.005571381 1.688190373e-14 -14.15677555 1.24738642e-14 -29.70675549)
(40.01196078 1.694217802e-13 79.44885859 8.475227306e-15 -4.392130782 -1.695045461e-14 -17.77624116 8.871788072e-15 -35.61156924)
(45.911749 1.020147697e-13 88.29074123 1.702740411e-14 -3.728568319 0 -21.84977193 2.340597392e-15 -42.18540508)
(52.44536094 4.746041851e-14 98.06159889 1.711248893e-14 -3.010703422 0 -26.4039682 -7.592182566e-15 -49.4472205)
(59.68803677 8.541408885e-14 108.7195525 8.602736991e-15 -2.234502982 -8.602736991e-15 -31.49607264 -2.556119338e-14 -57.39235459)
(67.76932157 2.8662467e-13 120.1967982 8.65307533e-15 -1.394929304 4.326537665e-15 -37.21715907 -1.480325478e-13 -65.99843291)
(75.71026092 2.03780862e-13 133.1127942 1.088395833e-15 -0.4858561617 2.176791665e-15 -43.02232059 -9.906107113e-14 -75.63660505)
(-13.34653045 -3.177854169e-13 0.8041535194 0 -21.91921569 0 0.666532928 1.607927136e-13 36.28892616)
(-17.67265557 -2.634371086e-13 1.861445537 2.835311103e-13 -19.12280785 0 1.615731509 1.501423745e-13 36.19465445)
(-17.31921148 -2.258657987e-13 3.021334983 1.498617135e-13 -18.22907897 -7.992624722e-13 2.548927714 1.670790633e-13 36.00434709)
(-17.53291984 -2.941117652e-14 4.177725001 2.934669403e-13 -18.03793612 5.869338807e-13 3.499561392 1.067525495e-13 35.72327932)
(-17.31468726 1.16596614e-13 5.303730873 5.86707286e-14 -17.909679 0 4.405153951 5.462399582e-14 35.35831748)
(-16.98536935 3.663215809e-14 6.40513696 9.871402602e-14 -17.77510528 0 5.262076484 6.848224364e-14 34.91505975)
(-16.60811596 -2.578997401e-14 7.486429414 4.294135511e-14 -17.6311663 0 6.069039551 6.151581591e-14 34.39799606)
(-16.17640477 -3.538753691e-14 8.547475268 3.826487624e-14 -17.47522677 0 6.821672676 1.817046944e-14 33.81163243)
(-15.69226562 -1.189911172e-14 9.589109621 3.471421766e-14 -17.30584797 0 7.516580993 5.897083387e-14 33.16022059)
(-15.16057982 6.998114503e-14 10.61299197 6.38687099e-14 -17.12287455 -2.554748396e-13 8.151414542 9.705749232e-14 32.44762829)
(-14.58491129 -5.796064247e-14 11.6209113 1.18822218e-13 -16.92667032 2.37644436e-13 8.724372915 9.863030143e-14 31.67741742)
(-13.96804728 -9.514509666e-14 12.61467454 5.576907784e-14 -16.71778353 -2.230763113e-13 9.23408668 1.125066297e-13 30.85287444)
(-13.31251225 2.776471141e-14 13.59602928 5.274780053e-14 -16.49683675 -2.109912021e-13 9.679659984 8.946308984e-14 29.97707767)
(-12.62056641 -9.365382104e-15 14.56668441 1.004204322e-13 -16.26448328 0 10.06055017 2.417839616e-14 29.05285571)
(-11.89425669 -2.848697267e-14 15.52821956 4.805710052e-14 -16.02136848 0 10.3765477 1.72515034e-14 28.08286709)
(-11.13549903 -3.93097093e-14 16.48208037 9.24297183e-14 -15.76812499 0 10.62775876 2.101942171e-14 27.06961306)
(-10.34604316 -5.927124489e-15 17.42960402 8.925552172e-14 -15.50536248 0 10.81455266 -2.044087842e-15 26.01545114)
(-9.527497901 -2.808899849e-14 18.37204187 0 -15.23366469 -8.650566752e-14 10.93753306 1.568002104e-15 24.92257707)
(-8.681327332 -3.893504001e-14 19.31067941 4.205641453e-14 -14.95358705 0 10.99747567 6.655330615e-15 23.79302546)
(-7.80881651 4.365510179e-15 20.24686146 4.101176535e-14 -14.66565557 0 10.99531422 -1.128950539e-14 22.62863644)
(-6.911021643 4.518787054e-14 21.18214519 4.009738252e-14 -14.37036339 -8.019476504e-14 10.93205031 7.937727266e-15 21.43100079)
(-5.988731338 7.429358213e-14 22.11845801 3.929577898e-14 -14.06816761 0 10.80871964 2.3466577e-14 20.20141374)
(-5.042370754 6.177076404e-14 23.05822791 3.859259449e-14 -13.75948551 0 10.62631482 3.560139517e-14 18.94077205)
(-4.071904164 5.618508897e-14 24.00454477 3.797592812e-14 -13.44468735 0 10.3857056 3.065399503e-14 17.64948694)
(-3.076733432 2.003402269e-14 24.96139227 3.743583801e-14 -13.1240898 0 10.08755129 3.924897933e-14 16.32734739)
(-2.055550905 1.602734116e-14 25.93391552 7.392791599e-14 -12.79794688 7.392791599e-14 9.732183738 4.083498925e-14 14.97336684)
(-1.006158158 2.641539735e-15 26.92874962 3.65531985e-14 -12.46643956 0 9.31947927 2.261634946e-14 13.58559513)
(0.07476413582 -3.70812459e-14 27.95445216 3.619751744e-14 -12.12966239 0 8.84871419 3.459917615e-14 12.16086453)
(1.191984288 -2.877647857e-14 29.02199893 3.589173454e-14 -11.78760754 0 8.318350283 1.84375798e-14 10.69447299)
(2.352096151 -1.531036154e-14 30.14541742 7.126277371e-14 -11.44014294 0 7.725792261 2.952814127e-14 9.179783607)
(3.563994476 8.645657154e-16 31.34268423 3.54126117e-14 -11.08698793 0 7.067075157 2.478143598e-14 7.607678665)
(4.839538145 4.235415378e-14 32.63691648 1.761602497e-14 -10.72768133 -7.046409988e-14 6.336443499 3.384455169e-14 5.965876353)
(6.194425375 7.089309482e-14 34.05784582 3.508677095e-14 -10.36154153 0 5.525835611 4.557387439e-14 4.238050067)
(7.649227915 6.766006454e-14 35.64347939 3.497420802e-14 -9.987614635 0 4.624232931 9.732534722e-14 2.40274528)
(9.230503722 9.343178915e-14 37.44199211 5.23381576e-14 -9.60461366 3.489210506e-14 3.616904944 2.752528256e-14 0.4321338052)
(10.97202171 -6.940477555e-15 39.51366197 5.225771336e-14 -9.210848916 6.967695114e-14 2.484591033 9.434672214e-14 -1.709241419)
(12.91566651 -1.257159776e-13 41.93192572 3.48115633e-14 -8.804150832 0 1.202794536 1.256760642e-13 -4.065455352)
(15.11154358 -6.288882141e-15 44.78280564 3.48098125e-14 -8.381801107 -3.48098125e-14 -0.2586144346 6.598674238e-14 -6.689402572)
(17.61692716 1.098699802e-14 48.16196773 3.483184512e-14 -7.940486911 0 -1.935127257 8.580597877e-14 -9.641694386)
(20.4936646 1.839186952e-15 52.16899084 3.487643405e-14 -7.47629835 3.487643405e-14 -3.866566203 8.261309171e-14 -12.9880499)
(23.80436274 1.032065941e-13 56.89978937 3.494248713e-14 -6.984787526 0 -6.095227882 1.100124892e-14 -16.79542964)
(27.60819737 4.414547586e-14 62.43890671 1.751451657e-14 -6.461088414 0 -8.663694034 3.730295024e-14 -21.12769194)
(31.95744714 -1.33301035e-14 68.85378762 5.270280305e-14 -5.900083376 3.513520203e-14 -11.61277888 1.039373809e-13 -26.04199387)
(36.89528123 -1.749237584e-14 76.19217056 8.815055544e-15 -5.296584122 -3.526022217e-14 -14.97997546 7.307098789e-14 -31.58646291)
(42.45382618 1.262974807e-13 84.48349131 0 -4.645506698 -1.770170001e-14 -18.79794642 1.863481836e-14 -37.80002631)
(48.65302374 2.122472932e-13 93.74283351 8.891029995e-15 -3.942047616 0 -23.09334523 -4.343631919e-14 -44.71374163)
(55.51609956 1.866498477e-13 103.9667289 8.93545788e-15 -3.181830859 0 -27.89479983 -6.969939918e-14 -52.3477291)
(63.12357021 2.363128266e-13 115.11008 1.347601639e-14 -2.36062137 0 -33.26370024 -1.135928611e-13 -60.69726779)
(71.61199372 2.272779375e-13 127.1014624 9.036580324e-15 -1.473101987 -4.518290162e-15 -39.29647692 -1.314376161e-13 -69.73959894)
(79.94240572 2.822714154e-13 140.5963499 0 -0.5128277734 -2.273267239e-15 -45.4152231 -1.505908344e-13 -79.86817937)
(-14.34832297 -2.16216272e-13 0.8743470706 2.477957051e-13 -23.55608796 0 0.7212392591 -6.413968418e-14 39.00585394)
(-18.99767712 -2.180691116e-13 2.022690917 2.54041832e-13 -20.55535998 0 1.749198155 -2.467707967e-13 38.90230801)
(-18.61091641 -5.257502099e-14 3.282293863 2.088722463e-13 -19.59468474 0 2.759139946 -1.032443472e-13 38.69291427)
(-18.83453713 -7.324692512e-14 4.53864924 1.53384154e-13 -19.38638303 0 3.787623194 -1.569547769e-13 38.38365799)
(-18.59477222 -8.127419551e-14 5.762049236 1.226599502e-13 -19.24629258 0 4.767241778 -9.342583414e-15 37.98223501)
(-18.23270332 -2.317704431e-14 6.958510532 1.031882321e-13 -19.09898107 0 5.693722003 2.184178905e-14 37.49476933)
(-17.81785012 2.345205357e-14 8.133028056 4.488766889e-14 -18.94110434 -3.591013511e-13 6.565591602 5.828618845e-14 36.92640008)
(-17.34368337 -2.300736897e-14 9.285445879 7.999845782e-14 -18.76995436 3.199938313e-13 7.378139185 6.05482373e-14 36.28218113)
(-16.81235222 -1.119105058e-13 10.41655833 1.451505484e-13 -18.58403443 0 8.127638091 9.390268472e-14 35.56687949)
(-16.22927332 -3.286018709e-14 11.52807892 6.676355471e-14 -18.38321576 -2.670542189e-13 8.811498947 8.3843301e-14 34.78490434)
(-15.59852159 7.277802323e-15 12.62187002 6.210391316e-14 -18.16793638 0 9.427770141 1.243309218e-13 33.94036372)
(-14.92334142 1.679449031e-14 13.69978922 8.744521056e-14 -17.93883561 0 9.975015354 2.418583929e-14 33.0370559)
(-14.2065894 5.110011966e-14 14.76368449 5.513859066e-14 -17.69663569 0 10.45225833 4.028688824e-14 32.07851742)
(-13.45088564 3.382886122e-14 15.81529466 1.049719815e-13 -17.44207829 2.09943963e-13 10.85894401 -4.800876571e-14 31.06804035)
(-12.65865932 -9.370058021e-15 16.85621814 1.507058547e-13 -17.17590631 0 11.19493865 1.772071539e-15 30.00875981)
(-11.83213873 -1.63233421e-14 17.88791491 9.661908851e-14 -16.8988427 0 11.46043241 -2.104956096e-15 28.90358894)
(-10.97341691 5.421299626e-15 18.91177518 9.330102213e-14 -16.61158594 0 11.65593431 -1.460552611e-14 27.7552988)
(-10.08437149 -1.439406687e-14 19.92911776 4.521326526e-14 -16.31480635 0 11.78220204 1.716838541e-15 26.56646283)
(-9.166709528 6.482768939e-15 20.94123248 1.318878555e-13 -16.00913768 2.63775711e-13 11.84021067 -2.544381469e-14 25.33945532)
(-8.221964442 -1.678820202e-14 21.94960012 8.574124122e-14 -15.69518124 8.574124122e-14 11.83109642 -3.293674994e-15 24.07641568)
(-7.251370804 -4.551684611e-14 22.95592513 8.382958708e-14 -15.37350016 0 11.75608665 1.524334675e-14 22.77919294)
(-6.255829441 1.135229553e-14 23.96226371 8.215371466e-14 -15.04461432 0 11.61644211 2.566262903e-14 21.449285)
(-5.235856523 4.428142973e-14 24.97123908 4.034180075e-14 -14.70899597 0 11.41337028 2.61791274e-14 20.08773789)
(-4.191473325 4.171305696e-14 25.98624277 3.969718432e-14 -14.36706456 0 11.14795585 3.436235945e-14 18.69504656)
(-3.122051512 1.956630736e-14 27.01165695 3.913261473e-14 -14.01917858 0 10.82103749 4.985004931e-14 17.27101005)
(-2.026167672 3.667719229e-14 28.05309216 7.727869322e-14 -13.66562513 0 10.43310136 -3.400650138e-15 15.81458041)
(-0.9014338729 1.619445987e-14 29.1177242 0 -13.30660882 -7.641993968e-14 9.984143889 3.803336084e-14 14.32365082)
(0.2557445909 -2.623544804e-15 30.21474633 3.783816731e-14 -12.9422384 0 9.473499936 2.975581571e-14 12.79479983)
(1.45048854 5.129485778e-16 31.35592745 7.503704909e-14 -12.57250989 7.503704909e-14 8.899628385 1.161831318e-14 11.22296285)
(2.689858961 -2.869862451e-14 32.55632901 3.724637705e-14 -12.19728535 0 8.259861327 1.084761279e-14 9.60100295)
(3.983400062 -3.43064293e-14 33.83520313 3.701768557e-14 -11.81626612 0 7.550054038 2.550345423e-14 7.919150553)
(5.343798139 -2.808926004e-14 35.21711184 3.682894018e-14 -11.42895883 0 6.764168505 1.82076105e-14 6.164298412)
(6.787720356 -4.939227355e-14 36.73346503 0 -11.03463442 -7.335415245e-14 5.893720776 5.253528268e-14 4.319084632)
(8.336924838 4.187909119e-14 38.42441363 1.827970562e-14 -10.63227666 -7.311882247e-14 4.927114099 2.969034806e-14 2.360773559)
(10.01946906 5.032927631e-14 40.34067872 3.647358736e-14 -10.2205176 0 3.848857368 3.58832926e-14 0.2599910868)
(11.87085167 2.332997822e-14 42.54534758 1.820876349e-14 -9.797565279 -3.641752698e-14 2.638721849 7.764560491e-14 -2.020562113)
(13.93497315 5.117258649e-14 45.11509902 3.638939483e-14 -9.36112757 0 1.271011758 4.158002351e-14 -4.527106212)
(16.26423372 -7.423205371e-14 48.13951202 7.277512973e-14 -8.908339349 7.277512973e-14 -0.2858231892 5.990521559e-14 -7.314976376)
(18.91840467 -4.165528626e-14 51.71790052 1.820529796e-14 -8.435718635 -3.641059592e-14 -2.068937673 8.806544994e-14 -10.44745664)
(21.96200392 7.852184329e-14 55.95354775 0 -7.939163691 -3.645720586e-14 -4.120011968 1.376478518e-14 -13.99313104)
(25.46039048 5.935516105e-14 60.94588574 1.826312648e-14 -7.4140149 -3.652625295e-14 -6.48339727 4.266956471e-14 -18.02192201)
(29.4754864 -1.222941277e-14 66.7826249 1.830836064e-14 -6.855177219 0 -9.203853264 1.06764033e-13 -22.60066112)
(34.06215005 5.428454897e-14 73.53372913 1.836385138e-14 -6.257291528 -3.672770277e-14 -12.3244263 2.928145321e-14 -27.78931915)
(39.26586842 1.524187973e-13 81.2486881 2.764379179e-14 -5.614922018 0 -15.8848208 -2.473324973e-14 -33.63855974)
(45.12071059 1.563987931e-13 89.95809069 2.775604231e-14 -4.922737071 0 -19.91981453 -6.028810471e-14 -40.18965884)
(51.64801604 2.648703597e-13 99.67746577 1.858803059e-14 -4.175693014 0 -24.45795147 -1.092484281e-13 -47.47569496)
(58.87296242 2.070589557e-13 110.4026612 9.340456858e-15 -3.369189449 -1.868091372e-14 -29.53010524 -9.92907807e-14 -55.51823619)
(66.88195299 1.977290032e-13 122.0855307 1.408681581e-14 -2.498758862 0 -35.20220842 -1.041456082e-13 -64.31269686)
(75.81939326 3.221934811e-13 134.6510209 9.446162701e-15 -1.55876719 4.72308135e-15 -41.57658599 -1.767824394e-13 -73.83602654)
(84.58114128 2.400866548e-13 148.7939823 2.376302909e-15 -0.5424074074 2.376302909e-15 -48.03941806 -1.463965761e-13 -84.50600429)
(-15.45732738 3.475308031e-14 0.9535440371 -3.889306474e-13 -25.36785341 0 0.7801876697 3.992186498e-14 42.01312388)
(-20.46446418 -3.131985466e-13 2.204871282 -1.329114429e-13 -22.1411285 1.417722057e-12 1.892754798 -4.82814225e-14 41.89921357)
(-20.04055151 -3.278378774e-13 3.577192411 1.092792925e-13 -21.10635494 0 2.985240283 3.687867544e-14 41.66844817)
(-20.27490885 -1.839292354e-13 4.946293884 1.203729465e-13 -20.87894255 0 4.097599457 7.109164198e-14 41.32776464)
(-20.01115597 -1.185090436e-13 6.279568787 6.417411985e-14 -20.72566961 0 5.15704202 -5.183863814e-14 40.88564972)
(-19.61251584 -7.133212286e-14 7.583223375 1.079735311e-13 -20.56416804 0 6.158630372 -1.075230684e-14 40.34885947)
(-19.15557858 -7.999460693e-14 8.862605055 1.409079315e-13 -20.39074009 0 7.100753176 -1.050577333e-14 39.72312478)
(-18.63388178 -6.50701576e-14 10.11762079 8.370834345e-14 -20.20259899 -3.348333738e-13 7.978245914 -2.588963026e-15 39.01416445)
(-18.04972311 -4.234595869e-14 11.34903352 1.139113705e-13 -19.99818998 -3.037636546e-13 8.787026593 1.797464219e-14 38.22736726)
(-17.40910897 -1.364446856e-16 12.55854209 1.39719358e-13 -19.77741639 0 9.524278971 4.30736598e-15 37.36773691)
(-16.71666975 2.868432104e-14 13.7480709 1.299678971e-13 -19.54080046 0 10.18785944 4.224331308e-14 36.43993614)
(-15.97606846 1.173540742e-14 14.91957132 1.220005807e-13 -19.28908198 0 10.77616035 3.000388792e-14 35.44832579)
(-15.1906197 1.480140396e-13 16.07490958 0 -19.0230827 -2.307824538e-13 11.28812438 -1.46607878e-14 34.39700123)
(-14.36340643 6.806003966e-14 17.21583237 1.647600014e-13 -18.74365566 4.393600039e-13 11.72321533 -1.524777005e-14 33.28983221)
(-13.49725171 -8.834397047e-14 18.34399027 1.051298382e-13 -18.45165082 0 12.08130612 3.232137182e-14 32.13043868)
(-12.59477807 -1.944985366e-14 19.46089032 5.054987348e-14 -18.14789666 0 12.36268122 1.215250217e-14 30.92226287)
(-11.65842627 -1.396725957e-14 20.56791281 4.881390375e-14 -17.83319365 0 12.56797067 1.606283084e-14 29.66851991)
(-10.69043781 -1.007185673e-14 21.66646842 4.731000593e-14 -17.50830813 0 12.69808358 2.256731825e-14 28.37223708)
(-9.692831511 -3.207516804e-14 22.75797702 4.600136145e-14 -17.17396907 0 12.75419177 2.456441108e-14 27.03619799)
(-8.667373627 -4.187982335e-14 23.84396573 0 -16.83086382 -8.971744583e-14 12.73764896 6.179701733e-14 25.66289782)
(-7.615543759 -2.359967947e-14 24.92629395 8.771713895e-14 -16.47963533 0 12.64992006 4.07298279e-14 24.25449745)
(-6.538429784 3.987566982e-15 26.00728499 8.596354925e-14 -16.12087826 1.719270985e-13 12.49249793 3.625535735e-14 22.81273706)
(-5.436651285 2.74959223e-14 27.08985084 0 -15.75513124 -8.442526068e-14 12.26683622 4.986735711e-14 21.33885335)
(-4.310259802 2.677261625e-14 28.1776975 0 -15.38287159 -8.307623951e-14 11.97424679 5.615526924e-14 19.8334497)
(-3.158607171 1.029682372e-13 29.27560391 4.094736887e-14 -15.00450573 0 11.61577064 1.992630118e-14 18.2963613)
(-1.980195956 3.999690596e-14 30.38971311 8.086245154e-14 -14.62036051 1.617249031e-13 11.19207828 1.961628816e-14 16.72648153)
(-0.7724527126 -3.623362999e-14 31.52787141 3.998193654e-14 -14.23067074 0 10.70329943 5.331072986e-14 15.12154248)
(0.4685212597 3.039063788e-14 32.70006569 3.95928921e-14 -13.83556417 0 10.14884188 1.233047179e-14 13.4778521)
(1.748265143 3.496453567e-14 33.91898122 3.925842601e-14 -13.43504376 0 9.527180039 -1.096253495e-14 11.78994907)