/*--------------------------------*- C++ -*----------------------------------*\
  =========                 |
  \\      /  F ield         | OpenFOAM: The Open Source CFD Toolbox
   \\    /   O peration     | Website:  https://openfoam.org
    \\  /    A nd           | Version:  7
     \\/     M anipulation  |
\*---------------------------------------------------------------------------*/
FoamFile
{
    version     2.0;
    format      ascii;
    class       volScalarField;
    location    "0.0006";
    object      p;
}
// * * * * * * * * * * * * * * * * * * * * * * * * * * * * * * * * * * * * * //

dimensions      [1 -1 -2 0 0 0 0];

internalField   nonuniform List<scalar> 
1167
(
1213283.921
1223849.212
1222214.802
1222731.716
1224157.662
1225797.227
1227664.241
1229766.824
1232077.358
1234569.288
1237219.469
1240006.155
1242908.931
1245908.797
1248988.576
1252132.995
1255328.482
1258563.24
1204513.405
1215130.953
1213536.842
1214072.942
1215538.918
1217229.025
1219150.952
1221312.783
1223685.847
1226242.233
1228957.772
1231809.88
1234777.094
1237839.99
1240981.085
1244184.569
1247436.863
1250726.021
1254042.009
1257376.734
1260723.444
1264076.809
1267432.837
1270788.643
1274142.301
1277492.621
1280839.005
1284181.375
1287519.952
1290855.017
1294186.848
1297515.296
1300839.338
1304156.54
1307462.315
1310748.906
1314004.332
1317211.947
1320350.865
1323397.903
1326331.142
1329133.452
1331795.275
1334315.197
1336697.798
1338949.199
1341079.04
1343131.336
1345205.068
1347177.742
1195394.862
1206071.156
1204517.939
1205075.423
1206584.096
1208328.142
1210309.152
1212534.401
1214974.428
1217600.017
1220385.789
1223307.96
1226344.589
1229475.619
1232682.877
1235950.414
1239264.242
1242612.477
1245985.063
1249373.796
1252772.047
1256174.7
1259577.87
1262978.8
1266375.706
1269767.571
1273153.973
1276535.044
1279911.15
1283282.76
1286650.255
1290013.599
1293372.008
1296723.231
1300062.785
1303383.126
1306672.676
1309915.113
1313090.064
1316174.838
1319147.838
1321992.014
1324697.615
1327262.804
1329691.681
1331989.837
1334166.608
1336266.744
1338390.752
1340410.732
1185905.827
1196647.628
1195135.826
1195716.551
1197271.01
1199072.254
1201116.239
1203409.421
1205921.127
1208620.745
1211481.657
1214479.192
1217590.62
1220794.919
1224073.667
1227410.37
1230790.973
1234203.28
1237637.311
1241084.913
1244539.446
1247995.846
1251450.411
1254900.599
1258344.75
1261782.003
1265212.095
1268635.271
1272052.052
1275463.161
1278869.14
1282270.099
1285665.298
1289052.732
1292428.181
1295784.259
1299109.721
1302388.733
1305601.336
1308725.39
1311739.583
1314626.983
1317377.628
1319989.256
1322465.479
1324811.35
1327035.893
1329184.6
1331359.538
1333427.46
1176022.018
1186836.02
1185365.842
1185972.073
1187575.371
1189437.589
1191548.524
1193914.043
1196502.235
1199281.005
1202222.465
1205300.906
1208492.416
1211775.617
1215131.331
1218542.85
1221995.618
1225477.49
1228978.305
1232489.845
1236005.675
1239520.776
1243031.542
1246535.502
1250031.16
1253517.864
1256995.552
1260464.594
1263925.666
1267379.568
1270827.03
1274268.4
1277703.115
1281129.225
1284542.763
1287936.679
1291299.966
1294617.313
1297869.211
1301034.024
1304090.751
1307022.573
1309819.32
1312478.346
1315002.764
1317397.08
1319670.003
1321867.772
1324094.045
1326210.32
1165717.262
1176609.809
1175181.819
1175816.043
1177470.987
1179398.071
1181580.339
1184022.784
1186692.459
1189555.745
1192583.234
1195748.04
1199025.536
1202393.498
1205832.123
1209324.312
1212855.219
1216412.361
1219985.688
1223566.898
1227149.457
1230728.458
1234300.514
1237863.232
1241415.242
1244955.987
1248485.54
1252004.463
1255513.635
1259014.003
1262506.414
1265991.292
1269468.364
1272935.887
1276389.971
1279823.929
1283227.118
1286584.591
1289877.419
1293084.404
1296184.919
1299162.223
1302005.947
1304713.103
1307286.318
1309729.553
1312051.21
1314298.268
1316575.988
1318740.729
1154964.124
1165941.652
1164556.618
1165220.927
1166930.617
1168926.057
1171183.998
1173708.233
1176464.546
1179417.676
1182536.871
1185794.146
1189163.779
1192622.662
1196150.518
1199729.609
1203344.876
1206983.653
1210635.581
1214292.43
1217947.697
1221596.515
1225235.469
1228862.301
1232475.84
1236075.635
1239661.896
1243235.309
1246796.827
1250347.613
1253888.72
1257420.719
1260943.374
1264455.231
1267952.641
1271429.083
1274874.378
1278273.94
1281609.399
1284859.99
1288005.478
1291029.212
1293920.661
1296676.503
1299298.899
1301791.291
1304161.789
1306458.102
1308787.098
1311000.155
1143734.827
1154803.563
1153462.07
1154158.49
1155926.12
1157993.586
1160331.301
1162942
1165790.093
1168838.623
1172055.469
1175411.266
1178879.213
1182435.536
1186059.083
1189731.779
1193438.017
1197165.005
1200902.257
1204641.295
1208375.586
1212100.455
1215812.485
1219509.491
1223190.344
1226854.675
1230502.876
1234135.795
1237754.525
1241360.293
1244954.27
1248537.281
1252109.247
1255668.761
1259212.522
1262734.24
1266224.052
1269667.856
1273047.738
1276343.429
1279535.049
1282606.044
1285545.799
1288350.682
1291022.409
1293563.925
1295983.075
1298328.299
1300708.07
1302968.964
1132001.86
1143167.232
1141869.591
1142600.37
1144428.602
1146571.943
1148993.554
1151695.236
1154640.164
1157789.615
1161109.724
1164569.982
1168142.708
1171802.918
1175528.993
1179302.06
1183106.31
1186928.522
1190757.981
1194586.209
1198406.586
1202214.313
1206006.003
1209779.633
1213534.136
1217269.224
1220985.33
1224683.347
1228364.6
1232030.47
1235682.194
1239320.643
1242946.032
1246557.105
1250150.669
1253720.806
1257257.903
1260748.351
1264174.661
1267517.083
1270756.067
1273875.187
1276863.781
1279717.945
1282438.992
1285029.415
1287496.812
1289890.338
1292320.065
1294628.01
1119738.711
1131005.408
1129752.313
1130519.328
1132410.54
1134632.658
1137142.025
1139939
1142985.389
1146240.701
1149669.65
1153240.422
1156924.005
1160694.658
1164529.925
1168410.409
1172319.674
1176244.358
1180173.425
1184098.107
1188011.836
1191909.756
1195788.443
1199645.816
1203480.831
1207293.377
1211083.943
1214853.487
1218603.323
1222334.98
1226049.885
1229748.981
1233432.52
1237099.534
1240746.946
1244369.095
1247956.694
1251496.516
1254971.52
1258362.439
1261650.051
1264818.128
1267855.971
1270759.445
1273529.511
1276168.278
1278683.131
1281123.934
1283602.344
1285956.077
1106921.986
1118293.973
1117085.901
1117890.336
1119846.729
1122150.007
1124750.038
1127645.813
1130797.619
1134163.304
1137706.143
1141392.614
1145192.759
1149079.964
1153030.852
1157025.438
1161046.848
1165081.15
1169117.212
1173146.028
1177160.777
1181156.489
1185129.804
1189078.605
1193001.806
1196899.251
1200771.454
1204619.527
1208444.828
1212248.872
1216033.138
1219798.781
1223546.093
1227274.179
1230980.228
1234658.699
1238300.671
1241893.205
1245419.75
1248861.445
1252199.392
1255417.608
1258505.386
1261458.41
1264277.353
1266963.999
1269525.545
1272012.537
1274538.182
1276936.284
1093533.471
1105013.243
1103849.95
1104692.62
1106715.224
1109101.571
1111794.215
1114791.132
1118051.297
1121530.777
1125191.033
1128997.521
1132919.155
1136928.123
1141000.414
1145115.229
1149255.309
1153406.32
1157556.579
1161696.934
1165820.477
1169922.026
1173998.026
1178046.271
1182065.712
1186056.153
1190018.074
1193952.471
1197860.799
1201744.647
1205605.456
1209444.382
1213261.886
1217057.044
1220827.229
1224567.05
1228267.818
1231916.871
1235498.089
1238992.967
1242382.973
1245652.342
1248790.404
1251792.725
1254659.792
1257393.124
1259999.787
1262531.048
1265101.648
1267541.746
1079562.333
1091150.137
1090031.319
1090912.335
1093000.805
1095470.203
1098256.119
1101355.026
1104724.653
1108319.407
1112099.333
1116028.711
1120075.005
1124209.714
1128407.795
1132647.992
1136912.339
1141186.124
1145457.325
1149716.418
1153956.185
1158171.357
1162358.223
1166514.403
1170638.638
1174730.635
1178790.908
1182820.387
1186820.369
1190792.42
1194738.053
1198658.34
1202553.727
1206423.4
1210264.696
1214072.429
1217837.999
1221549.054
1225189.758
1228741.922
1232187.374
1235510.554
1238700.844
1241753.758
1244669.668
1247449.876
1250101.334
1252675.933
1255289.855
1257770.346
1065008.263
1076702.241
1075627.105
1076545.045
1078697.811
1081248.33
1084125.724
1087325.068
1090802.896
1094512.201
1098411.624
1102463.954
1106635.908
1110897.942
1115224.344
1119593.023
1123985.676
1128386.986
1132784.465
1137168.432
1141531.319
1145867.485
1150172.974
1154445.332
1158683.092
1162885.734
1167053.493
1171187.267
1175288.263
1179357.82
1183397.313
1187407.822
1191389.58
1195341.789
1199261.713
1203144.186
1206980.629
1210758.89
1214463.299
1218075.966
1221579.001
1224957.043
1228199.572
1231302.157
1234265.126
1237089.67
1239782.791
1242397.178
1245050.459
1247566.896
1049886.006
1061681.192
1060647.87
1061599.741
1063812.813
1066440.311
1069404.487
1072699.551
1076281.126
1080100.735
1084115.66
1088287.872
1092583.083
1096970.899
1101424.93
1105922.552
1110444.75
1114975.946
1119503.208
1124016.337
1128507.57
1132970.989
1137402.316
1141798.703
1146158.477
1150480.964
1154766.112
1159014.475
1163227.097
1167405.191
1171549.84
1175661.949
1179741.667
1183787.931
1187797.989
1191766.491
1195684.885
1199540.991
1203319.191
1207001.798
1210571.061
1214011.722
1217313.351
1220471.574
1223486.687
1226359.779
1229097.779
1231753.781
1234446.667
1236999.511
1034229.789
1046116.677
1045122.212
1046103.292
1048369.6
1051066.273
1054109.025
1057491.066
1061167.372
1065088.402
1069210.593
1073494.994
1077906.427
1082414.02
1086990.641
1091613.366
1096262.696
1100922.407
1105579.467
1110223.288
1114845.612
1119440.14
1124002.401
1128529.142
1133018.278
1137468.667
1141880.008
1146252.485
1150586.653
1154883.351
1159143.377
1163367.123
1167554.472
1171703.973
1175812.55
1179874.525
1183881.158
1187820.037
1191675.507
1195429.899
1199065.535
1202567.26
1205924.809
1209133.932
1212195.017
1215109.281
1217884.039
1220573.514
1223297.911
1225877.21
1018097.776
1030061.977
1029102.501
1030105.385
1032414.674
1035168.38
1038276.485
1041731.46
1045487.983
1049495.914
1053710.988
1058093.493
1062608.089
1067223.224
1071911.643
1076649.847
1081418.286
1086200.376
1090982.583
1095754.225
1100506.768
1105233.546
1109929.605
1114591.396
1119216.542
1123803.473
1128351.341
1132859.987
1137329.602
1141760.482
1146153.018
1150507.231
1154822.439
1159096.87
1163326.902
1167506.479
1171626.348
1175673.648
1179632.387
1183484.532
1187212.097
1190799.761
1194237.151
1197519.929
1200648.416
1203623.698
1206452.751
1209189.443
1211954.971
1214571.81
1001578.537
1013599.711
1012669.748
1013683.894
1016021.605
1018815.364
1021969.759
1025477.233
1029292.649
1033365.464
1037651.127
1042110.043
1046706.581
1051409.16
1056190.36
1061026.761
1065898.413
1070788.83
1075684.318
1080573.805
1085448.479
1090301.521
1095127.525
1099922.367
1104683.081
1109407.653
1114094.581
1118742.855
1123351.969
1127921.5
1132450.883
1136939.417
1141385.519
1145786.6
1150138.193
1154433.49
1158662.42
1162811.497
1166864.143
1170801.858
1174606.37
1178262.27
1181759.182
1185092.873
1188263.887
1191273.783
1194130.734
1196890.908
1199676.556
1202303.378
984796.3337
996846.4844
995938.5533
996950.3431
999296.6815
1002107.523
1005282.617
1008814.623
1012659.15
1016766.056
1021091.231
1025595.36
1030243.048
1035003.258
1039848.739
1044756.479
1049706.838
1054683.279
1059672.487
1064663.53
1069647.513
1074617.462
1079568.025
1084494.928
1089394.848
1094265.323
1099104.586
1103911.177
1108683.889
1113421.775
1118123.632
1122787.904
1127412.31
1131993.277
1136525.425
1141000.776
1145408.018
1149732.379
1153955.829
1158058.412
1162020.564
1165825.717
1169462.546
1172926.09
1176216.309
1179333.965
1182285.455
1185124.149
1187973.258
1190660.443
967915.2823
979957.5459
979062.9721
980055.1123
982385.0029
985183.025
988345.2752
991865.0495
995699.3355
999799.1963
1004121.357
1008627.156
1013282.409
1018056.611
1022923.5
1027860.439
1032848.553
1037871.72
1042916.733
1047973.024
1053031.842
1058086.034
1063129.905
1068158.893
1073169.184
1078157.478
1083121.054
1088057.53
1092964.494
1097839.589
1102680.364
1107483.704
1112245.865
1116961.723
1121624.447
1126224.511
1130749.205
1135182.346
1139504.578
1143694.817
1147732.604
1151600.707
1155287.44
1158787.806
1162102.119
1165232.379
1168188.49
1171029.945
1173879.952
1176543.28
951143.3986
963130.7691
962239.2668
963190.5943
965473.7784
968222.6708
971330.9331
974793.4
978569.2048
982611.1479
986877.4573
991331.4786
995940.6203
1000675.873
1005512.558
1010429.463
1015408.932
1020436.401
1025499.759
1030589.483
1035698.002
1040819.231
1045948.222
1051081.143
1056214.842
1061346.558
1066473.737
1071594.085
1076705.202
1081804.308
1086888.332
1091953.363
1096994.459
1102005.083
1106976.529
1111897.012
1116751.162
1121519.592
1126179.337
1130705.497
1135073.718
1139263.089
1143258.663
1147052.643
1150642.706
1154027.257
1157209.215
1160237.832
1163238.753
1166055.119
934718.3621
946595.8203
945695.8862
946581.6368
948781.1617
951436.6453
954439.8909
957787.7829
961442.2441
965358.3567
969496.7066
973822.9442
978306.1022
982919.2087
987639.1003
992446.2852
997324.2656
1002259.632
1007241.444
1012260.895
1017311.074
1022386.374
1027482.148
1032594.558
1037720.268
1042856.084
1047998.778
1053145.121
1058291.518
1063433.823
1068567.347
1073686.501
1078784.471
1083852.879
1088881.07
1093855.332
1098758.312
1103568.559
1108260.968
1112808.51
1117184.825
1121367.333
1125339.992
1129094.673
1132629.908
1135947.823
1139062.143
1142040.299
1145004.699
1147721.506
918961.7289
930652.7583
929731.2941
930526.3266
932604.6521
935122.2854
937970.8204
941149.5852
944624.358
948353.8992
952302.3963
956438.627
960734.9747
965167.9093
969717.3997
974367.1215
979103.7987
983917.1599
988799.4293
993745.054
998750.291
1003812.693
1008930.817
1014103.982
1019331.837
1024613.992
1029949.956
1035338.8
1040778.809
1046267.373
1051800.644
1057373.192
1062977.635
1068604.067
1074239.329
1079866.112
1085462.153
1090999.756
1096446.231
1101765.771
1106922.549
1111884.466
1116626.444
1121131.866
1125390.291
1129390.699
1133122.329
1136619.077
1140010.357
1143172.289
915488.6047
914536.0817
915206.9432
917111.3343
919424.3684
922038.9709
924956.7073
928146.9914
931571.9867
935198.7085
938998.4716
942946.1114
947020.171
951202.5658
955478.4944
959836.2627
964266.7727
968763.334
973321.5656
977938.5667
982612.6392
987343.2939
992130.5906
996974.8066
1001876.306
1006835.358
1011851.607
1016923.991
1022050.644
1027228.279
1032452.18
1037715.594
1043009.259
1048320.505
1053632.318
1058922.099
1064161.025
1069314.188
1074342.311
1079205.232
1083866.274
1088296.429
1092476.928
1096399.033
1100063.451
1103494.979
1106788.923
1110074.999
1112993.471
)
;

boundaryField
{
    front_top
    {
        type            wedge;
    }
    front_middle
    {
        type            wedge;
    }
    front_bottom
    {
        type            wedge;
    }
    back_top
    {
        type            wedge;
    }
    back_middle
    {
        type            wedge;
    }
    back_bottom
    {
        type            wedge;
    }
    axis_top
    {
        type            symmetryPlane;
    }
    axis_middle
    {
        type            symmetryPlane;
    }
    axis_bottom
    {
        type            symmetryPlane;
    }
    wall_top
    {
        type            fixedFluxPressure;
        gradient        nonuniform 0();
        value           nonuniform 0();
    }
    wall_middle
    {
        type            fixedFluxPressure;
        gradient        uniform 0;
        value           nonuniform List<scalar> 
23
(
1347177.742
1340410.732
1333427.46
1326210.32
1318740.729
1311000.155
1302968.964
1294628.01
1285956.077
1276936.284
1267541.746
1257770.346
1247566.896
1236999.511
1225877.21
1214571.81
1202303.378
1190660.443
1176543.28
1166055.119
1147721.506
1143172.289
1112993.471
)
;
    }
    wall_bottom
    {
        type            fixedFluxPressure;
        gradient        nonuniform 0();
        value           nonuniform 0();
    }
    inlet
    {
        type            zeroGradient;
    }
    outlet
    {
        type            fixedValue;
        value           nonuniform 0();
    }
    procBoundary3to2
    {
        type            processor;
        value           nonuniform List<scalar> 
51
(
904046.0032
904046.0032
901700.1403
900703.0952
901237.2763
902950.2827
905042.3431
907409.5994
910058.0235
912962.8588
916091.9221
919417.8179
922917.4489
926571.2146
930362.9919
934280.1308
938313.062
942455.5927
946703.8011
951056.6946
955515.3956
960082.5824
964762.6442
969561.1488
974484.1668
979538.3818
984730.6546
990067.4664
995554.7858
1001197.737
1007000.077
1012963.854
1019088.927
1025372.194
1031806.904
1038381.447
1045077.953
1051870.57
1058723.922
1065592.713
1072423.177
1079157.31
1085739.078
1092120.719
1098266.157
1104146.877
1109726.381
1114947.861
1119784.27
1124346.767
1128547.236
)
;
    }
    procBoundary3to4
    {
        type            processor;
        value           nonuniform List<scalar> 
51
(
1221727.235
1232246.539
1230571.994
1231072.081
1232460.647
1234053.333
1235869.089
1237916.376
1240168.687
1242600.685
1245190.25
1247916.379
1250759.338
1253700.893
1256724.122
1259814.058
1262957.242
1266142.117
1261827.354
1261827.354
1265112.494
1268411.889
1271720.164
1275033.138
1278347.751
1281661.842
1284974.081
1288283.731
1291590.522
1294894.543
1298195.929
1301494.751
1304790.692
1308082.576
1311367.904
1314641.924
1317896.592
1321119.68
1324294.219
1327398.768
1330409.73
1333304.796
1336066.788
1338686.3
1341162.323
1343499.938
1345705.78
1347789.775
1349795.204
1351819.559
1353745.796
)
;
    }
}


// ************************************************************************* //
