/*--------------------------------*- C++ -*----------------------------------*\
  =========                 |
  \\      /  F ield         | OpenFOAM: The Open Source CFD Toolbox
   \\    /   O peration     | Website:  https://openfoam.org
    \\  /    A nd           | Version:  7
     \\/     M anipulation  |
\*---------------------------------------------------------------------------*/
FoamFile
{
    version     2.0;
    format      ascii;
    class       volScalarField;
    location    "0.0006";
    object      rho;
}
// * * * * * * * * * * * * * * * * * * * * * * * * * * * * * * * * * * * * * //

dimensions      [1 -3 0 0 0 0 0];

internalField   nonuniform List<scalar> 
1167
(
944.4974158
944.4145837
944.2366397
943.9726533
943.6273436
943.2042093
942.7066503
942.1380378
941.5013762
940.7999078
940.0370149
939.2163231
938.3414277
937.4161508
936.4448627
935.4314178
934.3805094
933.2962263
944.3170297
944.2328915
944.0521696
943.7843706
943.4338972
943.0048793
942.5006324
941.9246139
941.2801918
940.5707995
939.7999818
938.9713692
938.0888421
937.1566344
936.1787858
935.1597601
934.1038494
933.015792
931.8999575
930.7608206
929.6028368
928.4304159
927.24768
926.0585676
924.8669201
923.6762867
922.4899727
921.3111138
920.1424102
918.9864088
917.8453492
916.721187
915.615748
914.530423
913.4663931
912.4247813
911.4064522
910.4118442
909.4415738
908.4958399
907.5748397
906.6785226
905.806922
904.9596305
904.1365636
903.3372242
902.5610477
901.8075606
901.076141
900.3660605
944.1347195
944.049291
943.866034
943.5942768
943.2388754
942.8039309
942.2931605
941.7100338
941.0581081
940.3410153
939.5624513
938.7262585
937.8367184
936.8978015
935.913972
934.8896834
933.8295209
932.7379595
931.6198135
930.4794735
929.321328
928.1498058
926.9691053
925.7832048
924.5958253
923.4104479
922.2303402
921.0585064
919.8976351
918.7503205
917.618636
916.504437
915.4093634
914.334912
913.2822038
912.2521641
911.2456349
910.2630991
909.3048931
908.3714409
907.4626449
906.5786352
905.7192023
904.8840414
904.0730273
903.2855752
902.5211454
901.7792856
901.059293
900.3604695
943.9506501
943.8640544
943.6781157
943.4024246
943.0422597
942.6015134
942.0842381
941.494167
940.8349402
940.1103862
939.3244089
938.4811661
937.5847361
936.6395456
935.6501659
934.6210722
933.5569624
932.4625864
931.3424885
930.2012353
929.0434376
927.8733623
926.6951397
925.5127009
924.3298035
923.1499149
921.9762828
920.8117579
919.6589683
918.5203247
917.3979304
916.2936835
915.2090471
914.1453209
913.1037095
912.08512
911.0901009
910.1193649
909.1729945
908.2514384
907.3545203
906.4824246
905.6347706
904.8113818
904.0119513
903.2359558
902.482833
901.7521523
901.0431342
900.3551108
943.7649236
943.6770658
943.4884502
943.2090609
942.8440062
942.3976894
941.8740733
941.2771217
940.6107817
939.8790533
939.0859633
938.2357523
937.3327906
936.3817941
935.3870758
934.3536832
933.2860589
932.1891024
931.0676014
929.9259689
928.7687671
927.6003875
926.4250144
925.2464696
924.0684425
922.894291
921.7272231
920.5700863
919.425515
918.2957323
917.1827472
916.0882854
915.0140163
913.9610336
912.9303341
911.9229871
910.9394139
909.9801028
909.045381
908.1353673
907.2501015
906.3895086
905.5532879
904.7413073
903.9530861
903.1881619
902.4459646
901.7260477
901.0275968
900.3499617
943.5774797
943.4883709
943.2971839
943.0141068
942.6442308
942.1923654
941.662581
941.0589746
940.3856971
939.6469044
938.8468413
937.9899827
937.080945
936.1242136
935.1247571
934.0871499
933.0164834
931.9174252
930.7946965
929.6530228
928.4969086
927.3306626
926.1583421
924.9838732
923.8109468
922.6428216
921.4826065
920.3330549
919.1966784
918.0757675
916.9722586
915.8877394
914.8236558
913.7813138
912.7615517
911.765177
910.7928759
909.8448016
908.9214917
908.0227739
907.1488892
906.2995126
905.4744704
904.673529
903.8961868
903.1419931
902.4103979
901.7008609
901.0126146
900.3450002
943.3883928
943.2981223
943.104466
942.817576
942.4431232
941.9856455
941.4497363
940.8395969
940.159528
939.4138466
938.6071306
937.7439428
936.8288771
935.8669057
934.8627786
933.8215309
932.7479226
931.6470889
930.5236354
929.3821729
928.2273076
927.0634817
925.8946093
924.7245711
923.5569143
922.3949125
921.2416642
920.0998587
918.9719041
917.8599318
916.7658049
915.6912371
914.6374557
913.6055447
912.596633
911.6112261
910.6499443
909.7130585
908.8008486
907.913297
907.0504791
906.2120713
905.3979703
904.6077651
903.8410145
903.097254
902.3759536
901.6764837
900.9981228
900.3402045
943.1979446
943.1064762
942.9102113
942.6196367
942.2405689
941.7777458
941.2357512
940.6191372
939.9324301
939.1801256
938.366883
937.4974031
936.5767029
935.6096292
934.6011997
933.5564156
932.4803843
931.3779217
930.2539049
929.1130546
927.9598533
926.798584
925.6332701
924.4678495
923.3057256
922.1501304
921.0039962
919.8699387
918.7504586
917.6475546
916.5629445
915.4981611
914.4546634
913.4332947
912.4350076
911.4605131
910.5100936
909.5842556
908.6829872
907.8064514
906.9544776
906.1268439
905.3234454
904.5437418
903.7873374
903.053769
902.3424837
901.6528105
900.9840581
900.3355538
943.006042
942.9133518
942.7145009
942.4204367
942.0366535
941.5685531
941.0206695
940.3977597
939.7045103
938.9456402
938.1259874
937.250562
936.3243768
935.3523749
934.3399185
933.2918865
932.2135026
931.1098184
929.9855093
928.845343
927.6939851
926.5355926
925.3741587
924.2134607
923.0569095
921.9078238
920.7689869
919.6429074
918.5319004
917.4380054
916.3629603
915.3081174
914.274718
913.2638618
912.2762004
911.3124715
910.372922
909.4579178
908.5675024
907.7017914
906.8605032
906.0435415
905.2505901
904.4811929
903.7349296
903.0113641
902.309844
901.6297385
900.9703592
900.3310274
942.8127312
942.7188319
942.5176459
942.2199206
941.831717
941.3581831
940.8045042
940.175411
939.4757502
938.7104619
937.8847438
937.0035024
936.0718841
935.0953712
934.0788806
933.027907
931.9474554
930.8425488
929.7182166
928.5790795
927.4296708
926.2741923
925.1167655
923.9610262
922.810297
921.6677508
920.5361486
919.4181199
918.3157466
917.2309256
916.1653244
915.1204382
914.0972335
913.0967324
912.1197247
911.1666142
910.2378898
909.333598
908.4539917
907.5989227
906.7681931
905.9617635
905.179111
904.4198622
903.683573
902.9698341
902.2778967
901.6071693
900.9569667
900.3266056
942.6181898
942.5232195
942.3195531
942.018211
941.6256629
941.1470309
940.5875584
939.9523668
939.2464934
938.4750768
937.6432686
936.7563033
935.819706
934.8385874
933.8184955
932.7645379
931.682239
930.5764591
929.4520892
928.3140348
927.1668066
926.014497
924.8611105
923.7102885
922.5654408
921.4295846
920.3053907
919.1952929
918.1015061
917.0258357
915.9697571
914.9346759
913.9216891
912.9315036
911.9650608
911.0225843
910.1045406
909.2109109
908.3420062
907.4974877
906.6772941
905.8812024
905.1087331
904.3595086
903.6331132
902.9290105
902.24651
901.5850085
900.9438243
900.3222694
942.422561
942.3264301
942.1203094
941.8156641
941.4186417
940.9350418
940.3700548
939.7289581
939.0170093
938.2395267
937.4018155
936.5095588
935.5679344
934.5825815
933.5588766
932.5023509
931.4181643
930.311578
929.1874752
928.0506194
926.9055024
925.7563866
924.6071865
923.4614308
922.3224126
921.1931365
920.0763469
918.9743119
917.8890651
916.8224137
915.7758806
914.7506094
913.7476974
912.7679071
911.811852
910.880013
909.9725201
909.0895865
908.2312121
907.3971686
906.5874392
905.8015889
905.039212
904.299916
903.583314
902.888739
902.215563
901.5631692
900.9308792
900.3180011
942.2257874
942.1285351
941.9201693
941.6122062
941.2110394
940.7224697
940.1521659
939.5053817
938.7875878
938.004323
937.1611634
936.2636016
935.3172466
934.3278429
933.3007801
932.2416888
931.1559565
930.0486043
928.9247178
927.7892031
926.6463691
925.5004088
924.3552458
923.2145117
922.0813926
920.9587603
919.8491805
918.7550832
917.678394
916.6207087
915.5835272
914.5680623
913.575094
912.6056024
911.6599237
910.7385878
909.8415871
908.969266
908.1213527
907.2977904
906.4983801
905.7227012
904.9703452
904.2409559
903.5340128
902.8488854
902.1849495
901.5415744
900.9180849
900.313785
942.0279629
941.9297623
941.7192605
941.4080324
941.0030045
940.5098774
939.9344133
939.2822321
938.5589776
937.7702792
936.9217889
936.0192528
935.068559
934.0751963
933.0450904
931.983654
930.8963518
929.7884687
928.6649622
927.5306399
926.3900186
925.2472741
924.1062148
922.9703142
921.8428555
920.7267636
919.6244137
918.5380552
917.4696774
916.4208861
915.3929267
914.387045
913.4040296
912.4445777
911.5092477
910.598224
909.7117321
908.8498197
908.0122847
907.1991472
906.4099635
905.6443881
904.9019955
904.182445
903.4850927
902.8093489
902.1545876
901.5201632
900.9054034
900.3096078
941.8294217
941.7302347
941.5176369
941.2035712
940.7947938
940.2974891
939.7173609
939.0602217
938.3318737
937.5380787
936.6847288
935.7777821
934.822901
933.8261414
932.7930335
931.7295824
930.6409701
929.5324765
928.4094322
927.2764563
926.1379784
924.9982128
923.8611087
922.7300011
921.608089
920.4981429
919.4027579
918.3240167
917.2637065
916.2234664
915.2045983
914.2080007
913.234713
912.2851625
911.359941
910.4590843
909.5829362
908.7313001
907.904116
907.1012065
906.3221558
905.5666005
904.8341568
904.1243163
903.4364921
902.7700726
902.1244285
901.4988983
900.892811
900.3054609
941.6300233
941.5299587
941.3155496
940.9989802
940.5869528
940.0858198
939.5015726
938.840058
938.1072165
937.3090197
936.4515136
935.5405009
934.582136
933.5822422
932.5467824
931.4813557
930.3917189
929.2829666
928.1602814
927.0285594
925.892232
924.7554344
923.6219621
922.4952905
921.3786537
920.2746801
919.1858117
918.114247
917.061737
916.029679
915.0194691
914.0319734
913.0679372
912.1280708
911.2125849
910.3217574
909.4556048
908.6140378
907.7970372
907.0041745
906.2351138
905.4894877
904.7668487
904.0666224
903.3882413
902.7310705
902.0944749
901.4777755
900.8803015
900.3013412
941.4298665
941.3291146
941.1133596
940.7945557
940.3799713
939.875742
939.2880415
938.6229586
937.8865327
937.084771
936.2237443
935.3095642
934.3483864
933.3460443
932.3086742
931.2419747
930.1514298
929.0426172
927.9205875
926.7901174
925.6556874
924.5216603
923.3916603
922.2691501
921.1572307
920.0587468
918.9760259
917.9110895
916.8657635
915.8414672
914.8393023
913.8603861
912.905187
911.9744732
911.0683223
910.187093
909.3305738
908.4988473
907.6916227
906.9085441
906.1492411
905.4133796
904.7003276
904.009561
903.3404896
902.6924512
902.0648026
901.4568439
900.8679016
900.2972561
941.2292138
941.128023
940.9111459
940.5908512
940.1743477
939.6679928
939.0779469
938.4103889
937.6714232
936.867183
936.0038436
935.0876486
934.1245272
933.1208026
932.0822421
931.014874
929.9241602
928.8155372
927.6943084
926.5652389
925.4327915
924.3011777
923.1742458
922.0554968
920.9479167
919.854207
918.7769133
917.7179967
916.6790844
915.6617418
914.6670242
913.6958004
912.7488254
911.826493
910.9291361
910.0567897
909.2093708
908.3869437
907.5890259
906.8153077
906.0654578
905.3389432
904.6351762
903.9536018
903.2936033
902.6544889
902.0356036
901.4362249
900.8556747
900.2932237
941.0281117
940.9266593
940.7092153
940.3883534
939.9709004
939.4635528
938.8725108
938.2039339
937.463957
936.6588734
935.7948557
934.8779791
933.914534
932.9105302
931.8721131
930.8049401
929.7148393
928.6071757
927.4871241
926.3595631
925.2291149
924.0998881
922.9756728
921.8600505
920.7561682
919.6666117
918.5937986
917.5399144
916.5065295
915.4950024
914.5066859
913.5421733
912.6023408
911.6874339
910.7978762
909.9335073
909.0944283
908.2804088
907.4910637
906.7260636
905.9850265
905.2672997
904.5723241
903.8995028
903.2481888
902.6176558
902.0072312
901.4161636
900.8437639
900.2892893
940.8265995
940.7252161
940.5081497
940.1875141
939.7705912
939.2637745
938.6734103
938.0057278
937.2668521
936.4629921
935.6002255
934.6847909
933.7229169
932.7205244
931.6838269
930.6184908
929.5300957
928.4243765
927.3063381
926.1808147
925.0524562
923.9255752
922.8038693
921.6909197
920.5898723
919.5035688
918.4343058
917.3841464
916.3549985
915.3480737
914.3646175
913.4054758
912.471279
911.5624874
910.6792668
909.8215937
908.9895562
908.1827564
907.4008672
906.6435922
905.9103427
905.2005141
904.5135131
903.8486989
903.2053907
902.5828251
901.9803098
901.3970637
900.8323865
900.2855176
940.6248799
940.5241074
940.3081042
939.9890265
939.5742407
939.070032
938.4826604
937.8182886
937.083029
936.2829915
935.4242144
934.5130568
933.5552747
932.5571201
931.5243655
930.4629773
929.3783242
928.2759589
927.1611801
926.0386656
924.9130542
923.7886441
922.6693493
921.5586895
920.4598264
919.3756865
918.3087317
917.2609873
916.2343359
915.2302546
914.2497988
913.2940827
912.3635583
911.4588887
910.5800506
909.7272167
908.900287
908.0989261
907.3228501
906.5716443
905.8446958
905.14139
904.4611012
903.8031444
903.1668013
902.5512646
901.955811
901.3796166
900.821955
900.2820422
940.4231357
940.3233533
940.1094575
939.7936962
939.3829013
938.8837191
938.3020947
937.6440709
936.9156838
936.1228848
935.271764
934.3682276
933.41807
932.4274861
931.4020014
930.3474433
929.2692344
928.1727197
927.0631469
925.9452664
924.8236399
923.7025248
922.5859532
921.4774986
920.3803654
919.2974941
918.2315886
917.1846853
916.1586927
915.1553346
914.1756499
913.2208354
912.2914759
911.3882154
910.5111017
909.6604223
908.835973
908.0374824
907.2647329
906.5171773
905.7942429
905.0952895
904.4196641
903.7666429
903.1354737
902.5253106
901.9354045
901.3648992
900.8130479
900.2790364
940.2213096
940.1231133
939.9127373
939.602019
939.197818
938.7063425
938.13376
937.4857431
936.7681838
935.9869042
935.147684
934.2562
933.3182184
932.3395031
931.3255787
930.2819198
929.2139501
928.1267883
927.0255308
925.9149334
924.7994597
923.6833466
922.5706265
921.4649419
920.3695486
919.2874706
918.2215401
917.1739067
916.1466016
915.1415114
914.1598031
913.2027933
912.271229
911.3658349
910.4867818
909.6344734
908.8087347
908.0093731
907.2362487
906.4887869
905.7664592
905.0686293
904.3946385
903.743741
903.1151548
902.5079902
901.9214512
901.3546211
900.8067009
900.2768382
939.9236896
939.7182382
939.4145964
939.0197385
938.5394559
937.9795911
937.3458054
936.6437485
935.878882
935.0567123
934.1826815
933.2623483
932.3010604
931.3041705
930.2768364
929.2242746
928.1513645
927.0630568
925.9638903
924.8582352
923.7502681
922.6440009
921.5429878
920.4505706
919.3699177
918.3038026
917.2545925
916.2245437
915.2155543
914.2290627
913.2666242
912.3290519
911.4173748
910.5318772
909.6730891
908.8410609
908.0356928
907.256931
906.5043392
905.7774357
905.075637
904.3983201
903.7447614
903.114189
902.5057148
901.9185409
901.3517432
900.8045061
900.2759286
)
;

boundaryField
{
    front_top
    {
        type            wedge;
    }
    front_middle
    {
        type            wedge;
    }
    front_bottom
    {
        type            wedge;
    }
    back_top
    {
        type            wedge;
    }
    back_middle
    {
        type            wedge;
    }
    back_bottom
    {
        type            wedge;
    }
    axis_top
    {
        type            symmetryPlane;
    }
    axis_middle
    {
        type            symmetryPlane;
    }
    axis_bottom
    {
        type            symmetryPlane;
    }
    wall_top
    {
        type            calculated;
        value           nonuniform 0();
    }
    wall_middle
    {
        type            calculated;
        value           uniform 900.0184441;
    }
    wall_bottom
    {
        type            calculated;
        value           nonuniform 0();
    }
    inlet
    {
        type            calculated;
        value           nonuniform 0();
    }
    outlet
    {
        type            calculated;
        value           nonuniform 0();
    }
    procBoundary3to2
    {
        type            processor;
        value           nonuniform List<scalar> 
51
(
940.0195142
940.0195142
939.7251973
939.5261276
939.2320204
938.8493197
938.3838259
937.8409471
937.226105
936.5446332
935.8017067
935.0025127
934.1521572
933.2558721
932.3186209
931.3454057
930.3411208
929.3105451
928.2583259
927.1892272
926.1073586
925.0169759
923.9222652
922.8267783
921.7341568
920.6478054
919.5707622
918.5057847
917.4555091
916.4222649
915.407951
914.4145117
913.4433396
912.4957922
911.5729014
910.6754533
909.8039616
908.9589848
908.1405539
907.3487438
906.5835382
905.8445574
905.1313973
904.4435841
903.7805209
903.1415174
902.5257269
901.9323378
901.3603769
900.8089502
900.2771076
)
;
    }
    procBoundary3to4
    {
        type            processor;
        value           nonuniform List<scalar> 
51
(
944.6758157
944.5943076
944.4191816
944.1592363
943.8190195
943.4019409
942.9114201
942.3502953
941.7216075
941.028406
940.2738806
939.461327
938.5943729
937.6767522
936.7122324
935.7051664
934.659494
933.5796746
932.1831857
932.1831857
931.0459064
929.8885816
928.7155861
927.5311454
926.3392466
925.1437638
923.9482469
922.7560096
921.5702394
920.3937543
919.2291479
918.0788227
916.9447968
915.8288074
914.732422
913.6569597
912.6035989
911.5731219
910.5662354
909.5834894
908.6251209
907.6915186
906.7825021
905.8982756
905.0384295
904.2028162
903.3911129
902.6027034
901.8370939
901.0937481
900.3719071
)
;
    }
}


// ************************************************************************* //
