/*--------------------------------*- C++ -*----------------------------------*\
  =========                 |
  \\      /  F ield         | OpenFOAM: The Open Source CFD Toolbox
   \\    /   O peration     | Website:  https://openfoam.org
    \\  /    A nd           | Version:  7
     \\/     M anipulation  |
\*---------------------------------------------------------------------------*/
FoamFile
{
    version     2.0;
    format      ascii;
    class       volScalarField;
    location    "0.0006";
    object      thermo:mu;
}
// * * * * * * * * * * * * * * * * * * * * * * * * * * * * * * * * * * * * * //

dimensions      [1 -1 -1 0 0 0 0];

internalField   nonuniform List<scalar> 
1167
(
169318.9823
167418.532
163417.9787
157683.2187
150526.8327
142260.0681
133197.8879
123642.7196
113865.6841
104107.5779
94570.50821
85416.26774
76763.62334
68694.35774
61259.54923
54476.43936
48344.49833
42841.27558
165211.5849
163334.8969
159385.9608
153733.919
146680.9136
138547.1532
129641.0622
120261.4362
110679.4132
101131.644
91815.18449
82885.08424
74456.95913
66610.29468
59388.32104
52808.92756
46865.979
41538.76649
36792.5694
32585.86735
28873.15724
25607.59799
22742.47417
20233.12838
18038.05064
16119.00157
14441.39986
12974.43002
11690.58108
10565.79887
9579.010808
8711.864535
7948.532216
7275.194074
6679.946266
6152.609902
5684.378467
5267.566358
4895.695899
4563.082572
4264.871506
3996.831971
3755.360993
3537.248321
3339.811677
3160.641062
2997.641772
2849.017948
2713.181296
2588.730853
161176.007
159323.9514
155432.7399
149861.3055
142917.3867
134916.2811
126168.9761
116968.581
107582.9786
98244.9162
89146.5102
80438.53783
72234.00955
64604.22817
57591.39398
51209.51628
45451.5159
40293.53205
35702.10555
31634.9678
28046.71346
24891.34192
22123.34507
19699.25166
17578.4907
15723.94843
14102.1938
12683.37848
11441.04245
10352.10935
9396.177003
8555.560903
7814.966743
7161.22811
6582.889222
6070.089107
5614.383521
5208.419011
4845.872744
4521.375553
4230.163719
3968.231161
3732.043286
3518.54039
3325.129734
3149.46773
2989.539803
2843.616191
2710.145734
2587.7787
157215.7398
155391.3034
151555.3187
146065.927
139234.8773
131368.915
122780.174
113760.1768
104571.4472
95442.61747
86561.42787
78075.15801
70088.59351
62671.98425
55863.64141
49674.25695
44095.0552
39101.96358
34659.51977
30726.25998
27257.87025
24208.53492
21533.63359
19190.81927
17140.84819
15347.78964
13779.32483
12406.48893
11203.77073
10148.83612
9222.148092
8406.762908
7687.871834
7052.736202
6490.432107
5991.486743
5547.665283
5152.017242
4798.367283
4481.574788
4197.035302
3940.915277
3709.76383
3500.669648
3311.089571
3138.778324
2981.78554
2838.44418
2707.238197
2586.866496
153332.514
151533.9676
147753.9476
142351.8478
135631.5753
127904.7458
119476.3618
110635.9081
101643.8431
92723.90464
84058.27876
75788.66297
68016.80493
60809.90172
54200.12477
48198.7806
42793.22401
37958.95866
33660.94476
29857.09132
26503.52887
23555.70776
20970.1463
18705.39205
16723.29406
14988.9726
13471.23327
12142.18809
10977.29008
9954.883208
9056.140826
8264.693113
7566.484275
6949.14941
6402.104429
5916.354159
5483.927675
5098.065797
4752.935058
4443.476903
4165.337426
3914.748953
3688.414067
3483.53812
3297.625174
3128.523523
2974.346422
2833.478977
2704.446048
2585.990351
149524.5285
147752.3806
144030.8796
138716.554
132108.5268
124520.7926
116254.4575
107594.8583
98798.72177
90084.95939
81631.54007
73576.02306
66016.29719
59012.75352
52598.39473
46778.41924
41541.91353
36861.8311
32702.58885
29023.4564
25780.83139
22930.80567
20430.74541
18240.65541
16323.56311
14645.58744
13176.51487
11889.39723
10760.52446
9769.167084
8897.17296
8128.721868
7450.194983
6849.869905
6317.489785
5844.302183
5422.782496
5046.29494
4709.320666
4406.89094
4134.886811
3889.603675
3667.903063
3467.063899
3284.673113
3118.655759
2967.191194
2828.698291
2701.75696
2585.146459
145792.697
144048.8822
140388.0552
135159.3381
128667.7466
121217.3771
113112.433
104633.2795
96031.90864
87522.41495
79279.63272
71435.38044
64081.86823
57278.64222
51053.27363
45411.05822
40337.42058
35806.59762
31782.0561
28222.96751
25086.79043
22330.85322
19913.22498
17795.00021
15940.17611
14316.0986
12893.63029
11646.74129
10552.51916
9590.913363
8744.457737
7998.061806
7338.497948
6754.402284
6236.096926
5775.019289
5363.925446
4996.488801
4667.309033
4371.663527
4105.535103
3865.357883
3648.12619
3451.168886
3272.17268
3109.12934
2960.28157
2824.080543
2699.158954
2584.331101
142141.647
140425.5044
136822.8242
131682.1171
125305.8947
117996.3221
110051.6579
101751.2526
93343.18944
85036.6505
77000.61139
69362.27094
62211.96046
55603.49986
49562.80044
44092.37075
39177.71616
34790.72291
30895.90553
27453.02266
24419.77522
21754.10132
19415.50715
17366.32968
15571.4563
13999.30201
12621.58443
11413.20307
10352.23095
9419.265342
8597.42043
7872.103141
7230.77756
6662.379579
6157.539828
5708.141405
5307.074707
4948.361909
4626.698935
4337.607927
4077.142488
3841.900549
3628.98319
3435.778782
3260.065972
3099.903614
2953.586001
2819.604877
2696.640427
2583.540674
138568.4842
136879.6313
133335.6205
128286.1027
122023.0284
114854.1882
107070.8511
98948.84048
90731.61109
82624.25586
74791.07916
67356.0042
60403.85726
53985.01209
48124.19961
42820.74141
38059.33069
33812.09276
30042.62509
26711.3436
23777.19254
21198.69294
18936.38385
16953.47602
15216.07605
13693.8154
12359.21873
11188.01083
10158.95088
9253.45985
8455.331141
7750.418095
7126.567533
6573.315291
6081.499486
5643.347374
5252.011411
4901.694115
4587.317675
4304.557002
4049.577439
3819.13815
3610.385731
3420.822833
3248.297616
3090.938785
2947.074112
2815.251125
2694.190109
2582.77166
135072.9821
133411.6795
129930.6172
124968.8945
118822.952
111791.0441
104168.2832
96223.26027
88194.75758
80283.72236
72651.43929
65414.866
58655.19254
52422.38955
46735.11935
41594.0536
36981.25742
32868.29491
29220.06356
25996.80353
23157.89855
20663.04552
18474.1218
16555.15333
14873.22792
13398.86605
12105.60343
10970.20136
9971.984946
9092.996535
8317.640669
7632.434824
7025.528836
6486.848297
6007.668626
5580.366631
5198.472846
4856.285127
4549.000425
4272.365728
4022.718186
3796.949813
3592.250907
3406.234219
3236.814946
3082.189246
2940.717128
2811.000085
2691.797221
2582.02068
131657.0847
130025.6423
126604.6675
121731.0271
115702.3371
108810.6547
101345.9522
93575.71211
85734.1213
78017.44147
70580.27498
63537.11882
56966.97056
50913.2527
45395.68576
40410.73402
35941.77798
31959.03719
28427.09398
25307.63121
22560.65175
20146.54047
18028.04399
16170.35834
14541.78654
13113.63435
11860.29591
10759.22348
9790.681353
8937.31695
8184.004138
7517.753343
6927.267395
6402.693829
5935.741206
5518.997078
5146.240838
4811.965329
4511.573295
4240.90549
3996.478274
3775.242999
3574.502417
3391.951117
3225.580401
3073.617608
2934.487826
2806.833532
2689.451495
2581.2845
128321.7884
126718.482
123357.7124
118576.3904
112661.6342
105910.0776
98604.41546
91007.65832
83350.02759
75823.20738
68577.247
61724.75606
55337.38127
49458.63274
44104.38551
39271.44121
34940.43064
31082.91544
27663.44245
24643.77442
21984.75315
19648.1297
17597.45865
15798.80986
14221.3896
12837.51906
11622.59647
10554.71725
9614.743385
8786.016413
8054.032357
7406.134087
6831.485422
6320.64967
5865.501431
5459.041529
5095.146417
4768.613251
4474.906969
4210.064352
3970.741525
3753.937885
3557.073516
3377.918814
3214.538964
3065.190067
2928.361377
2802.734707
2687.143417
2580.5601
125064.5469
123489.8556
120192.1491
115501.8418
109704.3597
103090.5479
95943.33725
88518.68976
81042.73812
73703.02494
66645.98781
59977.47559
53768.24952
48058.87064
42862.77428
38175.65484
33978.17814
30240.69894
26928.76061
24005.01103
21430.57683
19168.06607
17182.13065
15440.04465
13911.82398
12570.56845
11392.38554
10356.36179
9443.958186
8638.984018
7927.497603
7297.377551
6738.021903
6240.488983
5796.826192
5400.335255
5045.071131
4726.080989
4438.902138
4179.77744
3945.428931
3732.96942
3539.909333
3364.104193
3203.652814
3056.877411
2922.316136
2798.688883
2684.864563
2579.844784
121885.3369
120341.735
117108.0102
112508.3005
106830.1833
100356.8538
93366.26961
86112.43276
78816.64079
71661.00763
64787.12359
58298.0922
52262.3851
46715.82617
41672.62557
37125.80864
33055.77143
29433.66139
26224.78948
23392.19955
20898.39398
18706.81722
16782.87665
15094.62841
13613.23808
12312.75718
11169.89203
10164.32864
9278.291332
8496.193976
7804.438977
7191.403345
6646.890567
6162.155537
5729.66296
5342.814074
4995.988533
4684.306379
4403.499734
4149.972747
3920.490424
3712.292817
3522.972507
3350.462025
3192.894696
3048.65774
2916.335433
2794.684425
2682.608118
2579.136314
118787.6705
117274.1088
114104.0498
109599.6539
104040.0316
97708.83131
90876.57586
83793.03921
76674.8312
69699.42564
63005.10661
56691.77441
50822.68295
45434.35043
40536.83342
36124.78986
32176.73307
28663.92082
25553.17497
22807.54654
20390.20344
18265.65849
16400.52464
14763.55517
13326.72252
12064.78288
10955.49197
9979.055718
9118.170521
8357.863718
7685.070648
7088.380666
6558.132527
6085.757529
5664.024591
5286.515887
4947.869658
4643.2923
4368.723064
4120.632317
3895.910845
3691.891137
3506.25864
3336.974906
3182.249914
3040.518543
2910.409323
2790.714172
2680.369773
2578.433226
115767.4011
114285.0718
111181.7885
106775.4494
101338.1933
95149.55198
88476.96224
81563.84631
74621.97322
67824.96202
61307.12562
55163.07932
49456.11834
44218.81242
39461.82921
35177.03157
31344.97602
27936.20277
24917.6171
22253.77147
19908.60315
17847.34362
16037.30641
14448.42572
13053.56034
11828.08341
10750.3444
9801.34564
8964.332179
8224.671407
7569.839377
6988.80186
6472.083609
6011.575741
5600.122306
5231.64519
4900.842149
4603.135948
4334.620694
4091.809298
3871.728104
3671.799361
3489.769747
3323.65327
3171.724075
3032.462091
2904.537958
2786.777189
2678.148408
2577.734958
112824.1393
111375.2307
108343.8987
104036.8949
98727.53099
92685.6091
86174.10629
79432.45137
72667.00893
66046.11862
59699.73252
53720.95937
48170.00922
43077.53093
38453.79082
34290.37887
30566.78018
27255.53335
24323.5698
21735.92459
19457.5942
17455.14138
15696.43519
14152.27265
12796.17981
11604.55414
10556.27573
9632.799522
8817.994852
8097.717393
7459.664092
6893.33345
6389.40582
5940.084805
5538.394029
5178.498361
4855.183914
4564.093586
4301.359747
4063.639139
3848.046785
3652.098147
3473.565245
3310.540666
3161.348367
3024.510088
2898.735826
2782.882454
2675.948697
2577.042792
109959.6701
108546.8892
105588.746
101388.1286
96210.42713
90321.03945
83975.54318
77407.60342
70818.17893
64371.51042
58194.00479
52376.20596
46974.58016
42020.96486
37522.8837
33473.20053
29851.42259
26630.18589
23777.92468
21260.43008
19043.54434
17094.48919
15382.4373
13879.02392
12558.36428
11397.40911
10375.90392
9475.77746
8681.226197
7978.654571
7356.09205
6803.216214
6311.15669
5872.16597
5479.606832
5127.686199
4811.408837
4526.544693
4269.281425
4036.398055
3825.109193
3632.952542
3457.782118
3297.7418
3151.200512
3016.717849
2893.039889
2779.0523
2673.781817
2576.359769
107172.4403
105797.2416
102917.6392
98831.74637
93792.47488
88061.79128
81888.09388
75497.86354
69086.37368
62814.18827
56803.63543
51141.41017
45884.40947
41061.72208
36682.3978
32737.9238
29209.79661
26071.09729
23290.85278
20836.18383
18674.21375
16772.85909
15102.09395
13634.49278
12345.07261
11211.2568
10213.23604
9333.644066
8557.038891
7870.050226
7261.231535
6720.362531
6238.884815
5809.184889
5424.849288
5080.160009
4770.330761
4491.140765
4238.919658
4010.52855
3803.243744
3614.639187
3442.637737
3285.425033
3141.408625
3009.180541
2887.518146
2775.331864
2671.673
2575.693564
104460.7896
103126.4398
100334.9993
96369.37741
91480.0037
85916.80488
79921.97685
73715.46757
67486.27643
61389.4406
55543.29999
50033.48505
44915.2082
40216.77839
35947.85577
32100.65136
28656.85285
25591.87542
22875.36397
20475.52501
18360.67161
16500.07057
14864.38762
13426.97792
12163.54947
11052.382
10074.00763
9211.388524
8449.718013
7775.802838
7178.3939
6647.648116
6175.057395
5753.282254
5375.930767
5037.472236
4733.217585
4458.979914
4211.193593
3986.799096
3783.075128
3597.667519
3428.539359
3273.908897
3132.214414
3002.07389
2882.290538
2771.795324
2669.660475
2575.055087
101825.1689
100537.2303
97839.27333
94005.0486
89276.80881
83894.00381
78089.28062
72074.49428
66032.51892
60113.10224
54431.37315
49071.92911
44086.73821
39506.27519
35339.1411
31580.16524
28211.72954
25210.35533
22548.0323
20193.93276
18117.61418
16289.43789
14681.33928
13267.33005
12023.78998
10929.63034
9965.968123
9116.069048
8365.401169
7701.195982
7112.266091
6589.086502
6123.179682
5707.417525
5335.415265
5001.806825
4701.898366
4431.591275
4187.386796
3966.235229
3765.453086
3582.722788
3416.033539
3263.624028
3123.952157
2995.651972
2877.54329
2768.56956
2667.816897
2574.46695
99265.53604
98026.98706
95431.51612
91743.37283
87188.51645
82000.44653
76399.01696
70587.02948
64740.50541
59003.59717
53489.10734
48277.66414
43421.88757
38952.99118
34880.178
31199.85939
27896.77567
24948.8959
22330.07358
20011.38776
17963.70615
16158.58822
14569.19329
13170.4156
11939.3286
10855.37043
9900.278294
9057.602298
8313.052997
7654.197203
7069.946902
6550.914125
6088.755732
5676.380034
5307.474678
4976.747645
4679.488301
4411.644831
4169.757412
3950.752409
3751.976738
3571.12185
3406.185268
3255.411187
3117.264034
2990.38326
2873.596245
2765.852014
2666.243952
2573.958413
96778.75264
95594.83847
93114.16309
89584.77218
85221.94498
80243.41782
74861.21313
69265.94614
63625.9214
58079.88457
52736.14431
47673.52268
42945.36829
38582.6196
34597.06431
30986.55821
27738.74144
24833.6003
22247.10446
19952.52699
17922.35514
16129.62281
14548.69749
13155.50588
11927.88888
10845.89716
9891.761851
9049.381003
8304.723176
7645.564242
7060.94255
6541.552907
6079.128727
5666.593806
5297.661513
4967.053265
4670.036024
4402.555837
4161.149667
3942.711063
3744.580358
3564.433664
3400.254108
3250.271006
3112.935432
2986.873449
2870.901165
2763.956095
2665.123776
2573.586581
93241.46801
90886.52331
87530.53297
83377.95763
78629.88042
73484.12557
68122.07086
62702.87833
57358.02983
52191.91162
47281.8356
42681.40844
38422.09578
34518.25384
30970.10039
27768.19592
24895.23531
22329.89874
20047.65494
18023.09219
16230.99414
14647.16103
13248.53592
12013.9272
10924.14106
9961.763724
9111.158637
8358.608071
7691.95171
7100.404625
6574.748603
6106.674105
5689.163273
5315.876657
4981.489427
4681.257441
4411.066219
4167.398116
3947.11407
3747.500637
3566.190428
3401.126048
3250.499944
3112.729948
2986.4128
2870.33947
2763.42554
2664.73657
2573.432748
)
;

boundaryField
{
    front_top
    {
        type            wedge;
    }
    front_middle
    {
        type            wedge;
    }
    front_bottom
    {
        type            wedge;
    }
    back_top
    {
        type            wedge;
    }
    back_middle
    {
        type            wedge;
    }
    back_bottom
    {
        type            wedge;
    }
    axis_top
    {
        type            symmetryPlane;
    }
    axis_middle
    {
        type            symmetryPlane;
    }
    axis_bottom
    {
        type            symmetryPlane;
    }
    wall_top
    {
        type            calculated;
        value           nonuniform 0();
    }
    wall_middle
    {
        type            calculated;
        value           uniform 2530.329233;
    }
    wall_bottom
    {
        type            calculated;
        value           nonuniform 0();
    }
    inlet
    {
        type            calculated;
        value           nonuniform 0();
    }
    outlet
    {
        type            calculated;
        value           nonuniform 0();
    }
    procBoundary3to2
    {
        type            processor;
        value           nonuniform List<scalar> 
51
(
94363.84494
94363.84494
90965.16361
88746.34965
85581.49306
81656.29075
77158.85754
72270.66728
67160.93771
61978.74638
56848.68565
51870.78052
47120.33103
42650.96248
38495.36705
34670.31141
31179.26286
28015.61721
25165.52892
22610.90056
20329.48671
18298.48911
16494.97759
14895.85966
13479.69776
12226.44996
11117.55209
10136.14102
9267.174154
8497.171694
7814.057396
7207.365084
6667.701123
6186.940944
5757.921059
5374.369989
5030.788564
4722.465994
4445.16814
4195.271629
3969.626973
3765.416879
3580.204995
3411.866628
3258.531183
3118.553243
2990.467907
2873.003786
2765.017711
2665.520734
2573.632167
)
;
    }
    procBoundary3to4
    {
        type            processor;
        value           nonuniform List<scalar> 
51
(
173496.6694
171573.4653
167523.3794
161712.0754
154452.0984
146056.5034
136844.6914
127114.3643
117143.5223
107176.4665
97419.52452
88037.60071
79156.68825
70863.38676
63208.97871
56218.85159
49890.55599
44206.27975
37934.6691
37934.6691
33583.57659
29741.27033
26360.31363
23393.40794
20794.86394
18521.99149
16535.29112
14798.98978
13281.21546
11953.53671
10790.97204
9771.719354
8876.678711
8089.272516
7395.21583
6782.163588
6239.509935
5758.023247
5329.810348
4948.077649
4606.915965
4301.32956
4026.86791
3779.831138
3556.878277
3355.204568
3172.349891
3006.128053
2854.673328
2716.358011
2589.72699
)
;
    }
}


// ************************************************************************* //
