/*--------------------------------*- C++ -*----------------------------------*\
  =========                 |
  \\      /  F ield         | OpenFOAM: The Open Source CFD Toolbox
   \\    /   O peration     | Website:  https://openfoam.org
    \\  /    A nd           | Version:  7
     \\/     M anipulation  |
\*---------------------------------------------------------------------------*/
FoamFile
{
    version     2.0;
    format      ascii;
    class       volScalarField;
    location    "0.0006";
    object      thermo:alpha;
}
// * * * * * * * * * * * * * * * * * * * * * * * * * * * * * * * * * * * * * //

dimensions      [1 -1 -1 0 0 0 0];

internalField   nonuniform List<scalar> 
1167
(
0.0001203922341
0.0001203805076
0.000120355316
0.0001203179434
0.0001202690578
0.0001202069328
0.0001201294677
0.0001200487952
0.0001199512331
0.0001198499613
0.0001197326319
0.0001196164124
0.0001194873783
0.0001193522416
0.00011920139
0.0001190435558
0.0001188651986
0.0001186808915
0.0001203666968
0.0001203547853
0.0001203292005
0.0001202912882
0.0001202416716
0.000120175899
0.0001201001241
0.0001200171314
0.0001199179455
0.0001198157477
0.0001196990235
0.0001195817416
0.000119448043
0.0001193122416
0.0001191599511
0.000118997656
0.0001188181717
0.0001186332231
0.0001184308171
0.0001182105312
0.0001179806009
0.0001177412283
0.0001174894225
0.0001172234525
0.0001169504405
0.0001166626984
0.0001163672616
0.0001160672435
0.0001157602384
0.000115447457
0.0001151272063
0.000114806428
0.0001144752361
0.000114145363
0.0001138110849
0.0001134838497
0.0001131501923
0.0001128131525
0.0001124799785
0.0001121535074
0.0001118237498
0.0001115016656
0.0001111767912
0.0001108609777
0.0001105518528
0.0001102421382
0.0001099339012
0.0001096308386
0.0001093366518
0.000109047189
0.0001203408871
0.000120328793
0.0001203028493
0.0001202643766
0.00012021233
0.0001201446133
0.0001200707544
0.0001199837212
0.0001198865095
0.0001197799679
0.0001196654034
0.0001195470485
0.0001194117645
0.0001192719308
0.0001191187089
0.0001189517481
0.0001187715412
0.0001185852279
0.0001183791975
0.0001181546666
0.0001179247042
0.000117681486
0.0001174301136
0.0001171608704
0.0001168849245
0.0001165984527
0.0001163040321
0.0001160006607
0.0001156940091
0.0001153835781
0.0001150625766
0.0001147414892
0.0001144134028
0.0001140839408
0.0001137532195
0.0001134282307
0.0001130973216
0.000112762076
0.0001124330447
0.0001121089672
0.0001117835793
0.0001114644342
0.0001111440952
0.0001108328031
0.0001105272348
0.000110222126
0.000109917852
0.000109619466
0.0001093298753
0.0001090448576
0.0001203148284
0.000120302569
0.0001202762456
0.000120237216
0.0001201817188
0.0001201144048
0.0001200411792
0.0001199501106
0.00011985492
0.0001197440565
0.0001196317108
0.0001195091397
0.0001193761014
0.0001192317099
0.0001190776235
0.0001189060894
0.0001187252115
0.0001185344874
0.0001183260276
0.0001180994193
0.000117869526
0.0001176226308
0.0001173681269
0.0001170993926
0.0001168206346
0.0001165354893
0.0001162426362
0.000115937468
0.0001156294325
0.0001153196228
0.0001149996596
0.0001146783469
0.0001143533876
0.0001140243783
0.0001136971433
0.0001133733128
0.0001130460541
0.0001127127202
0.000112387753
0.0001120660011
0.000111744866
0.0001114285734
0.0001111126247
0.0001108057205
0.0001105035701
0.0001102029004
0.0001099024422
0.0001096085526
0.000109323376
0.0001090426229
0.000120288535
0.000120276097
0.0001202493947
0.0001202076881
0.0001201508526
0.0001200855515
0.0001200092621
0.0001199175109
0.0001198219733
0.0001197102153
0.0001195979612
0.0001194709213
0.0001193396761
0.0001191915675
0.000119036295
0.0001188606384
0.0001186791631
0.000118484095
0.0001182714457
0.0001180447621
0.0001178132634
0.0001175645141
0.0001173067351
0.0001170388858
0.000116757471
0.0001164708079
0.0001161798265
0.0001158755754
0.0001155662665
0.0001152555977
0.0001149383168
0.0001146168092
0.0001142949559
0.0001139664822
0.0001136426752
0.0001133200095
0.0001129943107
0.0001126648999
0.0001123439327
0.0001120244427
0.0001117074796
0.0001113939405
0.0001110822534
0.0001107796014
0.0001104807619
0.000110184382
0.0001098876132
0.000109598053
0.0001093171267
0.0001090404758
0.0001202619986
0.0001202493834
0.000120221408
0.0001201773356
0.0001201204519
0.0001200564857
0.0001199763327
0.0001198866321
0.0001197869252
0.0001196773568
0.0001195641157
0.0001194334559
0.0001193004535
0.0001191514518
0.0001189917059
0.0001188153329
0.0001186333404
0.0001184340354
0.0001182172573
0.0001179905656
0.0001177553843
0.0001175070893
0.0001172461281
0.0001169787043
0.0001166952415
0.0001164064061
0.0001161136425
0.0001158118211
0.0001155043497
0.0001151928917
0.0001148783123
0.0001145567251
0.0001142374854
0.0001139100209
0.0001135896501
0.0001132681274
0.0001129439921
0.0001126184398
0.0001123013912
0.0001119841293
0.0001116712412
0.0001113603959
0.0001110528755
0.0001107543381
0.0001104587156
0.0001101664932
0.0001098733078
0.0001095879225
0.0001093111006
0.0001090384068
0.0001202352295
0.0001202215541
0.0001201914037
0.0001201467377
0.000120091983
0.0001200266339
0.0001199431927
0.0001198555791
0.0001197517083
0.0001196443697
0.0001195287561
0.0001193986338
0.0001192611963
0.0001191113785
0.0001189471745
0.0001187701827
0.0001185870634
0.0001183842229
0.000118163435
0.0001179367852
0.0001176979858
0.000117450206
0.000117186189
0.0001169160382
0.000116633849
0.0001163438024
0.0001160484525
0.0001157487246
0.000115443532
0.0001151313629
0.0001148194581
0.0001144978524
0.0001141789883
0.0001138548008
0.0001135378387
0.000113217514
0.0001128949117
0.0001125732014
0.0001122599643
0.0001119449319
0.0001116360061
0.0001113278036
0.0001110243613
0.0001107298257
0.0001104373383
0.0001101491584
0.0001098594539
0.0001095781177
0.0001093052718
0.000109036407
0.0001202059574
0.0001201917167
0.0001201611601
0.0001201169703
0.0001200633094
0.0001199942638
0.0001199116548
0.0001198232742
0.0001197177701
0.0001196112888
0.0001194913421
0.0001193637409
0.0001192219225
0.00011907131
0.0001189027111
0.0001187251181
0.0001185377664
0.0001183330627
0.000118109877
0.0001178833487
0.0001176410443
0.0001173916363
0.000117126794
0.0001168539958
0.0001165731437
0.0001162846479
0.0001159866999
0.0001156865146
0.0001153836149
0.00011507082
0.0001147590176
0.0001144400063
0.0001141215617
0.0001138006862
0.000113487062
0.0001131679651
0.0001128468893
0.0001125289726
0.0001122194927
0.0001119066765
0.0001116016334
0.0001112960365
0.0001109965834
0.0001107059621
0.0001104165404
0.0001101320803
0.0001098459918
0.000109568596
0.0001092996148
0.0001090344676
0.00012017608
0.0001201616491
0.0001201306899
0.0001200887715
0.0001200344431
0.0001199616924
0.0001198812099
0.0001197888034
0.0001196855102
0.0001195780996
0.0001194538273
0.0001193268694
0.000119182625
0.0001190303962
0.0001188582982
0.0001186801532
0.0001184885904
0.0001182798277
0.0001180565839
0.0001178295658
0.0001175844405
0.0001173318657
0.0001170679052
0.000116792517
0.000116512454
0.0001162260915
0.0001159265135
0.0001156250861
0.0001153229219
0.0001150110831
0.0001146991017
0.0001143830686
0.0001140650294
0.0001137474565
0.0001134361323
0.0001131192944
0.0001127997868
0.0001124855903
0.0001121791652
0.0001118692036
0.0001115679864
0.0001112649869
0.0001109694277
0.000110682648
0.0001103962342
0.0001101150244
0.0001098328636
0.0001095593161
0.0001092941049
0.0001090325801
0.0001201459834
0.0001201313642
0.0001201025325
0.0001200603864
0.0001200026672
0.000119928985
0.0001198506117
0.0001197541813
0.0001196531314
0.0001195448123
0.0001194185611
0.0001192883922
0.0001191433016
0.0001189867104
0.0001188139267
0.0001186352816
0.0001184395682
0.0001182267582
0.0001180035098
0.0001177728778
0.0001175281674
0.0001172724566
0.0001170094068
0.0001167315106
0.0001164492959
0.0001161637345
0.0001158667716
0.0001155642647
0.0001152613022
0.0001149520502
0.0001146398893
0.0001143268392
0.0001140092702
0.0001136949505
0.0001133846887
0.0001130713418
0.0001127534189
0.0001124429009
0.0001121385234
0.0001118323721
0.0001115349353
0.0001112345054
0.000110942785
0.0001106597879
0.0001103763354
0.0001100983204
0.0001098200139
0.0001095502384
0.0001092887183
0.0001090307362
0.0001201167655
0.0001201033215
0.0001200744904
0.0001200317044
0.0001199705844
0.0001198990964
0.0001198183569
0.0001197205918
0.0001196206823
0.000119508191
0.000119384385
0.0001192498932
0.0001191040271
0.000118943062
0.0001187696661
0.0001185901242
0.000118390699
0.0001181739229
0.000117950667
0.0001177164492
0.0001174722031
0.000117213435
0.0001169490349
0.0001166709141
0.0001163865875
0.0001160992955
0.0001158043347
0.0001155039737
0.0001152002279
0.0001148935845
0.0001145812966
0.0001142711842
0.0001139541205
0.0001136430416
0.0001133338408
0.0001130228691
0.0001127076289
0.000112400772
0.0001120984276
0.0001117960538
0.0001115012071
0.0001112044775
0.0001109165527
0.0001106372921
0.000110356784
0.0001100819005
0.0001098073897
0.000109541325
0.0001092834322
0.0001090289279
0.0001200890723
0.000120075464
0.0001200462855
0.0001200001677
0.0001199383511
0.0001198690892
0.0001197844893
0.0001196889704
0.000119588201
0.0001194715086
0.000119350212
0.000119211465
0.000119064816
0.0001188995457
0.0001187255358
0.0001185418132
0.0001183410524
0.0001181213276
0.0001178981247
0.0001176603674
0.0001174159346
0.0001171547736
0.0001168876683
0.0001166107719
0.0001163262806
0.0001160353213
0.0001157423615
0.0001154441821
0.0001151396666
0.0001148355942
0.0001145232104
0.0001142145356
0.0001138994585
0.0001135916454
0.0001132834712
0.0001129739123
0.0001126622951
0.0001123591111
0.0001120587583
0.0001117601351
0.000111467715
0.0001111748027
0.0001108906398
0.0001106150798
0.0001103374885
0.0001100657027
0.0001097949424
0.0001095325409
0.0001092782255
0.0001090271481
0.000120061217
0.0001200474499
0.0001200164392
0.0001199684892
0.0001199081568
0.0001198389996
0.0001197505617
0.0001196573253
0.0001195557285
0.000119435485
0.000119312946
0.0001191731593
0.0001190244244
0.0001188562449
0.0001186816642
0.0001184937831
0.0001182889879
0.000118069111
0.0001178459511
0.0001176047112
0.0001173570406
0.0001170965968
0.000116826781
0.0001165510982
0.000116268035
0.0001159751132
0.0001156808963
0.0001153848645
0.0001150796097
0.0001147763222
0.0001144655805
0.0001141571857
0.0001138452326
0.0001135406551
0.0001132335225
0.000112925349
0.0001126173346
0.0001123177948
0.0001120194236
0.0001117245532
0.0001114345195
0.0001111453985
0.0001108649707
0.0001105923003
0.000110318386
0.000110049673
0.0001097826292
0.0001095238552
0.0001092730794
0.0001090253899
0.0001200332129
0.0001200179329
0.0001199851577
0.0001199366993
0.0001198787094
0.0001198062611
0.0001197180506
0.0001196257406
0.0001195212566
0.0001194023606
0.0001192756656
0.0001191351042
0.0001189821521
0.0001188132997
0.0001186382016
0.0001184462372
0.0001182374402
0.0001180174579
0.0001177911609
0.0001175496625
0.0001172987791
0.0001170390661
0.0001167665969
0.0001164902748
0.0001162103893
0.000115915698
0.0001156200802
0.0001153246744
0.0001150201099
0.0001147164544
0.0001144084757
0.0001141003164
0.0001137914902
0.0001134900667
0.0001131839855
0.0001128771501
0.0001125727443
0.0001122767787
0.0001119803723
0.0001116892344
0.0001114015635
0.0001111162084
0.0001108394943
0.0001105696293
0.0001102994311
0.0001100337708
0.0001097704171
0.0001095152432
0.0001092679787
0.000109023648
0.0001200023099
0.0001199868664
0.0001199537648
0.0001199070997
0.0001198492371
0.00011977319
0.0001196873289
0.0001195943171
0.0001194858895
0.0001193694971
0.0001192387456
0.0001190974973
0.0001189403948
0.0001187709649
0.0001185953566
0.0001183994214
0.000118186731
0.0001179666275
0.0001177367579
0.0001174955461
0.0001172414971
0.0001169821667
0.0001167073612
0.0001164287296
0.0001161475899
0.000115856486
0.0001155601058
0.0001152636574
0.0001149613928
0.0001146573064
0.0001143520516
0.0001140440669
0.0001137382968
0.0001134390765
0.0001131348985
0.0001128293715
0.0001125285176
0.0001122360807
0.0001119416429
0.0001116541671
0.0001113688343
0.0001110872141
0.0001108142083
0.0001105471064
0.0001102806
0.0001100179732
0.0001097582866
0.0001095066901
0.0001092629138
0.0001090219187
0.0001199712635
0.0001199556834
0.0001199229503
0.0001198781398
0.0001198182626
0.0001197402309
0.0001196567861
0.000119563155
0.0001194509035
0.0001193359729
0.0001192024244
0.0001190605428
0.0001188994692
0.0001187295066
0.0001185499991
0.0001183535985
0.0001181372391
0.0001179170842
0.000117683713
0.0001174427681
0.0001171856455
0.0001169234936
0.0001166495657
0.0001163686193
0.0001160855128
0.0001157960226
0.0001155014057
0.0001152038573
0.0001149038164
0.0001145992467
0.0001142965858
0.0001139887651
0.0001136859015
0.00011338743
0.0001130864528
0.0001127822152
0.0001124847937
0.0001121958144
0.0001119033037
0.0001116194251
0.0001113363905
0.0001110584713
0.0001107891201
0.0001105247519
0.0001102619044
0.0001100022858
0.0001097462388
0.0001094981942
0.0001092578823
0.0001090202008
0.000119940099
0.0001199248705
0.0001198943303
0.0001198492034
0.0001197860334
0.0001197097462
0.0001196265628
0.0001195312203
0.0001194188138
0.0001193010482
0.0001191669514
0.0001190231178
0.0001188597361
0.0001186893573
0.0001185061248
0.0001183060665
0.0001180895267
0.0001178693598
0.0001176326814
0.0001173897086
0.0001171318852
0.0001168669965
0.0001165939078
0.0001163134065
0.0001160259395
0.0001157375965
0.0001154446429
0.0001151459421
0.0001148479491
0.0001145428573
0.0001142423965
0.0001139348582
0.0001136347709
0.0001133369323
0.0001130385718
0.0001127359732
0.0001124418597
0.000112154581
0.0001118655603
0.0001115851849
0.0001113043826
0.0001110301029
0.0001107643252
0.0001105026424
0.0001102434021
0.0001099867525
0.000109734304
0.0001094897751
0.0001092528948
0.0001090184972
0.0001199107295
0.0001198964059
0.0001198657069
0.0001198188697
0.0001197540156
0.0001196803413
0.0001195968259
0.0001194981166
0.0001193883692
0.0001192671609
0.0001191327039
0.0001189853963
0.0001188216842
0.0001186510704
0.000118464402
0.0001182609728
0.0001180443996
0.0001178232169
0.000117584506
0.0001173385997
0.0001170812269
0.0001168137116
0.0001165413644
0.0001162617741
0.0001159723332
0.0001156822532
0.000115390768
0.0001150908961
0.0001147938083
0.0001144890105
0.0001141882725
0.0001138831509
0.0001135856473
0.0001132882812
0.000112990777
0.0001126912287
0.0001124002401
0.0001121145142
0.0001118288257
0.0001115518018
0.0001112731533
0.0001110023577
0.0001107400408
0.00011048096
0.0001102252352
0.0001099714833
0.0001097225596
0.0001094814817
0.0001092479769
0.0001090168157
0.0001198822635
0.0001198679029
0.0001198371236
0.0001197873387
0.000119723215
0.0001196514048
0.0001195677484
0.0001194659653
0.0001193590064
0.0001192347186
0.0001191001559
0.0001189497565
0.0001187859893
0.000118615328
0.0001184256833
0.000118219288
0.0001180028364
0.0001177788562
0.0001175403959
0.0001172918551
0.0001170349367
0.0001167650652
0.0001164916442
0.0001162145418
0.0001159232256
0.0001156314946
0.0001153405618
0.0001150401292
0.0001147421098
0.0001144390544
0.0001141378996
0.0001138348864
0.0001135396267
0.0001132425632
0.000112945704
0.0001126488951
0.0001123607702
0.0001120763695
0.0001117937505
0.0001115193821
0.0001112431735
0.0001109756533
0.0001107166133
0.0001104599983
0.0001102076385
0.0001099566683
0.0001097111477
0.0001094734127
0.0001092431862
0.000109015175
0.0001198537394
0.0001198393885
0.0001198059923
0.0001197560659
0.0001196948632
0.0001196231281
0.0001195390772
0.0001194356835
0.0001193294057
0.000119204212
0.0001190698442
0.0001189169182
0.0001187534181
0.0001185820124
0.0001183909895
0.0001181822663
0.0001179661534
0.0001177399379
0.0001175019062
0.0001172512306
0.000116994787
0.0001167229385
0.0001164476447
0.0001161699978
0.0001158806365
0.0001155873793
0.0001152950944
0.0001149957236
0.0001146967103
0.0001143950337
0.0001140932664
0.0001137919406
0.0001134984514
0.0001132014848
0.000112904975
0.0001126104653
0.0001123247584
0.0001120414052
0.0001117614558
0.0001114886417
0.0001112153359
0.0001109507597
0.0001106946922
0.0001104403133
0.0001101910555
0.0001099426587
0.0001097003194
0.0001094657304
0.0001092386099
0.0001090136022
0.0001198241685
0.0001198084772
0.0001197748432
0.0001197257807
0.0001196670717
0.0001195957058
0.0001195093717
0.0001194091553
0.000119300777
0.0001191761787
0.0001190424322
0.0001188877269
0.0001187249223
0.0001185519035
0.0001183616071
0.0001181513875
0.0001179360176
0.0001177083397
0.0001174710019
0.0001172189242
0.000116961584
0.0001166898461
0.0001164131939
0.0001161342212
0.0001158461154
0.0001155527778
0.0001152592965
0.0001149606141
0.0001146605592
0.0001143597345
0.0001140571944
0.0001137569446
0.0001134646092
0.000113167425
0.0001128709054
0.0001125780574
0.0001122941045
0.0001120113899
0.0001117335219
0.000111461824
0.0001111908667
0.0001109287219
0.0001106751562
0.0001104226623
0.0001101761033
0.0001099299645
0.0001096904654
0.0001094587128
0.0001092344142
0.0001090121529
0.0001197927549
0.0001197772177
0.0001197439119
0.0001196981337
0.0001196399896
0.0001195693351
0.0001194812523
0.0001193844984
0.0001192747148
0.0001191512438
0.0001190166928
0.000118863109
0.0001187016005
0.0001185280174
0.0001183378416
0.0001181284474
0.000117914357
0.0001176863604
0.000117450131
0.0001171976976
0.0001169399756
0.0001166690339
0.0001163918364
0.0001161122544
0.0001158246158
0.0001155316214
0.0001152373054
0.0001149388627
0.0001146378964
0.0001143372883
0.0001140338996
0.000113733933
0.000113441148
0.0001131441902
0.0001128472293
0.0001125551211
0.0001122720199
0.0001119893902
0.0001117127132
0.0001114415221
0.000111172061
0.0001109115385
0.000110659711
0.0001104085192
0.0001101639648
0.0001099195252
0.0001096822576
0.0001094527931
0.0001092308316
0.0001090108994
0.0001197613285
0.0001197460383
0.0001197149829
0.0001196710037
0.000119613793
0.0001195442062
0.0001194550376
0.0001193620904
0.0001192517434
0.0001191300665
0.0001189956021
0.000118844067
0.0001186846282
0.0001185118062
0.0001183226678
0.0001181154377
0.0001179033805
0.0001176765824
0.0001174421233
0.0001171908048
0.0001169341329
0.0001166644
0.0001163879121
0.000116108858
0.00011582169
0.0001155289101
0.0001152344417
0.0001149357908
0.0001146342746
0.0001143331475
0.0001140289217
0.0001137282654
0.000113434492
0.0001131368326
0.0001128388786
0.0001125462109
0.0001122626669
0.000111979326
0.0001117025147
0.0001114309401
0.0001111617051
0.0001109016013
0.0001106503831
0.0001103996455
0.0001101560919
0.0001099125587
0.0001096766453
0.0001094486591
0.0001092282787
0.0001090099828
0.0001197165332
0.0001196874535
0.000119644476
0.0001195885877
0.0001195182171
0.0001194319852
0.0001193417029
0.0001192323642
0.0001191132436
0.0001189801393
0.000118831571
0.0001186751322
0.0001185047237
0.0001183184181
0.0001181144296
0.0001179054318
0.0001176818162
0.0001174501141
0.0001172019329
0.000116948339
0.0001166805748
0.0001164067052
0.0001161299761
0.0001158436141
0.0001155512197
0.0001152578942
0.0001149587937
0.0001146576278
0.0001143553324
0.0001140506818
0.0001137483199
0.0001134535033
0.0001131537781
0.0001128543646
0.0001125594718
0.0001122737679
0.0001119887503
0.0001117099204
0.0001114367374
0.0001111657968
0.0001109042136
0.0001106517556
0.000110400041
0.0001101557178
0.0001099116436
0.0001096754748
0.0001094475016
0.0001092273959
0.0001090096035
)
;

boundaryField
{
    front_top
    {
        type            wedge;
    }
    front_middle
    {
        type            wedge;
    }
    front_bottom
    {
        type            wedge;
    }
    back_top
    {
        type            wedge;
    }
    back_middle
    {
        type            wedge;
    }
    back_bottom
    {
        type            wedge;
    }
    axis_top
    {
        type            symmetryPlane;
    }
    axis_middle
    {
        type            symmetryPlane;
    }
    axis_bottom
    {
        type            symmetryPlane;
    }
    wall_top
    {
        type            calculated;
        value           nonuniform 0();
    }
    wall_middle
    {
        type            calculated;
        value           uniform 0.0001089022317;
    }
    wall_bottom
    {
        type            calculated;
        value           nonuniform 0();
    }
    inlet
    {
        type            calculated;
        value           nonuniform 0();
    }
    outlet
    {
        type            calculated;
        value           nonuniform 0();
    }
    procBoundary3to2
    {
        type            processor;
        value           nonuniform List<scalar> 
51
(
0.0001197300962
0.0001197300962
0.0001196884386
0.0001196602622
0.0001196186343
0.0001195644668
0.0001194939811
0.0001194123632
0.0001193230612
0.0001192169286
0.000119101225
0.0001189709273
0.0001188263835
0.0001186740325
0.0001185079608
0.0001183266074
0.0001181271957
0.0001179225636
0.0001177045904
0.0001174769781
0.0001172345415
0.0001169867046
0.0001167221442
0.0001164535176
0.0001161817021
0.0001158954788
0.0001156055654
0.0001153154765
0.0001150160721
0.0001147168684
0.0001144129775
0.0001141089456
0.0001138038397
0.0001135061559
0.0001132049116
0.0001129036682
0.000112604413
0.0001123142626
0.0001120262966
0.0001117427947
0.0001114662587
0.0001111908163
0.0001109249982
0.0001106686277
0.0001104138971
0.000110166307
0.0001099196931
0.0001096810244
0.0001094509744
0.0001092291835
0.0001090100952
)
;
    }
    procBoundary3to4
    {
        type            processor;
        value           nonuniform List<scalar> 
51
(
0.0001204174902
0.0001204059511
0.0001203811585
0.000120344358
0.0001202961934
0.0001202371475
0.0001201613484
0.0001200788424
0.0001199855232
0.0001198823052
0.0001197695144
0.0001196510903
0.0001195267696
0.0001193891246
0.0001192430303
0.0001190861895
0.0001189126205
0.0001187290723
0.000118483005
0.000118483005
0.0001182671381
0.0001180373387
0.0001178019413
0.0001175497727
0.0001172872429
0.000117015544
0.0001167284234
0.0001164353941
0.000116137353
0.000115828245
0.0001155131354
0.000115193763
0.000114870484
0.0001145390692
0.0001142088235
0.0001138709538
0.0001135400275
0.0001132049871
0.0001128661678
0.0001125287098
0.0001121996227
0.0001118655259
0.000111540059
0.0001112108417
0.0001108903486
0.0001105775232
0.000110263018
0.0001099506557
0.0001096427173
0.0001093437336
0.0001090496271
)
;
    }
}


// ************************************************************************* //
