/*--------------------------------*- C++ -*----------------------------------*\
  =========                 |
  \\      /  F ield         | OpenFOAM: The Open Source CFD Toolbox
   \\    /   O peration     | Website:  https://openfoam.org
    \\  /    A nd           | Version:  7
     \\/     M anipulation  |
\*---------------------------------------------------------------------------*/
FoamFile
{
    version     2.0;
    format      ascii;
    class       volTensorField;
    location    "0.003";
    object      grad(U);
}
// * * * * * * * * * * * * * * * * * * * * * * * * * * * * * * * * * * * * * //

dimensions      [0 0 -1 0 0 0 0];

internalField   nonuniform List<tensor> 
1167
(
(0.0008965159528 -1.502102054e-15 -8.434523183e-05 -1.964033208e-15 0.001470018392 4.206368637e-13 -8.930777044e-06 -1.213155482e-14 0.01079464286)
(0.00118588441 -2.245337821e-15 -0.0001951783057 6.66793242e-16 0.001283736421 0 -2.307841576e-05 -4.40012773e-15 0.01079648417)
(0.001155300122 -2.573620883e-15 -0.0003156044139 1.325502182e-15 0.001223213064 -8.864092957e-14 -3.59500768e-05 2.505043396e-15 0.01080033192)
(0.001159326182 3.234043221e-15 -0.0004357770776 1.718304915e-15 0.001207179516 0 -4.8604626e-05 9.654567384e-18 0.01080612526)
(0.001133782988 6.80584742e-15 -0.0005552601456 -4.162053941e-16 0.001194562318 0 -6.101776772e-05 1.293544088e-16 0.01081372143)
(0.001099451264 5.331336705e-15 -0.0006745465754 -1.312336745e-15 0.001180969153 0 -7.341317863e-05 1.233467131e-15 0.01082305919)
(0.001060053919 1.13880316e-15 -0.000793199209 -1.867266123e-15 0.001166257651 -3.809873993e-14 -8.520942739e-05 3.205741651e-15 0.01083423619)
(0.001013989962 1.0403467e-15 -0.0009107451639 -1.324085712e-15 0.001150186605 0 -9.588120744e-05 1.177018442e-15 0.01084651066)
(0.0009623601957 5.191129066e-16 -0.00102739623 -1.652384769e-15 0.001132460952 6.159879877e-14 -0.0001056352025 -2.585877758e-15 0.01085999825)
(0.0009070344289 -2.598151137e-15 -0.001143591758 -1.20014176e-15 0.001113280358 0 -0.0001148323123 -2.263979988e-15 0.01087467037)
(0.0008472439815 -1.821928147e-15 -0.001258872365 -9.040426231e-16 0.001092796577 0 -0.0001230141361 -1.441282513e-15 0.01089030209)
(0.0007837457126 -1.043575685e-15 -0.001373248077 -7.127223753e-16 0.001070978784 -2.473992245e-14 -0.0001303111133 -8.604399271e-16 0.01090680483)
(0.0007177777679 -5.607836217e-16 -0.001487083628 -6.169827673e-16 0.001048035562 0 -0.0001371618814 -3.20162103e-16 0.0109243176)
(0.0006484843253 -3.29416873e-16 -0.001599498518 -5.465162457e-16 0.001024082913 0 -0.0001428958513 9.84186684e-17 0.01094234921)
(0.000576491793 -1.21696326e-15 -0.001710458289 -4.996590055e-16 0.0009991361215 0 -0.0001477748989 3.5449891e-16 0.0109609406)
(0.0005021776918 -1.160513788e-15 -0.001819683634 -3.503681326e-16 0.0009733435961 0 -0.0001517841034 4.37579027e-16 0.01097998596)
(0.0004258321466 -2.993574e-16 -0.00192685496 -3.238357746e-16 0.0009467396906 0 -0.000154976425 5.766095847e-16 0.01099934041)
(0.0003481139804 -5.665222451e-16 -0.00203173716 -2.880942587e-16 0.0009194532508 0 -0.0001574957403 8.310667347e-16 0.01101913176)
(0.0002689640004 1.003479734e-15 -0.002133760305 -2.391313254e-16 0.0008915555777 -9.328399133e-15 -0.0001592384866 1.750835972e-15 0.01103897515)
(0.0001887617209 2.556003821e-15 -0.002232397228 -3.442350523e-16 0.0008631275575 0 -0.0001601956003 1.922640606e-15 0.01105904277)
(0.0001076554825 2.024343792e-15 -0.002327167316 -4.277570515e-16 0.0008342446323 -2.668161751e-14 -0.0001604316817 2.680687941e-15 0.01107896468)
(2.611453729e-05 9.332856027e-16 -0.002417442204 -4.76660154e-16 0.0008049713866 0 -0.0001599341482 2.122881508e-15 0.01109890876)
(-5.566548167e-05 3.352564978e-16 -0.002502717846 -4.68130483e-16 0.0007753926172 -8.560100261e-15 -0.0001588116574 1.964250928e-15 0.01111856287)
(-0.0001373119866 4.479961342e-16 -0.002582255346 -4.647632292e-16 0.0007455630852 0 -0.0001570297328 1.274934135e-15 0.01113802529)
(-0.0002190743714 5.185129267e-16 -0.002655401074 -4.662623256e-16 0.0007155671461 0 -0.0001546138876 8.025438908e-16 0.0111570655)
(-0.0003009122421 6.252162937e-16 -0.002721345123 -4.683917654e-16 0.0006854245276 0 -0.0001515451169 7.345275061e-16 0.01117562288)
(-0.0003823120732 7.412755556e-16 -0.002779507291 -4.75063382e-16 0.0006552022072 0 -0.0001479738337 1.0417644e-15 0.01119369528)
(-0.0004628998472 8.55788349e-16 -0.002829344079 -4.841619613e-16 0.0006249389636 0 -0.0001441711755 1.025680713e-15 0.01121111686)
(-0.000542753383 3.967567011e-16 -0.002869782086 -4.946490285e-16 0.0005947046031 0 -0.0001398392985 8.795091303e-16 0.01122798674)
(-0.0006223206745 -5.94195718e-16 -0.002900186625 -4.794839228e-16 0.0005645202196 0 -0.0001351990764 9.160744264e-16 0.01124400293)
(-0.0007008320754 -7.07230964e-16 -0.00291943083 -4.410630946e-16 0.0005344182924 -7.854758416e-15 -0.0001299681596 1.008233976e-15 0.01125942001)
(-0.0007784979526 -2.786578258e-16 -0.002927019397 -4.245050449e-16 0.0005044492975 0 -0.0001244803438 4.827878144e-16 0.01127396563)
(-0.0008550127 -1.780916848e-16 -0.002921817578 -4.094544572e-16 0.0004746259939 0 -0.0001184909014 2.470529787e-16 0.01128778053)
(-0.000930220944 -2.449220697e-16 -0.002903227757 -3.958303599e-16 0.0004450015635 0 -0.0001122181834 5.835438893e-17 0.01130071136)
(-0.001004002326 8.877046076e-17 -0.002870550032 -3.826195253e-16 0.0004155885136 0 -0.0001058397856 -9.310942312e-17 0.01131277505)
(-0.001076484556 1.395510087e-15 -0.002822865843 -3.848612973e-16 0.0003864341116 0 -9.922855722e-05 -1.443250342e-16 0.01132401454)
(0.0009157261493 -7.194552119e-15 -8.661472768e-05 -3.197910862e-14 0.001501570464 0 -9.825473472e-06 -2.376487665e-15 0.01067441606)
(0.001211235666 -1.037545167e-14 -0.0002005420562 -4.361558518e-15 0.001311261605 0 -2.556298819e-05 -7.147720058e-15 0.01067666719)
(0.001179830574 -9.8336518e-16 -0.0003248728338 1.499990194e-15 0.001249395659 0 -4.046869048e-05 -5.705160661e-15 0.01068131361)
(0.001184493634 3.91381135e-15 -0.0004496023425 -7.141653859e-16 0.001232936451 6.610669877e-14 -5.576313052e-05 -7.102535658e-15 0.01068834777)
(0.001159887872 9.62818361e-16 -0.0005733349456 -9.486262747e-16 0.001220258647 0 -7.05034333e-05 -2.77429121e-15 0.01069775839)
(0.001124591454 -5.638733033e-16 -0.0006961120309 -8.224657767e-16 0.001206814812 0 -8.447210305e-05 -2.698821548e-16 0.01070889106)
(0.001082170827 3.523795534e-15 -0.0008173759009 -5.148237536e-16 0.001191803355 -3.869207513e-14 -9.707934914e-05 1.646825315e-15 0.01072151804)
(0.001034708235 6.743668162e-15 -0.0009377863011 -1.443612943e-15 0.001175101869 3.447835926e-14 -0.0001088928861 -1.217920643e-15 0.01073579381)
(0.0009829767197 1.401016008e-15 -0.001057907187 -1.903394792e-15 0.001156928737 0 -0.0001203183589 -6.314879502e-16 0.01075167295)
(0.0009257946054 -2.894699291e-15 -0.001176839649 -1.468218746e-15 0.001137348097 0 -0.0001304534626 -5.628142999e-16 0.0107687095)
(0.0008642050565 -2.475764365e-15 -0.001294718805 -1.065152024e-15 0.001116267369 0 -0.000139519267 -5.638186975e-16 0.01078686276)
(0.0007998474322 -1.713518332e-15 -0.001412084322 -8.403696576e-16 0.001093914458 0 -0.000148070319 -4.794102511e-16 0.01080629418)
(0.0007316884356 -1.420309582e-15 -0.001528046263 -6.643029415e-16 0.001070438652 0 -0.0001553682783 -1.267873684e-16 0.01082654234)
(0.0006604661266 -1.315779495e-15 -0.001642644176 -5.384594961e-16 0.001045824319 2.26208215e-14 -0.0001617127878 1.896313946e-16 0.01084759327)
(0.0005869197131 -1.130209333e-15 -0.001755826897 -4.149383285e-16 0.00102026254 -1.082539741e-14 -0.0001672509033 6.308175677e-16 0.0108694673)
(0.0005109010242 -7.622654168e-16 -0.00186694758 -3.456582138e-16 0.0009938039745 0 -0.0001716760627 2.696312535e-16 0.01089173437)
(0.0004330602955 -7.439134481e-16 -0.001976006729 -2.920642479e-16 0.0009665577985 0 -0.000175338398 5.729144365e-17 0.01091462231)
(0.0003535325563 -1.147730646e-15 -0.002082307598 -2.402493803e-16 0.0009386116494 0 -0.000177972243 -6.277895299e-17 0.01093763004)
(0.0002725243127 -4.935441033e-16 -0.00218553563 -1.665294618e-16 0.0009100464748 1.89473521e-14 -0.0001797367999 -5.907121508e-16 0.01096094921)
(0.0001903622434 -2.790468874e-16 -0.002285152114 -1.759257478e-16 0.0008809357204 -9.238357217e-15 -0.0001806218122 4.121263625e-16 0.01098413963)
(0.0001073968796 7.02644289e-16 -0.002380655568 -1.301051157e-16 0.0008513585022 0 -0.0001806827238 1.037653647e-15 0.01100743793)
(2.392881964e-05 1.940461921e-15 -0.002471554295 -2.096254342e-16 0.0008213889059 -8.851812148e-15 -0.0001800379959 1.564785854e-15 0.01103041826)
(-5.967619286e-05 1.98598769e-15 -0.002557171389 -2.589346344e-16 0.0007911013772 0 -0.000178650578 1.246207268e-15 0.01105333846)
(-0.0001433941806 2.209275321e-15 -0.002636988138 -3.320716927e-16 0.0007605704523 0 -0.0001766801347 1.046565757e-15 0.01107579615)
(-0.0002272195256 1.197304074e-15 -0.002709990882 -3.870541684e-16 0.0007298482246 0 -0.0001738453648 9.404582814e-16 0.01109799482)
(-0.0003109784928 3.445636841e-16 -0.002775770149 -3.903067237e-16 0.000698988484 0 -0.0001704759236 9.12410046e-16 0.01111957123)
(-0.0003937852556 3.845461918e-16 -0.002833444141 -3.859694699e-16 0.0006680377882 0 -0.0001664826213 1.335786801e-15 0.01114075013)
(-0.0004757763687 6.162411961e-16 -0.002882387347 -3.881858798e-16 0.0006370840734 0 -0.0001619899565 1.462977565e-15 0.01116123039)
(-0.0005571070134 -9.449373027e-17 -0.002921655704 -3.967499141e-16 0.000606149318 -8.085013175e-15 -0.000156915022 1.792580705e-15 0.01118102856)
(-0.000637773225 -8.05770471e-16 -0.002950551439 -3.615392372e-16 0.0005752938692 -1.605273405e-14 -0.0001513496117 1.564801864e-15 0.01120006422)
(-0.0007176847674 4.240139321e-16 -0.002968423799 -3.398440931e-16 0.000544530602 0 -0.0001455189938 1.028474073e-15 0.01121819996)
(-0.0007967567267 1.421307589e-15 -0.002974205369 -3.662065054e-16 0.0005139113788 0 -0.0001391648429 6.169239506e-16 0.01123555822)
(-0.000875166063 1.302444002e-15 -0.002967351474 -3.878517865e-16 0.000483446236 0 -0.0001326187955 1.911627718e-16 0.01125183788)
(-0.0009517278097 1.228879701e-15 -0.002946813415 -4.077651318e-16 0.0004531689332 0 -0.0001256676329 -3.461821244e-16 0.01126733566)
(-0.00102674876 9.403197475e-16 -0.002912095729 -4.240780409e-16 0.0004231339367 7.859835545e-15 -0.0001186210632 -7.173409612e-16 0.01128177594)
(-0.001100427376 5.795448167e-16 -0.002862045449 -4.291740955e-16 0.0003933522146 7.84775489e-15 -0.0001111818263 -6.696929893e-16 0.01129531201)
(-0.001172901159 5.03768856e-16 -0.0027960428 -4.288425586e-16 0.0003638599017 0 -0.0001035183226 -5.498117021e-17 0.01130778392)
(-0.001244046606 7.725194146e-16 -0.002713343319 -4.316925683e-16 0.0003346578649 -7.841298269e-15 -9.572159308e-05 5.974316277e-16 0.01131924529)
(-0.001313695866 1.303329673e-15 -0.002613207699 -4.405859615e-16 0.0003057800355 -7.846261297e-15 -8.779491424e-05 6.226145882e-16 0.0113297193)
(-0.001381867528 8.207942339e-16 -0.002495026811 -4.61768929e-16 0.0002772298912 0 -7.9912505e-05 4.587634569e-16 0.01133911668)
(-0.001448519507 -2.790249082e-16 -0.002357898481 -4.554372e-16 0.000249034425 0 -7.187514073e-05 3.895279403e-16 0.01134760141)
(-0.001514105386 -4.658987451e-16 -0.002201320348 -4.377824749e-16 0.000221195361 0 -6.390287157e-05 3.983592322e-16 0.01135497725)
(-0.001578193824 -2.418626356e-16 -0.002024463686 -4.255834364e-16 0.0001937206621 0 -5.584070093e-05 3.79948609e-16 0.01136148936)
(-0.001640766443 -9.428027415e-17 -0.001826902249 -4.169172243e-16 0.0001666234538 0 -4.790266795e-05 3.268878314e-16 0.0113669631)
(-0.001701655243 -1.708694222e-16 -0.001607954648 -4.113088273e-16 0.0001399094192 7.975010446e-15 -4.002572734e-05 2.071548258e-16 0.01137162335)
(-0.001761415146 -1.081736371e-16 -0.001367174777 -4.004629215e-16 0.0001135933109 0 -3.232267065e-05 3.437689735e-16 0.01137533292)
(-0.001820230506 3.297573085e-16 -0.001103932996 -3.963213999e-16 8.766318942e-05 -8.051245897e-15 -2.471961165e-05 3.455384368e-16 0.01137826086)
(-0.001874207374 2.794642962e-16 -0.0008177965144 -3.9872195e-16 6.212684767e-05 8.094994336e-15 -1.729826986e-05 3.722064438e-16 0.01138034794)
(-0.001911778287 9.775063992e-17 -0.000508170149 -3.934141276e-16 3.707181962e-05 0 -1.00281006e-05 3.282801459e-16 0.01138172635)
(-0.002006710267 1.015695355e-16 -0.0001732746448 -3.911539262e-16 1.2783588e-05 8.193260473e-15 -3.108610055e-06 1.701142031e-16 0.01138237822)
(0.0009372318446 1.066287749e-14 -9.015620241e-05 -1.846946996e-14 0.001536861866 0 -1.118383483e-05 3.666350981e-15 0.01055155235)
(0.001240224436 1.438967201e-15 -0.0002082644184 -1.560499468e-14 0.001342065514 0 -2.894088911e-05 -1.784281639e-16 0.01055433236)
(0.001208993866 -1.950190742e-15 -0.0003368861117 -6.497954773e-15 0.001279096828 0 -4.545234523e-05 -4.239362263e-15 0.01055995565)
(0.001213433268 -3.024072242e-15 -0.0004658637271 -5.337214795e-15 0.001262675644 0 -6.226866035e-05 -2.94350612e-15 0.01056796282)
(0.00118645254 -5.476376503e-15 -0.0005932458703 -2.575619969e-15 0.001249635905 0 -7.803460838e-05 -1.883862412e-15 0.01057821487)
(0.001149058308 -2.897275176e-15 -0.0007191880683 -1.480338082e-15 0.001235457618 0 -9.267134145e-05 -1.32576964e-15 0.010590707)
(0.001106540044 3.486922707e-15 -0.0008446449847 -9.473503008e-16 0.00121973212 0 -0.0001069596001 -1.476005751e-15 0.01060531895)
(0.001059090013 5.182696285e-15 -0.0009694335442 -1.908488419e-15 0.001202643672 0 -0.0001205777693 3.16872529e-16 0.01062208302)
(0.001004926016 -7.073182238e-16 -0.001092596213 -1.917526739e-15 0.001184068889 -3.176618613e-14 -0.0001325669712 1.281861217e-15 0.0106402202)
(0.0009456731586 -2.732165811e-15 -0.001214586471 -1.423307695e-15 0.001163802873 0 -0.000143412263 1.293369427e-15 0.01065982966)
(0.0008833970917 -2.008418569e-15 -0.001336118435 -1.104967868e-15 0.001142127342 0 -0.0001537617034 1.463756675e-15 0.01068109244)
(0.0008168381608 -1.980838137e-15 -0.001456292246 -8.721461149e-16 0.001119212909 0 -0.000162814001 1.097740814e-15 0.01070350401)
(0.0007468129808 -1.986745857e-15 -0.001575134022 -6.540261095e-16 0.001095019267 0 -0.0001708186623 1.156376158e-15 0.01072694191)
(0.0006742524366 -1.9857757e-15 -0.001692731439 -4.96367244e-16 0.001069769576 0 -0.0001780082769 4.097246166e-16 0.01075151742)
(0.0005984853674 -1.33971722e-15 -0.001808109415 -3.355098944e-16 0.001043523378 0 -0.0001837204028 -1.421572763e-16 0.01077658282)
(0.0005203840901 1.194202085e-16 -0.001921472489 -2.839305193e-16 0.001016346846 0 -0.0001884922299 -5.635109063e-16 0.01080239425)
(0.0004402578683 4.459511948e-16 -0.002032234053 -3.06582927e-16 0.0009883664735 0 -0.0001921069577 -8.348126639e-16 0.01082853092)
(0.0003583851286 9.536274797e-16 -0.00214012312 -2.995532295e-16 0.0009596453071 0 -0.0001947383282 -1.180284635e-15 0.0108550531)
(0.0002752607535 -2.3158519e-16 -0.002244599938 -3.664330177e-16 0.0009302925731 0 -0.0001963271682 -1.627516373e-15 0.0108817429)
(0.0001910426108 -1.391921233e-15 -0.002345290532 -2.588359913e-16 0.0009003854525 0 -0.000197020792 -1.361938585e-15 0.01090854695)
(0.0001061997949 -8.218907001e-16 -0.002441645811 -2.217118852e-16 0.0008700093433 0 -0.0001968557048 -1.488182851e-15 0.01093530627)
(2.097520237e-05 4.730335447e-16 -0.002533142499 -1.755794347e-16 0.0008392492605 0 -0.0001959004651 -1.073107298e-15 0.01096195751)
(-6.430087608e-05 1.675386505e-15 -0.002619235757 -2.371015633e-16 0.0008081788966 0 -0.0001942809878 -5.323541934e-16 0.01098833417)
(-0.0001499164762 1.264206523e-15 -0.002699096912 -2.799755339e-16 0.0007768785839 0 -0.0001918336124 6.599239779e-17 0.01101441558)
(-0.0002356321013 8.797892964e-16 -0.002772077186 -3.031749542e-16 0.0007453791636 -1.712833948e-14 -0.0001886764108 5.712937964e-16 0.01103989457)
(-0.0003209391057 -4.691429388e-16 -0.002837466587 -3.179339777e-16 0.0007137553507 0 -0.0001848204429 5.058546104e-16 0.01106495088)
(-0.0004058157048 -7.616631224e-16 -0.002894769066 -2.613202789e-16 0.0006820547605 0 -0.0001805611731 3.836783472e-16 0.01108918685)
(-0.0004898982011 -4.374352948e-16 -0.002942887367 -2.547341003e-16 0.0006503334051 0 -0.0001755884041 6.329754218e-16 0.01111287221)
(-0.0005733357538 1.275400744e-16 -0.002981310377 -2.205082729e-16 0.00061864373 -8.210926235e-15 -0.0001701955109 9.699564597e-16 0.01113562751)
(-0.0006556779532 1.639112491e-15 -0.003008943376 -2.477649317e-16 0.0005870184036 0 -0.0001641347542 9.322763531e-16 0.01115769957)
(-0.000737185502 2.110367768e-15 -0.003025244335 -2.927233917e-16 0.0005555187745 0 -0.0001576681413 6.18029471e-16 0.01117876445)
(-0.0008176959123 2.274262929e-15 -0.003029173095 -3.364897037e-16 0.0005241538848 0 -0.0001506454884 7.576062119e-16 0.01119890967)
(-0.0008968211267 2.810885307e-15 -0.003020157283 -3.821340778e-16 0.0004929799468 0 -0.0001432926053 9.360768228e-16 0.01121804313)
(-0.0009743854655 2.614497171e-15 -0.002997605721 -4.443928317e-16 0.0004620163909 0 -0.000135878516 1.177383923e-15 0.01123609459)
(-0.001050586782 1.112541846e-15 -0.002960414065 -4.774534262e-16 0.0004313146686 0 -0.0001280797323 1.445934182e-15 0.01125315991)
(-0.001125957552 -7.998829255e-16 -0.00290797014 -4.718550895e-16 0.0004008785134 0 -0.0001201342244 1.516171109e-15 0.01126896876)
(-0.001199742165 -1.904629609e-15 -0.002839267993 -4.287161782e-16 0.0003707293108 0 -0.0001118336807 1.59496147e-15 0.01128378355)
(-0.001272033368 -7.339244311e-16 -0.002753850542 -3.820339856e-16 0.0003408960267 0 -0.0001034973766 1.56051705e-15 0.01129734432)
(-0.001342557552 8.079113503e-16 -0.002650746 -3.851939239e-16 0.0003113904901 0 -9.493286428e-05 1.661999531e-15 0.01130986693)
(-0.001411451453 6.92808795e-16 -0.002529487997 -3.968875242e-16 0.00028224485 0 -8.638745781e-05 1.808992004e-15 0.01132116432)
(-0.001478826849 9.755063078e-17 -0.002389175258 -3.947117943e-16 0.0002534615298 -7.993767662e-15 -7.770147564e-05 1.735922305e-15 0.01133135942)
(-0.001544723763 7.90551541e-18 -0.002229239526 -3.868854446e-16 0.0002250631333 0 -6.896896042e-05 1.415408053e-15 0.01134039574)
(-0.001609154016 2.76962989e-16 -0.002049128302 -3.836427366e-16 0.0001970481598 0 -6.03215283e-05 1.183160146e-15 0.01134829979)
(-0.001671829214 6.049706069e-16 -0.00184819655 -3.840231518e-16 0.0001694347401 0 -5.171449414e-05 1.024399521e-15 0.01135513444)
(-0.001732882659 9.324182177e-17 -0.00162599014 -3.90278722e-16 0.000142227925 0 -4.329925966e-05 9.262407353e-16 0.01136085672)
(-0.001792779351 -2.543964935e-16 -0.001381837655 -3.759115828e-16 0.0001154382669 0 -3.494335552e-05 8.366266575e-16 0.01136559179)
(-0.001851632891 -1.087755509e-16 -0.001115341562 -3.720507788e-16 8.90559383e-05 0 -2.678218404e-05 8.280663122e-16 0.01136925399)
(-0.001905586092 3.228870655e-17 -0.0008259654977 -3.63033384e-16 6.308679561e-05 -8.221062839e-15 -1.87740536e-05 9.804667692e-16 0.01137202578)
(-0.001942593223 5.39640416e-16 -0.000513274287 -3.63138811e-16 3.761931635e-05 0 -1.101906281e-05 8.692556782e-16 0.01137381581)
(-0.002035368736 3.524120532e-16 -0.0001751145313 -3.674085496e-16 1.294899417e-05 0 -3.528959983e-06 8.064559122e-16 0.01137484619)
(0.0009609653644 2.778444238e-15 -9.369289542e-05 -7.395274726e-15 0.001576487134 0 -1.193319874e-05 1.901452535e-15 0.01042528217)
(0.001270985183 3.645082935e-15 -0.0002162353747 -4.928095661e-15 0.001376287493 -1.505676817e-13 -3.084088136e-05 5.120722642e-15 0.01042814178)
(0.001238186469 2.549179286e-15 -0.0003492532048 -4.35220967e-15 0.001311210346 0 -4.809864427e-05 1.246072461e-15 0.0104342913)
(0.001242243398 -3.028049387e-16 -0.0004824445707 -3.647541719e-15 0.001293978405 0 -6.55304943e-05 -1.284270944e-15 0.01044346261)
(0.001214756284 -1.967911784e-15 -0.0006147961794 -2.416057447e-15 0.00128030148 0 -8.266550864e-05 -3.69821907e-16 0.01045541758)
(0.001177855457 -1.258888154e-15 -0.000746289235 -1.668569435e-15 0.001265686587 0 -9.924998329e-05 -1.495095515e-16 0.01047015357)
(0.001134493506 2.562248738e-16 -0.0008764726322 -1.320152755e-15 0.001249820003 0 -0.0001147156242 -8.045120992e-17 0.01048725837)
(0.001083556511 1.565397766e-15 -0.001004636911 -1.297928151e-15 0.001232302933 0 -0.0001283569475 2.911741269e-15 0.01050602625)
(0.001027394016 -4.358443927e-16 -0.001131546189 -1.366520042e-15 0.001212927609 0 -0.0001408874548 4.348469516e-15 0.01052676014)
(0.0009678392677 -3.263711195e-15 -0.001258058798 -9.745173595e-16 0.001192043796 0 -0.0001530203794 2.887072051e-15 0.01054962304)
(0.0009033670769 -2.035415373e-15 -0.001383084436 -5.594031426e-16 0.001169806207 0 -0.0001637362444 2.167578792e-15 0.01057397931)
(0.0008349371779 -1.12002094e-15 -0.001506576073 -4.871507081e-16 0.001146145191 -2.591388702e-14 -0.0001731776832 1.277240471e-15 0.01059963321)
(0.000763545009 5.926913177e-17 -0.001628858995 -3.201380443e-16 0.001121307474 0 -0.0001817640842 2.615155328e-16 0.010626695)
(0.0006879909576 1.416870207e-15 -0.001748794971 -4.24353232e-16 0.001095349374 0 -0.0001886366465 -3.551031116e-16 0.0106543804)
(0.0006097353064 9.626881438e-16 -0.001866683889 -4.552219435e-16 0.00106827928 0 -0.0001944065626 -9.117096141e-16 0.01068296755)
(0.0005294790662 7.680452896e-16 -0.001982244967 -4.849562024e-16 0.001040301961 1.073719246e-14 -0.000199072342 -1.570893903e-15 0.01071227277)
(0.0004471586865 6.63236615e-16 -0.002095085881 -4.885528621e-16 0.001011472756 0 -0.0002026595034 -1.382964999e-15 0.01074201021)
(0.0003632234779 7.033587825e-16 -0.002204891164 -5.029416244e-16 0.0009819216554 1.004901899e-14 -0.0002052785039 -1.432807481e-15 0.01077226369)
(0.0002778586076 -1.066234832e-16 -0.002311086386 -5.081138142e-16 0.0009517156749 0 -0.0002068551283 -6.86927545e-16 0.01080258466)
(0.0001916036712 -6.048517071e-16 -0.002413225854 -4.489675253e-16 0.0009209580584 0 -0.0002074846091 -1.336129351e-15 0.01083319584)
(0.0001046486912 -4.883500069e-17 -0.002510767464 -4.184879924e-16 0.0008897314531 0 -0.0002071989168 -1.330200068e-15 0.01086358926)
(1.752499324e-05 -4.441542565e-16 -0.002603160024 -4.145796703e-16 0.000858119062 9.129668438e-15 -0.0002060818519 -1.486933178e-15 0.01089401857)
(-6.998100061e-05 -8.818121407e-16 -0.002689817695 -3.568130542e-16 0.0008262133495 0 -0.0002041874038 -7.831047228e-16 0.01092400296)
(-0.0001578486871 -6.235937036e-16 -0.002769807297 -3.209547569e-16 0.0007940544509 0 -0.0002013247345 -5.39416711e-16 0.01095365928)
(-0.0002456448958 7.57796931e-17 -0.002842635842 -2.909090845e-16 0.000761711522 0 -0.0001977022227 -4.552921949e-16 0.01098267737)
(-0.0003326844263 8.332107093e-16 -0.002907572621 -3.040154277e-16 0.0007292365735 -8.587911669e-15 -0.0001933767509 -2.566925881e-18 0.0110111528)
(-0.0004189680208 3.822755966e-18 -0.002964015347 -3.255173894e-16 0.000696719264 8.492479153e-15 -0.000188475929 -4.418283749e-16 0.0110388944)
(-0.0005045732753 -1.020683241e-15 -0.003011291117 -2.874458051e-16 0.0006641925681 0 -0.0001831546679 -4.374530148e-16 0.01106579596)
(-0.0005895447542 -9.126824904e-16 -0.003048443528 -2.534620553e-16 0.0006317205217 1.667759965e-14 -0.0001772250972 -6.603291536e-16 0.0110918979)
(-0.0006739038402 2.52855112e-16 -0.003074841609 -2.263601152e-16 0.0005993217939 0 -0.0001709203409 -3.552471499e-16 0.01111690224)
(-0.0007573294485 9.360193715e-16 -0.003089405556 -2.500785616e-16 0.0005670452044 0 -0.0001639732263 2.334444325e-16 0.01114103591)
(-0.0008397879019 4.875094315e-16 -0.003091683619 -2.607939902e-16 0.0005349168427 0 -0.0001567781057 6.211553338e-16 0.01116392459)
(-0.0009201860799 5.171943763e-17 -0.003080657492 -2.627038798e-16 0.0005029755937 0 -0.0001491471108 1.184964041e-15 0.01118590349)
(-0.0009989990709 -3.237094232e-16 -0.003055839261 -2.509502124e-16 0.0004712864776 -8.125629012e-15 -0.000141377538 2.053140932e-15 0.01120661942)
(-0.001076581952 -1.115498097e-16 -0.003016066837 -2.365071274e-16 0.0004398561169 -8.106553925e-15 -0.0001331651851 2.336137313e-15 0.01122620755)
(-0.001152837874 8.074209582e-17 -0.002960737515 -2.361436133e-16 0.0004087228892 -8.09409406e-15 -0.0001246838892 2.2718033e-15 0.01124452405)
(-0.001227572448 3.278732138e-16 -0.002889197235 -2.290501952e-16 0.0003778925978 -8.087841374e-15 -0.0001161059612 1.928805249e-15 0.01126157994)
(-0.001300647492 5.19517356e-16 -0.002800595828 -2.408855082e-16 0.0003474032865 0 -0.0001073152775 1.615665314e-15 0.01127741477)
(-0.001372066215 4.519027875e-16 -0.002694376665 -2.41037973e-16 0.0003172613014 -8.092553584e-15 -9.853332508e-05 1.907035806e-15 0.01129188257)
(-0.001441770391 5.750941537e-16 -0.002569646873 -2.45797593e-16 0.0002874972031 -8.102913004e-15 -8.956518644e-05 1.995592146e-15 0.01130517646)
(-0.001510208918 1.123032543e-15 -0.002425917906 -2.512181075e-16 0.0002581153411 -8.118259315e-15 -8.063881383e-05 1.863068825e-15 0.01131703413)
(-0.0015768108 1.516315282e-15 -0.002262359884 -2.751864656e-16 0.000229126004 0 -7.159482274e-05 1.378770599e-15 0.01132774021)
(-0.001641624306 1.188928026e-15 -0.002078567295 -2.924621892e-16 0.0002005490392 0 -6.265672618e-05 1.05186098e-15 0.01133705513)
(-0.001704516034 8.68346286e-16 -0.001873854892 -3.030029295e-16 0.0001723895315 0 -5.37568325e-05 9.795505027e-16 0.01134520898)
(-0.001765658091 5.439551009e-16 -0.00164779136 -3.09504679e-16 0.0001446669966 0 -4.501652508e-05 1.015186186e-15 0.01135203874)
(-0.001825631763 2.640597211e-16 -0.001399751358 -3.104054112e-16 0.0001173787497 0 -3.636177119e-05 9.02368861e-16 0.01135770327)
(-0.00188428599 -2.514202353e-16 -0.001129360416 -3.081552333e-16 9.052497014e-05 0 -2.790472681e-05 9.530246258e-16 0.01136212376)
(-0.00193783008 1.25056272e-16 -0.0008361452982 -2.954338023e-16 6.410640901e-05 0 -1.966296231e-05 8.382707609e-16 0.01136542014)
(-0.001974469339 8.121416671e-16 -0.0005197198809 -3.032492844e-16 3.821869842e-05 0 -1.174224375e-05 8.157056746e-16 0.01136756644)
(-0.002067417864 3.630565678e-16 -0.0001775308802 -3.084329895e-16 1.314621673e-05 -4.225222491e-15 -3.951947512e-06 9.627847086e-16 0.01136866175)
(0.0009846820778 2.52545414e-15 -9.732458896e-05 -5.847906354e-15 0.00161561151 0 -1.211532836e-05 1.279083073e-15 0.01029709168)
(0.001302215321 4.900936424e-15 -0.0002249070748 -4.190536042e-15 0.001410326904 0 -3.145705038e-05 3.314829866e-15 0.0103004561)
(0.001268759863 8.746310697e-15 -0.0003639342672 -4.811342593e-15 0.001343525214 0 -4.967433204e-05 3.473727337e-15 0.01030772726)
(0.00127388075 -7.733334864e-16 -0.0005032825941 -6.540190828e-15 0.001325937521 0 -6.827326138e-05 3.145117552e-15 0.0103186318)
(0.001246459829 -7.330869451e-15 -0.0006411547829 -2.85249241e-15 0.001312266886 0 -8.604131604e-05 6.688582155e-16 0.0103326905)
(0.00120711527 -3.375046876e-15 -0.0007772220368 -1.577983371e-15 0.00129754212 0 -0.0001024782741 6.59030059e-16 0.01034921711)
(0.001160204323 -2.485147193e-15 -0.0009111085103 -9.944028676e-16 0.001281010673 0 -0.0001171699097 1.948053402e-16 0.01036808228)
(0.001108302188 -3.002640777e-15 -0.00104397374 -5.510625428e-16 0.001262613472 0 -0.0001311349967 2.101159852e-15 0.0103895202)
(0.001052223683 -4.067348565e-16 -0.001176373245 -1.119840003e-16 0.001242676882 0 -0.0001447647828 3.748949006e-15 0.01041362702)
(0.0009902491991 1.429368163e-15 -0.00130695379 -3.348035908e-16 0.0012212749 -3.013968149e-14 -0.0001567721877 1.777883322e-15 0.01043954079)
(0.0009234717633 1.18453117e-15 -0.001435754661 -3.593498997e-16 0.001198273629 2.803613693e-14 -0.0001673487975 -8.866196027e-16 0.01046705967)
(0.0008533810012 1.878233365e-15 -0.001563288443 -4.690367676e-16 0.001173923069 0 -0.0001770516937 -1.289275245e-15 0.01049632782)
(0.0007786932834 1.365639653e-15 -0.001688290339 -5.773225563e-16 0.001148325711 2.48917178e-14 -0.0001848414183 -2.51408129e-15 0.01052660196)
(0.0007008419689 5.142642396e-16 -0.001811242746 -5.900418668e-16 0.001121455938 0 -0.0001914765894 -2.026711172e-15 0.01055795881)
(0.0006208376536 1.290656275e-15 -0.001932310152 -5.675080073e-16 0.00109356184 0 -0.0001973198256 -1.586916119e-15 0.01059048724)
(0.0005383899821 1.10064158e-15 -0.002050506491 -6.655523382e-16 0.001064709567 0 -0.0002017733396 -1.322453062e-15 0.01062355975)
(0.0004540513041 1.58258898e-16 -0.002165814228 -6.27271411e-16 0.001035028978 0 -0.0002052148631 -7.370514282e-16 0.01065744442)
(0.0003678744091 -6.629091592e-16 -0.002277519969 -6.154206824e-16 0.001004606175 0 -0.0002074027795 -6.786731145e-16 0.01069142943)
(0.0002803350046 -3.73238987e-16 -0.002385428162 -5.087590043e-16 0.0009735294287 -9.923223247e-15 -0.000208640268 -8.819376162e-17 0.01072583547)
(0.0001918296484 8.796564738e-17 -0.002488918317 -5.268341248e-16 0.0009418932509 0 -0.0002088619253 -1.512497299e-16 0.01076004306)
(0.0001028143832 -4.419387256e-16 -0.002587561941 -4.758212284e-16 0.000909785147 0 -0.0002082195983 5.242050654e-18 0.01079436774)
(1.359649676e-05 -9.141947898e-16 -0.002680786413 -4.504634401e-16 0.000877301506 -9.271850505e-15 -0.0002067751747 1.12131172e-16 0.01082826573)
(-7.617776379e-05 -6.820835803e-16 -0.002767748904 -3.757086986e-16 0.0008445208855 0 -0.0002043541375 -2.525493783e-16 0.01086196151)
(-0.000166392254 4.178753357e-16 -0.0028479435 -3.718928981e-16 0.0008114853139 0 -0.0002011754027 -3.087437079e-16 0.01089488118)
(-0.0002561998792 -5.292632872e-16 -0.002920684123 -3.795428369e-16 0.0007782594542 0 -0.0001972719042 -2.910223803e-16 0.01092743254)
(-0.0003452550907 -4.387877208e-16 -0.002985502941 -3.193966046e-16 0.0007449225651 0 -0.0001929127398 -1.287319341e-17 0.01095910569)
(-0.0004332543514 3.862015053e-16 -0.003041367367 -3.263755786e-16 0.0007115383105 -8.62473787e-15 -0.0001878463445 5.97901305e-17 0.01099023524)
(-0.000520676873 1.582542659e-16 -0.003087770888 -3.231997771e-16 0.0006781802598 0 -0.0001823336495 -3.214175424e-16 0.01102032351)
(-0.0006074233078 -1.422769933e-16 -0.003123627097 -3.204695083e-16 0.0006448668527 -8.468665199e-15 -0.0001761423546 -6.936390206e-16 0.01104955532)
(-0.0006933164576 -9.148610841e-16 -0.003148373345 -2.986457179e-16 0.0006116602989 8.407236156e-15 -0.0001694932905 -1.286104307e-15 0.01107764736)