/*--------------------------------*- C++ -*----------------------------------*\
  =========                 |
  \\      /  F ield         | OpenFOAM: The Open Source CFD Toolbox
   \\    /   O peration     | Website:  https://openfoam.org
    \\  /    A nd           | Version:  7
     \\/     M anipulation  |
\*---------------------------------------------------------------------------*/
FoamFile
{
    version     2.0;
    format      ascii;
    class       volScalarField;
    location    "0.0027";
    object      p;
}
// * * * * * * * * * * * * * * * * * * * * * * * * * * * * * * * * * * * * * //

dimensions      [1 -1 -2 0 0 0 0];

internalField   nonuniform List<scalar> 
1167
(
1464193.351
1463920.3
1463983.974
1464024.877
1464056.822
1464096.273
1464148.259
1464202.096
1464260.923
1464327.966
1464399.566
1464473.858
1464556.512
1464639.762
1464726.974
1464817.316
1464908.1
1465003.385
1465097.113
1465194.4
1465289.437
1465386.783
1465481.966
1465577.886
1465671.967
1465764.353
1465855.776
1465944.417
1466032.662
1466116.559
1466200.165
1466279.961
1466358.336
1466433.958
1466507.036
1466578.29
1464136.78
1463865.25
1463928.034
1463967.927
1464002.158
1464040.079
1464081.956
1464130.177
1464187.352
1464247.811
1464311.332
1464383.284
1464457.102
1464533.973
1464616.713
1464698.875
1464786.794
1464873.127
1464963.714
1465052.017
1465143.737
1465232.679
1465324.269
1465412.785
1465502.665
1465589.181
1465676.433
1465761.234
1465844.536
1465926.106
1466004.663
1466082.354
1466155.877
1466229.134
1466298.928
1466367.301
1466432.858
1466496.133
1466557.505
1466615.962
1466673.183
1466727.043
1466779.922
1466829.79
1466878.637
1466924.856
1466969.569
1467012.413
1467056.15
1467099.712
1464104.193
1463833.477
1463897.13
1463934.25
1463959.772
1463989.975
1464027.746
1464075.518
1464124.169
1464176.542
1464237.593
1464301.238
1464367.534
1464441.289
1464513.887
1464592.125
1464670.427
1464751.864
1464834.058
1464917.857
1465002.016
1465087.141
1465171.752
1465256.885
1465339.608
1465423.463
1465503.921
1465585.328
1465663.153
1465741.123
1465816.125
1465889.669
1465961.343
1466030.546
1466098.641
1466163.046
1466226.771
1466287.162
1466346.513
1466403.135
1466458.088
1466510.884
1466561.562
1466610.671
1466657.521
1466703.034
1466745.997
1466788.229
1466830.385
1466873.662
1464088.499
1463814.196
1463873.317
1463906.014
1463928.156
1463957.338
1463993.967
1464030.372
1464071.552
1464121.717
1464174.454
1464229.826
1464293.099
1464355.011
1464421.782
1464491.774
1464562.843
1464638.051
1464712.421
1464790.9
1464867.694
1464947.773
1465026.036
1465105.477
1465183.394
1465261.585
1465338.922
1465414.645
1465489.963
1465562.217
1465634.575
1465703.276
1465772.314
1465838.397
1465903.217
1465965.79
1466026.289
1466085.35
1466141.654
1466197.123
1466249.344
1466300.926
1466349.664
1466397.515
1466442.988
1466487.162
1466529.156
1466570.13
1466611.553
1466653.383
1464082.01
1463807.185
1463865.294
1463897.786
1463919.894
1463942.588
1463967.848
1463998.381
1464037.978
1464079.094
1464122.683
1464173.943
1464225.343
1464280.147
1464341.039
1464401.595
1464468.346
1464533.516
1464603.795
1464672.422
1464745.201
1464816.328
1464890.382
1464961.439
1465035.366
1465106.601
1465179.879
1465250.456
1465321.196
1465390.061
1465457.728
1465524.408
1465588.877
1465652.953
1465713.57
1465774.119
1465831.683
1465888.486
1465942.908
1465995.919
1466047.061
1466096.29
1466144.189
1466189.989
1466234.718
1466277.113
1466318.523
1466358.008
1466398.94
1466439.097
1464104.232
1463828.869
1463886.335
1463912.479
1463924.521
1463939.12
1463959.809
1463989.036
1464017.932
1464049.372
1464088.299
1464128.237
1464170.33
1464220.928
1464270.081
1464324.764
1464380.374
1464439.214
1464500.141
1464562.727
1464627.46
1464692.91
1464759.053
1464825.877
1464892.828
1464960.593
1465026.871
1465094.135
1465158.528
1465224.144
1465286.821
1465350.217
1465411.348
1465471.651
1465530.272
1465587.208
1465643.169
1465696.701
1465749.786
1465799.905
1465849.737
1465896.893
1465943.436
1465987.767
1466031.087
1466072.454
1466112.541
1466151.296
1466190.948
1466230.621
1464143.674
1463865.166
1463917.591
1463938.659
1463946.392
1463959.399
1463977.482
1463993.713
1464012.99
1464039.579
1464067.46
1464096.772
1464134.184
1464171.291
1464212.482
1464257.692
1464303.795
1464355.693
1464406.663
1464463.456
1464518.756
1464578.316
1464635.839
1464697.487
1464757.554
1464819.783
1464880.704
1464942.214
1465002.985
1465063.053
1465123.056
1465181.335
1465239.976
1465295.628
1465351.863
1465405.493
1465458.859
1465510.179
1465560.53
1465609.29
1465656.499
1465702.607
1465746.911
1465790.341
1465831.738
1465872.399
1465910.87
1465949.059
1465987.244
1466026.643
1464199.218
1463921.181
1463971.59
1463991.7
1463998.21
1464003.589
1464008.683
1464016.595
1464031.265
1464046.459
1464062.301
1464085.453
1464109.971
1464136.722
1464170.616
1464203.778
1464243.638
1464283.272
1464327.93
1464373.689
1464422.758
1464472.194
1464524.597
1464577.211
1464632.433
1464686.516
1464743.097
1464797.279
1464853.906
1464908.382
1464964.24
1465018.565
1465072.746
1465125.838
1465177.858
1465229.389
1465279.025
1465328.61
1465375.719
1465422.925
1465467.639
1465512.203
1465554.704
1465596.572
1465636.664
1465675.876
1465713.424
1465750.309
1465787.742
1465825.848
1464288.673
1464012.902
1464061.726
1464075.419
1464070.985
1464065.764
1464063.306
1464066.917
1464069.159
1464071.316
1464079.936
1464091.039
1464102.873
1464122.576
1464141.825
1464166.136
1464193.82
1464224.014
1464259.076
1464295.124
1464335.502
1464376.081
1464420.899
1464465.982
1464513.754
1464561.736
1464611.014
1464660.782
1464710.625
1464761.406
1464811.226
1464862.233
1464910.999
1464961.082
1465009.005
1465057.418
1465104.142
1465150.557
1465195.675
1465239.794
1465283.053
1465324.979
1465366.228
1465405.838
1465444.928
1465482.246
1465519.023
1465554.302
1465591.087
1465627.549
1464405.253
1464130.587
1464172.652
1464178.467
1464167.424
1464157.384
1464149.878
1464139.167
1464127.992
1464122.309
1464119.402
1464115.807
1464118.846
1464123.768
1464131.404
1464145.739
1464160.211
1464182.536
1464204.515
1464232.57
1464260.75
1464294.35
1464328.391
1464366.983
1464405.015
1464447.135
1464487.721
1464532.074
1464575.166
1464620.627
1464665.362
1464710.935
1464756.076
1464801.022
1464846.027
1464889.919
1464934.201
1464976.726
1465019.757
1465060.636
1465102.008
1465141.472
1465180.853
1465218.59
1465255.973
1465291.881
1465327.139
1465361.293
1465396.755
1465432.284
1464543.845
1464275.479
1464312.901
1464314.369
1464300.077
1464282.635
1464259.671
1464236.182
1464217.062
1464199.848
1464180.424
1464166.278
1464155.8
1464145.823
1464144.098
1464142.522
1464146.88
1464154.843
1464166.531
1464182.236
1464200.639
1464223.615
1464248.823
1464277.494
1464308.015
1464340.84
1464375.507
1464411.34
1464449.231
1464487.24
1464527.367
1464566.329
1464607.462
1464646.985
1464688.061
1464727.856
1464768.269
1464807.722
1464846.968
1464885.626
1464923.638
1464961.208
1464997.718
1465033.902
1465068.864
1465103.526
1465136.713
1465169.832
1465203.514
1465238.353
1464719.186
1464461.746
1464495.333
1464490.87
1464464.969
1464432.774
1464399.068
1464368.166
1464336.977
1464301.898
1464270.504
1464244.025
1464216.047
1464194.715
1464176.485
1464161.43
1464153.458
1464146.636
1464147.955
1464149.291
1464158.418
1464168.32
1464184.832
1464201.603
1464224.204
1464246.458
1464273.878
1464301.106
1464332.062
1464363.212
1464396.519
1464430.147
1464464.778
1464500.105
1464535.402
1464571.604
1464607.014
1464643.333
1464678.301
1464714.404
1464748.881
1464784.035
1464817.7
1464851.686
1464884.387
1464917.112
1464948.452
1464979.935
1465012.022
1465045.492
1464935.518
1464689.554
1464712.752
1464696.724
1464660.242
1464618.756
1464578.491
1464534.484
1464484.731
1464436.638
1464393.444
1464347.308
1464305.677
1464269.544
1464233.869
1464206.965
1464181.684
1464162.768
1464147.549
1464137.463
1464132.353
1464131.496
1464135.072
1464142.241
1464153
1464167.077
1464183.727
1464203.684
1464225.18
1464249.856
1464274.752
1464302.706
1464330.098
1464360.328
1464389.724
1464420.983
1464451.703
1464483.295
1464514.631
1464546.28
1464577.779
1464609.038
1464640.214
1464670.882
1464701.514
1464731.384
1464761.011
1464790.14
1464820.756
1464851.835
1465176.257
1464950.2
1464964.717
1464940.615
1464898.214
1464849.828
1464794.598
1464732.136
1464668.864
1464608.824
1464545.153
1464482.926
1464427.889
1464371.615
1464321.88
1464277.068
1464235.918
1464202.175
1464170.426
1464148.002
1464127.226
1464115.007
1464103.995
1464100.683
1464098.354
1464102.802
1464108.267
1464119.176
1464131.313
1464147.287
1464164.444
1464184.159
1464205.314
1464227.865
1464251.937
1464276.506
1464302.52
1464328.305
1464355.628
1464382.245
1464410.273
1464437.273
1464465.408
1464492.474
1464520.42
1464547.222
1464574.551
1464601.101
1464629.704
1464658.198
1465455.022
1465256.969
1465263.693
1465233.296
1465181.623
1465117.653
1465045.399
1464969.76
1464894.457
1464814.016
1464731.808
1464655.92
1464579.557
1464506.27
1464440.652
1464375.921
1464320.002
1464266.962
1464221.391
1464181.132
1464147.074
1464118.495
1464095.259
1464077.083
1464063.766
1464054.693
1464050.264
1464049.111
1464052.308
1464057.431
1464066.59
1464076.777
1464090.894
1464105.106
1464122.72
1464140.276
1464160.113
1464180.126
1464201.718
1464223.543
1464246.244
1464269.181
1464292.588
1464316.245
1464340.067
1464363.97
1464387.81
1464411.902
1464437.377
1464463.769
1465782.159
1465617.517
1465611.077
1465567.831
1465501.309
1465423.391
1465339.303
1465251.405
1465155.951
1465055.865
1464959.321
1464862.731
1464765.496
1464676.575
1464589.161
1464507.593
1464432.258
1464361.1
1464299.28
1464240.802
1464192.166
1464146.122
1464109.588
1464075.375
1464049.752
1464026.378
1464010.437
1463996.813
1463989.025
1463983.355
1463982.134
1463983.177
1463987.393
1463993.818
1464002.381
1464013.016
1464024.86
1464038.794
1464053.329
1464069.745
1464086.21
1464104.407
1464122.357
1464141.895
1464160.937
1464181.243
1464200.981
1464221.958
1464243.665
1464267.365
1466141.038
1466018.282
1465994.862
1465938.838
1465861.664
1465774.232
1465677.604
1465569.869
1465454.399
1465339.238
1465223.574
1465104.056
1464990.044
1464879.433
1464771.138
1464672.083
1464574.705
1464486.97
1464404.556
1464330.134
1464262.131
1464201.104
1464146.654
1464098.524
1464056.461
1464020.344
1463989.454
1463964.091
1463942.626
1463926.224
1463912.722
1463904.03
1463897.113
1463894.827
1463893.528
1463896.108
1463899.305
1463905.666
1463912.732
1463922.093
1463932.101
1463943.855
1463956.226
1463969.932
1463984.091
1463999.293
1464014.801
1464031.342
1464049.136
1464068.745
1466527.763
1466458.947
1466418.6
1466352.551
1466267.618
1466167.171
1466051.122
1465924.058
1465793.442
1465660.342
1465520.355
1465382.304
1465248.97
1465114.576
1464987.931
1464865.634
1464749.245
1464641.784
1464539.206
1464447.21
1464359.217
1464282.119
1464208.853
1464145.833
1464086.539
1464036.627
1463990.089
1463951.547
1463916.002
1463887.02
1463861.105
1463840.39
1463822.551
1463808.771
1463797.676
1463789.522
1463784.018
1463780.705
1463779.826
1463780.427
1463783.273
1463787.169
1463793.126
1463799.772
1463808.201
1463817.177
1463827.653
1463838.681
1463851.802
1463865.978
1466945.551
1466943.174
1466884.879
1466807.001
1466709.361
1466590.502
1466456.979
1466315.458
1466167.632
1466010.393
1465850.261
1465694.04
1465536.07
1465381.838
1465234.164
1465088.304
1464953.466
1464823.346
1464702.663
1464589.084
1464483.893
1464386.698
1464297.101
1464215.423
1464140.811
1464073.49
1464012.714
1463957.955
1463909.157
1463865.281
1463827.049
1463792.531
1463763.314
1463736.802
1463715.089
1463695.274
1463680.018
1463666.176
1463656.101
1463647.111
1463641.351
1463636.599
1463634.596
1463633.433
1463634.619
1463636.581
1463640.609
1463645.267
1463652.374
1463660.239
1467387.922
1467462.531
1467380.777
1467286.336
1467173.278
1467040.455
1466894.21
1466736.467
1466565.803
1466387.417
1466210.286
1466030.5
1465849.576
1465675.991
1465503.768
1465338.644
1465181.425
1465030.199
1464889.873
1464754.671
1464631.514
1464513.622
1464407.225
1464306.274
1464215.941
1464130.724
1464055.178
1463983.866
1463921.066
1463862.015
1463810.246
1463761.845
1463719.519
1463680.338
1463645.933
1463614.561
1463587.104
1463562.478
1463540.909
1463521.979
1463505.562
1463491.62
1463479.753
1463470.088
1463462.267
1463456.453
1463452.276
1463449.813
1463449.136
1463450.204
1467834.889
1467998.876
1467889.375
1467780.265
1467656.336
1467513.399
1467351.987
1467173.105
1466981.907
1466787.28
1466588.795
1466384.895
1466185.094
1465987.837
1465793
1465608.278
1465427.456
1465257.134
1465094.197
1464940.687
1464796.373
1464660.681
1464534.677
1464416.675
1464308.032
1464206.772
1464113.731
1464027.331
1463947.979
1463874.866
1463807.488
1463745.87
1463688.847
1463637.032
1463588.774
1463545.434
1463504.893
1463468.807
1463434.849
1463405.034
1463376.986
1463352.684
1463329.863
1463310.372
1463292.326
1463277.322
1463263.609
1463252.58
1463242.58
1463235.372
1468274.188
1468542.689
1468404.493
1468283.332
1468151.235
1467994.287
1467813.672
1467615.826
1467409.263
1467195.871
1466973.559
1466750.628
1466530.661
1466309.213
1466095.555
1465887.878
1465686.727
1465496.177
1465311.447
1465139.462
1464973.945
1464820.832
1464674.871
1464540.392
1464413.026
1464296.102
1464185.382
1464084.116
1463988.232
1463901.025
1463818.149
1463742.975
1463671.387
1463606.272
1463544.27
1463487.839
1463434.33
1463385.373
1463339.1
1463296.715
1463256.87
1463220.415
1463186.269
1463155.188
1463126.322
1463100.34
1463076.366
1463054.994
1463034.652
1463017.119
1468697.881
1469085.607
1468916.706
1468781.173
1468637.786
1468464.325
1468267.446
1468055.974
1467833.12
1467598.014
1467356.468
1467116.039
1466873.203
1466632.897
1466400.12
1466169.957
1465950.672
1465738.444
1465536.122
1465343.757
1465160.637
1464988.689
1464825.393
1464673.367
1464529.372
1464395.738
1464269.279
1464152.004
1464041.376
1463938.564
1463841.715
1463751.405
1463666.417
1463586.678
1463511.86
1463441.349
1463375.267
1463312.62
1463254.026
1463198.317
1463146.375
1463096.887
1463050.842
1463007.108
1462966.598
1462928.325
1462893.085
1462859.88
1462828.06
1462797.993
1465548.018
1465349.247
1465159.049
1464980.798
1464811.489
1464653.129
1464503.023
1464362.789
1464229.955
1464106.089
1463988.366
1463878.76
1463774.116
1463676.61
1463583.041
1463495.92
1463412
1463333.507
1463257.659
1463186.552
1463117.743
1463053.16
1462990.564
1462931.779
1462874.954
1462821.697
1462770.376
1462722.6
1462676.52
1462631.741
1462587.652
)
;

boundaryField
{
    front_top
    {
        type            wedge;
    }
    front_middle
    {
        type            wedge;
    }
    front_bottom
    {
        type            wedge;
    }
    back_top
    {
        type            wedge;
    }
    back_middle
    {
        type            wedge;
    }
    back_bottom
    {
        type            wedge;
    }
    axis_top
    {
        type            symmetryPlane;
    }
    axis_middle
    {
        type            symmetryPlane;
    }
    axis_bottom
    {
        type            symmetryPlane;
    }
    wall_top
    {
        type            fixedFluxPressure;
        gradient        uniform 0;
        value           nonuniform List<scalar> 
23
(
1467099.712
1466873.662
1466653.383
1466439.097
1466230.621
1466026.643
1465825.848
1465627.549
1465432.284
1465238.353
1465045.492
1464851.835
1464658.198
1464463.769
1464267.365
1464068.745
1463865.978
1463660.239
1463450.204
1463235.372
1463017.119
1462797.993
1462587.652
)
;
    }
    wall_middle
    {
        type            fixedFluxPressure;
        gradient        nonuniform 0();
        value           nonuniform 0();
    }
    wall_bottom
    {
        type            fixedFluxPressure;
        gradient        nonuniform 0();
        value           nonuniform 0();
    }
    inlet
    {
        type            zeroGradient;
    }
    outlet
    {
        type            fixedValue;
        value           nonuniform 0();
    }
    procBoundary7to6
    {
        type            processor;
        value           nonuniform List<scalar> 
51
(
1469088.814
1469608.611
1469404.046
1469252.108
1469096.216
1468910.717
1468702.862
1468477.833
1468236.474
1467983.116
1467726.986
1467467.174
1467204.207
1466947.905
1466694.559
1466447.506
1466209.972
1465978.383
1465759.578
1465759.578
1465748.719
1465535.16
1465330.515
1465138.668
1464955.194
1464783.948
1464620.18
1464467.526
1464321.737
1464185.678
1464055.586
1463933.834
1463817.253
1463707.461
1463602.212
1463502.58
1463406.871
1463315.629
1463227.795
1463143.645
1463062.539
1462984.545
1462909.253
1462836.796
1462766.915
1462699.765
1462635.12
1462573.521
1462514.042
1462454.758
1462395.901
)
;
    }
    procBoundary7to8
    {
        type            processor;
        value           nonuniform List<scalar> 
51
(
1464249.32
1463978.608
1464047.868
1464095.285
1464130.473
1464171.798
1464222.015
1464282.457
1464348.86
1464418.756
1464495.881
1464577.838
1464662.288
1464754.818
1464847.279
1464944.382
1465041.842
1465141.745
1465242.814
1465344.599
1465446.383
1465548.432
1465649.118
1465750.24
1465848.429
1465946.721
1466040.638
1466135.064
1466225.845
1466315.576
1466402.261
1466486.117
1466568.05
1466645.882
1466722.627
1466795.402
1466645.825
1466645.825
1466712.083
1466774.661
1466836.102
1466894.435
1466950.991
1467005.076
1467056.968
1467107.013
1467154.69
1467200.696
1467244.636
1467289.688
1467334.055
)
;
    }
}


// ************************************************************************* //
