/*--------------------------------*- C++ -*----------------------------------*\
  =========                 |
  \\      /  F ield         | OpenFOAM: The Open Source CFD Toolbox
   \\    /   O peration     | Website:  https://openfoam.org
    \\  /    A nd           | Version:  7
     \\/     M anipulation  |
\*---------------------------------------------------------------------------*/
FoamFile
{
    version     2.0;
    format      ascii;
    class       surfaceScalarField;
    location    "0.0027";
    object      phi;
}
// * * * * * * * * * * * * * * * * * * * * * * * * * * * * * * * * * * * * * //

dimensions      [1 0 -1 0 0 0 0];

internalField   nonuniform List<scalar> 
2260
(
2.235064353e-15
4.56071144e-11
8.747880666e-15
1.334536173e-10
1.921792747e-14
2.164052434e-10
3.329170789e-14
2.946659245e-10
5.059144977e-14
3.684326418e-10
7.071861276e-14
4.378954988e-10
9.332370303e-14
5.032379377e-10
1.179607644e-13
5.646369388e-10
1.442254892e-13
6.222630966e-10
1.717582585e-13
6.76280793e-10
2.00175876e-13
7.268484514e-10
2.290624208e-13
7.741186729e-10
2.581662195e-13
8.182382268e-10
2.870751942e-13
8.593485283e-10
3.155095663e-13
8.975855525e-10
3.431976004e-13
9.330800002e-10
3.697980042e-13
9.659577441e-10
3.951791427e-13
9.963394722e-10
4.189813891e-13
1.024341462e-09
4.41145783e-13
1.050075091e-09
4.613456974e-13
1.073647626e-09
4.795602226e-13
1.095161737e-09
4.955351525e-13
1.11471627e-09
5.092480953e-13
1.132405739e-09
5.205517062e-13
1.148321135e-09
5.293484103e-13
1.16254946e-09
5.356309939e-13
1.175174338e-09
5.392551363e-13
1.186275801e-09
5.40344733e-13
1.195930495e-09
5.386726751e-13
1.204212114e-09
5.344345044e-13
1.211190897e-09
5.274664712e-13
1.216934521e-09
5.178971064e-13
1.221507375e-09
5.05708917e-13
1.224971509e-09
4.909190997e-13
1.22738594e-09
1.228807378e-09
2.24711044e-15
4.560486729e-11
8.796365336e-15
1.33447068e-10
1.932405812e-14
2.163947157e-10
3.347072306e-14
2.946517778e-10
5.087976257e-14
3.684152327e-10
7.115184244e-14
4.378752267e-10
9.386923754e-14
5.032152203e-10
1.186229026e-13
5.646121851e-10
1.450500305e-13
6.222366695e-10
1.727355471e-13
6.762531075e-10
2.012606779e-13
7.268199263e-10
2.303338172e-13
7.740895997e-10
2.595560203e-13
8.182090046e-10
2.8857627e-13
8.59319508e-10
3.171645081e-13
8.975569643e-10
3.449066296e-13
9.330522581e-10
3.71675482e-13
9.659309753e-10
3.970737531e-13
9.96314074e-10
4.210279608e-13
1.024317508e-09
4.431706852e-13
1.050052949e-09
4.634916153e-13
1.073627305e-09
4.816537005e-13
1.095143575e-09
4.977045208e-13
1.114700219e-09
5.11346308e-13
1.132392098e-09
5.226523709e-13
1.148309829e-09
5.313646523e-13
1.162540747e-09
5.375772292e-13
1.175168125e-09
5.411564682e-13
1.186272222e-09
5.42098187e-13
1.195929553e-09
5.404125786e-13
1.204213799e-09
5.359925592e-13
1.211195317e-09
5.290016879e-13
1.216941511e-09
5.192334122e-13
1.221517144e-09
5.069475933e-13
1.224983794e-09
4.920075871e-13
1.22740088e-09
4.745828968e-13
1.228824803e-09
4.546520616e-13
1.229310018e-09
4.32274465e-13
1.228908151e-09
4.075743388e-13
1.227668937e-09
3.804967923e-13
1.225639733e-09
3.512906692e-13
1.222865827e-09
3.198061157e-13
1.219390706e-09
2.863434289e-13
1.215255551e-09
2.507662219e-13
1.21050022e-09
2.133543646e-13
1.20516222e-09
1.740292074e-13
1.199277938e-09
1.329961741e-13
1.192881561e-09
9.022983374e-14
1.186006318e-09
4.589442401e-14
1.17868334e-09
1.170942874e-09
2.263942191e-15
4.560260334e-11
8.863112378e-15
1.334404689e-10
1.947736251e-14
2.163841015e-10
3.374683435e-14
2.946375084e-10
5.128560473e-14
3.68397694e-10
7.169453669e-14
4.378548178e-10
9.455912984e-14
5.031923557e-10
1.195224282e-13
5.645872218e-10
1.461322159e-13
6.222100597e-10
1.739729848e-13
6.762252667e-10
2.027217627e-13
7.267911775e-10
2.319775292e-13
7.74060344e-10
2.61346691e-13
8.181796354e-10
2.906020852e-13
8.592902526e-10
3.192944813e-13
8.975282719e-10
3.472447863e-13
9.330243078e-10
3.740904152e-13
9.659041297e-10
3.996426e-13
9.962885218e-10
4.236345965e-13
1.024293516e-09
4.458919713e-13
1.050030691e-09
4.662078118e-13
1.073606989e-09
4.844594344e-13
1.095125323e-09
5.004663064e-13
1.114684212e-09
5.141836166e-13
1.13237838e-09
5.253846016e-13
1.148298628e-09
5.341543113e-13
1.162531978e-09
5.402380512e-13
1.175162041e-09
5.437957578e-13
1.186268664e-09
5.445947691e-13
1.195928754e-09
5.427942967e-13
1.2042156e-09
5.382645385e-13
1.211199847e-09
5.310670524e-13
1.216948709e-09
5.212320995e-13
1.221526979e-09
5.087239779e-13
1.224996303e-09
4.937203166e-13
1.227415884e-09
4.760584075e-13
1.228842464e-09
4.560062546e-13
1.229330071e-09
4.334240832e-13
1.228930733e-09
4.085479219e-13
1.227693813e-09
3.813268595e-13
1.225666954e-09
3.519051977e-13
1.222895249e-09
3.203333467e-13
1.219422278e-09
2.86662134e-13
1.215289222e-09
2.510403345e-13
1.210535842e-09
2.134564888e-13
1.205199804e-09
1.74117931e-13
1.199317277e-09
1.32953973e-13
1.192922725e-09
9.0217511e-14
1.186049054e-09
4.580621174e-14
1.178727751e-09
1.17098868e-09
2.285663315e-15
4.560031768e-11
8.946144137e-15
1.334338084e-10
1.965234332e-14
2.163733953e-10
3.404091722e-14
2.946231198e-10
5.172167791e-14
3.683800132e-10
7.230205932e-14
4.378342374e-10
9.539659307e-14
5.031692612e-10
1.205465322e-13
5.645620719e-10
1.473378998e-13
6.221832683e-10
1.75425306e-13
6.761971793e-10
2.043924981e-13
7.267622103e-10
2.33825581e-13
7.740309109e-10
2.63471945e-13
8.18149989e-10
2.928705718e-13
8.59260854e-10
3.217637925e-13
8.974993787e-10
3.498626228e-13
9.32996209e-10
3.768375843e-13
9.658771547e-10
4.025311424e-13
9.962628282e-10
4.265912199e-13
1.024269456e-09
4.489591021e-13
1.050008323e-09
4.693000912e-13
1.073586648e-09
4.876128302e-13
1.095107011e-09
5.036250377e-13
1.1146682e-09
5.17317708e-13
1.132364688e-09
5.285069849e-13
1.148287439e-09
5.371740177e-13
1.162523311e-09
5.432565785e-13
1.175155959e-09
5.466619872e-13
1.186265259e-09
5.474559904e-13
1.19592796e-09
5.454626238e-13
1.204217593e-09
5.40870495e-13
1.211204439e-09
5.334610663e-13
1.216956118e-09
5.234856699e-13
1.221536954e-09
5.108186759e-13
1.22500897e-09
4.955919954e-13
1.22743111e-09
4.778107085e-13
1.228860246e-09
4.575081411e-13
1.229350373e-09
4.348288668e-13
1.228953412e-09
4.096984819e-13
1.227718943e-09
3.823845802e-13
1.225694268e-09
3.527229847e-13
1.22292491e-09
3.21029213e-13
1.219453972e-09
2.871718903e-13
1.21532308e-09
2.514227765e-13
1.210571591e-09
2.137200898e-13
1.205237507e-09
1.742632537e-13
1.199356734e-09
1.330451187e-13
1.192963943e-09
9.022438749e-14
1.186091875e-09
4.583163971e-14
1.178772144e-09
1.171034512e-09
2.305554803e-15
4.559801213e-11
9.024866875e-15
1.334270891e-10
1.982329328e-14
2.163625969e-10
3.433892453e-14
2.946086042e-10
5.219340556e-14
3.683621587e-10
7.296883846e-14
4.378134619e-10
9.623592226e-14
5.031459941e-10
1.21568849e-13
5.64536739e-10
1.486103049e-13
6.221562269e-10
1.769201148e-13
6.761688695e-10
2.060732708e-13
7.267330572e-10
2.35771293e-13
7.740012129e-10
2.655779709e-13
8.181201824e-10
2.951469474e-13
8.59231285e-10
3.242413052e-13
8.974702843e-10
3.524374833e-13
9.329680128e-10
3.796127938e-13
9.658499794e-10
4.053472814e-13
9.962370937e-10
4.295802126e-13
1.024245223e-09
4.519374503e-13
1.049985966e-09
4.724091354e-13
1.073566176e-09
4.906726681e-13
1.095088747e-09
5.06767113e-13
1.114652106e-09
5.20357736e-13
1.132351097e-09
5.315677936e-13
1.148276229e-09
5.401114541e-13
1.162514767e-09
5.461404449e-13
1.17514993e-09
5.49435812e-13
1.186261964e-09
5.500860486e-13
1.19592731e-09
5.480042712e-13
1.204219675e-09
5.431999648e-13
1.211209244e-09
5.357328232e-13
1.216963586e-09
5.255297249e-13
1.221547157e-09
5.127883709e-13
1.225021711e-09
4.973201309e-13
1.227446578e-09
4.794049939e-13
1.228878161e-09
4.589022599e-13
1.229370876e-09
4.360344419e-13
1.22897628e-09
4.107605927e-13
1.227744217e-09
3.832176198e-13
1.225721811e-09
3.534639211e-13
1.222954664e-09
3.215480032e-13
1.219485888e-09
2.876263e-13
1.215357001e-09
2.516872698e-13
1.21060753e-09
2.139472237e-13
1.205275247e-09
1.743372693e-13
1.199396344e-09
1.331213576e-13
1.193005159e-09
9.019955321e-14
1.186134797e-09
4.586653551e-14
1.178816477e-09
1.171080378e-09
2.32503286e-15
4.559568709e-11
9.101635847e-15
1.334203125e-10
1.999871823e-14
2.163516998e-10
3.464214278e-14
2.945939607e-10
5.263168349e-14
3.683441692e-10
7.355177421e-14
4.377925419e-10
9.697600379e-14
5.031225699e-10
1.225347378e-13
5.645111802e-10
1.497643356e-13
6.221289973e-10
1.782357153e-13
6.761403981e-10
2.076138065e-13
7.267036791e-10
2.374718912e-13
7.739713548e-10
2.673980834e-13
8.180902562e-10
2.971820661e-13
8.592015011e-10
3.263541531e-13
8.974411122e-10
3.547213559e-13
9.329396456e-10
3.819325624e-13
9.658227682e-10
4.077733395e-13
9.962112529e-10
4.320079029e-13
1.024220989e-09
4.544215386e-13
1.049963553e-09
4.748618484e-13
1.073545736e-09
4.93148812e-13
1.09507046e-09
5.091419372e-13
1.114636113e-09
5.22736414e-13
1.132337503e-09
5.338135185e-13
1.148265152e-09
5.423652766e-13
1.162506215e-09
5.482252022e-13
1.17514407e-09
5.514994475e-13
1.186258689e-09
5.519555331e-13
1.195926854e-09
5.497982813e-13
1.204221832e-09
5.44810698e-13
1.211214231e-09
5.372073171e-13
1.216971189e-09
5.268786779e-13
1.221557486e-09
5.139337617e-13
1.225034656e-09
4.983857885e-13
1.227462126e-09
4.802561759e-13
1.22889629e-09
4.596915864e-13
1.229391441e-09
4.366132674e-13
1.228999358e-09
4.112879249e-13
1.227769542e-09
3.835527698e-13
1.225749546e-09
3.537277975e-13
1.222984489e-09
3.216760664e-13
1.21951794e-09
2.876767763e-13
1.215391001e-09
2.516661461e-13
1.21064354e-09
2.138532637e-13
1.20531306e-09
1.742305379e-13
1.199435966e-09
1.329671323e-13
1.193046422e-09
9.009564036e-14
1.186177668e-09
4.57601844e-14
1.178860812e-09
1.171126139e-09
2.340995342e-15
4.55933461e-11
9.162447486e-15
1.33413491e-10
2.012412292e-14
2.163407381e-10
3.484925271e-14
2.945792356e-10
5.29319796e-14
3.683260865e-10
7.397026353e-14
4.377715036e-10
9.756195559e-14
5.030989782e-10
1.232378038e-13
5.644855044e-10
1.505693541e-13
6.221016657e-10
1.791945849e-13
6.761117729e-10
2.086825541e-13
7.266741911e-10
2.385962057e-13
7.739414411e-10
2.686778222e-13
8.180601746e-10
2.984824085e-13
8.591716965e-10
3.277173384e-13
8.974118773e-10
3.56112317e-13
9.329112506e-10
3.83301484e-13
9.65795579e-10
4.091704742e-13
9.96185384e-10
4.333224394e-13
1.024196837e-09
4.557481292e-13
1.049941127e-09
4.760745032e-13
1.07352541e-09
4.943336048e-13
1.095052201e-09
5.101757216e-13
1.114620271e-09
5.237048491e-13
1.132323973e-09
5.346493745e-13
1.148254207e-09
5.430859059e-13
1.162497779e-09
5.488381142e-13
1.175138318e-09
5.519367072e-13
1.186255591e-09
5.523223867e-13
1.195926468e-09
5.499662763e-13
1.204224188e-09
5.44941854e-13
1.211219256e-09
5.371511726e-13
1.21697898e-09
5.267954718e-13
1.221567841e-09
5.136745499e-13
1.225047777e-09
4.980698637e-13
1.227477731e-09
4.79829965e-13
1.22891453e-09
4.59177675e-13
1.229412093e-09
4.360622538e-13
1.229022474e-09
4.106277887e-13
1.227794977e-09
3.829209298e-13
1.225777253e-09
3.530010862e-13
1.223014409e-09
3.210123811e-13
1.219549928e-09
2.869570607e-13
1.215425056e-09
2.510404887e-13
1.210679457e-09
2.132090307e-13
1.205350891e-09
1.737176392e-13
1.199475458e-09
1.324819259e-13
1.193087658e-09
8.97900829e-14
1.18622036e-09
4.553367081e-14
1.178905069e-09
1.171171672e-09
2.34618015e-15
4.559099992e-11
9.183291992e-15
1.334066539e-10
2.01666965e-14
2.163297547e-10
3.492484233e-14
2.945644775e-10
5.306378714e-14
3.683079475e-10
7.416078264e-14
4.377504066e-10
9.777035614e-14
5.030753686e-10
1.23454649e-13
5.644598201e-10
1.508364091e-13
6.22074284e-10
1.794717251e-13
6.760831376e-10
2.089098993e-13
7.266447529e-10
2.388417576e-13
7.739115093e-10
2.688557181e-13
8.180301606e-10
2.985642756e-13
8.591419879e-10
3.277592594e-13
8.973826823e-10
3.559898265e-13
9.328830201e-10
3.831325914e-13
9.657684362e-10
4.087955554e-13
9.96159721e-10
4.328689208e-13
1.024172763e-09
4.550680216e-13
1.049918928e-09
4.75292003e-13
1.073505186e-09
4.932949368e-13
1.095034198e-09
5.090378148e-13
1.114604528e-09
5.223174322e-13
1.132310694e-09
5.331698799e-13
1.148243355e-09
5.413656457e-13
1.162489583e-09
5.470398521e-13
1.175132643e-09
5.499178458e-13
1.186252713e-09
5.502133537e-13
1.195926173e-09
5.47703601e-13
1.204226698e-09
5.425795183e-13
1.21122438e-09
5.347318081e-13
1.216986827e-09
5.242599902e-13
1.221578313e-09
5.111680653e-13
1.225060869e-09
4.954776385e-13
1.227493422e-09
4.773194518e-13
1.228932689e-09
4.566231767e-13
1.229432789e-09
4.336346307e-13
1.229045462e-09
4.082053712e-13
1.227820406e-09
3.80647783e-13
1.225804811e-09
3.508072256e-13
1.22304425e-09
3.189827395e-13
1.219581753e-09
2.850880583e-13
1.215458951e-09
2.493543746e-13
1.210715191e-09
2.117530489e-13
1.205388492e-09
1.724763852e-13
1.199514734e-09
1.315384882e-13
1.193128596e-09
8.910729162e-14
1.186262791e-09
4.520692508e-14
1.178948969e-09
1.171216879e-09
2.339460038e-15
4.558866046e-11
9.15774419e-15
1.333998356e-10
2.011634551e-14
2.163187961e-10
3.483937149e-14
2.945497544e-10
5.29141903e-14
3.682898727e-10
7.391683021e-14
4.377294039e-10
9.740786766e-14
5.030518776e-10
1.230038718e-13
5.644342241e-10
1.502442779e-13
6.220470436e-10
1.786751188e-13
6.760547067e-10
2.079478149e-13
7.266154802e-10
2.376678197e-13
7.738817893e-10
2.673960431e-13
8.180004324e-10
2.969118063e-13
8.591124722e-10
3.257713499e-13
8.973538228e-10
3.537413571e-13
9.3285505e-10
3.805425957e-13
9.65741635e-10
4.058903796e-13
9.961343732e-10
4.296445647e-13
1.024149009e-09
4.51507542e-13
1.049897065e-09
4.714159005e-13
1.073485277e-09
4.890879654e-13
1.095016526e-09
5.045354285e-13
1.11458908e-09
5.175393701e-13
1.13229769e-09
5.281103338e-13
1.148232784e-09
5.361050553e-13
1.162481588e-09
5.415103634e-13
1.175127238e-09
5.442823086e-13
1.186249941e-09
5.44366684e-13
1.195926088e-09
5.418370286e-13
1.204229228e-09
5.365836192e-13
1.211229633e-09
5.287957683e-13
1.216994615e-09
5.18274253e-13
1.221588835e-09
5.052917829e-13
1.225073851e-09
4.896762517e-13
1.227509037e-09
4.716622766e-13
1.228950703e-09
4.511694247e-13
1.229453282e-09
4.28360758e-13
1.229068271e-09
4.032506002e-13
1.227845516e-09
3.759199987e-13
1.225832142e-09
3.464795625e-13
1.22307369e-09
3.149562709e-13
1.219613276e-09
2.815235004e-13
1.215492383e-09
2.461538924e-13
1.21075056e-09
2.090724957e-13
1.205425574e-09
1.702220366e-13
1.199553585e-09
1.298641853e-13
1.193168954e-09
8.791888296e-14
1.186304737e-09
4.465297141e-14
1.178992235e-09
1.171261532e-09
2.316400003e-15
4.558634406e-11
9.065992077e-15
1.33393086e-10
1.990757391e-14
2.163079545e-10
3.446200182e-14
2.945352e-10
5.232100859e-14
3.682720137e-10
7.307133646e-14
4.377086536e-10
9.630573619e-14
5.030286432e-10
1.215638136e-13
5.64408966e-10
1.483975598e-13
6.220202098e-10
1.764316941e-13
6.760266726e-10
2.052762601e-13
7.265866357e-10
2.344711996e-13
7.738525943e-10
2.637354078e-13
8.179711682e-10
2.926868087e-13
8.590835208e-10
3.209733103e-13
8.973255363e-10
3.484103916e-13
9.32827613e-10
3.745777311e-13
9.657154677e-10
3.994246001e-13
9.961095263e-10
4.22549766e-13
1.024125884e-09
4.439307855e-13
1.049875684e-09
4.632306762e-13
1.073465977e-09
4.804734045e-13
1.094999283e-09
4.953841e-13
1.11457417e-09
5.080382724e-13
1.132285036e-09
5.181595562e-13
1.148222662e-09
5.259004509e-13
1.162473847e-09
5.309652294e-13
1.175122173e-09
5.335689185e-13
1.186247337e-09
5.334785178e-13
1.195926179e-09
5.308745087e-13
1.204231832e-09
5.256344016e-13
1.211234873e-09
5.178609172e-13
1.217002389e-09
5.075331247e-13
1.221599163e-09
4.946831629e-13
1.225086701e-09
4.794084051e-13
1.227524312e-09
4.616572898e-13
1.228968454e-09
4.416343901e-13
1.229473305e-09
4.192156792e-13
1.22909069e-09
3.946849898e-13
1.227870047e-09
3.678699785e-13
1.225858957e-09
3.390907388e-13
1.223102469e-09
3.08216092e-13
1.219644151e-09
2.755079105e-13
1.215525092e-09
2.40893478e-13
1.210785175e-09
2.045970507e-13
1.20546187e-09
1.665912584e-13
1.199591591e-09
1.270777351e-13
1.193208467e-09
8.604362838e-14
1.186345771e-09
4.368362854e-14
1.179034595e-09
1.171305216e-09
2.266569531e-15
4.558407749e-11
8.871243607e-15
1.333864814e-10
1.94756238e-14
2.162973501e-10
3.370651329e-14
2.945209691e-10
5.117482545e-14
3.682545454e-10
7.147387991e-14
4.376883545e-10
9.414513339e-14
5.030059719e-10
1.187560838e-13
5.643843551e-10
1.449189687e-13
6.219940469e-10
1.722402864e-13
6.759993513e-10
2.00252576e-13
7.265586234e-10
2.286292452e-13
7.738242177e-10
2.570310663e-13
8.179427663e-10
2.850313504e-13
8.590555205e-10
3.12465407e-13
8.972981022e-10
3.389171576e-13
9.328011612e-10
3.642149106e-13
9.656901699e-10
3.881019979e-13
9.960856393e-10
4.10370736e-13
1.024103615e-09
4.308618687e-13
1.049855193e-09
4.493704413e-13
1.073447469e-09
4.658337969e-13
1.09498282e-09
4.800833348e-13
1.11455992e-09
4.920809115e-13
1.132273038e-09
5.017123537e-13
1.148213031e-09
5.089372242e-13
1.162466622e-09
5.137203572e-13
1.17511739e-09
5.159969862e-13
1.18624506e-09
5.158314703e-13
1.195926344e-09
5.13116008e-13
1.204234547e-09
5.080157277e-13
1.211239973e-09
5.003445957e-13
1.21701006e-09
4.903577623e-13
1.221609149e-09
4.778532941e-13
1.225099206e-09
4.630870448e-13
1.227539078e-09
4.45929032e-13
1.228985612e-09
4.265698652e-13
1.229492664e-09
4.049693732e-13
1.22911229e-09
3.812382904e-13
1.227893778e-09
3.554293152e-13
1.225884765e-09
3.2760072e-13
1.223130298e-09
2.97869236e-13
1.219673882e-09
2.662391302e-13
1.215556722e-09
2.328801049e-13
1.210818534e-09
1.977672121e-13
1.205496983e-09
1.61109853e-13
1.199628248e-09
1.228618778e-13
1.193246715e-09
8.324216937e-14
1.18638539e-09
4.221577358e-14
1.179075621e-09
1.171347432e-09
2.184767783e-15
4.558189272e-11
8.552108841e-15
1.33380114e-10
1.877622165e-14
2.16287126e-10
3.249799614e-14
2.945072473e-10
4.932057736e-14
3.682377228e-10
6.882547906e-14
4.376688496e-10
9.058739038e-14
5.0298421e-10
1.142219232e-13
5.643607205e-10
1.393286966e-13
6.219689402e-10
1.654462811e-13
6.759732337e-10
1.922171819e-13
7.265318525e-10
2.19332573e-13
7.737971023e-10
2.463403504e-13
8.179157586e-10
2.730106156e-13
8.590288502e-10
2.990225919e-13
8.972720902e-10
3.240676071e-13
9.327761162e-10
3.480158151e-13
9.656662217e-10
3.704978094e-13
9.960631573e-10
3.91519048e-13
1.024082594e-09
4.106922847e-13
1.049836019e-09
4.280984087e-13
1.073430063e-09
4.434134056e-13
1.094967505e-09
4.56753955e-13
1.114546579e-09
4.678170759e-13
1.132261975e-09
4.767729714e-13
1.148204075e-09
4.833245801e-13
1.162460071e-09
4.876847218e-13
1.17511303e-09
4.896142158e-13
1.186243131e-09
4.892981942e-13
1.19592666e-09
4.865923539e-13
1.204237253e-09
4.816159354e-13
1.21124495e-09
4.743101868e-13
1.217017366e-09
4.647293235e-13
1.22161873e-09
4.529210649e-13
1.225111014e-09
4.388610503e-13
1.227553138e-09
4.226925279e-13
1.22900178e-09
4.043231267e-13
1.229511033e-09
3.839699375e-13
1.229132643e-09
3.614767596e-13
1.227916271e-09
3.371455788e-13
1.225909097e-09
3.107945351e-13
1.223156649e-09
2.827127298e-13
1.219701964e-09
2.527561426e-13
1.215586678e-09
2.211833827e-13
1.210850107e-09
1.878973505e-13
1.205530269e-09
1.531362215e-13
1.199663009e-09
1.168218002e-13
1.193283029e-09
7.918336017e-14
1.186423029e-09
4.016327224e-14
1.179114641e-09
1.171387595e-09
2.065255454e-15
4.557982746e-11
8.082309249e-15
1.33374097e-10
1.773571018e-14
2.162774726e-10
3.067207482e-14
2.94494311e-10
4.651017528e-14
3.682218847e-10
6.484631069e-14
4.376505135e-10
8.531402543e-14
5.029637423e-10
1.0750903e-13
5.643385255e-10
1.309896499e-13
6.219454595e-10
1.553835856e-13
6.759488398e-10
1.803958888e-13
7.265068402e-10
2.055809042e-13
7.737719173e-10
2.306523799e-13
8.178906871e-10
2.553663263e-13
8.590041363e-10
2.793281925e-13
8.972481284e-10
3.024467808e-13
9.327529976e-10
3.243768978e-13
9.656442916e-10
3.450093728e-13
9.960425248e-10
3.641221797e-13
1.024063481e-09
3.815933882e-13
1.049818548e-09
3.973135255e-13
1.073414343e-09
4.11171802e-13
1.094953647e-09
4.231056228e-13
1.114534646e-09
4.330357243e-13
1.132252045e-09
4.409164895e-13
1.148196194e-09
4.467242862e-13
1.162454263e-09
4.504029582e-13
1.175109351e-09
4.52006233e-13
1.186241528e-09
4.514455293e-13
1.195927221e-09
4.4885568e-13
1.204239843e-09
4.440785026e-13
1.211249727e-09
4.373291905e-13
1.217024115e-09
4.284022965e-13
1.221627657e-09
4.175663019e-13
1.22512185e-09
4.046239694e-13
1.22756608e-09
3.898001283e-13
1.229016604e-09
3.729778899e-13
1.229527856e-09
3.543012024e-13
1.22915132e-09
3.337376291e-13
1.227936835e-09
3.113800903e-13
1.225931454e-09
2.872592596e-13
1.22318077e-09
2.614118533e-13
1.219727812e-09
2.33921775e-13
1.215614168e-09
2.047954893e-13
1.210879233e-09
1.741595057e-13
1.205560905e-09
1.42001266e-13
1.199695167e-09
1.084617897e-13
1.193316569e-09
7.353825608e-14
1.186457952e-09
3.738052564e-14
1.179150799e-09
1.171424975e-09
1.892439922e-15
4.557793502e-11
7.405737054e-15
1.333685837e-10
1.624315213e-14
2.162686352e-10
2.80681745e-14
2.94482486e-10
4.253145797e-14
3.682074214e-10
5.927111818e-14
4.376337739e-10
7.790408586e-14
5.029451093e-10
9.802153891e-14
5.643184081e-10
1.192549343e-13
6.219242262e-10
1.413079726e-13
6.759267867e-10
1.637739496e-13
7.264843742e-10
1.863179139e-13
7.737493733e-10
2.08753496e-13
8.178682515e-10
2.306803177e-13
8.589822094e-10
2.519342116e-13
8.972268745e-10
2.72300381e-13
9.327326314e-10
2.91531616e-13
9.656250604e-10
3.095741159e-13
9.960244823e-10
3.261209533e-13
1.024046934e-09
3.412699356e-13
1.049803399e-09
3.547109001e-13
1.073400902e-09
3.666034282e-13
1.094941754e-09
3.766477061e-13
1.114524601e-09
3.850466561e-13
1.132243646e-09
3.915200168e-13
1.148189721e-09
3.962960127e-13
1.162449487e-09
3.991381925e-13
1.175106509e-09
4.002575157e-13
1.186240408e-09
3.994879023e-13
1.195927991e-09
3.969827745e-13
1.204242348e-09
3.926393994e-13
1.21125407e-09
3.865481017e-13
1.217030206e-09
3.78694084e-13
1.221635511e-09
3.690908769e-13
1.225131453e-09
3.57802034e-13
1.227577369e-09
3.447719657e-13
1.229029634e-09
3.301277157e-13
1.2295425e-09
3.137458117e-13
1.229167702e-09
2.958295971e-13
1.227954751e-09
2.7620493e-13
1.225951079e-09
2.551215859e-13
1.223201853e-09
2.323774934e-13
1.219750556e-09
2.082363979e-13
1.21563831e-09
1.825055904e-13
1.210904964e-09
1.554507594e-13
1.20558796e-09
1.268939908e-13
1.199723724e-09
9.709431571e-14
1.193346369e-09
6.590322302e-14
1.186489143e-09
3.358689968e-14
1.179183115e-09
1.171458562e-09
1.656657433e-15
4.557627837e-11
6.483411617e-15
1.333637569e-10
1.421420856e-14
2.162609044e-10
2.454814531e-14
2.94472152e-10
3.716518463e-14
3.681948044e-10
5.170953885e-14
4.376192295e-10
6.782019358e-14
5.029289987e-10
8.515152954e-14
5.643010767e-10
1.034128546e-13
6.219059648e-10
1.222382039e-13
6.759079614e-10
1.412834394e-13
7.26465329e-10
1.603654163e-13
7.737302913e-10
1.791573332e-13
8.178494596e-10
1.974119943e-13
8.589639548e-10
2.150335546e-13
8.972092529e-10
2.316976459e-13
9.327159674e-10
2.474022367e-13
9.656093558e-10
2.618973723e-13
9.960099871e-10
2.751689137e-13
1.024033663e-09
2.870998678e-13
1.049791468e-09
2.976594152e-13
1.073390342e-09
3.067975328e-13
1.094932616e-09
3.144899719e-13
1.114516909e-09
3.207188156e-13
1.132237417e-09
3.254886125e-13
1.148184951e-09
3.287811666e-13
1.162446195e-09
3.306506298e-13
1.17510464e-09
3.310532246e-13
1.186240006e-09
3.300982061e-13
1.195928946e-09
3.276761382e-13
1.20424477e-09
3.239516716e-13
1.211257795e-09
3.187570973e-13
1.217035401e-09
3.123255835e-13
1.221641943e-09
3.044253732e-13
1.225139353e-09
2.953068636e-13
1.227586488e-09
2.84756512e-13
1.229040184e-09
2.729529185e-13
1.229554303e-09
2.597515969e-13
1.229180903e-09
2.452759762e-13
1.227969227e-09
2.29437347e-13
1.225966918e-09
2.122993142e-13
1.223218991e-09
1.938212508e-13
1.219769034e-09
1.740332544e-13
1.215658098e-09
1.529372879e-13
1.21092606e-09
1.305447346e-13
1.205610352e-09
1.068761678e-13
1.199747393e-09
8.195006547e-14
1.193371295e-09
5.580548394e-14
1.186515288e-09
2.847916089e-14
1.179210442e-09
1.171487041e-09
1.348617005e-15
4.557492975e-11
5.276279437e-15
1.333598293e-10
1.155506891e-14
2.162546256e-10
1.991921208e-14
2.944637879e-10
3.00726449e-14
3.681846509e-10
4.170681453e-14
4.376075953e-10
5.451967317e-14
5.029161858e-10
6.823752776e-14
5.642873589e-10
8.253917677e-14
6.218916632e-10
9.710953585e-14
6.75893391e-10
1.117579877e-13
7.264506805e-10
1.262391349e-13
7.737158102e-10
1.402670103e-13
8.178354317e-10
1.537926726e-13
8.589504291e-10
1.665678279e-13
8.971964777e-10
1.785008326e-13
9.327040343e-10
1.89519762e-13
9.655983368e-10
1.994603184e-13
9.960000466e-10
2.084214462e-13
1.024024702e-09
2.16198974e-13
1.049783691e-09
2.229917933e-13
1.073383549e-09
2.285695865e-13
1.094927038e-09
2.331916793e-13
1.114512287e-09
2.366268051e-13
1.132233982e-09
2.391554653e-13
1.148182423e-09
2.405654357e-13
1.162444785e-09
2.41126616e-13
1.175104079e-09
2.406657955e-13
1.186240467e-09
2.393983445e-13
1.195930213e-09
2.371840495e-13
1.204246984e-09
2.341704827e-13
1.211260808e-09
2.302775182e-13
1.217039294e-09
2.255721469e-13
1.221646648e-09
2.200250451e-13
1.2251449e-09
2.136272867e-13
1.227592886e-09
2.063951963e-13
1.229047417e-09
1.982376801e-13
1.229562461e-09
1.892307885e-13
1.22918991e-09
1.792256047e-13
1.227979232e-09
1.683356052e-13
1.225977808e-09
1.563586808e-13
1.223230968e-09
1.434478648e-13
1.219781945e-09
1.293730367e-13
1.215672172e-09
1.143223441e-13
1.21094111e-09
9.805195718e-14
1.205626623e-09
8.075660556e-14
1.199764688e-09
6.222081672e-14
1.193389831e-09
4.26474922e-14
1.186534861e-09
2.184138171e-14
1.179231248e-09
1.171508883e-09
9.508709107e-16
4.557397888e-11
3.717232689e-15
1.333570629e-10
8.113425561e-15
2.162502294e-10
1.392157593e-14
2.944579797e-10
2.08974914e-14
3.68177675e-10
2.880514832e-14
4.375996877e-10
3.74045373e-14
5.029075864e-10
4.642806736e-14
5.642783354e-10
5.561047005e-14
6.218824808e-10
6.477699713e-14
6.758842245e-10
7.375515564e-14
7.264417024e-10
8.228410986e-14
7.737072812e-10
9.030066337e-14
8.178274152e-10
9.768954971e-14
8.589430402e-10
1.042851235e-13
8.971898822e-10
1.101747779e-13
9.326981447e-10
1.151523443e-13
9.655933593e-10
1.193530778e-13
9.959958459e-10
1.227023031e-13
1.024021353e-09
1.252924389e-13
1.049781101e-09
1.271365763e-13
1.073381705e-09
1.283053374e-13
1.09492587e-09
1.288583609e-13
1.114511734e-09
1.288633634e-13
1.132233977e-09
1.283869309e-13
1.148182899e-09
1.275127941e-13
1.162445659e-09
1.262824946e-13
1.175105309e-09
1.248019144e-13
1.186241947e-09
1.23044259e-13
1.195931971e-09
1.211364843e-13
1.204248892e-09
1.189827115e-13
1.211262962e-09
1.167480107e-13
1.217041528e-09
1.142411454e-13
1.221649155e-09
1.116709616e-13
1.225147471e-09
1.087772093e-13
1.227595779e-09
1.057520566e-13
1.229050442e-09
1.023159916e-13
1.229565897e-09
9.86185212e-14
1.229193608e-09
9.441877455e-14
1.227983431e-09
8.979319258e-14
1.225982433e-09
8.453473276e-14
1.223236226e-09
7.867796246e-14
1.219787801e-09
7.205005427e-14
1.2156788e-09
6.466410116e-14
1.210948496e-09
5.636486673e-14
1.205634922e-09
4.716649111e-14
1.199773887e-09
3.694038153e-14
1.193400057e-09
2.572190068e-14
1.18654608e-09
1.338185596e-14
1.179243588e-09
1.171522265e-09
4.440590573e-16
4.557353482e-11
1.731930206e-15
1.33355775e-10
3.736097378e-15
2.162482253e-10
6.306160229e-15
2.944554097e-10
9.278708892e-15
3.681747025e-10
1.247886315e-14
4.375964875e-10
1.570492549e-14
5.029043604e-10
1.876287135e-14
5.642752774e-10
2.151860405e-14
6.21879725e-10
2.386791607e-14
6.758818752e-10
2.561091876e-14
7.264399594e-10
2.668809005e-14
7.73706204e-10
2.711033054e-14
8.178269929e-10
2.672102623e-14
8.589434295e-10
2.562233326e-14
8.971909809e-10
2.378911269e-14
9.326999779e-10
2.12495163e-14
9.655958989e-10
1.816484497e-14
9.959989305e-10
1.449717694e-14
1.02402502e-09
1.052906219e-14
1.049785069e-09
6.168772995e-15
1.073386065e-09
1.7678893e-15
1.09493027e-09
-2.786337861e-15
1.114516288e-09
-7.124671002e-15
1.132238315e-09
-1.137011531e-14
1.148187144e-09
-1.515709118e-14
1.162449446e-09
-1.862457235e-14
1.175108776e-09
-2.145327307e-14
1.186244776e-09
-2.379441244e-14
1.195934312e-09
-2.540679401e-14
1.204250505e-09
-2.642042232e-14
1.211263976e-09
-2.668829471e-14
1.217041796e-09
-2.633109921e-14
1.221648798e-09
-2.529290985e-14
1.225146432e-09
-2.368076629e-14
1.227594167e-09
-2.154344726e-14
1.229048304e-09
-1.895736458e-14
1.229563311e-09
-1.605028801e-14
1.229190701e-09
-1.288091964e-14
1.227980262e-09
-9.650556424e-15
1.225979203e-09
-6.395505378e-15
1.223232971e-09
-3.359402008e-15
1.219784765e-09
-5.538271936e-16
1.215675995e-09
1.752815785e-15
1.21094619e-09
3.560076266e-15
1.205633115e-09
4.615916198e-15
1.199772831e-09
4.935052099e-15
1.193399737e-09
4.292706449e-15
1.186546722e-09
2.703865237e-15
1.179245177e-09
1.171524969e-09
-1.904173723e-16
4.557372524e-11
-7.526211447e-16
1.333563372e-10
-1.733778769e-15
2.162492064e-10
-3.201838955e-15
2.944568777e-10
-5.236357821e-15
3.68176737e-10
-7.9546025e-15
4.375992058e-10
-1.145744453e-14
5.029078632e-10
-1.580969544e-14
5.642796297e-10
-2.104929519e-14
6.218849646e-10
-2.727458749e-14
6.758881005e-10
-3.451746372e-14
7.264472022e-10
-4.267801865e-14
7.737143646e-10
-5.179726916e-14
8.178361122e-10
-6.17925499e-14
8.589534248e-10
-7.249265654e-14
8.97201681e-10
-8.392101282e-14
9.327114063e-10
-9.575465863e-14
9.656077325e-10
-1.07952717e-13
9.960111286e-10
-1.202360119e-13
1.024037303e-09
-1.324589794e-13
1.049797292e-09
-1.443935776e-13
1.073398e-09
-1.558351087e-13
1.094941712e-09
-1.665946387e-13
1.114527048e-09
-1.764548659e-13
1.132248176e-09
-1.852519591e-13
1.148195942e-09
-1.927961493e-13
1.16245699e-09
-1.989424824e-13
1.175114923e-09
-2.035799618e-13
1.186249413e-09
-2.065855169e-13
1.195937317e-09
-2.079391689e-13
1.204251858e-09
-2.075213599e-13
1.211263558e-09
-2.054281755e-13
1.217039703e-09
-2.015420814e-13
1.221644912e-09
-1.960704842e-13
1.225140961e-09
-1.889109665e-13
1.227587008e-09
-1.803736837e-13
1.229039767e-09
-1.703547092e-13
1.229553292e-09
-1.592264956e-13
1.229179572e-09
-1.46939477e-13
1.227967975e-09
-1.338968713e-13
1.22596616e-09
-1.200888189e-13
1.223219163e-09
-1.059151982e-13
1.219770592e-09
-9.139675008e-14
1.215661476e-09
-7.69276516e-14
1.21093172e-09