/*--------------------------------*- C++ -*----------------------------------*\
  =========                 |
  \\      /  F ield         | OpenFOAM: The Open Source CFD Toolbox
   \\    /   O peration     | Website:  https://openfoam.org
    \\  /    A nd           | Version:  7
     \\/     M anipulation  |
\*---------------------------------------------------------------------------*/
FoamFile
{
    version     2.0;
    format      ascii;
    class       volScalarField;
    location    "0.0003";
    object      generalizedNewtonian:nu;
}
// * * * * * * * * * * * * * * * * * * * * * * * * * * * * * * * * * * * * * //

dimensions      [0 2 -1 0 0 0 0];

internalField   nonuniform List<scalar> 
1167
(
909.9628781
906.6796855
900.2005126
890.3372292
877.7292697
862.607425
845.2516145
825.9739116
805.0696915
782.8031899
759.4299468
735.2199213
710.3902912
685.1535993
659.7330509
634.2717891
608.9604792
583.9086982
559.2615864
535.1027483
511.5370092
488.6164439
466.416335
444.9584245
424.2961499
404.4283503
385.3876211
367.15837
349.7476517
333.140911
317.3235439
302.2820914
287.9859699
274.4238794
261.5556405
249.3646681
885.1767875
881.9692062
875.658806
866.0345731
853.7103672
838.9487802
822.0331276
803.2614765
782.8874131
761.1893544
738.4419366
714.8719495
690.7015038
666.169706
641.4336638
616.6919222
592.0842163
567.7513729
543.8109223
520.3590739
497.4823201
475.2445398
453.7005249
432.8911086
412.8423604
393.5819172
375.1078559
357.4368321
340.547908
324.4491127
309.1106693
294.5244652
280.6643533
267.5068878
255.0296125
243.1991761
231.9982202
221.3884534
211.3516755
201.8523465
192.8685789
184.3707153
176.3340656
168.7345436
161.5458101
154.7476715
148.314209
142.2295761
136.4709483
131.0112977
861.4749625
858.3296314
852.1647333
842.7659006
830.7510808
816.3643355
799.8771847
781.5540881
761.6885932
740.5569614
718.3895784
695.4236447
671.9064426
648.0154146
623.9547873
599.8931871
575.9653013
552.324211
529.055194
506.283517
484.0587387
462.4738552
441.5541324
421.3594648
401.9026874
383.2131209
365.29189
348.1429141
331.7636671
316.1383757
301.2627221
287.1060008
273.6624887
260.8941976
248.7858662
237.3062819
226.4312246
216.1346431
206.3859561
197.164324
188.4356177
180.1832203
172.3733664
164.9894261
158.0017602
151.3926588
145.1373149
139.2187698
133.6176693
128.30458
838.791468
835.7220549
829.717814
820.5445093
808.8204373
794.7660527
778.6582386
760.7876373
741.4301707
720.8152408
699.1981255
676.8336239
653.9169122
630.6580636
607.2520394
583.8311979
560.5721068
537.5727232
514.9657617
492.8236749
471.2406928
450.2622379
429.9529374
410.3344338
391.4516891
373.3000486
355.909242
339.2600284
323.3629825
308.1980831
293.756715
280.0197679
266.9639305
254.5720051
242.8112172
231.6678943
221.1048454
211.1051471
201.6356744
192.6749189
184.1950683
176.1717437
168.5822061
161.4003217
154.6069765
148.1762874
142.092487
136.331467
130.8817067
125.7076654
817.0820901
814.077775
808.2202886
799.2417267
787.7706062
774.0475117
758.335952
740.9110784
722.0042623
701.8888237
680.8249991
659.0199866
636.6895212
614.0532353
591.2487598
568.4624035
545.8210111
523.4541991
501.4668805
479.9441542
458.9650804
438.5823793
418.8487671
399.7971881
381.4520991
363.8298944
346.9331841
330.7708067
315.3272279
300.6060029
286.5781868
273.2404472
260.5601458
248.5228971
237.1012954
226.2719786
216.011624
206.2905426
197.0897688
188.376011
180.133946
172.3305643
164.9499434
157.9632481
151.3532404
145.0956241
139.1730344
133.5652569
128.2572822
123.2186914
796.1623822
793.2174083
787.4995781
778.7358784
767.5490832
754.164902
738.8270583
721.7903939
703.3372795
683.729826
663.1821133
641.9225493
620.1792584
598.1096656
575.9061069
553.7244568
531.6862861
509.9338121
488.5393355
467.6193894
447.2140756
427.408728
408.2230493
389.7161848
371.8865675
354.7674566
338.3514886
322.6491937
307.649337
293.3438193
279.7199399
266.7556559
254.4382076
242.736345
231.6393677
221.111689
211.1381243
201.6872624
192.7387972
184.2660992
176.245771
168.655856
161.4710273
154.6726826
148.235629
142.1443164
136.3744469
130.9134431
125.7401663
120.8315324
776.0080947
773.1348924
767.5651797
759.0102172
748.0839671
734.9887262
719.989874
703.3663739
685.3780612
666.2414918
646.1998092
625.4899862
604.2882406
582.7881275
561.1763419
539.572257
518.1359433
496.9586007
476.1568542
455.7996685
435.9654977
416.7017673
398.0599889
380.0620958
362.739146
346.0941584
330.145858
314.8799894
300.3071487
286.4009501
273.1612089
260.5598347
248.5843038
237.2103959
226.416519
216.1815013
206.4773322
197.2863717
188.5768656
180.3342376
172.5265987
165.1390869
158.1430828
151.5223739
145.252784
139.3176363
133.6960267
128.3723649
123.3301206
118.5430787
756.5263582
753.7161324
748.2764953
739.8941194
729.1982148
716.410708
701.78397
685.5796851
668.0150437
649.348663
629.8240592
609.6315338
588.96961
568.0438076
546.9856077
525.96215
505.0936184
484.4900973
464.2548163
444.4534481
425.1682722
406.4365489
388.3146764
370.8174689
353.9776168
337.7992426
322.293602
307.4579306
293.2857504
279.7702883
266.8917879
254.6413787
242.9903017
231.9303468
221.4280901
211.4706057
202.0276008
193.0808376
184.604294
176.5762646
168.9750812
161.7768464
154.9629945
148.5094957
142.4007342
136.6132572
131.1336379
125.9402926
121.023428
116.3517295
737.4933303
734.7446684
729.4308445
721.2535963
710.8346156
698.378963
684.1191745
668.2928075
651.1674088
632.9894147
613.957942
594.2803732
574.1724795
553.7868528
533.2912928
512.8380657
492.5278216
472.4958644
452.8062985
433.559156
414.7995525
396.5957242
378.9695339
361.9650411
345.5868979
329.8631139
314.7821537
300.3613378
286.5776212
273.434748
260.9086603
248.9898255
237.6567023
226.8904599
216.6716766
206.9748465
197.7832725
189.0674736
180.8132203
172.9901493
165.584866
158.5684825
151.9264316
145.6341609
139.6763803
134.0316531
128.6848523
123.617747
118.817998
114.257838
718.8585806
716.1915807
711.0223147
703.0622619
692.9122278
680.755305
666.8388835
651.4271379
634.7646633
617.0552317
598.5172433
579.3763506
559.8039896
539.9670783
520.0439585
500.1415182
480.4020773
460.9165501
441.7800513
423.0667442
404.8353043
387.1385647
370.0076387
353.4752042
337.5569474
322.2659273
307.6075238
293.5780754
280.1764999
267.3863878
255.2025394
243.5996408
232.5717215
222.0881845
212.1390112
202.694589
193.7397183
185.2485298
177.2018534
169.5779015
162.3548837
155.513904
149.0326329
142.8950234
137.0790803
131.5707596
126.3490301
121.4023435
116.7130253
112.2595102
700.5482527
697.9589119
692.9165696
685.152292
675.2450329
663.404188
649.8772041
634.9015796
618.6808722
601.4468571
583.4326411
564.8246143
545.7930106
526.5277101
507.1570365
487.8219267
468.6464467
449.7115444
431.1287965
412.943726
395.239496
378.0395028
361.3999184
345.3284671
329.862192
314.9935225
300.745676
287.100516
274.0663208
261.6227658
249.7645638
238.4725699
227.7319054
217.5246525
207.8287222
198.6282141
189.8967505
181.620265
173.7706159
166.3356694
159.2866661
152.6111417
146.2837632
140.291215
134.6112629
129.2303079
124.1286367
119.2941361
114.7106447
110.3566688
682.3208082
679.8114486
674.8880457
667.3435374
657.7345452
646.2524982
633.1280684
618.5628216
602.8018944
586.0816634
568.5989389
550.5267085
532.0665416
513.3691376
494.5691479
475.8192324
457.2039805
438.8408902
420.7991166
403.1581488
385.9677333
369.2750897
353.1134021
337.5098177
322.4801333
308.0377942
294.1831555
280.9207705
268.2386625
256.1353767
244.5900974
233.5992006
223.1356567
213.1931733
203.742643
194.7730661
186.2584199
178.1831065
170.5249618
163.2651789
156.3842619
149.862286
143.6825092
137.824916
132.2747274
127.0124622
122.0251223
117.2952973
112.8124644
108.5513022
664.0384998
661.6370687
656.8619407
649.5724405
640.2763551
629.1493798
616.4020336
602.2833186
587.0281681
570.8381687
553.8896342
536.3922745
518.5198602
500.4036235
482.2078085
464.0387759
446.0090524
428.2202461
410.7366245
393.645837
376.9768101
360.795926
345.1148361
329.9792926
315.3866027
301.3660477
287.9049835
275.017228
262.6861181
250.9119947
239.6780114
228.9746491
218.7854232
209.0928956
199.8820482
191.1306201
182.8247822
174.9399848
167.4639053
160.3702477
153.6481269
147.271803
141.2304901
135.5008715
130.0716632
124.9219186
120.0408534
115.4101156
111.0206999
106.8471077
645.6362929
643.3414834
638.7007731
631.6586053
622.6516106
611.8761932
599.5639523
585.9420404
571.2128554
555.5581345
539.1913414
522.3031623
505.025885
487.5311197
469.9529631
452.3927146
434.9775269
417.7751794
400.8799958
384.3404389
368.2183267
352.5480188
337.3676541
322.6963098
308.5553816
294.9500893
281.8906592
269.3705477
257.3923298
245.9407527
235.0148905
224.5928307
214.670917
205.2230104
196.2428269
187.7041965
179.5964167
171.8968638
164.5909052
157.6583722
151.0827554
144.8465224
138.9324537
133.324886
128.0066698
122.9637359
118.1800585
113.6430535
109.3389689
105.2485661
626.8477726
624.6554029
620.131385
613.3386995
604.6623048
594.302056
582.4686769
569.359124
555.1639257
540.0991413
524.3602081
508.0891573
491.4553433
474.6197819
457.6812084
440.774193
423.9880687
407.4084455
391.1170971
375.1579778
359.5998604
344.4618977
329.7963826
315.6057806
301.9258272
288.7489735
276.0956316
263.9526323
252.3272394
241.2048562
230.5828
220.4460598
210.7834716
201.5810466
192.8220118
184.4931023
176.5745312
169.0541897
161.9099655
155.1307117
148.6938163
142.5893944
136.7948429
131.3011672
126.0864898
121.1425012
116.4491246
111.998493
107.7730553
103.7595762
607.3882119
605.3216209
600.9539581
594.4648083
586.1666205
576.2499334
564.8997259
552.3164599
538.7134585
524.287007
509.1889606
493.5877718
477.6525604
461.4959489
445.2467402
429.026201
412.9071814
396.9922795
381.3304335
365.9937824
351.0181415
336.4505922
322.3136444
308.6357926
295.4273743
282.7038555
270.4646007
258.7162466
247.4498033
236.6673203
226.3533029
216.5062648
207.1054457
198.1484438
189.6110586
181.4883871
173.7576479
166.4099454
159.4246228
152.7900508
146.4880893
140.5055887
134.8261047
129.4358634
124.3198545
119.4647724
114.856598
110.4829054
106.3312064
102.3861901
587.1547153
585.2219327
581.0328976
574.8601466
566.9465523
557.4673444
546.6263807
534.6287636
521.6664174
507.8975468
493.4886547
478.6139711
463.4044682
447.9801585
432.4758428
416.97376
401.5759998
386.3560891
371.3716108
356.6896869
342.3384168
328.3726914
314.8010466
301.6644083
288.9593468
276.7131122
264.9151863
253.5804028
242.6958505
232.2666993
222.279163
212.7296888
203.6050913
194.8957647
186.5892208
178.6720017
171.1327584
163.9549409
157.1278076
150.6336477
144.4627028
138.5966325
133.0262527
127.7332098
122.7090019
117.9361232
113.4060553
109.1025507
105.0177712
101.1347437
565.9445944
564.1326763
560.1299619
554.2630397
546.7347159
537.7372619
527.4630919
516.0959112
503.7955887
490.7274431
477.0650072
462.9562181
448.5146879
433.8806277
419.1555126
404.4267597
389.7976703
375.3169107
361.062778
347.07241
333.3986833
320.0670824
307.1107673
294.544833
282.3882745
270.6464822
259.3290004
248.4330822
237.9630898
227.9101101
218.2746422
209.0425303
200.2129032
191.7675821
183.7048976
176.0048543
168.6649391
161.6643648
154.9980976
148.647897
142.6064806
136.8571798
131.3913072
126.1934132
121.2544996
116.5599512
112.100587
107.8624174
103.8371351
100.0108155
543.4953659
541.7920719
538.0022925
532.4664838
525.374043
516.9049279
507.2319912
496.5118524
484.910088
472.5952414
459.725598
446.4133764
432.7937603
418.9930971
405.0908662
391.1935783
377.36744
363.6804293
350.1958704
336.9483094
323.9934728
311.3445825
299.0450142
287.0959337
275.5280303
264.3341646
253.535277
243.1190968
233.0985201
223.4597331
214.2070389
205.3269816
196.8178953
188.6670326
180.8683034
173.4105833
166.2841494
159.4789
152.9834841
146.7889084
140.8826301
135.256152
129.8964032
124.7953512
119.9401519
115.3225237
110.9299704
106.7540751
102.7830985
99.00983634
519.7037157
518.1079908
514.5849196
509.404995
502.7721351
494.8488629
485.7816783
475.7364753
464.8762027
453.3568167
441.2976856
428.8292897
416.0815499
403.1429247
390.1113869
377.0804909
364.1030559
351.2569199
338.5796088
326.1262221
313.9245445
302.009621
290.4009822
279.1186634
268.1740481
257.5770173
247.3312845
237.4415399
227.9055508
218.7243484
209.8900525
201.4020845
193.2485846
185.4280195
177.9264738
170.7421636
163.8591471
157.2756548
150.9754545
144.9571137
139.2043483
133.7150406
128.4739492
123.478354
118.7140273
114.1773168
109.8544934
105.7418413
101.8255333
98.1034797
494.6184795
493.1146686
489.8903387
485.0582154
478.8863912
471.502945
463.064772
453.7260756
443.6371025
432.9227517
421.7072965
410.1190811
398.2617159
386.2225753
374.101912
361.9612
349.8720887
337.8923999
326.0602995
314.4303974
303.0191111
291.8700529
280.988778
270.4063951
260.1212627
250.1546236
240.4991871
231.1703077
222.1563886
213.4678809
205.0902176
197.0293518
189.2705891
181.815108
174.6501263
167.7727646
161.1714913
154.8412182
148.7722034
142.9579994
137.3900761
132.061514
126.9648366
122.0933474
117.4397534
112.9974651
108.7593606
104.7194376
100.8698316
97.20292486
468.3133545
466.879489
463.9769585
459.4751099
453.7612294
446.9413994
439.1530123
430.538827
421.2244921
411.3302979
400.9785701
390.2846202
379.3308127
368.2143101
357.0141962
345.7874237
334.6076157
323.5112151
312.5518739
301.7588123
291.1661411
280.7971393
270.670735
260.8041277
251.2058248
241.8865424
232.8492495
224.0991713
215.6359326
207.4589339
199.5663949
191.9535312
184.6176115
177.5510962
170.7511489
164.2075182
157.9171956
151.869265
146.0613058
140.4819283
135.129131
129.9919071
125.0690975
120.3506624
115.8352682
111.5138992
107.3854222
103.4427488
99.68499585
96.09118244
440.9480394
439.5700466
437.0093847
432.8453278
427.6041378
421.3552057
414.22074
406.3235522
397.7819346
388.7119957
379.2313913
369.4247305
359.3791046
349.1888376
338.9077097
328.6046313
318.3314219
308.126817
298.0418628
288.0944959
278.3259173
268.7451444
259.3814337
250.2382025
241.3352593
232.6712621
224.2604194
216.0977558
208.1929264
200.5370999
193.1377141
185.9829549
179.0785509
172.4114705
165.9857392
159.7877638
153.8189785
148.0677046
142.533624
137.2063749
132.0847683
127.1600115
122.4311701
117.8906281
113.5376606
109.3655434
105.3745036
101.5601244
97.92713843
94.43549786
273.5151101
264.5593547
255.7663647
247.1573703
238.7381374
230.5250024
222.5181981
214.729814
207.1572314
199.8074458
192.6763031
185.7669784
179.0746238
172.5992913
166.3365056
160.283399
154.4356544
148.7891504
143.3402614
138.0840211
133.0173975
128.135413
123.4361339
118.9153922
114.5715559
110.4012673
106.4031145
102.5747349
98.91761654
95.43695569
92.07897172
)
;

boundaryField
{
    front_top
    {
        type            wedge;
    }
    front_middle
    {
        type            wedge;
    }
    front_bottom
    {
        type            wedge;
    }
    back_top
    {
        type            wedge;
    }
    back_middle
    {
        type            wedge;
    }
    back_bottom
    {
        type            wedge;
    }
    axis_top
    {
        type            symmetryPlane;
    }
    axis_middle
    {
        type            symmetryPlane;
    }
    axis_bottom
    {
        type            symmetryPlane;
    }
    wall_top
    {
        type            calculated;
        value           nonuniform List<scalar> 
23
(
128.3715911
125.735109
123.2075008
120.7826983
118.4566427
116.2265825
114.0925047
112.0518566
110.103633
108.2483663
106.4885433
104.8277901
103.268265
101.8155505
100.4753397
99.25480103
98.15859023
97.18123395
96.29629495
95.41702726
94.33190881
92.71674171
90.41753975
)
;
    }
    wall_middle
    {
        type            calculated;
        value           nonuniform 0();
    }
    wall_bottom
    {
        type            calculated;
        value           nonuniform 0();
    }
    inlet
    {
        type            calculated;
        value           nonuniform 0();
    }
    outlet
    {
        type            calculated;
        value           nonuniform 0();
    }
    procBoundary7to6
    {
        type            processor;
        value           nonuniform List<scalar> 
51
(
412.8343756
411.5098145
409.3067633
405.4774978
400.7020882
395.014888
388.5141556
381.3179005
373.5381779
365.2863955
356.6541066
347.7235339
338.582588
329.2981819
319.9264917
310.5354235
301.1576388
291.8421134
282.6177375
282.6177375
258.1688597
250.0110971
241.995156
234.1281999
226.4264987
218.8937435
211.5409897
204.3693616
197.3860883
190.5891253
183.9838439
177.5656541
171.3385311
165.2964664
159.4428002
153.7697393
148.2801928
142.9661677
137.8308621
132.8660421
128.0751622
123.4504432
118.9959555
114.7048615
110.5808336
106.6179328
102.8190981
99.17909426
95.70402778
92.39795979
89.19823049
)
;
    }
    procBoundary7to8
    {
        type            processor;
        value           nonuniform List<scalar> 
51
(
935.9944685
932.6198512
925.9531654
915.8297616
902.8836303
887.3631092
869.5780135
849.7966991
828.3180261
805.440392
781.4357599
756.539342
731.0140161
705.0613902
678.8882807
652.6932556
626.6156922
600.830327
575.4249096
550.5437473
526.2417293
502.6245044
479.722636
457.6039299
436.2835735
415.7946031
396.1454649
377.3386056
359.3754172
342.2360654
325.9213323
310.3964696
295.6529127
281.6564856
268.3847998
255.8092363
237.8151196
237.8151196
226.8828085
216.5382598
206.7507909
197.4969986
188.7426511
180.4692052
172.6424862
165.2454739
158.2470742
151.6298483
145.3685734
139.4478657
133.8320433
)
;
    }
}


// ************************************************************************* //
