/*--------------------------------*- C++ -*----------------------------------*\
  =========                 |
  \\      /  F ield         | OpenFOAM: The Open Source CFD Toolbox
   \\    /   O peration     | Website:  https://openfoam.org
    \\  /    A nd           | Version:  7
     \\/     M anipulation  |
\*---------------------------------------------------------------------------*/
FoamFile
{
    version     2.0;
    format      ascii;
    class       volVectorField;
    location    "0.0003";
    object      grad(generalizedNewtonian:nu);
}
// * * * * * * * * * * * * * * * * * * * * * * * * * * * * * * * * * * * * * //

dimensions      [0 1 -1 0 0 0 0];

internalField   nonuniform List<vector> 
1167
(
(-99142.67754 -2.2053486e-07 584256.2062)
(-215831.509 0 582336.817)
(-348197.0829 4.647337568e-08 578241.4532)
(-479368.1533 0 572503.2178)
(-599343.9666 0 565356.3568)
(-713096.5088 0 556632.5729)
(-818081.241 1.997471216e-08 546633.6358)
(-913255.1319 0 535023.0148)
(-998987.1607 -8.073877753e-09 522324.7317)
(-1075506.101 -7.42733373e-09 508764.2551)
(-1142016.24 0 494307.6869)
(-1198855.794 6.485422231e-09 479058.8032)
(-1246780.972 0 463481.8971)
(-1285060.093 0 447144.3742)
(-1314961.504 0 430625.1781)
(-1336727.329 0 413914.7262)
(-1350868.018 0 397017.9866)
(-1358090.281 0 380316.3285)
(-1358787.155 2.445383862e-09 363474.8504)
(-1353672.895 0 347040.1288)
(-1343387.506 4.662950627e-09 330654.8145)
(-1328469.503 0 314793.4243)
(-1309636.86 2.243978923e-09 299183.1416)
(-1287303.454 0 284128.3401)
(-1262069.012 0 269509.7174)
(-1234405.589 0 255383.7638)
(-1204729.949 0 241874.9314)
(-1173761.937 0 228815.3604)
(-1141461.523 0 216464.8173)
(-1108521.155 0 204501.355)
(-1074908.028 2.05907779e-09 193276.3626)
(-1041205.406 0 182484.9645)
(-1007350.735 0 172326.996)
(-973762.2726 0 162682.1795)
(-940663.8269 0 153548.1383)
(-907986.7652 0 144981.8479)
(-96859.44052 0 566161.8783)
(-210376.5142 0 564553.0876)
(-339547.4591 0 560884.9694)
(-468255.7452 -3.465894889e-08 555462.1765)
(-585393.5412 0 548532.9588)
(-695486.0654 0 539946.8816)
(-796930.2179 1.014289534e-08 529803.4063)
(-889724.6408 -9.03829501e-09 518660.3509)
(-973561.3431 0 506531.6838)
(-1047335.374 0 493278.439)
(-1111642.376 0 479200.0919)
(-1167091.783 -6.586423715e-09 464674.3787)
(-1212783.463 0 449347.8967)
(-1249834.147 -5.929912631e-09 433638.5254)
(-1278650.924 5.675625958e-09 417757.6869)
(-1299268.272 0 401415.4761)
(-1312695.626 0 385261.487)
(-1319134.307 0 368789.3759)
(-1319420.42 -7.450402004e-09 352698.6557)
(-1314077.516 2.421779914e-09 336501.2976)
(-1303736.894 0 320844.4042)
(-1289052.873 2.320449444e-09 305248.5182)
(-1270493.013 0 290298.5681)
(-1248739.811 0 275548.9973)
(-1224040.751 0 261472.7024)
(-1197168.447 0 247716.1549)
(-1168358.484 0 234643.4901)
(-1138199.788 0 222030.904)
(-1106902.03 1.059718847e-09 209986.0952)
(-1074784.941 1.052031978e-09 198527.4782)
(-1042368.041 0 187531.256)
(-1009572.14 0 177201.3657)
(-976959.0698 0 167246.0298)
(-944446.3173 0 157977.1437)
(-912460.4606 -1.030204365e-09 149104.6499)
(-880860.8259 -1.028620929e-09 140797.6721)
(-849925.4877 0 132922.7643)
(-819739.5724 1.027774647e-09 125499.3246)
(-790296.8301 1.028425161e-09 118542.408)
(-761809.6534 0 111935.2998)
(-734135.7027 0 105804.5029)
(-707468.5624 0 99943.53886)
(-681659.8412 0 94530.44351)
(-656866.6961 0 89360.55881)
(-632997.2993 -1.045300569e-09 84580.71136)
(-610123.4514 5.250229399e-10 80035.35559)
(-588116.7334 5.276464511e-10 75809.67332)
(-566918.1654 0 71808.10189)
(-547144.7076 0 68076.02257)
(-531793.4289 -2.684767592e-10 64541.45988)
(-94979.67169 0 550047.811)
(-205723.1564 0 548407.851)
(-331636.2703 0 544775.339)
(-456808.1141 0 539427.2095)
(-570598.9848 0 532311.1841)
(-677849.7531 0 523927.4846)
(-777377.3688 0 514350.83)
(-867946.7375 0 503663.7998)
(-948660.4188 8.327315098e-09 491606.7653)
(-1020332.674 0 478765.1513)
(-1083220.903 -7.125827112e-09 465362.2182)
(-1136326.359 0 451065.1071)
(-1180578.06 0 436200.3533)
(-1216422.005 0 421103.654)
(-1243615.912 0 405331.226)
(-1263460.84 0 389668.6391)
(-1275892.95 0 373674.7508)
(-1281889.773 0 357864.1803)
(-1281775.782 0 342049.5358)
(-1276299.903 0 326520.0813)
(-1266015.483 0 311176.569)
(-1251454.428 0 296244.9225)
(-1233317.384 0 281602.1816)
(-1211859.284 0 267481.2041)
(-1187829.69 2.245045712e-09 253653.7646)
(-1161514.277 0 240506.1143)
(-1133618.233 0 227660.5046)
(-1104214.149 0 215543.6308)
(-1073919.132 2.152445047e-09 203782.2318)
(-1042767.407 0 192707.2026)
(-1011294.042 0 182070.284)
(-979539.0037 0 171998.7803)
(-947826.1011 0 162462.54)
(-916515.4623 0 153384.2229)
(-885440.1836 0 144888.4701)
(-854981.6979 0 136740.4743)
(-825018.6873 0 129176.0147)
(-795871.9875 0 121941.9482)
(-767405.7455 0 115214.3853)
(-739856.0213 0 108828.315)
(-713113.5088 5.238795575e-10 102852.3052)
(-687265.153 0 97225.65969)
(-662373.6426 0 91923.39574)
(-638361.7817 0 86971.35213)
(-615343.2383 0 82282.56979)
(-593194.0152 0 77925.50337)
(-571947.0457 0 73779.02764)
(-551426.9991 5.387755742e-10 69941.68577)
(-532315.4082 0 66279.00942)
(-517580.3277 0 62892.30186)
(-92687.17288 0 534619.2336)
(-200464.0021 7.89408287e-08 532921.7096)
(-323450.2581 0 529220.2462)
(-445790.1027 0 524160.9701)
(-557156.7098 0 517615.6578)
(-662226.2241 0 509622.1171)
(-758763.6407 0 500278.5866)
(-846096.8435 0 489460.167)
(-924972.5945 8.457001282e-09 477918.2693)
(-995181.923 0 465679.8751)
(-1055551.493 0 452387.2897)
(-1106957.272 0 438407.9548)
(-1149863.604 0 424115.0991)
(-1183765.26 0 409002.6883)
(-1210150.576 0 393877.3415)
(-1228959.843 -2.81469058e-09 378517.678)
(-1240756.416 0 363026.6851)
(-1246241.161 -2.634290035e-09 347678.9177)
(-1245828.876 0 332244.873)
(-1240219.278 0 317202.2778)
(-1229955.404 0 302201.3554)
(-1215612.053 -2.393287803e-09 287722.1235)
(-1197731.599 0 273438.7136)
(-1176693.89 0 259671.1305)
(-1153213.273 0 246284.2862)
(-1127610.535 2.251269517e-09 233428.7566)
(-1100323.139 -1.113126228e-09 221091.8394)
(-1071871.238 0 209209.513)
(-1042289.975 -1.092983171e-09 197942.1123)
(-1012182.65 0 187054.234)
(-981540.2694 0 176844.0041)
(-950889.2738 0 166981.3243)
(-920193.1003 0 157789.621)
(-889850.7322 1.065042446e-09 148986.2707)
(-859767.3698 1.062542236e-09 140715.4242)
(-830191.8967 1.060909097e-09 132885.0569)
(-801290.4064 1.060089545e-09 125481.8605)
(-772999.9509 0 118551.6908)
(-745559.526 1.060707183e-09 111953.084)
(-718845.2419 5.310325067e-10 105837.0551)
(-693047.1032 5.320382425e-10 99976.51443)
(-668034.6015 0 94568.99322)
(-643964.3742 0 89399.96524)
(-620753.3926 0 84615.80774)
(-598478.1601 0 80067.95661)
(-577055.3792 0 75834.83292)
(-556490.1226 5.442091485e-10 71827.78687)
(-536640.5835 0 68085.00615)
(-518155.4299 -2.751839761e-10 64555.2094)
(-503828.647 2.769041812e-10 61249.22464)
(-90721.40569 0 521387.0444)
(-195731.6117 0 519865.3816)
(-316237.6834 0 516362.524)
(-436232.2333 0 511350.1166)
(-544485.7385 0 504774.8947)
(-646230.1926 0 496575.8894)
(-739954.1536 0 487159.3323)
(-825759.9322 0 476963.6074)
(-902966.1582 8.58870748e-09 465900.8022)
(-970345.485 7.900936665e-09 453576.0115)
(-1028856.551 -7.34950508e-09 440498.0225)
(-1078937.281 0 426983.1659)
(-1119739.383 -6.52521447e-09 412629.169)
(-1152732.342 0 398086.8393)
(-1178182.979 0 383377.7006)
(-1196002.268 0 368222.0663)
(-1207205.745 0 353288.4866)
(-1212024.586 0 338037.3475)
(-1211326.034 2.601313435e-09 323208.1192)
(-1205522.313 0 308259.8099)
(-1195281.322 0 293856.7935)
(-1181122.642 2.430559979e-09 279508.4598)
(-1163449.127 0 265766.3419)
(-1142940.321 0 252170.2806)
(-1119977.089 0 239289.9616)
(-1095146.55 0 226662.0001)
(-1068606.388 1.130461642e-09 214738.5165)
(-1040910.638 0 203157.8311)
(-1012179.274 2.22000977e-09 192183.8567)
(-982881.2779 -1.101953257e-09 181674.0851)
(-953225.6368 0 171675.038)
(-923395.6571 0 162225.8447)
(-893789.6519 0 153194.6747)
(-864285.354 0 144755.2812)
(-835252.656 -1.079089874e-09 136636.5729)
(-806602.1326 0 129106.8553)
(-778642.829 -1.076598986e-09 121897.4734)
(-751266.3709 0 115184.6084)
(-724702.6193 0 108812.9159)
(-698861.4657 0 102843.2972)
(-673828.1289 0 97223.69205)
(-649684.2339 0 91922.607)
(-626348.8953 0 86973.23279)
(-603940.795 0 82282.21747)
(-582348.4653 5.474512138e-10 77924.85008)
(-561642.9154 0 73774.05499)
(-541716.1776 5.526844597e-10 69934.6884)
(-522520.2452 -2.778438038e-10 66265.34099)
(-504633.2081 -2.794695892e-10 62883.91762)
(-490767.0128 2.812165841e-10 59637.83262)
(-88929.47721 0 510190.3066)
(-191272.0913 8.141876438e-08 508560.2942)
(-308679.2024 0 504984.4591)
(-425565.4321 3.686897216e-08 499722.6556)
(-531018.5069 0 492955.9929)
(-630603.9865 0 485160.9411)
(-722971.7406 0 476310.2835)
(-806588.9331 0 466352.394)
(-880687.2372 0 454940.7265)
(-946228.7675 0 442783.7586)
(-1003368.98 -7.463963473e-09 430086.6189)
(-1051224.798 0 416480.6271)
(-1091029.612 0 402462.8781)
(-1123089.113 0 388347.894)
(-1147023.379 -3.018765746e-09 373531.9398)
(-1164198.723 0 358847.143)
(-1174535.256 0 343876.5372)
(-1179044.848 0 329103.4774)
(-1178024.299 -2.641825299e-09 314375.0819)
(-1172160.21 2.576204389e-09 299899.3696)
(-1162002.962 0 285676.4477)
(-1147998.677 0 271778.8627)
(-1130662.487 -2.424241192e-09 258215.3581)
(-1110544.06 0 245128.8094)
(-1088255.162 2.35157813e-09 232431.581)
(-1063934.419 0 220294.3576)
(-1038194.892 -1.148067021e-09 208513.4812)
(-1011142.163 0 197378.3896)
(-983345.6805 0 186562.7807)
(-954854.1607 0 176439.2508)
(-926153.3159 -1.112243334e-09 166650.8675)
(-897258.7611 0 157503.9856)
(-868546.8854 0 148750.6038)
(-839964.8512 -1.0984739e-09 140510.6103)
(-811747.9301 0 132714.4273)
(-784096.3036 0 125332.2893)
(-756938.0552 0 118424.4444)
(-730522.2854 0 111839.7238)
(-704742.8816 -1.094002554e-09 105737.9677)
(-679790.5642 -5.477015032e-10 99886.16022)
(-655549.5089 -5.487388088e-10 94490.13711)
(-632177.0443 0 89324.8325)
(-609600.0826 0 84547.39138)
(-587895.7268 0 80001.75752)
(-566993.0229 5.559770105e-10 75773.2614)
(-546935.4709 0 71768.19562)
(-527643.9949 0 68029.53666)
(-509049.4808 -2.821708373e-10 64500.86171)
(-491723.7708 0 61200.03507)
(-478281.6926 -2.855961441e-10 58075.83598)
(-86762.18794 0 500002.6883)
(-186393.4307 0 498303.4957)
(-301113.0257 0 494795.4288)
(-415566.0611 0 489987.9767)
(-519178.6754 1.497147957e-08 483797.5954)
(-616806.8177 0 476267.8157)
(-706130.6716 1.09576894e-08 467292.9147)
(-786616.0434 0 456790.6015)
(-859059.7058 0 445585.1842)
(-923196.5231 0 433712.1981)
(-978007.1527 0 420803.0594)
(-1024565.443 0 407343.919)
(-1063346.697 0 393701.0097)
(-1093616.519 3.203135722e-09 379269.8966)
(-1116815.123 0 364823.1902)
(-1133126.818 5.896507842e-09 350210.5465)
(-1142980.12 -2.847005773e-09 335457.1059)
(-1147112.591 2.759292968e-09 320961.4592)
(-1145867.264 0 306339.0181)
(-1139982.878 0 292227.1476)
(-1129855.02 -2.557992539e-09 278097.076)
(-1116025.558 0 264552.6219)
(-1099089.701 0 251133.4408)
(-1079492.818 0 238395.9024)
(-1057722.567 0 225910.8191)
(-1034046.903 -1.179048636e-09 214042.7373)
(-1008977.72 0 202560.0226)
(-982699.2777 0 191626.8656)
(-955622.86 0 181187.0477)
(-928066.8101 2.273086584e-09 171220.1401)
(-900132.8109 -1.129564957e-09 161818.2903)
(-872245.9611 1.123805535e-09 152812.8479)
(-844322.125 0 144407.2705)
(-816720.1785 0 136310.0022)
(-789380.9967 0 128807.8237)
(-762604.6588 0 121615.4354)
(-736309.3074 1.110393156e-09 114922.4268)
(-710720.1557 0 108563.9912)
(-685766.7068 0 102610.5731)
(-661544.6716 0 97001.91561)
(-638117.0457 5.572846427e-10 91714.37969)
(-615439.1024 0 86774.02164)
(-593624.8148 0 82094.24004)
(-572567.4219 0 77744.50507)
(-552348.168 5.646355692e-10 73603.25199)
(-532897.8018 5.671988235e-10 69770.73585)
(-514227.9635 0 66109.40275)
(-496202.1139 0 62733.17126)
(-479404.407 -2.88242069e-10 59498.69567)
(-466477.6582 0 56510.00792)
(-84860.48569 0 493445.0106)
(-182109.9176 0 491849.4153)
(-294720.7191 0 488571.1346)
(-406952.5186 1.901314063e-08 483728.2614)
(-507499.9128 0 477224.0106)
(-601854.1129 0 469026.5824)
(-688451.9701 0 459557.475)
(-767492.9444 0 449347.9017)
(-838356.2277 -8.996261031e-09 438289.849)
(-899909.1167 0 426005.8286)
(-953198.1175 0 413064.3861)
(-998714.501 7.22633573e-09 399838.3512)
(-1035581.033 -6.834850621e-09 385821.4272)
(-1065023.858 0 371544.8993)
(-1087483.338 0 357241.8118)
(-1102898.725 0 342496.9075)
(-1112350.867 0 328069.5237)
(-1115951.347 2.802265247e-09 313393.9323)
(-1114621.832 -2.724751627e-09 299145.6231)
(-1108641.072 0 284922.804)
(-1098616.913 2.597829835e-09 271156.6993)
(-1085051.481 0 257576.5881)
(-1068475.574 0 244566.2619)
(-1049425.191 -1.230192499e-09 231838.6184)
(-1028148.112 2.425393661e-09 219734.9353)
(-1005202.32 -1.197410734e-09 207932.7504)
(-980759.1023 0 196821.3053)
(-955342.3358 0 185995.1703)
(-929062.0349 0 175885.3359)
(-902364.8901 -1.154243426e-09 166106.6481)
(-875319.8423 0 156963.4846)
(-848280.6861 0 148220.0311)
(-821233.5404 0 139989.5093)
(-794413.1983 1.132954759e-09 132205.4974)
(-768015.5225 0 124837.6348)
(-742002.5895 0 117943.5109)
(-716618.2657 -1.127686037e-09 111376.598)
(-691774.0166 0 105289.6646)
(-667665.19 -5.641715297e-10 99457.57024)
(-644188.035 0 94082.74212)
(-621502.2366 -5.65963602e-10 88928.40775)
(-599544.5862 0 84173.87907)
(-578397.6147 0 79639.70283)
(-557994.8311 0 75432.01904)
(-538389.4776 -5.734290093e-10 71437.7836)
(-519539.7329 -2.880160914e-10 67717.11465)
(-501437.2865 5.789105845e-10 64196.89899)
(-483960.957 2.910281193e-10 60910.04512)
(-467666.1143 0 57803.77351)
(-455092.3254 2.945609456e-10 54897.11392)
(-83001.43776 -1.247781462e-07 490113.3551)
(-177955.7921 0 488247.6016)
(-287639.4795 -2.629453531e-08 484727.5014)
(-396641.9522 0 479230.7936)
(-494342.402 0 472128.435)
(-586529.6589 0 463926.2666)
(-671853.841 0 454685.6168)
(-748888.1016 0 444368.9792)
(-816869.6746 0 432627.117)
(-876798.0752 0 420176.7739)
(-928999.8992 0 407338.3681)
(-972559.306 -3.669437852e-09 393651.7739)
(-1008351.159 3.470646884e-09 379475.6549)
(-1037033.382 0 365305.56)
(-1058200.989 3.162012896e-09 350534.3013)
(-1073193.704 0 335948.9747)
(-1082031.722 0 321255.3802)
(-1085431.814 0 306709.9688)
(-1083985.546 0 292411.2839)
(-1078023.544 0 278254.8964)
(-1068162.111 0 264542.8569)
(-1054924.97 2.585544262e-09 251077.1837)
(-1038817.186 2.539276829e-09 238182.4966)
(-1020263.684 0 225630.427)
(-999608.6265 0 213638.3167)
(-977313.6864 1.216058715e-09 202093.7814)
(-953616.3952 -1.202545355e-09 191069.2896)
(-928890.8061 0 180580.6446)
(-903523.5009 0 170553.7563)
(-877579.9471 0 161117.1067)
(-851496.6709 0 152078.9427)
(-825226.8486 -1.159081546e-09 143654.758)
(-799120.671 0 135547.177)
(-773145.1743 -1.15059893e-09 128047.6235)
(-747595.1965 -1.147897874e-09 120851.9989)
(-722414.4157 -1.146133542e-09 114176.5861)
(-697824.6985 -1.145248154e-09 107826.201)
(-673775.8334 0 101898.6581)
(-650385.0835 0 96306.47363)
(-627664.7064 5.736911578e-10 91048.98654)
(-605640.9016 5.747776859e-10 86129.4635)
(-584412.8471 0 81481.31623)
(-563879.9861 0 77154.70379)
(-544128.0911 0 73044.84275)
(-525096.2655 0 69235.44967)
(-506834.4871 0 65603.55639)
(-489265.9554 2.939631497e-10 62248.5336)
(-472313.507 0 59039.46498)
(-456513.7152 0 56079.18)
(-444296.4829 2.991483164e-10 53240.55203)
(-80535.4877 0 488203.1113)
(-172998.5483 4.330521e-08 486098.0602)
(-279938.2062 -2.670403658e-08 482512.1812)
(-386287.3774 0 477056.8829)
(-482109.8413 -1.568191012e-08 470297.0569)
(-572430.7581 0 462170.4845)
(-654886.6368 0 452481.6275)
(-728928.577 -1.022769557e-08 441236.7098)
(-795339.6424 0 429283.2022)
(-854125.7767 0 416807.6391)
(-904252.803 0 403361.3049)
(-946360.0443 0 389227.493)
(-981346.9874 0 375003.5824)
(-1008576.725 0 360195.9204)
(-1029190.025 0 345332.374)
(-1043647.653 0 330554.5511)
(-1052077.917 0 315559.126)
(-1055375.712 0 301060.9086)
(-1053731.204 0 286434.0279)
(-1047895.697 0 272399.1158)
(-1038249.201 0 258452.2518)
(-1025410.401 0 245187.4345)
(-1009804.122 0 232149.651)
(-991777.5823 0 219820.4614)
(-971818.3394 0 207770.758)
(-950172.9762 0 196471.3196)
(-927315.0806 0 185462.7881)
(-903410.9402 0 175213.0708)
(-878871.0745 0 165309.5095)
(-853815.2512 0 156068.5203)
(-828576.314 0 147243.9772)
(-803179.2043 -1.177132648e-09 138960.6693)
(-777866.1795 0 131133.0482)
(-752795.5823 0 123746.5514)
(-728001.7539 0 116838.6193)
(-703709.2453 0 110280.4966)
(-679847.8686 -5.815419106e-10 104201.4079)
(-656619.5968 0 98396.81012)
(-633931.2662 0 93050.96498)
(-611949.2058 5.826256095e-10 87922.86002)
(-590618.7664 0 83215.3938)
(-570031.7223 0 78711.8913)
(-550126.6146 0 74554.13944)
(-530961.0857 0 70594.22985)
(-512502.4045 0 66923.27)
(-494780.1298 0 63438.39305)
(-477731.0916 2.985412219e-10 60199.47056)
(-461265.4884 0 57126.39681)
(-445925.0394 0 54268.98084)
(-434054.6454 -3.038071405e-10 51544.94406)
(-78190.41057 2.573898035e-07 490364.8007)
(-168545.5661 0 488248.8685)
(-273057.0257 0 484949.9692)
(-376945.8172 1.991535589e-08 479370.4591)
(-469992.2854 0 472103.3816)
(-556904.0084 0 463041.4448)
(-636446.3717 0 452410.7644)
(-709010.2169 0 441052.5756)
(-774110.7172 9.423153366e-09 428951.0407)
(-830556.2954 -4.334280688e-09 415671.0022)
(-878901.7378 0 401507.5053)
(-920118.4363 3.784620612e-09 387164.6866)
(-953628.2385 0 372234.7497)
(-980080.2194 -3.407383208e-09 356941.8091)
(-1000240.527 0 341866.3902)
(-1013863.32 0 326396.5035)
(-1022187.264 3.028544685e-09 311309.1507)
(-1025188.71 0 296242.731)
(-1023618.007 0 281551.7507)
(-1017950.664 -2.783154737e-09 267158.2412)
(-1008668.988 0 253188.0423)
(-996311.8291 -2.666703866e-09 239710.9723)
(-981245.6792 0 226704.2193)
(-963869.7751 0 214237.4088)
(-944600.2484 0 202313.4755)
(-923744.6192 0 190922.9169)
(-901627.7008 0 180137.389)
(-878655.3678 0 169842.7888)
(-854917.1975 -1.217848703e-09 160188.4035)
(-830836.6085 0 150971.1597)
(-806402.5058 0 142402.2456)
(-781955.3583 0 134189.5859)
(-757486.3002 -1.190535344e-09 126616.1554)
(-733291.9775 0 119355.8703)
(-709337.1431 0 112664.3959)
(-685840.7621 0 106292.8455)
(-662773.5444 0 100385.2753)
(-640276.3134 -5.905689158e-10 94805.21854)
(-618313.4315 -5.909427072e-10 89591.30823)
(-596989.7926 0 84705.23208)
(-576362.2888 0 80114.5128)
(-556369.3291 0 75834.39775)
(-537093.9998 0 71788.69599)
(-518478.0743 0 68031.64415)
(-500584.6108 -3.003197373e-10 64465.60069)
(-483371.4537 0 61164.18981)
(-466820.8552 0 58019.04133)
(-450829.7987 0 55109.31907)
(-435909.3435 0 52338.61778)
(-424414.2929 -3.085385091e-10 49757.74676)
(-75775.21561 0 497634.1565)
(-164251.1886 0 495070.0035)
(-265754.6966 0 491424.7784)
(-365862.7555 2.022551017e-08 484949.8463)
(-455789.0304 0 476617.9999)
(-540199.8773 0 466888.3405)
(-618336.8321 1.183793736e-08 456264.5509)
(-689216.9906 0 444581.0557)
(-751557.6326 0 431415.6598)
(-805931.6832 4.401781148e-09 417183.9812)
(-853299.6179 8.189133589e-09 402658.4448)
(-893031.6169 0 387515.9236)
(-925266.4021 -3.635336829e-09 371714.4391)
(-951198.0594 -3.460448515e-09 356051.2892)
(-970358.3479 0 340034.4236)
(-983722.7666 -3.185091669e-09 324141.2318)
(-991810.6113 0 308521.8929)
(-994795.4404 2.980951193e-09 292900.3289)
(-993399.2993 -2.898494931e-09 277917.4163)
(-987955.0403 2.826498544e-09 263001.6842)
(-979153.757 0 248891.0561)
(-967312.4907 -2.708234112e-09 235000.1226)
(-952871.1545 0 221935.5467)
(-936236.1287 0 209179.0924)
(-917725.526 0 197272.0735)
(-897753.8261 0 185712.7406)
(-876540.532 0 174988.8502)
(-854461.987 0 164666.2749)
(-831682.2876 -1.236815022e-09 155083.3294)
(-808512.1414 -1.227843553e-09 145960.137)
(-785012.1 0 137452.2012)
(-761439.7573 0 129430.5732)
(-737890.428 -1.209076294e-09 121914.7527)
(-714499.6424 0 114900.6004)
(-691457.7654 0 108289.5173)
(-668717.2691 -1.200520138e-09 102169.8983)
(-646487.8693 -5.997963684e-10 96369.4581)
(-624684.9368 0 91031.86587)
(-603484.4199 -6.001458272e-10 85941.10197)
(-582840.6653 0 81290.28095)
(-562858.8293 6.020521707e-10 76835.84779)
(-543482.3594 0 72758.57326)
(-524778.9197 0 68860.4575)
(-506718.3949 0 65277.45927)
(-489343.1281 3.049968042e-10 61860.74231)
(-472625.2694 0 58709.99177)
(-456533.9289 0 55703.97859)
(-440999.7032 0 52927.27624)
(-426474.9834 0 50282.78571)
(-415306.9532 -3.13343572e-10 47824.70537)
(-72516.09872 0 507810.1896)
(-158759.0461 -4.53601398e-08 504840.4666)
(-257097.3802 -2.797120329e-08 500928.8381)
(-353771.842 0 493976.1205)
(-441382.952 0 485645.6503)
(-524165.4803 0 475864.6604)
(-599910.7765 0 464615.9077)
(-667549.1708 -1.071302278e-08 451552.6237)
(-727592.6452 4.859472174e-09 437268.8001)
(-780869.7193 0 422519.1691)
(-826662.4364 -4.158334128e-09 407067.0485)
(-864610.9189 0 390673.4063)
(-896170.4853 7.383904556e-09 374298.7286)
(-921113.8815 0 357647.1537)
(-939750.7459 3.36363828e-09 340732.7541)
(-953007.8545 0 324262.0662)
(-960705.2051 0 307647.3384)
(-963854.8799 0 291578.7074)
(-962540.539 0 275704.0472)
(-957571.0887 0 260457.8966)
(-949294.1731 0 245667.4122)
(-938104.819 0 231516.0804)
(-924411.9733 0 217930.1796)
(-908584.6732 0 205026.2623)
(-890982.9371 0 192722.2691)
(-871892.6405 0 181136.3307)
(-851710.165 0 170127.9678)
(-830568.538 0 159853.9561)
(-808862.9055 0 150110.3092)
(-786617.4212 0 141089.8812)
(-764158.2814 0 132516.0754)
(-741498.6855 1.232990245e-09 124642.7408)
(-718939.1349 0 117146.0924)
(-696458.5023 0 110300.5917)
(-674277.4234 0 103790.8847)
(-652386.4095 0 97826.17316)
(-630931.4799 0 92195.36523)
(-609891.0035 -6.091067611e-10 86994.54598)
(-589402.9497 6.094922858e-10 82120.76549)
(-569447.4404 0 77591.41487)
(-550076.5445 0 73366.67739)
(-531325.3212 0 69411.94001)
(-513165.4399 0 65735.13292)
(-495660.3343 3.084940388e-10 62274.84462)
(-478776.9256 -3.097467164e-10 59064.88483)
(-462536.5214 0 56029.44977)
(-446886.709 -3.127076756e-10 53211.24764)
(-431785.0677 0 50542.75219)
(-417648.4409 0 48069.33246)
(-406667.053 3.182234739e-10 45706.10048)
(-69296.4388 0 522863.8175)
(-153632.1548 0 519925.3156)
(-248869.1406 0 516397.1723)
(-342378.6088 0 509412.79)
(-427528.6636 0 500696.7582)
(-506850.3167 0 489911.3187)
(-579083.5195 0 477058.1492)
(-644317.7161 0 462869.8054)
(-703060.4171 -4.935151518e-09 447968.2794)
(-754528.1612 0 432144.2335)
(-798073.9399 0 415134.8243)
(-835194.6 0 397894.6875)
(-865860.2853 0 380477.3748)
(-889686.4872 0 362469.728)
(-908062.715 0 344793.2288)
(-920793.7287 0 327047.145)
(-928507.0362 0 309563.2296)
(-931741.1893 0 292560.7691)
(-930829.0234 0 275798.2922)
(-926416.7751 0 259886.2938)
(-918748.403 0 244267.4331)
(-908325.4169 0 229603.8308)
(-895479.3697 0 215325.4922)
(-880587.4337 0 202039.8453)
(-863996.7956 0 189207.7269)
(-845973.5922 0 177345.6655)
(-826854.3316 -1.299147631e-09 165990.339)
(-806837.4001 0 155519.6345)
(-786207.2482 0 145598.7747)
(-765055.4853 0 136435.9846)
(-743634.1309 0 127834.0697)
(-722028.1018 1.252192309e-09 119868.1411)
(-700433.267 0 112465.6121)
(-678948.6719 0 105575.7292)
(-657634.4992 0 99225.24601)
(-636674.9187 0 93285.87424)
(-615996.3382 0 87842.69479)
(-595785.0014 0 82719.88278)
(-576002.9593 0 78055.61943)
(-556771.7938 0 73636.62992)
(-538040.1103 0 69627.817)
(-519890.1353 0 65806.35609)
(-502296.2827 0 62338.2604)
(-485311.9156 0 59022.29473)
(-468918.7089 -3.145705795e-10 56007.26119)
(-453123.1585 0 53115.62739)
(-437906.5257 0 50477.89744)
(-423215.8388 -3.193032882e-10 47946.79068)
(-409427.6985 0 45642.33662)
(-398684.5825 -3.231793504e-10 43392.17116)
(-66203.06165 0 546133.7207)
(-149014.7971 -4.678398293e-08 542872.9208)
(-240908.2469 0 538970.3047)
(-329982.3815 2.118525597e-08 531069.0213)
(-411380.8644 0 520944.2843)
(-487217.3213 0 508681.2418)
(-556971.6933 0 494946.0214)
(-620560.1414 5.524650904e-09 480115.9592)
(-677030.9072 0 464031.2544)
(-725822.477 0 446490.1754)
(-768223.5036 -4.288863168e-09 428375.112)
(-804368.3721 0 409995.2096)
(-833416.2746 0 390828.7372)
(-856758.3371 0 371722.0239)
(-874642.3189 0 352743.4269)
(-887048.7069 0 333613.0145)
(-894930.7803 0 315103.7024)
(-898229.9593 0 296718.483)
(-897866.0063 0 279107.5545)
(-893957.2645 0 261929.2879)
(-887076.5263 0 245559.323)
(-877493.7903 0 229811.2744)
(-865624.9374 -2.785983291e-09 214913.1212)
(-851807.336 0 200725.7097)
(-836310.7234 0 187411.2996)
(-819500.3915 0 174819.6601)
(-801545.1961 0 163109.3098)
(-782802.3598 0 152089.1611)
(-763326.5825 0 141926.6304)
(-743420.4524 0 132372.9353)
(-723115.2979 0 123637.2903)
(-702705.7577 0 115427.3458)
(-682179.814 0 107987.52)
(-661764.1429 0 100978.9843)
(-641460.5348 0 94657.19122)
(-621423.2905 -6.287437551e-10 88719.02037)
(-601639.6632 0 83336.24405)
(-582253.1938 -6.282264658e-10 78313.67506)
(-563259.5413 0 73736.33587)
(-544740.5166 0 69483.35831)
(-526678.7958 0 65576.85771)
(-509139.7692 0 61955.46512)
(-492120.2274 0 58606.84105)
(-475656.7899 0 55505.27068)
(-459754.3048 3.194695862e-10 52618.93787)
(-444399.0259 -3.2091987e-10 49938.12631)
(-429605.4866 0 47433.0684)
(-415318.6681 3.242760005e-10 45102.53346)
(-401838.5114 0 42927.49795)
(-391283.5883 0 40852.78022)
(-62404.92002 0 575601.4283)
(-143021.5762 0 571836.7427)
(-230964.6153 0 566977.2886)
(-315457.197 2.15151873e-08 557987.3369)
(-393635.0148 -8.602752406e-09 546926.6823)
(-466904.545 0 534153.038)
(-534441.5357 6.296390977e-09 519760.9596)
(-595115.5559 -5.610689771e-09 503632.2082)
(-648548.3044 -5.09006494e-09 485751.4985)
(-695705.2043 0 466959.7223)
(-736759.642 -4.355656334e-09 447669.8782)
(-770904.1129 0 427417.4269)
(-799136.9843 -3.867143627e-09 406763.1211)
(-822042.988 0 386295.2239)
(-839088.8659 0 365493.5162)
(-851423.2524 3.388188641e-09 345119.6363)
(-859204.5779 0 324983.4994)
(-862880.6836 -3.171031173e-09 305265.4634)
(-863006.6541 0 286311.6237)
(-859796.5664 0 267789.7887)
(-853757.0796 0 250286.8624)
(-845152.6522 0 233286.9248)
(-834386.6856 0 217422.6433)
(-821739.2652 0 202137.9009)
(-807511.1721 1.372282462e-09 187999.2525)
(-791993.6117 0 174503.4046)
(-775404.5365 0 162097.5655)
(-757994.8502 -1.326889435e-09 150377.0214)
(-739878.1023 0 139632.9082)
(-721278.3975 1.306136844e-09 129580.1431)
(-702296.1514 0 120378.0916)
(-683142.2297 0 111862.3672)
(-663841.5944 0 104060.3517)
(-644562.9671 0 96910.60114)
(-625400.9881 0 90348.84872)
(-606356.3206 -6.385355775e-10 84379.78518)
(-587596.0649 0 78879.45286)
(-569092.6702 0 73913.46151)
(-550982.2625 0 69316.00012)
(-533216.9243 0 65182.86446)
(-515895.9105 0 61327.25375)
(-498999.7948 0 57871.97844)
(-482598.1108 3.219870625e-10 54622.35283)
(-466679.2133 3.231327673e-10 51714.05068)
(-451268.2109 0 48953.17771)
(-436369.9812 0 46472.9841)
(-421990.3152 0 44105.94513)
(-408105.3438 -3.293261548e-10 41973.48789)
(-394903.9587 0 39934.83136)
(-384607.6112 -3.333238857e-10 38044.12225)
(-58364.30241 0 610365.5642)
(-136341.3216 0 606616.9949)
(-220318.9652 0 601242.2799)
(-300539.9508 0 592081.2241)
(-375903.9392 0 580744.9514)
(-446108.1415 0 567204.2702)
(-509966.7362 0 551353.1436)
(-567237.9456 5.698068511e-09 533441.2732)
(-618531.8498 0 514256.9836)
(-663970.2817 -4.75538302e-09 494251.1146)
(-702771.9279 4.423489663e-09 473105.3267)
(-735418.844 0 451125.3614)
(-762833.0736 0 429126.1997)
(-784564.1932 0 406700.1414)
(-801291.8005 0 384254.0628)
(-813513.6062 -3.440954997e-09 362281.3685)
(-821230.6072 0 340336.8538)
(-825383.5804 0 319214.1819)
(-825926.6565 0 298479.671)
(-823525.5262 0 278651.5537)
(-818325.4395 0 259474.9067)
(-810800.9662 0 241271.9753)
(-801197.186 0 223881.5466)
(-789825.8923 0 207505.2822)
(-776979.2003 0 192011.5818)
(-762860.0353 0 177552.6353)
(-747776.0537 -1.360795138e-09 163975.1417)
(-731805.4488 0 151420.2023)
(-715214.4137 0 139688.8003)
(-698043.1097 0 128944.3165)
(-680566.7788 0 118949.8091)
(-662782.4003 0 109892.8095)
(-644906.4817 0 101479.9125)
(-626935.7666 0 93943.58958)
(-609031.8344 0 86952.1742)
(-591176.4967 0 80727.66803)
(-573520.9291 0 74971.9203)
(-556068.5723 0 69859.64445)
(-538908.8039 0 65161.2693)
(-522030.7029 -6.4918644e-10 60973.51748)
(-505509.2612 0 57137.17872)
(-489350.4111 0 53703.28766)
(-473608.2177 -3.270015661e-10 50558.39757)
(-458284.3081 0 47726.32994)
(-443396.4066 -3.294976681e-10 45119.35417)
(-428977.7074 0 42755.9457)
(-415025.705 -3.326474324e-10 40565.56922)
(-401541.8935 0 38570.55386)
(-388617.7556 0 36709.92072)
(-378475.9596 0 34962.72116)
(-54714.55219 0 653036.098)
(-129688.7505 0 649605.6817)
(-209783.9519 0 643632.0347)
(-285807.5264 0 634104.1197)
(-357133.7794 0 621818.5327)
(-423066.9126 0 606707.9688)
(-483229.7307 0 589237.0191)
(-537886.6821 -5.786807937e-09 570131.368)
(-587001.8329 5.249840822e-09 549780.6641)
(-629856.9326 0 528030.7461)
(-666481.4697 -4.492379311e-09 505007.079)
(-697935.8296 -4.21698661e-09 481638.0837)
(-724021.4211 0 457856.2822)
(-744763.9531 0 433570.8784)
(-761174.4469 0 409607.8498)
(-772916.2831 -3.494543046e-09 385602.6255)
(-780802.4412 0 362096.2341)
(-785225.3745 0 339166.5516)
(-786356.7619 0 316731.8463)
(-784690.0199 0 295276.1014)
(-780436.649 0 274388.7032)
(-774013.0523 0 254690.8045)
(-765634.5973 -1.459092212e-09 235663.0678)
(-755620.6555 0 217898.6957)
(-744206.099 0 200888.7068)
(-731615.5926 0 185146.293)
(-718073.219 -1.381987613e-09 170202.014)
(-703701.7445 0 156460.2663)
(-688693.3255 0 143536.1291)
(-673149.7979 1.347136157e-09 131712.4307)
(-657259.3076 0 120719.8695)
(-641054.5547 0 110705.2312)
(-624703.8258 0 101497.7677)
(-608228.8464 0 93142.83832)
(-591734.3249 0 85546.52686)
(-575250.7945 0 78672.157)
(-558853.8833 0 72497.26581)
(-542648.7569 0 66923.69966)
(-526582.9217 0 61961.96049)
(-510762.7001 0 57480.55434)
(-495169.7434 3.302726334e-10 53522.01572)
(-479886.3816 0 49938.39368)
(-464906.5807 0 46788.37682)
(-450272.437 0 43917.1006)
(-435992.8597 -3.346291321e-10 41389.88656)
(-422107.8635 0 39068.39491)
(-408635.4572 0 37012.41763)
(-395567.946 0 35104.46884)
(-382949.9253 0 33403.23151)
(-372922.409 0 31762.19434)
(-51434.4269 0 702424.4069)
(-122583.3477 0 699141.1743)
(-198176.8835 0 691850.4529)
(-269422.2212 0 681414.0142)
(-336284.751 0 667811.6951)
(-398272.4093 0 651495.8867)