/*--------------------------------*- C++ -*----------------------------------*\
  =========                 |
  \\      /  F ield         | OpenFOAM: The Open Source CFD Toolbox
   \\    /   O peration     | Website:  https://openfoam.org
    \\  /    A nd           | Version:  7
     \\/     M anipulation  |
\*---------------------------------------------------------------------------*/
FoamFile
{
    version     2.0;
    format      ascii;
    class       volScalarField;
    location    "0.0003";
    object      p;
}
// * * * * * * * * * * * * * * * * * * * * * * * * * * * * * * * * * * * * * //

dimensions      [1 -1 -2 0 0 0 0];

internalField   nonuniform List<scalar> 
1167
(
1454992.516
1454720.39
1454783.997
1454824.944
1454857.002
1454896.584
1454948.711
1455002.701
1455061.689
1455128.899
1455200.67
1455275.134
1455357.959
1455441.378
1455528.757
1455619.259
1455710.197
1455805.629
1455899.496
1455996.914
1456092.072
1456189.529
1456284.812
1456380.824
1456474.987
1456567.445
1456658.931
1456747.625
1456835.914
1456919.847
1457003.481
1457083.297
1457161.684
1457237.313
1457310.39
1457381.639
1454936.051
1454665.491
1454728.204
1454768.143
1454802.492
1454840.551
1454882.577
1454930.959
1454988.302
1455048.937
1455112.636
1455184.769
1455258.765
1455335.813
1455418.726
1455501.055
1455589.133
1455675.619
1455766.349
1455854.786
1455946.629
1456035.685
1456127.379
1456215.988
1456305.951
1456392.539
1456479.853
1456564.707
1456648.053
1456729.658
1456808.242
1456885.951
1456959.485
1457032.746
1457102.538
1457170.903
1457236.447
1457299.704
1457361.054
1457419.483
1457476.674
1457530.501
1457583.344
1457633.174
1457681.981
1457728.158
1457772.828
1457815.628
1457859.318
1457902.83
1454903.558
1454633.856
1454697.433
1454734.604
1454760.252
1454790.6
1454828.528
1454876.468
1454925.297
1454977.854
1455039.093
1455102.926
1455169.41
1455243.349
1455316.127
1455394.538
1455473.006
1455554.6
1455636.942
1455720.879
1455805.165
1455890.407
1455975.123
1456060.351
1456143.157
1456227.085
1456307.606
1456389.065
1456466.933
1456544.938
1456619.965
1456693.526
1456765.21
1456834.415
1456902.506
1456966.901
1457030.611
1457090.981
1457150.307
1457206.9
1457261.821
1457314.582
1457365.221
1457414.29
1457461.097
1457506.566
1457549.485
1457591.671
1457633.777
1457677.002
1454887.95
1454614.704
1454673.746
1454706.497
1454728.772
1454758.106
1454794.901
1454831.484
1454872.852
1454923.209
1454976.143
1455031.713
1455095.182
1455157.287
1455224.245
1455294.417
1455365.658
1455441.029
1455515.552
1455594.172
1455671.097
1455751.296
1455829.666
1455909.203
1455987.206
1456065.47
1456142.869
1456218.645
1456294.005
1456366.293
1456438.675
1456507.391
1456576.437
1456642.521
1456707.335
1456769.896
1456830.377
1456889.416
1456945.693
1457001.131
1457053.317
1457104.861
1457153.56
1457201.367
1457246.797
1457290.925
1457332.872
1457373.799
1457415.17
1457456.946
1454881.535
1454607.81
1454665.836
1454698.386
1454720.632
1454743.489
1454768.926
1454799.645
1454839.439
1454880.759
1454924.555
1454976.022
1455027.628
1455082.633
1455143.721
1455204.465
1455271.394
1455336.734
1455407.17
1455475.944
1455548.856
1455620.106
1455694.269
1455765.424
1455839.437
1455910.746
1455984.087
1456054.716
1456125.498
1456194.395
1456262.085
1456328.779
1456393.255
1456457.33
1456517.939
1456578.474
1456636.018
1456692.797
1456747.189
1456800.168
1456851.273
1456900.463
1456948.319
1456994.075
1457038.758
1457081.106
1457122.467
1457161.902
1457202.781
1457242.883
1454903.815
1454629.592
1454686.973
1454713.181
1454725.371
1454740.143
1454761.017
1454790.442
1454819.546
1454851.201
1454890.345
1454930.502
1454972.811
1455023.62
1455072.977
1455127.856
1455183.653
1455242.667
1455303.758
1455366.495
1455431.365
1455496.941
1455563.196
1455630.12
1455697.158
1455764.997
1455831.338
1455898.655
1455963.088
1456028.736
1456091.434
1456154.842
1456215.979
1456276.279
1456334.89
1456391.81
1456447.75
1456501.255
1456554.309
1456604.392
1456654.186
1456701.301
1456747.8
1456792.085
1456835.357
1456876.674
1456916.712
1456955.415
1456995.013
1457034.629
1454943.3
1454665.972
1454718.311
1454739.448
1454747.339
1454760.526
1454778.805
1454795.247
1454814.744
1454841.56
1454869.671
1454899.214
1454936.852
1454974.181
1455015.586
1455061.001
1455107.297
1455159.377
1455210.517
1455267.466
1455322.909
1455382.597
1455440.235
1455501.985
1455562.14
1455624.443
1455685.428
1455746.989
1455807.801
1455867.899
1455927.922
1455986.213
1456044.857
1456100.504
1456156.727
1456210.34
1456263.682
1456314.974
1456365.292
1456414.015
1456461.183
1456507.248
1456551.506
1456594.888
1456636.236
1456676.845
1456715.265
1456753.401
1456791.53
1456830.87
1454998.869
1454722.049
1454772.369
1454792.554
1454799.23
1454804.802
1454810.105
1454818.24
1454833.143
1454848.578
1454864.664
1454888.058
1454912.815
1454939.8
1454973.918
1455007.296
1455047.358
1455087.182
1455132.017
1455177.937
1455227.153
1455276.721
1455329.242
1455381.96
1455437.272
1455491.431
1455548.075
1455602.308
1455658.974
1455713.479
1455769.357
1455823.692
1455877.874
1455930.96
1455982.966
1456034.477
1456084.088
1456133.643
1456180.717
1456227.883
1456272.555
1456317.074
1456359.528
1456401.346
1456441.387
1456480.546
1456518.04
1456554.871
1456592.246
1456630.294
1455088.322
1454813.8
1454862.536
1454876.311
1454872.056
1454867.04
1454864.804
1454868.651
1454871.141
1454873.554
1454882.432
1454893.792
1454905.88
1454925.828
1454945.314
1454969.851
1454997.749
1455028.141
1455063.387
1455099.603
1455140.134
1455180.849
1455225.789
1455270.978
1455318.842
1455366.901
1455416.243
1455466.061
1455515.943
1455566.752
1455616.591
1455667.605
1455716.371
1455766.446
1455814.354
1455862.745
1455909.441
1455955.824
1456000.905
1456044.983
1456088.198
1456130.077
1456171.276
1456210.835
1456249.872
1456287.136
1456323.858
1456359.081
1456395.808
1456432.209
1455204.873
1454931.485
1454973.462
1454979.368
1454968.514
1454958.692
1454951.422
1454940.963
1454930.053
1454924.64
1454922.008
1454918.687
1454921.994
1454927.177
1454935.064
1454949.637
1454964.333
1454986.868
1455009.039
1455037.271
1455065.61
1455099.352
1455133.518
1455172.22
1455210.346
1455252.544
1455293.195
1455337.6
1455380.73
1455426.218
1455470.97
1455516.549
1455561.689
1455606.625
1455651.612
1455695.481
1455739.733
1455782.223
1455825.215
1455866.051
1455907.377
1455946.792
1455986.122
1456023.806
1456061.134
1456096.987
1456132.189
1456166.286
1456201.689
1456237.155
1455343.402
1455076.337
1455113.673
1455115.241
1455101.149
1455083.938
1455061.226
1455038.006
1455019.167
1455002.241
1454983.11
1454969.255
1454959.062
1454949.363
1454947.904
1454946.581
1454951.177
1454959.361
1454971.252
1454987.143
1455005.713
1455028.838
1455054.177
1455082.963
1455113.581
1455146.487
1455181.22
1455217.106
1455255.036
1455293.071
1455333.214
1455372.181
1455413.311
1455452.821
1455493.878
1455533.647
1455574.029
1455613.445
1455652.65
1455691.263
1455729.228
1455766.747
1455803.203
1455839.332
1455874.239
1455908.844
1455941.973
1455975.035
1456008.655
1456043.43
1455518.639
1455262.515
1455296.019
1455291.666
1455265.978
1455234.03
1455200.591
1455169.974
1455139.084
1455104.313
1455073.23
1455047.061
1455019.388
1454998.352
1454980.406
1454965.62
1454957.901
1454951.315
1454952.85
1454954.383
1454963.688
1454973.748
1454990.399
1455007.29
1455029.993
1455052.333
1455079.821
1455107.102
1455138.099
1455169.276
1455202.599
1455236.231
1455270.857
1455306.171
1455341.446
1455377.621
1455412.998
1455449.278
1455484.202
1455520.259
1455554.686
1455589.787
1455623.397
1455657.327
1455689.97
1455722.637
1455753.918
1455785.342
1455817.366
1455850.771
1455734.82
1455490.181
1455513.301
1455497.394
1455461.138
1455419.912
1455379.928
1455336.224
1455286.791
1455239.024
1455196.162
1455150.356
1455109.051
1455073.233
1455037.862
1455011.246
1454986.236
1454967.573
1454952.586
1454942.711
1454937.792
1454937.105
1454940.83
1454948.127
1454958.995
1454973.163
1454989.886
1455009.901
1455031.439
1455056.143
1455081.056
1455109.015
1455136.401
1455166.617
1455195.99
1455227.22
1455257.904
1455289.455
1455320.747
1455352.347
1455383.793
1455414.998
1455446.118
1455476.728
1455507.301
1455537.11
1455566.678
1455595.746
1455626.298
1455657.311
1455975.362
1455750.626
1455765.071
1455741.101
1455698.936
1455650.822
1455595.891
1455533.75
1455470.814
1455411.121
1455347.802
1455285.927
1455231.237
1455175.301
1455125.891
1455081.389
1455040.531
1455007.06
1454975.562
1454953.367
1454932.797
1454920.762
1454909.912
1454906.74
1454904.53
1454909.077
1454914.623
1454925.595
1454937.779
1454953.785
1454970.96
1454990.682
1455011.831
1455034.368
1455058.417
1455082.956
1455108.933
1455134.675
1455161.951
1455188.518
1455216.492
1455243.436
1455271.513
1455298.519
1455326.404
1455353.144
1455380.412
1455406.901
1455435.439
1455463.866
1456253.876
1456057.129
1456063.788
1456033.531
1455982.106
1455918.422
1455846.481
1455771.178
1455696.229
1455616.156
1455534.32
1455458.805
1455382.811
1455309.886
1455244.616
1455180.217
1455124.613
1455071.867
1455026.57
1454986.56
1454952.728
1454924.351
1454901.294
1454883.273
1454870.089
1454861.127
1454856.79
1454855.709
1454858.96
1454864.121
1454873.303
1454883.499
1454897.614
1454911.812
1454929.404
1454946.93
1454966.73
1454986.699
1455008.244
1455030.016
1455052.662
1455075.541
1455098.889
1455122.484
1455146.244
1455170.084
1455193.861
1455217.89
1455243.298
1455269.622
1456580.707
1456417.345
1456410.85
1456367.754
1456301.489
1456223.868
1456140.105
1456052.556
1455957.474
1455857.772
1455761.619
1455665.423
1455568.579
1455480.041
1455392.999
1455311.789
1455236.793
1455165.953
1455104.43
1455046.226
1454997.838
1454952.019
1454915.685
1454881.646
1454856.174
1454832.928
1454817.093
1454803.554
1454795.831
1454790.209
1454789.019
1454790.078
1454794.297
1454800.712
1454809.256
1454819.862
1454831.67
1454845.561
1454860.048
1454876.411
1454892.82
1454910.959
1454928.847
1454948.323
1454967.301
1454987.543
1455007.217
1455028.129
1455049.769
1455073.399
1456939.237
1456817.721
1456794.256
1456738.391
1456661.481
1456574.352
1456478.057
1456370.685
1456255.599
1456140.836
1456025.58
1455906.474
1455792.873
1455682.666
1455574.766
1455476.092
1455379.078
1455291.687
1455209.596
1455135.473
1455067.744
1455006.968
1454952.742
1454904.811
1454862.921
1454826.953
1454796.188
1454770.928
1454749.545
1454733.205
1454719.747
1454711.081
1454704.175
1454701.888
1454700.575
1454703.132
1454706.295
1454712.616
1454719.636
1454728.944
1454738.896
1454750.591
1454762.9
1454776.543
1454790.638
1454805.775
1454821.218
1454837.694
1454855.419
1454874.958
1457325.581
1457257.95
1457217.57
1457151.685
1457067.02
1456966.88
1456851.172
1456724.477
1456594.252
1456461.561
1456321.996
1456184.371
1456051.463
1455917.493
1455791.262
1455669.368
1455553.366
1455446.275
1455344.045
1455252.375
1455164.684
1455087.864
1455014.849
1454952.054
1454892.96
1454843.223
1454796.834
1454758.418
1454722.976
1454694.075
1454668.222
1454647.549
1454629.736
1454615.966
1454604.868
1454596.699
1454591.169
1454587.821
1454586.899
1454587.452
1454590.244
1454594.083
1454599.979
1454606.562
1454614.927
1454623.838
1454634.248
1454645.21
1454658.262
1454672.367
1457742.971
1457741.712
1457683.397
1457605.688
1457508.316
1457389.766
1457256.585
1457115.435
1456968.004
1456811.18
1456651.476
1456495.691
1456338.159
1456184.365
1456037.121
1455891.684
1455757.252
1455627.524
1455507.213
1455393.986
1455289.123
1455192.233
1455102.916
1455021.491
1454947.109
1454879.989
1454819.391
1454764.785
1454716.116
1454672.346
1454634.199
1454599.744
1454570.572
1454544.089
1454522.388
1454502.572
1454487.301
1454473.435
1454463.326
1454454.294
1454448.486
1454443.681
1454441.621
1454440.397
1454441.521
1454443.418
1454447.382
1454451.974
1454459.012
1454466.805
1458184.951
1458260.602
1458178.841
1458084.572
1457971.78
1457839.263
1457693.356
1457535.98
1457365.711
1457187.741
1457011.039
1456831.693
1456651.214
1456478.075
1456306.294
1456141.606
1455984.81
1455833.995
1455694.061
1455559.234
1455436.429
1455318.868
1455212.777
1455112.108
1455022.032
1454937.047
1454861.708
1454790.577
1454727.934
1454669.017
1454617.359
1454569.048
1454526.792
1454487.661
1454453.29
1454421.936
1454394.483
1454369.848
1454348.259
1454329.299
1454312.844
1454298.858
1454286.94
1454277.22
1454269.342
1454263.467
1454259.228
1454256.701
1454255.956
1454256.954
1458631.563
1458796.509
1458687.013
1458578.075
1458454.405
1458311.765
1458150.684
1457972.163
1457781.355
1457587.137
1457389.078
1457185.617
1456986.261
1456789.454
1456595.066
1456410.788
1456230.401
1456060.503
1455897.975
1455744.859
1455600.919
1455465.58
1455339.907
1455222.214
1455113.854
1455012.853
1454920.047
1454833.857
1454754.692
1454681.741
1454614.503
1454553.002
1454496.076
1454444.339
1454396.139
1454352.841
1454312.326
1454276.252
1454242.293
1454212.467
1454184.396
1454160.063
1454137.204
1454117.669
1454099.573
1454084.516
1454070.747
1454059.659
1454049.594
1454042.319
1459070.565
1459339.936
1459201.757
1459080.765
1458948.918
1458792.257
1458611.961
1458414.465
1458208.279
1457995.286
1457773.393
1457550.894
1457331.37
1457110.37
1456897.163
1456689.934
1456489.226
1456299.111
1456114.804
1455943.227
1455778.103
1455625.364
1455479.756
1455345.609
1455218.552
1455101.913
1454991.455
1454890.427
1454794.757
1454707.74
1454625.032
1454550.003
1454478.54
1454413.529
1454351.612
1454295.249
1454241.791
1454192.869
1454146.619
1454104.243
1454064.396
1454027.929
1453993.761
1453962.651
1453933.749
1453907.726
1453883.705
1453862.283
1453841.883
1453824.287
1459494.033
1459882.541
1459713.667
1459578.299
1459435.151
1459261.964
1459065.39
1458854.253
1458631.761
1458397.042
1458155.902
1457915.895
1457673.495
1457433.632
1457201.303
1456971.59
1456752.753
1456540.968
1456339.079
1456147.136
1455964.425
1455792.869
1455629.948
1455478.276
1455334.614
1455201.29
1455075.119
1454958.109
1454847.721
1454745.127
1454648.473
1454558.335
1454473.499
1454393.89
1454319.183
1454248.765
1454182.758
1454120.171
1454061.623
1454005.945
1453954.022
1453904.542
1453858.495
1453814.75
1453774.22
1453735.921
1453700.647
1453667.403
1453635.536
1453605.416
1456351.061
1456152.713
1455962.925
1455785.066
1455616.133
1455458.128
1455308.356
1455168.434
1455035.89
1454912.29
1454794.81
1454685.424
1454580.977
1454483.647
1454390.232
1454303.245
1454219.441
1454141.045
1454065.278
1453994.237
1453925.48
1453860.936
1453798.367
1453739.599
1453682.78
1453629.519
1453578.187
1453530.391
1453484.285
1453439.47
1453395.338
)
;

boundaryField
{
    front_top
    {
        type            wedge;
    }
    front_middle
    {
        type            wedge;
    }
    front_bottom
    {
        type            wedge;
    }
    back_top
    {
        type            wedge;
    }
    back_middle
    {
        type            wedge;
    }
    back_bottom
    {
        type            wedge;
    }
    axis_top
    {
        type            symmetryPlane;
    }
    axis_middle
    {
        type            symmetryPlane;
    }
    axis_bottom
    {
        type            symmetryPlane;
    }
    wall_top
    {
        type            fixedFluxPressure;
        gradient        uniform 0;
        value           nonuniform List<scalar> 
23
(
1457902.83
1457677.002
1457456.946
1457242.883
1457034.629
1456830.87
1456630.294
1456432.209
1456237.155
1456043.43
1455850.771
1455657.311
1455463.866
1455269.622
1455073.399
1454874.958
1454672.367
1454466.805
1454256.954
1454042.319
1453824.287
1453605.416
1453395.338
)
;
    }
    wall_middle
    {
        type            fixedFluxPressure;
        gradient        nonuniform 0();
        value           nonuniform 0();
    }
    wall_bottom
    {
        type            fixedFluxPressure;
        gradient        nonuniform 0();
        value           nonuniform 0();
    }
    inlet
    {
        type            zeroGradient;
    }
    outlet
    {
        type            fixedValue;
        value           nonuniform 0();
    }
    procBoundary7to6
    {
        type            processor;
        value           nonuniform List<scalar> 
51
(
1459884.826
1460405.32
1460200.792
1460049.014
1459893.348
1459708.107
1459500.539
1459275.828
1459034.815
1458781.828
1458526.089
1458266.687
1458004.146
1457748.28
1457495.379
1457248.775
1457011.69
1456780.55
1456562.187
1456562.187
1456551.49
1456338.366
1456134.144
1455942.706
1455759.625
1455588.753
1455425.34
1455273.02
1455127.541
1454991.77
1454861.941
1454740.43
1454624.066
1454514.469
1454409.393
1454309.913
1454214.338
1454123.211
1454035.477
1453951.41
1453870.373
1453792.435
1453717.188
1453644.764
1453574.905
1453507.767
1453443.124
1453381.518
1453322.024
1453262.715
1453203.823
)
;
    }
    procBoundary7to8
    {
        type            processor;
        value           nonuniform List<scalar> 
51
(
1455048.372
1454778.539
1454847.735
1454895.194
1454930.489
1454971.94
1455022.292
1455082.879
1455149.435
1455219.49
1455296.778
1455378.9
1455463.515
1455556.206
1455648.827
1455746.085
1455843.693
1455943.739
1456044.942
1456146.854
1456248.756
1456350.913
1456451.699
1456552.911
1456651.182
1456749.545
1456843.524
1456938.004
1457028.831
1457118.598
1457205.312
1457289.19
1457371.138
1457448.978
1457525.725
1457598.497
1457449.163
1457449.163
1457515.405
1457577.962
1457639.379
1457697.684
1457754.21
1457808.261
1457860.117
1457910.124
1457957.762
1458003.727
1458047.624
1458092.631
1458136.95
)
;
    }
}


// ************************************************************************* //
