/*--------------------------------*- C++ -*----------------------------------*\
  =========                 |
  \\      /  F ield         | OpenFOAM: The Open Source CFD Toolbox
   \\    /   O peration     | Website:  https://openfoam.org
    \\  /    A nd           | Version:  7
     \\/     M anipulation  |
\*---------------------------------------------------------------------------*/
FoamFile
{
    version     2.0;
    format      ascii;
    class       surfaceScalarField;
    location    "0.0003";
    object      phi;
}
// * * * * * * * * * * * * * * * * * * * * * * * * * * * * * * * * * * * * * //

dimensions      [1 0 -1 0 0 0 0];

internalField   nonuniform List<scalar> 
2260
(
2.228636896e-15
4.560727052e-11
8.722776221e-15
1.334540708e-10
1.916282163e-14
2.16405972e-10
3.319623462e-14
2.946669051e-10
5.044623577e-14
3.684338509e-10
7.051530247e-14
4.378969123e-10
9.305498406e-14
5.03239531e-10
1.176203806e-13
5.64638687e-10
1.438082411e-13
6.222649746e-10
1.712600015e-13
6.762827758e-10
1.995935214e-13
7.268505141e-10
2.283939115e-13
7.741207909e-10
2.574105114e-13
8.182403759e-10
2.86232237e-13
8.593506848e-10
3.145802617e-13
8.975876934e-10
3.421837748e-13
9.330821031e-10
3.68702359e-13
9.659597876e-10
3.940052158e-13
9.963414358e-10
4.177334992e-13
1.024343327e-09
4.398289789e-13
1.050076838e-09
4.599656995e-13
1.073649238e-09
4.781233612e-13
1.095163199e-09
4.940483083e-13
1.114717567e-09
5.077186286e-13
1.132406859e-09
5.189873974e-13
1.148322066e-09
5.277573812e-13
1.162550192e-09
5.340216512e-13
1.175174863e-09
5.376360885e-13
1.186276114e-09
5.387247313e-13
1.195930589e-09
5.370605421e-13
1.204211987e-09
5.328390643e-13
1.211190548e-09
5.258964919e-13
1.216933948e-09
5.163612181e-13
1.221506582e-09
5.042155737e-13
1.224970498e-09
4.894764975e-13
1.227384717e-09
1.228805949e-09
2.240306628e-15
4.560503021e-11
8.769791796e-15
1.334475413e-10
1.926573055e-14
2.16395476e-10
3.336967264e-14
2.946528012e-10
5.072607568e-14
3.684164945e-10
7.093669149e-14
4.378767017e-10
9.358489797e-14
5.032168828e-10
1.182627696e-13
5.646140091e-10
1.446086214e-13
6.222386288e-10
1.722085079e-13
6.762551759e-10
2.00644765e-13
7.268220779e-10
2.296268822e-13
7.740918088e-10
2.587569961e-13
8.182112458e-10
2.876851305e-13
8.593217567e-10
3.161822449e-13
8.975591962e-10
3.438352041e-13
9.330544502e-10
3.705177841e-13
9.659331051e-10
3.958335512e-13
9.963161201e-10
4.197098481e-13
1.02431945e-09
4.417800218e-13
1.050054768e-09
4.620344667e-13
1.073628983e-09
4.801367735e-13
1.095145097e-09
4.961350961e-13
1.114701569e-09
5.097321709e-13
1.132393262e-09
5.210017391e-13
1.148310797e-09
5.296861084e-13
1.162541508e-09
5.358796363e-13
1.17516867e-09
5.394489124e-13
1.186272544e-09
5.403898869e-13
1.195929648e-09
5.387128322e-13
1.204213664e-09
5.343106533e-13
1.21119495e-09
5.27346844e-13
1.216940912e-09
5.17614715e-13
1.221516314e-09
5.05373925e-13
1.224982739e-09
4.904875749e-13
1.227399603e-09
4.731248346e-13
1.228823312e-09
4.532638826e-13
1.229308322e-09
4.309636658e-13
1.228906259e-09
4.063479592e-13
1.22766686e-09
3.793613474e-13
1.225637484e-09
3.502521401e-13
1.222863419e-09
3.188698899e-13
1.219388153e-09
2.855142924e-13
1.215252869e-09
2.500483386e-13
1.210497424e-09
2.127512367e-13
1.205159328e-09
1.735436905e-13
1.199274968e-09
1.326304415e-13
1.192878529e-09
8.998539979e-14
1.186003243e-09
4.577211896e-14
1.178680239e-09
1.170939767e-09
2.256765253e-15
4.560277345e-11
8.835082503e-15
1.33440963e-10
1.941584092e-14
2.163848953e-10
3.364026011e-14
2.946385768e-10
5.112353056e-14
3.683990113e-10
7.146766259e-14
4.378563575e-10
9.425932702e-14
5.031940911e-10
1.191427492e-13
5.645891257e-10
1.456669095e-13
6.222121046e-10
1.734174842e-13
6.762274253e-10
2.020726767e-13
7.267934227e-10
2.312326327e-13
7.740626488e-10
2.605048913e-13
8.181819735e-10
2.896633952e-13
8.592925981e-10
3.182599807e-13
8.975305997e-10
3.461165779e-13
9.330265936e-10
3.728715812e-13
9.6590635e-10
3.983371436e-13
9.962906545e-10
4.222473872e-13
1.02429554e-09
4.444286825e-13
1.050032587e-09
4.646748538e-13
1.073608737e-09
4.828638896e-13
1.095126908e-09
4.988158523e-13
1.114685617e-09
5.124864597e-13
1.132379591e-09
5.236493921e-13
1.148299634e-09
5.323900792e-13
1.162532767e-09
5.384541154e-13
1.175162606e-09
5.420016591e-13
1.186268997e-09
5.428001967e-13
1.19592885e-09
5.410089964e-13
1.204215455e-09
5.364982606e-13
1.21119946e-09
5.293294564e-13
1.216948081e-09
5.195327087e-13
1.221526111e-09
5.070720882e-13
1.2249952e-09
4.921249583e-13
1.227414551e-09
4.745282593e-13
1.228840909e-09
4.545496065e-13
1.229328301e-09
4.320487865e-13
1.228928759e-09
4.072613196e-13
1.227691647e-09
3.801357734e-13
1.225664609e-09
3.5081586e-13
1.222892738e-09
3.193513964e-13
1.219419618e-09
2.857925609e-13
1.215286427e-09
2.502874833e-13
1.210532929e-09
2.128240138e-13
1.205196792e-09
1.736088096e-13
1.199314183e-09
1.325704715e-13
1.192919567e-09
8.996120667e-14
1.186045852e-09
4.567796886e-14
1.178724523e-09
1.170985445e-09
2.278119158e-15
4.560049533e-11
8.916680746e-15
1.334343244e-10
1.958767836e-14
2.163742243e-10
3.392890271e-14
2.946242355e-10
5.15513424e-14
3.683813888e-10
7.206363902e-14
4.378358452e-10
9.508156432e-14
5.031710732e-10
1.201476173e-13
5.645640596e-10
1.468490774e-13
6.221854031e-10
1.748418053e-13
6.761994326e-10
2.037107956e-13
7.267645537e-10
2.330433724e-13
7.740333163e-10
2.6258812e-13
8.181524288e-10
2.918851861e-13
8.592633011e-10
3.206780189e-13
8.975018068e-10
3.48678714e-13
9.329985929e-10
3.755588138e-13
9.658794699e-10
4.011617529e-13
9.962650516e-10
4.251363582e-13
1.024271566e-09
4.47424754e-13
1.050010298e-09
4.676930134e-13
1.073588469e-09
4.859404736e-13
1.09510866e-09
5.01895478e-13
1.114669662e-09
5.155395587e-13
1.132365947e-09
5.266893294e-13
1.148288484e-09
5.353263156e-13
1.16252413e-09
5.413886007e-13
1.175156543e-09
5.447837182e-13
1.186265602e-09
5.455775673e-13
1.195928056e-09
5.435942366e-13
1.204217438e-09
5.39022325e-13
1.211204032e-09
5.316432132e-13
1.21695546e-09
5.217080599e-13
1.221536046e-09
5.090910196e-13
1.225007817e-09
4.939236939e-13
1.227429718e-09
4.7621082e-13
1.228858622e-09
4.559852953e-13
1.229348526e-09
4.333912391e-13
1.228951354e-09
4.083537161e-13
1.227716685e-09
3.811397739e-13
1.225691823e-09
3.515846212e-13
1.222922294e-09
3.200031478e-13
1.219451199e-09
2.862633246e-13
1.215320167e-09
2.506362103e-13
1.210568556e-09
2.130593331e-13
1.205234369e-09
1.737313841e-13
1.199353511e-09
1.326445022e-13
1.192960654e-09
8.995664658e-14
1.18608854e-09
4.569768297e-14
1.178768782e-09
1.171031143e-09
2.297651107e-15
4.559819768e-11
8.994000053e-15
1.334276281e-10
1.975555116e-14
2.163634627e-10
3.422158477e-14
2.946097695e-10
5.2014983e-14
3.683635954e-10
7.271912227e-14
4.378151411e-10
9.590599699e-14
5.031478863e-10
1.211511143e-13
5.645388145e-10
1.480984781e-13
6.221584558e-10
1.76309236e-13
6.761712219e-10
2.053596812e-13
7.267355033e-10
2.349526158e-13
7.740037233e-10
2.646530885e-13
8.181227283e-10
2.941159555e-13
8.592338382e-10
3.231054803e-13
8.974728173e-10
3.511992254e-13
9.329704991e-10
3.782755738e-13
9.658523936e-10
4.039155796e-13
9.962394116e-10
4.280594535e-13
1.024247422e-09
4.503339307e-13
1.049988024e-09
4.707299541e-13
1.073568073e-09
4.889256428e-13
1.095090465e-09
5.04960705e-13
1.114653627e-09
5.185009667e-13
1.132352407e-09
5.296701607e-13
1.148277315e-09
5.381828486e-13
1.162515617e-09
5.441910648e-13
1.175150535e-09
5.474760857e-13
1.186262317e-09
5.481265339e-13
1.195927405e-09
5.460555966e-13
1.204219509e-09
5.412727256e-13
1.211208815e-09
5.338375294e-13
1.216962895e-09
5.236766997e-13
1.221546207e-09
5.109877076e-13
1.225020506e-09
4.955815963e-13
1.227445124e-09
4.777379856e-13
1.228876465e-09
4.57315749e-13
1.229368949e-09
4.345368937e-13
1.228974132e-09
4.093599491e-13
1.227741861e-09
3.819212218e-13
1.225719262e-09
3.522785008e-13
1.222951936e-09
3.204796187e-13
1.219482998e-09
2.86680336e-13
1.215353967e-09
2.50868384e-13
1.210604368e-09
2.132593572e-13
1.205271978e-09
1.73783605e-13
1.199392986e-09
1.327043404e-13
1.193001733e-09
8.992085883e-14
1.186131323e-09
4.572710033e-14
1.178812975e-09
1.17107687e-09
2.316779896e-15
4.55958809e-11
9.069405745e-15
1.334208755e-10
1.992798631e-14
2.163526041e-10
3.451963304e-14
2.945951779e-10
5.24454121e-14
3.683456696e-10
7.329108986e-14
4.377942954e-10
9.663161272e-14
5.031245458e-10
1.220987259e-13
5.645133474e-10
1.492301743e-13
6.221313243e-10
1.775982525e-13
6.761428538e-10
2.068692547e-13
7.267062323e-10
2.366178115e-13
7.739739748e-10
2.664333468e-13
8.180929127e-10
2.961068194e-13
8.592041647e-10
3.251697714e-13
8.974437543e-10
3.534303888e-13
9.329422385e-10
3.805386774e-13
9.658252853e-10
4.062812541e-13
9.96213669e-10
4.304233158e-13
1.02422328e-09
4.527510562e-13
1.049965696e-09
4.731129031e-13
1.073547711e-09
4.91329586e-13
1.095072248e-09
5.072612694e-13
1.114637695e-09
5.208037249e-13
1.132338865e-09
5.318387101e-13
1.14826628e-09
5.403586595e-13
1.162507097e-09
5.4619739e-13
1.175144696e-09
5.494612881e-13
1.186259053e-09
5.49918001e-13
1.195926949e-09
5.477724087e-13
1.204221655e-09
5.428074949e-13
1.21121378e-09
5.352376702e-13
1.216970465e-09
5.249533023e-13
1.221556491e-09
5.120630979e-13
1.225033396e-09
4.965799632e-13
1.227460607e-09
4.785249071e-13
1.22889452e-09
4.580441523e-13
1.229389429e-09
4.350584197e-13
1.228997118e-09
4.098338698e-13
1.227767086e-09
3.822070901e-13
1.225746889e-09
3.524974351e-13
1.222981646e-09
3.205672891e-13
1.219514928e-09
2.866951227e-13
1.215387839e-09
2.508164343e-13
1.210640247e-09
2.131395407e-13
1.205309654e-09
1.736560979e-13
1.19943247e-09
1.325344773e-13
1.193042855e-09
8.980650888e-14
1.186174051e-09
4.561552289e-14
1.178857166e-09
1.171122485e-09
2.332407423e-15
4.559354849e-11
9.128909433e-15
1.33414079e-10
2.005052233e-14
2.163416825e-10
3.472177674e-14
2.945805066e-10
5.273816479e-14
3.683276533e-10
7.369903323e-14
4.377733346e-10
9.720365714e-14
5.031010412e-10
1.227842184e-13
5.644877668e-10
1.500137073e-13
6.221040948e-10
1.785315401e-13
6.761143359e-10
2.079082062e-13
7.266768556e-10
2.377080485e-13
7.739441749e-10
2.676747188e-13
8.180629461e-10
2.973645551e-13
8.591744749e-10
3.264862073e-13
8.974146327e-10
3.547706078e-13
9.329139541e-10
3.818530549e-13
9.657982029e-10
4.076202769e-13
9.961879018e-10
4.316764425e-13
1.024199224e-09
4.540132401e-13
1.049943359e-09
4.742584852e-13
1.073527466e-09
4.924449895e-13
1.095054061e-09
5.082237246e-13
1.114621917e-09
5.216992696e-13
1.132325389e-09
5.326005181e-13
1.148255378e-09
5.410044757e-13
1.162498693e-09
5.467351381e-13
1.175138966e-09
5.498234248e-13
1.186255964e-09
5.502101834e-13
1.195926562e-09
5.47866571e-13
1.204223998e-09
5.428660402e-13
1.211218781e-09
5.351105084e-13
1.21697822e-09
5.248010304e-13
1.221566801e-09
5.117371146e-13
1.22504646e-09
4.961998784e-13
1.227476144e-09
4.780374699e-13
1.228912683e-09
4.574722194e-13
1.229409995e-09
4.344528734e-13
1.229020137e-09
4.091229185e-13
1.227792416e-09
3.815283925e-13
1.225774483e-09
3.517280182e-13
1.223011446e-09
3.198652293e-13
1.219546791e-09
2.859415204e-13
1.215421762e-09
2.501615111e-13
1.210676027e-09
2.124707736e-13
1.205347345e-09
1.731234842e-13
1.199471817e-09
1.32034441e-13
1.193083944e-09
8.949104975e-14
1.186216595e-09
4.538405794e-14
1.178901273e-09
1.171167869e-09
2.337275084e-15
4.559121121e-11
9.148515285e-15
1.334072677e-10
2.009037841e-14
2.163307407e-10
3.479265994e-14
2.945658043e-10
5.286281915e-14
3.683095831e-10
7.387955252e-14
4.377523178e-10
9.739885873e-14
5.030775219e-10
1.229843734e-13
5.644621813e-10
1.50260343e-13
6.220768189e-10
1.78784359e-13
6.760858119e-10
2.081072034e-13
7.266475327e-10
2.379211595e-13
7.73914361e-10
2.678160754e-13
8.180330512e-10
2.974058228e-13
8.591448852e-10
3.264835663e-13
8.97385555e-10
3.545997315e-13
9.328858379e-10
3.816321382e-13
9.657711705e-10
4.071899199e-13
9.96162344e-10
4.311643334e-13
1.024175249e-09
4.532716809e-13
1.049921252e-09
4.734119932e-13
1.073507326e-09
4.913401289e-13
1.095036133e-09
5.070177844e-13
1.114606239e-09
5.202423513e-13
1.132312165e-09
5.310504367e-13
1.14824457e-09
5.392129306e-13
1.162490531e-09
5.448652821e-13
1.175133313e-09
5.477330478e-13
1.186253097e-09
5.480300884e-13
1.195926265e-09
5.455336756e-13
1.204226495e-09
5.40434676e-13
1.21122388e-09
5.326236748e-13
1.216986031e-09
5.221999613e-13
1.221577225e-09
5.091672618e-13
1.225059492e-09
4.93546803e-13
1.227491765e-09
4.754689125e-13
1.228930761e-09
4.548627515e-13
1.229430601e-09
4.319736039e-13
1.229043027e-09
4.066524068e-13
1.227817737e-09
3.792109024e-13
1.225801925e-09
3.494937683e-13
1.223041163e-09
3.177993003e-13
1.219578485e-09
2.840404928e-13
1.215455521e-09
2.484477397e-13
1.21071162e-09
2.109916196e-13
1.205384801e-09
1.718636071e-13
1.199510945e-09
1.310770046e-13
1.19312473e-09
8.879890729e-14
1.186258873e-09
4.505264365e-14
1.17894502e-09
1.171212922e-09
2.330260198e-15
4.558888095e-11
9.121815979e-15
1.334004762e-10
2.003749947e-14
2.16319825e-10
3.470281274e-14
2.94551139e-10
5.270656871e-14
3.682915793e-10
7.362628669e-14
4.377313981e-10
9.702406418e-14
5.030541241e-10
1.225180177e-13
5.644366874e-10
1.496491375e-13
6.220496878e-10
1.779650037e-13
6.760574961e-10
2.071185715e-13
7.266183792e-10
2.367168117e-13
7.738847627e-10
2.66322108e-13
8.180034459e-10
2.957152137e-13
8.591154921e-10
3.244537514e-13
8.973568164e-10
3.52305719e-13
9.32857986e-10
3.789931337e-13
9.65744483e-10
4.042324807e-13
9.961371046e-10
4.278847043e-13
1.024151597e-09
4.49653199e-13
1.049899483e-09
4.694754592e-13
1.073487503e-09
4.870706287e-13
1.095018538e-09
5.024511095e-13
1.114590859e-09
5.153986065e-13
1.132299217e-09
5.259241709e-13
1.148234045e-09
5.338849652e-13
1.16248257e-09
5.39268124e-13
1.17512793e-09
5.420299291e-13
1.186250335e-09
5.421162844e-13
1.195926178e-09
5.396007732e-13
1.20422901e-09
5.343735983e-13
1.211229107e-09
5.266239418e-13
1.216993781e-09
5.161523366e-13
1.221587696e-09
5.032311933e-13
1.225072414e-09
4.876880352e-13
1.227507308e-09
4.69757013e-13
1.228948692e-09
4.49357201e-13
1.229451001e-09
4.26651072e-13
1.229065733e-09
4.016523455e-13
1.227842736e-09
3.744413807e-13
1.225829136e-09
3.451280934e-13
1.223070477e-09
3.137386976e-13
1.219609875e-09
2.804458105e-13
1.215488814e-09
2.452212551e-13
1.210746844e-09
2.082892781e-13
1.205421733e-09
1.695917573e-13
1.199549643e-09
1.29389541e-13
1.193164933e-09
8.760171357e-14
1.18630066e-09
4.449429744e-14
1.178988127e-09
1.171257416e-09
2.306934365e-15
4.558657402e-11
9.029024684e-15
1.333937541e-10
1.98264452e-14
2.163090275e-10
3.43214833e-14
2.94536644e-10
5.210735769e-14
3.682737935e-10
7.277234001e-14
4.377107331e-10
9.591074872e-14
5.030309857e-10
1.210637807e-13
5.644115343e-10
1.477850226e-13
6.220229665e-10
1.757007896e-13
6.760295803e-10
2.044227154e-13
7.265896573e-10
2.334922981e-13
7.738556931e-10
2.626299573e-13
8.179743082e-10
2.914551005e-13
8.590866669e-10
3.196170575e-13
8.973286545e-10
3.469326719e-13
9.328306704e-10
3.729829102e-13
9.657184328e-10
3.97718255e-13
9.961123693e-10
4.207385967e-13
1.024128577e-09
4.42022527e-13
1.0498782e-09
4.612339953e-13
1.073468292e-09
4.783978106e-13
1.095001374e-09
4.932398304e-13
1.114576016e-09
5.058362034e-13
1.132286621e-09
5.159110811e-13
1.14822397e-09
5.236173892e-13
1.162474864e-09
5.286597198e-13
1.175122888e-09
5.312533155e-13
1.186247741e-09
5.311653025e-13
1.195926266e-09
5.285761698e-13
1.2042316e-09
5.233633742e-13
1.21123432e-09
5.156294611e-13
1.217001515e-09
5.053532747e-13
1.221597972e-09
4.925666151e-13
1.2250852e-09
4.773664768e-13
1.227522508e-09
4.597008142e-13
1.228966357e-09
4.397736893e-13
1.229470928e-09
4.17460468e-13
1.229088046e-09
3.930443596e-13
1.227867152e-09
3.663523232e-13
1.225855828e-09
3.377037122e-13
1.223099125e-09
3.069666011e-13
1.219640612e-09
2.74402047e-13
1.215521379e-09
2.399365331e-13
1.21078131e-09
2.037934588e-13
1.205457876e-09
1.659446229e-13
1.199587492e-09
1.26590784e-13
1.193204287e-09
8.571825057e-14
1.186341533e-09
4.352084298e-14
1.179030324e-09
1.171300937e-09
2.256873477e-15
4.558431714e-11
8.833374589e-15
1.333871776e-10
1.939251213e-14
2.162984684e-10
3.356254907e-14
2.945224739e-10
5.095591689e-14
3.682564001e-10
7.116750099e-14
4.376905215e-10
9.374035507e-14
5.030084128e-10
1.182436017e-13
5.643870311e-10
1.442911127e-13
6.21996919e-10
1.714910284e-13
6.760023804e-10
1.993775091e-13
7.265617708e-10
2.276255633e-13
7.738274451e-10
2.558975355e-13
8.179460362e-10
2.837682569e-13
8.590587962e-10
3.110745044e-13
8.973013482e-10
3.374016048e-13
9.328043433e-10
3.625791948e-13
9.656932552e-10
3.863518543e-13
9.960885966e-10
4.085130601e-13
1.024106415e-09
4.289046173e-13
1.049857808e-09
4.473225399e-13
1.073449874e-09
4.63705026e-13
1.094984992e-09
4.778842367e-13
1.114561837e-09
4.898226658e-13
1.132274682e-09
4.994066872e-13
1.148214386e-09
5.065962816e-13
1.162467674e-09
5.113566167e-13
1.175118128e-09
5.136231299e-13
1.186245475e-09
5.13460309e-13
1.195926429e-09
5.107603526e-13
1.204234299e-09
5.05688326e-13
1.211239392e-09
4.980580087e-13
1.217009145e-09
4.88124303e-13
1.221607906e-09
4.756849484e-13
1.22509764e-09
4.609953672e-13
1.227537198e-09
4.439251149e-13
1.228983428e-09
4.246642334e-13
1.229490189e-09
4.031719654e-13
1.229109538e-09
3.795583661e-13
1.227890766e-09
3.538754473e-13
1.225881511e-09
3.261807128e-13
1.22312682e-09
2.965901289e-13
1.219670202e-09
2.651071304e-13
1.215552862e-09
2.319006007e-13
1.210814516e-09
1.969447183e-13
1.205492832e-09
1.604480356e-13
1.199623988e-09
1.223635112e-13
1.193242371e-09
8.290917217e-14
1.186380987e-09
4.204917903e-14
1.179071184e-09
1.171342986e-09
2.174883829e-15
4.558214226e-11
8.513503829e-15
1.33380839e-10
1.869148821e-14
2.162882904e-10
3.235121e-14
2.945088142e-10
4.909735454e-14
3.68239654e-10
6.851301884e-14
4.376711059e-10
9.017451597e-14
5.029867513e-10
1.136991047e-13
5.643635065e-10
1.386880728e-13
6.2197193e-10
1.646816528e-13
6.759763868e-10
1.913240043e-13
7.265351284e-10
2.183079431e-13
7.738004611e-10
2.451829646e-13
8.179191612e-10
2.717207294e-13
8.590322584e-10
2.976019684e-13
8.97275467e-10
3.225194479e-13
9.327794258e-10
3.463446903e-13
9.6566943e-10
3.687095718e-13
9.960662318e-10
3.896207439e-13
1.024085504e-09
4.086920558e-13
1.049838737e-09
4.260053935e-13
1.073432561e-09
4.412376228e-13
1.09496976e-09
4.545062077e-13
1.114548569e-09
4.655088222e-13
1.13226368e-09
4.744162245e-13
1.148205478e-09
4.809317985e-13
1.162461159e-09
4.85268678e-13
1.175113791e-09
4.871879155e-13
1.186243556e-09
4.868747403e-13
1.195926742e-09
4.841848765e-13
1.204236989e-09
4.792374597e-13
1.211244339e-09
4.719735762e-13
1.217016409e-09
4.62447155e-13
1.221617433e-09
4.507055836e-13
1.225109381e-09
4.36724055e-13
1.227551179e-09
4.206453391e-13
1.228999506e-09
4.023764815e-13
1.229508458e-09
3.821339698e-13
1.229129781e-09
3.597609072e-13
1.227913139e-09
3.355585755e-13
1.225905713e-09
3.093443396e-13
1.223153034e-09
2.814064896e-13
1.21969814e-09
2.516001955e-13
1.215582668e-09
2.201831915e-13
1.210845933e-09
1.87057527e-13
1.205525958e-09
1.524604732e-13
1.199658585e-09
1.163129656e-13
1.193278519e-09
7.884336896e-14
1.186418457e-09
3.999318971e-14
1.179110035e-09
1.17138298e-09
2.055234216e-15
4.558008703e-11
8.043166022e-15
1.33374851e-10
1.764978769e-14
2.162786838e-10
3.052321152e-14
2.944959408e-10
4.628375834e-14
3.682238934e-10
6.452932103e-14
4.376528603e-10
8.489508151e-14
5.029663856e-10
1.069784144e-13
5.643414232e-10
1.303393201e-13
6.219485691e-10
1.546071809e-13
6.759521189e-10
1.794887292e-13
7.265102469e-10
2.045399694e-13
7.737754099e-10
2.294762744e-13
8.178942249e-10
2.54055247e-13
8.590076795e-10
2.778838688e-13
8.972516383e-10
3.00872415e-13
9.327564372e-10
3.226770916e-13
9.656476253e-10
3.431900453e-13
9.960457188e-10
3.621904728e-13
1.024066504e-09
3.795575748e-13
1.04982137e-09
3.95182897e-13
1.073416935e-09
4.089565701e-13
1.094955986e-09
4.208167924e-13
1.114536708e-09
4.306849949e-13
1.132253811e-09
4.385161185e-13
1.148197647e-09
4.442869958e-13
1.162455388e-09
4.479417938e-13
1.175110136e-09
4.495344794e-13
1.186241963e-09
4.489765703e-13
1.1959273e-09
4.464029254e-13
1.204239563e-09
4.416552526e-13
1.211249087e-09
4.34948576e-13
1.217023116e-09
4.260771616e-13
1.221626304e-09
4.15309119e-13
1.225120149e-09
4.024467918e-13
1.227564042e-09
3.877144749e-13
1.229014239e-09
3.709947228e-13
1.229525177e-09
3.524308238e-13
1.229148345e-09
3.319896713e-13
1.22793358e-09
3.097634239e-13
1.225927939e-09
2.857819955e-13
1.223177016e-09
2.60081264e-13
1.219723841e-09
2.327443074e-13
1.215610005e-09
2.037766994e-13
1.210874901e-09
1.733040822e-13
1.205556431e-09
1.41312978e-13
1.199690576e-09
1.079435207e-13
1.193311888e-09
7.319196583e-14
1.186453208e-09
3.720729391e-14
1.179146019e-09
1.171420187e-09
1.882340298e-15
4.557820469e-11
7.366283206e-15
1.333693671e-10
1.615653764e-14
2.162698936e-10
2.791809023e-14
2.944841792e-10
4.230314002e-14
3.682095084e-10
5.89513995e-14
4.376362121e-10
7.748143532e-14
5.029478555e-10
9.748608452e-14
5.643214185e-10
1.185984826e-13
6.219274567e-10
1.405240222e-13
6.759301934e-10
1.628576848e-13
7.264879132e-10
1.85266183e-13
7.737530014e-10
2.075647948e-13
8.178719263e-10
2.293547471e-13
8.589858895e-10
2.504734265e-13
8.972305197e-10
2.707075336e-13
9.327362031e-10
2.898112826e-13
9.656285215e-10
3.077322157e-13
9.960277979e-10
3.241646616e-13
1.024050071e-09
3.392075813e-13
1.049806327e-09
3.525518667e-13
1.073403591e-09
3.64358041e-13
1.09494418e-09
3.743271181e-13
1.114526739e-09
3.826627296e-13
1.132245476e-09
3.890852118e-13
1.148191225e-09
3.938232471e-13
1.16245065e-09
3.966407519e-13
1.175107318e-09
3.977489054e-13
1.186240855e-09
3.969817677e-13
1.195928067e-09
3.944927558e-13
1.204242052e-09
3.901790646e-13
1.2112534e-09
3.841308091e-13
1.217029164e-09
3.763329291e-13
1.221634102e-09
3.667985636e-13
1.225129684e-09
3.555908374e-13
1.227575249e-09
3.426536156e-13
1.229027176e-09
3.281133721e-13
1.229539718e-09
3.118459614e-13
1.229164612e-09
2.940540426e-13
1.227951372e-09
2.745626979e-13
1.225947431e-09
2.536209274e-13
1.223197958e-09
2.310258177e-13
1.219746436e-09
2.070402526e-13
1.215633991e-09
1.814706383e-13
1.210900471e-09
1.545817483e-13
1.205583319e-09
1.26194775e-13
1.199718963e-09
9.656780685e-14
1.193341515e-09
6.555143219e-14
1.186484225e-09
3.341091248e-14
1.17917816e-09
1.171453598e-09
1.646543835e-15
4.557655814e-11
6.443898596e-15
1.333645697e-10
1.412745278e-14
2.1626221e-10
2.439779126e-14
2.944739089e-10
3.693641128e-14
3.681969697e-10
5.138910899e-14
4.376217594e-10
6.739648727e-14
5.029318482e-10
8.461457391e-14
5.643042004e-10
1.027543493e-13
6.21909317e-10
1.214515291e-13
6.759114962e-10
1.403636497e-13
7.264690011e-10
1.593092328e-13
7.737340558e-10
1.77963124e-13
8.178532724e-10
1.960797332e-13
8.589677729e-10
2.135647837e-13
8.972130346e-10
2.300954133e-13
9.327196725e-10
2.456710321e-13
9.656129459e-10
2.600430462e-13
9.960134259e-10
2.731985967e-13
1.024036916e-09
2.85021867e-13
1.049794503e-09
2.954831224e-13
1.07339313e-09
3.045333025e-13
1.09493513e-09
3.121490224e-13
1.114519124e-09
3.183130918e-13
1.132239312e-09
3.23030688e-13
1.148186507e-09
3.262840971e-13
1.162447396e-09
3.281278593e-13
1.175105475e-09
3.285184361e-13
1.186240464e-09
3.27565237e-13
1.195929021e-09
3.251588321e-13
1.204244458e-09
3.214638072e-13
1.211257095e-09
3.163122477e-13
1.217034316e-09
3.099370584e-13
1.221640477e-09
3.021061e-13
1.225137515e-09
2.930693031e-13
1.227584286e-09
2.826126164e-13
1.229037632e-09
2.709140163e-13
1.229551416e-09
2.57828378e-13
1.229177698e-09
2.434783895e-13
1.227965722e-09
2.27774598e-13
1.225963134e-09
2.107797766e-13
1.223214952e-09
1.924524763e-13
1.219764763e-09
1.728218956e-13
1.215653621e-09
1.518891203e-13
1.210921403e-09
1.296645921e-13
1.205605544e-09
1.061679752e-13
1.19974246e-09
8.141678849e-14
1.193366266e-09
5.544917098e-14
1.186510192e-09
2.830090693e-14
1.179205308e-09
1.171481899e-09
1.338557309e-15
4.557521959e-11
5.23697457e-15
1.333606713e-10
1.146875954e-14
2.162559782e-10
1.97696088e-14
2.944656081e-10
2.984496855e-14
3.681868944e-10
4.138784227e-14
4.376102165e-10
5.409777344e-14
5.029191382e-10
6.77026951e-14
5.642905955e-10
8.188305172e-14
6.218951366e-10
9.632541156e-14
6.758970539e-10
1.108408147e-13
7.264544857e-10
1.251855178e-13
7.737197111e-10
1.390751803e-13
8.178393827e-10
1.524624617e-13
8.589543856e-10
1.651006292e-13
8.972003965e-10
1.768995452e-13
9.327078736e-10
1.877887299e-13
9.656020567e-10
1.976052579e-13
9.960036093e-10
2.064493606e-13
1.024028072e-09
2.141180686e-13
1.049786835e-09
2.208113665e-13
1.073386436e-09
2.262999364e-13
1.094929641e-09
2.308439813e-13
1.11451458e-09
2.342129987e-13
1.132235943e-09
2.366881272e-13
1.148184032e-09
2.380576798e-13
1.162446027e-09
2.385919408e-13
1.17510494e-09
2.381179959e-13
1.186240938e-09
2.36851357e-13
1.195930287e-09
2.346518739e-13
1.204246658e-09
2.316670309e-13
1.21126008e-09
2.278165488e-13
1.217038166e-09
2.231671227e-13
1.221645126e-09
2.176890842e-13
1.225142993e-09
2.113730299e-13
1.227590602e-09
2.042347745e-13
1.229044771e-09
1.961825983e-13
1.229559468e-09
1.872919065e-13
1.229186588e-09
1.774130345e-13
1.227975601e-09
1.666587064e-13
1.225973889e-09
1.54825972e-13
1.223226785e-09
1.420670308e-13
1.219777522e-09
1.281508527e-13
1.215667537e-09
1.132646937e-13
1.21093629e-09
9.716378017e-14
1.205621645e-09
8.004189516e-14
1.199759582e-09
6.168261176e-14
1.193384625e-09
4.228787504e-14
1.186529587e-09
2.166147305e-14
1.179225935e-09
1.17150356e-09
9.40935242e-16
4.557427865e-11
3.678409467e-15
1.333579338e-10
8.028164209e-15
2.162516285e-10
1.377376434e-14
2.944598625e-10
2.067249678e-14
3.681799956e-10
2.84898558e-14
4.376023991e-10
3.69873909e-14
5.029106407e-10
4.589909911e-14
5.642816838e-10
5.496131634e-14
6.218860744e-10
6.40009141e-14
6.758880143e-10
7.284703037e-14
7.264456396e-10
8.124044438e-14
7.737113177e-10
8.911956325e-14
8.178315036e-10
9.637070148e-14
8.589471345e-10
1.02829751e-13
8.971939374e-10
1.085856007e-13
9.327021177e-10
1.13433515e-13
9.655972088e-10
1.175101196e-13
9.959995327e-10
1.207420257e-13
1.02402484e-09
1.232228614e-13
1.049784354e-09
1.249668207e-13
1.073384692e-09
1.260455414e-13
1.094928562e-09
1.265195514e-13
1.114514106e-09
1.264573659e-13
1.132236005e-09
1.259262265e-13
1.148184563e-09
1.250104291e-13
1.162446943e-09
1.237519276e-13
1.175106199e-09
1.222569292e-13
1.186242433e-09
1.20498809e-13
1.195932045e-09
1.186046122e-13
1.204248552e-09
1.164783967e-13
1.211262207e-09
1.142851002e-13
1.21704036e-09
1.118332082e-13
1.221647578e-09
1.093312361e-13
1.225145495e-09
1.0651848e-13
1.227593415e-09
1.035865711e-13
1.229047703e-09
1.00255423e-13
1.229562799e-09
9.667385101e-14
1.22919017e-09
9.260028361e-14
1.227979674e-09
8.811035936e-14
1.225978379e-09
8.299623755e-14
1.223231899e-09
7.729159895e-14
1.219783227e-09
7.082274567e-14
1.215674006e-09
6.360182335e-14
1.210943511e-09
5.547267561e-14
1.205629774e-09
4.644845783e-14
1.199768606e-09
3.63996295e-14
1.193394674e-09
2.536055405e-14
1.186540626e-09
1.320108869e-14
1.179238094e-09
1.171516761e-09
4.343142912e-16
4.557384434e-11
1.693850492e-15
1.333566743e-10
3.652460142e-15
2.162496698e-10
6.161140977e-15
2.944573538e-10
9.057922507e-15
3.681770989e-10
1.216939937e-14
4.375992876e-10
1.529538733e-14
5.029075147e-10
1.824339861e-14
5.642787358e-10
2.088089658e-14
6.218834369e-10
2.310525263e-14
6.758857899e-10
2.471816011e-14
7.264440267e-10
2.566167053e-14
7.737103742e-10
2.594825586e-14
8.17831217e-10
2.542284198e-14
8.589476599e-10
2.418909586e-14
8.971951711e-10
2.222334611e-14
9.327040835e-10
1.955515903e-14
9.65599877e-10
1.634718631e-14
9.960027407e-10
1.256278883e-14
1.024028624e-09
8.485710311e-15
1.049788431e-09
4.025338097e-15
1.073389153e-09
-4.657382523e-16
1.094933053e-09
-5.099365379e-15
1.114518739e-09
-9.505493785e-15
1.132240411e-09
-1.380644792e-14
1.148188864e-09
-1.763607596e-14
1.162450772e-09
-2.113289831e-14
1.175109696e-09
-2.397730473e-14
1.186245277e-09
-2.632027994e-14
1.195934388e-09
-2.792054942e-14
1.204250152e-09
-2.890811234e-14
1.211263194e-09
-2.913611449e-14
1.217040588e-09
-2.872545127e-14
1.221647168e-09
-2.762055114e-14
1.22514439e-09
-2.592885217e-14
1.227591723e-09
-2.369966621e-14
1.229045473e-09
-2.100996536e-14
1.22956011e-09
-1.79881994e-14
1.229187148e-09
-1.46937622e-14
1.22797638e-09
-1.132874699e-14
1.225975014e-09
-7.93025515e-15
1.223228501e-09
-4.742805943e-15
1.21978004e-09
-1.778851629e-15
1.215671042e-09
6.922550805e-16
1.210941039e-09
2.669137063e-15
1.205627797e-09
3.898763671e-15
1.199767376e-09
4.394889357e-15
1.193394178e-09
3.93172108e-15
1.186541089e-09
2.523271737e-15
1.179239502e-09
1.171519284e-09
-1.999116545e-16
4.557404425e-11
-7.897236848e-16
1.333572641e-10
-1.815277559e-15
2.162506954e-10
-3.343168616e-15
2.944588817e-10
-5.451562189e-15
3.681792073e-10
-8.256303539e-15
4.376020924e-10
-1.185680613e-14
5.029111152e-10
-1.631639798e-14
5.642831954e-10
-2.167150887e-14
6.21888792e-10
-2.80189594e-14
6.758921374e-10
-3.538911718e-14
7.264513968e-10
-4.368054376e-14
7.737186656e-10
-5.293273665e-14
8.178404692e-10
-6.306153343e-14
8.589577887e-10
-7.389425493e-14
8.972060039e-10
-8.54528941e-14
9.327156421e-10
-9.741310343e-14
9.656118372e-10
-1.097326812e-13
9.960150603e-10
-1.22131187e-13
1.024041023e-09
-1.344618784e-13
1.049800762e-09
-1.464956067e-13
1.073401187e-09
-1.580266764e-13
1.094944584e-09
-1.688652341e-13
1.114529578e-09
-1.787931863e-13
1.132250339e-09
-1.876459923e-13
1.148197717e-09
-1.952333175e-13
1.162458359e-09
-2.014097224e-13
1.175115872e-09
-2.060638782e-13
1.186249932e-09
-2.090724594e-13
1.195937397e-09
-2.104153875e-13
1.204251495e-09
-2.099730763e-13
1.211262752e-09
-2.078417352e-13
1.217038456e-09
-2.039040134e-13
1.22164323e-09
-1.983676476e-13
1.225138853e-09
-1.911305966e-13
1.227584486e-09
-1.82503513e-13
1.229036846e-09
-1.723830344e-13
1.229549989e-09
-1.611422485e-13
1.229175907e-09
-1.48732288e-13
1.22796397e-09
-1.355571254e-13
1.225961838e-09
-1.216077179e-13
1.223214551e-09
-1.072847646e-13
1.219765717e-09
-9.260991705e-14
1.215656367e-09