/*--------------------------------*- C++ -*----------------------------------*\
  =========                 |
  \\      /  F ield         | OpenFOAM: The Open Source CFD Toolbox
   \\    /   O peration     | Website:  https://openfoam.org
    \\  /    A nd           | Version:  7
     \\/     M anipulation  |
\*---------------------------------------------------------------------------*/
FoamFile
{
    version     2.0;
    format      ascii;
    class       volScalarField;
    location    "0.0003";
    object      rho;
}
// * * * * * * * * * * * * * * * * * * * * * * * * * * * * * * * * * * * * * //

dimensions      [1 -3 0 0 0 0 0];

internalField   nonuniform List<scalar> 
1167
(
958.4631589
958.4352376
958.3754032
958.2870458
958.1722844
958.0327017
957.8699099
957.6854452
957.4809656
957.2578466
957.0173104
956.7608935
956.4897579
956.2049421
955.907934
955.5994115
955.2807947
954.9527318
954.6164113
954.2724871
953.9220107
953.5655256
953.2040392
952.8379189
952.4681823
952.0950531
951.7195276
951.3417716
950.9625222
950.5821279
950.2010472
949.8198059
949.4385698
949.0580412
948.6781657
948.2995718
958.210062
958.1823249
958.1228848
958.0350999
957.9209058
957.7820117
957.6200215
957.436719
957.2333675
957.0113413
956.7722097
956.5171961
956.2473632
955.9642681
955.6686785
955.3619067
955.0448841
954.718577
954.3839788
954.041862
953.6931629
953.3385546
952.9788402
952.6146688
952.2466585
951.8755526
951.5017187
951.1259609
950.7484282
950.3699958
949.9907427
949.6113403
949.2320347
948.8532048
948.4752566
948.098299
947.7229333
947.3490782
946.9773187
946.6075854
946.2402979
945.8755159
945.5134726
945.1543607
944.7982312
944.4453578
944.0956719
943.7495219
943.4067419
943.0677107
957.9623299
957.9347278
957.8755766
957.788218
957.6745779
957.5364592
957.3754994
957.1931076
956.9907369
956.7700124
956.5321738
956.2783674
956.0101313
955.7283963
955.4343627
955.1292177
954.8137327
954.4892185
954.1561897
953.8159592
953.4688824
953.1161866
952.7581648
952.3958703
952.0296549
951.6603792
951.2884232
950.9143931
950.53881
950.1620294
949.7847188
949.4069715
949.0295814
948.6524912
948.2763131
947.9011785
947.5274612
947.1554461
946.7852555
946.4173336
946.0515812
945.6885701
945.3280952
944.970664
944.6161157
944.2648256
943.9167265
943.5720857
943.2308783
942.8932908
957.7195592
957.6920889
957.63322
957.5463656
957.4334401
957.2960874
957.1358929
956.9543673
956.7532163
956.5336476
956.2969182
956.0445644
955.7776456
955.4972842
955.2048929
954.9011434
954.5874421
954.2644038
953.9332206
953.5945203
953.2493292
952.8982011
952.5420731
952.1813789
951.8170943
951.4494311
951.0793869
950.707058
950.3332972
949.9583204
949.5827263
949.2068706
948.8310793
948.4558465
948.0812452
947.7079471
947.335863
946.9655814
946.5970836
946.230775
945.8667581
945.5052565
945.146499
944.7905284
944.4376511
944.0877911
943.7413274
943.3980846
943.0584724
942.7222428
957.4818176
957.454518
957.396015
957.3096133
957.1972169
957.0605072
956.9010848
956.7206959
956.5205352
956.3019752
956.0665699
955.8154697
955.5497673
955.2710332
954.9799599
954.6778496
954.3656204
954.044221
953.714645
953.3776114
953.0340918
952.684674
952.3302242
951.9713305
951.6086975
951.2428994
950.8744341
950.5039739
950.1317952
949.7586842
949.3847105
949.0106659
948.6365741
948.2630213
947.8902001
947.5184709
947.1481639
946.779398
946.4126519
946.0478283
945.6855258
945.3255483
944.9684143
944.6139825
944.2626351
943.914322
943.5693159
943.2276088
942.8893895
942.5546683
957.2489751
957.2218015
957.1635684
957.0775652
956.9656869
956.8297446
956.6712843
956.4917137
956.2924585
956.0751116
955.840874
955.5909014
955.3267259
955.0492415
954.759607
954.4590167
954.1482014
953.8284999
953.5003598
953.1651097
952.8230698
952.4754507
952.1225261
951.7654653
951.4044277
951.0403956
950.6736068
950.3048423
949.9344331
949.5629298
949.1907748
948.8182671
948.4459643
948.07393
947.7028806
947.3327336
946.9640948
946.5969699
946.2317789
945.8686393
945.5077938
945.1494799
944.7937615
944.44095
944.0909899
943.744264
943.4006153
943.0604575
942.7235581
942.3903511
957.0207442
956.9936939
956.935725
956.8502172
956.7390238
956.603772
956.446019
956.267248
956.0691139
955.8528246
955.6196231
955.3710214
955.1080786
954.8318449
954.5437617
954.2444771
953.935329
953.6170014
953.2905678
952.956757
952.6164391
952.2703088
951.919175
951.5636058
951.2043517
950.8418229
950.4768232
950.1095725
949.7409541
949.3710259
949.0005916
948.6297323
948.2590334
947.8887246
947.5191791
947.1507478
946.7835727
946.4181414
946.0543863
945.6929063
945.3335279
944.9767957
944.6225615
944.2712411
943.9227757
943.5774708
943.2353089
942.8965092
942.5610727
942.229186
956.7972085
956.7703221
956.7127037
956.6276061
956.516902
956.382244
956.2251871
956.0474609
955.8502486
955.6349015
955.4029317
955.1555236
954.8937119
954.6189879
954.3321379
954.0343409
953.7266104
953.4097487
953.0848751
952.7525378
952.4138463
952.0692403
951.7197699
951.3657748
951.0081492
950.6472634
950.2838446
949.9183195
949.5512127
949.1830321
948.8140739
948.4449368
948.0756996
947.7070994
947.3390737
946.9722595
946.6066616
946.2427421
945.8806076
945.5205462
945.1627793
944.8074189
944.4547555
944.1047809
943.7578555
943.4138685
943.0732111
942.7356937
942.4017285
942.0711003
956.5782292
956.5514592
956.4940901
956.4093603
956.299134
956.1651501
956.0089953
955.8320326
955.6356661
955.42143
955.1905912
954.9442315
954.6837912
954.4102804
954.1247109
953.8283991
953.5219494
953.2067082
952.883172
952.5524836
952.2151786
951.8722743
951.524219
951.1719243
950.8157305
950.4565559
950.0945838
949.7307759
949.3651893
948.9986518
948.6312809
948.2636848
947.8961075
947.5289593
947.1625898
946.7971884
946.4332276
946.0706963
945.7101675
945.3515046
944.9952922
944.6413494
944.2901526
943.9416083
943.5960816
943.2535202
942.9142001
942.5780874
942.2454215
941.916159
956.3635297
956.3368734
956.2797478
956.1954263
956.0858294
955.9525166
955.7970219
955.6208062
955.4254502
955.212257
954.9823815
954.7372309
954.4780038
954.2056268
953.9215445
953.6264485
953.3215071
953.0075932
952.6855411
952.3562928
952.0205057
951.679104
951.3325948
950.9818005
950.6272086
950.2695106
949.9092114
949.5468304
949.1829218
948.8178009
948.452087
948.0858969
947.7199663
947.3542655
946.989475
946.6255759
946.2630977
945.9021117
945.5429773
945.1858752
944.8309918
944.478572
944.1286802
943.7816303
943.4373831
943.0962826
942.7582086
942.4235255
942.0920834
941.764211
956.1531216
956.1266157
956.0698123
955.9859175
955.8767767
955.7440183
955.5891695
955.4138858
955.2194576
955.0071403
954.778328
954.5343694
954.2762008
954.0051875
953.7223026
953.4284898
953.1249751
952.812313
952.4918179
952.1638756
951.8297027
951.4896406
951.1447503
950.7953175
950.4423602
950.0860488
949.7273889
949.3664643
949.0041327
948.6405286
948.2763049
947.9116988
947.5471811
947.1830784
946.8196511
946.4573341
946.0961974
945.736765
945.3789607
945.0233882
944.6698448
944.3188806
943.9703436
943.6246839
943.2817899
942.9420205
942.6052812
942.2718907
941.9417503
941.6151367
955.9469904
955.9205931
955.8640222
955.7804708
955.6717763
955.5395649
955.3855888
955.2110887
955.0174466
954.8060646
954.5784005
954.3354227
954.0784335
953.8086558
953.5268944
953.2345374
952.9322156
952.6210457
952.301809
951.9753736
951.6425492
951.3040001
950.96049
950.612611
950.261035
949.9063301
949.5490284
949.1897136
948.8287401
948.4667292
948.1038568
947.740837
947.3776845
947.015135
946.6531247
946.2922744
945.9325973
945.5745478
945.2182436
944.8639703
944.5119033
944.1622047
943.8151178
943.4707003
943.1292253
942.7906666
942.4553167
942.1231162
941.7943277
941.4688708
955.7448433
955.7185521
955.6622089
955.5789933
955.4708479
955.3393673
955.1860049
955.0121989
954.8193838
954.6090819
954.3823185
954.1403506
953.8846159
953.6158935
953.3354651
953.0442954
952.7432338
952.4334371
952.1154448
951.7905189
951.4589595
951.1219489
950.7797307
950.433411
950.0831603
949.7300197
949.3741026
949.0163089
948.6567733
948.2962128
947.9348391
947.5732044
947.2115933
946.8503587
946.4898769
946.1303227
945.7721484
945.4153859
945.0605634
944.7075522
944.356933
944.008503
943.6628111
943.3196635
942.9795265
942.6422212
942.3081701
941.9771962
941.6496721
941.3253935
955.5465897
955.5204372
955.4644043
955.3816464
955.2739825
955.1430169
954.9902541
954.8171882
954.6253591
954.4158757
954.1899936
953.9492527
953.6945027
953.4269085
953.1477402
952.8576776
952.5580216
952.2493975
951.9328797
951.6091715
951.2790871
950.9433424
950.602624
950.2575975
949.908882
949.5570377
949.2026632
948.8461701
948.4881651
948.128902
947.7690554
947.4087228
947.048622
946.6887094
946.3296909
945.9715003
945.6147098
945.2593526
944.9058369
944.5542469
944.2048652
943.8578423
943.5133565
943.1715873
942.832627
942.4966719
942.163778
941.8341188
941.5077202
941.1847263
955.3524392
955.3263939
955.2705769
955.1881377
955.0808878
954.9504253
954.7983388
954.6261372
954.4350421
954.2263593
954.0015988
953.7617949
953.5080078
953.2417018
952.9635783
952.6747889
952.3763188
952.0689297
951.7537649
951.4312702
951.1026216
950.7680999
950.4288658
950.0850972
949.7378783
949.3873394
949.034439
948.6792971
948.3227121
947.9648539
947.606375
947.2475004
946.8886955
946.530259
946.1724922
945.815755
945.4602096
945.1062877
944.7539951
944.4038092
944.0556318
943.7099894
943.3666867
943.0262694
942.6884705
942.3538337
942.0220815
941.6937058
941.3684115
941.0466782
955.1620045
955.1360576
955.0804514
954.9983233
954.8914778
954.7616529
954.6102795
954.4387252
954.2483479
954.0406486
953.8168055
953.577893
953.3252965
953.0599976
952.7829322
952.4954206
952.1980424
951.8920408
951.578018
951.2569336
950.929464
950.5963825
950.2583597
949.916055
949.5700708
949.2210081
948.8693512
948.5156779
948.1603373
947.8039477
947.446721
947.0893023
946.7317395
946.3747499
946.0182417
945.6629008
945.3086565
944.9560615
944.605088
944.2561611
943.9093176
943.5648787
943.2229089
942.8836421
942.5471561
942.2136452
941.8831723
941.5558924
941.2318402
940.91119
954.9751951
954.9493442
954.8939437
954.8121885
954.7058998
954.5766057
954.4257909
954.2548692
954.0653566
953.8585309
953.6355053
953.3976039
953.1460543
952.8817134
952.6058982
952.319421
952.0232669
951.7184632
951.4056157
951.0858508
950.7595468
950.4278629
950.0910258
949.7501547
949.4053901
949.0577616
948.7073617
948.3550864
948.0010485
947.6460182
947.2901454
946.9340261
946.5778641
946.2221072
945.8670041
945.5128676
945.1600137
944.8086041
944.4589926
944.1112344
943.7657317
943.4224425
943.081787
942.7436432
942.4084462
942.0760407
941.7468232
941.4206188
941.097794
940.7781985
954.7920289
954.7663108
954.7111951
954.629791
954.5238871
954.3950609
954.2447915
954.074637
953.8859283
953.6798439
953.4576659
953.2208304
952.9701728
952.706912
952.4321749
952.1467081
951.8518541
951.5481162
951.2365976
950.9179405
950.5930006
950.2624614
949.9270156
949.5873186
949.2439635
948.8975212
948.5485284
948.1974443
947.8448172
947.4909896
947.1365194
946.7815967
946.4268318
946.0722604
945.7185369
945.3655883
945.0140929
944.6638916
944.3155722
943.9690386
943.6247757
943.2827131
942.9432478
942.606318
942.2722786
941.9410607
941.6129704
941.2879117
940.9662043
940.6477043
954.6125
954.5868732
954.5319529
954.4508374
954.3453088
954.2169389
954.0673622
953.8979145
953.7098687
953.5045072
953.2833703
953.0473586
952.797587
952.5354677
952.261682
951.9774277
951.6836156
951.381012
951.0706973
950.7531445
950.4295177
950.1000983
949.7660154
949.4274659
949.0854901
948.7402085
948.3925933
948.0427022
947.6914337
947.3388482
946.9856893
946.63205
946.2785433
945.9252893
945.5727701
945.2211687
944.8708222
944.5219424
944.1747578
943.829527
943.4863821
943.1455982
942.8072261
942.4715513
942.1385886
941.808594
941.4815521
941.1576895
940.8370105
940.5196842
954.4363523
954.4108143
954.3560843
954.27525
954.1700923
954.0423603
953.8933642
953.7244991
953.537099
953.3326801
953.1123178
952.8771088
952.6284263
952.3671964
952.0943884
951.8112952
951.5184711
951.2171137
950.9078342
950.591568
950.269018
949.9409046
949.6079454
949.2707178
948.9298905
948.585949
948.2394761
947.8909378
947.540822
947.1895862
946.8375786
946.4852874
946.1329246
945.7810045
945.4296289
945.0793497
944.7301313
944.3825496
944.03648
943.6925291
943.3504964
943.0109546
942.6736826
942.339216
942.0073354
941.678518
941.3525173
941.029819
940.7101503
940.3939762
954.2635103
954.2380586
954.1835138
954.1030598
953.9984103
953.8711075
953.7226117
953.554313
953.3677265
953.164059
952.9444295
952.7101419
952.4623819
952.2020186
951.9303612
951.6482006
951.3564677
951.056197
950.7479563
950.4329188
950.1114207
949.7845982
949.4527234
949.1168082
948.7770836
948.4344583
948.0890993
947.7418875
947.3929019
947.042989
946.6921393
946.3411405
945.9899687
945.6392922
945.2891445
944.9400573
944.592083
944.2456419
943.900831
943.5579761
943.2171888
942.8787125
942.5426636
942.2092477
941.8785605
941.5507668
941.2259332
940.9042394
940.5856999
940.2705172
954.0940205
954.068691
954.0144077
953.9342323
953.8299252
953.7030388
953.5550285
953.3874355
953.2015517
952.9985448
952.7796683
952.546332
952.2993745
952.0399856
951.7693158
951.4880628
951.1974909
950.8981799
950.591146
950.2771147
949.9568318
949.6310831
949.3004254
948.9656341
948.6271361
948.2856484
947.9415453
947.5954727
947.2477759
946.8989761
946.5494257
946.1995293
945.8496462
945.5000754
945.1512094
944.8032164
944.4565029
944.1111456
943.7675803
943.4257956
943.0862327
942.7488047
942.4139592
942.0815769
941.7520632
941.4252763
941.1015906
940.7808842
940.4634703
940.1492446
953.9278192
953.9025702
953.8484594
953.7685387
953.6645629
953.5380796
953.3906902
953.2237241
953.0384267
952.8360599
952.6181032
952.3855026
952.1393237
951.8809916
951.6111708
951.3309637
951.0413564
950.7430149
950.4371223
950.1240714
949.8050042
949.4802738
949.1508592
948.8171101
948.4798648
948.1394357
947.7966005
947.4516075
947.1051807
946.7574644
946.4091883
946.060374
945.7117574
945.3632821
945.0156664
944.668788
944.3232758
943.9790493
943.6366456
943.2959956
942.9575543
942.6212507
942.2874998
941.9562195
941.6277736
941.3020502
940.9794229
940.6597332
940.3433787
940.0300964
949.9738663
949.6558208
949.3321958
949.0038799
948.6712365
948.3351254
947.9958219
947.6541403
947.3103047
946.9650211
946.6184956
946.2713392
945.9237437
945.5762195
945.228986
944.8824316
944.5367784
944.1923207
943.8493078
943.5079482
943.1684938
942.8310773
942.4959501
942.1632112
941.8330796
941.5056202
941.1810206
940.859361
940.5407733
940.2253563
939.9131354
)
;

boundaryField
{
    front_top
    {
        type            wedge;
    }
    front_middle
    {
        type            wedge;
    }
    front_bottom
    {
        type            wedge;
    }
    back_top
    {
        type            wedge;
    }
    back_middle
    {
        type            wedge;
    }
    back_bottom
    {
        type            wedge;
    }
    axis_top
    {
        type            symmetryPlane;
    }
    axis_middle
    {
        type            symmetryPlane;
    }
    axis_bottom
    {
        type            symmetryPlane;
    }
    wall_top
    {
        type            calculated;
        value           nonuniform List<scalar> 
23
(
942.8986929
942.7249649
942.5547654
942.3878931
942.2242296
942.0637056
941.9063852
941.7521088
941.600761
941.4522755
941.3066481
941.1638681
941.023758
940.8862566
940.7513048
940.6189294
940.4890499
940.3615334
940.2363198
940.1133463
939.9925923
939.874048
939.7575484
)
;
    }
    wall_middle
    {
        type            calculated;
        value           nonuniform 0();
    }
    wall_bottom
    {
        type            calculated;
        value           nonuniform 0();
    }
    inlet
    {
        type            calculated;
        value           nonuniform 0();
    }
    outlet
    {
        type            calculated;
        value           nonuniform 0();
    }
    procBoundary7to6
    {
        type            processor;
        value           nonuniform List<scalar> 
51
(
953.7646974
953.7395259
953.6855814
953.6059064
953.5022502
953.3763284
953.2294617
953.0630058
952.8782745
952.6767138
952.4594626
952.2275739
951.9823672
951.7248405
951.4558425
951.1767069
950.8879792
950.5907603
950.2857987
950.2857987
949.8262879
949.5091892
949.1867331
948.8593942
948.5279359
948.1928243
947.8547267
947.5140712
947.1714507
946.8272036
946.4819034
946.1357876
945.7894145
945.4429404
945.0969278
944.7514175
944.4069705
944.0635517
943.7217344
943.381404
943.0431278
942.7067221
942.372755
942.0410141
941.7120147
941.3855282
941.0620361
940.74133
940.4238273
940.1093329
939.7981561
)
;
    }
    procBoundary7to8
    {
        type            processor;
        value           nonuniform List<scalar> 
51
(
958.7216141
958.6935504
958.633411
958.5445951
958.4290627
958.288551
958.1249384
957.939546
957.7338516
957.5094157
957.2676775
957.009734
956.7371098
956.4508635
956.1520762
955.8420514
955.5215112
955.1918694
954.8535724
954.5080032
954.155503
953.7973325
953.4337964
953.0659658
952.6941843
952.3192746
951.9417272
951.5620899
951.1809508
950.7985668
950.4157205
950.0324581
949.649508
949.2669809
948.8853369
948.5048677
947.9223035
947.9223035
947.546776
947.1732027
946.8017376
946.4327628
946.0662069
945.7025862
945.341702
944.9840657
944.6294691
944.2783094
943.9304743
943.5862548
943.2455809
)
;
    }
}


// ************************************************************************* //
