/*--------------------------------*- C++ -*----------------------------------*\
  =========                 |
  \\      /  F ield         | OpenFOAM: The Open Source CFD Toolbox
   \\    /   O peration     | Website:  https://openfoam.org
    \\  /    A nd           | Version:  7
     \\/     M anipulation  |
\*---------------------------------------------------------------------------*/
FoamFile
{
    version     2.0;
    format      ascii;
    class       volScalarField;
    location    "0.0003";
    object      T;
}
// * * * * * * * * * * * * * * * * * * * * * * * * * * * * * * * * * * * * * //

dimensions      [0 0 0 1 0 0 0];

internalField   nonuniform List<scalar> 
1167
(
422.9021748
422.9426617
423.0294319
423.1575852
423.32407
423.5266169
423.762917
424.0307733
424.3278134
424.6520749
425.0018186
425.3748467
425.7695047
426.1843163
426.6171483
427.0670451
427.5319669
428.0109965
428.5024255
429.0053231
429.5181747
430.0402055
430.5699588
431.1069129
431.6495894
432.1976729
432.7497101
433.305466
433.8638631
434.4243936
434.9863854
435.5490654
436.1121896
436.6747199
437.2367349
437.7973018
423.2692617
423.3095028
423.3957468
423.5231367
423.6888855
423.890539
424.1257983
424.3921058
424.6876601
425.0105002
425.3583802
425.7295563
426.1225178
426.5350317
426.9660127
427.41358
427.8764049
428.3531052
428.8422565
429.3427541
429.8532507
430.3727815
430.9001881
431.4345353
431.9749304
432.5202944
433.0700974
433.6231656
434.1792863
434.7371759
435.2967213
435.8569341
436.4174517
436.9777137
437.5371176
438.0954996
438.651965
439.2066292
439.7586186
440.3080297
440.8542314
441.3971269
441.9363609
442.4716366
443.002869
443.5296394
444.05204
444.5695395
445.082375
445.5899687
423.6287556
423.6688217
423.7546907
423.8815273
424.0465571
424.2471878
424.4810704
424.7461898
425.0404681
425.3615777
425.7077508
426.0773548
426.4681854
426.8789205
427.3078439
427.7532553
428.2140592
428.688369
429.1754593
429.673434
430.1817955
430.6987664
431.2239354
431.755774
432.2937795
432.8367003
433.3839879
433.934759
434.4882531
435.0439517
435.6008737
436.1588837
436.7168098
437.2747358
437.8317545
438.3876683
438.9419194
439.4940806
440.0439644
440.5909045
441.1350412
441.6755159
442.212625
442.7456039
443.2746823
443.7992906
444.3195186
444.8349564
445.3456304
445.8512504
423.9812302
424.0211252
424.1066276
424.2327962
424.3968708
424.5964891
424.8293763
425.0933685
425.386019
425.7056053
426.0503339
426.4180029
426.8071039
427.2160347
427.6427681
428.0863549
428.5447716
429.0171475
429.5017656
429.9977316
430.5035651
431.0184744
431.5411035
432.0708323
432.6062414
433.1470321
433.691747
434.2402531
434.791301
435.3445774
435.8992027
436.4546536
437.0104494
437.5658585
438.1207716
438.6741905
439.2262436
439.7760531
440.3236411
440.8683985
441.4101659
441.9486026
442.4833594
443.0143634
443.5411481
444.0638175
444.5817948
445.095332
445.6038052
446.1075747
424.3265764
424.3662431
424.4512563
424.5768293
424.740216
424.9389977
425.1708764
425.433344
425.7246955
426.0429683
426.3859343
426.7519528
427.1394656
427.5462163
427.9712268
428.4126269
428.869105
429.3393021
429.8217904
430.3155412
430.8191535
431.3317854
431.852184
432.379502
432.912718
433.451
433.9936254
434.539613
435.0885618
435.6393178
436.1917816
436.7447856
437.2982956
437.851444
438.4039437
438.9552579
439.5048932
440.0526685
440.5978667
441.1406265
441.6800499
442.2164212
442.7489596
443.2778666
443.8025629
444.3231132
444.8391003
445.3505253
445.8570953
446.3587841
424.6649724
424.7044752
424.7891373
424.9141918
425.0769042
425.2746655
425.5052558
425.7666581
426.0568302
426.3734869
426.7149134
427.0794598
427.4649264
427.8700419
428.2931473
428.7325288
429.1871475
429.6550729
430.1356757
430.6270338
431.1286996
431.6389175
432.1573038
432.6821566
433.2132556
433.7491679
434.2895537
434.8332707
435.3798377
435.9284474
436.4784502
437.0294063
437.5804917
438.1316121
438.6817044
439.2308884
439.7782612
440.32381
440.8669049
441.4073648
441.9448219
442.4789142
443.0095386
443.5362214
444.0590367
444.5774027
445.0915441
445.6008317
446.105603
446.6051972
424.996826
425.0361683
425.1204865
425.2448798
425.4066727
425.6035227
425.833192
426.0935528
426.3822274
426.6974902
427.0375641
427.4002788
427.7841227
428.1875965
428.6086266
429.0462968
429.4986797
429.9648015
430.4431162
430.9325793
431.431937
431.9401894
432.4561665
432.9790493
433.5077481
434.041671
434.5796446
435.1213531
435.6655002
436.2120057
436.7596857
437.3084228
437.8573513
438.4061309
438.9542071
439.5010564
440.0464647
440.5897029
441.1308659
441.669057
442.2045269
442.7364568
443.2650596
443.7897058
444.3104744
444.8268992
445.3389964
445.8464279
446.3491813
446.8469667
425.3220061
425.3611283
425.4449758
425.5688301
425.729986
425.9260626
426.1548243
426.4137826
426.7012461
427.015279
427.3537107
427.714847
428.0972119
428.4986602
428.9180745
429.3537616
429.8042678
430.2684456
430.7446806
431.2321929
431.7293763
432.2356049
432.7493538
433.2701394
433.7966594
434.3283811
434.8642429
435.4036242
435.9457573
436.4898975
437.0356105
437.5820131
438.1289894
438.6754473
439.2214777
439.766133
440.3094023
440.8505945
441.3895457
441.9258207
442.459083
442.9891582
443.5156047
444.0384264
444.5570755
445.0717084
445.58173
446.0874139
446.5881323
447.0841973
425.6407054
425.679676
425.7631989
425.8865742
426.0471077
426.2422915
426.4698423
426.7278046
427.014164
427.3267167
427.6636485
428.0234141
428.4039438
428.8037945
429.2215187
429.6552209
430.1040451
430.5660465
431.0405226
431.5258206
432.0211759
432.525114
433.0369938
433.5554898
434.0801149
434.6095286
435.1434707
435.6805309
436.2206316
436.7625547
437.3061304
437.8504608
438.3951856
438.9396962
439.4834729
440.0262319
440.5672676
441.1065923
441.6433479
442.1777318
442.7088662
443.2370132
443.7614541
444.2823198
444.7990557
445.3117308
445.8199222
446.3236708
446.8226072
447.3167863
425.9533177
425.9921402
426.0753458
426.1981815
426.3578697
426.5521624
426.7788521
427.0358391
427.3208505
427.6320183
427.9676906
428.3258462
428.7047672
429.1031317
429.518858
429.9509642
430.3977679
430.858017
431.3305131
431.8138975
432.3072262
432.8091606
433.3189725
433.8354674
434.3579413
434.8853869
435.4170696
435.9522314
436.4900605
437.0300958
437.5714251
438.1138776
438.6563646
439.1989295
439.7405615
440.2812857
440.8203121
441.3575301
441.8923997
442.4246454
442.9539829
443.4800395
444.0027109
444.5215201
445.0365165
445.5471761
446.0536695
446.5554407
447.0527042
447.5449564
426.2598176
426.2984381
426.3812108
426.5034785
426.6625717
426.856141
427.0819874
427.3377261
427.6215067
427.9315294
428.2657924
428.6223584
428.9998921
429.3964292
429.8105768
430.2409832
430.6858805
431.1444826
431.6148865
432.0965488
432.5877035
433.0878682
433.5954995
434.1101924
434.6304609
435.1560655
435.6855327
436.2187471
436.7544481
437.2924418
437.831766
438.3720715
438.9126618
439.4530518
439.992854
440.5314197
441.0686414
441.6037354
442.1368096
442.6669586
443.194478
443.7185398
444.2393628
444.7562663
445.2694082
445.7782423
446.2829005
446.7828953
447.2783646
447.7688828
426.5602182
426.5986971
426.6811665
426.8029862
426.9614968
427.1543512
427.3790206
427.6337245
427.9164774
428.2252647
428.55799
428.9132709
429.2892362
429.6841285
430.0968008
430.5252495
430.9685781
431.4251756
431.89392
432.3735595
432.8629254
433.3610599
433.8668564
434.3794585
434.8978894
435.421323
435.9489841
436.4800189
437.0139099
437.5497435
438.0872629
438.6254126
439.1641716
439.7024483
440.2403357
440.7769092
441.3121456
441.8453643
442.3763849
442.9047759
443.4302688
443.9526147
444.4714422
444.9866569
445.4978415
446.0050257
446.5077625
447.0061305
447.4997261
447.9886596
426.8549386
426.8932789
426.9754512
427.0968324
427.2546089
427.4464776
427.6703453
427.9241418
428.2058042
428.5131409
428.8446862
429.1986356
429.5729181
429.9664251
430.3773106
430.8041901
431.2458465
431.7006087
432.1677093
432.645317
433.1330118
433.6290731
434.1331597
434.6436574
435.160328
435.6816476
436.2074584
436.7364391
437.268397
437.8022766
438.3377677
438.8740544
439.4107156
439.9472274
440.4830294
441.0178593
441.5510411
442.0825227
442.6115124
443.138196
443.6617006
444.1823218
444.6992316
445.2127116
445.7220555
446.227522
446.7284686
447.2251511
447.7170001
448.2043126
427.1441035
427.1822575
427.264011
427.3847745
427.5419133
427.7331093
427.9561932
428.2090124
428.4893487
428.7956135
429.1260037
429.4782997
429.8512901
430.2433007
430.6525017
431.0779252
431.517691
431.9709076
432.4360213
432.9120212
433.3977306
433.8921148
434.39418
434.9029601
435.4175559
435.9371517
436.4608735
436.988121
437.5180035
438.0501503
438.583566
439.1181081
439.6527127
440.1874443
440.7212528
441.254234
441.7855334
442.315097
442.8423117
443.367046
443.8888716
444.4075565
444.9228267
445.4344056
445.9421462
446.4457455
446.9451104
447.4399708
447.9302781
448.4158058
427.4274002
427.4654132
427.5468847
427.667232
427.8238299
428.0143684
428.236554
428.4882117
428.7675868
429.0728024
429.4016824
429.7527455
430.1244718
430.5147475
430.9225749
431.3462942
431.7844873
432.236062
432.6993625
433.1737558
433.6575327
434.1502983
434.6503597
435.1574698
435.6700422
436.187896
436.7096249
437.2350596
437.7630252
438.2932754
438.8248469
439.3574081
439.8902694
440.422987
440.9551118
441.486106
442.015725
442.5433214
443.0688817
443.5916877
444.1118796
444.6286636
445.1423246
445.6520376
446.1581938
446.6599697
447.1577722
447.6508537
448.1396474
448.6234225
427.7053867
427.7432712
427.8244674
427.9444083
428.1004776
428.29016
428.5113912
428.7622014
429.0406363
429.3445321
429.6721968
430.0220902
430.3922149
430.7811633
431.1875937
431.6095975
432.0463516
432.4960556
432.9578484
433.4303409
433.9125584
434.4033805
434.9018359
435.406967
435.9178978
436.4337524
436.9538244
437.4772676
438.0035717
438.5318258
439.0617197
439.5922982
440.1234918
440.654234
441.1846605
441.7137482
442.241599
442.7673852
443.2911432
443.8122332
444.3305936
444.8457374
445.3575606
445.8657052
446.3700461
446.8702832
447.366313
447.8578934
448.3449626
448.8272487
427.9781891
428.0159482
428.0968755
428.2163185
428.371635
428.5606151
428.7811152
429.0310971
429.3083739
429.6111072
429.9376998
430.2862445
430.6549741
431.0426635
431.4474107
431.8680523
432.3031688
432.7512762
433.2115079
433.6822287
434.162902
434.6518387
435.1487212
435.6519131
436.1612203
436.6751327
437.1935234
437.7150749
438.2396264
438.7660419
439.2941027
439.8229264
440.3522116
440.8812926
441.4097981
441.9372606
442.4632056
442.9873885
443.5092762
444.0287808
444.5452952
445.0588752
445.5688845
446.0754982
446.5780556
447.076781
447.5710701
448.0611766
448.5465397
449.0273757
428.2457748
428.2833542
428.3638966
428.4828719
428.6376851
428.8260532
429.0458394
429.2947934
429.570998
429.8727596
430.1982326
430.5453448
430.9129029
431.2991502
431.7024629
432.1217732
432.5551362
433.0018372
433.4602775
433.9295336
434.408366
434.8957854
435.3907871
435.8924184
436.3998166
436.912149
437.4286317
437.948593
438.4712273
438.9960318
439.5221827
440.0493999
440.5767779
441.1042635
441.6308819
442.1567393
442.6808221
443.2033632
443.7234807
444.2413126
444.756128
445.2680251
445.7764026
446.281345
446.7823123
447.2793988
447.7721363
448.2606596
448.7444785
449.2238
428.5081464
428.5456066
428.6258935
428.7444916
428.898814
429.0865849
429.3054395
429.5534514
429.8287876
430.1296015
430.4536682
430.7996992
431.166091
431.5508025
431.9528629
432.3705413
432.8025261
433.2477156
433.704544
434.1723367
434.6493988
435.1353335
435.6284917
436.1285975
436.6341268
437.1449128
437.6595266
438.1778908
438.6986807
439.2218116
439.7461837
440.2716613
440.7973343
441.323024
441.8480118
442.372023
442.8945518
443.4152781
443.9338564
444.4498948
444.9631894
445.4733218
445.980209
446.4834152
446.9829098
447.4783004
447.9696011
448.4564621
448.9388673
449.416553
428.7656725
428.8030167
428.8830548
429.0012853
429.1551219
429.3420283
429.5601129
429.8073623
430.0818526
430.381394
430.7044418
431.0494193
431.4143435
431.7978855
432.1986512
432.6147693
433.0454513
433.4889607
433.9444216
434.410478
434.8861138
435.3702849
435.8619486
436.3602669
436.8642643
437.3732339
437.8863229
438.4028491
438.9220955
439.4433889
439.9662156
440.489853
441.013987
441.5378522
442.061296
442.5834939
443.1044959
443.6234387
444.1405036
444.6547787
445.1665576
445.6749766
446.1803595
446.6818958
447.1799066
447.6736668
448.1635382
448.6487812
449.1297971
449.6058759
429.0184582
429.0556896
429.1354859
429.2532026
429.4063509
429.5926962
429.8101266
430.0566346
430.3300306
430.6285767
430.9506639
431.2944108
431.6581084
432.040511
432.4397245
432.8546142
433.2838379
433.7258982
434.1799823
434.6443837
435.1186262
435.6010517
436.091275
436.5878155
437.0903446
437.5975292
438.1091315
438.6238542
439.1415868
439.6610782
440.1823459
440.7042219
441.2267427
441.748914
442.2706842
442.7912592
443.3105574
443.827948
444.343281
444.8560641
445.3661243
445.8730905
446.3767813
446.8768807
447.373237
447.8655941
448.3538434
448.8377058
449.3171498
449.791861
429.2664302
429.303496
429.3829378
429.5002884
429.6529896
429.8387909
430.0555868
430.3011473
430.5736088
430.8712901
431.1923843
431.5348535
431.8974976
432.2785989
432.6764961
433.090191
433.5178498
433.9586442
434.4111003
434.8741707
435.3467749
435.8277714
436.3163541
436.8113917
437.3122653
437.8179251
438.3278263
438.8410194
439.3569986
439.8749956
440.3944902
440.9148835
441.4356419
441.9563206
442.4763334
442.9954276
443.5129935
444.0289129
444.5425299
445.0538562
445.5622256
446.0677616
446.5697864
447.0684711
447.5631994
448.0541757
448.5408289
449.0233329
449.5012075
449.9746
429.5096763
429.5466373
429.6258543
429.7428728
429.8951417
430.080417
430.296378
430.5411041
430.8127993
431.1096434
431.4294969
431.771002
432.1326244
432.5123003
432.9090816
433.3213746
433.7477542
434.1872644
434.6381855
435.0999592
435.5709207
436.0505664
436.5374664
437.0311179
437.5302935
438.0345418
438.5427202
439.0544682
439.5687183
440.0852611
440.603016
441.121953
441.6409786
442.1601762
442.6784746
443.1960539
443.7119729
444.2263474
444.7383706
445.2481403
445.7549694
446.2589577
446.7594762
447.2566404
447.7498962
448.2394034
448.7245917
449.2056907
449.6820924
450.1541837
435.3216313
435.7912327
436.2693953
436.7548222
437.2469901
437.7446393
438.2473732
438.7539945
439.2641785
439.7768839
440.2918096
440.8080507
441.3253246
441.8428726
442.3603677
442.8772301
443.3931261
443.9076136
444.4203163
444.930918
445.4390364
445.9444669
446.4468264
446.9459595
447.4415299
447.9334322
448.4213767
448.9052337
449.3847958
449.8599056
450.3305151
)
;

boundaryField
{
    front_top
    {
        type            wedge;
    }
    front_middle
    {
        type            wedge;
    }
    front_bottom
    {
        type            wedge;
    }
    back_top
    {
        type            wedge;
    }
    back_middle
    {
        type            wedge;
    }
    back_bottom
    {
        type            wedge;
    }
    axis_top
    {
        type            symmetryPlane;
    }
    axis_middle
    {
        type            symmetryPlane;
    }
    axis_bottom
    {
        type            symmetryPlane;
    }
    wall_top
    {
        type            convectiveRadiativeHeatFlux;
        mode            convectiveRadiative;
        kappaMethod     fluidThermo;
        kappa           none;
        alphaAni        Anialpha;
        h               uniform 165;
        Ta              constant 513.15;
        emissivityNozzle 0.95;
        emissivityFilament 0.95;
        dNozzle         2;
        dFilament       1.65;
        refValue        uniform 513.15;
        refGradient     nonuniform List<scalar> 
23
(
5961.316088
5942.26969
5923.493766
5905.034515
5886.899054
5869.081429
5851.686221
5834.627434
5817.864978
5801.393014
5785.180523
5769.208736
5753.512321
5738.085672
5722.923374
5708.089489
5693.555954
5679.266923
5665.216715
5651.399284
5637.790108
5624.36732
5611.159611
)
;
        valueFraction   nonuniform List<scalar> 
23
(
0.003189162875
0.003188849773
0.003188499071
0.003188145706
0.003187799249
0.003187459547
0.003187178698
0.003186918756
0.003186663854
0.003186413873
0.003186151205
0.003185865227
0.003185584674
0.003185309419
0.003185039338
0.003184807768
0.003184603544
0.003184403105
0.003184206353
0.003184013186
0.0031838105
0.003183585946
0.003183365314
)
;
        value           nonuniform List<scalar> 
23
(
445.8431565
446.1034949
446.3586385
446.6088839
446.8544034
447.0952962
447.3314609
447.5631328
447.7904806
448.0135999
448.2324928
448.4471717
448.6578993
448.8647645
449.0678528
449.2671205
449.4626855
449.6547449
449.8433866
450.0287024
450.2107206
450.3894535
450.5651476
)
;
    }
    wall_middle
    {
        type            fixedValue;
        value           nonuniform 0();
    }
    wall_bottom
    {
        type            fixedValue;
        value           nonuniform 0();
    }
    inlet
    {
        type            fixedValue;
        value           nonuniform 0();
    }
    outlet
    {
        type            zeroGradient;
    }
    procBoundary7to6
    {
        type            processor;
        value           nonuniform List<scalar> 
51
(
429.748498
429.785358
429.8643586
429.9810573
430.1329099
430.3174253
430.5326933
430.776754
431.0477102
431.3434712
431.6623958
432.0029688
432.3632823
432.741899
433.1375998
433.5484498
433.973672
434.4116692
434.8613615
434.8613615
435.5394952
436.0078437
436.4844258
436.968556
437.4591192
437.9554381
438.4565349
438.9617846
439.4703154
439.981631
440.4948847
441.0097265
441.5253283
442.0414585
442.5572788
443.0727274
443.5869651
444.1000413
444.6110958
445.1202951
445.6267851
446.130835
446.631587
447.1293525
447.6233509
448.1139175
448.6003206
449.0828648
449.5609133
450.0347507
450.5039017
)
;
    }
    procBoundary7to8
    {
        type            processor;
        value           nonuniform List<scalar> 
51
(
422.5275161
422.5681876
422.6553532
422.7841022
422.9516157
423.1554016
423.3927664
423.6618269
423.9604734
424.2864771
424.6377842
425.0128374
425.4094565
425.8261366
426.2613383
426.7131957
427.1806876
427.6617809
428.1558514
428.6609042
429.1764638
429.7007069
430.2332062
430.7724095
431.3178275
431.8682661
432.4230154
432.9812794
433.5422
434.1054047
434.6697445
435.2351531
435.8005567
436.3657915
436.9301753
437.493274
438.3563515
438.3563515
438.9132635
439.4677157
440.0194727
440.5679596
441.1132744
441.6546402
442.1923436
442.7256131
443.2547485
443.7791471
444.2989657
444.8137582
445.323618
)
;
    }
}


// ************************************************************************* //
