/*--------------------------------*- C++ -*----------------------------------*\
  =========                 |
  \\      /  F ield         | OpenFOAM: The Open Source CFD Toolbox
   \\    /   O peration     | Website:  https://openfoam.org
    \\  /    A nd           | Version:  7
     \\/     M anipulation  |
\*---------------------------------------------------------------------------*/
FoamFile
{
    version     2.0;
    format      ascii;
    class       volScalarField;
    location    "0.0003";
    object      thermo:alpha;
}
// * * * * * * * * * * * * * * * * * * * * * * * * * * * * * * * * * * * * * //

dimensions      [1 -1 -1 0 0 0 0];

internalField   nonuniform List<scalar> 
1167
(
0.0001215189597
0.0001215193001
0.0001215200296
0.0001215210341
0.0001215208381
0.0001215205996
0.0001215203215
0.0001215200064
0.000121519657
0.0001215192759
0.0001215188649
0.0001215141244
0.0001215061127
0.0001214976967
0.0001214889205
0.0001214798041
0.0001214667405
0.0001214524734
0.0001214378472
0.0001214228903
0.0001214041363
0.0001213836566
0.0001213588865
0.0001213327384
0.0001213063321
0.0001212792296
0.0001212471562
0.0001212134132
0.0001211757122
0.0001211378974
0.0001211000143
0.0001210621152
0.0001210242167
0.0001209814086
0.0001209374927
0.0001208892296
0.0001215209026
0.0001215208552
0.0001215207537
0.0001215206037
0.0001215204086
0.0001215201713
0.0001215198946
0.0001215195814
0.000121519234
0.0001215188547
0.0001215144588
0.0001215069234
0.0001214989502
0.0001214905851
0.0001214818508
0.0001214702679
0.000121456481
0.0001214422902
0.0001214277389
0.0001214110217
0.0001213909892
0.0001213684935
0.0001213428029
0.0001213167941
0.000121290511
0.0001212604822
0.0001212285533
0.0001211919596
0.0001211544292
0.0001211168094
0.000121079108
0.0001210413917
0.0001210011464
0.000120958172
0.0001209116259
0.0001208635713
0.000120820477
0.0001207775342
0.0001207301386
0.0001206815053
0.0001206295121
0.000120580211
0.0001205340577
0.0001204852382
0.0001204348208
0.0001203848645
0.0001203353594
0.0001202863549
0.0001202378274
0.0001201856815
0.0001215204794
0.0001215204322
0.0001215203312
0.0001215201819
0.0001215199878
0.0001215197518
0.0001215194769
0.0001215191653
0.0001215188195
0.0001215143938
0.000121507366
0.0001214998663
0.0001214919403
0.0001214836154
0.000121473419
0.0001214601486
0.0001214464285
0.0001214323157
0.0001214175897
0.0001213980438
0.0001213778014
0.0001213526121
0.0001213270425
0.0001213011676
0.000121273644
0.0001212421044
0.0001212081099
0.0001211709277
0.0001211335911
0.0001210961355
0.0001210586272
0.0001210209912
0.0001209781801
0.0001209342198
0.0001208862646
0.0001208406953
0.0001207983046
0.000120752848
0.0001207056524
0.0001206545733
0.0001206027973
0.0001205563791
0.0001205098338
0.0001204592322
0.0001204090387
0.0001203593065
0.0001203100261
0.0001202612352
0.0001202110852
0.000120158526
0.0001215200647
0.0001215200177
0.0001215199171
0.0001215197688
0.0001215195758
0.0001215193412
0.0001215190675
0.0001215187574
0.0001215138975
0.0001215074095
0.0001215004145
0.0001214929578
0.0001214850706
0.0001214761554
0.0001214634396
0.0001214502298
0.0001214365873
0.0001214225387
0.0001214047803
0.0001213853223
0.000121362121
0.0001213370437
0.0001213116093
0.0001212858488
0.0001212554893
0.0001212240874
0.0001211873297
0.0001211503166
0.0001211131612
0.0001210758849
0.0001210385472
0.0001209982918
0.0001209556621
0.0001209091515
0.0001208613973
0.0001208187771
0.0001207758494
0.0001207286422
0.0001206800187
0.000120628164
0.0001205790946
0.0001205330103
0.0001204841252
0.0001204337304
0.0001203837735
0.0001203342437
0.0001202851948
0.0001202366018
0.0001201842432
0.0001201318955
0.0001215196585
0.0001215196119
0.0001215195119
0.0001215193643
0.0001215191723
0.0001215189387
0.0001215182668
0.0001215129366
0.0001215070221
0.0001215005639
0.000121493608
0.0001214861883
0.0001214783371
0.0001214663159
0.0001214536575
0.000121440519
0.0001214269405
0.0001214111572
0.0001213922234
0.0001213712829
0.0001213467489
0.0001213217938
0.0001212964792
0.0001212686625
0.0001212376903
0.0001212035844
0.0001211669554
0.0001211301281
0.00012109313
0.0001210560391
0.0001210184659
0.0001209760344
0.0001209321907
0.0001208845702
0.00012083945
0.0001207972849
0.0001207519196
0.0001207049057
0.0001206539106
0.0001206022661
0.0001205559911
0.0001205094732
0.0001204589137
0.0001204087367
0.0001203589964
0.0001203096857
0.0001202608431
0.0001202105762
0.0001201579187
0.0001201077737
0.0001215192607
0.0001215192143
0.0001215191148
0.0001215189679
0.0001215187767
0.0001215161588
0.0001215114765
0.0001215061704
0.0001215002827
0.0001214938604
0.000121486939
0.0001214795526
0.000121468738
0.0001214566705
0.0001214440746
0.0001214310022
0.0001214171308
0.0001213987642
0.0001213799129
0.0001213561061
0.0001213316779
0.0001213068512
0.0001212815761
0.0001212510797
0.0001212196419
0.0001211834536
0.0001211469912
0.0001211103325
0.0001210735103
0.0001210365793
0.0001209964659
0.0001209542087
0.0001209078917
0.0001208604648
0.0001208182024
0.0001207754504
0.0001207284527
0.0001206800026
0.0001206283061
0.0001205793344
0.0001205333338
0.0001204845472
0.0001204341881
0.0001203842405
0.0001203346966
0.0001202856105
0.0001202369601
0.0001201845523
0.0001201321003
0.0001200845129
0.0001215188708
0.0001215188246
0.0001215187256
0.0001215167638
0.0001215134781
0.0001215094816
0.0001215048202
0.0001214995378
0.0001214936831
0.0001214872921
0.0001214804013
0.0001214706643
0.0001214592292
0.0001214472161
0.0001214346877
0.0001214216721
0.0001214049014
0.0001213866138
0.0001213650663
0.0001213412257
0.0001213169205
0.0001212922001
0.000121264208
0.000121233839
0.0001211997524
0.0001211637135
0.0001211274291
0.0001210909208
0.0001210542766
0.0001210169135
0.0001209748915
0.0001209313185
0.0001208840618
0.0001208392827
0.0001207973652
0.0001207522491
0.0001207054379
0.0001206546877
0.0001206031944
0.0001205569319
0.0001205106029
0.0001204601003
0.0001204099513
0.0001203602148
0.0001203108825
0.0001202619976
0.000120211775
0.0001201590272
0.0001201086803
0.0001200616984
0.0001215151974
0.000121514403
0.0001215127004
0.0001215101859
0.0001215069147
0.0001215029357
0.0001214982949
0.0001214930433
0.0001214872159
0.0001214808527
0.000121472052
0.0001214612925
0.0001214499066
0.0001214379592
0.0001214254844
0.0001214105896
0.0001213929108
0.0001213735781
0.0001213503758
0.0001213266406
0.0001213024515
0.0001212770249
0.0001212471769
0.0001212157994
0.000121180248
0.0001211443725
0.0001211082451
0.0001210719084
0.0001210354145
0.0001209955875
0.000120953733
0.0001209077608
0.0001208606904
0.000120818681
0.0001207762588
0.0001207294936
0.0001206813746
0.0001206298581
0.0001205808601
0.0001205349595
0.00012048643
0.0001204361216
0.000120386195
0.000120336649
0.0001202875347
0.0001202388364
0.000120186538
0.0001201339898
0.0001200861236
0.0001200393198
0.0001215087268
0.0001215079358
0.0001215062406
0.000121503737
0.0001215004799
0.0001214965209
0.0001214919067
0.0001214866777
0.0001214808753
0.0001214728565
0.0001214628176
0.0001214521037
0.0001214407774
0.0001214288827
0.0001214157812
0.0001213987584
0.0001213811532
0.0001213590771
0.0001213359703
0.0001213123528
0.0001212882628
0.0001212602022
0.000121230475
0.0001211965288
0.0001211611197
0.0001211254143
0.0001210894308
0.0001210532648
0.0001210162514
0.0001209746715
0.0001209315159
0.0001208846548
0.0001208401201
0.0001207984746
0.0001207537588
0.0001207071738
0.0001206568233
0.0001206055033
0.0001205591324
0.0001205131479
0.0001204627189
0.0001204126111
0.0001203628921
0.0001203135487
0.0001202646324
0.0001202146104
0.0001201617815
0.000120111089
0.0001200639967
0.0001200158153
0.0001215023827
0.0001215015951
0.0001214999071
0.0001214974155
0.0001214941771
0.0001214902378
0.0001214856432
0.0001214804362
0.0001214730313
0.0001214637598
0.0001214537628
0.0001214431014
0.0001214318279
0.0001214199826
0.0001214041095
0.0001213871565
0.0001213672759
0.0001213448564
0.0001213218557
0.000121298341
0.0001212728625
0.0001212437036
0.000121212501
0.0001211776287
0.0001211423788
0.0001211068202
0.000121071003
0.0001210349789
0.000120995575
0.0001209541558
0.0001209086723
0.0001208619904
0.0001208201405
0.0001207781956
0.0001207316884
0.0001206840522
0.0001206327397
0.0001205836015
0.000120537819
0.0001204896998
0.0001204394589
0.0001203895667
0.0001203400325
0.0001202909006
0.0001202421654
0.00012019013
0.0001201374951
0.0001200892092
0.0001200422902
0.0001199921569
0.0001214961654
0.0001214953822
0.0001214937038
0.0001214912248
0.0001214879998
0.000121484077
0.0001214795014
0.0001214725284
0.0001214640729
0.0001214548395
0.0001214448887
0.0001214342792
0.0001214230517
0.0001214089147
0.0001213926633
0.0001213749165
0.0001213532397
0.0001213309096
0.0001213080201
0.0001212845987
0.0001212565662
0.0001212275217
0.0001211938274
0.0001211590905
0.0001211240031
0.0001210885823
0.0001210529281
0.0001210163961
0.0001209752932
0.0001209326948
0.0001208862636
0.0001208418887
0.0001208005415
0.0001207563709
0.0001207100376
0.0001206602358
0.0001206091133
0.0001205625231
0.0001205169102
0.0001204666964
0.0001204166453
0.0001203669592
0.0001203176167
0.0001202686816
0.0001202190117
0.0001201661129
0.0001201149385
0.0001200677437
0.0001200197999
0.000119968946
0.0001214900745
0.0001214892945
0.0001214876229
0.0001214851541
0.0001214819423
0.000121477994
0.0001214712978
0.000121463709
0.0001214552877
0.0001214460949
0.0001214361941
0.0001214256272
0.0001214131226
0.0001213976242
0.0001213814372
0.0001213610646
0.000121339473
0.0001213172495
0.0001212944498
0.0001212690078
0.0001212405815
0.0001212096584
0.0001211755102
0.0001211409277
0.0001211059776
0.0001210707166
0.0001210351974
0.0001209963455
0.0001209553968
0.0001209105389
0.0001208642799
0.0001208225078
0.0001207811813
0.0001207349598
0.000120687952
0.00012063687
0.0001205874878
0.0001205418437
0.0001204942822
0.0001204441276
0.0001203942855
0.0001203447786
0.0001202956414
0.0001202468822
0.0001201952589
0.0001201425486
0.0001200937096
0.0001200466832
0.0001199968461
0.0001199461724
0.0001214841013
0.0001214833245
0.0001214816596
0.0001214792007
0.0001214750056
0.0001214692877
0.0001214626181
0.0001214550595
0.0001214466742
0.0001214375284
0.0001214276667
0.0001214166797
0.000121401988
0.0001213865501
0.0001213682728
0.0001213474776
0.0001213259761
0.0001213038506
0.0001212809712
0.0001212532195
0.0001212249012
0.0001211915608
0.000121157541
0.0001211231135
0.0001210882952
0.0001210531896
0.0001210172626
0.0001209766745
0.0001209347657
0.0001208888015
0.0001208445135
0.0001208034933
0.0001207600063
0.0001207139525
0.0001206648426
0.0001206139441
0.0001205670338
0.0001205215537
0.0001204719594
0.0001204219835
0.0001203723463
0.000120323019
0.0001202740793
0.0001202249083
0.0001201719523
0.0001201201678
0.0001200728795
0.0001200253188
0.0001199743232
0.0001199243442
0.0001214782432
0.0001214771622
0.0001214747254
0.0001214711263
0.0001214664441
0.0001214607486
0.0001214541051
0.0001214465787
0.0001214382362
0.000121429126
0.0001214193027
0.0001214057013
0.0001213910662
0.0001213748036
0.0001213548656
0.0001213341495
0.0001213127483
0.0001212907066
0.0001212653784
0.0001212377307
0.0001212071818
0.0001211738056
0.0001211399349
0.0001211056359
0.0001210709703
0.0001210359936
0.0001209978145
0.000120957374
0.0001209132715
0.0001208674727
0.0001208257087
0.0001207848362
0.0001207392291
0.0001206929894
0.0001206421667
0.0001205924472
0.0001205469635
0.000120500102
0.0001204500547
0.0001204002801
0.000120350818
0.00012030169
0.000120252921
0.0001202018543
0.0001201490814
0.0001200995638
0.0001200524393
0.0001200030417
0.0001199522213
0.0001199044327
0.0001214698561
0.0001214687234
0.000121466296
0.0001214627108
0.0001214580467
0.000121452373
0.0001214457589
0.0001214382701
0.0001214299595
0.0001214208842
0.0001214087085
0.000121394932
0.0001213803522
0.0001213615762
0.0001213417129
0.0001213210878
0.0001212997712
0.0001212769984
0.0001212500803
0.0001212223102
0.0001211896394
0.0001211563848
0.0001211226616
0.0001210884877
0.0001210539709
0.0001210187641
0.0001209787312
0.000120937637
0.0001208921796
0.0001208479181
0.0001208072559
0.0001207645841
0.0001207188401
0.0001206705591
0.0001206199136
0.0001205725928
0.0001205272679
0.0001204784326
0.0001204285585
0.0001203789826
0.0001203296911
0.0001202807584
0.000120232157
0.0001201792297
0.0001201267149
0.0001200793437
0.0001200323075
0.0001199811793
0.0001199305309
0.000119884892
0.0001214615743
0.0001214604459
0.0001214580277
0.000121454456
0.0001214498094
0.0001214441635
0.0001214375804
0.0001214301197
0.0001214218404
0.0001214109519
0.0001213980923
0.000121384367
0.0001213675465
0.0001213485991
0.0001213288113
0.0001213082774
0.0001212870389
0.0001212618904
0.0001212350699
0.0001212049795
0.0001211724259
0.0001211393144
0.0001211057117
0.0001210716833
0.0001210372892
0.0001209998956
0.0001209600037
0.0001209167789
0.0001208714801
0.0001208296665
0.0001207891463
0.0001207444155
0.0001206988298
0.0001206485453
0.0001205984058
0.0001205531069
0.000120507082
0.0001204571651
0.0001204074777
0.00012035808
0.0001203089773
0.0001202602151
0.0001202098446
0.000120157024
0.0001201067104
0.0001200594986
0.0001200106793
0.0001199597217
0.0001199111017
0.0001198657136
0.0001214534502
0.000121452326
0.0001214499167
0.0001214463612
0.0001214417388
0.000121436116
0.0001214295572
0.000121422124
0.0001214123713
0.0001214004894
0.0001213876768
0.0001213727106
0.0001213547451
0.0001213358661
0.0001213161676
0.0001212957076
0.0001212730983
0.0001212470652
0.0001212197599
0.0001211879722
0.0001211555345
0.0001211225619
0.0001210890771
0.0001210551912
0.0001210208118
0.0001209813769
0.0001209412147
0.0001208963067
0.0001208520236
0.0001208117526
0.0001207700209
0.0001207246193
0.0001206772981
0.0001206269371
0.000120579126
0.0001205339807
0.0001204860386
0.0001204362895
0.0001203867949
0.0001203375628
0.0001202886499
0.0001202400504
0.0001201878733
0.0001201352275
0.0001200870746
0.0001200400193
0.0001199894498
0.0001199386596
0.0001198921275
0.0001198468887
0.0001214454845
0.000121444366
0.0001214419691
0.0001214384289
0.0001214338233
0.0001214282208
0.0001214216857
0.0001214129045
0.0001214020633
0.000121390224
0.0001213770002
0.0001213600856
0.0001213421838
0.0001213233819
0.0001213037604
0.0001212833726
0.0001212584581
0.000121232516
0.0001212029579
0.0001211712803
0.0001211389782
0.0001211061194
0.0001210727729
0.0001210390038
0.0001210024996
0.0001209631993
0.0001209209667
0.0001208762105
0.0001208343023
0.0001207941677
0.0001207504352
0.0001207051861
0.000120655918
0.0001206057248
0.0001205601994
0.0001205151419
0.0001204653806
0.0001204158025
0.0001203664909
0.0001203174321
0.0001202686947
0.0001202191556
0.0001201663041
0.0001201150854
0.0001200677987
0.0001200196926
0.0001199686088
0.0001199190387
0.000119873501
0.000119827723
0.000121437677
0.0001214365625
0.0001214341741
0.0001214306464
0.0001214260571
0.0001214204744
0.0001214124865
0.0001214027519
0.0001213919489
0.000121380151
0.0001213645521
0.0001213476964
0.0001213298579
0.0001213111375
0.0001212915839
0.0001212691832
0.0001212440889
0.0001212173141
0.0001211864658
0.000121154898
0.0001211227264
0.000121089979
0.0001210567679
0.0001210231129
0.0001209845224
0.0001209453538
0.0001209010881
0.0001208567484
0.0001208169041
0.0001207762301
0.0001207312059
0.0001206849687
0.0001206349263
0.0001205865563
0.0001205416171
0.0001204946964
0.0001204450977
0.0001203957068
0.0001203465558
0.0001202976814
0.0001202491023
0.0001201978081
0.0001201451268
0.0001200960078
0.0001200488736
0.0001199990675
0.000119948147
0.0001199006057
0.0001198552136
0.000119807789
0.0001214300165
0.0001214289059
0.0001214265257
0.0001214230103
0.0001214183883
0.0001214110502
0.0001214024905
0.0001213927894
0.0001213820234
0.0001213680738
0.0001213523357
0.0001213355372
0.0001213177765
0.0001212991197
0.0001212791727
0.0001212549939
0.000121229984
0.000121201021
0.0001211702757
0.0001211388358
0.0001211067712
0.0001210741536
0.0001210410543
0.0001210055346
0.0001209668712
0.000120925737
0.0001208815687
0.0001208395338
0.0001207998202
0.0001207572007
0.0001207123232
0.000120664193
0.0001206143125
0.0001205681628
0.0001205233695
0.000120474619
0.0001204251801
0.0001203759729
0.0001203269798
0.0001202782866
0.0001202297088
0.0001201768454
0.0001201246216
0.0001200772744
0.0001200300116
0.0001199788147
0.0001199281837
0.0001198825057
0.0001198372565
0.000119788215
0.0001214224998
0.0001214213929
0.0001214190208
0.0001214145373
0.0001214085253
0.0001214012119
0.0001213926809
0.0001213830123
0.0001213705767
0.000121356031
0.0001213403452
0.0001213236126
0.0001213059178
0.0001212873228
0.0001212651633
0.0001212410641
0.0001212148741
0.0001211850243
0.0001211543823
0.0001211230645
0.0001210911045
0.0001210586152
0.0001210256237
0.0001209880751
0.0001209495369
0.000120906425
0.0001208623987
0.000120822627
0.0001207830417
0.000120738511
0.000120693475
0.0001206437875
0.0001205948016
0.0001205500974
0.0001205043197
0.0001204548994
0.0001204056366
0.0001203565909
0.000120307776
0.0001202592379
0.0001202089541
0.0001201562566
0.0001201060745
0.0001200588761
0.0001200099614
0.0001199589238
0.0001199102657
0.0001198647299
0.0001198180683
0.0001197689911
0.000121414018
0.0001214125628
0.0001214094443
0.0001214048383
0.000121398846
0.0001213915565
0.0001213830534
0.0001213719843
0.0001213587087
0.0001213442101
0.0001213285781
0.0001213119134
0.0001212942759
0.0001212745262
0.0001212514085
0.0001212273868
0.0001211990703
0.0001211693159
0.0001211387938
0.0001211075761
0.0001210757369
0.0001210433544
0.0001210089046
0.000120970926
0.0001209309876
0.0001208874547
0.0001208452742
0.0001208060192
0.0001207646193
0.0001207201508
0.0001206732724
0.000120623741
0.0001205769133
0.00012053235
0.0001204847922
0.0001204355268
0.0001203864425
0.0001203375502
0.0001202889117
0.0001202405251
0.0001201885655
0.0001201360312
0.0001200878551
0.000120040803
0.0001199902657
0.0001199393849
0.000119892665
0.0001198472689
0.000119799036
0.0001197501077
0.0001214044699
0.0001214030193
0.0001213999107
0.0001213953194
0.000121389346
0.0001213820797
0.0001213722168
0.0001213602922
0.0001213470584
0.0001213326055
0.0001213170392
0.0001213004271
0.0001212828452
0.0001212609466
0.0001212379014
0.0001212123387
0.000121183549
0.000121153891
0.0001211234824
0.0001210923621
0.0001210606438
0.0001210283625
0.0001209919379
0.0001209540774
0.0001209122134
0.0001208688155
0.0001208288331
0.0001207897006
0.0001207464398
0.0001207021095
0.0001206534204
0.0001206040422
0.0001205593352
0.0001205148154
0.0001204656034
0.0001204164958
0.0001203675816
0.0001203188494
0.0001202703752
0.0001202212236
0.0001201685315
0.0001201171994
0.0001200699535
0.0001200220529
0.0001199709138
0.0001199210401
0.0001198753721
0.0001198295961
0.0001197803365
0.0001197315945
0.0001210774303
0.0001210458135
0.0001210125086
0.0001209752646
0.0001209366095
0.000120893762
0.0001208514308
0.0001208126739
0.0001207725911
0.0001207285709
0.00012068305
0.0001206339065
0.0001205863592
0.0001205420569
0.0001204958031
0.0001204467413
0.0001203978072
0.0001203490422
0.0001203004818
0.0001202521555
0.0001202013728
0.0001201488403
0.0001200994618
0.0001200523592
0.00012000288
0.0001199518945
0.0001199039083
0.0001198583774
0.0001198110729
0.0001197619592
0.0001197150398
)
;

boundaryField
{
    front_top
    {
        type            wedge;
    }
    front_middle
    {
        type            wedge;
    }
    front_bottom
    {
        type            wedge;
    }
    back_top
    {
        type            wedge;
    }
    back_middle
    {
        type            wedge;
    }
    back_bottom
    {
        type            wedge;
    }
    axis_top
    {
        type            symmetryPlane;
    }
    axis_middle
    {
        type            symmetryPlane;
    }
    axis_bottom
    {
        type            symmetryPlane;
    }
    wall_top
    {
        type            calculated;
        value           nonuniform List<scalar> 
23
(
0.0001201593671
0.0001201323193
0.0001201077875
0.000120084165
0.0001200609968
0.000120038273
0.0001200142935
0.0001199902726
0.0001199667077
0.0001199435885
0.0001199216908
0.0001199014802
0.0001198816476
0.0001198621843
0.0001198430819
0.0001198232425
0.0001198030189
0.0001197831633
0.0001197636662
0.000119744518
0.0001197262861
0.0001197095074
0.000119693018
)
;
    }
    wall_middle
    {
        type            calculated;
        value           nonuniform 0();
    }
    wall_bottom
    {
        type            calculated;
        value           nonuniform 0();
    }
    inlet
    {
        type            calculated;
        value           nonuniform 0();
    }
    outlet
    {
        type            calculated;
        value           nonuniform 0();
    }
    procBoundary7to6
    {
        type            processor;
        value           nonuniform List<scalar> 
51
(
0.0001213950987
0.0001213936526
0.0001213905535
0.0001213859763
0.0001213800213
0.000121371191
0.0001213607019
0.0001213488138
0.0001213356204
0.0001213212251
0.0001213057092
0.0001212891479
0.000121269605
0.0001212476098
0.0001212246349
0.0001211970041
0.0001211683018
0.0001211387554
0.0001211084393
0.0001211084393
0.0001210627596
0.0001210312369
0.0001209960074
0.0001209588741
0.0001209183415
0.0001208756215
0.0001208354264
0.0001207967859
0.0001207548886
0.0001207110005
0.000120663714
0.0001206147178
0.000120569235
0.0001205250665
0.0001204771076
0.0001204281937
0.0001203794302
0.0001203308124
0.0001202824213
0.0001202342406
0.0001201818545
0.0001201294794
0.0001200820223
0.000120035061
0.0001199840302
0.0001199331961
0.0001198870661
0.0001198416701
0.0001197928632
0.0001197438931
0.0001196987656
)
;
    }
    procBoundary7to8
    {
        type            processor;
        value           nonuniform List<scalar> 
51
(
0.0001215158087
0.0001215161508
0.000121516884
0.0001215179668
0.0001215193754
0.0001215210367
0.0001215207572
0.0001215204405
0.0001215200891
0.0001215197056
0.0001215192927
0.000121518852
0.0001215134216
0.0001215049634
0.0001214961346
0.0001214869738
0.000121477209
0.0001214628732
0.000121448161
0.0001214331326
0.0001214175503
0.0001213969737
0.0001213752956
0.0001213490254
0.000121322473
0.0001212956972
0.0001212661341
0.0001212337095
0.0001211974261
0.0001211594135
0.0001211213549
0.0001210832549
0.000121045186
0.0001210051106
0.000120961817
0.0001209154007
0.0001208430915
0.0001208430915
0.0001208004955
0.0001207551118
0.0001207077537
0.0001206567574
0.0001206048677
0.0001205581659
0.0001205117601
0.0001204611294
0.0001204109291
0.0001203612154
0.0001203119723
0.0001202632411
0.0001202133742
)
;
    }
}


// ************************************************************************* //
