/*--------------------------------*- C++ -*----------------------------------*\
  =========                 |
  \\      /  F ield         | OpenFOAM: The Open Source CFD Toolbox
   \\    /   O peration     | Website:  https://openfoam.org
    \\  /    A nd           | Version:  7
     \\/     M anipulation  |
\*---------------------------------------------------------------------------*/
FoamFile
{
    version     2.0;
    format      ascii;
    class       volVectorField;
    location    "0.0003";
    object      U;
}
// * * * * * * * * * * * * * * * * * * * * * * * * * * * * * * * * * * * * * //

dimensions      [0 1 -1 0 0 0 0];

internalField   nonuniform List<vector> 
1167
(
(1.844146304e-08 2.037684577e-20 -0.002154793086)
(4.801556636e-08 -3.884638814e-20 -0.002154795826)
(7.559531391e-08 -1.41951646e-19 -0.002154801739)
(1.035110058e-07 -1.915294072e-19 -0.002154810517)
(1.305033756e-07 2.068423308e-20 -0.00215482197)
(1.562585347e-07 1.591501299e-19 -0.002154835979)
(1.807141204e-07 2.722687487e-19 -0.002154852428)
(2.037793539e-07 2.223508385e-19 -0.002154871196)
(2.253337719e-07 3.057853956e-19 -0.00215489216)
(2.453435817e-07 2.396911555e-19 -0.002154915219)
(2.637835014e-07 1.981619007e-19 -0.002154940278)
(2.805955287e-07 1.652345502e-19 -0.002154967225)
(2.957891896e-07 1.385560076e-19 -0.002154995971)
(3.093648411e-07 1.042841697e-19 -0.002155026426)
(3.213011502e-07 1.306860666e-19 -0.002155058475)
(3.31624854e-07 1.022318578e-19 -0.002155092033)
(3.403340742e-07 1.048086588e-19 -0.002155126982)
(3.47466256e-07 1.005256726e-19 -0.002155163233)
(3.530461967e-07 9.257666005e-20 -0.002155200668)
(3.571083174e-07 1.384039693e-19 -0.002155239185)
(3.596907368e-07 1.820085291e-19 -0.002155278658)
(3.60832094e-07 2.067788967e-19 -0.002155318979)
(3.605848684e-07 2.10955222e-19 -0.002155360011)
(3.589925761e-07 2.154984903e-19 -0.002155401639)
(3.561168328e-07 2.227345592e-19 -0.002155443718)
(3.519910135e-07 2.310178387e-19 -0.00215548612)
(3.466743353e-07 2.424223878e-19 -0.002155528691)
(3.402142305e-07 2.550791811e-19 -0.0021555713)
(3.326772783e-07 2.696756428e-19 -0.002155613791)
(3.241054795e-07 2.686523345e-19 -0.002155656016)
(3.145480333e-07 2.549988441e-19 -0.002155697817)
(3.040660996e-07 2.475212631e-19 -0.002155739032)
(2.926995316e-07 2.438323612e-19 -0.002155779507)
(2.805135825e-07 2.414237291e-19 -0.002155819067)
(2.67549252e-07 2.382626504e-19 -0.00215585756)
(2.538701936e-07 2.48098058e-19 -0.002155894813)
(1.883441107e-08 3.846245243e-19 -0.002155256623)
(4.90376361e-08 1.172921585e-19 -0.002155259437)
(7.720170796e-08 -1.591210855e-19 -0.002155265512)
(1.057035282e-07 2.464870227e-20 -0.002155274555)
(1.33290505e-07 9.199195243e-20 -0.00215528638)
(1.596543389e-07 1.143778373e-19 -0.002155300843)
(1.846448262e-07 1.040820435e-19 -0.002155317809)
(2.081622869e-07 2.598443116e-19 -0.002155337131)
(2.30167623e-07 4.029956273e-19 -0.002155358716)
(2.506098505e-07 3.583945871e-19 -0.002155382456)
(2.694082664e-07 1.970617702e-19 -0.002155408227)
(2.865612938e-07 1.564163293e-19 -0.002155435935)
(3.02066309e-07 1.5567685e-19 -0.002155465487)
(3.15884714e-07 1.516765705e-19 -0.00215549676)
(3.280450555e-07 1.347882594e-19 -0.002155529668)
(3.385442305e-07 1.178927205e-19 -0.002155564097)
(3.474052563e-07 1.068696311e-19 -0.002155599944)
(3.546521091e-07 9.25228862e-20 -0.002155637102)
(3.603132604e-07 6.720313517e-20 -0.002155675452)
(3.644204109e-07 7.059657378e-20 -0.002155714884)
(3.670132465e-07 7.256595824e-20 -0.002155755272)
(3.681348492e-07 9.342600294e-20 -0.002155796499)
(3.678335299e-07 1.218952032e-19 -0.002155838431)
(3.661624798e-07 1.562659711e-19 -0.002155880942)
(3.631683058e-07 1.856530493e-19 -0.002155923895)
(3.589014479e-07 1.90418906e-19 -0.002155967143)
(3.534114292e-07 1.941764088e-19 -0.002156010551)
(3.467726931e-07 1.985407118e-19 -0.002156053959)
(3.390273735e-07 2.084513727e-19 -0.002156097228)
(3.302402669e-07 2.019128113e-19 -0.002156140188)
(3.204508935e-07 1.963373589e-19 -0.002156182695)
(3.0972225e-07 2.121809602e-19 -0.002156224579)
(2.980935305e-07 2.269137215e-19 -0.002156265684)
(2.856185941e-07 2.41339865e-19 -0.002156305842)
(2.723656042e-07 2.611004025e-19 -0.00215634489)
(2.583760336e-07 2.614087585e-19 -0.002156382666)
(2.437078686e-07 2.710307607e-19 -0.002156418995)
(2.283958404e-07 2.748679496e-19 -0.002156453722)
(2.12496793e-07 2.879328666e-19 -0.002156486674)
(1.960466807e-07 3.035677287e-19 -0.002156517698)
(1.790976172e-07 3.086126911e-19 -0.002156546628)
(1.616835145e-07 3.035217635e-19 -0.00215657331)
(1.438420537e-07 3.007492961e-19 -0.002156597588)
(1.256142502e-07 2.999846548e-19 -0.00215661931)
(1.070350764e-07 3.016183924e-19 -0.002156638333)
(8.814590576e-08 2.975697733e-19 -0.002156654512)
(6.896680862e-08 3.046320742e-19 -0.002156667713)
(4.95322351e-08 3.076281829e-19 -0.002156677798)
(2.994059792e-08 3.047737647e-19 -0.002156684648)
(1.045518086e-08 3.08673486e-19 -0.002156688131)
(1.927431762e-08 2.353108333e-19 -0.002155707861)
(5.018246967e-08 5.956490827e-19 -0.002155710789)
(7.902582832e-08 4.259481001e-19 -0.002155717093)
(1.08238028e-07 5.032667572e-19 -0.002155726466)
(1.364803502e-07 3.105281133e-19 -0.002155738715)
(1.634206251e-07 2.117840202e-19 -0.002155753666)
(1.88945066e-07 1.544032425e-19 -0.002155771183)
(2.130110257e-07 3.368828605e-19 -0.002155791159)
(2.355337906e-07 3.729035981e-19 -0.002155813467)
(2.564026667e-07 3.187315248e-19 -0.002155837967)
(2.756103249e-07 2.962023667e-19 -0.002155864561)
(2.931467674e-07 2.814080538e-19 -0.00215589315)
(3.089586138e-07 2.196580299e-19 -0.002155923607)
(3.230710955e-07 2.055705813e-19 -0.002155955841)
(3.354761429e-07 1.330976063e-19 -0.002155989737)
(3.461739919e-07 1.113413131e-19 -0.002156025175)
(3.551928965e-07 1.219135101e-19 -0.002156062056)
(3.625475191e-07 1.231490827e-19 -0.002156100247)
(3.682762337e-07 1.54418593e-19 -0.002156139649)
(3.724125386e-07 1.159400536e-19 -0.002156180121)
(3.749992757e-07 1.049476353e-19 -0.002156221557)
(3.760852028e-07 8.715216979e-20 -0.002156263813)
(3.7571957e-07 1.128017127e-19 -0.002156306775)
(3.739595891e-07 1.300517286e-19 -0.002156350292)
(3.708427194e-07 1.408806818e-19 -0.002156394237)
(3.664305871e-07 1.523869558e-19 -0.002156438452)
(3.607746531e-07 1.342997099e-19 -0.002156482802)
(3.539333172e-07 1.280551742e-19 -0.00215652713)
(3.459657097e-07 1.148428159e-19 -0.002156571281)
(3.369219524e-07 1.263265822e-19 -0.002156615102)
(3.268702025e-07 1.557196233e-19 -0.002156658422)
(3.158496671e-07 1.828374024e-19 -0.00215670109)
(3.039283358e-07 2.112429666e-19 -0.002156742927)
(2.911531369e-07 2.450652082e-19 -0.002156783782)
(2.775917702e-07 2.724039824e-19 -0.00215682348)
(2.63282254e-07 2.81611011e-19 -0.002156861862)
(2.482736571e-07 2.744262098e-19 -0.002156898757)
(2.326203442e-07 2.532470982e-19 -0.002156934)
(2.163651939e-07 2.584161295e-19 -0.002156967431)
(1.995650769e-07 2.717059061e-19 -0.00215699888)
(1.822559836e-07 2.730829481e-19 -0.002157028197)
(1.644878092e-07 2.741122527e-19 -0.002157055215)
(1.46292569e-07 2.744068984e-19 -0.00215707979)
(1.277160734e-07 2.780126225e-19 -0.002157101764)
(1.087939562e-07 2.837043324e-19 -0.002157121)
(8.956541166e-08 2.752137403e-19 -0.002157137351)
(7.005309255e-08 2.772182695e-19 -0.002157150686)
(5.029085464e-08 2.832615041e-19 -0.002157160871)
(3.037873045e-08 2.793840737e-19 -0.002157167785)
(1.058905864e-08 2.902588956e-19 -0.002157171305)
(1.976868497e-08 1.105074738e-19 -0.002156147056)
(5.145535175e-08 2.32366207e-19 -0.002156150099)
(8.099920272e-08 3.101104544e-19 -0.002156156642)
(1.109066195e-07 3.555603813e-19 -0.002156166352)
(1.398108795e-07 3.017554421e-19 -0.002156179032)
(1.673968291e-07 2.506229546e-19 -0.002156194536)
(1.935801925e-07 2.238768902e-19 -0.00215621272)
(2.18235292e-07 2.334201277e-19 -0.002156233439)
(2.412421322e-07 2.320346967e-19 -0.002156256537)
(2.625894243e-07 2.931318635e-19 -0.002156281911)
(2.822518364e-07 2.574761546e-19 -0.002156309454)
(3.001606421e-07 1.606677278e-19 -0.002156339029)
(3.163333283e-07 1.120384528e-19 -0.002156370533)
(3.30751744e-07 1.440440209e-19 -0.002156403852)
(3.43388457e-07 1.582974692e-19 -0.002156438847)
(3.542853636e-07 1.734914206e-19 -0.002156475425)
(3.634474209e-07 1.810458715e-19 -0.002156513446)
(3.709129971e-07 1.896476871e-19 -0.002156552809)
(3.767057539e-07 2.049734068e-19 -0.002156593377)
(3.808697374e-07 1.912691999e-19 -0.002156635037)
(3.834477189e-07 1.874662186e-19 -0.002156677647)
(3.844885905e-07 1.9882492e-19 -0.002156721086)
(3.840511899e-07 1.684777819e-19 -0.002156765208)
(3.821750578e-07 1.513745602e-19 -0.002156809882)
(3.789165128e-07 1.371634324e-19 -0.002156854947)
(3.743270675e-07 1.460112677e-19 -0.002156900271)
(3.684809673e-07 1.580653649e-19 -0.002156945686)
(3.614264277e-07 1.473452607e-19 -0.002156991055)
(3.532303599e-07 1.364579943e-19 -0.002157036206)
(3.439365737e-07 1.206104377e-19 -0.002157080991)
(3.336069191e-07 1.350284409e-19 -0.002157125239)
(3.2229143e-07 1.433379094e-19 -0.002157168787)
(3.100486029e-07 1.462488546e-19 -0.00215721147)
(2.969546613e-07 1.430088813e-19 -0.002157253117)
(2.830506629e-07 1.408711839e-19 -0.002157293571)
(2.683979034e-07 1.346405158e-19 -0.002157332649)
(2.530367701e-07 1.453286865e-19 -0.002157370198)
(2.370289741e-07 1.510110497e-19 -0.00215740604)
(2.204150087e-07 1.573888411e-19 -0.002157440021)
(2.032518092e-07 1.568651213e-19 -0.002157471972)
(1.855778466e-07 1.747168847e-19 -0.002157501738)
(1.674351148e-07 1.911402399e-19 -0.00215752916)
(1.48872191e-07 2.099939015e-19 -0.002157554085)
(1.299263923e-07 2.257780854e-19 -0.002157576367)
(1.106453382e-07 2.394865215e-19 -0.002157595857)
(9.105925791e-08 2.38564698e-19 -0.002157612421)
(7.119956283e-08 2.370442713e-19 -0.00215762592)
(5.109717965e-08 2.315760207e-19 -0.002157636231)
(3.085888473e-08 2.359887768e-19 -0.002157643225)
(1.074902781e-08 2.403567431e-19 -0.002157646791)
(2.025670112e-08 8.980640185e-20 -0.002156574202)
(5.272126021e-08 1.970900303e-19 -0.002156577363)
(8.298486165e-08 3.495519651e-19 -0.002156584171)
(1.136313863e-07 6.205371195e-19 -0.002156594296)
(1.43283487e-07 3.717489748e-19 -0.002156607526)
(1.715884783e-07 2.629904722e-19 -0.002156623688)
(1.983862431e-07 2.014412517e-19 -0.00215664261)
(2.235747738e-07 1.376771626e-19 -0.002156664128)
(2.471276322e-07 3.89014862e-20 -0.002156688139)
(2.689944375e-07 8.770228018e-20 -0.002156714517)
(2.890836226e-07 1.016214072e-19 -0.00215674311)
(3.073960569e-07 8.653533617e-20 -0.002156773806)
(3.239140099e-07 1.547269539e-19 -0.002156806484)
(3.385913064e-07 1.815584636e-19 -0.00215684099)
(3.514699434e-07 1.878271418e-19 -0.002156877231)
(3.625506734e-07 2.31470145e-19 -0.002156915072)
(3.718634964e-07 2.291971535e-19 -0.002156954391)
(3.794325286e-07 2.342140976e-19 -0.002156995061)
(3.852897997e-07 2.017865785e-19 -0.002157036947)
(3.894767996e-07 2.165344782e-19 -0.002157079925)
(3.920389914e-07 2.014515904e-19 -0.00215712385)
(3.93032017e-07 1.923358875e-19 -0.002157168595)
(3.925097029e-07 1.653325358e-19 -0.00215721401)
(3.905132402e-07 1.651840518e-19 -0.002157259952)
(3.870975238e-07 1.651682008e-19 -0.002157306268)
(3.823286788e-07 1.41253427e-19 -0.002157352809)
(3.762690044e-07 1.402621528e-19 -0.002157399424)
(3.689894741e-07 1.557303146e-19 -0.002157445948)
(3.605338282e-07 1.686880776e-19 -0.002157492228)
(3.509712628e-07 1.621065769e-19 -0.002157538087)
(3.403477957e-07 1.454748454e-19 -0.002157583374)
(3.287352544e-07 1.433976676e-19 -0.002157627906)
(3.161859704e-07 1.325076707e-19 -0.002157671531)
(3.027717812e-07 1.102933642e-19 -0.002157714072)
(2.885348779e-07 1.150361063e-19 -0.002157755363)
(2.73527925e-07 1.068581911e-19 -0.002157795233)
(2.578140209e-07 1.043630738e-19 -0.002157833513)
(2.414380407e-07 1.104077872e-19 -0.002157870041)
(2.244610382e-07 9.993797218e-20 -0.002157904645)
(2.069237956e-07 1.024328365e-19 -0.002157937172)
(1.888810875e-07 1.16794762e-19 -0.002157967449)
(1.703695256e-07 1.563721434e-19 -0.002157995334)
(1.514397625e-07 1.863459161e-19 -0.002158020662)
(1.321318706e-07 1.978033796e-19 -0.002158043294)
(1.124916392e-07 2.042656646e-19 -0.002158063081)
(9.255199726e-08 2.08216438e-19 -0.002158079889)
(7.234494651e-08 2.148534308e-19 -0.00215809358)
(5.190571903e-08 2.118822621e-19 -0.00215810403)
(3.134312984e-08 2.13792951e-19 -0.002158111115)
(1.09136357e-08 2.006182822e-19 -0.002158114722)
(2.075059552e-08 -3.925063061e-21 -0.002156989677)
(5.400486953e-08 -1.613181159e-20 -0.00215699299)
(8.502518993e-08 3.609811914e-20 -0.002157000119)
(1.164401575e-07 1.618926066e-19 -0.002157010711)
(1.467851281e-07 2.769396825e-19 -0.002157024529)
(1.757039088e-07 2.163666152e-19 -0.002157041371)
(2.030774933e-07 2.276512372e-19 -0.002157061082)
(2.288632531e-07 9.872475107e-20 -0.002157083536)
(2.529744083e-07 -1.346205597e-20 -0.002157108585)
(2.752946884e-07 2.947180366e-20 -0.002157136056)
(2.958133092e-07 1.465820749e-19 -0.002157165826)
(3.145078216e-07 2.275386699e-19 -0.002157197769)
(3.313108676e-07 3.029018553e-19 -0.002157231721)
(3.462654214e-07 3.037835592e-19 -0.002157267575)
(3.593745341e-07 2.868380125e-19 -0.0021573052)
(3.706309834e-07 2.828555807e-19 -0.002157344449)
(3.800707489e-07 2.450745941e-19 -0.002157385207)
(3.87712375e-07 2.531267925e-19 -0.002157427315)
(3.936042364e-07 2.133156876e-19 -0.002157470661)
(3.977850205e-07 1.855014309e-19 -0.002157515081)
(4.003098427e-07 1.700451673e-19 -0.00215756046)
(4.01232698e-07 1.54087844e-19 -0.002157606632)
(4.005981678e-07 1.789864495e-19 -0.002157653469)
(3.984635512e-07 1.727747269e-19 -0.002157700796)
(3.948877899e-07 1.586555373e-19 -0.002157748483)
(3.89944422e-07 1.511293802e-19 -0.002157796357)
(3.836870702e-07 1.56350947e-19 -0.002157844276)
(3.761854363e-07 1.738832236e-19 -0.002157892065)
(3.674871938e-07 1.873286915e-19 -0.002157939567)
(3.576544249e-07 2.248254706e-19 -0.002157986609)
(3.46750811e-07 2.039795459e-19 -0.002158033025)
(3.34834766e-07 2.183181028e-19 -0.002158078649)
(3.219850309e-07 2.147067726e-19 -0.002158123303)
(3.082476296e-07 2.177867714e-19 -0.00215816683)
(2.936878655e-07 2.247819738e-19 -0.002158209041)
(2.783508677e-07 2.237242032e-19 -0.002158249783)
(2.623027019e-07 2.338188804e-19 -0.002158288873)
(2.455880713e-07 2.240113771e-19 -0.002158326154)
(2.282682712e-07 2.178270056e-19 -0.002158361454)
(2.103863363e-07 2.253622714e-19 -0.002158394614)
(1.91989823e-07 2.376619249e-19 -0.002158425471)
(1.731312609e-07 2.249447408e-19 -0.002158453868)
(1.538512999e-07 2.228248203e-19 -0.002158479656)
(1.342022233e-07 2.269253581e-19 -0.002158502681)
(1.142203122e-07 2.255248043e-19 -0.002158522808)
(9.394740407e-08 2.415344852e-19 -0.002158539889)
(7.341134338e-08 2.404493746e-19 -0.002158553801)
(5.265306399e-08 2.432446721e-19 -0.002158564408)
(3.177823401e-08 2.437022e-19 -0.002158571598)
(1.104949712e-08 2.403456223e-19 -0.002158575247)
(2.122570232e-08 -1.847926869e-19 -0.002157393951)
(5.52267032e-08 -5.679302731e-19 -0.002157397411)
(8.691536515e-08 -3.500468914e-19 -0.002157404864)
(1.189886531e-07 -3.487641412e-19 -0.002157415917)
(1.499537702e-07 -8.31897671e-20 -0.00215743034)
(1.7948045e-07 1.38111935e-20 -0.002157447956)
(2.074810223e-07 7.137526042e-20 -0.002157468599)
(2.338209073e-07 8.196566117e-20 -0.002157492094)
(2.583734432e-07 1.197958565e-19 -0.00215751825)
(2.811211122e-07 1.607499441e-19 -0.002157546932)
(3.020308607e-07 2.286067407e-19 -0.002157578005)
(3.210205311e-07 2.406260895e-19 -0.002157611291)
(3.381100549e-07 1.984230112e-19 -0.002157646664)
(3.533029437e-07 2.431838383e-19 -0.002157683995)
(3.665729011e-07 2.861156461e-19 -0.00215772311)
(3.779623657e-07 2.717144732e-19 -0.002157763898)
(3.874764912e-07 2.841546537e-19 -0.002157806196)
(3.951662581e-07 2.651827984e-19 -0.002157849877)
(4.010628398e-07 2.531530315e-19 -0.002157894788)
(4.052199766e-07 2.376378393e-19 -0.002157940788)
(4.076916172e-07 2.646308551e-19 -0.002157987729)
(4.085259374e-07 2.545763404e-19 -0.00215803546)
(4.077708452e-07 2.524905578e-19 -0.002158083822)
(4.054869848e-07 2.223687806e-19 -0.002158132665)
(4.017521038e-07 2.20595834e-19 -0.002158181826)
(3.966212856e-07 2.250154036e-19 -0.002158231154)
(3.901662842e-07 2.420676249e-19 -0.002158280473)
(3.824372978e-07 2.286869247e-19 -0.002158329633)
(3.73506173e-07 2.224262464e-19 -0.002158378445)
(3.634249123e-07 2.127529904e-19 -0.002158426759)
(3.522687068e-07 2.344699267e-19 -0.002158474389)
(3.400944745e-07 2.370884627e-19 -0.002158521178)
(3.26977262e-07 2.430997548e-19 -0.002158566944)
(3.129636664e-07 2.560490094e-19 -0.002158611521)
(2.981107335e-07 2.395027983e-19 -0.002158654733)
(2.824860182e-07 2.278551781e-19 -0.002158696407)
(2.661370116e-07 2.249205777e-19 -0.002158736379)
(2.491283819e-07 2.314111748e-19 -0.002158774471)
(2.315048205e-07 2.432290937e-19 -0.002158810529)
(2.133253343e-07 2.551562858e-19 -0.002158844374)
(1.946299632e-07 2.490825884e-19 -0.00215887586)
(1.754734373e-07 2.453904826e-19 -0.002158904818)
(1.558994051e-07 2.372250816e-19 -0.002158931106)
(1.359577626e-07 2.389283413e-19 -0.002158954566)
(1.15686999e-07 2.374277545e-19 -0.002158975063)
(9.512893365e-08 2.60333458e-19 -0.002158992452)
(7.431433153e-08 2.751659555e-19 -0.002159006606)
(5.328359771e-08 2.930117914e-19 -0.002159017395)
(3.214201861e-08 2.942999705e-19 -0.002159024702)
(1.115922675e-08 3.084999769e-19 -0.002159028408)
(2.160993524e-08 -4.602541445e-19 -0.002157787341)
(5.621968411e-08 -3.215106885e-19 -0.002157790952)
(8.846602306e-08 -3.402097879e-19 -0.002157798764)
(1.211147661e-07 -3.704952651e-19 -0.002157810375)
(1.526692902e-07 -3.583808708e-19 -0.002157825541)
(1.827626533e-07 -1.765838115e-19 -0.002157844054)
(2.112287326e-07 -1.591156699e-19 -0.002157865704)
(2.379507154e-07 2.786636577e-20 -0.002157890289)
(2.628922813e-07 2.071806984e-19 -0.002157917667)
(2.859998745e-07 1.807388944e-19 -0.002157947683)
(3.071709247e-07 1.880668322e-19 -0.002157980144)
(3.264007322e-07 1.858763741e-19 -0.002158014901)
(3.436951548e-07 2.360368292e-19 -0.002158051821)
(3.590089739e-07 2.338164448e-19 -0.002158090715)
(3.723880526e-07 2.808546637e-19 -0.00215813146)
(3.838395447e-07 2.398075717e-19 -0.002158173895)
(3.933894485e-07 2.522983322e-19 -0.002158217864)
(4.010792036e-07 2.327004769e-19 -0.00215826323)
(4.069412631e-07 2.30276257e-19 -0.002158309822)
(4.110386106e-07 2.563926272e-19 -0.002158357509)
(4.134213935e-07 2.826945328e-19 -0.002158406113)
(4.141393177e-07 3.013879997e-19 -0.002158455496)
(4.132508556e-07 3.033838832e-19 -0.002158505476)
(4.108223894e-07 2.838971852e-19 -0.002158555917)
(4.06928269e-07 2.905297969e-19 -0.002158606637)
(4.016266422e-07 3.0553154e-19 -0.002158657486)
(3.94988767e-07 2.649585998e-19 -0.002158708286)
(3.870674481e-07 2.574658456e-19 -0.002158758873)
(3.779258469e-07 2.492054266e-19 -0.002158809074)
(3.67637786e-07 2.453846818e-19 -0.002158858715)
(3.562619933e-07 2.425812336e-19 -0.00215890763)
(3.438790108e-07 2.134999323e-19 -0.002158955637)
(3.305389507e-07 2.162469414e-19 -0.002159002575)
(3.163100644e-07 2.004526479e-19 -0.002159048252)
(3.012406314e-07 2.056858554e-19 -0.002159092513)
(2.853996821e-07 2.090857422e-19 -0.00215913517)
(2.68834817e-07 2.270707358e-19 -0.002159176064)
(2.516101253e-07 2.512491927e-19 -0.002159215017)
(2.33772115e-07 2.745009369e-19 -0.002159251867)
(2.153741279e-07 2.897163838e-19 -0.002159286446)
(1.964674393e-07 2.901677086e-19 -0.002159318594)
(1.770961729e-07 2.846160026e-19 -0.002159348154)
(1.57316449e-07 2.801646967e-19 -0.002159374971)
(1.371673871e-07 2.828566426e-19 -0.0021593989)
(1.166961525e-07 2.810078873e-19 -0.002159419791)
(9.593933934e-08 2.760795219e-19 -0.002159437513)
(7.493406836e-08 3.002814846e-19 -0.002159451926)
(5.371821852e-08 2.968995877e-19 -0.002159462912)
(3.239942121e-08 3.063138006e-19 -0.002159470344)
(1.124403834e-08 3.059713555e-19 -0.002159474113)
(2.188827847e-08 2.584621535e-19 -0.002158170709)
(5.694135915e-08 4.341992684e-19 -0.002158174505)
(8.962045503e-08 -1.866806866e-19 -0.002158182745)
(1.227148849e-07 -3.129579643e-19 -0.002158194982)
(1.546542949e-07 -2.913815756e-19 -0.002158210932)
(1.850553246e-07 -1.367863112e-19 -0.002158230353)
(2.137861009e-07 -2.443552641e-20 -0.002158253044)
(2.407943198e-07 2.72077234e-21 -0.002158278838)
(2.659966414e-07 1.184402002e-19 -0.002158307551)
(2.892643835e-07 1.668440149e-19 -0.002158338968)
(3.105734152e-07 1.942286873e-19 -0.002158372922)
(3.299284887e-07 2.083701605e-19 -0.002158409268)
(3.47270469e-07 2.827703041e-19 -0.00215844781)
(3.626288088e-07 2.316913447e-19 -0.002158488395)
(3.760181384e-07 2.074664001e-19 -0.002158530869)
(3.874319817e-07 2.188139998e-19 -0.002158575044)
(3.96926016e-07 2.176592259e-19 -0.002158620788)
(4.045252565e-07 2.034228881e-19 -0.00215866791)
(4.102922271e-07 2.282240178e-19 -0.00215871628)
(4.142735241e-07 2.062736547e-19 -0.002158765715)
(4.165248729e-07 1.778446834e-19 -0.002158816068)
(4.17097796e-07 2.149224369e-19 -0.002158867157)
(4.160576723e-07 2.393011044e-19 -0.002158918833)
(4.134811191e-07 2.678668017e-19 -0.002158970917)
(4.094297517e-07 2.649725727e-19 -0.002159023257)
(4.039761861e-07 2.917336088e-19 -0.002159075666)
(3.971763654e-07 2.999278767e-19 -0.002159127993)
(3.891036702e-07 2.93110696e-19 -0.002159180042)
(3.798149824e-07 2.961643605e-19 -0.002159231661)
(3.693874903e-07 3.051699613e-19 -0.00215928266)
(3.578814388e-07 2.94926419e-19 -0.00215933288)
(3.453734788e-07 2.831097303e-19 -0.002159382134)
(3.319134566e-07 2.89155734e-19 -0.002159430256)
(3.175624339e-07 3.000634235e-19 -0.002159477065)
(3.023866961e-07 3.10031393e-19 -0.002159522388)
(2.864358385e-07 3.221293194e-19 -0.002159566054)
(2.697762068e-07 3.257286554e-19 -0.002159607884)
(2.5245411e-07 3.386618259e-19 -0.002159647718)
(2.345306927e-07 3.486953079e-19 -0.002159685376)
(2.160469137e-07 3.528522175e-19 -0.002159720706)
(1.970594031e-07 3.440264504e-19 -0.002159753532)
(1.776133369e-07 3.39342291e-19 -0.002159783709)
(1.577608333e-07 3.38811491e-19 -0.002159811073)
(1.375421122e-07 3.366179274e-19 -0.002159835481)
(1.170032191e-07 3.365950866e-19 -0.002159856782)
(9.618287302e-08 3.244183298e-19 -0.002159874844)
(7.511792309e-08 3.179751489e-19 -0.002159889527)
(5.384762715e-08 2.990711708e-19 -0.00215990071)
(3.24794806e-08 2.910039738e-19 -0.002159908267)
(1.127309156e-08 2.786280946e-19 -0.002159912087)
(2.201707041e-08 9.939744685e-19 -0.00215854515)
(5.726156867e-08 4.669539976e-19 -0.002158549123)
(9.009303685e-08 4.133389939e-19 -0.002158557787)
(1.233105355e-07 4.243731247e-19 -0.002158570632)
(1.553382073e-07 2.915075487e-19 -0.00215858736)
(1.858237497e-07 2.098418686e-19 -0.002158607748)
(2.146681023e-07 2.037930005e-19 -0.002158631598)
(2.417445416e-07 1.755845896e-19 -0.002158658687)
(2.66914203e-07 2.368591631e-19 -0.002158688773)
(2.901400154e-07 2.02437061e-19 -0.002158721673)
(3.114189163e-07 2.381053369e-19 -0.002158757227)
(3.306785542e-07 2.698779005e-19 -0.002158795222)
(3.479126199e-07 1.776866212e-19 -0.002158835476)
(3.631473048e-07 1.381273372e-19 -0.002158877835)
(3.763615348e-07 1.299425768e-19 -0.002158922085)
(3.87613393e-07 1.923040416e-19 -0.002158968083)
(3.969210941e-07 2.444538022e-19 -0.002159015644)
(4.043418727e-07 2.545245884e-19 -0.002159064599)
(4.099296802e-07 2.253765758e-19 -0.002159114784)
(4.137275907e-07 1.848582876e-19 -0.002159166019)
(4.157932124e-07 1.891073002e-19 -0.002159218144)
(4.161870696e-07 1.673062769e-19 -0.002159270974)
(4.149834442e-07 1.963406492e-19 -0.002159324354)
(4.122562632e-07 2.365723133e-19 -0.002159378102)
(4.080694954e-07 2.595669043e-19 -0.002159432056)
(4.024944224e-07 2.728216999e-19 -0.002159486034)
(3.955899763e-07 3.057681234e-19 -0.002159539867)
(3.874215568e-07 3.054247452e-19 -0.00215959338)
(3.78067811e-07 2.97356866e-19 -0.002159646396)
(3.675873135e-07 3.274983956e-19 -0.002159698745)
(3.560607758e-07 3.522876534e-19 -0.002159750244)
(3.435404964e-07 3.761121974e-19 -0.00215980073)
(3.300953435e-07 3.758666436e-19 -0.00215985001)
(3.157736634e-07 4.025837064e-19 -0.002159897929)
(3.006444228e-07 4.16593449e-19 -0.002159944293)
(2.847552026e-07 4.188448589e-19 -0.002159988943)
(2.681695906e-07 4.148463995e-19 -0.002160031696)
(2.509343428e-07 3.765400077e-19 -0.00216007239)
(2.331054029e-07 3.635244061e-19 -0.00216011085)
(2.147272737e-07 3.503967231e-19 -0.002160146913)
(1.95847653e-07 3.560362195e-19 -0.002160180416)
(1.765221644e-07 3.618353957e-19 -0.002160211198)
(1.567892362e-07 3.6748748e-19 -0.002160239107)
(1.366965695e-07 3.600891283e-19 -0.002160263988)
(1.162827207e-07 3.511269284e-19 -0.0021602857)
(9.559175509e-08 3.452378344e-19 -0.002160304097)
(7.465579818e-08 3.355990981e-19 -0.002160319051)
(5.351502782e-08 3.340790818e-19 -0.002160330425)
(3.227606141e-08 3.299615354e-19 -0.002160338104)
(1.119824654e-08 3.23524837e-19 -0.002160341964)
(2.188435096e-08 -9.889784356e-20 -0.002158911688)
(5.690827768e-08 -2.583800313e-19 -0.002158915824)
(8.951980761e-08 4.070351705e-19 -0.002158924921)
(1.225027375e-07 5.455317989e-19 -0.002158938429)
(1.543131951e-07 6.75547533e-19 -0.002158956042)
(1.846026965e-07 4.765719296e-19 -0.002158977508)
(2.131883704e-07 3.999654829e-19 -0.002159002565)
(2.399255755e-07 3.755661561e-19 -0.002159030954)
(2.64772811e-07 2.910892499e-19 -0.002159062477)
(2.877100295e-07 3.06424044e-19 -0.002159096952)
(3.086451325e-07 2.748840476e-19 -0.002159134143)
(3.275421719e-07 2.144995243e-19 -0.002159173836)
(3.44435646e-07 1.700207409e-19 -0.002159215869)
(3.59291215e-07 1.498203522e-19 -0.002159260018)
(3.721542784e-07 1.833188633e-19 -0.002159306104)
(3.83061218e-07 1.822511531e-19 -0.002159353951)
(3.920269815e-07 2.15568889e-19 -0.00215940335)
(3.991248886e-07 2.400625763e-19 -0.002159454152)
(4.04399436e-07 2.516179657e-19 -0.002159506143)
(4.079121143e-07 2.944156586e-19 -0.002159559175)
(4.097149266e-07 2.954476438e-19 -0.002159613039)
(4.098828291e-07 2.685846631e-19 -0.002159667589)
(4.0849158e-07 2.808455405e-19 -0.002159722624)
(4.056096145e-07 2.954149727e-19 -0.002159777994)
(4.013098856e-07 3.099449058e-19 -0.002159833498)
(3.956540588e-07 3.239232455e-19 -0.002159888985)
(3.887159312e-07 3.372760286e-19 -0.002159944253)
(3.805558551e-07 3.449813294e-19 -0.002159999153)
(3.712509804e-07 3.514858727e-19 -0.002160053487)
(3.608627259e-07 3.558090579e-19 -0.002160107099)
(3.494665509e-07 3.975870608e-19 -0.002160159802)
(3.371130429e-07 4.259932632e-19 -0.002160211428)
(3.238655122e-07 4.162724741e-19 -0.002160261797)
(3.097813103e-07 4.318825989e-19 -0.002160310736)
(2.949098151e-07 4.350886016e-19 -0.002160358073)
(2.793149386e-07 4.274303356e-19 -0.002160403628)
(2.630399465e-07 4.265851302e-19 -0.00216044724)
(2.461433614e-07 4.293355131e-19 -0.002160488727)
(2.286624143e-07 4.204801491e-19 -0.002160527932)
(2.106509095e-07 4.138873228e-19 -0.002160564674)
(1.921504566e-07 4.177451292e-19 -0.002160598805)
(1.732110775e-07 4.189843762e-19 -0.002160630153)
(1.538699411e-07 4.19217647e-19 -0.002160658572)
(1.341710074e-07 4.190467168e-19 -0.0021606839)
(1.141526017e-07 4.195325633e-19 -0.002160705997)
(9.385614622e-08 4.098645659e-19 -0.002160724713)
(7.331222506e-08 4.016533689e-19 -0.002160739919)
(5.255711917e-08 4.016454816e-19 -0.002160751477)
(3.169674173e-08 4.023076664e-19 -0.002160759267)
(1.09930977e-08 4.042932231e-19 -0.002160763165)
(2.142612385e-08 -5.032853462e-19 -0.002159271876)
(5.571339628e-08 -2.703789472e-19 -0.002159276206)
(8.764844305e-08 -1.091654792e-19 -0.002159285802)
(1.199546852e-07 -1.349644685e-19 -0.002159300042)
(1.510703216e-07 2.092496771e-19 -0.002159318579)
(1.806006303e-07 1.104830179e-19 -0.00215934111)
(2.083976531e-07 1.680668363e-19 -0.002159367354)
(2.344027463e-07 1.655624135e-19 -0.0021593971)
(2.585689339e-07 1.754803973e-19 -0.002159430136)
(2.80777996e-07 1.746402557e-19 -0.002159466196)
(3.009695671e-07 1.377236918e-19 -0.002159505034)
(3.19186021e-07 1.798629793e-19 -0.002159546472)
(3.3538979e-07 3.148505942e-19 -0.002159590273)
(3.495802545e-07 3.205934635e-19 -0.002159636218)
(3.618159779e-07 3.172787829e-19 -0.002159684135)
(3.721024246e-07 2.59567502e-19 -0.002159733784)
(3.805144628e-07 2.156166969e-19 -0.002159784998)
(3.87089896e-07 2.203518147e-19 -0.002159837574)
(3.919007451e-07 2.728610181e-19 -0.002159891323)
(3.950001483e-07 3.288482334e-19 -0.002159946057)
(3.964518061e-07 3.375143578e-19 -0.002160001587)
(3.963366367e-07 3.558872722e-19 -0.002160057739)
(3.947285088e-07 3.476272715e-19 -0.002160114327)
(3.916981788e-07 3.505346221e-19 -0.002160171178)
(3.873169549e-07 3.603243448e-19 -0.002160228109)
(3.816507053e-07 3.7536616e-19 -0.002160284946)
(3.747655244e-07 3.965232989e-19 -0.002160341512)
(3.667392398e-07 4.282061176e-19 -0.002160397631)
(3.576304282e-07 4.722856253e-19 -0.002160453134)
(3.475172769e-07 4.80452976e-19 -0.00216050784)
(3.364508272e-07 4.987440868e-19 -0.002160561588)
(3.244961965e-07 5.315784153e-19 -0.002160614188)
(3.11697285e-07 5.350370929e-19 -0.002160665487)
(2.981181971e-07 5.207263232e-19 -0.00216071529)
(2.838009221e-07 5.161491805e-19 -0.002160763448)
(2.688026608e-07 5.183766824e-19 -0.002160809771)
(2.531636786e-07 5.208614856e-19 -0.002160854102)
(2.369327676e-07 5.242672635e-19 -0.002160896263)
(2.201445678e-07 5.21944528e-19 -0.002160936091)
(2.028482055e-07 4.925536152e-19 -0.002160973417)
(1.85086639e-07 4.767183352e-19 -0.002161008079)
(1.668937407e-07 4.688006233e-19 -0.002161039916)
(1.483104729e-07 4.63300877e-19 -0.002161068768)
(1.293690622e-07 4.59754605e-19 -0.002161094485)
(1.101107376e-07 4.590052718e-19 -0.002161116912)
(9.056890061e-08 4.468940893e-19 -0.002161135909)
(7.077336283e-08 4.446637366e-19 -0.002161151332)
(5.075676968e-08 4.515379669e-19 -0.00216116305)
(3.062181205e-08 4.605874775e-19 -0.002161170932)
(1.062795061e-08 4.740602188e-19 -0.002161174859)
(2.057378385e-08 -5.209423694e-20 -0.002159627842)
(5.347965139e-08 -1.546336354e-19 -0.002159632341)
(8.40957393e-08 -2.301200191e-19 -0.002159642419)