/*--------------------------------*- C++ -*----------------------------------*\
  =========                 |
  \\      /  F ield         | OpenFOAM: The Open Source CFD Toolbox
   \\    /   O peration     | Website:  https://openfoam.org
    \\  /    A nd           | Version:  7
     \\/     M anipulation  |
\*---------------------------------------------------------------------------*/
FoamFile
{
    version     2.0;
    format      ascii;
    class       volVectorField;
    location    "0.0006";
    object      grad(generalizedNewtonian:nu);
}
// * * * * * * * * * * * * * * * * * * * * * * * * * * * * * * * * * * * * * //

dimensions      [0 1 -1 0 0 0 0];

internalField   nonuniform List<vector> 
1167
(
(-801.2932193 0 15824.24784)
(667.3702575 0 15751.09977)
(46.69496924 0 15890.55584)
(-1020.506418 0 15892.46465)
(-873.5426422 0 15899.92209)
(-1126.597434 0 15925.37118)
(-1383.316379 1.427287194e-10 15958.65497)
(-1638.709882 1.271850122e-10 15995.31058)
(-1914.317083 -1.153833132e-10 16041.40879)
(-2211.569064 0 16091.66172)
(-2527.368619 9.873548993e-11 16149.64059)
(-2862.442279 0 16213.11105)
(-3217.771189 0 16280.34264)
(-3590.904698 0 16349.12524)
(-3980.129175 0 16417.91257)
(-4383.966932 0 16484.26516)
(-4800.831726 -3.708350122e-11 16545.81239)
(-5228.232834 0 16599.82671)
(-5665.175985 6.989367454e-11 16644.42418)
(-6112.598734 0 16678.18999)
(-6569.918337 0 16698.98312)
(-7038.418967 0 16708.35207)
(-7521.765214 0 16704.9531)
(-8024.811811 -3.155615117e-11 16693.60209)
(-8551.746298 3.11073627e-11 16674.51879)
(-9109.813082 0 16652.12546)
(-9709.632167 3.037393206e-11 16633.81358)
(-10361.15604 0 16625.28841)
(-11075.45897 0 16633.53965)
(-11866.6658 0 16667.928)
(-12752.69279 0 16740.78652)
(-13752.3681 0 16864.25197)
(-14887.39397 -1.457770111e-11 17053.14198)
(-16180.81896 0 17323.17789)
(-17654.32522 3.299571312e-12 17689.20497)
(-798.024241 0 14788.22866)
(634.782412 0 14723.38429)
(28.57107409 0 14866.90036)
(-1024.808805 0 14885.91902)
(-889.4921463 -2.005719857e-10 14911.11684)
(-1143.748857 1.687320807e-10 14961.31889)
(-1403.067845 0 15020.55781)
(-1661.323174 0 15086.32373)
(-1938.344797 0 15162.29611)
(-2234.057072 0 15246.12787)
(-2549.734356 0 15335.00996)
(-2882.827252 0 15430.16297)
(-3231.945056 -9.016192054e-11 15528.06604)
(-3596.20959 0 15626.03735)
(-3974.113211 0 15721.67883)
(-4363.406084 0 15812.15091)
(-4762.531308 0 15894.86355)
(-5170.152749 7.393215428e-11 15967.05908)
(-5585.379847 0 16026.79437)
(-6006.129749 0 16072.24502)
(-6435.420594 0 16103.13963)
(-6875.139618 0 16118.85272)
(-7328.485376 0 16122.00022)
(-7800.869383 0 16114.07698)
(-8297.117005 0 16097.64931)
(-8826.548395 3.159128337e-11 16079.05874)
(-9398.494853 0 16063.47557)
(-10023.33374 0 16057.51844)
(-10713.06565 -3.067490647e-11 16068.14961)
(-11483.3952 1.522620018e-11 16106.27869)
(-12351.74126 -1.513271177e-11 16183.54475)
(-13337.19618 -1.505555322e-11 16311.95171)
(-14462.03479 1.49934719e-11 16506.42491)
(-15748.63406 -1.494537069e-11 16780.89536)
(-17217.17191 0 17149.60494)
(-18877.57728 -1.488736896e-11 17619.8754)
(-20713.46634 0 18183.61817)
(-22654.84459 1.487512053e-11 18800.77635)
(-24543.29641 0 19375.66689)
(-26109.55015 0 19745.39933)
(-27011.87605 -7.465907898e-12 19704.22894)
(-26964.57909 -7.484399415e-12 19087.41098)
(-25885.21 0 17862.25999)
(-23943.66319 1.130069387e-11 16156.14199)
(-21470.00139 0 14190.59495)
(-18807.97701 -3.799363792e-12 12185.54168)
(-16218.05807 0 10299.61091)
(-13853.10828 0 8619.111851)
(-11779.77635 0 7174.86905)
(-9999.459343 4.843585306e-13 5958.160505)
(-798.3537518 0 13887.06068)
(597.4086098 0 13828.82425)
(1.164051439 3.514273639e-10 13974.81797)
(-1042.034186 0 14007.41884)
(-922.9253707 2.063752542e-10 14048.89007)
(-1181.702553 0 14120.05831)
(-1445.822357 7.552346188e-11 14199.53811)
(-1707.980396 -6.729866614e-11 14290.78078)
(-1989.175723 0 14389.95765)
(-2286.156034 5.616480992e-11 14499.44119)
(-2599.521785 0 14614.99046)
(-2929.403288 -9.808432454e-11 14733.63103)
(-3272.814883 0 14853.57472)
(-3628.180245 0 14972.47293)
(-3993.716763 -4.226041045e-11 15086.91229)
(-4367.629526 0 15194.12072)
(-4748.013518 3.924472106e-11 15290.38752)
(-5132.669827 3.803563857e-11 15373.28057)
(-5521.72978 -7.396706565e-11 15441.3794)
(-5916.647647 -3.606489027e-11 15492.71787)
(-6316.541339 0 15528.16978)
(-6725.709615 0 15546.96182)
(-7148.636033 0 15552.58673)
(-7589.173595 0 15545.31997)
(-8055.401468 0 15531.076)
(-8555.340172 0 15513.99497)
(-9098.993829 0 15499.74802)
(-9696.667264 1.591567046e-11 15495.07622)
(-10361.76068 3.156244174e-11 15508.34927)
(-11111.03671 -1.566674885e-11 15550.42246)
(-11961.1203 1.557055552e-11 15631.66628)
(-12931.58448 0 15764.62912)
(-14043.6429 -1.542728691e-11 15963.11468)
(-15319.49327 0 16240.78712)
(-16778.14016 -1.534169433e-11 16610.22714)
(-18424.46997 0 17075.13076)
(-20234.23399 -1.530628071e-11 17622.86258)
(-22124.67519 -1.530551126e-11 18205.6969)
(-23921.4721 -7.657599329e-12 18721.26716)
(-25348.33681 7.667401913e-12 19005.82459)
(-26082.37961 -7.681923426e-12 18870.32595)
(-25883.508 0 18182.30422)
(-24720.23747 7.7242908e-12 16941.93073)
(-22788.35765 0 15288.3316)
(-20408.01674 0 13429.54373)
(-17891.42747 0 11559.48674)
(-15465.47472 0 9812.45368)
(-13259.31674 0 8258.886941)
(-11327.60346 0 6922.46798)
(-9669.521981 4.960237255e-13 5794.169394)
(-801.6220002 0 13106.49438)
(556.2285584 0 13053.68382)
(-33.32982446 0 13200.73146)
(-1071.665125 0 13244.77651)
(-971.5505665 -1.062170388e-10 13301.56929)
(-1235.664698 0 13387.47621)
(-1507.584284 7.774070127e-11 13484.35865)
(-1775.786978 6.92744395e-11 13594.09171)
(-2059.913858 0 13713.40817)
(-2360.3876 0 13840.44704)
(-2673.039991 0 13974.47802)
(-2997.980008 0 14111.08727)
(-3334.559964 0 14247.33396)
(-3679.942769 0 14380.04291)
(-4032.094225 0 14505.96822)
(-4388.191231 -4.183351387e-11 14621.93486)
(-4747.042693 0 14724.933)
(-5109.091107 0 14813.36376)
(-5472.565812 0 14884.44576)
(-5838.131437 0 14938.12738)
(-6208.879094 7.25919947e-11 14973.32577)
(-6587.767482 0 14993.36717)
(-6978.799775 0 14997.26376)
(-7388.732793 0 14990.61703)
(-7824.864588 0 14976.55456)
(-8294.873124 0 14959.10667)
(-8809.827391 0 14945.67363)
(-9381.332208 3.276585451e-11 14942.73374)
(-10022.8535 0 14959.17763)
(-10750.19483 3.225339542e-11 15004.64779)
(-11580.55095 -1.602768041e-11 15089.27205)
(-12534.1078 1.594595845e-11 15225.82537)
(-13631.89982 0 15427.10578)
(-14894.63605 0 15706.53515)
(-16337.94341 0 16073.84164)
(-17962.97272 0 16530.50781)
(-19738.0488 0 17059.17365)
(-21568.16128 7.877427435e-12 17605.38553)
(-23267.71595 0 18062.0966)
(-24559.89625 0 18269.34606)
(-25144.12828 7.907451545e-12 18056.41616)
(-24823.55613 0 17320.13672)
(-23608.19432 0 16085.19849)
(-21708.93454 3.989677277e-12 14495.18212)
(-19430.43407 -4.005877837e-12 12742.66093)
(-17054.68052 4.024063164e-12 10998.22604)
(-14780.26862 0 9376.296008)
(-12717.46773 2.033073103e-12 7935.183131)
(-10912.09659 0 6693.628427)
(-9362.759367 -1.550117757e-12 5643.219216)
(-807.2132825 0 12434.05592)
(512.4867255 -3.020552732e-10 12385.2353)
(-74.06356137 0 12532.65797)
(-1111.949253 0 12587.53693)
(-1031.590213 2.187636845e-10 12655.39546)
(-1303.126833 0 12751.57738)
(-1583.731605 0 12863.23339)
(-1859.582687 -7.133851508e-11 12985.07565)
(-2147.726875 0 13119.04791)
(-2449.208151 0 13259.72136)
(-2761.887466 0 13404.83439)
(-3083.180193 0 13552.39791)
(-3411.470683 0 13698.03421)
(-3744.956642 0 13838.21392)
(-4081.77534 0 13969.72865)
(-4420.006291 0 14089.48004)
(-4758.419493 -8.320105849e-11 14194.7832)
(-5094.874182 -4.031886701e-11 14283.28859)
(-5431.08729 0 14353.70348)
(-5768.617081 0 14405.4472)
(-6109.551379 -3.73774593e-11 14439.55244)
(-6457.42748 -3.663023116e-11 14456.10855)
(-6817.957183 0 14458.71384)
(-7198.104469 0 14450.94884)
(-7603.144219 3.489645557e-11 14434.7272)
(-8044.406525 -1.722829217e-11 14417.30921)
(-8532.591691 1.703684395e-11 14405.17668)
(-9078.079248 1.687106687e-11 14404.10204)
(-9695.576193 0 14422.93833)
(-10400.6319 0 14470.97238)
(-11210.69296 0 14558.54564)
(-12145.64254 1.642107835e-11 14697.86798)
(-13226.03234 -1.635336634e-11 14900.78902)
(-14471.70532 0 15179.68869)
(-15895.78498 1.626263582e-11 15542.64732)
(-17494.35384 0 15988.60747)
(-19227.16026 1.622509623e-11 16495.25147)
(-20989.82073 0 17003.49768)
(-22589.37923 -8.117274757e-12 17404.05168)
(-23753.49849 -8.127665782e-12 17542.86713)
(-24207.19142 0 17268.5021)
(-23792.95173 0 16503.41588)
(-22552.40777 8.187969631e-12 15289.79911)
(-20702.36377 -4.10855223e-12 13770.1757)
(-18529.32335 0 12120.97671)
(-16287.89043 0 10492.58258)
(-14152.93891 0 8983.342084)
(-12219.79207 0 7642.280172)
(-10527.80597 0 6484.840007)
(-9075.887612 5.191869896e-13 5503.654505)
(-814.0916654 -9.106201086e-10 11857.6443)
(466.6599573 -3.111912967e-10 11812.57741)
(-120.8267942 -3.837904849e-10 11960.88586)
(-1160.46369 0 12023.97783)
(-1099.455329 0 12098.12736)
(-1380.789517 0 12202.79294)
(-1670.95086 -1.649569103e-10 12323.62373)
(-1953.985006 7.349623384e-11 12454.67003)
(-2247.669003 6.667640173e-11 12596.13529)
(-2550.145684 -6.133705525e-11 12745.43771)
(-2860.736746 1.141122926e-10 12898.19665)
(-3177.196317 -5.355847974e-11 13050.55844)
(-3497.098502 0 13199.69277)
(-3818.564807 0 13342.0612)
(-4139.82784 4.615219277e-11 13474.00169)
(-4458.228073 0 13592.42824)
(-4773.342604 0 13695.14809)
(-5086.184037 0 13780.42916)
(-5395.551265 0 13846.97034)
(-5704.408167 0 13894.83073)
(-6015.619641 0 13924.21777)
(-6333.679628 0 13937.21808)
(-6665.083851 0 13937.48902)
(-7014.160398 0 13925.89989)
(-7390.619913 -1.797597043e-11 13908.49198)
(-7804.997172 -1.77493824e-11 13891.75548)
(-8266.119365 0 13879.82316)
(-8786.068559 0 13879.80902)
(-9379.57389 -1.723452143e-11 13900.51915)
(-10061.98094 0 13950.46028)
(-10851.03274 1.700445571e-11 14040.2595)
(-11765.93449 0 14181.18967)
(-12826.64176 -1.684799348e-11 14384.65359)
(-14051.71264 0 14661.71471)
(-15451.47435 1.675451869e-11 15018.49473)
(-17017.62479 1.672876671e-11 15451.16738)
(-18702.68234 0 15933.90769)
(-20393.87707 0 16404.14927)
(-21893.84529 0 16752.03346)
(-22939.24995 0 16831.94124)
(-23281.62041 8.389355562e-12 16511.10558)
(-22797.81319 0 15733.21396)
(-21552.89506 4.217812286e-12 14552.19421)
(-19763.41519 8.465640654e-12 13106.19324)
(-17696.56775 0 11556.01797)
(-15582.34211 0 10034.59683)
(-13575.7629 0 8627.16637)
(-11760.27639 -2.156974744e-12 7375.687952)
(-10170.54185 -2.169596129e-12 6293.37577)
(-8806.389293 -1.652491496e-12 5374.174526)
(-823.1332079 0 11368.18175)
(417.9428288 0 11326.54094)
(-171.7022494 -3.95576922e-10 11474.8115)
(-1213.255 -1.452448387e-10 11542.37591)
(-1173.313093 0 11619.80804)
(-1465.253436 0 11730.91419)
(-1765.327769 8.501141827e-11 11855.29572)
(-2055.021056 0 11992.42033)
(-2353.399402 0 12137.07336)
(-2658.350791 6.32207529e-11 12288.78673)
(-2966.302794 -5.880837507e-11 12443.2229)
(-3276.300787 0 12596.22421)
(-3586.791553 1.044253337e-10 12744.39676)
(-3894.769113 -9.940165303e-11 12884.09012)
(-4198.877819 0 13012.25875)
(-4498.287163 0 13126.01804)
(-4792.053973 0 13223.64219)
(-5078.975712 8.562805512e-11 13302.59267)
(-5362.044287 0 13362.95531)
(-5643.004228 0 13404.36824)
(-5925.468393 0 13428.22219)
(-6215.497468 3.889711778e-11 13437.11625)
(-6516.829415 1.910053367e-11 13432.2921)
(-6837.787624 -1.879532844e-11 13418.01105)
(-7187.592883 0 13399.91395)
(-7574.790274 0 13381.98417)
(-8009.510896 0 13369.4436)
(-8504.722418 1.791514425e-11 13370.06736)
(-9074.390213 0 13391.93449)
(-9733.897779 0 13443.38212)
(-10501.24246 -1.752667288e-11 13534.82357)
(-11394.75809 -1.743730795e-11 13676.35778)
(-12433.6912 -1.736540549e-11 13879.15716)
(-13634.88149 1.730969482e-11 14152.72742)
(-15006.04966 -1.726906003e-11 14501.68794)
(-16534.71739 -8.621258614e-12 14919.70452)
(-18166.92694 0 15377.64748)
(-19783.65645 0 15810.60885)
(-21186.60909 8.619617805e-12 16110.28014)
(-22124.2398 0 16140.75885)
(-22373.9279 -8.646997748e-12 15786.60662)
(-21841.69843 0 15008.76376)
(-20608.92924 0 13868.37793)
(-18887.52496 0 12497.03487)
(-16925.52146 4.380528478e-12 11040.87594)
(-14930.96176 0 9617.839024)
(-13042.42762 0 8302.703215)
(-11334.04563 2.223216733e-12 7131.847514)
(-9836.936638 -2.236225738e-12 6117.039921)
(-8552.241193 5.420577155e-13 5253.681107)
(-833.0931277 9.678598123e-10 10956.49633)
(368.3618645 3.307521406e-10 10916.72285)
(-224.3268157 -2.039573821e-10 11062.98709)
(-1268.433724 0 11131.56007)
(-1250.592781 1.197737026e-10 11212.03347)
(-1552.814266 -2.015203265e-10 11324.90354)
(-1863.034143 0 11450.38581)
(-2160.002573 0 11587.46999)
(-2461.034143 -7.086754305e-11 11733.3922)
(-2766.634152 0 11883.24709)
(-3072.215243 0 12034.33983)
(-3375.9441 0 12183.52651)
(-3676.021703 5.384115338e-11 12326.61256)
(-3970.726379 0 12460.38198)
(-4258.421305 0 12582.03579)
(-4537.567954 0 12687.86551)
(-4808.016676 4.555280204e-11 12776.83382)
(-5071.620687 -8.829875035e-11 12847.61321)
(-5328.402096 -4.292815691e-11 12899.9293)
(-5582.406975 0 12933.78913)
(-5838.223321 0 12951.63495)
(-6099.661741 2.005514952e-11 12954.12717)
(-6374.034495 -1.969626954e-11 12945.10447)
(-6668.488257 0 12928.14093)
(-6991.627876 0 12907.17731)
(-7352.37605 1.88650721e-11 12887.31558)
(-7761.80058 0 12874.33632)
(-8233.133141 -1.847390846e-11 12875.64698)
(-8779.5994 0 12898.38186)
(-9416.50642 0 12951.0193)
(-10161.14276 1.807332088e-11 13043.12269)
(-11031.70513 -1.798116872e-11 13184.28555)
(-12046.78613 0 13385.12712)
(-13221.28143 0 13653.74058)
(-14560.38071 2.671150975e-11 13993.38875)
(-16047.30695 2.667045383e-11 14395.36573)
(-17622.98632 0 14828.04019)
(-19164.11766 -8.882836995e-12 15225.41072)
(-20474.09926 -8.888459275e-12 15482.02047)
(-21315.21566 -1.779967511e-11 15472.30221)
(-21489.21663 0 15096.35795)
(-20926.24783 -4.469388982e-12 14328.76787)
(-19718.20212 8.965870643e-12 13234.40127)
(-18069.39421 0 11937.03942)
(-16209.52829 4.517154914e-12 10569.52456)
(-14327.61317 0 9237.135625)
(-12547.93711 -2.28016785e-12 8005.869216)
(-10937.12588 0 6907.844723)
(-9524.245385 0 5954.015384)
(-8311.796465 2.873724913e-12 5141.23901)
(-843.265693 9.985250439e-10 10611.30483)
(319.1194155 0 10572.40136)
(-276.0161208 -4.208389505e-10 10714.81742)
(-1324.854101 0 10783.72438)
(-1329.15338 -1.235685583e-10 10865.18314)
(-1640.756131 0 10975.419)
(-1959.456793 -9.044035187e-11 11100.25136)
(-2264.304895 8.059104934e-11 11233.23565)
(-2568.867677 -1.462257564e-10 11375.26403)
(-2873.033257 6.725810817e-11 11520.88057)
(-3175.032045 6.256394997e-11 11666.37643)
(-3471.795653 0 11808.15589)
(-3761.509806 -5.554703201e-11 11942.74052)
(-4042.374397 0 12067.11295)
(-4312.1787 5.060740453e-11 12178.12458)
(-4571.644166 4.866739912e-11 12273.9788)
(-4821.285963 -4.699607634e-11 12353.11448)
(-5060.497599 -4.554818393e-11 12414.02422)
(-5292.863475 0 12456.73978)
(-5521.643397 0 12482.85823)
(-5750.803715 0 12492.54306)
(-5986.841457 0 12489.5855)
(-6235.291112 -2.032031712e-11 12475.32911)
(-6503.483609 -1.999562131e-11 12453.95566)
(-6801.352568 -1.971124559e-11 12430.40434)
(-7138.018413 0 12409.17273)
(-7523.856646 1.924650571e-11 12396.00189)
(-7971.690344 0 12397.59928)
(-8494.852113 -1.889822231e-11 12420.67664)
(-9108.804378 1.876114045e-11 12473.66345)
(-9830.148223 -1.864594771e-11 12565.47157)
(-10676.57208 0 12705.49235)
(-11665.70527 0 12903.26142)
(-12810.76889 0 13165.75166)
(-14114.591 -9.185941737e-12 13494.83533)
(-15556.42938 0 13879.8349)
(-17073.11236 9.164737586e-12 14287.34682)
(-18539.01382 -1.832855351e-11 14651.23238)
(-19761.56679 0 14870.08892)
(-20517.69996 0 14828.64078)
(-20631.4201 9.199205707e-12 14440.59269)
(-20052.46883 0 13691.04542)
(-18878.43214 0 12645.8992)
(-17304.45094 -4.641427343e-12 11420.97234)
(-15543.19574 0 10136.90886)
(-13766.70113 -4.681430502e-12 8887.971091)
(-12087.65157 0 7733.152523)
(-10566.35273 0 6701.32969)
(-9230.238651 -2.379033858e-12 5802.784088)
(-8083.717709 5.644815096e-13 5036.040823)
(-853.0734854 -1.030671067e-09 10322.44513)
(271.7751811 0 10283.27191)
(-327.21607 -4.343872321e-10 10422.14201)
(-1380.982659 0 10491.16817)
(-1404.926191 -1.275466635e-10 10569.21207)
(-1726.298909 0 10675.32348)
(-2053.470773 0 10795.36856)
(-2362.998144 0 10923.46941)
(-2671.133022 0 11057.23611)
(-2975.060802 0 11194.67175)
(-3272.110654 6.45781029e-11 11330.92408)
(-3560.534083 0 11462.46828)
(-3838.801817 5.73352857e-11 11586.11657)
(-4105.468158 0 11698.94432)
(-4359.486232 0 11798.46587)
(-4600.141754 -5.023417335e-11 11882.78418)
(-4827.721029 0 11949.91297)
(-5044.837755 0 11999.95778)
(-5253.742528 2.285703403e-11 12032.79609)
(-5458.03868 0 12049.30414)
(-5663.646636 -2.179232921e-11 12051.81254)
(-5874.598785 2.135666982e-11 12041.54342)
(-6097.994947 0 12021.57764)
(-6343.264653 0 11996.70073)
(-6617.920158 0 11970.90699)
(-6930.998572 0 11947.73708)
(-7294.00881 0 11933.41476)
(-7719.071937 0 11934.36258)
(-8219.33942 0 11957.14032)
(-8810.271179 0 12009.9322)
(-9507.906222 -3.849245236e-11 12100.80156)
(-10329.29909 0 12238.86871)
(-11290.76919 -1.90691366e-11 12432.58135)
(-12404.07201 -1.900796041e-11 12688.07367)
(-13669.88711 -9.481669401e-12 13005.87963)
(-15063.99197 9.467095957e-12 13373.57271)
(-16520.17617 0 13756.76409)
(-17912.20296 0 14089.91313)
(-19053.34464 9.465294168e-12 14276.44045)
(-19735.43632 0 14210.96405)
(-19802.35452 9.495360374e-12 13818.94534)
(-19219.399 -4.759439184e-12 13093.22808)
(-18086.78988 -9.547729258e-12 12099.25581)
(-16588.8098 0 10944.51339)
(-14921.85017 9.620609971e-12 9738.547283)
(-13243.87095 0 8566.538294)
(-11657.86034 0 7481.707305)
(-10218.80215 2.44133798e-12 6510.13715)
(-8953.043417 0 5662.035881)
(-7866.907438 5.754621213e-13 4937.369686)
(-861.5747443 0 10081.10761)
(225.3927481 3.637415739e-10 10041.70898)
(-377.3899322 0 10177.47207)
(-1433.719272 0 10243.6675)
(-1476.536978 1.317200095e-10 10315.78548)
(-1806.337508 -1.108100474e-10 10417.08064)
(-2141.672687 0 10528.75386)
(-2455.723851 0 10649.18222)
(-2764.530354 0 10774.10519)
(-3066.883121 -7.169492588e-11 10900.09211)
(-3359.227195 0 11024.30858)
(-3639.800976 0 11143.44003)
(-3907.176572 0 11254.53219)
(-4160.027951 0 11354.34534)
(-4396.925376 0 11440.15071)
(-4618.653973 -5.187784285e-11 11510.95821)
(-4826.981896 0 11565.81193)
(-5022.512157 0 11603.98993)
(-5209.177476 -2.360491964e-11 11625.99776)
(-5391.663237 -2.301859154e-11 11633.35651)
(-5573.710253 0 11627.12945)
(-5761.903896 -2.205546319e-11 11609.77653)
(-5963.703563 -2.16607883e-11 11585.20685)
(-6186.819956 0 11556.12812)
(-6438.925695 0 11526.53678)
(-6729.613093 0 11501.00018)
(-7070.895314 0 11485.50715)
(-7474.204913 2.031650812e-11 11485.64299)
(-7952.486985 2.014488197e-11 11507.96644)
(-8520.491255 -1.999875718e-11 11560.04992)
(-9193.89293 3.975193123e-11 11649.43935)
(-9989.339211 -1.977462216e-11 11784.83633)
(-10921.87382 9.846540797e-12 11973.78183)
(-12001.79078 0 12221.66696)
(-13227.47517 0 12527.68946)
(-14572.1578 0 12878.172)
(-15967.4886 9.769308122e-12 13238.17007)
(-17287.91977 0 13543.39617)
(-18354.09419 0 13702.69788)
(-18972.4579 -9.787513065e-12 13619.92402)
(-19004.0416 0 13230.38452)
(-18426.3993 -9.830337505e-12 12532.90402)
(-17339.87748 9.860132388e-12 11590.87377)
(-15917.67831 0 10503.44812)
(-14341.16815 -4.967698875e-12 9370.633976)
(-12755.36912 2.495125297e-12 8269.684163)
(-11255.32518 0 7248.934721)
(-9892.13199 -5.04243784e-12 6332.544693)
(-8691.159258 0 5530.683698)
(-7660.423159 -1.965573924e-12 4844.571172)
(-869.7251156 0 9880.240032)
(180.5012118 0 9840.533613)
(-424.3040235 -2.317615538e-10 9971.536229)
(-1480.917768 -1.701927876e-10 10032.1708)
(-1542.262837 0 10098.43631)
(-1879.359391 0 10192.05452)
(-2220.714546 -9.961338635e-11 10294.89099)
(-2539.451109 8.876510502e-11 10404.09476)
(-2848.291484 8.052845023e-11 10517.67304)
(-3147.533759 -7.407985233e-11 10631.59554)
(-3434.511597 6.890958299e-11 10742.62878)
(-3706.906707 0 10847.59666)
(-3962.949076 0 10943.74945)
(-4201.266622 0 11028.41865)
(-4422.758617 -2.787016448e-11 11100.0357)
(-4627.651391 -2.680177768e-11 11157.33666)
(-4816.317336 0 11198.73437)
(-4992.227238 0 11224.60873)
(-5158.738753 2.439013553e-11 11235.83566)
(-5319.752045 0 11232.98154)
(-5481.296034 0 11218.64023)
(-5649.152975 0 11194.58729)
(-5829.56993 2.238133267e-11 11163.77374)
(-6031.491248 0 11130.15416)
(-6263.389531 0 11097.26887)
(-6534.179606 0 11069.82525)
(-6854.955717 0 11053.10448)
(-7237.125815 0 11052.15243)
(-7693.819152 0 11073.51816)
(-8239.087214 -2.066401431e-11 11124.2351)
(-8888.136273 -1.026856907e-11 11211.70771)
(-9656.940204 0 11343.8935)
(-10559.43732 0 11527.56274)
(-11604.54211 1.014144551e-11 11767.27575)
(-12788.54402 1.01176382e-11 12061.17218)
(-14082.53841 1.010208731e-11 12394.58521)
(-15417.05042 0 12732.56553)
(-16668.70749 0 13012.8219)
(-17666.30183 -1.010016464e-11 13149.72663)
(-18230.2729 5.056547001e-12 13055.4598)
(-18237.0982 0 12673.83509)
(-17672.8535 0 12007.69512)
(-16635.29729 0 11117.23216)
(-15287.33729 0 10094.17867)
(-13797.09726 0 9029.834663)
(-12297.75678 0 7994.541265)
(-10877.4165 0 7032.751268)
(-9584.350147 0 6167.079979)
(-8443.169258 0 5407.684674)
(-7463.474168 0 4757.043194)
(-876.3883917 0 9711.779402)
(138.5675676 0 9670.614941)
(-465.8256789 0 9795.497046)
(-1522.218826 1.759497724e-10 9850.050243)
(-1600.585139 0 9910.140557)
(-1943.541314 0 9993.439153)
(-2289.259327 -1.029829344e-10 10086.80454)
(-2610.369175 0 10183.66819)
(-2919.575769 -8.325242626e-11 10283.51353)
(-3215.631581 0 10383.43223)
(-3495.988586 0 10479.67439)
(-3759.207886 0 10569.41127)
(-4004.134174 0 10650.12301)
(-4230.023529 0 10719.87695)
(-4436.434734 0 10776.71037)
(-4624.003198 0 10819.05779)
(-4795.384461 -2.675682781e-11 10847.20901)
(-4952.928497 2.593248222e-11 10860.64028)
(-5100.241921 0 10860.44255)
(-5242.939695 0 10848.12229)
(-5385.006359 0 10825.07999)
(-5532.947644 0 10793.58625)
(-5695.288185 -2.313840923e-11 10757.37309)
(-5878.820173 -2.27686836e-11 10719.81053)
(-6091.511805 0 10683.53989)
(-6343.345312 0 10653.57858)
(-6644.62245 -2.191567799e-11 10634.83166)
(-7006.462929 0 10632.32537)
(-7442.146979 0 10652.47381)
(-7965.192784 1.068150031e-11 10701.57023)
(-8590.100297 0 10786.77882)
(-9331.861416 1.056178789e-11 10915.29118)
(-10203.48634 0 11093.30188)
(-11212.73625 1.048449265e-11 11324.6213)
(-12353.98484 -1.045988e-11 11606.43451)
(-13596.99923 1.044380306e-11 11923.4925)
(-14872.03913 0 12241.15211)
(-16058.54247 0 12499.45562)
(-16993.76483 -1.044181538e-11 12618.22706)
(-17511.30698 0 12517.34741)
(-17501.22867 1.047498341e-11 12147.88345)
(-16956.21814 -1.050092797e-11 11514.8727)
(-15970.15293 0 10675.27245)
(-14694.75812 0 9713.516326)
(-13286.1132 0 8713.11379)
(-11867.96456 0 7738.696691)
(-10521.92566 5.357304561e-12 6831.375981)
(-9293.713967 0 6012.351801)
(-8207.868565 -2.708966552e-12 5292.100902)
(-7275.330903 6.071285744e-13 4674.184193)
(-881.0320655 0 9567.036892)
(100.6599021 0 9523.614577)
(-502.1795299 0 9642.241136)
(-1556.911941 1.820039908e-10 9691.522939)
(-1649.558267 1.455469804e-10 9743.01153)
(-1997.196299 -1.224420485e-10 9816.13538)
(-2346.590102 -2.130529049e-10 9897.333531)
(-2667.95436 0 9982.209958)
(-2975.689029 0 10067.9679)
(-3267.995858 7.922091745e-11 10152.48067)
(-3542.166523 0 10233.03706)
(-3796.835201 0 10307.14997)
(-4030.957833 0 10372.15439)
(-4243.445988 -3.113965641e-11 10425.64478)
(-4435.157906 2.980432495e-11 10466.82128)
(-4608.02348 5.732358677e-11 10495.04894)
(-4762.756081 -2.767749791e-11 10509.34668)
(-4903.293126 2.682478748e-11 10510.45025)
(-5034.057378 0 10499.26982)
(-5158.751376 2.543490936e-11 10476.98891)
(-5283.600779 0 10445.47176)
(-5415.155171 4.874135827e-11 10407.57188)
(-5560.375027 2.393457394e-11 10365.82931)
(-5726.175787 0 10323.23328)
(-5921.193389 0 10283.4312)
(-6155.593757 2.292451703e-11 10251.05303)
(-6438.920108 0 10230.39432)
(-6782.131051 0 10226.54605)
(-7197.694656 1.112976969e-11 10245.39917)
(-7698.775709 1.104903783e-11 10292.6353)
(-8299.668029 0 10375.18366)
(-9014.327484 -2.185041249e-11 10499.65162)
(-9854.826244 1.088015622e-11 10671.77776)
(-10827.6863 0 10894.5895)
(-11925.65984 0 11164.41227)
(-13117.38424 0 11465.75756)
(-14333.88525 0 11764.65632)
(-15458.68449 0 12003.82442)
(-16337.79705 0 12108.33993)
(-16817.09884 5.40746612e-12 12005.15294)
(-16797.09971 0 11650.87006)
(-16275.1156 0 11052.12484)
(-15341.34759 -5.447587228e-12 10262.1393)
(-14136.62868 0 9358.509489)
(-12805.49006 -5.489170306e-12 8418.004811)
(-11463.39764 0 7500.104403)
(-10186.62374 0 6643.083972)
(-9018.682613 2.785877423e-12 5867.151595)
(-7984.205451 0 5183.104204)
(-7095.336696 2.027006598e-12 4595.455594)
(-882.9434913 0 9438.251321)
(66.6679112 -4.1599622e-10 9392.970684)
(-533.7212243 0 9506.274748)
(-1583.574293 0 9549.321813)
(-1688.693763 0 9590.946346)
(-2038.599621 0 9654.356752)
(-2390.671514 -1.102560578e-10 9722.395379)
(-2712.353534 9.824874847e-11 9793.60449)
(-3016.767278 0 9865.202951)
(-3304.301194 8.199452674e-11 9934.64729)
(-3571.852137 0 9999.2857)
(-3817.610963 3.579811733e-11 10056.87372)
(-4040.310831 3.385876235e-11 10105.22237)
(-4240.881013 3.222988935e-11 10143.05079)
(-4419.991275 0 10169.5549)
(-4577.789269 -2.966527354e-11 10182.96969)
(-4717.832476 0 10183.98499)
(-4843.313261 2.776395219e-11 10172.979)
(-4958.068491 2.699597187e-11 10150.73135)
(-5067.884136 0 10119.18357)
(-5177.34479 0 10079.59658)
(-5292.930418 0 10034.61414)
(-5422.664543 -2.477254916e-11 9987.351581)
(-5573.40209 0 9940.491283)
(-5753.108499 0 9897.602402)
(-5971.379213 0 9862.76669)
(-6237.810804 0 9840.090376)
(-6563.276651 0 9834.562882)
(-6959.449776 0 9851.520963)
(-7439.039293 0 9896.601487)
(-8016.118491 1.136566061e-11 9976.34069)
(-8703.805884 2.261541885e-11 10096.69717)
(-9513.103603 1.126108222e-11 10262.85954)
(-10449.25964 0 10477.16491)
(-11504.06981 0 10735.42698)
(-12645.74502 -1.118139192e-11 11022.06828)
(-13805.97329 0 11303.98156)
(-14872.46971 -1.117219264e-11 11526.51886)
(-15700.3669 0 11620.13614)
(-16147.2982 0 11517.94806)
(-16123.58921 0 11181.2081)
(-15628.2964 -1.124255117e-11 10617.18032)
(-14746.44095 5.638313139e-12 9875.178443)
(-13610.0228 0 9026.670261)
(-12352.53396 0 8142.196725)
(-11081.74311 0 7276.797964)
(-9869.67081 2.867830894e-12 6466.37594)
(-8757.911759 0 5730.401732)
(-7771.267814 0 5079.937558)
(-6922.937059 6.268772866e-13 4520.348233)
(-883.3222036 1.260682781e-09 9320.387838)
(35.4156654 0 9273.622823)
(-559.6899019 0 9381.371601)
(-1601.049555 -1.950888957e-10 9416.455057)
(-1717.475707 0 9449.402869)
(-2068.372684 0 9501.603879)
(-2419.781629 -1.141850124e-10 9557.98402)
(-2740.851017 -1.017498246e-10 9614.611689)
(-3042.368422 0 9671.343838)
(-3324.105184 0 9725.304642)
(-3583.916399 7.8989801e-11 9774.04106)
(-3820.639766 0 9815.553167)
(-4033.681897 3.506531314e-11 9848.28227)
(-4222.964394 -3.337839572e-11 9871.021364)
(-4388.667984 0 9881.965514)
(-4533.674876 3.072239015e-11 9881.703404)
(-4660.108135 0 9869.607752)
(-4771.562576 0 9846.808478)
(-4873.242926 0 9814.27155)
(-4968.642424 0 9773.35838)
(-5064.212515 0 9725.876356)
(-5167.075616 0 9674.78894)
(-5283.356529 -2.565531441e-11 9622.377449)
(-5419.902926 0 9571.170736)
(-5585.308782 0 9524.880968)
(-5788.848747 0 9487.502114)
(-6039.742433 0 9462.817782)
(-6348.609997 0 9455.609978)
(-6726.64059 0 9470.781277)
(-7186.097942 1.18433918e-11 9513.918857)
(-7740.110719 0 9590.825596)
(-8401.0819 0 9706.966592)
(-9179.380964 -1.166236882e-11 9867.131766)
(-10079.05118 0 10073.08036)
(-11090.7068 0 10320.08563)
(-12182.66831 1.15798388e-11 10592.871)
(-13288.5228 -1.157089349e-11 10859.32917)
(-14301.01778 5.785155831e-12 11067.73204)
(-15083.52677 -1.157763498e-11 11153.47785)
(-15503.30412 0 11054.85547)
(-15479.51073 -5.80720548e-12 10737.24203)
(-15013.43395 0 10207.83561)
(-14183.44816 5.839233397e-12 9512.120638)
(-13112.32089 2.930005393e-12 8715.661148)
(-11924.66862 0 7883.570217)
(-10720.94219 0 7067.103539)
(-9569.443068 0 6299.974221)
(-8510.238186 0 5601.15563)
(-7568.191456 -1.501818622e-12 4981.878952)
(-6757.564365 6.36256814e-13 4448.337064)
(-881.3565652 0 9208.568256)
(8.178911864 -4.46450837e-10 9159.678873)
(-578.5282625 2.753026593e-10 9260.844476)
(-1609.902882 0 9288.358488)
(-1735.348161 0 9313.385869)
(-2085.782216 1.360065552e-10 9353.753005)
(-2435.696691 0 9398.203279)
(-2753.395665 0 9441.929149)
(-3050.669787 0 9483.805119)
(-3326.635564 0 9522.383705)
(-3579.143954 -4.092782237e-11 9555.760796)
(-3807.074116 -3.841885717e-11 9582.015367)
(-4009.762635 0 9598.994542)
(-4187.506747 -3.458940343e-11 9606.191802)
(-4342.354238 -3.310613975e-11 9603.192823)
(-4474.956773 0 9589.281802)
(-4589.150773 -3.074369615e-11 9564.919201)
(-4688.755908 2.979651995e-11 9531.014713)
(-4777.55349 -2.897231676e-11 9488.492916)
(-4861.52024 0 9439.036896)
(-4945.461723 0 9384.42447)
(-5035.99415 0 9327.061381)
(-5140.019328 2.658611965e-11 9269.487712)
(-5264.625358 0 9214.405377)
(-5417.934579 0 9165.327085)
(-5608.398199 1.273208281e-11 9125.595179)
(-5845.098219 0 9099.036713)
(-6138.466692 0 9090.211083)
(-6499.282121 0 9103.598123)
(-6939.165758 -1.227308416e-11 9144.472375)
(-7470.506962 1.219772791e-11 9218.24421)
(-8105.254354 0 9330.145776)
(-8852.956172 -1.208549339e-11 9484.433401)
(-9716.599536 -1.204672158e-11 9682.287036)
(-10686.48214 -1.201844165e-11 9918.682102)
(-11730.77274 0 10178.74697)
(-12784.2395 0 10431.11964)
(-13745.51743 0 10627.55325)
(-14486.97557 0 10707.74639)
(-14884.99068 0 10614.85274)
(-14864.77231 6.017897772e-12 10317.40531)
(-14428.64413 6.032802876e-12 9822.112218)
(-13649.74519 0 9170.654665)
(-12641.32365 0 8423.416596)
(-11519.74539 9.145916186e-12 7640.382925)
(-10379.20492 0 6869.555344)
(-9284.464424 0 6142.722746)
(-8274.499968 0 5478.478387)
(-7374.177332 1.556306389e-12 4888.242888)
(-6598.695252 2.211307311e-12 4378.933849)
(-876.7761587 0 9096.464095)
(-14.4332164 0 9045.097913)
(-591.1073349 0 9139.885398)
(-1610.484745 0 9161.462415)