/*--------------------------------*- C++ -*----------------------------------*\
  =========                 |
  \\      /  F ield         | OpenFOAM: The Open Source CFD Toolbox
   \\    /   O peration     | Website:  https://openfoam.org
    \\  /    A nd           | Version:  7
     \\/     M anipulation  |
\*---------------------------------------------------------------------------*/
FoamFile
{
    version     2.0;
    format      ascii;
    class       volTensorField;
    location    "0.0006";
    object      grad(U);
}
// * * * * * * * * * * * * * * * * * * * * * * * * * * * * * * * * * * * * * //

dimensions      [0 0 -1 0 0 0 0];

internalField   nonuniform List<tensor> 
1167
(
(-3.574889395 -9.298724613e-15 0.1198817205 3.606778032e-14 -5.939744296 0 0.1888836178 2.128702273e-16 9.756887765)
(-4.735934062 -7.061566906e-15 0.2802606307 2.465128811e-14 -5.145062233 0 0.4588734264 2.108879963e-14 9.733780137)
(-4.665832275 -2.166361499e-14 0.4580096119 0 -4.898095202 0 0.7246816114 2.640882479e-14 9.683817118)
(-4.728712047 -4.09160141e-14 0.6328741183 2.976767207e-14 -4.855045478 0 0.9960109325 3.477075441e-14 9.610759202)
(-4.662214885 -3.868303373e-14 0.8003643847 2.380494384e-14 -4.820414566 0 1.254636096 -1.087410499e-14 9.516634515)
(-4.579395851 -2.828870266e-14 0.9629940564 2.002601557e-14 -4.784886921 0 1.500974553 1.658228814e-14 9.403232372)
(-4.484753531 -3.44545432e-14 1.120938288 8.711469688e-15 -4.747668583 -6.96917575e-14 1.734415434 2.799900127e-14 9.272352559)
(-4.37654913 2.653286115e-15 1.273768299 7.76275709e-15 -4.707656424 -6.210205672e-14 1.953872095 1.208146035e-14 9.125787079)
(-4.25700556 7.455081435e-15 1.421509109 2.81697542e-14 -4.664572427 5.633950841e-14 2.158723745 -2.884164149e-14 8.965220793)
(-4.127852854 -9.73038924e-15 1.5643391 1.295698125e-14 -4.618491058 0 2.348563226 -1.071357166e-14 8.792250208)
(-3.990358876 1.275888337e-14 1.702547935 1.205267211e-14 -4.569598711 -4.821068844e-14 2.523114468 6.691129364e-16 8.60836688)
(-3.845626567 7.955027541e-15 1.836492451 3.394145084e-14 -4.518123882 0 2.682227519 1.885161042e-15 8.414882524)
(-3.694625033 -7.106062066e-16 1.966656436 2.140178693e-14 -4.464308526 0 2.82583498 -5.66630807e-15 8.212988918)
(-3.538160149 2.894681643e-15 2.09363355 2.037219246e-14 -4.408391102 0 2.953936514 -1.555478966e-14 8.003705167)
(-3.376876591 8.882903336e-15 2.218100404 2.924788751e-14 -4.350595026 0 3.06657046 -1.038258411e-14 7.787870084)
(-3.211275824 1.09869869e-14 2.340812251 0 -4.291124125 0 3.16379838 -1.835919513e-15 7.56615322)
(-3.041718196 7.356041196e-15 2.462603177 1.810717833e-14 -4.230160105 3.621435666e-14 3.245688755 -5.622709976e-15 7.339053976)
(-2.868420964 -1.575839636e-14 2.584374487 0 -4.167861372 0 3.312302976 5.300320801e-15 7.106901383)
(-2.691464759 4.857541592e-15 2.707080529 8.531942693e-15 -4.104362175 -3.412777077e-14 3.363679574 3.488755974e-15 6.869862776)
(-2.510816391 2.391192042e-14 2.831725199 0 -4.039773124 0 3.399840454 -1.35530258e-14 6.627960506)
(-2.326322034 5.910234126e-15 2.959370549 0 -3.974182819 0 3.420765226 -3.338987255e-15 6.381066126)
(-2.137717614 8.571344491e-15 3.091119024 0 -3.907657714 0 3.426403986 -2.798372121e-17 6.128929635)
(-1.94463382 1.092576694e-14 3.228135499 0 -3.840244314 0 3.416664359 2.898240918e-15 5.871170499)
(-1.746601234 -4.213200725e-16 3.371655273 0 -3.771969346 1.540827694e-14 3.391412864 1.787859893e-14 5.607292594)
(-1.543044625 -7.483322373e-15 3.523013857 0 -3.702841844 -1.518914194e-14 3.350474472 8.123695659e-15 5.336665255)
(-1.333246523 -9.402843757e-15 3.683696556 0 -3.632852826 0 3.293586918 2.099712319e-14 5.058510024)
(-1.116347412 -5.887510006e-15 3.855363548 -7.415510757e-15 -3.561974963 -1.483102151e-14 3.220421412 1.611991076e-14 4.771903457)
(-0.8913116675 5.199152078e-15 4.039941551 0 -3.490162727 0 3.130550233 -9.531130068e-15 4.475711999)
(-0.6568505823 9.343412839e-15 4.239733286 0 -3.417350625 0 3.02339427 -1.093626347e-15 4.16853552)
(-0.4113375945 4.094269716e-15 4.457539361 7.228503775e-15 -3.343450014 1.445700755e-14 2.898163432 -8.987310157e-15 3.848628283)
(-0.1527058609 -8.909993855e-16 4.6968441 0 -3.268344592 0 2.753792338 -1.718325449e-14 3.513787154)
(0.1217256691 4.313622287e-15 4.962102106 0 -3.191884464 0 2.58882553 -1.00133642e-14 3.161162143)
(0.4155162469 3.906568537e-15 5.259135994 0 -3.113876495 0 2.401238471 -6.463442677e-15 2.7869947)
(0.7334784878 1.205626716e-15 5.59572681 0 -3.03407069 0 2.188198169 -1.402397096e-14 2.386226355)
(1.082254887 5.019742995e-16 5.982505489 -1.446779827e-15 -2.952140359 -2.748328107e-15 1.945677006 -1.446804601e-14 1.951902623)
(-3.747835694 -1.721991087e-14 0.1319748672 3.709646997e-14 -6.224161508 0 0.1891396456 1.043307765e-14 10.22743562)
(-4.964723348 -6.107497461e-15 0.3092157329 3.380582378e-14 -5.39298724 0 0.4582079182 2.526039294e-14 10.20288479)
(-4.889924805 -2.639373507e-14 0.505095571 0 -5.134247871 0 0.7239082944 1.180794136e-13 10.15015755)
(-4.955365742 -1.360408955e-15 0.6973803892 3.061667626e-14 -5.08865158 0 0.9952324751 3.001433531e-14 10.07304204)
(-4.885533933 -3.433482307e-14 0.8816148905 3.672582746e-14 -5.052230317 9.793553989e-14 1.253918814 3.678186037e-14 9.97364338)
(-4.797930556 -8.090024333e-14 1.060191738 1.029858891e-14 -5.014774032 -8.238871126e-14 1.500478341 4.480326931e-14 9.853874669)
(-4.697918107 -3.422973122e-14 1.233266813 2.687978893e-14 -4.975495902 0 1.734367362 2.728543675e-14 9.715654095)
(-4.58361168 1.144604016e-14 1.400380542 2.395247642e-14 -4.933256777 0 1.954465332 -1.280857923e-15 9.560806094)
(-4.457295618 1.829215187e-14 1.56155341 1.448659204e-14 -4.887764321 0 2.160149464 5.630156706e-15 9.391150869)
(-4.320776485 4.906348495e-15 1.716955672 2.665305496e-14 -4.839095837 0 2.351002981 -5.302733288e-15 9.208308318)
(-4.175391403 7.069837028e-15 1.866903583 2.479285314e-14 -4.787445671 0 2.526708087 -1.023220657e-14 9.013838227)
(-4.022296552 1.032966513e-14 2.011833237 3.490949536e-14 -4.73305478 0 2.687074266 -1.530290698e-14 8.809135297)
(-3.862479831 5.051625091e-15 2.152278496 3.301828145e-14 -4.676176299 4.402437526e-14 2.831994786 -1.458984173e-14 8.595408922)
(-3.696766768 3.7854953e-16 2.288901512 0 -4.617057844 0 2.961403117 -1.406455952e-14 8.373697522)
(-3.525824281 -1.400304543e-15 2.422464155 2.005471122e-14 -4.555931743 0 3.07527452 -3.131963317e-14 8.144868988)
(-3.350163638 4.473053997e-15 2.553813979 1.928592544e-14 -4.493009824 0 3.173603227 -2.259863503e-15 7.909605499)
(-3.170147103 2.937220269e-15 2.683877915 0 -4.428480469 0 3.256389464 1.095971775e-14 7.668414707)
(-2.985993081 -8.813399586e-16 2.813653401 -1.804984235e-14 -4.36250764 -3.609968471e-14 3.323623277 1.826106618e-14 7.421625009)
(-2.797785785 7.352726818e-15 2.944193411 0 -4.295230404 0 3.375277633 -2.286180823e-14 7.169405166)
(-2.605477404 1.213399971e-14 3.076593778 0 -4.226763765 0 3.411307887 -6.606707792e-15 6.911772589)
(-2.408909718 9.04466613e-15 3.211987764 0 -4.157198814 0 3.43163776 -5.586953926e-15 6.648597009)
(-2.207818844 4.475964228e-15 3.351566609 0 -4.086605293 0 3.436168035 -2.083782436e-15 6.379630711)
(-2.001831771 4.104907518e-15 3.496564854 0 -4.015031869 0 3.424761233 -1.946801532e-15 6.104492513)
(-1.790480231 -1.957752613e-15 3.648286161 0 -3.942507881 0 3.397259945 8.021156543e-15 5.822691071)
(-1.573171857 -9.763969807e-15 3.808147301 0 -3.869044416 0 3.353442423 9.125687599e-15 5.533586613)
(-1.349184296 -6.372028763e-15 3.97769212 -1.542543133e-14 -3.794633826 -3.085086267e-14 3.29303375 1.107374992e-14 5.236413725)
(-1.117648522 1.23268548e-14 4.158665099 -7.627008648e-15 -3.719250519 0 3.215691047 -1.528788646e-15 4.930233944)
(-0.8774948377 1.106366311e-15 4.353097103 7.552794016e-15 -3.642849862 1.510558803e-14 3.120959253 -2.935876969e-16 4.613886258)
(-0.6273826145 -1.755232227e-16 4.563413007 7.488990836e-15 -3.565366371 1.497798167e-14 3.008224296 1.560784463e-15 4.28593014)
(-0.3656120645 3.055183904e-14 4.792573294 -7.434668055e-15 -3.486709995 0 2.876656885 -1.289889988e-14 3.944562488)
(-0.09000861235 8.363157723e-15 5.044282698 0 -3.406761523 1.477803884e-14 2.725140577 3.929584376e-15 3.587477367)
(0.2022772368 -1.370480113e-14 5.323302781 7.351344347e-15 -3.325365686 1.470268869e-14 2.552130202 6.26409631e-16 3.211661851)
(0.515046337 9.7446929e-15 5.63588976 -7.321031203e-15 -3.242320456 0 2.355471872 -8.175834747e-15 2.813114784)
(0.8534677588 1.267093138e-14 5.990451523 7.297544283e-15 -3.157362391 1.459508857e-14 2.132133145 -1.396907512e-14 2.386414351)
(1.224705318 4.017024849e-15 6.398520719 0 -3.070144512 0 1.877795107 -4.012850653e-15 1.924080208)
(1.638845721 2.129655212e-17 6.876222176 7.269223125e-15 -2.980204813 1.453844625e-14 1.586257717 -1.430933109e-14 1.415606787)
(2.110284965 -8.214118762e-15 7.446452017 0 -2.886920111 0 1.248549619 -1.230236654e-14 0.846041899)
(2.659656814 8.454868158e-15 8.141975402 -7.263242444e-15 -2.789439607 -1.452648489e-14 0.8517008728 -2.136639544e-14 0.1939676152)
(3.316316581 2.102989142e-14 9.009500395 0 -2.68659315 0 0.3771764343 -2.476458777e-15 -0.5711133318)
(4.121038288 6.104556712e-15 10.11421343 0 -2.576771435 0 -0.2007538041 -6.050361008e-15 -1.491608083)
(5.128051407 1.672498479e-14 11.54348658 7.290925681e-15 -2.457787215 7.290925681e-15 -0.9161167078 -1.998921165e-14 -2.623965481)
(6.405280353 -1.755869156e-15 13.4082552 7.308983804e-15 -2.326742375 1.461796761e-14 -1.811012814 -8.346138631e-15 -4.038950636)
(8.032245318 -2.703356625e-14 15.84146052 0 -2.179938038 0 -2.933648066 1.318615502e-15 -5.819543737)
(10.09633232 1.568439148e-14 18.99472816 -1.103583386e-14 -2.01285435 -1.471444515e-14 -4.335142319 -9.400061595e-15 -8.0572231)
(12.68864236 2.457075564e-14 23.03567657 0 -1.820200319 0 -6.066115738 -1.363814508e-14 -10.84838138)
(15.89998612 2.862450977e-14 28.147472 7.420632406e-15 -1.596017766 0 -8.173599462 -1.832839022e-14 -14.2920757)
(19.82202606 3.282049105e-14 34.52779884 0 -1.333825764 0 -10.70111324 -2.33356419e-14 -18.48767092)
(24.56855513 1.996112502e-14 42.37777461 0 -1.026663699 0 -13.70058344 -2.002741164e-14 -23.52692225)
(30.32163712 3.076135662e-14 51.87655906 0 -0.6666674155 0 -17.25923972 -2.54914736e-14 -29.47796416)
(36.67791399 5.261712784e-14 63.57387569 0 -0.2440262647 0 -21.12123407 -3.534495704e-14 -36.61213869)
(-3.923308677 -2.830430139e-14 0.1448529749 3.816980416e-14 -6.512468744 0 0.189831551 1.170249647e-14 10.70479482)
(-5.196922266 -1.11723051e-13 0.3399418251 5.217592166e-14 -5.644445532 0 0.4586416953 2.994966719e-14 10.67886674)
(-5.117437543 -6.04312387e-15 0.5550341238 8.579769626e-14 -5.373840585 -1.715953925e-13 0.7248767151 5.53923867e-14 10.62353791)
(-5.185666036 2.190410063e-14 0.7658453368 1.575126337e-14 -5.325711654 0 0.9968693615 1.239501578e-14 10.54257443)
(-5.112749351 -4.625147317e-14 0.9678818935 2.519229177e-14 -5.287566011 -1.007691671e-13 1.256295924 8.737970348e-15 10.43817696)
(-5.020615871 -1.815075532e-14 1.163424356 3.178969232e-14 -5.248264751 0 1.503796976 2.294083366e-14 10.31240582)
(-4.915506425 -7.022416623e-16 1.352647217 1.843834519e-14 -5.207024387 -7.375338074e-14 1.738842798 4.473318359e-14 10.16719471)
(-4.795372988 1.577248307e-14 1.535031022 3.286067683e-14 -5.162664579 6.572135366e-14 1.960306588 -3.086979192e-14 10.00446864)
(-4.66256598 1.301341079e-14 1.710586933 1.490574122e-14 -5.114875008 0 2.167543189 -3.45804337e-15 9.826088328)
(-4.518959544 6.066002582e-15 1.879532969 1.37121118e-14 -5.06373534 -5.484844719e-14 2.36010911 9.041216453e-16 9.633773937)
(-4.365924587 2.203493311e-14 2.042174533 3.826529932e-14 -5.009444705 0 2.537667015 -8.798301301e-15 9.429080973)
(-4.204661348 1.267473791e-14 2.199006788 1.197318415e-14 -4.952251476 4.789273659e-14 2.699961619 -8.533925068e-15 9.213451354)
(-4.036182501 -2.101232943e-16 2.350660322 0 -4.892417924 0 2.846816264 -3.250157161e-15 8.988131007)
(-3.861323156 2.25069184e-14 2.497866096 0 -4.830199077 0 2.978107898 -9.856262084e-15 8.754181158)
(-3.680758921 -5.934567869e-15 2.641467189 1.031748302e-14 -4.765834092 4.126993208e-14 3.09374345 -1.257623289e-14 8.512476567)
(-3.4950072 -3.527918606e-14 2.782401937 0 -4.699540606 0 3.193645372 -1.248291126e-14 8.263704097)
(-3.304432076 -1.352038907e-14 2.921695743 9.581230729e-15 -4.631512353 -3.832492291e-14 3.277737105 2.406534552e-15 8.00836711)
(-3.109244842 2.156466211e-14 3.060442658 9.286044574e-15 -4.56191766 -3.714417829e-14 3.345929788 -4.640154044e-15 7.746794589)
(-2.909526527 2.775768312e-14 3.199779661 1.805836564e-14 -4.490899015 3.611673127e-14 3.39813289 -1.570417225e-14 7.479159693)
(-2.705236741 4.264875787e-15 3.340899171 8.804904851e-15 -4.418574688 3.521961941e-14 3.434234247 -8.21852689e-15 7.205477139)
(-2.496214381 3.060086129e-15 3.485019932 0 -4.345039276 0 3.454111783 -2.39613526e-16 6.925631181)
(-2.282192092 6.179074187e-15 3.633394021 0 -4.270365074 0 3.457611777 -7.463559585e-15 6.639366379)
(-2.062810442 1.262248366e-15 3.787330878 8.285527737e-15 -4.194603572 1.657105547e-14 3.444573272 -5.114449859e-15 6.346327097)
(-1.837595747 -8.1531343e-15 3.948209191 0 -4.117787368 0 3.414794079 2.151242207e-15 6.046010812)
(-1.605955475 -9.708977699e-15 4.117504639 0 -4.039929688 0 3.368031714 -1.301190046e-15 5.737804157)
(-1.367172959 -6.114651581e-15 4.296835347 0 -3.961025817 0 3.304004022 -1.912508994e-16 5.420942008)
(-1.12036171 5.333973688e-15 4.48803812 0 -3.8810525 0 3.22234001 -2.245000566e-15 5.094471135)
(-0.8644182815 7.353918396e-15 4.693248498 -7.771323465e-15 -3.799966807 -1.554264693e-14 3.122559466 1.004048722e-14 4.757216091)
(-0.5979511967 1.065550268e-14 4.915016191 0 -3.717703731 -1.541134851e-14 3.004017886 -3.119128644e-15 4.407702325)
(-0.3191939501 -4.512174752e-15 5.156472558 7.649779712e-15 -3.634172524 1.529955942e-14 2.86585266 8.083279687e-15 4.044063461)
(-0.02585715308 5.999092513e-15 5.421571042 -7.602810313e-15 -3.549251749 -1.520562063e-14 2.706886742 1.983926078e-14 3.663880169)
(0.285089082 2.080112424e-14 5.715414593 0 -3.462780988 0 2.525478624 -4.036404312e-15 3.263967084)
(0.6177090986 8.96733415e-15 6.044734486 7.532854938e-15 -3.374549361 1.506570988e-14 2.319335297 -5.247296544e-15 2.840062908)
(0.9775528977 -1.855174006e-15 6.418608134 0 -3.284279266 0 2.085211605 5.37439273e-15 2.386361257)
(1.372325166 1.011000708e-14 6.84953081 7.491061685e-15 -3.191602566 1.498212337e-14 1.818487968 -3.507418501e-15 1.894823423)
(1.812883799 2.700379738e-14 7.354998846 0 -3.096026546 0 1.512532076 -9.981155112e-15 1.354146006)
(2.314683097 2.093969314e-14 7.95980988 0 -2.996884287 1.494753975e-14 1.157785356 -1.3933187e-14 0.7482785657)
(2.899728801 -2.193849891e-14 8.699249166 7.473394172e-15 -2.893264858 1.494678834e-14 0.740535957 -2.987683044e-17 0.0543693874)
(3.598953367 -1.072789518e-14 9.623031755 7.478124345e-15 -2.783918657 1.495624869e-14 0.241433972 2.196824165e-15 -0.7597421826)
(4.454535386 3.490115102e-14 10.79928265 -7.487697181e-15 -2.66713939 -1.497539436e-14 -0.3658988712 -1.472122916e-14 -1.737978623)
(5.521249416 9.531195047e-15 12.31715932 0 -2.54063553 7.501878346e-15 -1.115542511 1.218007654e-15 -2.937430778)
(6.865836448 1.263202094e-15 14.28676403 0 -2.401419543 7.520458978e-15 -2.048537518 1.42361269e-15 -4.427735373)
(8.564195886 -7.727414178e-15 16.836231 -3.771626367e-15 -2.245749891 -7.543252735e-15 -3.210597031 -8.380057089e-15 -6.288259634)
(10.69745096 -3.873758776e-15 20.10766 0 -2.069144861 0 -4.648994065 -1.27808168e-14 -8.604205212)
(13.34811852 1.764001849e-14 24.25430984 0 -1.866458353 0 -6.409575413 -1.973310601e-14 -11.4633182)
(16.5966937 2.328628942e-14 29.44030249 0 -1.631997427 0 -8.53421742 -1.787237734e-14 -14.95414496)
(20.52352153 2.474026503e-14 35.83960365 0 -1.359668373 0 -11.06146829 -9.127213899e-15 -19.16412631)
(25.23065531 2.784700366e-14 43.62495799 0 -1.04300987 0 -14.03886852 -1.218916012e-14 -24.17213121)
(30.88535137 3.345127498e-14 52.94478248 0 -0.6747555273 0 -17.54833904 -1.963687785e-14 -30.03407517)
(37.07531533 4.829719678e-14 64.3124518 0 -0.245848608 0 -21.33316842 -3.72672037e-14 -37.00792019)
(-4.101876904 -3.670685545e-14 0.1584877375 6.548400693e-14 -6.805606505 0 0.191107402 -1.737539114e-14 11.19050351)
(-5.433288138 -4.613758651e-14 0.3723594448 5.370771723e-14 -5.900253997 0 0.4605516056 -1.864060066e-14 11.16326164)
(-5.349113753 -7.417211888e-15 0.607700119 6.62374271e-14 -5.617654179 0 0.7281643488 -1.078887969e-13 11.10548956)
(-5.420386697 4.02492273e-14 0.8380948798 3.24273869e-14 -5.566998301 0 1.001701421 -2.262636626e-14 11.02090604)
(-5.344670099 -4.439317443e-14 1.058937527 3.889784137e-14 -5.527197755 2.07455154e-13 1.26276484 8.9352284e-15 10.91183912)
(-5.248264518 -1.21209253e-13 1.272451693 2.18153221e-14 -5.486143421 0 1.512084618 -2.395854618e-14 10.78041733)
(-5.138332602 1.625504375e-14 1.478816842 3.795932679e-14 -5.443040739 -1.518373072e-13 1.749133509 -1.045182799e-14 10.62858616)
(-5.012667132 5.111799007e-14 1.677465883 1.691270495e-14 -5.396671194 -1.353016396e-13 1.972791034 -2.441545321e-14 10.45839067)
(-4.873640426 -9.8443162e-15 1.868383601 3.068669646e-14 -5.346701279 0 2.182388928 2.929995932e-16 10.27167914)
(-4.723206197 8.642482223e-15 2.051826314 1.411467591e-14 -5.293207193 0 2.377435629 -4.030001463e-15 10.07024347)
(-4.562763329 1.506566593e-14 2.228164961 3.938870276e-14 -5.236393702 0 2.557554406 -7.63728695e-15 9.855682908)
(-4.393511866 8.617658749e-15 2.397916297 0 -5.176512544 0 2.72243989 7.697347643e-15 9.629423254)
(-4.216489533 3.984329146e-15 2.561775988 0 -5.113830195 0 2.871844326 7.805236638e-15 9.392734584)
(-4.0325477 1.193059818e-14 2.720569715 0 -5.048607721 0 3.005571724 7.303414916e-15 9.146692858)
(-3.842362427 1.576463646e-14 2.87523482 0 -4.98108922 0 3.123451983 2.030204007e-14 8.892174574)
(-3.646445258 -1.013346913e-14 3.026804734 1.021326022e-14 -4.911496746 4.085304089e-14 3.225330479 -1.093352585e-14 8.629866425)
(-3.44514915 -2.103490435e-14 3.176394395 0 -4.840027232 0 3.311051344 -6.945678617e-15 8.360266924)
(-3.2386948 7.271681174e-15 3.325182428 0 -4.766851602 0 3.38046147 -2.724767629e-14 8.08370894)
(-3.027166805 1.655540801e-14 3.474402077 0 -4.69211613 0 3.433401762 -4.556215992e-15 7.800364099)
(-2.810522712 1.911811308e-15 3.62531837 0 -4.61594175 0 3.469702915 -3.355693747e-16 7.51025617)
(-2.588607742 8.013270747e-15 3.779233154 -1.772265496e-14 -4.53842624 -3.544530991e-14 3.489186918 -4.652423994e-15 7.213278596)
(-2.361170176 1.117748565e-14 3.937470425 0 -4.459644855 3.473670806e-14 3.49167161 -1.161730035e-14 6.909199636)
(-2.127852708 -1.998932019e-15 4.101403326 0 -4.37965308 0 3.476955106 1.268509907e-14 6.597663372)
(-1.888187387 -1.770292204e-15 4.27247538 0 -4.298486261 0 3.444805195 -6.168835883e-15 6.278197869)
(-1.641602568 -7.901494133e-15 4.45222373 8.273139051e-15 -4.216161512 1.65462781e-14 3.394978698 4.194197297e-15 5.950203579)
(-1.387371801 -1.252451537e-14 4.642354416 0 -4.132677844 0 3.327160644 -1.350975988e-15 5.61291219)
(-1.124592745 -8.141189985e-15 4.844785339 0 -4.048014776 0 3.240960263 -9.297393855e-15 5.265378263)
(-0.852140332 -1.79675735e-16 5.061757628 -7.9994762e-15 -3.962131815 -1.59989524e-14 3.135879767 2.187847918e-15 4.906413553)
(-0.5685777749 8.621293253e-15 5.295965552 0 -3.874965413 0 3.011250218 8.300587352e-17 4.534508892)
(-0.2720603793 1.076573219e-15 5.55073218 -1.574872823e-14 -3.786424955 -3.149745647e-14 2.866169233 7.984948268e-15 4.147722308)
(0.03982910192 1.169316818e-14 5.83027549 7.826015827e-15 -3.696386976 1.565203165e-14 2.699386876 -1.240407069e-14 3.743512366)
(0.370306567 2.049177076e-14 6.140065651 -7.786112526e-15 -3.604686001 0 2.50915949 5.459903341e-15 3.318511394)
(0.723713355 1.00559774e-14 6.487354574 0 -3.511102252 0 2.293042939 -4.885168969e-15 2.868181644)
(1.106002158 9.653865378e-15 6.881950187 0 -3.415343512 0 2.047574115 1.358050864e-15 2.386312036)
(1.525448323 7.161277439e-15 7.337368147 0 -3.317019632 0 1.767820678 6.391876741e-15 1.864278229)
(1.993703588 8.16529309e-15 7.872527624 0 -3.215605753 0 1.44671016 6.151337002e-15 1.289958884)
(2.527279909 1.252396741e-14 8.514168537 0 -3.110389819 0 1.074103587 9.236812589e-15 0.6461928168)
(3.149503842 6.768762702e-15 9.300063688 0 -3.000399771 -1.538560046e-14 0.6355780339 1.320191884e-14 -0.09126790948)
(3.892745894 -2.631039293e-16 10.28274896 0 -2.884307353 0 0.1110523652 -4.703673162e-15 -0.9561095043)
(4.800342075 -9.393543761e-15 11.532876 0 -2.760313227 0 -0.5263542439 1.711080847e-15 -1.993502427)
(5.927271797 1.834003654e-14 13.14072968 -7.722120649e-15 -2.626030207 -1.54442413e-14 -1.310598523 3.492821019e-15 -3.260817784)
(7.338775404 3.157733176e-14 15.2148369 0 -2.478394952 7.741246762e-15 -2.281562067 -6.009887867e-15 -4.826240065)
(9.107062225 2.403723606e-15 17.87804947 3.882354847e-15 -2.313639372 7.764709694e-15 -3.482569759 5.613709041e-15 -6.765463778)
(11.30739271 1.222879674e-14 21.26310916 -3.896169215e-15 -2.127332303 -7.792338431e-15 -4.957447265 -6.303235745e-15 -9.157804606)
(14.01463093 7.193630187e-15 25.50996208 3.911990075e-15 -1.914473681 7.823980151e-15 -6.747938621 -1.317139168e-14 -12.08327634)
(17.30031865 7.752044289e-16 30.76568534 -3.929749184e-15 -1.669620089 -7.859498368e-15 -8.891588532 -7.778178931e-15 -15.62129171)
(21.23515883 1.72747065e-14 37.18351781 0 -1.387030025 0 -11.42280856 -1.513458142e-14 -19.84908738)
(25.91135624 3.095243361e-14 44.91180619 -1.985422952e-15 -1.060686289 -3.970845905e-15 -14.38550634 -2.234187171e-14 -24.83454801)
(31.4835795 5.82476653e-14 54.07290529 0 -0.6838457773 0 -17.8570495 -3.656986358e-14 -30.62317859)
(37.53080861 3.242467456e-14 65.15037246 1.004762123e-15 -0.2481085219 1.004762123e-15 -21.57923496 -1.953015003e-14 -37.46190158)
(-4.284276148 -2.649990427e-14 0.1728462595 0 -7.104788365 0 0.1931065501 -1.948025688e-13 11.68654734)
(-5.674792514 -2.191074297e-14 0.4063869721 3.687198159e-14 -6.161468588 2.949758527e-13 0.4642891339 -1.419954649e-13 11.6580501)
(-5.585910749 -2.700019259e-14 0.6629568242 3.410550643e-14 -5.866692879 0 0.734319175 -1.142895485e-13 11.59799188)
(-5.660524086 -7.347240098e-14 0.9139199957 1.669679064e-14 -5.813507634 0 1.010499645 -3.357980553e-14 11.5100441)
(-5.582290835 -2.90777097e-14 1.154545365 1.335227566e-14 -5.772124526 -1.068182053e-13 1.274283472 2.264131929e-14 11.39663008)
(-5.481855764 -9.214292764e-15 1.387029907 3.369798497e-14 -5.729405367 0 1.526430638 -3.493360227e-14 11.25987414)
(-5.367361892 -1.467796789e-14 1.611515578 2.931776162e-14 -5.6845376 0 1.766467579 -8.875854263e-14 11.10180724)
(-5.23644097 7.619775475e-15 1.82740998 5.224988897e-14 -5.636264096 1.393330373e-13 1.993249466 6.970795308e-15 10.92449606)
(-5.091458068 -1.080113186e-15 2.034712684 3.160102579e-14 -5.584225367 0 2.206077947 -1.777307827e-14 10.72984371)
(-4.934414887 1.03336412e-14 2.233664776 1.453523158e-14 -5.528489115 0 2.404430406 -3.956632232e-14 10.51961378)
(-4.766745937 1.002174354e-14 2.424710306 2.704154252e-14 -5.469260198 0 2.587855734 6.456268599e-15 10.29545181)
(-4.589658258 -5.949336765e-16 2.608438935 2.538383686e-14 -5.40679348 0 2.755996873 1.775661307e-14 10.05880333)
(-4.404181791 -1.04334566e-15 2.785599163 2.400867318e-14 -5.341357709 0 2.908544965 4.041830965e-15 9.81092087)
(-4.211167051 6.483388947e-15 2.957096845 2.285366706e-14 -5.273216033 0 3.045221968 1.65341264e-14 9.552872703)
(-4.011290936 2.093377189e-14 3.123959482 0 -5.202615028 0 3.165778569 9.681419764e-15 9.285535917)
(-3.805063799 2.454784573e-15 3.287314388 0 -5.12977921 0 3.269983317 2.040047221e-14 9.009594065)
(-3.592842806 8.926505165e-17 3.448368136 1.015637921e-14 -5.054907992 4.062551684e-14 3.357609122 -6.379547261e-15 8.725545168)
(-3.374840334 7.132673101e-15 3.608385293 9.843473391e-15 -4.978175275 3.937389356e-14 3.428435312 -1.555085162e-14 8.433725125)
(-3.151141113 -6.355870083e-16 3.76867463 0 -4.899729088 0 3.482240141 -1.526956877e-15 8.134306748)
(-2.921716004 7.145923808e-15 3.930583471 0 -4.81969338 0 3.518802478 -1.078684848e-15 7.827329787)
(-2.686428593 1.347415888e-14 4.095475049 9.125356275e-15 -4.73816896 3.65014251e-14 3.537903346 -2.358784846e-14 7.512701148)
(-2.445035697 -1.224412539e-14 4.26474565 8.94292753e-15 -4.655235323 0 3.539322898 6.028921539e-15 7.190212948)
(-2.197190402 5.832392472e-16 4.439829326 8.782896899e-15 -4.570951289 3.51315876e-14 3.522821328 2.926081323e-15 6.859530696)
(-1.942457269 4.658877869e-15 4.622221968 -8.642556046e-15 -4.485356628 -1.728511209e-14 3.488169767 3.404963213e-15 6.520217567)
(-1.680262544 -1.083259228e-14 4.813543814 -8.519642473e-15 -4.398473468 -1.703928495e-14 3.435090703 9.405902051e-15 6.171675286)
(-1.409874992 1.237192536e-14 5.015565773 8.412252035e-15 -4.310304389 1.682450407e-14 3.363246581 -1.237126713e-14 5.813161496)
(-1.130398407 -5.800393381e-15 5.230293753 -8.31877146e-15 -4.220832929 -1.663754292e-14 3.272247064 -4.3866097e-15 5.443741594)
(-0.8406814723 -1.411853903e-14 5.460089138 -8.237825622e-15 -4.130022079 -1.647565124e-14 3.16157303 -5.062954396e-15 5.062206392)
(-0.5392361239 1.994198144e-15 5.707801522 0 -4.037810445 0 3.030523161 -1.33568554e-15 4.667005299)
(-0.2241310771 1.175169417e-14 5.9769691 0 -3.944108063 0 2.878145804 -1.264720315e-14 4.256116804)
(0.1071884763 -3.376362746e-15 6.272096299 0 -3.848789593 0 2.703114295 -1.211947817e-14 3.826871671)
(0.4581363216 1.186272321e-14 6.599047715 -8.018104662e-15 -3.751684502 -1.603620932e-14 2.503577752 -8.282316522e-15 3.375705832)
(0.8333421437 2.174052494e-14 6.965628861 7.98504216e-15 -3.652563759 0 2.276930802 -9.859845135e-16 2.897787221)
(1.239175053 -1.804084513e-14 7.382426526 0 -3.55112012 0 2.019482727 9.865906077e-15 2.386481175)
(1.68450256 3.675694169e-15 7.864042057 -7.940740146e-15 -3.446940658 0 1.725977899 7.95224286e-15 1.832557987)
(2.181788654 1.905480939e-14 8.430879825 0 -3.339467289 0 1.388904289 3.027122791e-15 1.223059098)
(2.748603075 1.105578542e-14 9.111642521 -7.922410269e-15 -3.227941627 -1.584482054e-14 0.9975522755 4.236603058e-15 0.5397151629)
(3.40954132 1.125637451e-14 9.946524774 0 -3.111329743 0 0.5368256948 3.727633815e-15 -0.2430636583)
(4.198269359 2.163675589e-14 10.9906739 7.92702613e-15 -2.988225697 1.585405226e-14 -0.01400795197 -4.745739482e-15 -1.160355734)
(5.159036802 5.263028208e-15 12.31685024 0 -2.85674137 1.587434723e-14 -0.6822062636 3.47897316e-15 -2.258334824)
(6.346736951 -1.332615782e-14 14.01588361 0 -2.714402548 0 -1.50147132 1.304672086e-14 -3.59434674)
(7.824909013 1.178658178e-14 16.19417713 0 -2.558082385 0 -2.510484739 2.2286111e-14 -5.234910425)
(9.662141256 1.031523503e-14 18.96907513 -7.996064092e-15 -2.383998835 -7.996064092e-15 -3.750342566 2.742586199e-14 -7.252110387)
(11.92828221 2.652635441e-14 22.46430035 8.024516075e-15 -2.187778702 8.024516075e-15 -5.261820295 -1.939442749e-15 -9.719826692)
(14.69137741 3.258640808e-14 26.80751 0 -1.964565011 0 -7.083138616 -1.3082184e-15 -12.71117608)
(18.01516174 1.695008835e-14 32.13049589 0 -1.70914694 0 -9.248176652 -9.851209059e-15 -16.29759455)
(21.96205483 2.103035594e-14 38.56827123 0 -1.416102667 0 -11.78787184 -2.188101385e-14 -20.54751072)
(26.61593938 2.43512659e-14 46.24798654 0 -1.079811092 0 -14.74311157 -3.551271468e-14 -25.51933589)
(32.12073739 2.577909525e-14 55.26967685 0 -0.6939889006 0 -18.18737099 -3.550491648e-14 -31.24962264)
(38.04659833 4.033105615e-14 66.09249888 -5.173498209e-16 -0.2508105413 -1.034699642e-15 -21.86034654 -2.402253989e-14 -37.97631174)
(-4.471407826 -1.067089518e-13 0.1879058553 -5.835883264e-13 -7.411511121 8.892774498e-13 0.1959581452 -6.65506132e-14 12.19536926)
(-5.922628792 -1.153342416e-13 0.4419457371 -9.49680471e-14 -6.429386334 3.038977507e-13 0.4701874711 -1.435585903e-13 12.16568027)
(-5.829016684 -1.068752495e-13 0.7206460517 -2.342471222e-14 -6.122191055 3.747953954e-13 0.7438845404 -1.091117984e-13 12.10350605)
(-5.907291896 -7.92391743e-14 0.9931194048 1.720180506e-14 -6.066469402 0 1.02401279 -7.954403301e-14 12.01244097)
(-5.826787122 -3.944140752e-14 1.254500119 2.751226247e-14 -6.023570673 0 1.291740381 -8.41334301e-14 11.89493605)
(-5.722534618 -2.212770789e-14 1.506916487 2.314481397e-14 -5.979261239 0 1.547869353 -3.16322534e-14 11.75314213)
(-5.603716524 -3.344913773e-14 1.750503554 4.027268317e-14 -5.932715341 8.054536635e-14 1.7919972 -2.635622612e-14 11.58917907)
(-5.467765367 -1.123215816e-14 1.984635963 0 -5.882631331 -1.435473317e-13 2.022935481 -2.305380094e-15 11.40506116)
(-5.317041998 3.519572101e-14 2.209340427 1.627841839e-14 -5.828618942 -6.511367356e-14 2.239935616 4.786343998e-15 11.20276067)
(-5.15357439 -2.040033152e-14 2.424889696 1.4974867e-14 -5.770736621 5.989946802e-14 2.442442276 -9.726589089e-16 10.9840288)
(-4.978805243 -4.063289379e-14 2.631736048 1.392972322e-14 -5.709183573 -5.571889286e-14 2.629956152 1.323550893e-14 10.75048776)
(-4.793953226 1.440381173e-14 2.830553328 3.922740216e-14 -5.644214411 5.230320288e-14 2.802040777 4.386531415e-15 10.50359043)
(-4.600037524 2.886536997e-15 3.02217824 2.473484422e-14 -5.576098365 0 2.958313713 2.317614924e-14 10.24458447)
(-4.397898013 1.299108451e-15 3.207583786 2.35449036e-14 -5.505098731 0 3.0984301 -1.277116401e-14 9.974525238)
(-4.1882091 1.258805001e-14 3.387880455 1.126762519e-14 -5.431462739 -4.507050075e-14 3.222064607 1.38207112e-14 9.694276431)
(-3.971474004 1.396787813e-14 3.564286571 2.167137456e-14 -5.355416174 0 3.328909679 2.066930728e-14 9.404517086)
(-3.748042245 1.749378286e-14 3.738088006 0 -5.277159425 0 3.418669462 5.258498997e-15 9.105743859)
(-3.518139084 1.485527494e-15 3.910631401 0 -5.196867763 0 3.491063254 3.618371934e-14 8.798296333)
(-3.28185702 -1.155548999e-16 4.083302147 0 -5.114692187 0 3.545813917 9.106560112e-15 8.482359159)
(-3.03917631 2.443377834e-14 4.257504607 0 -5.030759145 0 3.582656327 -8.020662614e-15 8.157988098)
(-2.789978041 5.655507821e-15 4.434671836 9.40136365e-15 -4.945173195 3.76054546e-14 3.601332383 5.88776657e-15 7.825113339)