/*--------------------------------*- C++ -*----------------------------------*\
  =========                 |
  \\      /  F ield         | OpenFOAM: The Open Source CFD Toolbox
   \\    /   O peration     | Website:  https://openfoam.org
    \\  /    A nd           | Version:  7
     \\/     M anipulation  |
\*---------------------------------------------------------------------------*/
FoamFile
{
    version     2.0;
    format      ascii;
    class       volScalarField;
    location    "0.0006";
    object      p;
}
// * * * * * * * * * * * * * * * * * * * * * * * * * * * * * * * * * * * * * //

dimensions      [1 -1 -2 0 0 0 0];

internalField   nonuniform List<scalar> 
1167
(
1348100.763
1358581.454
1356251.731
1356985.13
1358278.691
1359714.382
1361384.222
1363272.586
1365354.014
1367608.999
1370020.294
1372570.994
1375245.091
1378027.716
1380905.12
1383864.494
1386894.044
1389982.949
1393121.327
1396300.2
1399511.424
1402747.889
1406002.962
1409271.163
1412547.314
1415827.015
1419106.583
1422382.761
1425652.731
1428914.189
1432165.37
1435404.874
1438631.774
1441845.524
1445045.824
1344188.993
1354674.14
1352359.721
1353062.481
1354338.769
1355754.22
1357399.227
1359260.628
1361312.92
1363537.515
1365916.834
1368434.638
1371075.246
1373823.977
1376667.164
1379592.116
1382587.064
1385641.195
1388744.643
1391888.445
1395064.484
1398265.383
1401484.851
1404717.062
1407956.979
1411200.303
1414443.248
1417682.594
1420915.509
1424139.795
1427353.7
1430555.807
1433745.138
1436920.915
1440082.57
1443229.194
1446358.8
1449466.826
1452543.451
1455570.539
1458519.562
1461353.441
1464033.235
1466527.321
1468817.165
1470895.638
1472763.724
1474450.464
1476049.386
1477559.322
1340161.573
1350645.875
1348347.909
1349019.945
1350278.693
1351673.592
1353293.641
1355128.226
1357151.652
1359346.131
1361694.635
1364180.733
1366789.22
1369505.724
1372316.68
1375209.501
1378172.38
1381194.551
1384266.099
1387377.922
1390522.044
1393691.017
1396878.456
1400078.523
1403286.301
1406497.389
1409708.032
1412915.042
1416115.712
1419307.868
1422489.717
1425659.867
1428817.26
1431960.974
1435090.079
1438203.029
1441296.816
1444365.232
1447396.298
1450369.427
1453254.417
1456014.657
1458614.571
1461027.961
1463241.968
1465253.988
1467068.067
1468714.837
1470286.574
1471776.25
1336007.262
1346486.351
1344206.185
1344848.066
1346089.558
1347464.173
1349060.187
1350868.656
1352864.743
1355030.41
1357349.561
1359806.136
1362384.967
1365071.814
1367853.266
1370716.783
1373650.621
1376644.002
1379686.902
1382770.312
1385885.9
1389026.556
1392185.533
1395357.301
1398536.768
1401719.553
1404902.053
1408081.076
1411254.027
1414418.748
1417573.432
1420716.687
1423847.343
1426964.367
1430066.44
1433151.399
1436215.179
1439249.947
1442241.626
1445167.572
1447996.571
1450693.097
1453225.027
1455570.984
1457722.77
1459681.234
1461452.609
1463068.59
1464620.158
1466094.745
1331715.567
1342185.84
1339924.988
1340537.792
1341762.536
1343118.098
1344691.707
1346475.734
1348446.444
1350585.963
1352878.266
1355307.941
1357860.028
1360520.377
1363275.639
1366113.277
1369021.565
1371989.64
1375007.441
1378065.82
1381156.625
1384272.367
1387406.657
1390553.771
1393708.597
1396866.977
1400025.332
1403180.519
1406329.973
1409471.593
1412603.649
1415724.746
1418833.59
1421928.924
1425009.051
1428071.204
1431110.267
1434116.869
1437075.04
1439960.415
1442741.255
1445383.502
1447858.417
1450148.85
1452250.364
1454166.416
1455904.806
1457497.952
1459035.608
1460499.916
1327276.461
1337735.261
1335495.346
1336080.325
1337289.445
1338628.058
1340181.255
1341943.608
1343891.481
1346007.881
1348276.924
1350683.185
1353212.072
1355849.578
1358582.352
1361397.827
1364284.247
1367230.641
1370226.97
1373264.029
1376333.49
1379428.035
1382541.23
1385667.201
1388801.122
1391938.916
1395076.914
1398212.106
1401342.06
1404464.701
1407578.375
1410681.666
1413773.216
1416851.547
1419914.545
1422958.752
1425978.031
1428961.592
1431891.782
1434742.905
1437483.121
1440080.038
1442508.072
1444753.683
1446815.45
1448698.804
1450412.658
1451989.966
1453519.398
1454977.972
1322680.63
1333126.063
1330908.611
1331467.345
1332662.758
1333986.97
1335522.459
1337266.361
1339195.006
1341291.739
1343541.179
1345928.097
1348437.89
1351056.62
1353770.97
1356568.268
1359436.785
1362365.408
1365344.02
1368363.343
1371415.159
1374492.112
1377587.649
1380696.126
1383812.816
1386933.563
1390054.813
1393173.729
1396287.978
1399395.564
1402494.878
1405584.455
1408662.892
1411728.485
1414778.739
1417809.53
1420813.7
1423779.108
1426686.635
1429509.603
1432216.385
1434776.347
1437166.785
1439377.201
1441408.558
1443267.749
1444964.523
1446532.266
1448058.723
1449515.886
1317919.163
1328350.028
1326156.591
1326691.195
1327875.508
1329188.051
1330709.398
1332438.248
1334351.934
1336433.335
1338667.436
1341039.317
1343534.369
1346138.666
1348838.881
1351622.187
1354476.761
1357391.475
1360356.18
1363361.544
1366399.363
1369462.22
1372543.7
1375638.256
1378741.107
1381848.276
1384956.378
1388062.673
1391164.885
1394261.14
1397349.864
1400429.572
1403498.788
1406555.593
1409597.127
1412618.627
1415611.968
1418563.786
1421453.716
1424254.385
1426934.6
1429465.47
1431826.863
1434010.807
1436020.127
1437862.782
1439549.117
1441112.949
1442641.303
1444101.183
1312983.613
1323399.681
1321231.964
1321745.139
1322920.969
1324225.102
1325736.254
1327454.176
1329356.965
1331427.755
1333651.377
1336012.924
1338497.868
1341092.242
1343782.594
1346556.175
1349400.987
1352305.847
1355260.447
1358255.637
1361283.021
1364335.425
1367406.326
1370490.32
1373582.823
1376679.904
1379778.35
1382875.523
1385969.212
1389057.647
1392139.309
1395212.751
1398276.399
1401328.123
1404364.69
1407380.74
1410367.254
1413309.771
1416186.9
1418970.827
1421630.938
1424139.994
1426480.108
1428645.432
1430640.261
1432473.289
1434155.237
1435720.347
1437255.152
1438721.701
1307866.592
1318268.306
1316128.187
1316622.752
1317792.766
1319092.342
1320597.232
1322309.045
1324205.523
1326270.287
1328488.187
1330844.264
1333323.945
1335913.122
1338598.259
1341366.522
1344205.734
1347104.72
1350053.176
1353041.846
1356062.539
1359107.935
1362171.726
1365248.639
1368334.244
1371424.615
1374516.678
1377607.973
1380696.431
1383780.385
1386858.335
1389928.868
1392990.324
1396040.396
1399075.493
1402089.676
1405073.132
1408010.432
1410879.356
1413651.856
1416297.996
1418792.054
1421118.052
1423271.872
1425258.964
1427088.567
1428771.654
1430342.845
1431888.386
1433365.391
1302561.272
1312949.93
1310839.094
1311317.609
1312484.996
1313784.082
1315286.95
1316997.205
1318892.647
1320956.416
1323173.574
1325529.132
1328008.428
1330597.162
1333281.598
1336048.826
1338886.66
1341783.815
1344729.98
1347715.949
1350733.506
1353775.432
1356835.663
1359908.894
1362990.776
1366077.661
1369166.625
1372255.289
1375341.734
1378424.392
1381501.809
1384572.589
1387635.003
1390686.591
1393723.436
1396739.067
1399722.957
1402658.848
1405523.881
1408289.924
1410927.77
1413413.13
1415731.648
1417880.514
1419866.02
1421697.819
1423387.071
1424968.787
1426529.116
1428020.201
1297061.212
1307438.722
1305358.543
1305823.791
1306992.139
1308294.584
1309800.191
1311513.421
1313412.641
1315480.711
1317702.374
1320062.489
1322546.222
1325139.162
1327827.512
1330598.205
1333438.89
1336338.234
1339286.022
1342272.98
1345291.05
1348333.074
1351393.043
1354465.903
1357547.36
1360634.005
1363723.059
1366812.22
1369899.699
1372984.04
1376063.898
1379137.886
1382204.212
1385260.263
1388301.834
1391321.976
1394309.542
1397247.602
1400112.836
1402877.144
1405512.023
1407994.463
1410311.489
1412461.366
1414450.95
1416290.097
1417990.131
1419586.524
1421165.481
1422674.121
1291360.004
1301728.767
1299680.678
1300135.81
1301308.578
1302618.346
1304131.305
1305852.527
1307760.391
1309837.706
1312068.914
1314438.643
1316931.8
1319533.82
1322230.705
1325009.153
1327856.89
1330762.485
1333715.719
1336707.443
1339729.59
1342775.138
1345838.246
1348914.072
1351998.364
1355087.849
1358179.941
1361272.526
1364363.958
1367452.845
1370537.952
1373617.911
1376690.897
1379754.162
1382803.244
1385830.777
1388825.073
1391768.659
1394637.902
1397404.871
1400041.803
1402526.726
1404847.762
1407004.045
1409002.851
1410854.091
1412569.177
1414184.093
1415785.277
1417314.764
1285451.434
1295814.49
1293799.953
1294248.132
1295428.453
1296749.819
1298274.355
1300008.585
1301930.29
1304021.894
1306267.67
1308652.001
1311159.472
1313775.167
1316485.008
1319275.639
1322134.572
1325050.438
1328012.99
1331013.161
1334042.929
1337095.517
1340165.158
1343247.063
1346337.266
1349432.653
1352530.768
1355629.686
1358727.906
1361824.101
1364917.115
1368005.634
1371087.831
1374160.85
1377219.996
1380257.574
1383261.457
1386213.746
1389090.595
1391864.306
1394507.834
1397000.196
1399330.351
1401498.001
1403510.729
1405378.436
1407112.542
1408749.57
1410376.37
1411929.84
1279329.386
1289690.425
1287710.771
1288154.699
1289345.881
1290682.986
1292223.542
1293975.198
1295915.684
1298026.705
1300292.095
1302695.871
1305222.339
1307856.441
1310583.859
1313390.952
1316265.241
1319195.344
1322171.028
1325183.321
1328224.294
1331287.276
1334366.691
1337457.893
1340557.124
1343661.414
1346768.44
1349876.441
1352984.058
1356090.126
1359193.574
1362293.123
1365386.948
1368472.11
1371543.725
1374593.811
1377609.913
1380573.831
1383461.673
1386246.016
1388900.4
1391404.695
1393748.603
1395932.191
1397963.162
1399851.341
1401608.118
1403270.597
1404926.203
1406506.624
1272987.576
1283350.697
1281406.876
1281849.089
1283054.644
1284411.186
1285972.447
1287746.09
1289709.968
1291845.193
1294135.069
1296563.165
1299113.453
1301770.605
1304519.882
1307347.737
1310241.472
1313189.763
1316182.38
1319210.426
1322266.073
1325342.852
1328435.334
1331538.981
1334650.21
1337766.261
1340884.979
1344004.764
1347124.382
1350242.835
1353359.138
1356472.055
1359579.775
1362679.311
1365765.637
1368830.576
1371861.395
1374839.679
1377741.592
1380540.086
1383209.307
1385729.723
1388091.605
1390295.301
1392348.477
1394260.813
1396043.642
1397734.681
1399422.069
1401032.224
1266419.025
1276788.507
1274881.269
1275324.594
1276547.751
1277927.43
1279513.434
1281313.877
1283305.852
1285469.984
1287789.107
1290246.288
1292824.944
1295509.474
1298285.063
1301137.838
1304055.126
1307025.506
1310038.843
1313086.238
1316160.091
1319254.013
1322362.709
1325481.857
1328608.09
1331738.774
1334871.939
1338006.153
1341140.301
1344273.523
1347404.95
1350533.438
1353657.208
1356773.238
1359876.369
1362958.309
1366006.153
1369001.43
1371920.364
1374736.261
1377423.895
1379964.286
1382348.025
1384575.627
1386654.644
1388594.537
1390406.551
1392129.039
1393850.976
1395493.465
1259615.636
1269996.266
1268126.482
1268573.715
1269817.265
1271223.996
1272838.566
1274669.933
1276694.667
1278892.432
1281245.42
1283736.163
1286347.815
1289064.346
1291870.527
1294752.388
1297697.272
1300693.643
1303731.412
1306801.782
1309897.258
1313011.634
1316139.769
1319277.509
1322421.654
1325569.749
1328720.019
1331871.208
1335022.335
1338172.664
1341321.451
1344467.658
1347609.547
1350744.08
1353866.082
1356967.115
1360034.144
1363048.774
1365987.447
1368823.826
1371533.168
1374097.017
1376506.171
1378761.15
1380869.334
1382839.902
1384683.98
1386440.583
1388199.636
1389876.88
1252568.745
1262965.781
1261134.243
1261587.64
1262854.509
1264291.829
1265939.132
1267805.504
1269867.258
1272103.141
1274494.557
1277023.478
1279672.698
1282425.463
1285266.501
1288181.672
1291158.091
1294184.317
1297250.257
1300347.147
1303467.742
1306605.923
1309756.651
1312915.994
1316080.967
1319249.277
1322419.322
1325589.999
1328760.514
1331930.267
1335098.616
1338264.626
1341426.617
1344581.552
1347724.303
1350846.385
1353934.756
1356971.022
1359931.912
1362791.575
1365525.692
1368116.16
1370553.954
1372839.468
1374979.848
1376983.933
1378862.71
1380655.883
1382454.425
1384168.669
1245268.643
1255687.607
1253894.748
1254356.351
1255649.652
1257120.71
1258804.7
1260710.399
1262813.438
1265091.822
1267526.185
1270097.781
1272788.697
1275582.067
1278462.297
1281414.847
1284426.864
1287486.781
1290584.627
1293711.712
1296860.84
1300026.094
1303202.638
1306386.696
1309575.432
1312766.737
1315959.196
1319151.872
1322344.148
1325535.563
1328725.623
1331913.482
1335097.543
1338274.841
1341440.212
1344585.17
1347696.798
1350756.884
1353742.375
1356627.866
1359389.542
1362009.526
1364478.886
1366797.817
1368973.153
1371013.346
1372929.227
1374761.208
1376601.404
1378354.701
1237704.119
1248150.515
1246396.575
1246868.794
1248191.282
1249699.487
1251423.604
1253372.62
1255521.298
1257846.562
1260328.191
1262946.833
1265684.018
1268522.471
1271446.012
1274440.153
1277491.736
1280589.336
1283722.839
1286883.701
1290064.928
1293260.664
1296466.222
1299678.04
1302893.453
1306110.583
1309328.177
1312545.422
1315761.878
1318977.252
1322191.169
1325402.894
1328610.922
1331812.401
1335002.226
1338171.971
1341308.734
1344394.601
1347406.917
1350320.627
1353112.382
1355764.536
1358268.102
1360623.047
1362835.837
1364914.497
1366869.672
1368742.488
1370626.297
1372420.51
1229861.837
1240341.561
1238627.077
1239112.299
1240466.437
1242015.348
1243783.285
1245779.422
1247977.847
1250354.3
1252887.643
1255557.872
1258345.789
1261233.508
1264204.742
1267244.594
1270339.903
1273479.063
1276652.097
1279850.523
1283067.39
1286296.997
1289534.895
1292777.678
1296022.831
1299268.653
1302514.087
1305758.472
1309001.519
1312243.135
1315483.091
1318720.777
1321954.795
1325182.315
1328398.342
1331594.612
1334758.413
1337871.988
1340913.149
1343857.311
1346681.449
1349368.146
1351908.293
1354301.588
1356554.071
1358673.321
1360669.762
1362585.238
1364514.418
1366351.223
1221727.235
1232246.539
1230571.994
1231072.081
1232460.647
1234053.333
1235869.089
1237916.376
1240168.687
1242600.685
1245190.25
1247916.379
1250759.338
1253700.893
1256724.122
1259814.058
1262957.242
1266142.117
1269358.587
1272598.372
1275854.625
1279121.72
1282395.343
1285672.306
1288950.282
1292227.766
1295503.855
1298778.076
1302050.308
1305320.569
1308588.769
1311854.462
1315116.405
1318371.896
1321616.003
1324840.541
1328033.116
1331176.294
1334248.216
1337224.852
1340083.492
1342806.881
1345385.757
1347819.489
1350113.654
1352275.371
1354314.825
1356274.578
1358250.677
1360131.556
1261827.354
1265112.494
1268411.889
1271720.164
1275033.138
1278347.751
1281661.842
1284974.081
1288283.731
1291590.522
1294894.543
1298195.929
1301494.751
1304790.692
1308082.576
1311367.904
1314641.924
1317896.592
1321119.68
1324294.219
1327398.768
1330409.73
1333304.796
1336066.788
1338686.3
1341162.323
1343499.938
1345705.78
1347789.775
1349795.204
1351819.559
1353745.796
)
;

boundaryField
{
    front_top
    {
        type            wedge;
    }
    front_middle
    {
        type            wedge;
    }
    front_bottom
    {
        type            wedge;
    }
    back_top
    {
        type            wedge;
    }
    back_middle
    {
        type            wedge;
    }
    back_bottom
    {
        type            wedge;
    }
    axis_top
    {
        type            symmetryPlane;
    }
    axis_middle
    {
        type            symmetryPlane;
    }
    axis_bottom
    {
        type            symmetryPlane;
    }
    wall_top
    {
        type            fixedFluxPressure;
        gradient        nonuniform 0();
        value           nonuniform 0();
    }
    wall_middle
    {
        type            fixedFluxPressure;
        gradient        uniform 0;
        value           nonuniform List<scalar> 
23
(
1477559.322
1471776.25
1466094.745
1460499.916
1454977.972
1449515.886
1444101.183
1438721.701
1433365.391
1428020.201
1422674.121
1417314.764
1411929.84
1406506.624
1401032.224
1395493.465
1389876.88
1384168.669
1378354.701
1372420.51
1366351.223
1360131.556
1353745.796
)
;
    }
    wall_bottom
    {
        type            fixedFluxPressure;
        gradient        nonuniform 0();
        value           nonuniform 0();
    }
    inlet
    {
        type            zeroGradient;
    }
    outlet
    {
        type            fixedValue;
        value           nonuniform 0();
    }
    procBoundary4to3
    {
        type            processor;
        value           nonuniform List<scalar> 
51
(
1213283.921
1223849.212
1222214.802
1222731.716
1224157.662
1225797.227
1227664.241
1229766.824
1232077.358
1234569.288
1237219.469
1240006.155
1242908.931
1245908.797
1248988.576
1252132.995
1255328.482
1258563.24
1258563.24
1254042.009
1257376.734
1260723.444
1264076.809
1267432.837
1270788.643
1274142.301
1277492.621
1280839.005
1284181.375
1287519.952
1290855.017
1294186.848
1297515.296
1300839.338
1304156.54
1307462.315
1310748.906
1314004.332
1317211.947
1320350.865
1323397.903
1326331.142
1329133.452
1331795.275
1334315.197
1336697.798
1338949.199
1341079.04
1343131.336
1345205.068
1347177.742
)
;
    }
    procBoundary4to5
    {
        type            processor;
        value           nonuniform List<scalar> 
51
(
1351908.255
1362378.529
1360034.503
1360797.796
1362107.486
1363562.775
1365256.264
1367170.943
1369280.49
1371565.662
1374008.717
1376592.147
1379300.024
1382117.411
1385030.256
1388025.639
1391091.709
1394217.615
1397393.389
1400610.215
1403859.9
1407135.158
1410429.658
1413737.628
1417054.165
1420374.692
1423695.474
1427013.314
1430325.433
1433629.442
1436923.535
1440206.385
1443477.087
1446735.268
1449980.888
1448232.363
1448232.363
1451404.142
1454558.13
1457686.793
1460774.876
1463796.299
1466714.2
1469486.652
1472076.23
1474457.593
1476617.653
1478553.104
1480290.608
1481924.74
1483460.59
)
;
    }
}


// ************************************************************************* //
