/*--------------------------------*- C++ -*----------------------------------*\
  =========                 |
  \\      /  F ield         | OpenFOAM: The Open Source CFD Toolbox
   \\    /   O peration     | Website:  https://openfoam.org
    \\  /    A nd           | Version:  7
     \\/     M anipulation  |
\*---------------------------------------------------------------------------*/
FoamFile
{
    version     2.0;
    format      ascii;
    class       volScalarField;
    location    "0.0006";
    object      thermo:mu;
}
// * * * * * * * * * * * * * * * * * * * * * * * * * * * * * * * * * * * * * //

dimensions      [1 -1 -1 0 0 0 0];

internalField   nonuniform List<scalar> 
1167
(
279066.7376
277079.0862
272860.957
266725.6538
258908.3415
249650.0595
239189.6093
227759.3027
215595.6948
202914.0762
189919.9821
176808.8395
163748.6656
150891.8533
138371.1903
126298.4113
114764.6618
103840.8476
93580.43022
84016.78482
75166.43177
67033.29632
59606.98538
52866.85533
46783.12485
41321.21839
36440.32458
32097.29193
28247.79828
24847.87437
21854.11619
19224.79671
16920.75559
14905.32888
13144.98468
273908.1074
271904.2339
267652.6985
261471.3299
253600.5002
244291.3232
233776.172
222306.771
210110.6621
197423.2997
184447.8736
171379.751
158394.4847
145647.4456
133270.0862
121373.3529
110046.1288
99355.71503
89349.4728
80056.1955
71490.3801
63646.30886
56510.95345
50056.98024
44252.09805
39056.78633
34427.92307
30320.37223
26688.72562
23488.18064
20675.075
18208.24416
16049.12021
14162.06703
12514.68309
11077.57038
9824.444756
8731.837126
7779.055207
6947.743485
6221.903643
5587.574197
5032.561615
4546.308212
4119.604076
3744.503817
3414.122898
3122.508291
2864.47226
2635.537522
268765.1413
266745.9263
262462.9488
256238.657
248324.9872
238964.5215
228405.5188
216903.4158
204693.0287
192006.829
179064.9025
166059.4498
153168.7579
140548.5962
128331.1172
116625.2004
105516.3044
95068.37621
85325.46679
76309.94511
68027.82523
60472.94283
53622.71648
47448.32056
41912.12157
36971.84879
32582.17623
28696.44509
25268.65734
22253.32073
19607.06223
17289.4094
15262.64675
13492.47903
11947.53949
10599.76909
9424.155664
8398.490345
7503.245485
6721.274969
6037.619891
5439.200141
4914.654988
4454.169685
4049.227318
3692.456069
3377.468825
3098.759669
2851.509113
2631.572617
263640.11
261606.7022
257294.8136
251035.4676
243080.2458
233675.6702
223085.7899
211557.5655
199345.9562
186680.2012
173781.9728
160855.1145
148075.5901
135599.0052
123556.7162
112054.977
101177.9579
90983.49423
81508.17656
72771.88341
64774.87148
57503.60682
50932.83737
45028.84833
39750.33453
35052.83419
30889.3486
27212.02503
23974.1166
21130.31678
18637.92804
16457.20624
14551.48456
12887.59769
11435.54251
10168.63887
9063.041774
8097.748648
7254.376374
6516.809028
5871.061124
5304.915786
4807.803717
4370.573123
3985.288683
3645.097622
3344.064587
3077.069192
2839.643976
2627.937461
258535.4466
256489.2395
252153.9639
245864.3507
237871.0515
228433.4903
217819.4105
206281.3294
194077.3241
181447.9314
168613.8984
155779.6
143125.9631
130808.223
118955.8045
107671.6717
97034.16727
87097.01391
77895.02601
69437.73861
61722.56253
54729.55835
48430.62372
42786.3998
37754.11014
33287.23658
29336.49481
25853.93561
22792.6244
20107.57627
17756.89601
15701.71878
13906.63457
12339.64681
10972.0541
9778.388973
8736.091761
7825.364966
7028.837936
6331.386799
5719.896785
5182.928444
4710.611563
4294.406283
3926.924979
3601.782638
3313.449994
3057.152087
2828.728182
2624.587781
253454.5222
251399.789
247045.1749
240726.2845
232702.0247
223244.2815
212612.6213
201079.4202
188897.2165
176316.3167
163561.9811
150838.3344
138326.7462
126181.6913
114530.2169
103472.0401
93082.89462
83410.14458
74479.9285
66301.20928
58862.276
52141.62906
46104.15292
40709.29642
35911.80327
31662.19562
27911.17438
24610.43919
21713.09102
19174.80373
16954.55317
15014.51496
13320.57162
11841.92088
10551.17336
9424.068618
8439.212346
7577.896784
6823.76131
6162.614433
5582.130647
5071.594291
4621.777406
4224.683922
3873.412388
3561.999352
3285.280744
3038.791911
2818.647032
2621.489315
248404.9251
246340.7124
241967.4102
235625.0613
227581.6964
218108.9571
207474.0391
195955.6198
183813.3073
171295.3324
158632.8251
146034.471
133679.0362
121719.6243
110281.5351
99459.78427
89323.00057
79914.84155
71258.63735
63353.07802
56186.1183
49728.14441
43942.73334
38786.45648
34210.82523
30165.93257
26602.08921
23470.81124
20725.50923
18322.82105
16222.58003
14388.16179
12786.7047
11388.66047
10167.91549
9101.361345
8168.709882
7352.291971
6636.673229
6008.510361
5456.2015
4969.699177
4540.355483
4160.676189
3824.197406
3525.333059
3259.27279
3021.809945
2809.305907
2618.613839
243383.472
241311.7204
236923.9162
230564.4839
222512.6511
213032.2103
202409.4986
190915.3626
178826.9377
166389.3967
153836.5371
141376.853
129190.5008
117428.2871
106210.7075
95629.59098
85749.59918
76608.80176
68221.55031
60586.81691
53682.72542
47479.25757
41935.63307
37005.7131
32639.95492
28787.70056
25399.09897
22425.57835
19821.23428
17543.65747
15553.77232
13816.2837
12299.4652
10975.06053
9818.136812
8806.723234
7921.59441
7146.023319
6465.455376
5867.321888
5340.682786
4876.103232
4465.459425
4101.715284
3778.80197
3491.470966
3235.190345
3006.05702
2800.625845
2615.937822
238392.9972
236315.7789
231917.9259
225554.5704
217496.0023
208020.5444
197419.7673
185969.6413
173942.7931
161599.8568
149170.7237
136863.8605
124858.4001
113302.4132
102313.4827
91980.27392
82358.66004
73482.54354
65363.32246
57991.05501
51343.20962
45384.35195
40071.24944
35356.41806
31189.09253
27517.73824
24292.58067
21465.60173
18991.80305
16829.73995
14941.47245
13292.98284
11853.73419
10596.71685
9498.123633
8537.054512
7695.294841
6956.989898
6308.402809
5737.664133
5234.45919
4789.909924
4396.366308
4047.24018
3736.794323
3460.085529
3212.854147
2991.407402
2792.540288
2613.441438
233436.3963
231355.8796
226957.5547
220591.8708
212535.4183
203079.8088
192508.8087
181115.6588
169170.1205
156932.3031
144638.5059
132496.4654
120683.3494
109343.6894
98590.49514
88505.50633
79142.99574
70530.74633
62673.01632
55557.80871
49157.10491
43432.44187
38339.84099
33828.91021
29848.02471
26346.12277
23273.51941
20582.7693
18229.92161
16174.53771
14379.88957
12813.17628
11445.08081
10249.8002
9204.59426
8289.573517
7487.473432
6783.248843
6163.921942
5618.260679
5136.530628
4710.362711
4332.534417
3996.812037
3697.829281
3430.92771
3192.070053
2977.753885
2784.992495
2611.107801
228519.4617
226440.6366
222042.4058
215679.6331
207636.9966
198209.1082
187684.1883
176356.5761
164505.5989
152389.4394
140244.8554
128278.7759
116666.0685
105548.0074
95033.44263
85200.87655
76096.90352
67743.7363
60143.29498
53276.87508
47114.09433
41614.69254
36731.14117
32412.68242
28607.34518
25264.34679
22334.16467
19770.1205
17529.33279
15572.46132
13864.11973
12372.63645
11069.91196
9931.25103
8934.960851
8062.117793
7296.31227
6623.283544
6030.747986
5508.055563
5046.0077
4636.735237
4273.373411
3950.032472
3661.628342
3403.783464
3172.691501
2965.016798
2777.933594
2608.922365
223645.7949
221568.058
217173.7632
210820.9424
202804.6775
193411.4893
182946.3316
171697.8276
159951.1507
147968.999
135985.0275
124204.9492
112800.7312
101911.144
91640.78949
82059.58072
73211.67606
65114.80163
57764.05192
51138.90306
45205.43901
39920.28206
35235.26693
31099.10031
27459.1654
24264.80209
21467.23997
19020.89829
16883.92272
15018.12856
13389.39405
11967.19066
10724.59175
9637.953248
8686.576703
7852.447957
7119.972661
6475.610091
5907.704892
5406.146016
4962.229067
4568.477164
4218.42838
3906.527408
3627.929046
3378.467297
3154.591338
2953.103574
2771.32114
2606.872513
218814.4717
216740.0851
212354.5393
206023.4848
198037.584
188692.4571
178295.4446
167140.8915
155512.1647
143673.2715
131859.7283
120275.0438
109087.5784
98430.9727
88404.03923
79074.68863
70480.74444
62633.9163
55526.95516
49134.83865
43420.53548
38340.53796
33844.30731
29879.68456
26394.9281
23339.66883
20665.84575
18329.0301
16288.41136
14506.96018
12951.75892
11593.45058
10406.24936
9367.507582
8457.453973
7658.944394
6957.098709
6339.068217
5793.785724
5311.667638
4884.471225
4505.07534
4167.338576
3865.994706
3596.490242
3354.838204
3137.6572
2941.942324
2765.117615
2604.947078
214028.3595
211959.57
207590.3041
201286.4887
193338.2583
184054.3417
173733.7453
162684.0902
151185.8823
139502.8702
127869.5691
116487.042
105520.3548
95099.00816
85318.59255
76239.68713
67894.76514
60293.70892
53422.68337
47254.94463
41751.75566
36866.56931
32548.78178
28746.21582
25407.55389
22482.66359
19924.42273
17689.49549
15738.1965
14034.84435
12547.61701
11248.30405
10112.18013
9117.561612
8245.560671
7479.852118
6806.262002
6212.543423
5688.157846
5223.981923
4812.176968
4446.052512
4119.732677
3828.185697
3567.112407
3332.730291
3121.791078
2931.47106
2759.290012
2603.136214
209290.8198
207232.5195
202884.3162
196611.0364
188711.8093
179495.7141
169267.2801
158328.8278
146970.8316
135453.2929
124008.6009
112834.8366
102094.3247
91912.76119
82377.33509
73545.79225
65447.39019
58084.47654
51442.75473
45491.30577
40189.23229
35489.80427
31341.55927
27692.09636
24490.45357
21687.46486
19237.06096
17096.99119
15228.71436
13597.83522
12173.61941
10928.92886
9840.03925
8886.198675
8049.363623
7313.92916
6666.368431
6095.054949
5589.967463
5142.406068
4744.896702
4391.019628
4075.287879
3792.863933
3539.618936
3312.014575
3106.905477
2921.634544
2753.808957
2601.431174
204609.6215
202561.2304
198235.6807
191999.4695
184160.2592
175018.0902
164891.5824
154079.067
142869.2853
131524.6817
120276.0084
109317.6667
98807.0521
88863.83015
79572.79968
70987.18842
63128.54466
55999.08028
49578.49716
43834.60986
38725.82093
34203.065
30214.93421
26709.75201
23637.10035
20948.51751
18599.02926
16547.47409
14756.51242
13192.91091
11827.047
10632.90598
9587.699366
8671.547182
7867.203251
7159.793809
6536.362859
5985.824887
5498.575772
5066.362999
4682.117408
4339.660495
4033.727995
3759.797418
3513.862549
3292.57677
3092.931257
2912.382585
2748.64773
2599.823989
199981.7901
197945.3825
193646.8528
187458.3891
179682.1337
170626.9454
160607.1846
149929.741
138878.9057
127715.9275
116669.004
105929.2172
95649.87268
85946.82305
76899.68436
68554.09599
60932.40129
54028.10947
47821.92273
42277.95843
37353.03841
32998.33251
29162.3726
25793.64801
22842.27775
20260.85867
18005.66973
16036.65701
14317.69549
12816.66049
11505.07485
10357.91239
9353.274572
8472.102421
7697.90694
7016.407179
6415.283109
5884.008778
5413.348302
4995.408193
4623.439829
4291.609321
3994.829287
3728.794477
3489.701444
3274.31263
3079.789534
2903.669951
2743.78215
2598.30743
195409.9637
193387.5095
189122.4558
182986.4078
175278.9212
166319.8447
156417.3769
145880.1973
134996.0011
124021.3669
113181.4464
102663.8834
92619.54764
83156.14029
74348.64092
66241.83901
58849.00028
52165.19477
46164.9901
40812.69083
36064.26304
31869.59248
28177.50791
24937.41212
22100.20424
19619.59752
17452.85209
15561.05875
13909.36098
12466.68454
11205.57911
10102.03055
9135.024502
8286.295709
7540.118332
6882.743596
6302.401717
5788.963717
5333.695887
4929.053362
4568.535428
4246.578522
3958.35296
3699.682422
3466.990906
3257.127527
3067.411492
2895.455264
2739.193386
2596.874866
190896.7036
188892.6457
184665.6215
178583.863
170955.7556
162096.2219
152320.8195
141933.5755
131220.8576
120439.8617
109811.9776
99520.5923
89709.38184
80483.37816
71915.2198
64040.56751
56872.91396
50401.10927
44600.67133
39432.7041
34852.19041
30809.7091
27254.51227
24136.28329
21406.75165
19020.76727
16936.8683
15117.30269
13528.41461
12140.19923
10926.24721
9863.40262
8931.496492
8113.014487
7392.830463
6757.846255
6196.859483
5700.091367
5259.150701
4866.875997
4517.06069
4204.308254
3924.08135
3672.312988
3445.61291
3240.935332
3055.737444
2887.700461
2734.859081
2595.520166
186450.0688
184463.4038
180274.7309
174252.3408
166711.0956
157957.6545
148314.9669
138084.9627
127551.4373
116968.9394
106555.5132
96490.49476
86912.71405
77925.09436
69590.45482
61944.70336
54995.21252
48730.55375
43121.54498
38130.41418
33711.08494
29813.65711
26388.03307
23384.8851
20756.89748
18460.19259
16454.26948
14702.55874
13172.53936
11835.24731
10665.26875
9640.365281
8741.171223
7950.927687
7255.056396
6641.006008
6097.999343
5616.777998
5189.256696
4808.516849
4468.698983
4164.599305
3891.828727
3646.550462
3425.459162
3225.668177
3044.712426
2880.370392
2730.758671
2594.237636
182066.3452
180098.6454
175951.6208
169998.2982
162544.2606
153906.9036
144400.2902
134332.1381
123982.8331
113602.7267
103406.3148
93569.78013
84226.69545
75472.48809
67368.88405
59946.64978
53210.19718
47144.90474
41721.6659
36900.22154
32634.43805
28875.2563
25573.08227
22679.16658
20147.24366
17934.56134
16001.8976
14313.87877
12839.05502
11549.54489
10420.83414
9431.512076
8562.950956
7799.031794
7125.845135
6531.384983
6005.261544
5538.528414
5123.55806
4753.668264
4423.177297
4127.194854
3861.42382
3622.244437
3406.429494
3211.245173
3034.285376
2873.432331
2726.874518
2593.021951
177747.6481
175800.3507
171700.9262
165817.9273
158456.4945
149939.9188
140578.4691
130676.317
120514.1711
110339.6744
100363.1572
90754.50514
81642.7113
73120.41259
65244.13555
58039.8511
51510.70585
45639.12604
40393.96168
35735.76795
31617.45337
27990.12968
24805.04935
22014.55047
19573.56563
17440.40557
15576.92394
13948.9762
12526.10955
11281.41327
10191.3517
9235.358791
8395.545571
7656.38448
7004.482189
6428.301788
5918.011947
5464.926625
5061.673488
4701.971794
4380.261582
4091.89312
3832.721151
3599.272016
3388.430717
3197.593297
3024.408537
2866.855588
2723.190038
2591.868091
173496.6694
171573.4653
167523.3794
161712.0754
154452.0984
146056.5034
136844.6914
127114.3643
117143.5223
107176.4665
97419.52452
88037.60071
79156.68825
70863.38676
63208.97871
56218.85159
49890.55599
44206.27975
39133.82853
34631.90869
30654.29607
27153.12755
24079.87793
21387.78988
19032.95005
16974.88676
15176.66649
13605.33606
12231.48704
11029.08965
9975.474072
9050.829761
8237.948552
7522.024117
6890.156585
6331.231371
5835.735421
5395.484479
5003.300128
4653.14241
4339.725853
4058.508387
3805.574541
3577.518946
3371.38128
3184.64835
3015.036928
2860.611172
2719.689517
2590.771287
37934.6691
33583.57659
29741.27033
26360.31363
23393.40794
20794.86394
18521.99149
16535.29112
14798.98978
13281.21546
11953.53671
10790.97204
9771.719354
8876.678711
8089.272516
7395.21583
6782.163588
6239.509935
5758.023247
5329.810348
4948.077649
4606.915965
4301.32956
4026.86791
3779.831138
3556.878277
3355.204568
3172.349891
3006.128053
2854.673328
2716.358011
2589.72699
)
;

boundaryField
{
    front_top
    {
        type            wedge;
    }
    front_middle
    {
        type            wedge;
    }
    front_bottom
    {
        type            wedge;
    }
    back_top
    {
        type            wedge;
    }
    back_middle
    {
        type            wedge;
    }
    back_bottom
    {
        type            wedge;
    }
    axis_top
    {
        type            symmetryPlane;
    }
    axis_middle
    {
        type            symmetryPlane;
    }
    axis_bottom
    {
        type            symmetryPlane;
    }
    wall_top
    {
        type            calculated;
        value           nonuniform 0();
    }
    wall_middle
    {
        type            calculated;
        value           uniform 2530.329233;
    }
    wall_bottom
    {
        type            calculated;
        value           nonuniform 0();
    }
    inlet
    {
        type            calculated;
        value           nonuniform 0();
    }
    outlet
    {
        type            calculated;
        value           nonuniform 0();
    }
    procBoundary4to3
    {
        type            processor;
        value           nonuniform List<scalar> 
51
(
169318.9823
167418.532
163417.9787
157683.2187
150526.8327
142260.0681
133197.8879
123642.7196
113865.6841
104107.5779
94570.50821
85416.26774
76763.62334
68694.35774
61259.54923
54476.43936
48344.49833
42841.27558
42841.27558
36792.5694
32585.86735
28873.15724
25607.59799
22742.47417
20233.12838
18038.05064
16119.00157
14441.39986
12974.43002
11690.58108
10565.79887
9579.010808
8711.864535
7948.532216
7275.194074
6679.946266
6152.609902
5684.378467
5267.566358
4895.695899
4563.082572
4264.871506
3996.831971
3755.360993
3537.248321
3339.811677
3160.641062
2997.641772
2849.017948
2713.181296
2588.730853
)
;
    }
    procBoundary4to5
    {
        type            processor;
        value           nonuniform List<scalar> 
51
(
284244.3663
282270.823
278084.7339
271997.7513
264237.9628
255035.808
244635.2701
233255.7202
221131.4958
208467.9573
195475.3228
182334.5675
169213.8388
156264.3042
143617.9944
131386.8953
119663.8623
108522.3511
98018.30077
88189.90566
79061.03079
70639.62655
62920.11241
55888.3303
49518.45777
43778.99416
38633.90122
34041.92848
29960.49514
26346.645
23157.67783
20351.77985
17889.32101
15732.91328
13847.90532
11609.04512
11609.04512
10269.92337
9102.970674
8086.038613
7199.683397
6426.77297
5752.429046
5163.435334
4648.404271
4197.438267
3801.972545
3454.522614
3148.638388
2878.710224
2639.886321
)
;
    }
}


// ************************************************************************* //
