/*--------------------------------*- C++ -*----------------------------------*\
  =========                 |
  \\      /  F ield         | OpenFOAM: The Open Source CFD Toolbox
   \\    /   O peration     | Website:  https://openfoam.org
    \\  /    A nd           | Version:  7
     \\/     M anipulation  |
\*---------------------------------------------------------------------------*/
FoamFile
{
    version     2.0;
    format      ascii;
    class       volScalarField;
    location    "0.0006";
    object      thermo:alpha;
}
// * * * * * * * * * * * * * * * * * * * * * * * * * * * * * * * * * * * * * //

dimensions      [1 -1 -1 0 0 0 0];

internalField   nonuniform List<scalar> 
1167
(
0.0001208555457
0.0001208500093
0.0001208381084
0.0001208204185
0.0001207971937
0.0001207669229
0.0001207289717
0.0001206840253
0.0001206292322
0.0001205715058
0.0001205104284
0.0001204370236
0.000120357425
0.0001202716153
0.0001201744046
0.0001200718658
0.0001199607494
0.0001198470984
0.000119720649
0.000119597392
0.0001194602898
0.0001193205623
0.000119164871
0.0001189992883
0.0001188154856
0.0001186250922
0.0001184143398
0.0001181820689
0.0001179384801
0.0001176777959
0.0001174022094
0.0001171035604
0.0001167875695
0.0001164552818
0.0001161064586
0.0001208410823
0.0001208353799
0.000120823121
0.0001208048954
0.0001207807853
0.0001207477129
0.0001207085793
0.0001206598877
0.0001206033553
0.0001205464795
0.0001204805198
0.0001204047806
0.0001203226626
0.0001202341717
0.0001201301085
0.0001200281762
0.0001199115992
0.0001197938774
0.0001196680009
0.0001195412218
0.0001193995435
0.0001192521677
0.0001190931867
0.0001189176233
0.0001187306594
0.0001185325283
0.0001183135332
0.0001180741229
0.0001178277987
0.0001175583952
0.0001172738106
0.0001169742077
0.0001166514697
0.0001163152353
0.0001159623568
0.0001155944233
0.0001152117025
0.0001148145398
0.0001143965633
0.0001139656893
0.0001135287213
0.0001130768623
0.0001126060195
0.0001121356524
0.0001116529327
0.0001111615978
0.0001106721639
0.0001101734854
0.000109663232
0.0001091603771
0.00012082635
0.0001208204777
0.0001208078521
0.0001207890782
0.0001207622169
0.0001207281344
0.0001206868422
0.0001206352906
0.0001205794483
0.0001205209988
0.0001204500901
0.0001203720275
0.0001202874095
0.0001201927447
0.0001200891509
0.000119980175
0.0001198649427
0.0001197391688
0.0001196151893
0.0001194797506
0.0001193398884
0.0001191841514
0.0001190203993
0.000118836897
0.0001186470627
0.0001184391331
0.0001182103181
0.0001179688074
0.0001177132045
0.0001174427245
0.0001171498624
0.0001168426725
0.0001165209037
0.0001161845315
0.0001158267138
0.0001154574709
0.0001150725629
0.0001146747976
0.0001142640716
0.0001138354217
0.0001134056485
0.0001129575691
0.0001124976881
0.0001120361497
0.0001115675573
0.0001110880196
0.0001106143657
0.0001101299072
0.0001096360746
0.0001091510316
0.0001208113455
0.0001208052998
0.0001207923003
0.0001207718128
0.0001207433048
0.0001207081956
0.0001206633775
0.0001206102558
0.0001205553324
0.0001204928421
0.0001204191895
0.0001203388031
0.0001202516971
0.0001201505693
0.0001200480385
0.0001199318004
0.0001198163121
0.000119688668
0.0001195623643
0.0001194205138
0.0001192754158
0.0001191166559
0.000118943638
0.0001187572792
0.0001185623165
0.0001183470251
0.000118109474
0.000117866262
0.0001176019756
0.0001173243806
0.0001170303309
0.0001167162445
0.0001163884461
0.000116047044
0.0001156925302
0.0001153260782
0.0001149408934
0.0001145428713
0.0001141342291
0.0001137132378
0.0001132874843
0.0001128450536
0.0001123967923
0.0001119437126
0.0001114866776
0.0001110199783
0.0001105589595
0.000110088519
0.0001096110864
0.0001091423001
0.0001207960659
0.0001207898441
0.0001207757381
0.0001207534015
0.0001207240536
0.0001206869639
0.0001206395093
0.0001205864731
0.000120530835
0.0001204636888
0.0001203879011
0.000120305192
0.0001202140366
0.0001201097945
0.0001200040114
0.0001198874244
0.0001197645989
0.0001196387859
0.000119506176
0.0001193650321
0.0001192114177
0.0001190498465
0.0001188678863
0.0001186789174
0.0001184748771
0.0001182505316
0.0001180111275
0.0001177613248
0.0001174941437
0.0001172089107
0.0001169105948
0.0001165947813
0.0001162670456
0.0001159219633
0.000115564788
0.0001151960387
0.0001148161988
0.0001144182615
0.0001140111115
0.0001135984168
0.0001131767246
0.0001127398494
0.0001123026571
0.0001118576255
0.0001114100908
0.0001109568086
0.000110507557
0.0001100502035
0.0001095879859
0.0001091342415
0.0001207802775
0.0001207730935
0.0001207576444
0.0001207346644
0.0001207044688
0.0001206640858
0.0001206152535
0.0001205632308
0.0001205049139
0.0001204341456
0.000120356235
0.0001202712408
0.0001201740268
0.0001200708636
0.000119958276
0.0001198431259
0.0001197146018
0.0001195890332
0.0001194484416
0.0001193061229
0.0001191480288
0.0001189787012
0.000118793263
0.0001186019516
0.0001183892655
0.0001181562934
0.0001179153535
0.0001176575048
0.0001173872844
0.0001170974251
0.0001167926797
0.0001164755288
0.0001161462086
0.0001157995965
0.0001154431339
0.0001150725319
0.0001146922293
0.0001143004968
0.0001138950107
0.0001134903653
0.0001130726937
0.0001126412148
0.000112214559
0.0001117772008
0.0001113386581
0.0001108979789
0.0001104597522
0.0001100146153
0.0001095665558
0.000109126776
0.0001207625016
0.0001207551159
0.000120739232
0.0001207156042
0.0001206832495
0.0001206408387
0.0001205917077
0.0001205396548
0.0001204769859
0.00012040427
0.0001203242385
0.0001202369875
0.000120133731
0.0001200315921
0.0001199139632
0.0001197951714
0.0001196676625
0.0001195389631
0.0001193957049
0.0001192460491
0.0001190854028
0.0001189077196
0.0001187199057
0.0001185207504
0.0001183017318
0.0001180643937
0.0001178210137
0.000117556818
0.000117279477
0.0001169898857
0.0001166792367
0.0001163570434
0.0001160238262
0.0001156798897
0.0001153258426
0.000114955158
0.0001145745185
0.0001141862695
0.0001137854101
0.0001133852795
0.0001129715774
0.0001125486449
0.0001121292972
0.000111701953
0.0001112719073
0.0001108430538
0.0001104151745
0.0001099814668
0.000109546616
0.0001091198384
0.0001207444108
0.0001207368223
0.0001207205017
0.0001206961875
0.0001206608113
0.0001206172332
0.0001205692385
0.0001205157626
0.0001204487208
0.0001203740935
0.0001202919907
0.0001201996356
0.0001200963643
0.00011998845
0.000119872243
0.0001197464902
0.0001196208898
0.0001194847811
0.0001193436149
0.000119186663
0.0001190220605
0.0001188378843
0.0001186479294
0.0001184406986
0.0001182136515
0.0001179749082
0.0001177240412
0.0001174593054
0.0001171753434
0.0001168798768
0.0001165701898
0.0001162497497
0.000115912595
0.0001155656371
0.0001152095623
0.0001148436004
0.0001144628653
0.0001140756582
0.0001136818312
0.0001132847857
0.0001128753523
0.0001124615906
0.0001120484738
0.0001116313984
0.000111209415
0.0001107917151
0.0001103735132
0.0001099505157
0.0001095280154
0.0001091133736
0.0001207260042
0.0001207182124
0.0001207014546
0.0001206743456
0.0001206380221
0.0001205940948
0.0001205464631
0.0001204889382
0.000120420146
0.0001203436325
0.0001202594938
0.0001201615133
0.0001200594261
0.0001199452264
0.0001198300582
0.0001197010662
0.0001195743774
0.0001194319598
0.0001192873525
0.0001191280094
0.0001189556488
0.0001187692852
0.000118575896
0.0001183624492
0.0001181277932
0.0001178879072
0.0001176299794
0.0001173608154
0.0001170748057
0.0001167737478
0.0001164620034
0.0001161400041
0.0001158026437
0.0001154565727
0.0001150987955
0.0001147337073
0.0001143569251
0.0001139709002
0.0001135839052
0.0001131899231
0.000112784648
0.0001123796334
0.0001119724581
0.0001115651208
0.000111150777
0.0001107435932
0.0001103345372
0.0001099215561
0.000109510626
0.0001091073356
0.0001207072814
0.0001206992868
0.0001206805177
0.0001206521558
0.0001206148888
0.0001205722491
0.0001205233946
0.000120461805
0.000120391321
0.0001203129346
0.0001202263279
0.0001201236082
0.0001200213361
0.0001199045106
0.0001197843146
0.000119657155
0.0001195265481
0.0001193835536
0.0001192317318
0.0001190701976
0.0001188903394
0.0001187019739
0.0001185010812
0.0001182807576
0.0001180441822
0.0001178008156
0.0001175388063
0.0001172633977
0.0001169772162
0.0001166715813
0.0001163555274
0.0001160297256
0.0001156950944
0.0001153523809
0.0001149932353
0.0001146276765
0.0001142563207
0.0001138715836
0.0001134912159
0.0001131002708
0.000112699055
0.0001123024131
0.0001119009465
0.0001115016397
0.0001110956731
0.0001106984134
0.000110297975
0.0001098944111
0.0001094943381
0.0001091016849
0.0001206873379
0.0001206782488
0.0001206587002
0.0001206296223
0.0001205924203
0.0001205501096
0.0001204983291
0.0001204343812
0.0001203622342
0.0001202820341
0.000120190206
0.0001200887098
0.0001199805977
0.0001198652772
0.0001197387114
0.0001196135085
0.0001194761506
0.0001193344014
0.0001191768498
0.0001190107831
0.0001188261827
0.0001186360493
0.0001184279569
0.0001182004995
0.0001179628287
0.0001177128453
0.0001174505249
0.0001171692917
0.0001168777975
0.0001165733114
0.0001162589235
0.0001159296279
0.0001155922836
0.0001152476957
0.0001148926904
0.0001145268563
0.000114156619
0.0001137774253
0.0001134008506
0.0001130139823
0.0001126181804
0.0001122295343
0.0001118335301
0.0001114405757
0.0001110438487
0.0001106559361
0.0001102636258
0.0001098689523
0.0001094790568
0.0001090963876
0.0001206658776
0.0001206565655
0.0001206365378
0.0001206067495
0.0001205710148
0.000120527685
0.000120472135
0.0001204067017
0.0001203329066
0.0001202509347
0.0001201539217
0.0001200537266
0.0001199398474
0.0001198252079
0.0001196968611
0.0001195701693
0.0001194276124
0.0001192823265
0.0001191227359
0.0001189496831
0.0001187632567
0.0001185695236
0.0001183565343
0.0001181223148
0.0001178837819
0.0001176275539
0.0001173609918
0.000117078419
0.0001167819866
0.0001164761959
0.0001161616207
0.0001158317279
0.0001154939434
0.0001151477307
0.000114796016
0.0001144308805
0.0001140614187
0.0001136880651
0.0001133138214
0.0001129301839
0.0001125417692
0.0001121592328
0.0001117699073
0.0001113830013
0.0001109950486
0.0001106159501
0.0001102313133
0.0001098450204
0.0001094646994
0.0001090914139
0.0001206440693
0.0001206345362
0.0001206140336
0.0001205853369
0.0001205493186
0.0001205038058
0.0001204456549
0.0001203787816
0.0001203033862
0.0001202185013
0.0001201184221
0.0001200172672
0.000119901913
0.0001197823103
0.000119655843
0.0001195254427
0.0001193827136
0.0001192309031
0.0001190694458
0.0001188896569
0.0001187015526
0.0001185011121
0.0001182816085
0.0001180462063
0.0001178046844
0.0001175448652
0.0001172727719
0.0001169906905
0.0001166896836
0.0001163799007
0.000116061985
0.0001157346596
0.000115399909
0.0001150523072
0.0001147000056
0.0001143395629
0.0001139709614
0.0001136032526
0.0001132312948
0.0001128507918
0.0001124694548
0.0001120914257
0.0001117098499
0.0001113286628
0.0001109490277
0.0001105769139
0.0001102008794
0.0001098224931
0.0001094511922
0.0001090867379
0.0001206219154
0.0001206121634
0.0001205922162
0.0001205641691
0.0001205273378
0.0001204783299
0.0001204189025
0.0001203506179
0.0001202736702
0.0001201839777
0.0001200852539
0.0001199787448
0.0001198649855
0.0001197395697
0.0001196150966
0.0001194785646
0.0001193373217
0.0001191801871
0.0001190148462
0.0001188307087
0.0001186411359
0.0001184342553
0.0001182083883
0.0001179721376
0.0001177247414
0.0001174647673
0.0001171875052
0.0001169009325
0.0001166008027
0.0001162913628
0.0001159698824
0.0001156416754
0.000115307634
0.0001149611672
0.000114608426
0.0001142525683
0.0001138849118
0.0001135226949
0.0001131530249
0.0001127755823
0.0001124009743
0.0001120272657
0.0001116530871
0.000111277355
0.000110905584
0.0001105399954
0.0001101721845
0.0001098012644
0.0001094384701
0.0001090823363
0.0001205996155
0.0001205906505
0.0001205713723
0.0001205427097
0.0001205039106
0.0001204525638
0.0001203919171
0.000120322228
0.0001202437646
0.000120149301
0.0001200520073
0.0001199402139
0.0001198274189
0.0001197002314
0.0001195746395
0.0001194329723
0.0001192890477
0.0001191301727
0.0001189585456
0.0001187728758
0.0001185808566
0.0001183689342
0.0001181370327
0.0001179001267
0.0001176471636
0.0001173845601
0.0001171050626
0.0001168140858
0.0001165147501
0.0001162073752
0.0001158830188
0.0001155525787
0.0001152169866
0.0001148741231
0.0001145211032
0.0001141659791
0.0001138030502
0.0001134454965
0.0001130786934
0.0001127042452
0.0001123361273
0.0001119665161
0.0001115993781
0.000111228869
0.0001108645351
0.0001105051329
0.0001101451025
0.0001097812389
0.0001094264748
0.0001090781885
0.0001205790777
0.000120569921
0.0001205502321
0.0001205209636
0.0001204789198
0.0001204265153
0.0001203646767
0.0001202936489
0.000120211936
0.0001201156816
0.0001200172769
0.0001199042469
0.0001197870295
0.0001196617744
0.0001195334786
0.0001193911902
0.0001192413418
0.0001190808971
0.0001189031874
0.0001187161265
0.0001185180955
0.0001183013084
0.000118067487
0.0001178294415
0.0001175718622
0.0001173043403
0.0001170253817
0.0001167303175
0.0001164274028
0.0001161173702
0.0001157957547
0.0001154672027
0.0001151302411
0.0001147898106
0.0001144377338
0.0001140831604
0.0001137251189
0.0001133693238
0.0001130062657
0.0001126365166
0.0001122746174
0.0001119089924
0.0001115485152
0.0001111829843
0.00011082573
0.0001104721812
0.0001101188203
0.0001097623291
0.0001094151531
0.0001090742758
0.0001205582386
0.0001205488931
0.0001205287999
0.000120497098
0.0001204536321
0.0001204002175
0.0001203371897
0.000120264859
0.0001201787106
0.000120083953
0.000119980628
0.0001198692903
0.0001197467539
0.0001196235294
0.0001194896558
0.0001193498103
0.0001191942518
0.0001190315802
0.0001188487703
0.0001186604853
0.0001184566597
0.000118234175
0.0001179997221
0.0001177564272
0.000117498806
0.0001172266501
0.0001169458887
0.000116649461
0.0001163440967
0.000116030501
0.0001157111654
0.0001153853334
0.0001150471951
0.0001147062358
0.000114358169
0.0001140041894
0.0001136508586
0.0001132968126
0.000112936168
0.0001125722139
0.0001122162262
0.0001118544294
0.000111499069
0.0001111395202
0.0001107890159
0.0001104410049
0.0001100937291
0.0001097444551
0.0001094044563
0.0001090705809
0.0001205371026
0.0001205275713
0.0001205061312
0.0001204723598
0.0001204280535
0.0001203736584
0.0001203094839
0.0001202358661
0.0001201453106
0.0001200521192
0.0001199439319
0.0001198342645
0.0001197089365
0.0001195855124
0.0001194461614
0.0001193049438
0.0001191477263
0.0001189793754
0.0001187952697
0.0001186058899
0.0001183965424
0.0001181686309
0.0001179336777
0.0001176853889
0.0001174278593
0.0001171513628
0.0001168666623
0.0001165714074
0.0001162675654
0.0001159513467
0.0001156299308
0.0001153043054
0.0001149676306
0.000114626247
0.0001142821168
0.0001139288238
0.0001135801059
0.0001132277589
0.0001128694527
0.000112511083
0.0001121592946
0.0001118026267
0.0001114515002
0.0001110983096
0.0001107542259
0.0001104114784
0.0001100699775
0.0001097275433
0.0001093943471
0.0001090670884
0.0001205156629
0.0001205048892
0.0001204817293
0.0001204473199
0.0001204022134
0.0001203468371
0.0001202815593
0.0001202042414
0.0001201131896
0.0001200189116
0.0001199092421
0.0001197959267
0.0001196725903
0.0001195476953
0.0001194065433
0.0001192603432
0.0001191017995
0.0001189279072
0.0001187426719
0.0001185487498
0.000118336348
0.0001181045719
0.0001178692871
0.0001176162896
0.0001173544688
0.0001170784027
0.0001167900072
0.0001164944316
0.0001161924698
0.0001158751036
0.0001155518176
0.0001152248846
0.0001148913753
0.0001145497073
0.0001142075742
0.0001138568089
0.0001135125729
0.0001131619542
0.0001128059272
0.0001124529
0.0001121043311
0.0001117533964
0.0001114063244
0.0001110592084
0.0001107212255
0.0001103834856
0.0001100474706
0.0001097115249
0.0001093847797
0.0001090637835
0.0001204915796
0.0001204806061
0.0001204570197
0.0001204219842
0.0001203761034
0.0001203197671
0.000120253407
0.0001201719691
0.0001200825583
0.0001199837249
0.0001198758476
0.0001197576256
0.000119636357
0.0001195066713
0.0001193676402
0.0001192161978
0.0001190564126
0.0001188772032
0.0001186909285
0.0001184917658
0.0001182742311
0.0001180419822
0.0001178041383
0.0001175489953
0.0001172829954
0.0001170076175
0.0001167157851
0.0001164172133
0.0001161127378
0.0001157978735
0.0001154766725
0.0001151485675
0.0001148181781
0.0001144763338
0.0001141345934
0.0001137879898
0.0001134475272
0.0001130991432
0.0001127453795
0.0001123974745
0.0001120520033
0.0001117066049
0.0001113633747
0.0001110220814
0.0001106898884
0.0001103569371
0.0001100261196
0.0001096963361
0.0001093757116
0.0001090606528
0.0001204671843
0.0001204560144
0.0001204320086
0.0001203963892
0.0001203497201
0.0001202924721
0.0001202244019
0.0001201394897
0.0001200517815
0.0001199484332
0.0001198424162
0.0001197205199
0.0001196002681
0.0001194655318
0.0001193271205
0.000119172472
0.0001190089208
0.0001188271741
0.0001186400209
0.0001184358162
0.0001182133335
0.0001179807405
0.0001177383944
0.0001174834454
0.0001172135166
0.0001169358592
0.0001166438492
0.0001163433933
0.0001160356816
0.0001157230141
0.0001154042912
0.0001150751827
0.0001147445911
0.000114405942
0.0001140646341
0.0001137220983
0.0001133829989
0.0001130386804
0.0001126875702
0.0001123446438
0.0001120021243
0.0001116620365
0.0001113224921
0.0001109867629
0.0001106600947
0.0001103317169
0.0001100058405
0.0001096819164
0.0001093671066
0.0001090576835
0.000120442484
0.0001204311208
0.0001204067204
0.0001203705122
0.0001203230728
0.0001202649308
0.0001201929941
0.0001201087066
0.0001200196521
0.0001199145461
0.0001198063386
0.0001196857977
0.0001195642742
0.0001194261434
0.0001192849449
0.0001191291399
0.0001189605192
0.0001187778223
0.0001185894245
0.0001183808183
0.0001181536194
0.000117920807
0.0001176741529
0.0001174190518
0.0001171458476
0.0001168648448
0.0001165740562
0.0001162751055
0.0001159649704
0.0001156507405
0.0001153334639
0.0001150044849
0.0001146735332
0.0001143383366
0.0001139975353
0.000113658923
0.0001133211944
0.0001129787462
0.0001126323001
0.0001122941766
0.0001119545338
0.0001116195266
0.0001112835418
0.0001109531192
0.0001106317299
0.0001103077191
0.0001099865538
0.0001096682088
0.0001093589303
0.0001090548636
0.0001204174902
0.0001204059511
0.0001203811585
0.000120344358
0.0001202961934
0.0001202371475
0.0001201613484
0.0001200788424
0.0001199855232
0.0001198823052
0.0001197695144
0.0001196510903
0.0001195267696
0.0001193891246
0.0001192430303
0.0001190861895
0.0001189126205
0.0001187290723
0.0001185358676
0.0001183245431
0.0001180949628
0.0001178620593
0.0001176113236
0.0001173524195
0.0001170799138
0.0001167957484
0.0001165052798
0.0001162088435
0.0001158966634
0.0001155808486
0.0001152624646
0.0001149363323
0.0001146050842
0.0001142732748
0.0001139330491
0.0001135983188
0.000113261908
0.0001129213081
0.0001125794198
0.0001122458941
0.0001119090661
0.0001115789179
0.0001112463791
0.0001109210222
0.0001106043484
0.0001102848495
0.0001099681832
0.0001096551587
0.0001093511497
0.0001090521818
0.000118483005
0.0001182671381
0.0001180373387
0.0001178019413
0.0001175497727
0.0001172872429
0.000117015544
0.0001167284234
0.0001164353941
0.000116137353
0.000115828245
0.0001155131354
0.000115193763
0.000114870484
0.0001145390692
0.0001142088235
0.0001138709538
0.0001135400275
0.0001132049871
0.0001128661678
0.0001125287098
0.0001121996227
0.0001118655259
0.000111540059
0.0001112108417
0.0001108903486
0.0001105775232
0.000110263018
0.0001099506557
0.0001096427173
0.0001093437336
0.0001090496271
)
;

boundaryField
{
    front_top
    {
        type            wedge;
    }
    front_middle
    {
        type            wedge;
    }
    front_bottom
    {
        type            wedge;
    }
    back_top
    {
        type            wedge;
    }
    back_middle
    {
        type            wedge;
    }
    back_bottom
    {
        type            wedge;
    }
    axis_top
    {
        type            symmetryPlane;
    }
    axis_middle
    {
        type            symmetryPlane;
    }
    axis_bottom
    {
        type            symmetryPlane;
    }
    wall_top
    {
        type            calculated;
        value           nonuniform 0();
    }
    wall_middle
    {
        type            calculated;
        value           uniform 0.0001089022317;
    }
    wall_bottom
    {
        type            calculated;
        value           nonuniform 0();
    }
    inlet
    {
        type            calculated;
        value           nonuniform 0();
    }
    outlet
    {
        type            calculated;
        value           nonuniform 0();
    }
    procBoundary4to3
    {
        type            processor;
        value           nonuniform List<scalar> 
51
(
0.0001203922341
0.0001203805076
0.000120355316
0.0001203179434
0.0001202690578
0.0001202069328
0.0001201294677
0.0001200487952
0.0001199512331
0.0001198499613
0.0001197326319
0.0001196164124
0.0001194873783
0.0001193522416
0.00011920139
0.0001190435558
0.0001188651986
0.0001186808915
0.0001186808915
0.0001184308171
0.0001182105312
0.0001179806009
0.0001177412283
0.0001174894225
0.0001172234525
0.0001169504405
0.0001166626984
0.0001163672616
0.0001160672435
0.0001157602384
0.000115447457
0.0001151272063
0.000114806428
0.0001144752361
0.000114145363
0.0001138110849
0.0001134838497
0.0001131501923
0.0001128131525
0.0001124799785
0.0001121535074
0.0001118237498
0.0001115016656
0.0001111767912
0.0001108609777
0.0001105518528
0.0001102421382
0.0001099339012
0.0001096308386
0.0001093366518
0.000109047189
)
;
    }
    procBoundary4to5
    {
        type            processor;
        value           nonuniform List<scalar> 
51
(
0.000120871106
0.0001208650568
0.0001208528161
0.0001208356471
0.0001208131129
0.0001207853902
0.0001207489603
0.0001207065904
0.0001206545962
0.0001205960437
0.0001205374088
0.0001204686962
0.0001203915893
0.0001203084557
0.0001202180513
0.0001201145523
0.0001200111469
0.0001198961553
0.0001197771079
0.0001196530685
0.0001195252215
0.0001193853804
0.0001192369546
0.000119078221
0.0001189013646
0.0001187141783
0.0001185140616
0.0001182924901
0.0001180513613
0.000117800857
0.0001175281471
0.0001172370982
0.0001169294539
0.0001165999316
0.0001162558181
0.0001157387834
0.0001157387834
0.0001153585932
0.0001149557555
0.0001145376173
0.0001141047956
0.000113657977
0.0001132008542
0.0001127227639
0.0001122411767
0.0001117453391
0.0001112414241
0.000110735009
0.0001102206372
0.0001096928895
0.0001091704154
)
;
    }
}


// ************************************************************************* //
