/*--------------------------------*- C++ -*----------------------------------*\
  =========                 |
  \\      /  F ield         | OpenFOAM: The Open Source CFD Toolbox
   \\    /   O peration     | Website:  https://openfoam.org
    \\  /    A nd           | Version:  7
     \\/     M anipulation  |
\*---------------------------------------------------------------------------*/
FoamFile
{
    version     2.0;
    format      ascii;
    class       volVectorField;
    location    "0.0006";
    object      U;
}
// * * * * * * * * * * * * * * * * * * * * * * * * * * * * * * * * * * * * * //

dimensions      [0 1 -1 0 0 0 0];

internalField   nonuniform List<vector> 
1167
(
(-6.287836381e-05 -2.284558854e-19 -0.004350764015)
(-0.0001623884494 -4.872828892e-19 -0.004347423623)
(-0.0002554325178 -5.513101975e-19 -0.004340176582)
(-0.0003512883373 -1.277452183e-18 -0.004329318181)
(-0.0004443792332 -2.168449589e-18 -0.004315232159)
(-0.0005342381291 -2.814106877e-18 -0.004298172227)
(-0.0006207803271 -3.269860142e-18 -0.004278343847)
(-0.0007038157285 -4.095667068e-18 -0.004255956862)
(-0.0007832135707 -3.255898765e-18 -0.004231210535)
(-0.0008588927318 -3.763360899e-18 -0.004204293585)
(-0.0009308047599 -3.630425127e-18 -0.004175381001)
(-0.0009989277701 -3.322555986e-18 -0.004144634948)
(-0.00106326247 -3.345507704e-18 -0.004112203357)
(-0.001123828109 -3.346458011e-18 -0.004078218675)
(-0.001180658192 -3.253230336e-18 -0.004042797249)
(-0.001233797135 -3.061211344e-18 -0.004006039171)
(-0.001283297194 -2.901237937e-18 -0.003968027963)
(-0.001329215708 -2.828298689e-18 -0.00392883052)
(-0.001371612451 -3.370858132e-18 -0.003888497283)
(-0.001410547521 -2.710559604e-18 -0.003847062693)
(-0.001446079788 -2.647708102e-18 -0.003804545519)
(-0.00147826493 -2.539800597e-18 -0.003760949093)
(-0.00150715447 -2.403599874e-18 -0.003716262177)
(-0.001532794275 -2.234082613e-18 -0.00367045862)
(-0.001555223956 -2.408034366e-18 -0.003623498013)
(-0.001574475464 -2.439670114e-18 -0.003575324672)
(-0.00159057174 -2.6542771e-18 -0.003525867066)
(-0.001603525611 -2.598051231e-18 -0.003475036429)
(-0.001613337871 -2.522057172e-18 -0.003422724152)
(-0.001619994596 -2.365678407e-18 -0.003368798136)
(-0.001623463642 -2.41771132e-18 -0.003313097913)
(-0.00162369016 -2.389052589e-18 -0.003255427478)
(-0.001620589847 -2.316315653e-18 -0.003195544948)
(-0.001614039523 -2.29781225e-18 -0.003133148024)
(-0.001603863525 -2.288974764e-18 -0.003067852818)
(-6.496924987e-05 -3.489334327e-19 -0.00451855649)
(-0.0001678368852 -8.2146392e-19 -0.004514930477)
(-0.0002640093512 -7.049510719e-19 -0.00450704088)
(-0.0003630501837 -1.725361738e-18 -0.004495240314)
(-0.0004592466762 -9.384569247e-19 -0.004479937305)
(-0.0005520877188 -2.838747857e-18 -0.004461410996)
(-0.0006414863793 -4.05511209e-18 -0.004439891947)
(-0.0007272461749 -4.176649186e-18 -0.004415612849)
(-0.0008092303005 -3.66909577e-18 -0.004388796089)
(-0.0008873532817 -3.503921562e-18 -0.004359651165)
(-0.0009615633611 -3.490856301e-18 -0.004328374249)
(-0.001031836768 -3.267357965e-18 -0.004295145593)
(-0.001098172784 -3.137054704e-18 -0.004260129805)
(-0.001160589413 -3.097061711e-18 -0.004223474303)
(-0.001219119423 -3.122549682e-18 -0.004185308616)
(-0.001273806804 -3.143398964e-18 -0.004145744027)
(-0.001324703517 -2.987437866e-18 -0.004104873486)
(-0.001371866705 -3.047373944e-18 -0.004062771591)
(-0.001415356107 -3.01585354e-18 -0.004019494869)
(-0.001455232006 -2.831797529e-18 -0.003975082291)
(-0.001491553122 -2.661455355e-18 -0.00392955596)
(-0.001524375527 -2.570689517e-18 -0.003882921787)
(-0.00155375101 -2.533730972e-18 -0.003835169599)
(-0.001579726128 -2.458688547e-18 -0.003786274219)
(-0.001602341223 -2.583746156e-18 -0.00373619493)
(-0.001621628927 -2.718946475e-18 -0.003684875394)
(-0.001637613266 -2.752518016e-18 -0.003632242945)
(-0.001650308031 -2.41059392e-18 -0.003578206806)
(-0.001659714805 -2.712929648e-18 -0.003522655565)
(-0.001665820007 -2.42573662e-18 -0.003465453273)
(-0.001668591309 -1.975168217e-18 -0.003406434224)
(-0.001667972641 -2.214563987e-18 -0.003345395123)
(-0.001663876864 -2.298076575e-18 -0.003282083982)
(-0.001656175736 -1.997644785e-18 -0.003216184282)
(-0.001644685042 -2.007865168e-18 -0.00314729194)
(-0.001629143318 -1.910723482e-18 -0.003074882044)
(-0.001609180608 -2.004649411e-18 -0.002998259864)
(-0.0015842731 -2.086198793e-18 -0.002916489705)
(-0.001553679441 -1.833504242e-18 -0.002828293538)
(-0.001516355558 -1.654085607e-18 -0.0027319139)
(-0.00147085178 -1.707318933e-18 -0.002624945417)
(-0.001415206533 -1.330379914e-18 -0.002504155483)
(-0.001346860404 -1.729876991e-18 -0.002365324921)
(-0.001262610596 -1.84867428e-18 -0.00220313462)
(-0.001158610762 -1.444549354e-18 -0.002011100024)
(-0.001030410379 -1.393485878e-18 -0.001781531596)
(-0.0008730278439 -9.356945765e-19 -0.001505495794)
(-0.0006809652667 -8.095701928e-19 -0.001172809438)
(-0.0004479126924 -5.911422604e-19 -0.0007722043206)
(-0.0001660105023 -2.876288759e-19 -0.0002917470247)
(-6.701608952e-05 -5.692876236e-19 -0.004694304678)
(-0.0001731752154 -1.335282553e-18 -0.004690381194)
(-0.0002724166755 -4.502872173e-18 -0.004681826092)
(-0.0003745829674 -2.296308936e-18 -0.0046690487)
(-0.000473832794 -3.329597565e-18 -0.004652482774)
(-0.0005696116783 -4.08112698e-18 -0.004632434542)
(-0.0006618310066 -4.060851808e-18 -0.004609159659)
(-0.0007502881128 -4.103353572e-18 -0.004582913646)
(-0.0008348401663 -3.523130533e-18 -0.004553942987)
(-0.0009153975947 -3.613153895e-18 -0.004522478153)
(-0.0009919049715 -3.32840659e-18 -0.004488735484)
(-0.001064335602 -2.868544107e-18 -0.004452914729)
(-0.001132686645 -2.888141142e-18 -0.004415197058)
(-0.001196974094 -2.876794465e-18 -0.00437574468)
(-0.001257229008 -2.183202541e-18 -0.00433470027)
(-0.001313493822 -3.020280767e-18 -0.004292186354)
(-0.001365819202 -3.294619059e-18 -0.00424830543)
(-0.001414261078 -3.436009988e-18 -0.00420313977)
(-0.001458878013 -2.673270545e-18 -0.00415675218)
(-0.001499729362 -2.603524443e-18 -0.004109186656)
(-0.00153687331 -2.550037755e-18 -0.004060468764)
(-0.001570365375 -2.516289199e-18 -0.004010607118)
(-0.001600257168 -2.380538734e-18 -0.003959593572)
(-0.001626595549 -2.477367817e-18 -0.003907403953)
(-0.001649421034 -2.598108172e-18 -0.003853997997)
(-0.001668767042 -2.732442904e-18 -0.003799319385)
(-0.00168465845 -2.758042716e-18 -0.003743294649)
(-0.001697109932 -2.601331686e-18 -0.00368583148)
(-0.001706123688 -2.573115226e-18 -0.003626816032)
(-0.001711686476 -2.345500441e-18 -0.003566108967)
(-0.001713765833 -2.671413854e-18 -0.003503539527)
(-0.001712304381 -2.2183841e-18 -0.003438897042)
(-0.001707212034 -2.185095378e-18 -0.003371919022)
(-0.001698355087 -2.017728845e-18 -0.003302274027)
(-0.001685540382 -2.220502563e-18 -0.0032295369)
(-0.001668492609 -1.807754613e-18 -0.003153152688)
(-0.00164682113 -1.63970642e-18 -0.003072384349)
(-0.001619972748 -1.370341029e-18 -0.002986237521)
(-0.001587166503 -2.076789736e-18 -0.002893355688)
(-0.001547309866 -1.605164578e-18 -0.002791883592)
(-0.001498902654 -1.3807794e-18 -0.002679307929)
(-0.00143994531 -1.416142693e-18 -0.002552299878)
(-0.001367874504 -1.357907815e-18 -0.002406590541)
(-0.001279541592 -1.557444651e-18 -0.002236899275)
(-0.00117123248 -1.434043758e-18 -0.002036908637)
(-0.001038719786 -1.239777889e-18 -0.001799259913)
(-0.0008773409898 -1.021576267e-18 -0.001515544053)
(-0.0006820113531 -8.092328452e-19 -0.001176323597)
(-0.000446927443 -5.466900197e-19 -0.0007713176546)
(-0.0001648819734 -2.489298204e-19 -0.0002897994416)
(-6.902669707e-05 -7.243836982e-19 -0.004878134448)
(-0.0001784234716 -1.704118237e-18 -0.004873903311)
(-0.0002806859911 -2.538673879e-18 -0.004864663726)
(-0.0003859297809 -2.156650166e-18 -0.004850880383)
(-0.0004881925453 -1.069355764e-18 -0.004833013152)
(-0.0005868770598 -3.540407286e-18 -0.00481139658)
(-0.0006818924947 -5.568288566e-18 -0.004786310139)
(-0.0007730310562 -3.202817162e-18 -0.004758033547)
(-0.000860143791 -3.61144337e-18 -0.004726835934)
(-0.0009431363629 -3.566926841e-18 -0.004692970408)
(-0.001021949885 -3.323628304e-18 -0.004656672663)
(-0.001096553935 -3.061095892e-18 -0.004618160892)
(-0.001166942245 -3.03049454e-18 -0.004577633365)
(-0.001233128046 -2.934010418e-18 -0.004535267262)
(-0.001295139716 -2.657930887e-18 -0.004491218163)
(-0.001353017195 -2.440630691e-18 -0.004445619692)
(-0.001406808618 -2.948365344e-18 -0.004398583645)
(-0.00145656747 -3.082712051e-18 -0.004350200207)
(-0.001502350512 -2.746674322e-18 -0.004300538689)
(-0.001544215264 -2.599311755e-18 -0.004249648063)
(-0.001582218547 -2.686948507e-18 -0.004197558327)
(-0.001616414764 -2.385354059e-18 -0.004144280902)
(-0.001646855129 -2.375388149e-18 -0.004089810308)
(-0.001673585996 -2.437835766e-18 -0.004034123832)
(-0.001696648154 -2.424109448e-18 -0.003977182573)
(-0.001716075615 -2.638167553e-18 -0.003918930628)
(-0.001731893824 -2.744662792e-18 -0.003859294276)
(-0.001744118222 -2.841671204e-18 -0.003798180378)
(-0.001752751686 -2.753068111e-18 -0.003735473209)
(-0.001757781381 -2.635469114e-18 -0.0036710303)
(-0.001759174552 -2.723890488e-18 -0.003604675986)
(-0.001756872361 -2.372855024e-18 -0.003536192272)
(-0.001750781637 -2.254910128e-18 -0.003465305951)
(-0.001740762956 -2.148654108e-18 -0.003391670023)
(-0.001726613871 -2.044009672e-18 -0.003314837197)
(-0.001708044714 -1.99421511e-18 -0.003234221304)
(-0.001684643866 -1.873464289e-18 -0.003149041817)
(-0.001655828936 -1.735545255e-18 -0.003058244981)
(-0.001620780908 -1.734415033e-18 -0.002960396876)
(-0.001578362577 -1.741166879e-18 -0.002853549144)
(-0.001527030129 -1.915689301e-18 -0.002735091028)
(-0.00146475605 -1.399770703e-18 -0.002601614962)
(-0.001388984378 -1.314535462e-18 -0.0024488248)
(-0.001296628828 -1.353744967e-18 -0.002271499871)
(-0.001184107226 -1.097228891e-18 -0.002063501839)
(-0.00104740206 -1.220349217e-18 -0.001817796374)
(-0.0008821412172 -1.087292378e-18 -0.001526465926)
(-0.0006836077355 -9.245106824e-19 -0.00118075129)
(-0.0004464425385 -5.689128871e-19 -0.0007712506213)
(-0.0001640075843 3.455489433e-20 -0.0002882939364)
(-7.101106014e-05 4.461960978e-20 -0.005070201066)
(-0.0001836073696 -6.535054881e-19 -0.005065653847)
(-0.0002888575233 -8.812275527e-19 -0.005055714633)
(-0.0003971458637 -1.620151111e-18 -0.005040901995)
(-0.0005023962912 -3.534568558e-18 -0.005021703257)
(-0.0006039682658 -2.899084472e-18 -0.004998480343)
(-0.000701768809 -3.769395846e-18 -0.004971536328)
(-0.0007955855939 -3.488987371e-18 -0.004941175778)
(-0.000885263723 -3.488030921e-18 -0.004907689548)
(-0.0009707036149 -3.52415642e-18 -0.004871352519)
(-0.001051841944 -3.156406289e-18 -0.004832420702)
(-0.001128644322 -3.177910462e-18 -0.004791129854)
(-0.00120110041 -3.177273347e-18 -0.00474769459)
(-0.001269219408 -3.210189797e-18 -0.00470230673)
(-0.00133302589 -2.9824951e-18 -0.00465513464)
(-0.001392556167 -2.573499574e-18 -0.004606322973)
(-0.001447854974 -2.888683287e-18 -0.004555992856)
(-0.001498972794 -2.587693762e-18 -0.004504242366)
(-0.001545963292 -2.671897282e-18 -0.004451147399)
(-0.001588881557 -2.609265212e-18 -0.004396762564)
(-0.001627782314 -2.474416838e-18 -0.004341122177)
(-0.001662718641 -2.24157836e-18 -0.00428424173)
(-0.001693740498 -2.787923494e-18 -0.00422611836)
(-0.001720893768 -2.249116751e-18 -0.004166732103)
(-0.001744219425 -2.648199953e-18 -0.004106045743)
(-0.001763751522 -2.536267018e-18 -0.004044004474)
(-0.001779516131 -2.340485986e-18 -0.003980535251)
(-0.001791529507 -2.669588831e-18 -0.003915544619)
(-0.001799795173 -2.687106513e-18 -0.003848915548)
(-0.001804300644 -2.623769334e-18 -0.003780502753)
(-0.001805012712 -2.4166193e-18 -0.003710125789)
(-0.001801870905 -2.692437681e-18 -0.003637559314)
(-0.001794778688 -2.165389807e-18 -0.003562519171)
(-0.001783590707 -2.20571196e-18 -0.003484642421)
(-0.001768094946 -2.549755015e-18 -0.003403458871)
(-0.001747987107 -2.140527574e-18 -0.003318350089)
(-0.001722834454 -2.147871675e-18 -0.003228490992)
(-0.001692025786 -1.919291679e-18 -0.003132768249)
(-0.001654705703 -1.91926763e-18 -0.003029672317)
(-0.001609696224 -1.501042636e-18 -0.002917167214)
(-0.001555416621 -1.807292632e-18 -0.002792555589)
(-0.001489820357 -1.758649108e-18 -0.00265236735)
(-0.001410367613 -1.590365905e-18 -0.002492297806)
(-0.001314039199 -1.568911242e-18 -0.002307201832)
(-0.001197381734 -1.122040243e-18 -0.002091126015)
(-0.001056573603 -9.926269489e-19 -0.001837349909)
(-0.0008875065876 -8.304633332e-19 -0.001538414519)
(-0.0006857919618 -6.37619644e-19 -0.001186178124)
(-0.0004464620165 -4.26790871e-19 -0.0007720250891)
(-0.0001633776438 -2.178835334e-19 -0.0002872165459)
(-7.298123776e-05 5.881927473e-18 -0.005270697142)
(-0.0001887578415 3.107303939e-18 -0.005265826841)
(-0.0002969797366 1.348351275e-18 -0.005255176656)
(-0.0004082981551 -8.680976131e-19 -0.005239317628)
(-0.0005165285752 -1.730666675e-18 -0.0052187643)
(-0.0006209858547 -2.328225734e-18 -0.005193904833)
(-0.0007215759311 -2.548492619e-18 -0.005165066942)
(-0.0008180819626 -3.463761464e-18 -0.005132578143)
(-0.0009103428877 -3.005979553e-18 -0.005096751994)
(-0.0009982539814 -2.283214013e-18 -0.005057883211)
(-0.001081746545 -3.60061297e-18 -0.005016247394)
(-0.001160781379 -3.657179343e-18 -0.004972098291)
(-0.001235343366 -3.15732857e-18 -0.004925665971)
(-0.001305436834 -3.537707042e-18 -0.004877156249)
(-0.001371081615 -3.141088735e-18 -0.004826749965)
(-0.001432309536 -3.144105814e-18 -0.004774602542)
(-0.001489160923 -2.738439431e-18 -0.004720844346)
(-0.001541682145 -2.626410588e-18 -0.004665581567)
(-0.001589923473 -2.691469269e-18 -0.004608896809)
(-0.00163393678 -2.633101284e-18 -0.004550850571)
(-0.001673774312 -2.030296903e-18 -0.004491482366)
(-0.001709487087 -2.456267553e-18 -0.004430811827)
(-0.001741123657 -2.480970351e-18 -0.00436884001)
(-0.001768729489 -2.603095392e-18 -0.00430555012)
(-0.001792344997 -2.613866922e-18 -0.004240907324)
(-0.001812004408 -2.372432527e-18 -0.004174858972)
(-0.001827734575 -2.526645196e-18 -0.004107333391)
(-0.001839552389 -2.4927687e-18 -0.004038237376)
(-0.001847461906 -2.736221357e-18 -0.003967453033)
(-0.001851450871 -2.368587607e-18 -0.003894832698)
(-0.001851485496 -2.268130126e-18 -0.003820191406)
(-0.00184750356 -2.261436735e-18 -0.003743296472)
(-0.001839404894 -2.537879695e-18 -0.003663852502)
(-0.001827037892 -2.208850491e-18 -0.003581480155)
(-0.001810180661 -2.365220054e-18 -0.003495685724)
(-0.001788514142 -2.388373717e-18 -0.003405817847)
(-0.001761584608 -2.18927679e-18 -0.003311006359)
(-0.001728752765 -2.039326377e-18 -0.003210078624)
(-0.001689128763 -1.930697206e-18 -0.003101451774)
(-0.001641497697 -1.946732918e-18 -0.002983008122)
(-0.001584248001 -2.134517206e-18 -0.002851974217)
(-0.001515321556 -2.354158439e-18 -0.002704831801)
(-0.00143220119 -2.419868458e-18 -0.002537282854)
(-0.001331937142 -1.762816671e-18 -0.00234426887)
(-0.001211199885 -1.642914692e-18 -0.00212002274)
(-0.001066349476 -1.204067454e-18 -0.00185812459)
(-0.0008935171483 -7.440953775e-19 -0.00155154159)
(-0.0006886073776 -1.878249797e-19 -0.001192694369)
(-0.0004469977688 1.371396958e-19 -0.0007736725707)
(-0.0001629876789 6.816133137e-20 -0.0002865615696)
(-7.495101906e-05 2.247385898e-18 -0.005479860049)
(-0.0001939106843 4.240678106e-18 -0.005474661526)
(-0.0003051093216 2.939037855e-18 -0.005463293139)
(-0.0004194645547 1.215936987e-18 -0.005446375931)
(-0.0005306865466 -6.16144816e-19 -0.005424450774)
(-0.0006380453721 -1.770868861e-18 -0.005397932038)
(-0.0007414464057 -2.771223992e-18 -0.005367172059)
(-0.0008406683657 -3.374021075e-18 -0.005332519427)
(-0.0009355435369 -3.829246063e-18 -0.005294310014)
(-0.001025961647 -3.393533287e-18 -0.005252858299)
(-0.001111848736 -3.372383871e-18 -0.005208457811)
(-0.001193159683 -3.411441985e-18 -0.00516137903)
(-0.001269873633 -3.976299231e-18 -0.005111867383)
(-0.00134198943 -2.785861265e-18 -0.005060142133)
(-0.001409521262 -3.541677145e-18 -0.00500639597)
(-0.001472495501 -3.379071297e-18 -0.004950794974)
(-0.001530947482 -3.217287166e-18 -0.004893478658)
(-0.001584919075 -3.825803812e-18 -0.004834561281)
(-0.001634456112 -2.980066895e-18 -0.004774132596)
(-0.001679607016 -2.581515616e-18 -0.004712259397)
(-0.001720420963 -2.733496799e-18 -0.004648986651)
(-0.001756946579 -3.207928778e-18 -0.004584339183)
(-0.001789231152 -2.936193774e-18 -0.004518322591)
(-0.001817318924 -2.597545599e-18 -0.00445092384)
(-0.001841249891 -2.551727438e-18 -0.004382111678)
(-0.001861058668 -2.476021125e-18 -0.004311836373)
(-0.001876772562 -2.483371062e-18 -0.004240028138)
(-0.001888408966 -2.867234124e-18 -0.004166594745)
(-0.001895972442 -2.353132969e-18 -0.004091418025)
(-0.001899450809 -2.247509244e-18 -0.004014348309)
(-0.001898809564 -2.387242953e-18 -0.003935196428)
(-0.00189398462 -2.33547019e-18 -0.003853722407)
(-0.001884871957 -1.504946859e-18 -0.003769619435)
(-0.001871313478 -1.663744876e-18 -0.003682491339)
(-0.001853077121 -2.11608049e-18 -0.003591820335)
(-0.001829828893 -2.06381174e-18 -0.003496921592)
(-0.001801094287 -1.894936403e-18 -0.003396879708)
(-0.001766206861 -1.86294225e-18 -0.003290463579)
(-0.001724244472 -2.08888012e-18 -0.003176019913)
(-0.001673959113 -1.7476251e-18 -0.003051355481)
(-0.001613713876 -1.381885067e-18 -0.002913630619)
(-0.001541445134 -1.81086104e-18 -0.002759291358)
(-0.001454662823 -1.89954734e-18 -0.002584058254)
(-0.001350486802 -1.515008748e-18 -0.002382966467)
(-0.001225705135 -1.937539011e-18 -0.00215043304)
(-0.001076845365 -1.466922278e-18 -0.001880323363)
(-0.0009002555147 -1.078965755e-18 -0.001565999542)
(-0.0006921021613 -6.674033939e-19 -0.001200394439)
(-0.0004480676258 -6.394790508e-19 -0.0007762318022)
(-0.0001628369975 -2.043890365e-20 -0.000286329176)
(-7.693630013e-05 -1.379848865e-18 -0.00569798128)
(-0.0001991069141 1.292813158e-18 -0.005692451142)
(-0.0003133105033 2.288233431e-18 -0.005680360584)
(-0.0004307322794 1.64435449e-18 -0.005662377333)
(-0.0005449789182 5.457296234e-19 -0.005639067793)
(-0.0006552760477 -1.721278481e-18 -0.005610873681)
(-0.0007615278801 -2.145618778e-18 -0.005578169453)
(-0.0008635091224 -2.592715441e-18 -0.005541325081)
(-0.0009610453037 -2.948203198e-18 -0.005500695749)
(-0.001054019689 -3.061028099e-18 -0.005456616011)
(-0.001142352543 -3.027269273e-18 -0.005409396472)
(-0.001225992533 -3.681693438e-18 -0.005359323036)
(-0.001304912469 -3.597867996e-18 -0.005306655502)
(-0.001379104771 -3.597962126e-18 -0.005251625965)
(-0.001448577429 -3.534749261e-18 -0.005194438574)
(-0.001513350891 -3.462398462e-18 -0.005135269728)
(-0.001573454773 -3.112047629e-18 -0.005074268047)
(-0.001628925556 -3.631527523e-18 -0.005011555935)
(-0.001679804629 -3.138751141e-18 -0.004947230457)
(-0.001726136295 -3.54947878e-18 -0.00488136516)
(-0.001767966392 -3.07482751e-18 -0.004814011294)
(-0.001805341287 -3.331655283e-18 -0.004745199443)
(-0.001838306262 -3.120212678e-18 -0.004674940409)
(-0.001866904504 -2.872742742e-18 -0.004603226012)
(-0.001891175729 -2.769636909e-18 -0.0045300294)
(-0.001911154593 -2.613775314e-18 -0.004455304277)
(-0.001926868645 -2.526852651e-18 -0.004378983579)
(-0.001938335747 -2.396306823e-18 -0.004300976894)
(-0.001945560985 -2.386955423e-18 -0.004221166393)
(-0.001948532167 -1.870667593e-18 -0.004139400791)
(-0.001947213972 -2.657197975e-18 -0.0040554869)
(-0.001941540194 -1.605992266e-18 -0.003969177516)
(-0.00193140277 -1.995507663e-18 -0.003880154362)
(-0.001916636914 -2.078355875e-18 -0.003788004124)
(-0.00189700021 -2.459636295e-18 -0.003692184546)
(-0.001872143678 -1.963970857e-18 -0.00359197697)
(-0.001841572344 -1.861298648e-18 -0.003486420899)
(-0.001804593635 -1.321165382e-18 -0.003374227988)
(-0.001760255271 -1.386856592e-18 -0.003253677776)
(-0.001707279741 -1.134821851e-18 -0.003122507686)
(-0.001644009581 -1.267434357e-18 -0.002977820924)
(-0.001568380454 -1.31243209e-18 -0.002816038334)
(-0.001477932165 -1.496228716e-18 -0.002632907992)
(-0.001369852805 -1.453935047e-18 -0.002423562428)
(-0.001241040878 -1.410590386e-18 -0.002182598072)
(-0.001088177662 -1.003928338e-18 -0.001904149451)
(-0.0009078068014 -1.055364019e-18 -0.00158194298)
(-0.0006963284896 -4.584961452e-19 -0.001209377438)
(-0.000449694061 -3.546579623e-19 -0.0007797479579)
(-0.0001629278005 -3.312241854e-19 -0.0002865242635)
(-7.895462594e-05 -7.325951057e-18 -0.005925414934)
(-0.000204391749 -1.630387279e-18 -0.005919550646)
(-0.0003216538251 1.857329391e-18 -0.005906735774)
(-0.0004421965204 1.829735074e-18 -0.005887680996)
(-0.0005595248238 7.618085563e-19 -0.005862979056)
(-0.0006728192366 3.921489696e-19 -0.005833097812)
(-0.0007819820294 -1.598863669e-18 -0.005798431744)
(-0.0008867835909 -2.109062044e-18 -0.005759372129)
(-0.0009870431544 -2.18852254e-18 -0.005716292296)
(-0.001082637298 -3.233104559e-18 -0.005669544117)
(-0.001173479326 -4.495917696e-18 -0.005619454973)
(-0.00125951145 -3.697294581e-18 -0.005566325686)
(-0.001340699665 -3.704696126e-18 -0.005510429262)
(-0.001417029528 -3.834451322e-18 -0.005452009875)
(-0.001488502432 -3.99690714e-18 -0.005391282567)
(-0.001555131997 -4.570755108e-18 -0.005328433391)
(-0.001616941718 -3.891471024e-18 -0.005263620247)
(-0.001673962692 -3.556292379e-18 -0.005196973755)
(-0.001726231217 -3.021903885e-18 -0.005128598817)
(-0.001773787319 -3.228202854e-18 -0.005058575972)
(-0.001816673571 -3.223367007e-18 -0.004986963509)
(-0.001854933403 -3.170274632e-18 -0.004913798292)
(-0.001888610445 -2.934275929e-18 -0.004839097384)
(-0.00191774674 -3.059672236e-18 -0.004762858116)
(-0.001942381299 -2.903476617e-18 -0.004685058687)
(-0.001962548794 -2.932355354e-18 -0.004605657388)
(-0.001978277139 -2.773832117e-18 -0.004524590645)
(-0.001989584669 -2.66223665e-18 -0.004441770446)
(-0.001996476827 -2.07169727e-18 -0.004357079848)
(-0.001998941296 -2.806767499e-18 -0.004270366431)
(-0.001996941825 -1.837109206e-18 -0.004181433239)
(-0.001990409862 -2.197019123e-18 -0.004090025889)
(-0.001979233106 -2.129807823e-18 -0.00399581458)
(-0.00196323988 -2.099189727e-18 -0.003898368688)
(-0.00194217732 -2.137017096e-18 -0.003797121265)
(-0.001915681527 -2.137462156e-18 -0.003691319716)
(-0.001883237484 -1.954632178e-18 -0.003579958869)
(-0.001844127628 -1.485447022e-18 -0.003461694741)
(-0.00179737169 -1.462074202e-18 -0.00333474321)
(-0.001741665935 -1.299469389e-18 -0.003196778311)
(-0.001675336354 -1.370192664e-18 -0.003044854225)
(-0.001596321467 -1.283565522e-18 -0.002875375242)
(-0.00150219225 -1.2077228e-18 -0.002684123173)
(-0.001390202294 -6.62113891e-19 -0.002466328962)
(-0.001257352733 -9.933723636e-19 -0.002216761527)
(-0.001100464904 -7.351042058e-19 -0.001929807333)
(-0.0009162588319 -4.716067628e-19 -0.001599528373)
(-0.0007013425799 -1.597826612e-19 -0.001219746836)
(-0.0004519037704 3.532522333e-19 -0.0007842719711)
(-0.0001632647498 5.806523172e-21 -0.0002871557878)
(-8.102472631e-05 4.01245634e-18 -0.006162584928)
(-0.0002098136505 2.995909441e-18 -0.006156384438)
(-0.0003302145783 5.403070395e-18 -0.006142843713)
(-0.0004539600165 2.887067186e-18 -0.006122713874)
(-0.0005744533036 4.7435715e-18 -0.006096614256)
(-0.000690827298 6.823637302e-19 -0.006065035974)
(-0.0008029827006 -2.40979942e-19 -0.006028393702)
(-0.0009106854925 -1.632018818e-18 -0.005987096994)
(-0.001013747649 -2.067421798e-18 -0.005941538063)
(-0.001112039369 -3.568569867e-18 -0.005892084157)
(-0.001205467039 -4.217235124e-18 -0.005839077555)
(-0.001293965527 -3.982798908e-18 -0.005782832833)
(-0.001377493476 -3.934253591e-18 -0.005723635469)
(-0.001456029182 -3.859547136e-18 -0.005661741109)
(-0.001529566923 -3.831779855e-18 -0.005597375186)
(-0.001598113679 -3.010864118e-18 -0.005530733284)
(-0.00166168666 -2.739607191e-18 -0.005461982252)
(-0.001720310884 -3.26601292e-18 -0.005391261051)
(-0.001774017593 -2.825206648e-18 -0.005318682574)
(-0.001822842545 -3.373472319e-18 -0.005244335188)
(-0.001866824542 -3.16780165e-18 -0.005168284451)
(-0.001906004614 -3.287862992e-18 -0.00509057458)
(-0.001940424295 -3.314071926e-18 -0.005011229241)
(-0.001970124265 -3.329070707e-18 -0.004930252398)
(-0.001995143138 -3.285296967e-18 -0.004847628192)
(-0.00201551563 -3.188423709e-18 -0.004763320209)
(-0.00203126992 -3.157769681e-18 -0.004677269195)
(-0.002042424782 -2.935366081e-18 -0.00458939012)
(-0.002048985869 -2.739389643e-18 -0.004499567395)
(-0.002050940575 -2.539573183e-18 -0.004407647935)
(-0.0020482516 -2.113778832e-18 -0.004313431368)
(-0.002040847927 -2.239286272e-18 -0.004216656288)
(-0.002028612863 -2.117899574e-18 -0.004116981307)
(-0.002011367649 -2.059195053e-18 -0.004013958369)
(-0.001988848892 -2.185983955e-18 -0.003906995763)
(-0.001960677922 -2.173067056e-18 -0.003795307068)
(-0.001926320182 -2.271502732e-18 -0.003677843128)
(-0.001885034288 -2.08475848e-18 -0.00355320616)
(-0.001835814045 -1.770077337e-18 -0.00341955198)
(-0.001777332429 -1.820290471e-18 -0.00327449685)
(-0.001707902132 -2.015249978e-18 -0.003115052994)
(-0.001625467034 -1.337511101e-18 -0.002937615023)
(-0.001527629498 -1.538850782e-18 -0.002738002733)
(-0.001411704881 -1.354284404e-18 -0.002511543977)
(-0.001274788376 -1.158111726e-18 -0.002253171056)
(-0.001113828196 -1.270235354e-18 -0.00195750503)
(-0.0009257025287 -1.008734661e-18 -0.001618915905)
(-0.0007072039428 -1.538886638e-18 -0.001231609877)
(-0.0004547268607 -4.15732521e-19 -0.0007898593393)
(-0.0001638544761 -1.734574297e-19 -0.0002882358731)
(-8.316645029e-05 2.10743433e-18 -0.006409993094)
(-0.0002154237096 1.17015591e-18 -0.006403454223)
(-0.0003390730368 4.655090992e-18 -0.006389186683)
(-0.0004661329317 2.249860781e-18 -0.006367979463)
(-0.0005899017656 2.827374998e-18 -0.006340476593)
(-0.0007094629037 2.7409266e-18 -0.006307191381)
(-0.0008247152914 -4.988247484e-19 -0.006268558565)
(-0.0009354207849 -1.077504212e-18 -0.006225003772)
(-0.001041383657 -1.805649219e-18 -0.006176935844)
(-0.001142466914 -1.496120904e-18 -0.006124737721)
(-0.001238569952 -3.479046718e-18 -0.006068764822)
(-0.001329620192 -3.78824101e-18 -0.006009344136)
(-0.001415568737 -4.006010871e-18 -0.005946772661)
(-0.001496386448 -3.804018955e-18 -0.005881316815)
(-0.001572060425 -3.619438033e-18 -0.005813211953)
(-0.001642590573 -3.751652167e-18 -0.005742662819)
(-0.001707987484 -3.241800067e-18 -0.005669845033)
(-0.00176827054 -3.433147345e-18 -0.005594906116)
(-0.001823465708 -4.081341578e-18 -0.005517967244)
(-0.001873604295 -3.199977976e-18 -0.005439124993)
(-0.001918721812 -3.300830925e-18 -0.00535845296)
(-0.001958856432 -3.237645777e-18 -0.005276003144)
(-0.001994047646 -3.135780964e-18 -0.005191806809)
(-0.002024335201 -3.402613762e-18 -0.005105875392)
(-0.002049757339 -3.498940787e-18 -0.005018199746)
(-0.002070348609 -3.54604938e-18 -0.00492874923)
(-0.002086137331 -3.491627628e-18 -0.004837469727)
(-0.002097142743 -3.904518548e-18 -0.004744280001)
(-0.002103370703 -3.16281347e-18 -0.004649066392)
(-0.002104808294 -3.511785612e-18 -0.004551675505)
(-0.002101416996 -3.00223862e-18 -0.004451903809)
(-0.002093123194 -2.794883218e-18 -0.004349483099)
(-0.00207980568 -2.824047492e-18 -0.00424406045)
(-0.0020612785 -2.710850589e-18 -0.004135170363)
(-0.002037267707 -2.642921775e-18 -0.00402219636)
(-0.002007380042 -2.666412167e-18 -0.003904318522)
(-0.001971061993 -2.410563377e-18 -0.003780444609)
(-0.001927549506 -2.394151598e-18 -0.003649125)
(-0.001875812346 -2.176228532e-18 -0.003508459031)
(-0.001814502722 -1.89613371e-18 -0.003356010313)
(-0.001741922539 -1.79684098e-18 -0.003188754947)
(-0.001656022373 -1.663609656e-18 -0.003003083018)
(-0.001554434991 -1.74422611e-18 -0.002794854479)
(-0.00143453326 -1.418938364e-18 -0.002559491079)
(-0.00129349798 -7.233080337e-19 -0.002292078611)
(-0.001128391021 -1.197310209e-18 -0.001987454352)
(-0.000936231514 -8.147155606e-19 -0.001640269462)
(-0.0007139752612 -4.287258828e-19 -0.001245078369)
(-0.0004581965115 -1.452066167e-19 -0.0007965700251)
(-0.0001647052158 1.910506341e-19 -0.0002897791881)
(-8.540068856e-05 2.452044698e-19 -0.006668228221)
(-0.0002212763908 -3.737356202e-20 -0.006661348819)
(-0.0003483149742 6.845816178e-18 -0.006646353425)
(-0.000478831929 1.815973072e-18 -0.00662406495)
(-0.0006060153402 1.523883894e-18 -0.006595150782)
(-0.0007288980483 1.17298985e-18 -0.00656014721)
(-0.0008473763717 -2.259007027e-19 -0.006519506083)
(-0.0009612075932 -1.433035331e-18 -0.006473669656)
(-0.001070188758 -2.352024779e-18 -0.006423060672)
(-0.001174174943 -2.133868115e-18 -0.006368075838)
(-0.00127305804 -2.500742859e-18 -0.006309083507)
(-0.001366758134 -3.672612333e-18 -0.006246422205)
(-0.001455218897 -3.825811479e-18 -0.006180399463)
(-0.001538403687 -3.789150677e-18 -0.006111291351)
(-0.001616291935 -3.362171056e-18 -0.006039342503)
(-0.001688876731 -3.468723135e-18 -0.005964766833)
(-0.001756162498 -3.791035865e-18 -0.005887748723)
(-0.001818162633 -3.97998618e-18 -0.005808444323)
(-0.001874898084 -4.262850048e-18 -0.005726983309)
(-0.00192639606 -3.923064607e-18 -0.00564347094)
(-0.001972688441 -3.850649782e-18 -0.005557989335)
(-0.002013810929 -3.668711931e-18 -0.005470599088)
(-0.002049801443 -4.121663137e-18 -0.005381339795)
(-0.002080698471 -3.345150894e-18 -0.005290230771)
(-0.002106539812 -3.465902999e-18 -0.005197270573)
(-0.002127360095 -3.739616134e-18 -0.005102435239)
(-0.002143187973 -3.836219003e-18 -0.005005676338)
(-0.00215404308 -4.425185942e-18 -0.004906916999)
(-0.002159931432 -3.674904591e-18 -0.004806046069)
(-0.002160839776 -3.588939688e-18 -0.004702910257)
(-0.002156728238 -3.353711123e-18 -0.004597303112)
(-0.002147520478 -3.368883976e-18 -0.004488949817)
(-0.002133090649 -3.432842855e-18 -0.00437748604)
(-0.002113245558 -3.458213219e-18 -0.004262428924)
(-0.002087700728 -3.175780118e-18 -0.004143137345)
(-0.002056048539 -3.364699438e-18 -0.004018758295)
(-0.002017717093 -2.994354526e-18 -0.003888157494)
(-0.001971920767 -2.683477986e-18 -0.0037498356)
(-0.001917606961 -2.436967922e-18 -0.003601838924)
(-0.001853409219 -2.292694458e-18 -0.003441683081)
(-0.001777620609 -2.017017119e-18 -0.003266313093)