/*--------------------------------*- C++ -*----------------------------------*\
  =========                 |
  \\      /  F ield         | OpenFOAM: The Open Source CFD Toolbox
   \\    /   O peration     | Website:  https://openfoam.org
    \\  /    A nd           | Version:  7
     \\/     M anipulation  |
\*---------------------------------------------------------------------------*/
FoamFile
{
    version     2.0;
    format      ascii;
    class       volScalarField;
    location    "0.0015";
    object      thermo:alpha;
}
// * * * * * * * * * * * * * * * * * * * * * * * * * * * * * * * * * * * * * //

dimensions      [1 -1 -1 0 0 0 0];

internalField   nonuniform List<scalar> 
1167
(
0.0001197300962
0.0001197015793
0.0001196884396
0.0001196602639
0.000119618637
0.0001195644707
0.000119493987
0.0001194123701
0.0001193230706
0.0001192169397
0.0001191012378
0.000118970943
0.0001188264005
0.0001186740505
0.0001185079809
0.0001183266291
0.0001181272167
0.0001179225832
0.0001177046093
0.0001174769938
0.0001172345542
0.000116986713
0.0001167221466
0.0001164535133
0.0001161816897
0.0001158954594
0.0001156055366
0.0001153154374
0.0001150160246
0.00011471681
0.0001144129114
0.0001141088689
0.0001138037569
0.000113506068
0.0001132048157
0.0001129035653
0.000112604309
0.0001123141589
0.0001120261902
0.0001117426917
0.0001114661563
0.00011119072
0.0001109249091
0.0001106685469
0.0001104138226
0.0001101662428
0.0001099196378
0.0001096809808
0.000109450943
0.0001092291645
0.0001090100885
0.0001196730853
0.0001196604752
0.0001196334369
0.0001195934985
0.0001195411909
0.0001194715869
0.0001193950385
0.0001193077238
0.0001192056583
0.0001190943107
0.0001189683891
0.0001188290433
0.0001186820064
0.0001185224309
0.0001183484465
0.0001181552121
0.0001179565563
0.0001177472238
0.0001175254203
0.0001172920332
0.0001170495323
0.0001167939339
0.0001165335557
0.0001162639897
0.0001159832464
0.0001157007287
0.0001154142033
0.0001151188359
0.0001148241442
0.0001145198066
0.0001142189084
0.0001139108862
0.0001136094337
0.00011330826
0.0001130059214
0.0001127003553
0.000112403278
0.0001121115144
0.0001118200567
0.0001115378673
0.0001112541109
0.0001109797546
0.0001107150149
0.0001104537303
0.0001101981882
0.0001099451054
0.0001096994219
0.0001094631105
0.0001092358561
0.0001090121669
0.0001196446206
0.0001196326477
0.0001196069831
0.0001195690299
0.0001195171293
0.0001194509491
0.0001193799078
0.0001192955491
0.0001191983858
0.0001190923118
0.0001189723025
0.0001188393233
0.0001186988368
0.0001185479286
0.0001183817113
0.0001181984009
0.0001180074969
0.0001178099196
0.000117595919
0.0001173752361
0.00011714016
0.0001168976582
0.0001166439563
0.0001163815884
0.0001161164708
0.0001158415091
0.0001155587633
0.0001152740449
0.000114981109
0.0001146854007
0.000114385203
0.0001140819548
0.0001137772873
0.0001134783097
0.0001131726955
0.00011286502
0.000112559152
0.0001122608329
0.0001119606625
0.0001116660906
0.0001113738467
0.0001110851666
0.0001108058182
0.0001105329206
0.0001102624756
0.0001099970322
0.0001097375061
0.0001094885711
0.0001092500439
0.0001090166346
0.00011961619
0.0001196049415
0.0001195808117
0.0001195451218
0.0001194940846
0.0001194327148
0.0001193666768
0.0001192861306
0.0001191946205
0.0001190946551
0.0001189819581
0.0001188564409
0.0001187237034
0.0001185835056
0.0001184260983
0.0001182557942
0.0001180744553
0.0001178883242
0.0001176878843
0.0001174801684
0.0001172588016
0.0001170312225
0.000116789981
0.0001165445666
0.000116289217
0.0001160240718
0.0001157575865
0.0001154833618
0.0001152030631
0.0001149179859
0.000114626467
0.0001143328276
0.0001140327954
0.0001137327067
0.0001134359398
0.00011313135
0.0001128221138
0.0001125147204
0.0001122129183
0.0001119050076
0.0001116025127
0.0001112971319
0.0001109957621
0.0001107016331
0.0001104074445
0.0001101178425
0.0001098280866
0.0001095495449
0.0001092834719
0.0001090264989
0.0001195880004
0.0001195776183
0.0001195553426
0.0001195202045
0.0001194730083
0.0001194178905
0.0001193568702
0.0001192815863
0.0001191969666
0.0001191044729
0.0001190013922
0.0001188850871
0.0001187619827
0.0001186326521
0.0001184894654
0.0001183362528
0.0001181672329
0.0001179934336
0.0001178137843
0.0001176191216
0.0001174208368
0.0001172066487
0.0001169901136
0.000116758205
0.0001165247355
0.0001162812817
0.0001160280678
0.0001157746053
0.0001155127367
0.0001152464946
0.0001149731765
0.0001146960423
0.000114412926
0.0001141267142
0.0001138351521
0.0001135464745
0.0001132514054
0.000112951122
0.0001126447412
0.0001123410875
0.0001120331437
0.0001117210325
0.0001114055615
0.0001110833894
0.0001107619161
0.0001104339896
0.0001100992556
0.0001097544958
0.0001094125439
0.0001090733266
0.0001195648738
0.0001195546922
0.0001195317246
0.0001194962596
0.0001194500425
0.0001193981224
0.0001193373946
0.000119262796
0.0001191799081
0.0001190892816
0.0001189869769
0.0001188729415
0.0001187521907
0.0001186252769
0.0001184841344
0.0001183334041
0.0001181672718
0.0001179963344
0.0001178199058
0.000117628183
0.0001174330645
0.0001172222573
0.0001170084911
0.0001167805006
0.0001165496184
0.000116308518
0.0001160607567
0.000115809631
0.0001155496071
0.0001152869355
0.0001150148563
0.0001147407276
0.0001144580332
0.0001141739324
0.000113881722
0.0001135917685
0.0001132968228
0.0001129957301
0.000112685866
0.0001123780803
0.000112066999
0.000111749985
0.0001114309247
0.0001111048546
0.0001107809931
0.0001104534924
0.0001101213795
0.0001097795319
0.0001094379202
0.0001090895944
0.0001195477647
0.0001195368699
0.0001195128174
0.0001194772515
0.0001194318844
0.00011938061
0.0001193179639
0.0001192431548
0.0001191600423
0.0001190691621
0.0001189647056
0.0001188503191
0.0001187291782
0.0001186018367
0.0001184582358
0.0001183049136
0.0001181381415
0.0001179665253
0.0001177872056
0.0001175946737
0.0001173968973
0.0001171846857
0.000116968887
0.0001167385059
0.0001165056007
0.0001162643402
0.0001160111627
0.0001157574936
0.000115496003
0.0001152287857
0.0001149548859
0.0001146755742
0.0001143905484
0.0001141004334
0.0001138052337
0.0001135120149
0.0001132097182
0.0001129007998
0.0001125869918
0.0001122755625
0.0001119568582
0.0001116377145
0.0001113133124
0.0001109886807
0.0001106687937
0.0001103441269
0.0001100191983
0.0001096933328
0.0001093746483
0.0001090602179
0.0001195292959
0.0001195180174
0.0001194938404
0.0001194580927
0.0001194142794
0.0001193627475
0.0001192979997
0.0001192228334
0.0001191392999
0.0001190479695
0.0001189410432
0.00011882608
0.0001187043237
0.0001185747684
0.0001184298709
0.0001182735158
0.0001181058839
0.0001179334268
0.0001177507657
0.0001175572813
0.0001173559855
0.0001171427422
0.0001169232311
0.0001166917386
0.0001164548934
0.000116215333
0.000115958006
0.0001156999231
0.0001154369874
0.000115164922
0.0001148892509
0.0001146045412
0.0001143173461
0.0001140212273
0.0001137235081
0.0001134262696
0.000113119009
0.0001128037165
0.0001124881806
0.0001121750301
0.0001118533264
0.0001115361488
0.0001112117487
0.0001108934681
0.0001105811218
0.0001102658826
0.0001099524409
0.0001096433889
0.0001093436848
0.0001090493985
0.0001195104996
0.0001194991727
0.0001194748895
0.0001194392186
0.0001193967505
0.0001193446908
0.0001192782055
0.0001192027379
0.0001191188673
0.0001190259368
0.0001189178891
0.0001188024634
0.0001186802271
0.000118548097
0.0001184026328
0.0001182435439
0.0001180753059
0.000117902232
0.0001177166457
0.0001175225227
0.0001173181568
0.0001171042095
0.0001168814682
0.000116649173
0.0001164088807
0.0001161670334
0.0001159100039
0.0001156480559
0.0001153838199
0.0001151074698
0.000114830196
0.000114540745
0.0001142516879
0.0001139504764
0.0001136508718
0.0001133485708
0.0001130395436
0.0001127204171
0.0001124049484
0.0001120895386
0.0001117704186
0.0001114543884
0.0001111357005
0.0001108249317
0.0001105191769
0.0001102143588
0.0001099106155
0.0001096136943
0.0001093261054
0.0001090434275
0.0001194916995
0.0001194803365
0.0001194559738
0.0001194219402
0.0001193793352
0.000119325368
0.000119258672
0.0001191829894
0.0001190988815
0.0001190038444
0.0001188954993
0.0001187797631
0.0001186572097
0.0001185227968
0.0001183769803
0.0001182155314
0.000118046931
0.0001178734759
0.0001176854145
0.000117490881
0.0001172839047
0.0001170694914
0.0001168439779
0.0001166110971
0.0001163678121
0.0001161228481
0.0001158672149
0.0001156019704
0.0001153357393
0.0001150565437
0.0001147762089
0.0001144844809
0.0001141915308
0.0001138887806
0.0001135881725
0.0001132822442
0.0001129701799
0.0001126516615
0.0001123377908
0.000112022181
0.0001117069083
0.0001113933884
0.0001110808114
0.0001107769994
0.0001104770696
0.0001101802148
0.0001098834274
0.0001095945723
0.0001093147907
0.0001090395707
0.0001194728946
0.0001194615061
0.0001194374954
0.0001194047203
0.0001193620198
0.0001193062117
0.0001192393795
0.0001191635545
0.0001190793005
0.0001189823059
0.0001188737874
0.0001187578749
0.0001186351462
0.0001184986899
0.0001183525223
0.0001181891655
0.0001180203505
0.0001178466721
0.0001176564493
0.0001174616361
0.0001172523826
0.0001170376056
0.0001168096507
0.0001165762791
0.0001163319401
0.0001160825641
0.0001158261753
0.0001155600639
0.0001152906522
0.0001150104335
0.000114726717
0.0001144339676
0.000114137676
0.000113834245
0.0001135333285
0.000113225008
0.000112911197
0.0001125942162
0.0001122826934
0.0001119679994
0.000111656831
0.0001113461842
0.0001110390931
0.000110741063
0.0001104458409
0.0001101550723
0.0001098635079
0.0001095805989
0.0001093065535
0.0001090367713
0.0001194540845
0.000119442679
0.0001194203702
0.0001193875459
0.0001193444563
0.0001192871879
0.0001192202886
0.0001191443701
0.0001190600409
0.0001189612029
0.0001188526008
0.0001187366052
0.0001186137957
0.0001184754571
0.000118327413
0.0001181639473
0.0001179950144
0.0001178199479
0.0001176290042
0.0001174339973
0.0001172226643
0.0001170076026
0.0001167774229
0.0001165436379
0.0001162988633
0.0001160449396
0.0001157879292
0.0001155211189
0.0001152488914
0.0001149679388
0.0001146813384
0.0001143880262
0.0001140890778
0.0001137855762
0.0001134849475
0.0001131752295
0.0001128606408
0.0001125457807
0.0001122369673
0.0001119237918
0.0001116165524
0.0001113087291
0.000111006371
0.0001107131122
0.0001104216905
0.0001101355876
0.0001098481566
0.0001095698148
0.0001093001807
0.0001090346011
0.0001194358451
0.0001194254813
0.0001194032588
0.0001193704044
0.0001193255754
0.0001192682607
0.0001192013331
0.0001191253839
0.0001190410071
0.0001189403999
0.0001188317694
0.0001187157461
0.0001185927247
0.0001184528094
0.0001183029686
0.0001181394519
0.0001179704574
0.0001177935606
0.0001176025093
0.0001174061278
0.0001171940816
0.0001169782818
0.0001167465424
0.0001165118421
0.0001162673032
0.0001160103692
0.0001157516443
0.0001154843418
0.0001152096024
0.0001149282013
0.0001146391769
0.0001143456872
0.0001140447147
0.0001137416131
0.0001134409419
0.000113131332
0.0001128166434
0.0001125041464
0.0001121981385
0.0001118866675
0.0001115830485
0.000111277832
0.0001109795028
0.0001106902377
0.0001104019587
0.0001101191718
0.0001098356292
0.0001095610246
0.0001092949952
0.0001090328376
0.0001194187601
0.0001194083904
0.0001193861551
0.000119353283
0.000119306734
0.0001192493936
0.000119182461
0.0001191065082
0.0001190204477
0.000118919785
0.0001188111536
0.0001186951391
0.0001185704023
0.0001184304879
0.0001182789112
0.00011811538
0.0001179463833
0.0001177677078
0.0001175765919
0.0001173783911
0.0001171662157
0.0001169485067
0.0001167165537
0.0001164798269
0.0001162368068
0.0001159777539
0.0001157168292
0.0001154492156
0.0001151722828
0.0001148906985
0.0001145997079
0.0001143063654
0.000114003937
0.0001137015806
0.0001134002566
0.0001130922187
0.0001127778877
0.0001124678313
0.0001121632965
0.0001118548542
0.0001115545319
0.0001112516762
0.0001109568338
0.0001106709806
0.0001103853657
0.0001101053714
0.000109825095
0.000109553628
0.0001092906278
0.0001090313512
0.0001194016709
0.0001193912973
0.0001193690539
0.0001193349899
0.0001192879117
0.0001192305731
0.0001191636315
0.0001190876886
0.0001189999216
0.0001188992751
0.000118790662
0.0001186746694
0.0001185482371
0.0001184083447
0.00011825507
0.0001180915553
0.0001179225819
0.0001177421767
0.0001175510441
0.0001173510774
0.0001171388202
0.0001169192887
0.000116687189
0.0001164485564
0.0001162071081
0.0001159461043
0.0001156832002
0.000115415442
0.000115136641
0.0001148550872
0.0001145625237
0.0001142696102
0.0001139661561
0.0001136648302
0.0001133632537
0.0001130569701
0.0001127432638
0.0001124356438
0.000112132532
0.0001118270073
0.0001115296167
0.0001112289478
0.0001109371712
0.0001106542926
0.000110370996
0.0001100934173
0.0001098159717
0.0001095472247
0.0001092868493
0.0001090300658
0.0001193845779
0.0001193742013
0.0001193519518
0.0001193161844
0.0001192690964
0.0001192117693
0.0001191448205
0.000119068894
0.000118979431
0.0001188788094
0.0001187702246
0.0001186542647
0.0001185261556
0.0001183862996
0.0001182313522
0.0001180678936
0.0001178989459
0.0001177168501
0.0001175257443
0.0001173240522
0.0001171117793
0.0001168904787
0.0001166583159
0.0001164178717
0.000116174939
0.0001159152569
0.0001156505865
0.0001153828375
0.000115102434
0.0001148211331
0.000114527324
0.0001142345182
0.0001139309475
0.0001136308848
0.0001133293219
0.0001130238355
0.0001127119731
0.0001124067367
0.000112105045
0.0001118022303
0.0001115066885
0.0001112088281
0.0001109197875
0.0001106395481
0.0001103583115
0.0001100828574
0.0001098079112
0.0001095415662
0.0001092835094
0.0001090289293
0.0001193674815
0.0001193571024
0.0001193335362
0.0001192973784
0.0001192502827
0.0001191929697
0.0001191260353
0.0001190501104
0.0001189589569
0.0001188583657
0.0001187498154
0.0001186338956
0.000118504122
0.0001183643133
0.0001182077293
0.0001180443247
0.0001178754213
0.0001176916756
0.0001175006139
0.000117297242
0.000117085
0.0001168619935
0.0001166298407
0.0001163876801
0.000116143068
0.0001158851134
0.0001156188569
0.0001153511578
0.0001150695087
0.0001147874434
0.000114493874
0.0001142003808
0.0001138979517
0.0001135993018
0.0001132979533
0.0001129930815
0.0001126833813
0.0001123804719
0.0001120801422
0.0001117798479
0.0001114860182
0.0001111907125
0.0001109041456
0.0001106262842
0.0001103469009
0.0001100733576
0.0001098006598
0.0001095364761
0.0001092805055
0.0001090279073
0.0001193503827
0.0001193392002
0.0001193147356
0.0001192785714
0.0001192314845
0.0001191741719
0.000119107256
0.0001190305034
0.0001189384921
0.0001188379351
0.0001187294239
0.0001186135497
0.0001184821206
0.0001183414199
0.0001181841667
0.0001180208235
0.0001178519802
0.0001176666272
0.0001174756176
0.0001172706157
0.0001170584346
0.0001168337864
0.0001166017051
0.000116357968
0.0001161117592
0.0001158548768
0.0001155879341
0.0001153189377
0.0001150377425
0.000114754727
0.0001144619764
0.0001141680265
0.000113866869
0.000113569725
0.0001132687391
0.0001129645825
0.0001126570009
0.0001123563263
0.000112057314
0.0001117593732
0.0001114671364
0.0001111741781
0.0001108898747
0.000110614184
0.0001103364906
0.0001100646894
0.0001097940425
0.0001095318306
0.0001092777638
0.0001090269744
0.0001193318155
0.000119320403
0.0001192959337
0.0001192597637
0.000119212692
0.0001191553755
0.0001190884797
0.0001190100373
0.0001189180465
0.0001188175146
0.000118709046
0.000118593062
0.0001184601601
0.0001183178315
0.0001181606475
0.0001179973772
0.0001178278791
0.0001176416704
0.0001174507358
0.0001172441593
0.0001170320588
0.0001168058559
0.0001165738792
0.0001163303008
0.0001160809722
0.0001158243662
0.000115557756
0.0001152876344
0.0001150070302
0.0001147232585
0.0001144314616
0.0001141372352
0.0001138374555
0.0001135418604
0.0001132413526
0.0001129379608
0.0001126324417
0.0001123339089
0.0001120361636
0.0001117404424
0.0001114496835
0.0001111589021
0.0001108766916
0.0001106026044
0.0001103268713
0.0001100566787
0.0001097879264
0.0001095275369
0.0001092752297
0.0001090261122
0.0001193130197
0.000119301605
0.0001192771314
0.000119240961
0.0001191939003
0.000119136588
0.0001190697065
0.0001189895761
0.0001188976182
0.0001187971249
0.0001186887
0.0001185710678
0.0001184382291
0.0001182942731
0.0001181371665
0.0001179739794
0.0001178029097
0.0001176167953
0.0001174259549
0.0001172178425
0.000117005859
0.0001167781614
0.0001165463449
0.0001163029931
0.0001160506754
0.0001157944427
0.00011552827
0.0001152571754
0.0001149772929
0.0001146929129
0.000114402197
0.0001141078154
0.0001138094878
0.0001135154615
0.0001132155148
0.0001129129113
0.0001126094053
0.0001123129136
0.0001120163845
0.0001117227627
0.0001114333871
0.0001111446413
0.0001108643845
0.0001105917648
0.0001103178875
0.0001100491957
0.0001097822124
0.0001095235251
0.0001092728619
0.0001090253065
0.0001192942239
0.0001192828071
0.0001192583294
0.000119222175
0.0001191751103
0.0001191178168
0.000119050937
0.0001189691204
0.0001188771972
0.0001187767447
0.0001186683692
0.00011854909
0.0001184163185
0.0001182707426
0.0001181137206
0.0001179506438
0.0001177780009
0.0001175919975
0.0001173996348
0.0001171916579
0.0001169793731
0.0001167506908
0.0001165188983
0.0001162760274
0.0001160214422
0.0001157650709
0.0001154994538
0.000115227494
0.0001149484424
0.0001146635771
0.0001143740198
0.000114079599
0.0001137827623
0.0001134903195
0.0001131909795
0.0001128891833
0.0001125876374
0.0001122930951
0.0001119977331
0.000111706101
0.0001114180332
0.0001111312053
0.0001108527872
0.000110581548
0.0001103094176
0.0001100421392
0.0001097768233
0.000109519741
0.0001092706285
0.0001090245465
0.0001192754288
0.0001192640101
0.0001192395351
0.0001192033908
0.0001191563227
0.000119099049
0.0001190314181
0.0001189486707
0.0001188567839
0.0001187563743
0.0001186480505
0.0001185271285
0.000118394428
0.0001182472391
0.0001180903151
0.0001179273578
0.0001177531506
0.0001175672744
0.0001173734163
0.0001171656027
0.0001169518926
0.0001167234378
0.0001164903299
0.0001162493889
0.0001159936458
0.000115736219
0.0001154712406
0.0001151985285
0.000114920386
0.000114635149
0.0001143468085
0.0001140524394
0.0001137571159
0.000113466258
0.0001131675534
0.0001128665714
0.000112566924
0.0001122742565
0.0001119800156
0.0001116902788
0.0001114034536
0.0001111184452
0.000110841771
0.0001105718398
0.0001103013671
0.0001100354305
0.000109771699
0.0001095161426
0.0001092685044
0.0001090238238
0.0001192566353
0.000119245215
0.0001192207573
0.0001191846093
0.0001191375446
0.0001190802856
0.0001190109665
0.0001189282288
0.0001188363792
0.0001187360142
0.0001186277444
0.0001185051835
0.0001183725579
0.0001182237645
0.0001180669615
0.0001179041145
0.0001177283586
0.0001175426464
0.0001173472988
0.0001171396759
0.0001169245834
0.0001166963979
0.0001164620384
0.0001162230659
0.0001159662464
0.0001157078562
0.0001154435859
0.0001151702247
0.0001148930519
0.0001146075531
0.0001143204561
0.0001140262322
0.0001137324092
0.0001134423827
0.0001131450749
0.0001128449057
0.0001125470985
0.0001122562382
0.0001119630868
0.0001116751528
0.000111389514
0.0001111062422
0.0001108312426
0.0001105625494
0.0001102936608
0.0001100290072
0.0001097667918
0.0001095126963
0.0001092664702
0.0001090231315
0.0001131234097
0.0001128240572
0.0001125280249
0.0001122389106
0.0001119468156
0.000111660608
0.0001113761073
0.000111094502
0.0001108211099
0.0001105536051
0.0001102862393
0.0001100228198
0.000109762064
0.0001095093757
0.00010926451
0.0001090224645
)
;

boundaryField
{
    front_top
    {
        type            wedge;
    }
    front_middle
    {
        type            wedge;
    }
    front_bottom
    {
        type            wedge;
    }
    back_top
    {
        type            wedge;
    }
    back_middle
    {
        type            wedge;
    }
    back_bottom
    {
        type            wedge;
    }
    axis_top
    {
        type            symmetryPlane;
    }
    axis_middle
    {
        type            symmetryPlane;
    }
    axis_bottom
    {
        type            symmetryPlane;
    }
    wall_top
    {
        type            calculated;
        value           nonuniform 0();
    }
    wall_middle
    {
        type            calculated;
        value           uniform 0.0001089022317;
    }
    wall_bottom
    {
        type            calculated;
        value           uniform 0.0001089022317;
    }
    inlet
    {
        type            calculated;
        value           nonuniform 0();
    }
    outlet
    {
        type            calculated;
        value           nonuniform 0();
    }
    procBoundary2to1
    {
        type            processor;
        value           nonuniform List<scalar> 
51
(
0.0001192378526
0.000119226443
0.0001192019825
0.0001191658315
0.0001191187857
0.0001190615276
0.0001189905216
0.0001189078165
0.0001188159856
0.0001187156654
0.0001186074517
0.0001184832561
0.0001183503986
0.0001182003393
0.0001180436426
0.0001178809149
0.000117703626
0.0001175180974
0.0001173212833
0.0001171138975
0.0001168974447
0.0001166695752
0.0001164340174
0.0001161961805
0.0001159392254
0.0001156799701
0.0001154164512
0.0001151425505
0.000114866375
0.0001145807016
0.000114294868
0.0001140008459
0.0001137085226
0.0001134190431
0.0001134190431
0.0001131024458
0.0001128039077
0.0001125095913
0.000112222168
0.0001119310936
0.0001116465518
0.000111363147
0.0001110831486
0.0001108113072
0.0001105449491
0.0001102790548
0.0001100168286
0.0001097574855
0.0001095061597
0.0001092626115
0.0001090218185
)
;
    }
    procBoundary2to3
    {
        type            processor;
        value           nonuniform List<scalar> 
51
(
0.000119761328
0.000119716533
0.000119716533
0.0001196874528
0.0001196444745
0.0001195885852
0.000119518213
0.0001194319799
0.0001193416951
0.0001192323542
0.0001191132311
0.0001189801227
0.0001188315511
0.0001186751088
0.0001185046941
0.0001183183814
0.0001181143877
0.0001179053846
0.0001176817595
0.0001174500512
0.0001172018589
0.0001169482532
0.0001166804818
0.0001164065995
0.0001161298571
0.0001158434883
0.0001155510878
0.0001152577496
0.0001149586445
0.0001146574672
0.0001143551694
0.0001140505096
0.0001137481479
0.0001134533249
0.0001131536028
0.0001128541862
0.0001125592997
0.0001122736033
0.0001119885877
0.0001117097682
0.0001114365906
0.0001111656626
0.0001109040927
0.0001106516485
0.0001103999445
0.0001101556363
0.0001099115747
0.0001096754216
0.0001094474639
0.0001092273735
0.0001090095958
)
;
    }
}


// ************************************************************************* //
