/*--------------------------------*- C++ -*----------------------------------*\
  =========                 |
  \\      /  F ield         | OpenFOAM: The Open Source CFD Toolbox
   \\    /   O peration     | Website:  https://openfoam.org
    \\  /    A nd           | Version:  7
     \\/     M anipulation  |
\*---------------------------------------------------------------------------*/
FoamFile
{
    version     2.0;
    format      ascii;
    class       volScalarField;
    location    "0.0015";
    object      thermo:mu;
}
// * * * * * * * * * * * * * * * * * * * * * * * * * * * * * * * * * * * * * //

dimensions      [1 -1 -1 0 0 0 0];

internalField   nonuniform List<scalar> 
1167
(
94363.84914
92021.79058
90965.24398
88746.48215
85581.6941
81656.56869
77159.21208
72271.09126
67161.41827
61979.26692
56849.22756
51871.32495
47120.86042
42651.46098
38495.82283
34670.71495
31179.60882
28015.90242
25165.75351
22611.0663
20329.5973
18298.54942
16494.99326
14895.83663
13479.64209
12226.36752
11117.44856
10136.02158
9267.043357
8497.033793
7813.915993
7207.223093
6667.56124
6186.805143
5757.791127
5374.247086
5030.673763
4722.359853
4445.071067
4195.183926
3969.548578
3765.347683
3580.144779
3411.815089
3258.487949
3118.517899
2990.440004
2872.982867
2765.003313
2665.512406
2573.629475
89748.30723
88762.88613
86691.74
83733.58375
80054.26269
75827.81413
71218.49593
66381.92031
61456.1378
56558.03948
51782.70127
47203.0586
42872.30214
38824.89328
35079.64634
31644.09477
28514.21471
25680.80141
23128.15235
20837.78088
18789.75105
16962.86
15336.40658
13890.62044
12606.35313
11466.07164
10453.91296
9555.095399
8756.502889
8046.492437
7414.505516
6851.378735
6348.902632
5899.944348
5498.153237
5138.001789
4814.588063
4523.748379
4261.666375
4025.092184
3811.203356
3617.444521
3441.607381
3281.752826
3136.165092
3003.313567
2881.857769
2770.590517
2668.450264
2574.472629
87541.58201
86632.13348
84719.14632
81978.8215
78563.16565
74624.60786
70314.03494
65770.97274
61121.61461
56474.33241
51918.57429
47524.39152
43343.87575
39413.57191
35754.32904
32376.58979
29280.93556
26461.13793
23905.88507
21600.0247
19526.22667
17666.72351
16002.56017
14515.74084
13188.95301
12005.63466
10950.74854
10010.31242
9171.568169
8423.232282
7754.939064
7157.578861
6623.052494
6144.118642
5714.486124
5328.453416
4981.14074
4668.185235
4385.760206
4130.580544
3899.663081
3690.455496
3500.733956
3328.513815
3172.045045
3029.769785
2900.291147
2782.325995
2674.692272
2576.286225
85399.7476
84569.07298
82818.40087
80305.12729
77165.07206
73529.69936
69533.99646
65302.80077
60949.24872
56572.47385
52255.58661
48065.10178
44051.69941
40252.39911
36691.28855
33380.81503
30325.66363
27523.66726
24966.92107
22644.54581
20542.18085
18644.94622
16936.69447
15401.36109
14023.47516
12787.80516
11680.46634
10688.19933
9799.010852
9001.904231
8286.799955
7644.897868
7067.948493
6548.887177
6081.221215
5659.314439
5278.02623
4932.971919
4620.142066
4336.129532
4077.865897
3842.706515
3628.419036
3432.995788
3254.788152
3092.417855
2944.708869
2810.675646
2689.469129
2580.295959
83335.54156
82589.8597
81015.76394
78751.9317
75911.50958
72610.12573
68962.30239
65078.29212
61056.58221
56985.81411
52941.62552
48986.03826
45167.73459
41523.4454
38078.90214
34850.40794
31846.01163
29066.88421
26510.14
24168.51993
22031.63362
20088.12845
18324.57857
16728.07685
15284.60814
13981.52471
12805.73089
11745.55855
10789.58829
9927.664916
9150.039953
8448.150922
7813.947246
7240.365507
6720.81545
6249.576093
5821.302738
5431.39669
5075.525156
4750.003109
4451.421131
4176.794866
3923.505669
3689.209983
3471.995644
3270.219693
3082.678289
2908.560382
2747.459947
2599.434294
81685.00099
80970.32447
79463.77019
77295.79221
74572.26164
71404.48729
67898.53784
64159.40353
60281.11656
56347.71452
52431.76294
48593.09533
44879.15177
41326.14645
37959.83759
34797.10366
31846.66758
29110.88661
26587.97461
24272.00385
22153.67874
20222.77425
18466.99143
16874.13479
15431.27043
14126.13203
12946.46991
11880.87511
10918.46275
10049.26198
9263.829834
8553.747514
7911.101796
7328.937922
6800.745874
6320.844657
5884.022985
5485.664294
5121.636401
4788.294244
4482.494319
4201.397905
3942.699381
3704.287637
3484.448435
3281.61357
3094.275473
2920.797871
2759.038464
2606.123085
80488.19319
79784.0961
78299.35811
76161.97965
73477.83519
70355.71276
66900.86862
63214.91312
59392.36684
55515.31595
51655.18551
47870.90991
44209.33506
40706.28277
37387.54037
34269.19921
31359.9159
28662.39798
26175.27018
23891.88399
21803.80002
19900.44444
18169.98014
16600.26404
15178.42663
13892.45628
12730.09836
11680.1124
10731.69209
9874.966886
9100.6285
8400.299508
7766.27541
7191.619466
6670.054994
6195.996343
5764.435173
5370.945958
5011.609051
4683.074444
4382.346005
4106.952422
3854.636009
3623.559234
3411.972466
3218.332525
3041.148796
2878.923715
2730.278343
2594.059553
79313.0819
78617.62587
77150.41116
75038.5759
72388.1436
69304.27728
65893.42241
62254.61235
58480.552
54653.89257
50844.68406
47110.90269
43498.91637
40044.48754
36772.23453
33698.20044
30831.00086
28173.84074
25724.16138
23475.9116
21420.79873
19547.70244
17845.49791
16301.39834
14903.24366
13638.54677
12495.68985
11463.06743
10530.42043
9687.654411
8925.903857
8236.712392
7612.727212
7047.051387
6533.707665
6067.261165
5642.969977
5256.579045
4904.465831
4583.401451
4290.644545
4023.700548
3780.485568
3558.970816
3357.369219
3173.96032
3007.033952
2854.993493
2716.336078
2589.633569
78157.97459
77471.27434
76022.43693
73937.37969
71321.67598
68277.5968
64911.84827
61321.5485
57598.17464
53823.05084
50065.83834
46383.85711
42822.79793
39417.49461
36192.44359
33163.45442
30339.21324
27722.26685
25309.99388
23096.82528
21073.65947
19230.0954
17554.63085
16034.87097
14658.60979
13413.66425
12288.37891
11271.59595
10352.90829
9522.733899
8772.087211
8093.007015
7478.065134
6920.832446
6415.304402
5956.471376
5539.59717
5160.764744
4816.337203
4503.325982
4218.866583
3960.55616
3726.084592
3513.335082
3320.340987
3145.143905
2985.895344
2840.879492
2708.45874
2587.194876
77022.02206
76344.68304
74915.50844
72860.01084
70280.06353
67279.0195
63959.74725
60420.33944
56749.98115
53028.9322
49325.84094
45697.27544
42188.33981
38833.26965
35656.11653
32672.59237
29891.02963
27313.47036
24937.71525
22757.95261
20765.01869
18949.10605
17298.25647
15800.79172
14444.24846
13217.04877
12107.3661
11104.63329
10198.36098
9379.321998
8638.711049
7968.73419
7362.278472
6812.959529
6315.151115
5863.802768
5454.502607
5083.249633
4746.608468
4441.414755
4164.855364
3914.333499
3687.404055
3481.837016
3295.451676
3126.221479
2972.250595
2831.835321
2703.403264
2585.621171
75904.80892
75237.31526
73829.11405
71804.29571
69261.83111
66305.68054
63035.21732
59548.38275
55932.97357
52267.77519
48620.34286
45046.40967
41590.41461
38285.95261
35156.66218
32218.30607
29478.18536
26938.75799
24598.16102
22449.91689
20485.65117
18695.27791
17067.36407
15590.25326
14251.89947
13040.74982
11945.43152
10955.34368
10060.52563
9251.675786
8520.471063
7859.090375
7260.813785
6719.269727
6229.070949
5785.21539
5383.369663
5019.551907
4690.303133
4392.353635
4122.852439
3879.009028
3658.327836
3458.444747
3277.137709
3112.375356
2962.301492
2825.248262
2699.729956
2584.479625
74805.97956
74148.65379
72763.01314
70768.94207
68265.37684
65355.16611
62135.54967
58701.92943
55142.64915
51534.26942
47943.18273
44424.23464
41021.17252
37766.96262
34685.31241
31790.67388
29090.85346
26588.51045
24281.40825
22163.27759
20226.2991
18460.0767
16853.88394
15395.87017
14074.67103
12878.59087
11796.81768
10818.72813
9934.822795
9135.858031
8413.742646
7760.923983
7170.677836
6636.952092
6154.294259
5717.888306
5323.28033
4966.58579
4644.181152
4352.80479
4089.43691
3851.252398
3635.714482
3440.381354
3263.058867
3101.750987
2954.661479
2820.177327
2696.892229
2583.595089
73725.5942
73079.32508
71715.50806
69752.74112
67289.64707
64425.0835
61256.92968
57877.9065
54374.27481
50822.85474
47288.02636
43823.74504
40473.14347
37268.90765
34233.50178
31381.62429
28721.09298
26254.88589
23980.14044
21891.31873
19980.48353
18237.60723
16652.26808
15212.71011
13907.98547
12726.5611
11657.83985
10691.56343
9818.254924
9029.107492
8316.00031
7671.743186
7089.557197
6563.62475
6088.457307
5659.290501
5271.638062
4921.590759
4605.442346
4319.922348
4061.889185
3828.53517
3617.272244
3425.683
3251.61005
3093.11583
2948.444456
2816.052087
2694.585845
2582.876564
72663.70259
72027.81147
70685.85825
68754.53742
66332.00143
63513.16591
60396.4395
57071.9401
53624.46407
50129.08865
46649.86238
43239.7549
39941.05815
36785.49392
33795.52751
30985.61623
28363.91977
25932.75695
23689.66488
21629.56598
19744.20038
18024.28569
16459.18314
15037.81417
13749.12458
12582.17362
11526.30666
10571.75518
9709.027634
8929.714297
8225.719423
7590.006734
7015.954341
6497.691641
6029.897857
5607.682495
5226.643881
4882.742308
4572.310781
4291.980967
4038.617569
3809.429805
3601.799758
3413.367643
3242.019824
3085.878911
2943.228864
2812.586516
2692.645211
2582.271149
71619.19328
70993.61356
69673.39965
67774.139
65391.038
62618.35257
59551.81148
56281.28277
52889.35067
49449.73675
46025.43534
42668.59266
39420.759
36313.13929
33367.91921
30599.40427
28015.8824
25619.16184
23407.35417
21375.38221
19515.09492
17817.79915
16272.66316
14869.26794
13596.47127
12443.90648
11400.91685
10458.05541
9606.05228
8836.533347
8141.727866
7514.54
6948.571106
6437.857988
5977.221357
5561.654645
5186.834468
4848.615936
4543.384245
4267.70099
4018.466618
3792.921019
3588.443766
3402.738433
3233.742174
3079.626642
2938.72076
2809.590498
2690.967584
2581.747726
70591.7688
69976.36911
68677.62538
66810.34985
64465.8222
61738.87193
58721.63755
55504.32062
52167.13697
48782.47897
45412.3066
42107.95479
38910.24593
35849.88045
32948.77029
30221.38233
27675.19212
25312.45136
23131.65879
21127.32247
19292.00825
17616.91232
16091.68509
14706.03773
13449.20509
12310.86642
11280.84973
10349.6619
9508.437264
8748.761057
8063.155776
7444.480695
6886.468318
6383.173679
5929.398881
5520.188506
5151.169107
4818.210653
4517.724731
4246.236128
4000.7095
3778.378748
3576.685307
3393.380267
3226.456461
3074.116353
2934.744831
2806.946144
2689.485728
2581.285055
69581.15446
68975.77759
67699.06638
65862.35436
63555.80001
60873.85534
57905.95802
54740.20724
51456.90703
48126.34767
44809.47298
41556.81924
38408.49354
35394.70004
32537.38747
29850.25168
27340.90323
25011.83175
22861.56579
20884.56493
19074.02477
17420.90181
15915.51562
14547.48663
13306.5984
12182.48175
11165.46976
10246.00914
9415.588197
8665.821705
7989.322596
7379.113293
6828.867448
6332.791818
5885.5945
5482.42419
5118.836176
4790.782486
4494.627538
4226.957061
3984.78173
3765.342332
3566.14467
3384.988293
3219.919313
3069.169313
2931.173524
2804.570035
2688.153838
2580.869079
68587.09072
67992.11976
66736.75898
64929.83435
62661.34624
60022.9197
57103.62227
53988.91451
50758.18596
47480.84952
44216.42512
41014.66493
37914.97451
34947.33473
32133.00864
29485.47339
27012.48373
24716.85414
22596.57033
20646.70214
18860.63241
17229.32541
15743.67173
14393.20975
13168.24033
12058.41118
11054.36349
10146.7372
9327.024575
8587.151578
7919.663134
7317.789269
6775.130592
6286.039523
5845.145497
5447.704107
5089.219181
4765.73211
4473.578729
4209.413098
3970.298623
3753.490995
3556.560455
3377.354355
3213.969204
3064.66379
2927.919067
2802.403574
2686.938859
2580.48944
67610.32619
67025.17092
65790.17478
64012.52653
61781.69245
59185.79378
56314.26353
53250.15795
50071.08627
46845.69419
43632.8676
40481.24472
37429.71698
34507.39215
31735.20951
29126.7242
26689.7541
24426.99574
22336.35509
20413.49791
18651.53158
17042.06261
15575.86327
14243.05418
13033.84046
11938.3523
10947.19113
10051.37913
9242.336474
8512.280541
7853.697742
7259.990127
6724.742547
6242.369882
5807.52817
5415.508343
5061.830866
4742.615038
4454.182379
4193.269735
3956.967783
3742.581433
3547.734414
3370.326707
3208.482918
3060.507034
2924.914998
2800.402963
2685.816503
2580.138623
66649.72175
66074.05292
64859.06573
63110.4209
60916.34276
58362.54511
55537.65058
52523.27263
49395.32556
46221.32145
43059.13345
39956.80373
36952.31083
34074.4384
31343.77321
28773.78519
26372.52691
24142.03658
22080.70497
20184.58308
18446.51482
16858.74033
15411.88186
14096.65613
12903.15726
11821.97223
10843.66178
9959.609653
9161.204221
8440.813914
7791.047595
7205.272142
6677.244707
6201.3306
5772.302885
5385.421359
5036.300955
4721.086181
4436.134761
4178.2603
3944.568849
3732.431339
3539.518531
3363.781188
3203.369321
3056.630297
2922.111797
2798.535262
2684.768291
2579.810861
65704.86656
65138.51724
63943.18944
62223.77904
60065.06957
57553.22811
54773.57222
51808.05865
48730.3596
45606.87513
42494.56703
39440.63261
36482.41647
33648.30356
30958.53252
28426.75019
26060.45253
23861.82687
21829.71288
19959.8009
18245.48188
16679.18687
15251.57837
13953.82904
12776.02518
11709.03967
10743.60116
9871.135997
9083.297105
8372.401543
7731.285834
7153.252771
6632.229576
6162.543969
5739.089038
5357.105793
5012.31823
4700.871313
4419.196369
4164.174153
3932.929636
3722.898545
3531.797491
3357.625707
3198.557241
3052.979955
2919.470947
2796.774991
2683.780026
2579.501744
64775.51092
64218.31852
63042.61614
61351.6082
59227.65396
56757.03015
54022.20948
51104.32488
48076.00931
45002.18447
41938.91711
38932.57613
36019.88727
33228.84625
30579.45434
28085.31643
25753.40604
23586.24438
21583.00745
19739.03967
18048.39556
16503.27323
15094.92898
13814.40647
12652.28392
11599.34448
10646.69102
9785.692713
9008.286918
8306.733286
7674.089352
7103.603367
6589.371584
6125.695066
5707.589554
5330.28753
4989.624108
4681.752021
4403.177908
4150.85039
3921.915565
3713.872338
3524.48215
3351.789206
3193.991478
3049.514403
2916.962515
2795.102278
2682.840585
2579.207805
63861.40818
63313.22506
62157.45647
60493.6841
58404.13976
55973.75098
53283.44407
50411.91588
47432.10435
44407.08946
41392.03347
38432.49453
35564.59339
32815.97564
30206.60401
27749.27723
25451.28685
23315.41836
21340.49529
19522.2033
17855.01056
16330.88757
14941.66088
13678.2456
12531.69239
11492.69114
10552.70155
9703.046057
8935.913354
8243.571427
7619.176723
7056.083313
6548.39569
6090.543492
5677.558154
5304.741937
4968.017967
4663.552341
4387.937526
4138.160741
3911.41969
3705.264912
3517.507713
3346.215408
3189.628322
3046.200708
2914.562828
2793.50144
2681.941212
2578.926319
5648.791774
5280.297914
4947.336755
4646.130203
4373.348695
4126.002668
3901.356821
3697.006513
3510.811038
3340.859735
3185.433175
3043.012806
2912.25314
2791.960039
2681.074951
2578.655119
)
;

boundaryField
{
    front_top
    {
        type            wedge;
    }
    front_middle
    {
        type            wedge;
    }
    front_bottom
    {
        type            wedge;
    }
    back_top
    {
        type            wedge;
    }
    back_middle
    {
        type            wedge;
    }
    back_bottom
    {
        type            wedge;
    }
    axis_top
    {
        type            symmetryPlane;
    }
    axis_middle
    {
        type            symmetryPlane;
    }
    axis_bottom
    {
        type            symmetryPlane;
    }
    wall_top
    {
        type            calculated;
        value           nonuniform 0();
    }
    wall_middle
    {
        type            calculated;
        value           uniform 2530.329233;
    }
    wall_bottom
    {
        type            calculated;
        value           uniform 2530.329233;
    }
    inlet
    {
        type            calculated;
        value           nonuniform 0();
    }
    outlet
    {
        type            calculated;
        value           nonuniform 0();
    }
    procBoundary2to1
    {
        type            processor;
        value           nonuniform List<scalar> 
51
(
62962.71032
62423.94677
61286.79187
59649.78484
57594.68253
55203.19001
52556.6091
49731.34928
46798.53422
43821.44076
40853.77862
37940.26262
35116.50952
32409.92666
29839.59093
27418.54416
25154.01272
23049.07874
21102.09884
19309.37518
17665.2396
16161.97577
14791.66175
13545.25149
12414.09252
11388.95796
10461.43197
9623.036262
8865.943779
8182.660228
7566.303384
7010.412136
6509.068219
6056.853882
6056.853882
5621.122148
5256.801354
4927.447349
4629.370266
4359.307513
4114.293605
3891.658553
3689.041238
3504.347138
3335.686545
3181.378382
3039.92987
2910.018483
2790.468153
2680.236256
2578.392477
)
;
    }
    procBoundary2to3
    {
        type            processor;
        value           nonuniform List<scalar> 
51
(
96778.71421
93241.45263
93241.45263
90886.46695
87530.41915
83377.77529
78629.62367
73483.7933
68121.66599
62702.40673
57357.49954
52191.33191
47281.21628
42680.76006
38421.4271
34517.57432
30969.41725
27767.51704
24894.56684
22329.24519
20047.02133
18022.48204
16230.40963
14646.60486
13248.00956
12013.43158
10923.67627
9961.330353
9110.756418
8358.2361
7691.609623
7100.091139
6574.462935
6106.415044
5688.929279
5315.666416
4981.30177
4681.090816
4410.91925
4167.269592
3947.002533
3747.404806
3566.109071
3401.057988
3250.444052
3112.685156
2986.378096
2870.313912
2763.408247
2664.726735
2573.429633
)
;
    }
}


// ************************************************************************* //
