/*--------------------------------*- C++ -*----------------------------------*\
  =========                 |
  \\      /  F ield         | OpenFOAM: The Open Source CFD Toolbox
   \\    /   O peration     | Website:  https://openfoam.org
    \\  /    A nd           | Version:  7
     \\/     M anipulation  |
\*---------------------------------------------------------------------------*/
FoamFile
{
    version     2.0;
    format      ascii;
    class       volScalarField;
    location    "0.0024";
    object      generalizedNewtonian:nu;
}
// * * * * * * * * * * * * * * * * * * * * * * * * * * * * * * * * * * * * * //

dimensions      [0 2 -1 0 0 0 0];

internalField   nonuniform List<scalar> 
1167
(
2.528438987
2.513282433
2.521772346
2.501693001
2.482336212
2.459666499
2.433214063
2.403666936
2.371484529
2.337068149
2.300823239
2.26314898
2.224402013
2.184912768
2.145000495
2.104894609
2.064826547
2.024932556
2.3922181
2.377719407
2.385753428
2.366752306
2.348354907
2.326871917
2.301820653
2.273846113
2.243409198
2.210896568
2.176692868
2.141164416
2.104659329
2.067506043
2.029971536
1.992299718
1.954673007
1.917249503
1.880114758
1.84331382
1.806846908
1.770670462
1.734687415
1.698756388
1.662698662
1.626289468
1.589261647
1.551309752
1.512077257
1.471170211
1.428152752
1.382555024
1.333893682
1.281686679
1.225513969
1.165104845
1.100442187
1.031888785
0.9603110656
0.8870656122
0.8138711256
0.7425369494
0.6746740665
0.6114698957
0.5536244224
0.5013796097
0.4546353327
0.4130668584
0.3762032738
0.3434549425
2.259444839
2.24561361
2.253241156
2.235303598
2.217899596
2.197609395
2.173982321
2.14761418
2.118948117
2.088355613
2.056200194
2.022832161
1.988595178
1.95376911
1.918620453
1.883367614
1.848187719
1.813204581
1.778514801
1.744147473
1.710091647
1.676301735
1.64268609
1.609110433
1.575398437
1.541334477
1.506665647
1.471099797
1.434303753
1.39591304
1.35551541
1.312670141
1.266922939
1.217834774
1.1650188
1.108222357
1.047434961
0.9829971857
0.9157018289
0.846805438
0.7778865436
0.7106255903
0.6465221868
0.5867017179
0.5318411553
0.4821919185
0.4376855558
0.3980379409
0.3628200471
0.3314868271
2.130419065
2.117264103
2.124492577
2.10760733
2.091207934
2.072114175
2.049899924
2.025134914
1.998235658
1.969556365
1.93944367
1.908236793
1.876234187
1.843716481
1.810929293
1.778067693
1.74529389
1.712728573
1.680439099
1.648454462
1.616768857
1.58532525
1.554029566
1.522750406
1.491321932
1.459540266
1.427167032
1.393921959
1.359490929
1.323527081
1.285649364
1.245451542
1.202506395
1.156402069
1.106788107
1.053435044
0.9963287299
0.935794189
0.8725568116
0.8077752083
0.7429046142
0.6795038759
0.618970867
0.5623724838
0.5103606717
0.4631964997
0.4208391878
0.3830415001
0.3494132262
0.3194512965
2.005424248
1.992930605
1.999776381
1.983936617
1.968514299
1.950610371
1.929791395
1.906597235
1.881435283
1.854640948
1.826536974
1.797436475
1.767627113
1.737377554
1.70689317
1.676376696
1.645956551
1.615743931
1.585805381
1.556152552
1.526771022
1.497608021
1.468573385
1.439535376
1.41033291
1.38076882
1.350617729
1.31961774
1.287476039
1.253862028
1.218417383
1.180760048
1.140503315
1.097260572
1.050703632
1.000630341
0.9470279165
0.8901933055
0.830803052
0.7699175424
0.7088847568
0.649145105
0.5920068694
0.5384800862
0.4891919029
0.4444108061
0.4041206003
0.3681071803
0.3360166553
0.3073853648
1.884723684
1.872881796
1.879365379
1.864534411
1.8500631
1.833308273
1.813848038
1.792185021
1.768708821
1.743736148
1.717573737
1.690519075
1.662844612
1.63477944
1.606539036
1.578279802
1.550143917
1.522214964
1.49454366
1.467148011
1.440005178
1.413056314
1.386207308
1.359335931
1.332289031
1.30487614
1.276881181
1.248055156
1.218120376
1.186771828
1.153674096
1.118467377
1.080787027
1.040284505
0.996653841
0.9497040799
0.8994346919
0.8461140588
0.7903720786
0.7331803408
0.6757879103
0.6195264377
0.5656212143
0.5150259922
0.4683457043
0.4258535575
0.3875549887
0.3532651512
0.3226645372
0.2953264046
1.768585626
1.757385883
1.763519638
1.749642439
1.736095544
1.720431268
1.702266152
1.682068125
1.660205264
1.636976495
1.612679384
1.587587737
1.561946127
1.535983414
1.509881307
1.483797467
1.457841061
1.432102503
1.406615843
1.381385383
1.356388184
1.331569404
1.306830573
1.282051603
1.257081107
1.23173956
1.205823453
1.179097089
1.151296889
1.122132714
1.091290737
1.058441608
1.023240539
0.9853596176
0.9445270157
0.9005608801
0.853462131
0.8034839381
0.7512027406
0.697518209
0.643581413
0.5906285196
0.5398062534
0.492013624
0.4478344366
0.4075443381
0.3711675035
0.3385455597
0.3093907678
0.2833111612
1.657278123
1.646695572
1.652472288
1.63950246
1.626823414
1.612200038
1.595253971
1.576434594
1.55609542
1.53451919
1.511980355
1.488734676
1.465022897
1.441044186
1.41697128
1.392941563
1.369062699
1.345397974
1.321982973
1.298819151
1.275873627
1.253083799
1.230357599
1.20758127
1.184605155
1.161257261
1.137339808
1.112629179
1.086882049
1.059823311
1.031155338
1.00056709
0.9677463774
0.9323834161
0.8942236913
0.8531069271
0.8090287445
0.7622302248
0.7132383709
0.6628870754
0.6122361346
0.5624352848
0.5145566854
0.4694479929
0.4276714983
0.3895035008
0.3549838452
0.3239784742
0.2962288647
0.2713757984
1.551029571
1.541037119
1.546459889
1.534346235
1.522465923
1.508808045
1.493001556
1.47546844
1.456544883
1.436501786
1.415598506
1.39408135
1.372167392
1.350039605
1.327865695
1.30576087
1.283822583
1.262111493
1.240646091
1.219423267
1.198413334
1.177548046
1.156735461
1.135860101
1.114779532
1.093333553
1.071330588
1.048556159
1.024776196
0.9997350744
0.9731559277
0.9447434373
0.9142020952
0.881252374
0.8456523912
0.8072562148
0.7660611753
0.7222886985
0.6764275232
0.6292470138
0.5817257305
0.5349333811
0.4898692457
0.447335079
0.4078706997
0.3717513113
0.3390293113
0.3095931797
0.2832111003
0.2595546304
1.450068857
1.440639374
1.445720186
1.434384826
1.423248137
1.410460386
1.395695201
1.379339766
1.361713292
1.343076239
1.323682133
1.303750368
1.28348386
1.263068502
1.242636979
1.222313114
1.20217281
1.182265053
1.162613474
1.143203973
1.123998768
1.104931174
1.085915255
1.066834744
1.047550124
1.027904507
1.007716402
0.986787212
0.9648899574
0.9417802942
0.9171978467
0.8908710771
0.862517735
0.831876668
0.7987277542
0.7629299365
0.7244871546
0.6835992153
0.6407219076
0.5965616243
0.5520256187
0.5081083681
0.4657408696
0.4256807674
0.3884452483
0.3543067835
0.3233282049
0.2954181787
0.2703695767
0.2478830148
1.354625663
1.34573261
1.350459454
1.339830915
1.329363862
1.317369193
1.30353486
1.288236388
1.271780368
1.254415974
1.236374671
1.217871364
1.199105032
1.18023029
1.161387962
1.142674825
1.124173698
1.105918936
1.087922429
1.070175278
1.052636683
1.035236218
1.017885993
1.000474225
0.9828698969
0.9649190004
0.9464464309
0.9272593841
0.9071477539
0.885879468
0.8632049449
0.8388681655
0.8126089068
0.7841770602
0.7533716649
0.720059024
0.6842429529
0.6461079677
0.6060765916
0.5647986976
0.5231160398
0.4819497829
0.4421703522
0.4044920789
0.3694094497
0.3371892467
0.3079040638
0.2814800141
0.2577324053
0.236389045
1.264918421
1.256520373
1.260890623
1.250905472
1.241018456
1.229721066
1.216712916
1.202347862
1.186922843
1.170677417
1.153832456
1.136602621
1.119158214
1.101657917
1.084223806
1.066955175
1.049913529
1.033138953
1.01663759
1.000392171
0.9843601958
0.9684770245
0.9526542835
0.9367807423
0.920727609
0.9043480052
0.8874776425
0.8699294611
0.8515001869
0.8319714439
0.8111096713
0.7886684317
0.7644041342
0.7380843071
0.7095152366
0.678577567
0.6452690676
0.6097642403
0.5724485975
0.5339247155
0.4949723751
0.4564439655
0.4191530494
0.3837720459
0.3507724646
0.3204141502
0.2927775666
0.267804419
0.245331001
0.2251109762
1.181154998
1.173214994
1.177233834
1.167809623
1.158429073
1.147722023
1.135423259
1.121861393
1.107324145
1.09204516
1.076240189
1.060102288
1.043803826
1.02749446
1.011285871
0.9952708924
0.9795102629
0.9640311873
0.948841896
0.9339267586
0.9192375312
0.9047085757
0.890254746
0.8757718758
0.8611339306
0.846197093
0.8308009722
0.8147721904
0.7979158718
0.7800206138
0.7608657833
0.7402208332
0.7178505635
0.6935410244
0.6671057863
0.6384335883
0.6075196135
0.5745266862
0.53980661
0.5039183261
0.4675809018
0.4315855427
0.3966912016
0.363529845
0.3325482423
0.303999455
0.2779691449
0.2544119684
0.2331825735
0.2140583188
1.103559298
1.09604198
1.099708276
1.090761852
1.081806974
1.07159601
1.059882858
1.046989331
1.033194703
1.018723178
1.003780708
0.9885572296
0.9732224899
0.9579086489
0.9427344156
0.9277789944
0.9130994217
0.8987262261
0.8846613595
0.8708854309
0.8573564081
0.8440100182
0.8307610757
0.8175060545
0.8041271616
0.7904887375
0.776433648
0.7617930615
0.7463838796
0.7300062251
0.7124461933
0.6934867656
0.6729063757
0.6504984425
0.6260911812
0.5995739392
0.5709440599
0.5403464531
0.5081064503
0.4747409138
0.4409113475
0.4073520833
0.3747698721
0.3437570032
0.3147355147
0.2879506088
0.2634918141
0.241325916
0.2213257977
0.2032919663
1.032378473
1.025235906
1.028546061
1.02000503
1.011383296
1.001566157
0.9903220066
0.9779608977
0.9647553505
0.950924273
0.9366715433
0.9221835725
0.9076149298
0.8931058681
0.878758046
0.864661037
0.8508606931
0.8373848299
0.8242435852
0.8114131784
0.7988507417
0.7864958561
0.7742704502
0.7620728134
0.7497886388
0.7372860855
0.7244205823
0.711028418
0.6969315898
0.6819414475
0.6658563643
0.6484647407
0.6295612187
0.6089461313
0.5864569036
0.5619859253
0.5355297051
0.5072166863
0.4773473228
0.4463953045
0.4149716101
0.3837560671
0.3534057182
0.3244725517
0.2973550514
0.2722882287
0.2493623229
0.2285521546
0.2097440079
0.1927580458
0.9678673868
0.961054623
0.9640146378
0.9557987178
0.9474266503
0.9378939179
0.926995954
0.9150287426
0.9022591577
0.8889052016
0.8751673386
0.8612206969
0.8472268582
0.8333146047
0.8195919403
0.8061351978
0.7930022625
0.7802156658
0.7677819674
0.7556855096
0.7438861763
0.7323249953
0.72092513
0.7095934752
0.698222582
0.6866845553
0.6748394336
0.6625343337
0.6495997432
0.6358523335
0.6211025129
0.6051490701
0.5877925782
0.5688478649
0.5481548508
0.5256131933
0.5012119034
0.4750683035
0.4474579439
0.4188131697
0.3896977723
0.360739734
0.3325471754
0.3056335683
0.2803733771
0.2569910668
0.2355780912
0.2161194982
0.1985188473
0.1826173843
0.9103380006
0.903809167
0.9064293537
0.8984510243
0.8902448089
0.8808933882
0.8702147704
0.8585007197
0.8460136059
0.8329669874
0.8195570046
0.8059625666
0.7923408939
0.7788180291
0.7655035732
0.7524746666
0.7397829203
0.7274624378
0.7155185581
0.7039355359
0.692678373
0.6816971692
0.6709171767
0.6602506369
0.6495945131
0.6388323581
0.6278300529
0.6164398923
0.604502815
0.5918453982
0.5782832071
0.5636289046
0.5476890271
0.5302875743
0.5112697418
0.4905386376
0.4680766929
0.4439898032
0.418525547
0.3920806217
0.3651731064
0.3383818358
0.3122671872
0.2873058827
0.2638468832
0.2421004871
0.2221529606
0.203989966
0.1875201723
0.1725986235
0.8601814405
0.8538863396
0.8561680681
0.8483478489
0.84021339
0.8309376116
0.8203546569
0.8087499297
0.7963830841
0.7834683942
0.7702022345
0.7567639971
0.7433040685
0.7299584798
0.7168285003
0.7039988858
0.6915222808
0.6794320365
0.6677418996
0.6564399859
0.6454953119
0.6348606258
0.6244716446
0.6142479743
0.6040914152
0.5938907857
0.5835238447
0.5728506136
0.5617178584
0.5499638312
0.5374131873
0.5238847792
0.5091985603
0.493182089
0.47568998
0.4566237603
0.4359637691
0.4138029306
0.3903633271
0.3660076256
0.3412107002
0.3165021385
0.2923978871
0.2693380237
0.2476468112
0.2275230631
0.209054153
0.1922378548
0.17700361
0.163226462
0.8178914398
0.8117719589
0.813725813
0.8059803114
0.7978226299
0.7885083287
0.7778893522
0.7662447904
0.7538332409
0.7408728529
0.7275595221
0.7140689767
0.7005603685
0.687164367
0.6739918359
0.661122838
0.6486205499
0.6365208442
0.6248394566
0.6135722701
0.6026971183
0.592171233
0.5819363101
0.5719210458
0.5620379658
0.5521822498
0.5422383316
0.5320787515
0.5215588745
0.5105235158
0.4988107928
0.4862455372
0.4726574002
0.4578796305
0.4417723499
0.4242358072
0.4052465532
0.38488053
0.3633372623
0.3409458858
0.3181395222
0.2954025183
0.2732088598
0.251962452
0.2319596355
0.2133787477
0.1962914517
0.1806815187
0.1664663434
0.1535248219
0.7841299003
0.778125401
0.7797698441
0.7720000267
0.7637231414
0.7542501889
0.7434525071
0.7316090746
0.7189791663
0.7057810753
0.6922112033
0.6784518953
0.6646639821
0.6509799836
0.637516044
0.6243569081
0.6115663489
0.5991922678
0.5872534046
0.5757510791
0.5646706615
0.5539800257
0.5436270646
0.5335482606
0.5236648964
0.5138848205
0.5040997784
0.4941901782
0.4840257829
0.4734596941
0.4623386237
0.4505005777
0.4377817128
0.4240255217
0.409094894
0.3928932862
0.3753926388
0.3566549664
0.3368586214
0.3163013825
0.2953753885
0.2745225987
0.254175914
0.2347052634
0.2163846744
0.1993846239
0.1837848336
0.1695930304
0.1567619064
0.1451907303
0.7598270346
0.753870302
0.7552128757
0.7473169401
0.7388082196
0.729048159
0.7179201142
0.7057033232
0.6926612763
0.6790155125
0.6649676405
0.6507079196
0.6363938739
0.6221704973
0.6081525321
0.594436935
0.581090889
0.5681666471
0.555695563
0.5436844938
0.532126656
0.520998473
0.5102599809
0.4998558884
0.4897171173
0.4797625348
0.4698961832
0.4600081157
0.4499780602
0.4396725477
0.4289461246
0.417648714
0.4056228379
0.3927197466
0.37880352
0.3637775366
0.3476039893
0.3303300394
0.3121106735
0.2932113768
0.2739877637
0.254843574
0.2361745101
0.2183161408
0.2015104972
0.1858954708
0.1715134625
0.1583269171
0.1462398749
0.1351384233
0.7462806299
0.7402889718
0.7413426724
0.7332049123
0.7243278018
0.7141244117
0.7024842637
0.689689328
0.6760097249
0.6616729439
0.6468903929
0.6318519227
0.6167249665
0.6016623079
0.58678332
0.5721915102
0.5579640276
0.5441585056
0.530814379
0.5179487345
0.5055625244
0.4936406765
0.4821542047
0.4710583108
0.4602943815
0.4497918847
0.4394686488
0.4292263259
0.4189565651
0.4085404569
0.3978445552
0.3867309909
0.3750543747
0.3626743465
0.3494616229
0.3353216029
0.3202105717
0.3041637058
0.2873155787
0.2699021895
0.2522454335
0.234713094
0.2176677051
0.2014199295
0.1862009696
0.1721576315
0.1593657499
0.1478474053
0.1375810597
0.1284755498
0.7454597773
0.7393264972
0.7401042031
0.7315757378
0.7221750349
0.7113375048
0.6989703284
0.6853585813
0.6707826489
0.6554809502
0.6396716527
0.6235532992
0.607305805
0.5910869336
0.5750283695
0.5592397992
0.5438100638
0.5288045979
0.5142714495
0.5002385954
0.4867161937
0.4736992596
0.4611692851
0.4490929986
0.437423266
0.426101637
0.4150588261
0.4042096356
0.3934589212
0.382701218
0.3718159173
0.3606764914
0.3491475435
0.3370947753
0.3243910913
0.310937659
0.2966785645
0.2816291004
0.2658967734
0.2496856609
0.2332853483
0.2170327924
0.2012610403
0.1862489133
0.1721867657
0.1591634529
0.1471728088
0.1361287455
0.1258910472
0.1163311719
0.7537223339
0.7542313283
0.745112584
0.734963913
0.7232336194
0.7098336227
0.6950673901
0.6792301697
0.6625719436
0.6453237872
0.6276977718
0.6098869072
0.5920577
0.5743541451
0.5568951538
0.5397797036
0.5230822052
0.5068604168
0.491150512
0.4759721338
0.4613300984
0.4472161081
0.4336065342
0.4204664506
0.4077508176
0.3954024371
0.3833521372
0.3715216958
0.3598213236
0.3481491473
0.336396614
0.3244438493
0.3121711144
0.2994601387
0.2862142792
0.272372724
0.2579362894
0.2429904439
0.2277132113
0.2123670588
0.1972660003
0.1827294537
0.1690386842
0.1564114153
0.1449988132
0.134899627
0.1261748821
0.1188446216
0.1128073643
)
;

boundaryField
{
    front_top
    {
        type            wedge;
    }
    front_middle
    {
        type            wedge;
    }
    front_bottom
    {
        type            wedge;
    }
    back_top
    {
        type            wedge;
    }
    back_middle
    {
        type            wedge;
    }
    back_bottom
    {
        type            wedge;
    }
    axis_top
    {
        type            symmetryPlane;
    }
    axis_middle
    {
        type            symmetryPlane;
    }
    axis_bottom
    {
        type            symmetryPlane;
    }
    wall_top
    {
        type            calculated;
        value           nonuniform 0();
    }
    wall_middle
    {
        type            calculated;
        value           nonuniform List<scalar> 
23
(
0.3287294819
0.3173816605
0.3059493795
0.2944707653
0.282984344
0.2715278781
0.2601384616
0.2488510908
0.2377023814
0.2267201629
0.2159456783
0.2053845555
0.1951080432
0.1850443188
0.175391929
0.1658116562
0.1569575338
0.1476254024
0.1399202728
0.1300613029
0.1243374681
0.1119414953
0.1101250298
)
;
    }
    wall_bottom
    {
        type            calculated;
        value           nonuniform 0();
    }
    inlet
    {
        type            calculated;
        value           nonuniform 0();
    }
    outlet
    {
        type            calculated;
        value           nonuniform 0();
    }
    procBoundary3to2
    {
        type            processor;
        value           nonuniform List<scalar> 
51
(
0.7601051004
0.7601051004
0.7881065799
0.7883171435
0.7783436031
0.7671478023
0.7541868555
0.7393749595
0.723040068
0.7055020119
0.6870338353
0.6678877949
0.6482955708
0.6284684151
0.6085882989
0.5888136597
0.5692775311
0.5500883856
0.5313319511
0.5130762866
0.4953630375
0.4782209689
0.4616645833
0.4456890831
0.4302807815
0.4154146382
0.4010537154
0.3871509336
0.3736511356
0.3604892258
0.3475891639
0.3348678696
0.3222305469
0.3095755152
0.2967944356
0.28377795
0.2704255352
0.2566631238
0.2424620428
0.2278676079
0.213016464
0.1981342769
0.1835094817
0.1694414031
0.156179855
0.1438760084
0.1325593036
0.1221475436
0.1124802117
0.1033642045
0.09466256195
)
;
    }
    procBoundary3to4
    {
        type            processor;
        value           nonuniform List<scalar> 
51
(
2.667819725
2.652018634
2.661006379
2.639882419
2.619589599
2.595779891
2.567991699
2.536910773
2.503029468
2.466763455
2.428532893
2.388742082
2.347783502
2.306010084
2.263726349
2.221223809
2.178705937
2.136353965
1.985329916
1.985329916
1.946078518
1.907170139
1.868563252
1.830166169
1.791835149
1.753384425
1.714576226
1.675127052
1.634713804
1.592961198
1.549449358
1.50371796
1.455263281
1.403558271
1.348088226
1.288401559
1.224200581
1.155456063
1.082565329
1.006462268
0.9286195557
0.85090565
0.7752705008
0.7034439078
0.6366812711
0.5757040622
0.5207441161
0.471665671
0.4280994698
0.3895294111
0.3553184554
)
;
    }
}


// ************************************************************************* //
