/*--------------------------------*- C++ -*----------------------------------*\
  =========                 |
  \\      /  F ield         | OpenFOAM: The Open Source CFD Toolbox
   \\    /   O peration     | Website:  https://openfoam.org
    \\  /    A nd           | Version:  7
     \\/     M anipulation  |
\*---------------------------------------------------------------------------*/
FoamFile
{
    version     2.0;
    format      ascii;
    class       volVectorField;
    location    "0.0024";
    object      grad(generalizedNewtonian:nu);
}
// * * * * * * * * * * * * * * * * * * * * * * * * * * * * * * * * * * * * * //

dimensions      [0 1 -1 0 0 0 0];

internalField   nonuniform List<vector> 
1167
(
(-801.2531163 0 8223.893891)
(-79.21547915 0 8166.043441)
(-560.2232813 1.801403496e-10 8232.982592)
(-1452.377574 0 8224.555068)
(-1588.734957 -2.115743636e-10 8203.556612)
(-1889.218698 8.899394017e-11 8187.986393)
(-2189.661536 0 8168.921069)
(-2456.449758 0 8143.528073)
(-2698.243085 6.259201738e-11 8112.127058)
(-2915.314527 0 8074.26538)
(-3106.053736 -2.678053401e-11 8029.4473)
(-3270.845321 -2.513882857e-11 7977.568801)
(-3410.960793 0 7918.966273)
(-3526.456984 0 7853.239382)
(-3620.467607 2.166252817e-11 7781.108283)
(-3695.574551 2.083210746e-11 7703.674889)
(-3755.120137 0 7621.607498)
(-3803.514811 -1.949692584e-11 7536.126834)
(-782.5700584 0 8026.915469)
(-81.23743765 -3.045264853e-10 7968.960199)
(-541.2724825 0 8031.796188)
(-1406.563707 -1.378991513e-10 8021.158266)
(-1539.084927 -1.102767305e-10 7997.330708)
(-1827.230627 0 7978.229382)
(-2116.90511 0 7954.367499)
(-2373.155953 7.192215845e-11 7924.363966)
(-2603.881555 0 7887.994685)
(-2810.292927 3.001169709e-11 7844.957777)
(-2991.606459 0 7795.119483)
(-3147.737554 0 7738.682948)
(-3278.734697 2.478601829e-11 7674.842873)
(-3386.737182 2.359361561e-11 7604.394228)
(-3474.145544 0 7528.430542)
(-3543.714625 0 7447.038377)
(-3598.41131 2.097043838e-11 7361.836229)
(-3642.125318 0 7273.606059)
(-3679.773307 0 7183.896506)
(-3715.313933 1.927129394e-11 7094.53337)
(-3753.182017 -1.884162828e-11 7006.843482)
(-3798.622833 0 6922.675879)
(-3857.279691 -1.813453333e-11 6844.129978)
(-3934.327543 -1.784476378e-11 6773.115746)
(-4035.420093 0 6711.930174)
(-4166.87187 0 6662.955566)
(-4334.976289 1.717622797e-11 6628.562387)
(-4546.969985 0 6611.70948)
(-4810.478945 0 6615.434117)
(-5133.076084 0 6642.627431)
(-5522.573543 8.320134937e-12 6696.742449)
(-5985.436979 0 6780.460392)
(-6526.211295 -1.648715847e-11 6895.521265)
(-7144.615039 0 7041.539297)
(-7830.229124 -1.639568563e-11 7213.775945)
(-8558.580391 0 7401.133616)
(-9287.13548 -1.635783928e-11 7583.856456)
(-9952.333256 0 7732.828964)
(-10478.01524 8.183684821e-12 7813.130554)
(-10792.98186 0 7792.041529)
(-10851.12454 -4.104840013e-12 7649.487827)
(-10646.20223 4.115006894e-12 7383.918113)
(-10212.05523 4.127479016e-12 7013.502691)
(-9608.406143 -4.14216564e-12 6568.377236)
(-8902.649055 -2.079492669e-12 6082.278121)
(-8155.534512 2.08893289e-12 5585.595831)
(-7412.996844 2.099371153e-12 5101.027722)
(-6707.790338 4.22155725e-12 4644.764357)
(-6065.94169 0 4230.080398)
(-5503.484644 -2.136401619e-12 3865.050456)
(-762.5560263 -9.297555695e-10 7812.422967)
(-80.8157861 0 7754.449739)
(-520.5199804 0 7814.190207)
(-1357.853014 0 7802.580944)
(-1485.822071 1.150582611e-10 7776.190396)
(-1761.377731 0 7754.760937)
(-2038.692286 0 7728.159744)
(-2283.856265 0 7694.637211)
(-2503.728484 0 7654.742725)
(-2699.774781 0 7608.313091)
(-2871.287486 0 7555.139728)
(-3017.508557 0 7494.678569)
(-3140.094073 -2.586072461e-11 7427.537069)
(-3241.029826 0 7354.476458)
(-3321.909054 0 7275.526841)
(-3385.77524 0 7192.000319)
(-3436.233861 0 7104.690884)
(-3476.450664 0 7015.00579)
(-3510.672674 2.061904649e-11 6924.251991)
(-3544.066314 0 6834.168486)
(-3580.500062 1.965858961e-11 6746.071161)
(-3624.481823 0 6661.880378)
(-3681.273595 0 6583.476607)
(-3756.299784 0 6512.823104)
(-3855.175935 0 6452.097851)
(-3983.62928 -9.061181025e-12 6403.506352)
(-4147.771862 -1.792097846e-11 6369.383614)
(-4354.341177 0 6352.637646)
(-4610.010544 0 6355.87588)
(-4922.321942 8.734520484e-12 6382.149501)
(-5299.066032 0 6434.631437)
(-5746.296524 0 6515.747591)
(-6267.491356 0 6627.194284)
(-6861.818228 -1.7146845e-11 6768.395833)
(-7520.033696 -8.553296169e-12 6934.884823)
(-8218.75781 0 7116.10402)
(-8917.293591 0 7293.585669)
(-9556.584068 0 7439.813177)
(-10064.9117 0 7522.148292)
(-10375.2663 -4.274727285e-12 7509.639715)
(-10443.70797 -4.282823311e-12 7382.836557)
(-10262.76899 0 7139.360421)
(-9862.735785 0 6795.340505)
(-9298.274858 0 6378.188303)
(-8632.76838 0 5919.696958)
(-7923.80216 0 5448.558008)
(-7215.507917 0 4986.649422)
(-6540.171407 2.20230067e-12 4550.026003)
(-5923.67179 -2.215187284e-12 4151.958483)
(-5381.537437 0 3800.283867)
(-741.1686358 0 7580.533293)
(-79.75667065 0 7523.278534)
(-499.1037899 1.023055964e-10 7580.902041)
(-1306.920371 -7.512753673e-11 7567.982766)
(-1429.653316 6.007882608e-11 7540.772525)
(-1692.993273 0 7517.379506)
(-1957.639332 0 7489.178088)
(-2190.952889 0 7453.971622)
(-2399.662953 0 7412.089741)
(-2584.956999 3.270077947e-11 7363.477268)
(-2745.898863 -3.041848781e-11 7307.989785)
(-2883.129984 2.855376785e-11 7245.661662)
(-2997.795336 2.700687387e-11 7177.269669)
(-3090.98919 0 7102.341916)
(-3165.516589 0 7022.373412)
(-3224.293205 0 6937.727967)
(-3270.089453 0 6849.886387)
(-3306.96887 2.214545088e-11 6759.771296)
(-3339.132803 0 6669.095053)
(-3370.157711 0 6579.219083)
(-3404.620978 0 6491.581249)
(-3447.533061 0 6408.090405)
(-3503.517765 0 6330.503331)
(-3577.378579 0 6260.803755)
(-3674.304795 0 6200.934325)
(-3799.835472 -1.892554649e-11 6153.075128)
(-3960.125817 0 6119.584155)
(-4161.678728 0 6103.100152)
(-4410.852495 0 6106.138223)
(-4714.426157 0 6131.791838)
(-5079.090362 0 6182.737294)
(-5511.062331 9.019404784e-12 6261.518329)
(-6014.132821 0 6369.542145)
(-6586.570716 0 6506.292741)
(-7218.960081 -8.932378896e-12 6667.452227)
(-7890.015174 -8.918649746e-12 6843.057614)
(-8560.832201 0 7015.603918)
(-9175.869092 0 7159.447933)
(-9668.342309 0 7243.720693)
(-9974.740598 0 7239.377669)
(-10052.92732 0 7127.196347)
(-9894.611603 4.483716243e-12 6904.398802)
(-9526.607527 -4.49730586e-12 6584.958922)
(-8999.205564 4.513308438e-12 6194.035774)
(-8371.862688 2.265817601e-12 5761.472136)
(-7699.044321 0 5314.333894)
(-7023.352137 2.287477217e-12 4873.805913)
(-6376.53323 0 4455.772087)
(-5784.243128 0 4073.439238)
(-5261.434861 1.163912826e-12 3734.36421)
(-719.6836884 0 7332.355194)
(-78.35713005 0 7276.369221)
(-476.4738688 0 7331.43512)
(-1255.169232 0 7317.965092)
(-1372.296328 0 7291.004525)
(-1622.581297 0 7266.871938)
(-1875.105673 4.596497294e-11 7237.843211)
(-2096.552643 -4.09592104e-11 7202.016644)
(-2293.476431 0 7159.453869)
(-2467.799457 3.418294001e-11 7110.268132)
(-2618.988265 3.179720354e-11 7054.407946)
(-2747.176698 0 6992.016508)
(-2852.980562 2.823095842e-11 6922.898009)
(-2939.03571 -2.687282726e-11 6848.125597)
(-3007.261663 0 6768.153736)
(-3060.531938 0 6684.051819)
(-3102.53135 0 6596.720038)
(-3135.840059 0 6507.48659)
(-3165.232602 -4.501772134e-11 6417.823459)
(-3194.807786 -2.194975775e-11 6329.092597)
(-3228.128816 0 6242.883399)
(-3269.646266 0 6160.772921)
(-3324.330964 0 6084.662536)
(-3397.023025 0 6016.357039)
(-3492.599091 0 5957.77572)
(-3616.179745 0 5911.092779)
(-3773.272289 1.956350456e-11 5878.561389)
(-3969.895284 0 5862.560721)
(-4212.548901 -9.604742284e-12 5865.724122)
(-4507.915353 0 5890.82263)
(-4862.161754 0 5940.520175)
(-5280.234118 0 6017.123894)
(-5765.707662 9.389331514e-12 6121.996299)
(-6317.80313 9.359209277e-12 6254.620438)
(-6926.520998 0 6410.77109)
(-7571.428874 4.661443454e-12 6581.154173)
(-8216.721039 0 6749.19345)
(-8809.480215 -9.315216605e-12 6890.920921)
(-9287.169075 4.660556278e-12 6977.0184)
(-9590.01197 9.3330447e-12 6980.216585)
(-9677.445802 4.675360378e-12 6881.648836)
(-9540.524887 4.686940323e-12 6678.127912)
(-9202.513988 4.701145955e-12 6381.507952)
(-8710.062889 0 6015.151769)
(-8118.849158 0 5606.892895)
(-7480.373216 0 5182.345414)
(-6835.797047 2.391156956e-12 4762.025393)
(-6216.279467 0 4361.629905)
(-5647.162119 0 3994.223926)
(-5142.792081 -1.216667089e-12 3667.067323)
(-697.7772362 0 7068.345277)
(-76.21706316 -1.814684234e-10 7013.452443)
(-453.7725603 0 7066.098874)
(-1203.582688 0 7053.523021)
(-1315.155602 0 7026.795354)
(-1552.224422 0 7003.459123)
(-1792.108259 0 6974.918285)
(-2001.889892 4.285867184e-11 6939.492363)
(-2187.623968 3.888174779e-11 6897.606377)
(-2351.2704 0 6849.378629)
(-2492.22376 0 6794.338735)
(-2610.655272 0 6732.58378)
(-2708.470471 2.954015409e-11 6664.715054)
(-2787.13435 -5.623808049e-11 6591.294013)
(-2849.192237 0 6512.747023)
(-2897.317004 0 6430.346759)
(-2934.536737 0 6344.840618)
(-2965.029667 0 6257.517518)
(-2991.94962 0 6169.951458)
(-3019.157653 1.148383307e-11 6083.333825)
(-3050.98347 0 5999.235042)
(-3091.769422 -1.10033343e-11 5919.247205)
(-3145.707411 1.080643337e-11 5845.290681)
(-3217.042015 2.126751731e-11 5778.891667)
(-3310.874195 0 5722.111458)
(-3432.302531 -2.070078759e-11 5676.978141)
(-3586.511343 0 5645.627725)
(-3779.202988 0 5630.449746)
(-4016.080886 0 5633.946651)
(-4303.320192 0 5658.666373)
(-4647.261832 -9.91599634e-12 5707.308359)
(-5052.837497 0 5781.929959)
(-5522.379018 0 5883.913327)
(-6054.856568 0 6012.672278)
(-6641.735085 -4.885123886e-12 6164.196411)
(-7262.675307 0 6329.726439)
(-7883.993889 0 6493.637223)
(-8456.133678 4.873602414e-12 6633.195586)
(-8920.204611 4.876687075e-12 6721.101874)
(-9219.804461 0 6731.159161)
(-9315.913022 0 6645.268571)
(-9198.966863 4.904294635e-12 6459.529277)
(-8889.218429 2.459579559e-12 6184.167437)
(-8429.810943 0 5840.814568)
(-7872.74828 0 5455.323488)
(-7266.918406 0 5052.047829)
(-6652.110885 2.50204558e-12 4650.873754)
(-6058.802412 0 4267.238158)
(-5511.905543 0 3914.008753)
(-5025.181058 -2.546178747e-12 3598.150098)
(-675.4224093 5.562305442e-10 6788.361996)
(-73.68849147 0 6735.012119)
(-432.1478896 1.172146256e-10 6786.12583)
(-1152.891205 8.607589806e-11 6774.733587)
(-1259.091427 -6.883413373e-11 6749.179932)
(-1483.913692 0 6727.016264)
(-1710.993058 0 6700.160993)
(-1909.076163 -4.489341903e-11 6666.553552)
(-2083.745799 0 6626.525952)
(-2236.511771 0 6580.087999)
(-2367.142917 3.485138411e-11 6527.059826)
(-2476.782601 3.27149181e-11 6467.824724)
(-2566.293576 -3.094259488e-11 6402.517201)
(-2637.646236 0 6331.527633)
(-2693.348119 0 6255.896603)
(-2736.290525 0 6176.208381)
(-2769.253451 0 6093.663176)
(-2795.789413 0 6009.398936)
(-2820.25819 -2.467087883e-11 5924.820954)
(-2845.752602 0 5841.240487)
(-2875.739155 0 5760.035123)
(-2914.917223 0 5682.949595)
(-2967.671 1.131947685e-11 5611.667433)
(-3037.98772 0 5547.745236)
(-3130.515811 1.09801921e-11 5493.276173)
(-3249.754071 -1.084178645e-11 5450.036904)
(-3400.772601 1.072130774e-11 5420.194074)
(-3589.209577 -2.123396814e-11 5406.10482)
(-3820.690805 -1.052729578e-11 5410.059346)
(-4100.902537 0 5434.69224)
(-4435.098763 -1.03867657e-11 5482.404013)
(-4828.257345 0 5555.308368)
(-5283.243965 1.029119437e-11 5654.633994)
(-5797.752753 5.129089408e-12 5779.770911)
(-6363.70881 0 5926.972992)
(-6962.561582 -5.109183818e-12 6087.923137)
(-7561.664205 0 6247.988601)
(-8114.706643 5.10498028e-12 6385.509291)
(-8566.252024 0 6475.042241)
(-8862.797909 -5.114750486e-12 6491.319141)
(-8967.125171 0 6417.160261)
(-8868.683008 2.568564831e-12 6247.767471)
(-8585.497893 2.576349918e-12 5992.200389)
(-8157.3026 2.585517174e-12 5670.321007)
(-7632.587446 0 5306.174576)
(-7057.870909 -2.607801049e-12 4922.960149)
(-6471.575233 2.620832023e-12 4539.946975)
(-5903.462798 -2.63507302e-12 4172.249178)
(-5377.960082 0 3832.529412)
(-4908.192079 0 3527.41923)
(-653.5342724 5.832799794e-10 6493.591358)
(-72.26404068 0 6442.336898)
(-411.9805034 0 6492.239008)
(-1104.245639 0 6481.973575)
(-1204.970525 7.218153074e-11 6458.885215)
(-1418.018551 0 6438.466324)
(-1633.402017 0 6413.926459)
(-1819.974008 0 6383.001003)
(-1983.434002 0 6345.928669)
(-2125.821349 0 6302.649859)
(-2247.061246 -3.654620356e-11 6253.239482)
(-2347.450021 -3.430584115e-11 6197.550291)
(-2428.587297 0 6135.74388)
(-2492.763923 0 6068.801353)
(-2542.209483 0 5996.90106)
(-2579.516652 0 5921.294229)
(-2608.036859 0 5842.671529)
(-2631.242861 0 5762.48945)
(-2652.343703 0 5681.88525)
(-2675.179151 -1.261400745e-11 5602.110201)
(-2703.61739 0 5524.600461)
(-2741.529414 0 5451.171023)
(-2792.564851 1.186994185e-11 5383.139145)
(-2861.061212 -2.336054687e-11 5322.275289)
(-2951.660389 0 5270.50361)
(-3068.685582 1.136902141e-11 5229.515276)
(-3216.967744 0 5201.569541)
(-3401.230992 1.113328687e-11 5188.780585)
(-3626.923865 0 5193.465927)
(-3900.001846 0 5218.182874)
(-4225.477998 1.089187308e-11 5265.223077)
(-4607.094045 -5.418168829e-12 5336.572368)
(-5047.610402 0 5433.426325)
(-5545.57023 0 5555.186877)
(-6092.259635 0 5698.411707)
(-6670.295522 -5.357642879e-12 5855.099364)
(-7248.803956 0 6011.408247)
(-7784.032729 1.070646996e-11 6147.056276)
(-8223.882504 5.356623242e-12 6237.853147)
(-8517.618692 -5.363480282e-12 6259.850123)
(-8629.597101 0 6196.3839)
(-8548.402939 -2.693473883e-12 6042.009993)
(-8290.163144 5.403275105e-12 5804.853967)
(-7891.399105 0 5502.990242)
(-7397.376197 -2.722259947e-12 5158.869033)
(-6852.389998 0 4794.602251)
(-6293.484657 0 4428.849108)
(-5749.650291 -1.381608173e-12 4076.345344)
(-5244.813091 -1.389692553e-12 3749.54196)
(-4791.41437 -1.398379688e-12 3454.709576)
(-632.2828881 -6.123515639e-10 6185.220467)
(-71.56602153 2.092623209e-10 6136.135263)
(-393.2271509 1.290410247e-10 6184.303048)
(-1058.597311 0 6176.212292)
(-1154.705849 0 6155.666833)
(-1355.984589 0 6138.418283)
(-1560.043373 5.546309657e-11 6116.952409)
(-1736.050021 -4.942295179e-11 6089.550869)
(-1889.222718 -4.483691772e-11 6056.503997)
(-2021.631979 0 6017.608344)
(-2133.127602 0 5972.430562)
(-2224.549187 0 5921.199911)
(-2297.931995 0 5864.51874)
(-2354.737419 -1.621289117e-11 5802.279512)
(-2397.677144 0 5735.560233)
(-2429.722806 0 5664.887293)
(-2453.313693 -1.441031506e-11 5591.372018)
(-2472.472407 0 5516.164297)
(-2490.621251 0 5440.39963)
(-2510.565619 1.324270926e-11 5365.314043)
(-2536.361705 0 5292.343289)
(-2572.152626 0 5223.117814)
(-2621.460424 0 5158.953131)
(-2688.266133 0 5101.726059)
(-2776.429666 -1.208804146e-11 5053.050843)
(-2890.39137 -2.387134214e-11 5014.759568)
(-3035.200152 -1.18030368e-11 4989.041474)
(-3215.427567 0 4977.832979)
(-3435.839692 1.158944991e-11 4983.560062)
(-3701.60529 0 5008.534938)
(-4017.972576 5.717370488e-12 5055.076382)
(-4388.908817 0 5125.055344)
(-4815.973704 0 5219.683473)
(-5297.8084 0 5338.323539)
(-5826.502952 -5.633334722e-12 5477.694139)
(-6384.994744 0 5630.398459)
(-6944.337295 1.124066231e-11 5783.113773)
(-7463.077684 0 5916.963198)
(-7891.892893 -5.623605652e-12 6008.697647)
(-8182.968767 0 6035.878369)
(-8301.821741 0 5982.043054)
(-8236.799096 0 5841.526456)
(-8002.067858 0 5621.463413)
(-7631.000242 0 5338.214062)
(-7166.12665 0 5012.882104)
(-6649.630638 0 4666.553716)
(-6117.132884 0 4317.231826)
(-5596.779219 -1.450469676e-12 3979.245933)
(-5112.010718 2.917914009e-12 3664.832217)
(-4674.510681 0 3379.853214)
(-611.7187831 0 5863.212716)
(-71.17759937 0 5816.272621)
(-377.0005114 -1.356369737e-10 5863.267318)
(-1016.563202 -9.960424528e-11 5858.052073)
(-1108.988996 7.965263324e-11 5840.329917)
(-1299.920987 0 5826.511164)
(-1492.904201 0 5809.169348)
(-1658.981003 0 5786.312863)
(-1802.468412 4.712876274e-11 5758.033461)
(-1925.001257 0 5724.061839)
(-2027.362705 -2.016444741e-11 5684.326764)
(-2110.865814 0 5639.043678)
(-2176.11069 0 5588.000303)
(-2225.855238 0 5531.803817)
(-2262.514276 0 5471.128935)
(-2288.573143 0 5406.561391)
(-2307.672478 0 5339.026133)
(-2322.464043 0 5269.729107)
(-2336.484759 0 5199.678468)
(-2353.4063 1.39196121e-11 5130.086328)
(-2376.662312 0 5062.433588)
(-2409.638507 0 4998.070009)
(-2456.085232 0 4938.436325)
(-2520.252352 2.577846531e-11 4885.313274)
(-2605.81824 1.270592325e-11 4840.228432)
(-2716.812632 0 4805.135464)
(-2857.486674 -1.240635061e-11 4781.907287)
(-3032.653557 0 4772.633103)
(-3247.417007 6.09092313e-12 4779.618094)
(-3506.302451 -6.046741421e-12 4805.118405)
(-3813.627996 -6.009614647e-12 4851.329054)
(-4173.549435 0 4920.143914)
(-4587.891237 -5.954318652e-12 5012.676571)
(-5054.432372 0 5128.43946)
(-5565.978241 5.92128336e-12 5264.214678)
(-6106.110448 5.912182199e-12 5413.064624)
(-6647.329363 0 5562.381033)
(-7150.531576 5.907318103e-12 5694.29413)
(-7569.004719 0 5786.758778)
(-7857.54532 5.918623923e-12 5818.528001)
(-7982.557794 0 5773.317223)
(-7932.548046 0 5645.554017)
(-7719.859116 0 5441.264133)
(-7374.971651 0 5175.362562)
(-6937.863867 3.004025701e-12 4867.677068)
(-6448.700007 3.017663043e-12 4538.357299)
(-5941.695051 3.03274205e-12 4204.692857)
(-5444.119405 -1.524610637e-12 3880.623903)
(-4978.860978 1.533531775e-12 3578.130267)
(-4556.858087 0 3302.674277)
(-591.856056 0 5527.874257)
(-72.41068203 2.314968366e-10 5483.534516)
(-364.1133992 -1.427518765e-10 5529.916126)
(-979.1206338 0 5527.27055)
(-1068.059165 0 5513.488034)
(-1250.092962 0 5503.31642)
(-1433.660612 6.13561551e-11 5490.569256)
(-1590.300688 0 5472.890471)
(-1724.479101 0 5450.179839)
(-1838.449669 2.281447836e-11 5422.258178)
(-1932.683381 0 5389.186816)
(-2007.660292 -1.992121687e-11 5350.256477)
(-2065.53338 -1.884198933e-11 5305.977093)
(-2108.43549 0 5256.853494)
(-2138.801822 0 5203.100096)
(-2159.189805 0 5145.535073)
(-2172.753797 -3.188287612e-11 5084.974785)
(-2183.319619 0 5022.429557)
(-2193.363961 0 4958.996716)
(-2206.167191 -1.464977197e-11 4895.702741)
(-2225.800417 0 4834.0233)
(-2255.686442 0 4775.220483)
(-2299.141845 0 4720.810389)
(-2359.814922 0 4672.331583)
(-2441.551524 0 4631.372553)
(-2548.574308 0 4599.832137)
(-2685.002428 1.305713173e-11 4579.515294)
(-2854.942921 -6.465039562e-12 4572.536896)
(-3063.075246 -6.410425439e-12 4581.010152)
(-3314.366818 0 4607.255242)
(-3612.881797 0 4653.353297)
(-3961.876047 0 4721.208217)
(-4363.421019 0 4811.881469)
(-4815.278536 -6.246551028e-12 4924.850845)
(-5310.239541 6.23188712e-12 5057.279569)
(-5832.932901 0 5202.385107)
(-6357.042123 0 5348.479434)
(-6845.403493 6.2171893e-12 5478.292749)
(-7253.993301 0 5571.279091)
(-7539.777735 -6.229088191e-12 5606.931289)
(-7670.457176 -3.120442785e-12 5569.523689)
(-7634.470523 3.128171472e-12 5453.460977)
(-7442.315031 6.275305355e-12 5263.66421)
(-7122.135119 0 5013.89513)
(-6711.594906 0 4722.839106)
(-6248.802742 -3.175955986e-12 4409.684342)
(-5766.496609 0 4090.967152)
(-5291.206586 4.813754454e-12 3780.303105)
(-4845.172497 1.613973929e-12 3489.352433)
(-4438.458616 0 3223.096595)
(-573.7676306 0 5179.874372)
(-75.43673069 -1.219835544e-10 5138.469338)
(-354.0233441 0 5183.814883)
(-947.1092492 0 5184.258706)
(-1033.97901 0 5174.607662)
(-1207.558859 0 5169.129428)
(-1382.818198 0 5161.396596)
(-1531.506985 0 5149.491165)
(-1657.703451 0 5133.183904)
(-1763.822766 -2.40434488e-11 5112.166866)
(-1849.868517 0 5085.922155)
(-1917.437261 0 5054.449065)
(-1968.455947 0 5018.078383)
(-2004.722546 0 4976.606229)
(-2028.788225 0 4930.840064)
(-2043.55787 0 4881.083837)
(-2052.047119 -1.680017156e-11 4828.38441)
(-2057.334365 0 4773.521086)
(-2062.832172 0 4717.432261)
(-2071.680919 0 4661.24918)
(-2087.167546 0 4606.312474)
(-2112.728204 0 4553.798857)
(-2152.089553 0 4505.198228)
(-2208.805536 0 4461.955798)
(-2286.342534 1.409276404e-11 4425.707551)
(-2388.379904 -6.957562086e-12 4398.141145)
(-2519.182984 6.880246627e-12 4381.163652)
(-2683.182317 6.813298334e-12 4376.762215)
(-2884.509933 0 4387.084142)
(-3127.464269 0 4414.311489)
(-3416.41394 0 4460.543305)
(-3754.50682 0 4527.595194)
(-4143.084175 -6.604227539e-12 4616.585002)
(-4580.470216 0 4726.963594)
(-5059.381719 -6.567586469e-12 4856.177221)
(-5565.100045 -6.557491918e-12 4997.688639)
(-6072.66797 0 5140.502168)
(-6546.801341 6.5520969e-12 5268.1647)
(-6945.909616 -3.278121959e-12 5361.394826)
(-7228.564502 0 5400.22543)
(-7364.2006 3.28853482e-12 5369.82407)
(-7341.127145 0 5264.364025)
(-7168.162416 3.306671788e-12 5087.903466)
(-6871.359479 0 4853.15506)
(-6486.206576 3.331912614e-12 4577.786341)
(-6048.820689 0 4279.97047)
(-5590.463374 0 3975.55585)
(-5136.856486 0 3677.796612)
(-4709.518291 -1.700915488e-12 3398.005604)
(-4317.817499 0 3140.796579)
(-557.2855079 0 4819.06189)
(-79.77784169 -1.287364032e-10 4780.411491)
(-347.6734942 7.938494284e-11 4824.827414)
(-920.9489516 0 4829.123106)
(-1007.173407 0 4823.548587)
(-1174.10121 0 4823.005537)
(-1342.022561 3.412042618e-11 4821.109403)
(-1483.9536 0 4815.619494)
(-1603.188324 0 4806.198822)
(-1702.030218 -2.537446247e-11 4792.510117)
(-1781.42074 0 4774.163967)
(-1842.581534 0 4751.214221)
(-1886.893668 0 4723.118072)
(-1916.934208 0 4690.470015)
(-1935.218799 0 4653.329076)
(-1944.191827 0 4612.392485)
(-1947.402121 0 4568.314956)
(-1947.829173 3.436792112e-11 4521.952889)
(-1948.100224 -1.670863437e-11 4474.058944)
(-1951.951784 1.629360439e-11 4425.78415)
(-1962.930406 1.593032851e-11 4378.32723)
(-1983.97544 7.805929235e-12 4332.865893)
(-2018.342288 0 4290.72162)
(-2069.683687 1.508749357e-11 4253.352639)
(-2141.800154 1.487292092e-11 4222.323007)
(-2238.357961 7.342723532e-12 4199.291049)
(-2362.893393 0 4186.118922)
(-2519.554141 0 4184.695762)
(-2712.999551 -7.129731181e-12 4197.197335)
(-2947.197387 0 4225.727069)
(-3225.816852 0 4272.348763)
(-3552.335733 0 4338.856818)
(-3927.75639 0 4426.280333)
(-4350.335708 0 4534.308239)
(-4813.33827 0 4660.372349)
(-5302.437486 0 4798.505066)
(-5793.73024 -3.457579991e-12 4937.949278)
(-6253.906736 3.457406193e-12 5063.451697)
(-6643.440478 -6.91918893e-12 5156.48856)
(-6922.759831 0 5197.979247)
(-7062.705495 -3.470583791e-12 5173.82581)
(-7051.318626 0 5077.896193)
(-6896.205155 -3.489724777e-12 4913.652689)
(-6621.607435 0 4692.924386)
(-6260.847761 -1.758181445e-12 4432.362165)
(-5848.054239 -1.766163e-12 4149.125345)
(-5413.244992 0 3858.49082)
(-4981.315319 0 3573.321283)
(-4572.998737 0 3304.517343)
(-4196.53143 0 3056.058068)
(-542.4292802 -3.98161361e-10 4444.27269)
(-85.85430708 2.721318124e-10 4408.712138)
(-345.6892097 0 4452.633165)
(-901.5643953 -6.161491325e-11 4460.684834)
(-987.8936192 1.478187021e-10 4459.921457)
(-1150.25462 0 4464.484602)
(-1312.729569 3.606304501e-11 4468.77816)
(-1448.934192 0 4470.181776)
(-1562.440004 0 4468.316113)
(-1655.739004 0 4462.862745)
(-1729.475664 0 4453.307854)
(-1784.537692 2.341801684e-11 4439.09727)
(-1823.243064 0 4420.374796)
(-1847.639508 0 4397.140512)
(-1860.192282 0 4369.63859)
(-1864.04982 0 4338.23846)
(-1861.83737 -1.873966198e-11 4303.699022)
(-1856.812404 -1.816231543e-11 4266.633691)
(-1852.133393 0 4227.771184)
(-1850.817255 0 4188.254875)
(-1856.167396 0 4149.054395)
(-1871.606693 0 4111.340244)
(-1900.521138 -1.620543258e-11 4076.369804)
(-1946.04376 0 4045.591814)
(-2011.492631 -7.859849286e-12 4020.368301)
(-2100.947616 -7.760775534e-12 4002.455723)
(-2218.258221 0 3993.566743)
(-2366.966951 0 3995.617088)
(-2551.233648 0 4010.663217)
(-2775.440546 0 4040.814082)
(-3043.079032 7.435062303e-12 4088.061068)
(-3357.038391 0 4154.236577)
(-3718.743696 0 4240.279994)
(-4126.171827 0 4346.075122)
(-4572.904223 7.325779317e-12 4469.107051)
(-5045.228902 3.657259732e-12 4603.816724)
(-5520.287935 -3.654434506e-12 4739.884046)
(-5966.593066 0 4863.091837)
(-6346.067534 3.656563707e-12 4955.428921)
(-6621.44499 0 4999.047531)
(-6764.748824 0 4980.297604)
(-6763.774498 0 4892.9023)
(-6625.17504 0 4739.848517)
(-6371.512757 -3.701533638e-12 4532.21115)
(-6034.015739 3.716564193e-12 4285.577221)
(-5644.861598 1.866718064e-12 4016.190699)
(-5232.737703 -1.876045923e-12 3738.725736)
(-4821.538509 1.886239922e-12 3465.598883)
(-4431.141951 0 3207.319022)
(-4069.467234 1.909137215e-12 2967.735273)
(-530.2736328 0 4054.596771)
(-94.48759184 1.440396378e-10 4022.435798)
(-347.9351907 0 4065.799484)
(-889.709769 -6.522566922e-11 4077.773769)
(-977.8175855 0 4082.158627)
(-1136.842909 0 4092.544175)
(-1295.62812 0 4103.349951)
(-1428.082927 3.401885275e-11 4112.190392)
(-1537.583359 0 4118.577192)
(-1626.45285 0 4121.902117)
(-1695.280921 0 4121.433246)
(-1745.801939 0 4116.998385)
(-1779.673163 0 4108.347665)
(-1799.237952 0 4095.350637)
(-1806.811078 -2.136224633e-11 4078.24602)
(-1805.365484 0 4057.341112)
(-1798.407576 0 4033.143878)
(-1788.032046 0 4006.24179)
(-1777.619649 0 3977.32022)
(-1770.857287 9.115234102e-12 3947.352946)
(-1770.57272 1.782400836e-11 3917.288417)
(-1779.698499 0 3888.134875)
(-1801.833049 0 3861.156854)
(-1840.418831 0 3837.658189)
(-1898.689752 8.320451984e-12 3819.01659)
(-1980.083988 0 3806.877565)
(-2088.403601 1.624855484e-11 3802.868064)
(-2227.798278 0 3808.923002)
(-2401.977106 0 3827.017575)
(-2614.764367 0 3859.200685)
(-2870.13619 0 3907.470656)
(-3170.593807 0 3973.569737)
(-3517.37545 0 4058.556997)
(-3908.879413 0 4162.255656)
(-4338.765858 -7.755084476e-12 4282.529765)
(-4793.778809 0 4413.813744)
(-5252.248726 0 4546.631369)
(-5684.180929 -3.868397123e-12 4667.304307)
(-6053.272836 0 4758.708328)
(-6324.125457 0 4804.006469)
(-6469.640813 0 4789.832178)
(-6477.769819 0 4710.00421)
(-6354.45283 3.904557483e-12 4567.204178)
(-6120.597551 -1.959225433e-12 4371.738738)
(-5805.409297 1.9671811e-12 4138.187118)
(-5439.494437 0 3882.068142)
(-5050.369146 0 3617.502707)
(-4661.111892 -1.99677731e-12 3356.496153)
(-4290.678447 0 3109.034964)
(-3945.024661 0 2877.852254)
(-520.8311494 0 3648.134852)
(-105.1767057 0 3619.307541)
(-354.8227094 0 3661.885251)
(-885.9045047 -6.916336905e-11 3678.492829)
(-977.7337348 0 3688.049964)
(-1135.532962 -4.652922477e-11 3704.642083)
(-1292.290754 -4.048113614e-11 3722.639408)
(-1422.780305 0 3739.495796)
(-1529.787191 0 3754.579663)
(-1615.609577 0 3767.229497)
(-1681.505713 0 3776.874061)
(-1728.602249 0 3783.021007)
(-1758.711157 0 3785.106975)
(-1774.222518 0 3783.32313)
(-1777.726442 0 3777.4059)
(-1771.839623 0 3767.866846)
(-1759.714703 -1.051773091e-11 3754.961031)
(-1744.523341 -1.019369227e-11 3739.114129)
(-1728.81531 1.98234481e-11 3721.081554)
(-1715.940873 0 3701.591843)
(-1709.244967 0 3681.543697)
(-1711.836238 0 3661.843921)
(-1726.847308 0 3643.754946)
(-1757.354673 0 3628.33353)
(-1806.983177 0 3617.035312)
(-1879.39178 0 3611.346825)
(-1977.8754 8.614743251e-12 3612.903577)
(-2106.315113 0 3623.511017)
(-2268.896466 0 3645.141552)
(-2469.15498 0 3679.754965)
(-2710.650447 0 3729.367378)
(-2996.382068 0 3795.646444)
(-3327.125774 0 3879.738734)
(-3701.456533 0 3981.449308)
(-4113.392942 -4.111631007e-12 4098.895096)
(-4550.203589 -8.210622791e-12 4226.730312)
(-4991.345076 0 4356.179799)
(-5407.771714 -4.101933832e-12 4473.902068)
(-5765.379581 0 4563.991899)
(-6030.386495 -4.109784355e-12 4610.298536)
(-6176.508897 0 4599.869144)
(-6192.103273 2.063883194e-12 4526.730329)
(-6082.423756 -6.21041577e-12 4393.311252)
(-5866.752313 6.232514015e-12 4209.094827)
(-5572.381309 -4.171881206e-12 3987.791365)
(-5228.140196 0 3744.121371)
(-4859.995583 0 3491.532897)
(-4489.731215 0 3241.496894)
(-4135.381902 0 3003.664568)
(-3804.054266 -1.071513004e-12 2781.534612)
(-514.4241535 -4.747617008e-10 3220.852106)
(-117.8726022 1.622429682e-10 3195.499938)
(-367.0211114 0 3237.652338)
(-891.2674758 0 3259.166384)
(-988.1960423 -5.875227593e-11 3274.470145)
(-1147.34582 0 3297.563289)
(-1304.339643 4.300103993e-11 3323.232089)
(-1434.603785 0 3348.71717)
(-1541.048855 -3.476246749e-11 3373.296341)
(-1626.060188 0 3396.26317)
(-1690.428709 0 3416.847781)
(-1735.357101 1.396164806e-11 3434.187377)
(-1763.111638 0 3448.196093)
(-1775.779349 0 3458.356818)
(-1775.80326 0 3464.790916)
(-1766.420898 0 3467.512414)
(-1750.098665 0 3466.936896)
(-1729.779517 0 3463.26598)
(-1708.867135 1.05287174e-11 3457.101227)
(-1690.339531 0 3449.196146)
(-1676.930711 0 3440.212459)
(-1672.030849 0 3431.071949)
(-1679.088313 9.66155874e-12 3422.841978)
(-1701.055721 1.901435555e-11 3416.568155)
(-1741.108199 0 3413.592407)
(-1802.837404 0 3415.305787)
(-1890.068674 0 3423.2945)
(-2006.331514 0 3439.312121)
(-2155.445506 0 3465.242583)
(-2341.4175 0 3503.013321)
(-2567.440536 -4.432729027e-12 3554.559554)
(-2836.440079 4.410127431e-12 3621.615713)
(-3149.516289 0 3705.216243)
(-3505.172821 0 3805.44487)
(-3897.697293 4.367575258e-12 3920.313729)
(-4315.087852 0 4045.068115)
(-4737.664214 4.357493519e-12 4171.18593)
(-5137.799558 0 4286.096214)
(-5483.090302 0 4374.807752)
(-5740.986356 0 4421.671477)
(-5886.344415 2.186940873e-12 4414.326156)
(-5907.961728 2.192357534e-12 4347.103903)
(-5810.440322 4.398004628e-12 4222.122777)
(-5611.630627 -2.206826919e-12 4048.195149)
(-5337.4248 -2.215788004e-12 3838.405516)
(-5015.390829 2.225846941e-12 3606.888189)
(-4670.652592 2.23696933e-12 3366.674832)
(-4324.449131 -2.249124504e-12 3128.905274)
(-3993.683854 0 2902.504373)
(-3680.817847 2.276426892e-12 2688.316667)
(-511.69215 -5.052641396e-10 2767.36687)
(-133.5581366 0 2745.856067)
(-384.9568722 0 2787.803152)
(-906.8993661 0 2814.442739)
(-1010.912059 6.252698588e-11 2836.148835)
(-1173.469622 0 2866.460152)
(-1333.252485 0 2900.443275)
(-1465.916527 -2.038995789e-11 2935.39434)
(-1574.059264 0 2970.42484)
(-1659.973103 0 3004.532904)
(-1724.482114 0 3036.799835)
(-1769.305366 0 3066.648991)
(-1796.109896 0 3093.474434)
(-1807.217176 0 3116.850782)
(-1805.229944 0 3136.674527)
(-1792.873318 0 3152.982776)
(-1773.248933 0 3165.813612)
(-1748.825901 0 3175.506695)
(-1722.761499 1.120516532e-11 3182.467919)
(-1698.399099 0 3187.284607)
(-1678.617808 0 3190.53516)
(-1666.353137 0 3193.12054)
(-1664.73619 0 3195.855023)
(-1677.186367 0 3199.789502)
(-1707.084523 -9.974096834e-12 3206.128609)
(-1757.466048 0 3216.200693)
(-1831.987006 4.869466839e-12 3231.469474)
(-1934.711658 -4.822084439e-12 3253.637479)
(-2069.127582 0 3284.495701)
(-2238.975483 0 3325.935327)
(-2447.937199 4.717522492e-12 3379.81128)