/*--------------------------------*- C++ -*----------------------------------*\
  =========                 |
  \\      /  F ield         | OpenFOAM: The Open Source CFD Toolbox
   \\    /   O peration     | Website:  https://openfoam.org
    \\  /    A nd           | Version:  7
     \\/     M anipulation  |
\*---------------------------------------------------------------------------*/
FoamFile
{
    version     2.0;
    format      ascii;
    class       volScalarField;
    location    "0.0024";
    object      p;
}
// * * * * * * * * * * * * * * * * * * * * * * * * * * * * * * * * * * * * * //

dimensions      [1 -1 -2 0 0 0 0];

internalField   nonuniform List<scalar> 
1167
(
1215092.219
1225657.556
1224023.117
1224540.002
1225965.913
1227605.434
1229472.395
1231574.92
1233885.389
1236377.249
1239027.355
1241813.963
1244716.658
1247716.442
1250796.138
1253940.472
1257135.876
1260370.552
1206321.42
1216939.038
1215344.903
1215880.983
1217346.938
1219037.018
1220958.911
1223120.702
1225493.721
1228050.056
1230765.539
1233617.586
1236584.736
1239647.564
1242788.59
1245992.003
1249244.224
1252533.308
1255849.223
1259183.876
1262530.514
1265883.81
1269239.77
1272595.51
1275949.104
1279299.364
1282645.691
1285988.007
1289326.533
1292661.552
1295993.34
1299321.749
1302645.757
1305962.93
1309268.681
1312555.253
1315810.667
1319018.277
1322157.196
1325204.241
1328137.493
1330939.82
1333601.665
1336121.611
1338504.239
1340755.669
1342885.539
1344937.867
1347011.635
1348984.345
1197202.493
1207878.887
1206325.651
1206883.13
1208391.8
1210135.839
1212116.838
1214342.072
1216782.078
1219407.641
1222193.382
1225115.517
1228152.104
1231283.088
1234490.295
1237757.778
1241071.548
1244419.724
1247792.248
1251180.917
1254579.104
1257981.693
1261384.799
1264785.665
1268182.508
1271574.312
1274960.655
1278341.669
1281717.72
1285089.279
1288456.725
1291820.025
1295178.392
1298529.579
1301869.102
1305189.417
1308478.948
1311721.372
1314896.317
1317981.091
1320954.098
1323798.286
1326503.904
1329069.114
1331498.014
1333796.196
1335972.995
1338073.162
1340197.206
1342217.222
1187712.957
1198454.891
1196943.078
1197523.814
1199078.294
1200879.558
1202923.561
1205216.758
1207728.475
1210428.1
1213289.013
1216286.542
1219397.959
1222602.238
1225880.962
1229217.634
1232598.2
1236010.466
1239444.451
1242892.004
1246346.483
1249802.827
1253257.335
1256707.464
1260151.556
1263588.748
1267018.78
1270441.897
1273858.62
1277269.673
1280675.598
1284076.506
1287471.657
1290859.047
1294234.456
1297590.5
1300915.934
1304194.923
1307407.512
1310531.557
1313545.749
1316433.154
1319183.809
1321795.452
1324271.694
1326617.587
1328842.155
1330990.89
1333165.862
1335233.819
1177828.511
1188642.683
1187172.504
1187778.768
1189382.114
1191244.384
1193355.374
1195720.946
1198309.189
1201088.006
1204029.506
1207107.982
1210299.517
1213582.735
1216938.457
1220349.976
1223802.736
1227284.591
1230785.381
1234296.891
1237812.684
1241327.742
1244838.462
1248342.37
1251837.974
1255324.621
1258802.25
1262271.233
1265732.244
1269186.087
1272633.489
1276074.801
1279509.461
1282935.518
1286349.007
1289742.879
1293106.126
1296423.44
1299675.312
1302840.107
1305896.822
1308828.64
1311625.388
1314284.422
1316808.852
1319203.183
1321476.126
1323673.92
1325900.223
1328016.531
1167522.958
1178415.719
1176987.742
1177622.022
1179277.049
1181204.225
1183386.59
1185829.136
1188498.91
1191362.292
1194389.872
1197554.76
1200832.328
1204200.352
1207639.027
1211131.255
1214662.189
1218219.346
1221792.678
1225373.882
1228956.426
1232535.403
1236107.427
1239670.106
1243222.071
1246762.765
1250292.264
1253811.128
1257320.239
1260820.543
1264312.89
1267797.705
1271274.713
1274742.174
1278196.198
1281630.1
1285033.237
1288390.665
1291683.453
1294890.407
1297990.898
1300968.185
1303811.899
1306519.052
1309092.269
1311535.512
1313857.181
1316104.257
1318382.002
1320546.772
1156768.844
1167746.634
1166361.628
1167026.024
1168735.837
1170731.416
1172989.506
1175513.898
1178270.369
1181223.655
1184343
1187600.416
1190970.179
1194429.178
1197957.136
1201536.314
1205151.653
1208790.486
1212442.456
1216099.332
1219754.612
1223403.431
1227042.374
1230669.184
1234282.691
1237882.446
1241468.659
1245042.018
1248603.476
1252154.197
1255695.236
1259227.165
1262749.748
1266261.533
1269758.872
1273235.245
1276680.475
1280079.976
1283415.379
1286665.923
1289811.371
1292835.072
1295726.497
1298482.322
1301104.708
1303597.096
1305967.596
1308263.918
1310592.931
1312806.01
1145538.367
1156607.418
1155265.973
1155962.515
1157730.316
1159797.977
1162135.903
1164746.824
1167595.144
1170643.902
1173860.969
1177216.978
1180685.123
1184241.628
1187865.341
1191538.183
1195244.549
1198971.644
1202708.983
1206448.089
1210182.43
1213907.332
1217619.379
1221316.386
1224997.227
1228661.533
1232309.697
1235942.569
1239561.243
1243166.947
1246760.854
1250343.789
1253915.675
1257475.108
1261018.785
1264540.42
1268030.15
1271473.876
1274853.685
1278149.309
1281340.868
1284411.812
1287351.524
1290156.373
1292828.073
1295369.571
1297788.71
1300133.93
1302513.705
1304774.611
1133803.992
1144969.738
1143672.168
1144403.112
1146231.569
1148375.169
1150797.063
1153499.046
1156444.282
1159594.044
1162914.459
1166375.012
1169948.018
1173608.49
1177334.805
1181108.091
1184912.534
1188734.915
1192564.519
1196392.867
1200213.341
1204021.142
1207812.884
1211586.546
1215341.062
1219076.145
1222792.23
1226490.212
1230171.418
1233837.227
1237488.881
1241127.251
1244752.554
1248363.534
1251957.002
1255527.04
1259064.038
1262554.388
1265980.602
1269322.934
1272561.835
1275680.88
1278669.408
1281523.516
1284244.516
1286834.9
1289302.267
1291695.772
1294125.487
1296433.431
1121539.187
1132806.322
1131553.325
1132320.551
1134212.054
1136434.505
1138944.238
1141741.603
1144788.395
1148044.114
1151473.467
1155044.633
1158728.591
1162499.6
1166335.197
1170215.984
1174125.523
1178050.45
1181979.731
1185904.596
1189818.478
1193716.523
1197595.308
1201452.752
1205287.814
1209100.383
1212890.951
1216660.477
1220410.277
1224141.881
1227856.719
1231555.735
1235239.182
1238906.095
1242553.397
1246175.43
1249762.911
1253302.612
1256777.496
1260168.298
1263455.799
1266623.773
1269661.522
1272564.912
1275334.904
1277973.608
1280488.408
1282929.167
1285407.543
1287761.256
1108720.536
1120093.029
1118885.088
1119689.789
1121646.544
1123950.241
1126550.734
1129447.001
1132599.318
1135965.523
1139508.878
1143195.855
1146996.487
1150884.156
1154835.478
1158830.467
1162852.245
1166886.879
1170923.237
1174952.311
1178967.284
1182963.183
1186936.651
1190885.572
1194808.862
1198706.367
1202578.602
1206426.681
1210251.965
1214055.969
1217840.174
1221605.739
1225352.956
1229080.933
1232786.86
1236465.198
1240107.03
1243699.418
1247225.815
1250667.362
1254005.166
1257223.245
1260310.896
1263263.802
1266082.639
1268769.191
1271330.653
1273817.573
1276343.156
1278741.212
1095329.814
1106810.161
1105647.037
1106490.035
1108513.083
1110899.945
1113593.158
1116590.684
1119851.483
1123331.609
1126992.511
1130799.633
1134721.882
1138731.438
1142804.283
1146919.616
1151060.173
1155211.62
1159362.271
1163502.975
1167626.823
1171728.634
1175804.856
1179853.282
1183872.865
1187863.411
1191825.403
1195759.839
1199668.174
1203552.001
1207412.762
1211251.616
1215069.025
1218864.067
1222634.12
1226373.791
1230074.397
1233723.277
1237304.316
1240799.012
1244188.838
1247458.031
1250595.925
1253598.088
1256465.01
1259198.209
1261804.751
1264335.903
1266906.405
1269346.424
1081356.179
1092944.63
1091826.025
1092707.437
1094796.443
1097266.463
1100053.068
1103152.715
1106523.114
1110118.656
1113899.373
1117829.531
1121876.583
1126012.021
1130210.793
1134451.64
1138716.59
1142990.929
1147262.635
1151522.18
1155762.349
1159977.872
1164165.04
1168321.474
1172445.917
1176538.076
1180598.47
1184628.028
1188628.052
1192600.108
1196545.713
1200465.939
1204361.236
1208230.792
1212071.946
1215879.514
1219644.9
1223355.754
1226996.245
1230548.188
1233993.418
1237316.376
1240506.452
1243559.161
1246474.877
1249254.905
1251906.197
1254480.641
1257094.418
1259574.788
1066799.334
1078494.026
1077419.153
1078337.566
1080490.969
1083042.228
1085920.444
1089120.671
1092599.424
1096309.676
1100210.05
1104263.322
1108436.195
1112699.115
1117026.362
1121395.838
1125789.235
1130191.235
1134589.345
1138973.885
1143337.286
1147673.906
1151979.792
1156252.49
1160490.536
1164693.41
1168861.351
1172995.257
1177096.338
1181165.936
1185205.429
1189215.896
1193197.576
1197149.67
1201069.447
1204951.741
1208787.98
1212566.012
1216270.172
1219882.576
1223385.342
1226763.112
1230005.372
1233107.697
1236070.416
1238894.724
1241587.622
1244201.798
1246854.876
1249371.138
1051674.049
1063470.011
1062437.008
1063389.435
1065603.252
1068231.62
1071196.762
1074492.866
1078075.533
1081896.26
1085912.312
1090085.642
1094381.948
1098770.824
1103225.868
1107724.451
1112247.552
1116779.587
1121307.624
1125821.461
1130313.334
1134777.326
1139209.16
1143605.988
1147966.14
1152288.941
1156574.344
1160822.905
1165035.668
1169213.851
1173358.536
1177470.633
1181550.29
1185596.45
1189606.362
1193574.677
1197492.848
1201348.697
1205126.613
1208808.913
1212377.856
1215818.189
1219119.489
1222277.387
1225292.184
1228164.973
1230902.683
1233558.407
1236251.016
1238803.619
1036014.61
1047902.32
1046908.236
1047889.962
1050157.13
1052854.81
1055898.683
1059281.931
1062959.505
1066881.839
1071005.346
1075291.054
1079703.771
1084212.611
1088790.428
1093414.291
1098064.696
1102725.412
1107383.403
1112028.081
1116651.187
1121246.42
1125809.312
1130336.61
1134826.229
1139277.031
1143688.715
1148061.468
1152395.846
1156692.693
1160952.804
1165176.577
1169363.897
1173513.313
1177621.752
1181683.538
1185689.934
1189628.534
1193483.684
1197237.726
1200872.989
1204374.324
1207731.478
1210940.205
1214000.902
1216914.785
1219689.176
1222378.29
1225102.324
1227681.299
1019879.274
1031844.321
1030885.294
1031888.919
1034199.187
1036954.041
1040063.426
1043519.783
1047277.758
1051287.185
1055503.771
1059887.783
1064403.861
1069020.438
1073710.246
1078449.777
1083219.473
1088002.743
1092786.051
1097558.711
1102312.189
1107039.819
1111736.647
1116399.124
1121024.873
1125612.329
1130160.644
1134669.659
1139139.569
1143570.671
1147963.357
1152317.651
1156632.872
1160907.25
1165137.164
1169316.56
1173436.187
1177483.189
1181441.58
1185293.332
1189020.47
1192607.683
1196044.607
1199326.913
1202454.928
1205429.744
1208258.339
1210994.574
1213759.636
1216376.051
1003356.762
1015378.768
1014449.329
1015464.31
1017803.119
1020598.167
1023754.001
1027263.03
1031080.084
1035154.586
1039441.958
1043902.581
1048500.802
1053205.021
1057987.806
1062825.727
1067698.822
1072590.601
1077487.365
1082378.041
1087253.813
1092107.862
1096934.784
1101730.454
1106491.907
1111217.13
1115904.622
1120553.376
1125162.885
1129732.73
1134262.345
1138751.031
1143197.206
1147598.281
1151949.791
1156244.929
1160473.625
1164622.398
1168674.674
1172611.962
1176415.999
1180071.388
1183567.765
1186900.905
1190071.361
1193080.699
1195937.093
1198696.705
1201481.767
1204108.047
986571.553
998622.4708
997715.1399
998727.8565
1001075.402
1003887.663
1007064.344
1010598.069
1014444.407
1018553.183
1022880.254
1027386.28
1032035.84
1036797.882
1041645.138
1046554.581
1051506.567
1056484.548
1061475.206
1066467.607
1071452.853
1076423.97
1081375.607
1086303.488
1091204.292
1096075.557
1100915.518
1105722.716
1110495.944
1115234.254
1119936.446
1124600.962
1129225.522
1133806.553
1138338.676
1142813.91
1147220.946
1151545.015
1155768.09
1159870.224
1163831.864
1167636.455
1171272.684
1174735.601
1178025.176
1181142.178
1184093.007
1186931.021
1189779.411
1192465.922
969688.0715
981730.9597
980837.0636
981830.2112
984161.3988
986960.9486
990124.911
993646.5401
997482.7836
1001584.668
1005908.884
1010416.742
1015074.032
1019850.231
1024719.059
1029657.867
1034647.768
1039672.638
1044719.262
1049777.068
1054837.307
1059892.825
1064937.924
1069968.045
1074979.372
1079968.609
1084933.031
1089870.259
1094777.879
1099653.534
1104494.773
1109298.479
1114060.905
1118776.928
1123439.714
1128039.734
1132564.28
1136997.167
1141319.046
1145508.838
1149546.097
1153413.606
1157099.691
1160599.369
1163912.964
1167042.483
1169997.835
1172838.496
1175687.645
1178350.152
952914.7485
964902.4941
964011.7432
964964.1375
967248.6738
969999.1616
973109.2157
976573.6259
980351.4838
984395.5513
988664.0217
993120.2112
997731.5022
1002468.865
1007307.604
1012226.495
1017207.872
1022237.164
1027302.257
1032393.624
1037503.696
1042626.385
1047756.745
1052890.943
1058025.828
1063158.64
1068286.822
1073408.081
1078520.016
1083619.842
1088704.489
1093770.042
1098811.554
1103822.486
1108794.127
1113714.688
1118568.795
1123337.061
1127996.521
1132522.284
1136890.006
1141078.79
1145073.706
1148866.97
1152456.268
1155840.017
1159021.135
1162048.855
1165048.787
1167864.193
936489.7962
948367.234
947468.1152
948354.9577
950555.8348
953212.9165
956217.9611
959567.806
963224.3319
967142.5827
971283.1103
975611.5354
980096.8653
984712.1084
989434.0849
994243.2922
999123.2233
1004060.464
1009044.071
1014065.238
1019117.052
1024193.909
1029291.162
1034404.973
1039532.008
1044669.073
1049812.939
1054960.372
1060107.778
1065251.003
1070385.356
1075505.241
1080603.837
1085672.759
1090701.344
1095675.872
1100578.981
1105389.215
1110081.47
1114628.719
1119004.612
1123186.586
1127158.615
1130912.587
1134447.047
1137764.131
1140877.568
1143854.764
1146818.077
1149533.797
920735.4347
932425.8599
931505.2603
932301.3601
934380.9586
936900.098
939750.3321
942930.9417
946407.6644
950139.2247
954089.7785
958228.0753
962526.4757
966961.4317
971512.899
976164.5433
980903.0833
985718.245
990602.252
995549.5529
1000556.407
1005620.37
1010740.001
1015914.623
1021143.885
1026427.399
1031764.67
1037154.769
1042595.976
1048085.675
1053620.014
1059193.55
1064798.895
1070426.13
1076062.083
1081689.432
1087285.903
1092823.787
1098270.386
1103589.893
1108746.489
1113708.085
1118449.619
1122954.491
1127212.275
1131211.957
1134942.777
1138438.601
1141828.788
1144989.599
917266.1605
916314.5185
916986.3484
918891.82
921206.1322
923822.1796
926741.482
929933.4166
933360.1162
936988.5689
940790.0669
944739.4285
948815.1835
952999.2396
957276.7907
961636.1425
966068.1991
970566.2741
975125.9923
979744.4592
984419.9825
989152.0784
993940.8115
998786.4621
1003689.395
1008649.878
1013667.553
1018741.353
1023869.404
1029048.407
1034273.634
1039538.318
1044833.178
1050145.526
1055458.322
1060748.948
1065988.557
1071142.221
1076170.654
1081033.692
1085694.668
1090124.591
1094304.71
1098226.309
1101890.112
1105320.93
1108614.055
1111899.151
1114816.578
)
;

boundaryField
{
    front_top
    {
        type            wedge;
    }
    front_middle
    {
        type            wedge;
    }
    front_bottom
    {
        type            wedge;
    }
    back_top
    {
        type            wedge;
    }
    back_middle
    {
        type            wedge;
    }
    back_bottom
    {
        type            wedge;
    }
    axis_top
    {
        type            symmetryPlane;
    }
    axis_middle
    {
        type            symmetryPlane;
    }
    axis_bottom
    {
        type            symmetryPlane;
    }
    wall_top
    {
        type            fixedFluxPressure;
        gradient        nonuniform 0();
        value           nonuniform 0();
    }
    wall_middle
    {
        type            fixedFluxPressure;
        gradient        uniform 0;
        value           nonuniform List<scalar> 
23
(
1348984.345
1342217.222
1335233.819
1328016.531
1320546.772
1312806.01
1304774.611
1296433.431
1287761.256
1278741.212
1269346.424
1259574.788
1249371.138
1238803.619
1227681.299
1216376.051
1204108.047
1192465.922
1178350.152
1167864.193
1149533.797
1144989.599
1114816.578
)
;
    }
    wall_bottom
    {
        type            fixedFluxPressure;
        gradient        nonuniform 0();
        value           nonuniform 0();
    }
    inlet
    {
        type            zeroGradient;
    }
    outlet
    {
        type            fixedValue;
        value           nonuniform 0();
    }
    procBoundary3to2
    {
        type            processor;
        value           nonuniform List<scalar> 
51
(
905825.0209
905825.0209
903485.467
902489.3111
903024.2784
904738.0319
906830.9686
909199.2149
911848.7014
914754.6426
917884.8335
921211.8602
924712.6119
928367.4793
932160.3343
936078.5272
940112.4913
944256.0409
948505.2619
952859.1722
957318.9045
961887.1483
966568.3028
971367.9451
976292.1542
981347.6197
986541.2063
991879.3976
997368.1617
1003012.62
1008816.524
1014781.913
1020908.636
1027193.579
1033629.971
1040206.184
1046904.323
1053698.506
1060553.324
1067423.449
1074255.082
1080990.196
1087572.75
1093954.982
1100100.831
1105981.8
1111561.407
1116782.845
1121619.024
1126181.022
1130380.814
)
;
    }
    procBoundary3to4
    {
        type            processor;
        value           nonuniform List<scalar> 
51
(
1223535.733
1234055.062
1232380.485
1232880.534
1234269.054
1235861.684
1237677.375
1239724.59
1241976.822
1244408.736
1246998.213
1249724.252
1252567.117
1255508.58
1258531.716
1261621.56
1264764.654
1267949.442
1263634.585
1263634.585
1266919.647
1270218.968
1273527.169
1276840.075
1280154.621
1283468.651
1286780.831
1290090.427
1293397.167
1296701.142
1300002.487
1303301.271
1306597.178
1309889.035
1313174.34
1316448.342
1319702.998
1322926.08
1326100.62
1329205.175
1332216.149
1335111.233
1337873.246
1340492.783
1342968.833
1345306.476
1347512.348
1349596.373
1351601.835
1353626.225
1355552.496
)
;
    }
}


// ************************************************************************* //
