/*--------------------------------*- C++ -*----------------------------------*\
  =========                 |
  \\      /  F ield         | OpenFOAM: The Open Source CFD Toolbox
   \\    /   O peration     | Website:  https://openfoam.org
    \\  /    A nd           | Version:  7
     \\/     M anipulation  |
\*---------------------------------------------------------------------------*/
FoamFile
{
    version     2.0;
    format      ascii;
    class       volScalarField;
    location    "0.0024";
    object      rho;
}
// * * * * * * * * * * * * * * * * * * * * * * * * * * * * * * * * * * * * * //

dimensions      [1 -3 0 0 0 0 0];

internalField   nonuniform List<scalar> 
1167
(
944.4974153
944.4145833
944.2366396
943.9726536
943.6273445
943.204211
942.706653
942.1380417
941.5013816
940.799915
940.037024
939.2163345
938.3414415
937.4161673
936.4448819
935.4314399
934.3805345
933.2962543
944.3170288
944.2328906
944.0521687
943.7843698
943.4338965
943.0048789
942.5006325
941.9246145
941.2801933
940.5708021
939.7999857
938.9713748
938.0888497
937.1566442
936.1787979
935.1597749
934.103867
933.0158124
931.8999808
930.7608469
929.6028658
928.4304476
927.2477142
926.058604
924.8669584
923.6763266
922.4900139
921.3111559
920.1424528
918.9864515
917.8453917
916.7212289
915.6157889
914.5304627
913.4664312
912.4248177
911.4064866
910.4118763
909.4416036
908.4958671
907.5748644
906.6785446
905.8069413
904.9596472
904.1365775
903.3372355
902.5610563
901.8075667
901.0761446
900.3660617
944.1347181
944.0492895
943.8660322
943.5942746
943.2388728
942.8039279
942.2931572
941.7100303
941.0581046
940.341012
939.5624487
938.7262568
937.836718
936.8978026
935.913975
934.8896887
933.8295286
932.7379698
931.6198267
930.4794897
929.321347
928.1498277
926.96913
925.7832321
924.595855
923.4104797
922.2303738
921.0585414
919.8976711
918.7503573
917.6186731
916.5044741
915.4094
914.334948
913.2822387
912.2521976
911.2456668
910.2631292
909.3049212
908.3714668
907.4626684
906.5786563
905.719221
904.8840575
904.0730408
903.2855862
902.5211538
901.7792916
901.0592966
900.3604707
943.9506482
943.8640521
943.6781128
943.4024207
943.0422547
942.6015071
942.0842306
941.4941583
940.8349304
940.1103757
939.324398
938.4811551
937.5847255
936.6395358
935.6501572
934.6210652
933.5569574
932.4625838
931.3424886
930.2012383
929.0434437
927.8733714
926.6951519
925.5127162
924.3298217
923.1499358
921.976306
920.8117832
919.6589954
918.5203532
917.39796
916.2937137
915.2090775
914.1453512
913.1037395
912.0851492
911.090129
910.1193917
909.1730197
908.2514619
907.3545418
906.4824441
905.6347879
904.8113969
904.011964
903.2359662
902.4828411
901.752158
901.0431376
900.3551119
943.7649212
943.6770627
943.488446
943.209055
942.8439982
942.3976792
941.8740606
941.2771066
940.6107643
939.8790339
939.0859421
938.2357298
937.3327673
936.3817706
935.3870527
934.3536609
933.2860381
932.1890835
931.067585
929.9259553
928.7687565
927.6003802
926.4250106
925.2464692
924.0684457
922.8942975
921.7272327
920.5700988
919.4255301
918.2957497
917.1827665
916.0883062
915.0140382
913.9610562
912.930357
911.9230101
910.9394365
909.9801248
909.0454021
908.1353872
907.25012
906.3895256
905.5533031
904.7413206
903.9530974
903.1881713
902.4459719
901.7260529
901.0275999
900.3499627
943.5774767
943.488367
943.2971782
943.0140986
942.6442195
942.1923505
941.6625622
941.0589519
940.3856704
939.6468741
938.8468077
937.9899463
937.0809064
936.1241734
935.1247161
934.0871089
933.016443
931.9173862
930.7946595
929.6529884
928.4968773
927.3306348
926.1583182
924.9838532
923.8109309
922.6428098
921.4825987
920.3330509
919.1966779
918.0757703
916.9722644
915.8877477
914.8236663
913.781326
912.7615653
911.7651916
910.7928911
909.844817
908.921507
908.0227887
907.1489034
906.2995258
905.4744825
904.6735399
903.8961962
903.142001
902.4104041
901.7008654
901.0126173
900.3450011
943.3883891
943.2981174
943.1044585
942.817565
942.4431077
941.985625
941.4497102
940.839565
940.1594903
939.4138032
938.6070821
937.7438896
936.8288198
935.8668454
934.862716
933.821467
932.7478585
931.6470253
930.5235733
929.3821131
928.2272508
927.0634286
925.8945603
924.7245267
923.5568746
922.3948778
921.2416344
920.0998338
918.9718839
917.8599162
916.7657934
915.6912294
914.6374514
913.6055435
912.5966343
911.6112296
910.6499495
909.713065
908.8008561
907.9133051
907.0504874
906.2120796
905.3979782
904.6077725
903.8410212
903.0972597
902.3759583
901.6764871
900.9981249
900.3402053
943.1979402
943.1064702
942.910202
942.6196225
942.2405487
941.7777187
941.2357165
940.6190945
939.9323794
939.1800669
938.3668167
937.4973299
936.5766236
935.6095448
934.6011114
933.5563244
932.4802916
931.3778286
930.2538125
929.1129641
927.9597656
926.7985001
925.6331908
924.4677752
923.3056569
922.1500675
921.0039394
919.869888
918.750414
917.6475159
916.5629114
915.4981332
914.4546405
913.4332764
912.4349932
911.4605024
910.5100861
909.5842507
908.6829846
907.8064506
906.9544782
906.1268456
905.3234478
904.5437446
903.7873403
903.0537719
902.3424862
901.6528125
900.9840594
900.3355543
943.0060369
942.9133446
942.7144893
942.4204189
942.0366279
941.5685184
941.0206248
940.3977045
939.7044442
938.9455634
938.1259003
937.2504654
936.3242715
935.3522623
934.3397997
933.2917631
932.213376
931.1096901
929.9853809
928.8452159
927.6938605
926.5354718
925.3740428
924.2133505
923.0568057
921.9077268
920.7688972
919.6428252
918.5318258
917.4379382
916.3629004
915.3080647
914.2746719
913.263822
912.2761665
911.3124429
910.3728983
909.4578984
908.5674869
907.7017793
906.8604939
906.0435346
905.2505853
904.4811897
903.7349277
903.0113631
902.3098437
901.6297386
900.9703594
900.3310275
942.8127253
942.7188234
942.5176319
942.2198987
941.8316852
941.3581397
940.8044481
940.1753413
939.4756665
938.7103643
937.8846327
937.0033785
936.0717486
935.0952256
934.0787264
933.0277458
931.9472892
930.8423794
929.7180459
928.5789093
927.4295028
926.274028
925.1166061
923.9608732
922.8101512
921.667613
920.5360195
919.4179997
918.3156357
917.2308241
916.165232
915.1203549
914.0971591
913.0966663
912.1196666
911.1665635
910.2378461
909.3335606
908.4539601
907.5988963
906.7681714
905.9617459
905.1790971
904.4198514
903.6835649
902.9698283
902.2778927
901.6071669
900.9569655
900.3266052
942.6181831
942.5232096
942.3195363
942.0181846
941.6256241
941.1469777
940.5874893
939.9522807
939.2463897
938.4749554
937.64313
936.7561483
935.8195361
934.8384039
933.8183005
932.7643334
931.682027
930.5762421
929.4518695
928.3138143
927.1665878
926.0142816
924.8609004
923.7100851
922.5652454
921.4293985
920.3052147
919.1951277
918.1013519
917.025693
915.9696259
914.934556
913.9215804
912.9314058
911.9649733
911.0225067
910.1044723
909.2108513
908.3419548
907.4974437
906.677257
905.8811715
905.1087077
904.3594883
903.6330974
902.9289985
902.2465015
901.585003
900.9438212
900.3222685
942.4225536
942.3264187
942.1202897
941.8156326
941.4185952
940.9349776
940.3699712
939.7288535
939.016883
938.2393786
937.4016459
936.5093688
935.5677253
934.5823553
933.5586351
932.5020969
931.4179004
930.3113066
929.1871992
928.0503416
926.9052253
925.7561123
924.6069175
923.4611691
922.3221599
921.192894
920.0761161
918.9740937
917.8888602
916.8222223
915.7757032
914.7504461
913.7475478
912.7677712
911.8117292
910.879903
909.9724222
909.0895002
908.2311365
907.3971032
906.5873832
905.8015416
905.0391727
904.2998839
903.5832885
902.8887195
902.2155488
901.5631597
900.9308739
900.3179995
942.2257792
942.1285222
941.9201465
941.6121691
941.2109845
940.7223936
940.1520663
939.5052568
938.7874367
938.0041456
937.1609598
936.2633727
935.3169943
934.327569
933.3004873
932.2413796
931.1556342
930.048272
928.9243784
927.7888602
926.6460258
925.5000679
924.3549101
923.2141832
922.0810739
920.9584533
919.8488868
918.7548037
917.67813
916.6204609
915.5832959
914.567848
913.5748966
912.6054217
911.6597594
910.7384393
909.8414541
908.9691476
908.1212483
907.2976993
906.4983014
905.7226341
904.9702888
904.2409096
903.5339757
902.8488567
902.1849284
901.5415601
900.9180769
900.3137825
942.027954
941.9297479
941.7192345
941.4079896
941.0029405
940.5097886
939.9342967
939.2820857
938.5588
937.7700699
936.9215482
936.0189821
935.0682595
934.0748707
933.0447411
931.9832845
930.8959653
929.7880691
928.6645532
927.5302254
926.3896016
925.2468586
924.1058041
922.9699112
921.8424624
920.7263834
919.6240482
918.5377063
917.4693459
916.4205735
915.3926337
914.3867718
913.4037767
912.4443448
911.5090348
910.5980305
909.7115577
908.8496637
908.0121463
907.1990257
906.4098579
905.6442975
904.901919
904.1823817
903.4850416
902.8093091
902.1545581
901.5201432
900.9053921
900.3096042
941.8294122
941.7302188
941.5176077
941.2035226
940.7947206
940.2973871
939.7172266
939.0600527
938.3316682
937.5378361
936.6844495
935.7774669
934.8225517
933.8257607
932.7926242
931.7291484
930.6405153
929.532005
928.4089477
927.2759637
926.1374818
924.9977163
923.8606157
922.7295156
921.6076143
920.4976819
919.4023126
918.3235898
917.2632997
916.2230808
915.2042353
914.207661
913.2343968
912.2848703
911.3596724
910.4588394
909.5827142
908.7311005
907.9039382
907.1010495
906.3220187
905.5664824
904.8340566
904.1242329
903.4364244
902.7700196
902.1243891
901.4988715
900.8927956
900.3054561
941.6300133
941.5299416
941.3155172
940.9989259
940.5868706
940.0857047
939.5014207
938.8398664
938.1069831
937.308744
936.4511952
935.5401407
934.5817365
933.5818054
932.5463121
931.4808557
930.391193
929.2824198
928.1597186
927.0279848
925.8916511
924.7548517
923.6213821
922.4947169
921.3780908
920.2741314
919.1852804
918.1137351
917.0612474
916.0292134
915.0190287
914.0315597
913.0675506
912.127712
911.2122538
910.3214542
909.4553289
908.6137886
907.7968144
907.0039769
906.2349405
905.489338
904.7667211
904.0665157
903.3881545
902.7310022
902.0944239
901.4777406
900.8802814
900.3013348
941.4298562
941.3290963
941.1133245
940.7944962
940.3798808
939.8756151
939.2878736
938.6227462
937.8862735
937.0844637
936.2233888
935.3091617
934.3479384
933.3455539
932.3081443
931.2414098
930.1508347
929.0419961
927.9199463
926.7894614
925.655022
924.52099
923.3909908
922.2684863
921.156577
920.0581068
918.9754037
917.9104885
916.865186
915.840916
914.8387794
913.8598925
912.9047243
911.9740419
911.0679231
910.1867257
909.3302382
908.4985434
907.6913497
906.9083012
906.1490274
905.4131941
904.700169
904.0094281
903.3403809
902.6923655
902.0647384
901.4567998
900.8678761
900.297248
941.2292035
941.128004
940.9111088
940.5907878
940.1742507
939.6678561
939.0777656
938.4101591
937.6711422
936.8668491
936.0034569
935.0872093
934.124037
933.1202647
932.08166
931.0142511
929.923502
928.8148489
927.6935948
926.5645063
925.4320459
924.3004248
923.1734903
922.054745
920.9471737
919.8534774
918.7762006
917.7173057
916.6784183
915.661103
914.6664159
913.695224
912.7482831
911.8259854
910.9286646
910.0563542
909.208972
908.3865809
907.5886987
906.8150156
906.0652001
905.3387186
904.6349836
903.9534398
903.2934705
902.6543837
902.0355246
901.4361704
900.8556432
900.2932136
941.0281017
940.9266403
940.7091773
940.3882878
939.9707997
939.4634103
938.8723213
938.2036931
937.4636619
936.6585225
935.7944477
934.8775145
933.9140148
932.9099581
931.8714921
930.8042743
929.7141326
928.606434
927.4863532
926.358768
925.2283026
924.0990645
922.974844
921.8592214
920.7553454
919.6658004
918.5930037
917.5391396
916.5057796
915.4942802
914.5059953
913.5415168
912.6017201
911.6868512
910.7973323
909.9330031
909.0939647
908.2799855
907.4906806
906.7257207
905.9847227
905.267034
904.5720954
903.8993099
903.2480302
902.6175298
902.0071363
901.4160979
900.8437259
900.2892771
940.8265901
940.7251978
940.5081125
940.1874492
939.7704911
939.2636325
938.6732208
938.0054864
937.2665556
936.4626381
935.5998129
934.6843201
933.7223885
932.719941
931.6831906
930.6178059
929.5293667
928.4236076
927.3055354
926.179984
925.0516027
923.9247059
922.8029903
921.6900371
920.5889911
919.5026958
918.4334463
917.3833045
916.3541798
915.3472823
914.3638564
913.404749
912.4705887
911.5618365
910.6786566
909.8210262
908.9890317
908.1822757
907.4004305
906.6431998
905.9099937
905.2002078
904.5132487
903.848475
903.205206
902.582678
901.9801986
901.3969866
900.8323416
900.2855032
940.6248719
940.524091
940.30807
939.9889663
939.5741471
939.0698989
938.4824823
937.818061
937.0827484
936.2826554
935.4238214
934.5126068
933.5547676
932.5565579
931.5237496
930.4623113
929.3776118
928.2752036
927.1603873
926.0378406
924.9122025
923.7877707
922.6684608
921.557792
920.4589259
919.374788
918.3078417
917.2601113
916.2334781
915.2294206
914.2489922
913.2933082
912.3628187
911.4581876
910.5793899
909.7265992
908.8997137
908.0983981
907.3223688
906.5712096
905.8443076
905.141048
904.4608047
903.8028924
903.1665927
902.5510979
901.9556845
901.3795286
900.8219036
900.2820256
940.4231296
940.3233402
940.1094293
939.7936458
939.3828225
938.8836063
938.3019431
937.6438764
936.9154431
936.1225952
935.2714242
934.3678361
933.417627
932.4269915
931.4014569
930.34685
929.2685954
928.172038
927.0624253
925.9445097
924.8228525
923.7017115
922.5851184
921.4766483
920.379505
919.2966285
918.2307243
917.1838277
916.1578462
915.1545052
914.1748425
913.2200537
912.2907248
911.3874979
910.5104212
909.6597822
908.8353751
908.0369286
907.2642252
906.5167163
905.7938291
905.0949231
904.419345
903.7663705
903.1352471
902.5251287
901.935266
901.3648024
900.8129912
900.279018
940.2213064
940.1231051
939.9127186
939.6019847
939.1977637
938.7062642
938.1336539
937.4856059
936.7680129
935.9866973
935.1474389
934.2559153
933.3178933
932.3391365
931.3251709
930.2814704
929.2134604
928.1262596
927.0249641
925.9143314
924.7988249
923.6826822
922.5699354
921.4642285
920.3688172
919.286725
918.2207859
917.173149
916.1458445
915.1407608
914.159064
913.2020698
912.2705264
911.365157
910.4861325
909.6338571
908.808154
908.0088309
907.2357477
906.4883285
905.7660448
905.06826
904.3943147
903.7434629
903.1149221
902.5078023
901.9213073
901.3545199
900.8066413
900.2768187
939.9236882
939.7182331
939.4145855
939.01972
938.5394281
937.9795522
937.3457536
936.6436821
935.8787992
935.0566113
934.1825606
933.2622057
932.3008942
931.3039791
930.2766181
929.2240282
928.1510888
927.0627506
925.9635535
924.8578677
923.7498699
922.6435734
921.5425324
920.4500893
919.3694126
918.3032774
917.2540507
916.2239886
915.2149908
914.2284948
913.266057
912.3284902
911.4168227
910.5313392
909.6725702
908.8405645
908.0352226
907.2564908
906.5039315
905.7770628
905.075301
904.3980225
903.7445033
903.1139711
902.5055373
901.9184038
901.351646
900.8044483
900.2759095
)
;

boundaryField
{
    front_top
    {
        type            wedge;
    }
    front_middle
    {
        type            wedge;
    }
    front_bottom
    {
        type            wedge;
    }
    back_top
    {
        type            wedge;
    }
    back_middle
    {
        type            wedge;
    }
    back_bottom
    {
        type            wedge;
    }
    axis_top
    {
        type            symmetryPlane;
    }
    axis_middle
    {
        type            symmetryPlane;
    }
    axis_bottom
    {
        type            symmetryPlane;
    }
    wall_top
    {
        type            calculated;
        value           nonuniform 0();
    }
    wall_middle
    {
        type            calculated;
        value           uniform 900.0184441;
    }
    wall_bottom
    {
        type            calculated;
        value           nonuniform 0();
    }
    inlet
    {
        type            calculated;
        value           nonuniform 0();
    }
    outlet
    {
        type            calculated;
        value           nonuniform 0();
    }
    procBoundary3to2
    {
        type            processor;
        value           nonuniform List<scalar> 
51
(
940.0195145
940.0195145
939.7252047
939.52614
939.2320402
938.8493486
938.3838651
937.8409978
937.2261675
936.5447075
935.8017921
935.0026081
934.152261
933.2559818
932.3187339
931.3455187
930.3412304
929.3106475
928.2584173
927.1893036
926.1074164
925.0170116
923.9222756
922.8267609
921.7341095
920.647727
919.5706519
918.5056428
917.4553364
916.4220631
915.4077224
914.414259
913.4430665
912.4955023
911.5725992
910.6751429
909.8036478
908.9586719
908.1402462
907.3484458
906.5832536
905.8442897
905.1311498
904.4433596
903.7803218
903.1413458
902.5255845
901.9322256
901.360296
900.8089013
900.2770911
)
;
    }
    procBoundary3to4
    {
        type            processor;
        value           nonuniform List<scalar> 
51
(
944.6758156
944.5943076
944.4191821
944.1592376
943.8190217
943.4019443
942.9114249
942.3503018
941.7216159
941.0284166
940.2738937
939.4613426
938.5943914
937.6767736
936.7122568
935.7051939
934.6595245
933.5797082
932.1832167
932.1832167
931.0459402
929.888618
928.7156249
927.5311865
926.3392895
925.1438083
923.9482925
922.7560561
921.5702863
920.3938013
919.2291945
918.0788687
916.9448418
915.828851
914.732464
913.6569999
912.6036369
911.5731575
910.5662686
909.58352
908.6251488
907.6915438
906.7825245
905.8982951
905.0384462
904.2028302
903.3911242
902.602712
901.8370999
901.0937516
900.3719083
)
;
    }
}


// ************************************************************************* //
