/*--------------------------------*- C++ -*----------------------------------*\
  =========                 |
  \\      /  F ield         | OpenFOAM: The Open Source CFD Toolbox
   \\    /   O peration     | Website:  https://openfoam.org
    \\  /    A nd           | Version:  7
     \\/     M anipulation  |
\*---------------------------------------------------------------------------*/
FoamFile
{
    version     2.0;
    format      ascii;
    class       volScalarField;
    location    "0.0024";
    object      thermo:mu;
}
// * * * * * * * * * * * * * * * * * * * * * * * * * * * * * * * * * * * * * //

dimensions      [1 -1 -1 0 0 0 0];

internalField   nonuniform List<scalar> 
1167
(
169318.971
167418.5233
163417.9761
157683.2251
150526.8506
142260.0995
133197.9341
123642.7814
113865.7613
104107.6698
94570.61329
85416.3838
76763.74806
68694.48846
61259.6831
54476.57397
48344.63117
42841.40465
165211.565
163334.8771
159385.942
153733.9024
146680.9007
138547.146
129641.0625
120261.4459
110679.4338
101131.6762
91815.22863
82885.13984
74457.02515
66610.36951
59388.40292
52809.01437
46866.06881
41538.85726
36792.65942
32585.95514
28873.24168
25607.67809
22742.5493
20233.19812
18038.11481
16119.06015
14441.45299
12974.47784
11690.62388
10565.83696
9579.044524
8711.894237
7948.55828
7275.216815
6679.966011
6152.626973
5684.393134
5267.578883
4895.706535
4563.091524
4264.87898
3996.838137
3755.366015
3537.25234
3339.814816
3160.643436
2997.64348
2849.019077
2713.181924
2588.731048
161175.9778
159323.9193
155432.7027
149861.2623
142917.3379
134916.2284
126168.9223
116968.5291
107582.9318
98244.87752
89146.48184
80438.52127
72234.00543
64604.2363
57591.41349
51209.54585
45451.55382
40293.57649
35702.15473
31635.01993
28046.767
24891.39553
22123.39772
19699.30244
17578.53897
15723.99375
14102.2359
12683.41722
11441.07779
10352.14139
9396.205816
8555.586651
7814.989609
7161.248319
6582.90696
6070.104583
5614.396954
5208.43058
4845.882646
4521.38395
4230.170779
3968.237022
3732.048088
3518.544252
3325.132769
3149.470037
2989.541471
2843.617299
2710.146353
2587.778893
157215.7009
155391.258
151555.2608
146065.8532
139234.787
131368.8096
122780.0568
113760.0527
104571.3215
95442.49544
86561.31436
78075.05659
70088.50677
62671.91368
55863.58726
49674.21871
44095.03158
39101.95292
34659.52011
30726.26933
27257.88664
24208.55654
21533.65884
19190.84677
17140.87681
15347.81849
13779.35318
12406.51623
11203.79662
10148.86034
9222.170514
8406.783437
7687.890458
7052.752959
6490.447078
5991.500003
5547.676939
5152.027415
4798.376079
4481.582332
4197.041698
3940.920638
3709.768259
3500.673236
3311.09241
3138.780496
2981.78712
2838.445236
2707.23879
2586.866682
153332.465
151533.9078
147753.8667
142351.7396
135631.4373
127904.5795
119476.1715
110635.7005
101643.626
92723.68605
84058.06619
75788.46276
68016.62213
60809.73934
54199.98469
48198.66299
42793.12826
37958.88315
33660.88751
29857.05001
26503.50109
23555.69115
20970.13871
18705.39152
16723.29887
14988.98131
13471.24468
12142.20123
10977.30416
9954.897621
9056.155112
8264.706933
7566.497402
6949.16167
6402.115724
5916.364447
5483.936934
5098.074046
4752.94232
4443.483233
4165.34287
3914.753577
3688.417931
3483.541285
3297.627703
3128.525476
2974.347853
2833.479941
2704.446595
2585.990524
149524.4691
147752.3053
144030.7732
138716.4069
132108.3349
124520.5567
116254.1834
107594.5548
98798.39955
90084.62965
81631.21354
73575.70944
66016.00354
59012.48517
52598.15522
46778.20991
41541.73401
36861.68025
32702.46449
29023.35576
25780.7517
22930.74399
20430.69892
18240.6215
16323.53942
14645.57194
13176.5058
11889.3931
10760.52405
9769.169374
8897.17714
8128.727293
7450.201148
6849.876426
6317.496363
5844.308608
5422.788606
5046.300629
4709.325872
4406.895623
4134.890949
3889.607273
3667.90613
3467.066459
3284.675193
3118.657389
2967.192405
2828.699117
2701.757434
2585.14661
145792.6268
144048.7905
140387.9209
135159.1476
128667.494
121217.0631
113112.064
104632.8672
96031.46696
87521.95878
79279.17699
71434.9373
64081.44812
57278.25323
51052.92035
45410.74358
40337.1451
35806.35989
31781.85413
28222.79829
25086.6505
22330.73889
19913.13286
17794.92699
15940.11872
14316.05434
12893.59672
11646.71641
10552.50122
9590.900904
8744.449535
7998.056876
7338.49548
6754.401626
6236.097561
5775.020806
5363.927528
4996.491198
4667.311562
4371.666046
4105.537513
3865.360111
3648.128187
3451.170624
3272.174142
3109.13052
2960.282471
2824.081172
2699.159323
2584.331222
142141.5662
140425.3954
136822.6594
131681.879
125305.5743
117995.9203
110051.183
101750.7187
93342.61406
85036.05267
77000.00962
69361.68171
62211.39813
55602.97408
49562.3188
44091.93661
39177.3313
34790.38648
30895.61481
27452.77463
24419.56586
21753.92633
19415.36225
17366.21064
15571.35944
13999.22389
12621.52197
11413.15358
10352.19208
9419.23517
8597.397289
7872.085625
7230.764536
6662.370095
6157.533102
5708.136812
5307.071733
4948.360149
4626.698061
4337.607681
4077.142669
3841.900999
3628.983787
3435.779436
3260.066614
3099.904193
2953.586484
2819.605238
2696.640651
2583.540752
138568.3925
136879.5041
133335.4229
128285.8121
122022.6333
114853.6892
107070.2582
98948.17082
90730.88636
82623.49967
74790.31458
67355.25281
60403.13548
53984.33401
48123.57362
42820.17363
38058.82269
33811.6446
30042.23431
26711.00642
23776.90404
21198.44843
18936.17823
16953.30433
15215.93364
13693.69789
12359.12245
11187.9324
10158.88736
9253.408652
8455.290164
7750.385511
7126.541774
6573.295101
6081.483795
5643.335284
5252.002209
4901.687194
4587.312557
4304.553285
4049.574804
3819.136342
3610.384539
3420.822093
3248.297197
3090.938584
2947.074047
2815.251133
2694.190142
2582.771682
135072.8798
133411.5336
129930.3848
124968.5472
118822.4761
111790.4395
104167.5608
96222.44149
88193.86861
80282.79182
72650.4963
65413.93491
58654.29459
52421.54223
46734.33415
41593.3368
36980.61293
32867.722
29219.56036
25996.36589
23157.5212
20662.72266
18473.8472
16554.92145
14873.03321
13398.70338
12105.46818
10970.0893
9971.892596
9092.920742
8317.578662
7632.384361
7025.487946
6486.815287
6007.642137
5580.345471
5198.456064
4856.271897
4548.99009
4272.357723
4022.712055
3796.945187
3592.247471
3406.231723
3236.813183
3082.18805
2940.716362
2810.99964
2691.797007
2582.020627
131656.9725
130025.4777
126604.3984
121730.6197
115701.7738
108809.9355
101345.0908
93574.73288
85733.05536
78016.32281
70579.13698
63535.99198
56965.88157
50912.22042
45394.72547
40409.85459
35940.98265
31958.32725
28426.46695
25307.08197
22560.17503
20146.12966
18027.69223
16170.05881
14541.53255
13113.42014
11860.11598
10759.07294
9790.555727
8937.212571
8183.917703
7517.68194
6927.208667
6402.645703
5935.701882
5518.965115
5146.214957
4811.94451
4511.556637
4240.892263
3996.467877
3775.23491
3574.496211
3391.946442
3225.576968
3073.615169
2934.486181
2806.832515
2689.450969
2581.284352
128321.6668
126718.2985
123357.4053
118575.9195
112660.9784
105909.2366
98603.40517
91006.50695
83348.77151
75821.88634
68575.90012
61723.42062
55336.08588
49457.40256
44103.23617
39270.38489
34939.47262
31082.05565
27662.67954
24643.1035
21984.16762
19647.62167
17597.02094
15798.43467
14221.06955
12837.24689
11622.36608
10554.5229
9614.579962
8785.879278
8053.917725
7406.038541
6831.405948
6320.583843
5865.447038
5458.996797
5095.109753
4768.58338
4474.882749
4210.044852
3970.725973
3753.9256
3557.063939
3377.911478
3214.53348
3065.186096
2928.358644
2802.732979
2687.142501
2580.559835
125064.417
123489.6537
120191.8039
115501.3056
109703.6091
103089.5804
95942.17164
88517.35848
81041.28292
73701.4933
66644.42325
59975.91914
53766.73793
48057.42976
42861.42575
38174.41021
33977.04541
30239.67962
26927.85154
24004.20805
21429.87276
19167.45277
17181.59943
15439.58633
13911.4307
12570.23228
11392.09918
10356.11839
9443.752092
8638.809991
7927.350911
7297.254347
6737.918713
6240.402738
5796.754404
5400.275656
5045.021902
4726.040483
4438.868994
4179.750531
3945.407243
3732.952119
3539.895712
3364.093661
3203.644849
3056.871582
2922.312078
2798.686287
2684.86317
2579.844373
121885.1999
120341.5161
117107.6273
112507.6991
106829.3363
100355.7595
93364.9478
86110.92006
78814.98434
71659.25896
64785.33406
58296.31039
52260.64893
46714.16902
41671.06888
37124.36924
33054.45594
29432.47356
26223.72726
23391.25752
20897.56369
18706.09075
16782.24444
15094.08081
13612.76528
12312.35087
11169.54401
10164.03141
9278.037915
8495.978687
7804.256553
7191.249004
6646.760458
6162.046077
5729.571236
5342.737407
4995.924769
4684.253549
4403.456203
4149.937155
3920.461533
3712.269606
3522.954118
3350.447688
3192.883775
3048.649687
2916.329784
2794.680784
2682.606146
2579.135726
118787.5285
117273.8748
114103.6315
109598.9907
104039.0915
97707.61233
90875.09991
83791.34685
76672.97473
69697.46244
63003.09612
56689.76646
50820.7223
45432.4746
40535.06685
36123.15181
32175.23298
28662.56195
25551.95425
22806.45988
20389.24287
18264.8145
16399.7862
14762.91267
13326.1657
12064.30198
10955.07754
9978.699944
9117.865886
8357.603265
7684.848739
7088.192057
6557.972478
6085.622231
5663.910455
5286.42003
4947.789394
4643.225414
4368.667687
4120.58673
3895.873629
3691.861064
3506.234679
3336.956119
3182.23552
3040.507869
2910.401793
2790.70929
2680.367114
2578.432427
115767.2562
114284.8256
111181.3398
106774.7302
101337.1694
95148.2184
88475.34372
81561.98687
74619.92983
67822.79982
61304.90448
55160.8566
49453.94563
44216.72654
39459.86184
35175.20212
31343.29371
27934.6739
24916.24036
22252.54017
19907.5105
17846.37967
16036.46026
14447.68559
13052.91599
11827.52431
10749.86076
9800.928028
8963.972824
8224.362933
7569.574962
6988.575972
6471.89094
6011.412022
5599.983479
5231.527992
4900.74351
4603.053328
4334.551941
4091.752417
3871.681435
3671.761499
3489.739404
3323.629365
3171.705672
3032.44838
2904.528239
2786.770858
2678.144943
2577.73391
112823.9944
111374.9772
108343.4265
104036.1306
98726.43734
92684.18171
86172.36982
79430.45237
72664.80774
66043.78238
59697.32775
53718.55037
48167.64614
43075.25907
38451.63979
34288.37268
30564.93149
27253.84588
24322.04487
21734.55698
19456.37586
17454.06106
15695.48288
14151.43683
12795.44893
11603.91651
10555.72157
9632.319201
8817.579173
8097.358848
7459.355544
6893.068317
6389.178808
5939.890772
5538.228853
5178.358105
4855.065308
4563.99386
4301.276291
4063.569775
3847.989616
3652.051561
3473.527746
3310.510996
3161.32543
3024.492928
2898.723613
2782.874465
2675.944306
2577.041457
109959.529
108546.634
105588.2611
101387.3375
96209.28794
90319.54773
83973.72382
77405.50428
70815.86252
64369.04653
58191.46558
52373.65315
46972.06944
42018.54421
37520.58729
33471.0496
29849.43376
26628.36583
23776.27193
21258.94198
19042.21322
17093.30505
15381.38788
13878.09876
12557.5516
11396.6975
10375.28199
9475.235826
8680.755634
7978.246333
7355.739044
6802.91142
6310.894468
5871.940774
5479.41422
5127.521881
4811.269381
4526.426781
4269.182308
4036.315312
3825.040772
3632.896494
3457.736817
3297.705812
3151.172582
3016.696872
2893.024903
2779.04246
2673.776389
2576.358111
107172.3066
105796.9926
102917.1569
98830.95225
93791.3269
88060.28112
81886.24685
75495.72703
69084.01011
62811.67048
56801.03071
51138.78393
45881.82124
41059.21589
36680.01196
32735.68317
29207.71475
26069.18437
23289.11014
20834.60641
18672.7964
16771.59247
15100.96729
13633.49372
12344.19076
11210.48084
10212.55516
9333.047536
8556.518047
7869.596119
7260.836912
6720.020442
6238.588791
5808.929683
5424.629751
5079.971839
4770.170322
4491.004496
4238.804601
4010.432176
3803.163627
3614.573286
3442.584257
3285.382379
3141.375394
3009.15549
2887.500184
2775.320027
2671.666445
2575.691553
104460.6691
103126.2074
100334.5406
96368.61415
91478.89435
85915.34164
79920.18148
73713.38433
67483.96495
61386.96747
55540.73297
50030.89054
44912.63887
40214.28331
35945.46789
32098.39901
28654.75276
25589.93456
22873.58721
20473.91021
18359.21178
16498.75913
14863.21487
13425.93338
12162.62144
11051.56098
10073.28325
9210.750425
8449.157838
7775.312276
7177.9649
6647.274257
6174.732192
5753.00045
5375.687129
5037.26258
4733.037787
4458.82648
4211.063444
3986.689587
3782.983692
3597.591987
3428.477807
3273.859607
3132.175862
3002.044716
2882.26954
2771.781435
2669.652755
2575.052709
101825.0682
100537.0278
97838.86386
94004.36075
89275.80173
83892.66939
78087.63677
72072.57958
66030.38619
60110.81111
54428.98489
49069.50429
44084.32545
39503.92027
35336.87542
31578.01633
28209.71441
25208.48199
22546.30692
20192.35493
18116.18012
16288.14003
14680.17118
13266.28286
12022.85445
10928.7964
9965.227609
9115.413199
8364.821203
7700.684914
7111.816418
6588.692265
6122.834732
5707.116884
5335.153879
5001.580663
4701.703377
4431.424014
4187.24434
3966.114661
3765.351937
3582.638845
3415.964826
3263.568764
3123.908748
2995.618987
2877.519454
2768.55373
2667.808063
2574.464215
99265.46239
98026.82952
95431.18748
91742.81307
87187.69023
81999.34508
76397.6528
70585.43225
64738.71682
59001.66502
53487.0836
48275.59415
43419.81652
38950.95344
34878.20524
31197.97193
27894.99177
24947.2258
22328.52099
20009.95591
17962.39357
16157.39114
14568.10552
13169.43196
11938.44224
10854.57357
9899.564736
9056.965089
8312.484946
7653.692667
7069.499985
6550.518982
6088.407781
5676.074344
5307.207094
4976.514596
4679.286098
4411.47032
4169.607903
3950.62515
3751.869387
3571.032287
3406.111577
3255.351625
3117.217023
2990.347369
2873.57019
2765.834632
2666.234208
2573.955379
96778.71391
95594.74302
93113.95159
89584.40217
85221.39151
80242.67223
74860.28018
69264.84428
63624.67659
58078.52885
52734.70879
47672.03907
42943.86755
38581.12586
34595.60056
30985.14002
27737.38352
24832.31193
22245.89036
19951.39177
17921.29996
16128.64703
14547.79848
13154.68175
11927.13619
10845.21149
9891.139906
9048.818617
8304.215721
7645.108229
7060.534044
6541.187803
6078.803879
5666.305574
5297.406814
4966.829429
4669.840136
4402.385382
4161.002483
3942.58484
3744.473114
3564.343571
3400.179487
3250.210304
3112.887223
2986.83642
2870.874123
2763.937948
2665.113542
2573.583372
93241.45251
90886.46651
87530.41826
83377.77385
78629.62165
73483.79068
68121.6628
62702.40302
57357.49536
52191.32734
47281.2114
42680.75495
38421.42183
34517.56897
30969.41187
27767.51169
24894.56156
22329.24004
20047.01633
18022.47722
16230.40501
14646.60047
13248.0054
12013.42767
10923.67259
9961.326927
9110.753237
8358.233158
7691.606917
7100.088659
6574.460674
6106.412993
5688.927427
5315.664752
4981.300284
4681.089497
4410.918086
4167.268574
3947.00165
3747.404047
3566.108427
3401.057449
3250.443609
3112.684802
2986.377821
2870.31371
2763.408111
2664.726657
2573.429608
)
;

boundaryField
{
    front_top
    {
        type            wedge;
    }
    front_middle
    {
        type            wedge;
    }
    front_bottom
    {
        type            wedge;
    }
    back_top
    {
        type            wedge;
    }
    back_middle
    {
        type            wedge;
    }
    back_bottom
    {
        type            wedge;
    }
    axis_top
    {
        type            symmetryPlane;
    }
    axis_middle
    {
        type            symmetryPlane;
    }
    axis_bottom
    {
        type            symmetryPlane;
    }
    wall_top
    {
        type            calculated;
        value           nonuniform 0();
    }
    wall_middle
    {
        type            calculated;
        value           uniform 2530.329233;
    }
    wall_bottom
    {
        type            calculated;
        value           nonuniform 0();
    }
    inlet
    {
        type            calculated;
        value           nonuniform 0();
    }
    outlet
    {
        type            calculated;
        value           nonuniform 0();
    }
    procBoundary3to2
    {
        type            processor;
        value           nonuniform List<scalar> 
51
(
94363.84918
94363.84918
90965.24462
88746.48321
85581.6957
81656.57091
77159.21491
72271.09465
67161.42211
61979.27107
56849.23189
51871.3293
47120.86465
42651.46496
38495.82648
34670.71818
31179.6116
28015.90471
25165.75532
22611.06764
20329.59821
18298.54993
16494.9934
14895.83646
13479.64167
12226.36688
11117.44775
10136.02064
9267.04233
8497.032709
7813.91488
7207.221974
6667.560136
6186.804071
5757.790101
5374.246115
5030.672856
4722.359014
4445.0703
4195.183233
3969.547958
3765.347136
3580.144303
3411.814681
3258.487608
3118.517619
2990.439784
2872.982702
2765.003199
2665.51234
2573.629454
)
;
    }
    procBoundary3to4
    {
        type            processor;
        value           nonuniform List<scalar> 
51
(
173496.6661
171573.4668
167523.3911
161712.1016
154452.1422
146056.5671
136844.7758
127114.4693
117143.6465
107176.6078
97419.67991
88037.76685
79156.86133
70863.56338
63209.15525
56219.02523
49890.72395
44206.44014
37934.7929
37934.7929
33583.69375
29741.37997
26360.4152
23393.5012
20794.94897
18522.06838
16535.3602
14799.05147
13281.27026
11953.58516
10791.01467
9771.756737
8876.711324
8089.300848
7395.240341
6782.184722
6239.528055
5758.038707
5329.823478
4948.088718
4606.925237
4301.337252
4026.874229
3779.836254
3556.882353
3355.207737
3172.352278
3006.129764
2854.674454
2716.358635
2589.727182
)
;
    }
}


// ************************************************************************* //
