/*--------------------------------*- C++ -*----------------------------------*\
  =========                 |
  \\      /  F ield         | OpenFOAM: The Open Source CFD Toolbox
   \\    /   O peration     | Website:  https://openfoam.org
    \\  /    A nd           | Version:  7
     \\/     M anipulation  |
\*---------------------------------------------------------------------------*/
FoamFile
{
    version     2.0;
    format      ascii;
    class       volTensorField;
    location    "0.0021";
    object      grad(U);
}
// * * * * * * * * * * * * * * * * * * * * * * * * * * * * * * * * * * * * * //

dimensions      [0 0 -1 0 0 0 0];

internalField   nonuniform List<tensor> 
1167
(
(0.0008965159528 -1.400711247e-15 -8.434523419e-05 -2.249652416e-15 0.001470018392 4.206368637e-13 -8.930777001e-06 -1.218729009e-14 0.01079464286)
(0.00118588441 -2.207985781e-15 -0.0001951783083 4.803543421e-16 0.001283736421 0 -2.307841566e-05 -3.597072519e-15 0.01079648417)
(0.001155300122 -2.547153635e-15 -0.0003156044156 1.220003029e-15 0.001223213063 -8.864092957e-14 -3.595007669e-05 6.630395909e-15 0.01080033192)
(0.001159326182 3.193235031e-15 -0.0004357770786 1.62891333e-15 0.001207179516 0 -4.860462589e-05 1.019655649e-15 0.01080612526)
(0.001133782988 6.653335372e-15 -0.0005552601461 -4.638625003e-16 0.001194562317 0 -6.101776762e-05 1.831852116e-16 0.01081372143)
(0.001099451264 5.225088337e-15 -0.0006745465756 -1.320355096e-15 0.001180969153 0 -7.341317854e-05 7.912018777e-16 0.01082305919)
(0.001060053919 1.189504693e-15 -0.000793199209 -1.867266123e-15 0.001166257651 -3.809873993e-14 -8.52094273e-05 2.37694255e-15 0.01083423619)
(0.001013989962 1.110798835e-15 -0.0009107451638 -1.338590564e-15 0.001150186605 0 -9.588120735e-05 4.869498289e-16 0.01084651066)
(0.0009623601958 2.334533942e-16 -0.00102739623 -1.667423539e-15 0.001132460952 6.159879877e-14 -0.0001056352024 -3.791443209e-15 0.01085999825)
(0.0009070344289 -3.218558307e-15 -0.001143591758 -1.16209692e-15 0.001113280358 2.833302967e-14 -0.0001148323122 -3.336111577e-15 0.01087467037)
(0.0008472439815 -2.364786037e-15 -0.001258872365 -8.0109115e-16 0.001092796577 0 -0.000123014136 -1.014295933e-15 0.01089030209)
(0.0007837457126 -1.702471689e-15 -0.001373248076 -5.949419828e-16 0.001070978784 -2.473992245e-14 -0.0001303111132 -4.428365224e-16 0.01090680483)
(0.0007177777679 -1.801181639e-15 -0.001487083628 -4.398858619e-16 0.001048035562 0 -0.0001371618813 -6.978681637e-17 0.0109243176)
(0.0006484843253 -2.364349764e-16 -0.001599498518 -2.800555886e-16 0.001024082913 0 -0.0001428958512 4.516260108e-16 0.01094234921)
(0.000576491793 6.5179212e-17 -0.001710458289 -3.513227382e-16 0.0009991361215 0 -0.0001477748988 3.751904709e-16 0.0109609406)
(0.0005021776917 -4.381898993e-16 -0.001819683634 -2.577708404e-16 0.0009733435961 0 -0.0001517841033 3.550172614e-16 0.01097998596)
(0.0004258321465 1.388248584e-16 -0.00192685496 -2.658353374e-16 0.0009467396906 0 -0.0001549764249 4.412212156e-16 0.01099934041)
(0.0003481139802 -3.851343925e-16 -0.00203173716 -2.482763531e-16 0.0009194532508 0 -0.0001574957402 5.976797664e-16 0.01101913176)
(0.0002689640001 1.575059648e-15 -0.002133760305 -2.049697075e-16 0.0008915555777 -9.328399133e-15 -0.0001592384865 1.269133163e-15 0.01103897515)
(0.0001887617206 2.97221766e-15 -0.002232397228 -3.575602801e-16 0.0008631275574 0 -0.0001601956002 1.682261416e-15 0.01105904277)
(0.0001076554821 1.735871568e-15 -0.002327167316 -4.277570515e-16 0.0008342446322 -1.778774501e-14 -0.0001604316816 2.384049735e-15 0.01107896468)
(2.611453682e-05 6.486498172e-16 -0.002417442204 -4.660204184e-16 0.0008049713865 0 -0.0001599341481 2.031488392e-15 0.01109890876)
(-5.566548221e-05 2.779606378e-16 -0.002502717846 -4.472318008e-16 0.0007753926171 -8.560100261e-15 -0.0001588116573 1.941861803e-15 0.01111856287)
(-0.0001373119872 5.522276589e-16 -0.002582255346 -4.524243825e-16 0.0007455630851 0 -0.0001570297327 1.281459687e-15 0.01113802529)
(-0.000219074372 6.175006243e-16 -0.002655401074 -4.561261881e-16 0.0007155671459 0 -0.0001546138874 8.208163183e-16 0.0111570655)
(-0.0003009122428 7.237792009e-16 -0.002721345123 -4.623867428e-16 0.0006854245274 0 -0.0001515451168 7.456480467e-16 0.01117562288)
(-0.0003823120739 8.365511252e-16 -0.002779507291 -4.711045205e-16 0.0006552022071 0 -0.0001479738335 1.039192873e-15 0.01119369528)
(-0.000462899848 9.461361011e-16 -0.002829344079 -4.822017914e-16 0.0006249389634 0 -0.0001441711754 1.024070861e-15 0.01121111686)
(-0.0005427533838 4.970159064e-16 -0.002869782086 -4.975644451e-16 0.0005947046029 0 -0.0001398392983 9.047013951e-16 0.01122798674)
(-0.0006223206753 -4.780066396e-16 -0.002900186625 -4.843077047e-16 0.0005645202193 0 -0.0001351990762 8.225626387e-16 0.01124400293)
(-0.0007008320762 -6.807881527e-16 -0.00291943083 -4.477749244e-16 0.0005344182922 -7.854758416e-15 -0.0001299681595 7.651919835e-16 0.01125942001)
(-0.0007784979533 -3.292578434e-16 -0.002927019398 -4.283208206e-16 0.0005044492973 0 -0.0001244803436 3.745735552e-16 0.01127396563)
(-0.0008550127008 -1.911691709e-16 -0.002921817578 -4.151545193e-16 0.0004746259936 0 -0.0001184909012 2.134331177e-16 0.01128778053)
(-0.0009302209449 -2.017289238e-16 -0.002903227757 -4.005651728e-16 0.0004450015632 0 -0.0001122181832 7.311408574e-17 0.01130071136)
(-0.001004002328 2.373482873e-16 -0.002870550032 -3.873432232e-16 0.0004155885133 0 -0.0001058397853 -4.523017389e-17 0.01131277505)
(-0.001076484557 1.216320538e-15 -0.002822865843 -3.933508847e-16 0.0003864341113 0 -9.922855699e-05 -1.048912297e-16 0.01132401454)
(0.0009157261492 -8.269201043e-15 -8.661473011e-05 -3.23180637e-14 0.001501570464 0 -9.825473436e-06 -2.352556718e-15 0.01067441606)
(0.001211235666 -1.463653514e-14 -0.0002005420589 -3.528451834e-15 0.001311261605 0 -2.556298811e-05 -7.038708615e-15 0.01067666719)
(0.001179830574 -3.461971915e-16 -0.0003248728356 4.387333955e-15 0.001249395659 0 -4.046869038e-05 -5.451101434e-15 0.01068131361)
(0.001184493634 7.556059546e-15 -0.0004496023436 -2.541944594e-16 0.001232936451 1.322133975e-13 -5.576313043e-05 -6.926648995e-15 0.01068834777)
(0.001159887872 2.360174836e-15 -0.0005733349462 -9.841190945e-16 0.001220258647 0 -7.050343321e-05 -2.782744877e-15 0.01069775839)
(0.001124591454 4.836551098e-16 -0.0006961120311 -1.028760823e-15 0.001206814812 0 -8.447210296e-05 -4.552323734e-16 0.01070889106)
(0.001082170827 4.094586814e-15 -0.0008173759009 -8.454445127e-16 0.001191803354 -3.869207513e-14 -9.707934906e-05 1.410394146e-15 0.01072151804)
(0.001034708235 7.694434132e-15 -0.0009377863009 -1.746645397e-15 0.001175101869 3.447835926e-14 -0.000108892886 -1.214278407e-15 0.01073579381)
(0.0009829767198 1.181429672e-15 -0.001057907187 -2.363493232e-15 0.001156928737 0 -0.0001203183588 -6.417790884e-17 0.01075167295)
(0.0009257946054 -6.284720715e-15 -0.001176839648 -1.689505303e-15 0.001137348097 0 -0.0001304534625 -7.076394378e-16 0.0107687095)
(0.0008642050565 -4.46224813e-15 -0.001294718805 -8.59309762e-16 0.001116267369 0 -0.000139519267 -1.179319633e-15 0.01078686276)
(0.0007998474321 -1.076726619e-15 -0.001412084322 -6.900845729e-16 0.001093914458 0 -0.0001480703189 -1.613489607e-15 0.01080629418)
(0.0007316884356 -8.354268988e-16 -0.001528046262 -5.801772415e-16 0.001070438652 0 -0.0001553682782 -1.26495906e-15 0.01082654234)
(0.0006604661265 -9.682266499e-16 -0.001642644176 -4.859942119e-16 0.001045824319 0 -0.0001617127877 -1.608747538e-15 0.01084759327)
(0.0005869197129 -9.137816015e-16 -0.001755826896 -3.83223297e-16 0.00102026254 -2.165079482e-14 -0.0001672509032 -3.520637014e-16 0.0108694673)
(0.0005109010241 -5.412947463e-16 -0.00186694758 -3.304085867e-16 0.0009938039744 0 -0.0001716760626 -3.300504509e-16 0.01089173437)
(0.0004330602953 -4.335376616e-16 -0.001976006729 -2.920642479e-16 0.0009665577984 0 -0.0001753383979 -3.568344797e-16 0.01091462231)
(0.0003535325561 -5.953828625e-16 -0.002082307598 -2.52142914e-16 0.0009386116494 0 -0.0001779722429 -4.128558045e-16 0.01093763004)
(0.0002725243124 -4.932572483e-16 -0.00218553563 -2.151005549e-16 0.0009100464747 1.89473521e-14 -0.0001797367998 -9.964344852e-16 0.01096094921)
(0.000190362243 -4.948726617e-16 -0.002285152114 -1.84947581e-16 0.0008809357203 -9.238357217e-15 -0.0001806218121 4.763044026e-16 0.01098413963)
(0.0001073968792 5.680383839e-16 -0.002380655568 -1.521568302e-16 0.0008513585021 0 -0.0001806827237 9.795655181e-16 0.01100743793)
(2.392881916e-05 1.580480551e-15 -0.002471554295 -2.16108695e-16 0.0008213889058 -8.851812148e-15 -0.0001800379958 1.407647217e-15 0.01103041827)
(-5.96761934e-05 1.830891796e-15 -0.002557171389 -2.568122194e-16 0.0007911013771 0 -0.0001786505779 1.084795062e-15 0.01105333846)
(-0.0001433941812 2.135198794e-15 -0.002636988138 -3.258061891e-16 0.0007605704521 0 -0.0001766801345 9.627138606e-16 0.01107579615)
(-0.0002272195263 1.196489803e-15 -0.002709990882 -3.808777721e-16 0.0007298482245 0 -0.0001738453646 9.346063784e-16 0.01109799482)
(-0.0003109784935 4.022497029e-16 -0.002775770149 -3.801424861e-16 0.0006989884839 0 -0.0001704759235 9.03276832e-16 0.01111957123)
(-0.0003937852563 4.078212062e-16 -0.002833444141 -3.799386969e-16 0.000668037788 0 -0.0001664826212 1.248575707e-15 0.01114075014)
(-0.0004757763695 5.033994023e-16 -0.002882387347 -3.842044862e-16 0.0006370840732 0 -0.0001619899564 1.463035617e-15 0.01116123039)
(-0.0005571070142 9.765502273e-17 -0.002921655704 -3.849066331e-16 0.0006061493177 -8.085013175e-15 -0.0001569150219 1.836762793e-15 0.01118102856)
(-0.0006377732259 -2.35227844e-16 -0.002950551439 -3.67417924e-16 0.000575293869 -8.026367023e-15 -0.0001513496116 1.620487534e-15 0.01120006422)
(-0.0007176847683 4.987599291e-16 -0.0029684238 -3.573718687e-16 0.0005445306018 0 -0.0001455189937 1.104458822e-15 0.01121819996)
(-0.0007967567276 1.083750702e-15 -0.002974205369 -3.739569076e-16 0.0005139113786 0 -0.0001391648428 7.0324172e-16 0.01123555822)
(-0.0008751660639 1.060397495e-15 -0.002967351474 -3.897813974e-16 0.0004834462357 0 -0.0001326187953 3.242625249e-16 0.01125183788)
(-0.0009517278106 1.034374749e-15 -0.002946813416 -4.029565807e-16 0.0004531689329 0 -0.0001256676327 -1.006867718e-16 0.01126733566)
(-0.001026748761 8.872172328e-16 -0.002912095729 -4.173618728e-16 0.0004231339363 7.859835545e-15 -0.0001186210631 -4.274432612e-16 0.01128177594)
(-0.001100427377 5.253956777e-16 -0.002862045449 -4.243842061e-16 0.0003933522143 7.84775489e-15 -0.0001111818263 -3.795668208e-16 0.01129531202)
(-0.00117290116 2.942403334e-16 -0.002796042801 -4.202274179e-16 0.0003638599014 0 -0.0001035183226 3.616898653e-17 0.01130778392)
(-0.001244046606 5.707103553e-16 -0.00271334332 -4.173347223e-16 0.0003346578646 -7.841298269e-15 -9.572159328e-05 5.290720157e-16 0.01131924529)
(-0.001313695866 1.153911694e-15 -0.0026132077 -4.26219028e-16 0.0003057800352 -7.846261297e-15 -8.779491447e-05 6.992578718e-16 0.0113297193)
(-0.001381867528 1.009766455e-15 -0.002495026812 -4.435475175e-16 0.0002772298909 0 -7.991250524e-05 4.834890997e-16 0.01133911668)
(-0.001448519506 1.389912183e-16 -0.002357898482 -4.458288203e-16 0.0002490344247 0 -7.187514098e-05 4.048724151e-16 0.01134760141)
(-0.001514105385 -1.863167929e-16 -0.002201320348 -4.344112127e-16 0.0002211953607 0 -6.39028718e-05 3.8103692e-16 0.01135497725)
(-0.001578193822 -2.22343645e-17 -0.002024463686 -4.26066505e-16 0.0001937206619 0 -5.584070114e-05 3.411606394e-16 0.01136148936)
(-0.001640766441 1.006284335e-16 -0.001826902248 -4.20795524e-16 0.0001666234536 0 -4.790266811e-05 2.890806214e-16 0.0113669631)
(-0.00170165524 1.633674854e-17 -0.001607954646 -4.166631434e-16 0.000139909419 7.975010446e-15 -4.002572746e-05 2.283316859e-16 0.01137162335)
(-0.001761415144 -9.809635926e-17 -0.001367174774 -4.087753386e-16 0.0001135933108 -8.011214292e-15 -3.232267073e-05 3.392500544e-16 0.01137533292)
(-0.001820230504 8.832381855e-17 -0.001103932993 -4.022183085e-16 8.766318931e-05 0 -2.471961169e-05 4.512624033e-16 0.01137826086)
(-0.001874207372 2.078293195e-16 -0.0008177965122 -4.004512274e-16 6.212684758e-05 8.094994336e-15 -1.729826985e-05 4.577713561e-16 0.01138034794)
(-0.001911778285 1.829205054e-16 -0.0005081701469 -3.973898901e-16 3.707181956e-05 0 -1.002810054e-05 4.560880031e-16 0.01138172635)
(-0.002006710263 1.012761046e-16 -0.0001732746437 -3.949045032e-16 1.278358797e-05 0 -3.108610024e-06 2.580316123e-16 0.01138237822)
(0.0009372318445 1.052783255e-14 -9.015620507e-05 -1.859193777e-14 0.001536861865 0 -1.118383481e-05 3.616044381e-15 0.01055155235)
(0.001240224436 9.830930671e-16 -0.0002082644214 -1.552355371e-14 0.001342065514 0 -2.894088905e-05 -8.176677975e-16 0.01055433237)
(0.001208993865 -1.979396031e-15 -0.0003368861137 -6.205002754e-15 0.001279096827 0 -4.545234517e-05 -6.360488495e-15 0.01055995565)
(0.001213433268 -2.519398598e-15 -0.0004658637283 -5.247066062e-15 0.001262675644 0 -6.22686603e-05 -3.277350381e-15 0.01056796282)
(0.00118645254 -4.947517175e-15 -0.0005932458709 -2.631326763e-15 0.001249635905 0 -7.803460833e-05 -1.851123324e-15 0.01057821487)
(0.001149058308 -2.577887756e-15 -0.0007191880686 -1.607145441e-15 0.001235457618 0 -9.26713414e-05 -1.100925314e-15 0.010590707)
(0.001106540044 3.156568017e-15 -0.0008446449846 -1.076861481e-15 0.00121973212 0 -0.0001069596001 -9.208283529e-16 0.01060531895)
(0.001059090013 3.686062953e-15 -0.000969433544 -1.929860069e-15 0.001202643672 0 -0.0001205777692 1.226867951e-15 0.01062208302)
(0.001004926016 -5.868366161e-16 -0.001092596213 -1.700375076e-15 0.001184068889 -3.176618613e-14 -0.0001325669711 3.562801281e-15 0.0106402202)
(0.0009456731586 -1.048927217e-15 -0.001214586471 -1.441143631e-15 0.001163802873 0 -0.000143412263 1.627871287e-15 0.01065982966)
(0.0008833970917 -5.534787525e-16 -0.001336118434 -1.21778741e-15 0.001142127342 0 -0.0001537617033 -6.67364913e-16 0.01068109244)
(0.0008168381608 -1.572080482e-15 -0.001456292246 -1.118215912e-15 0.001119212909 0 -0.000162814001 -1.117025393e-17 0.01070350401)
(0.0007468129808 -1.747873039e-15 -0.001575134021 -8.219517322e-16 0.001095019267 0 -0.0001708186622 5.207914727e-16 0.01072694191)
(0.0006742524365 -2.321956278e-15 -0.001692731438 -7.291270251e-16 0.001069769576 0 -0.0001780082768 -6.845769912e-17 0.01075151742)
(0.0005984853673 -2.678152688e-15 -0.001808109415 -4.401889815e-16 0.001043523378 0 -0.0001837204028 -5.152816325e-16 0.01077658282)
(0.00052038409 -4.260041686e-16 -0.001921472488 -3.432978097e-16 0.001016346846 0 -0.0001884922299 -8.433740828e-16 0.01080239425)
(0.0004402578681 3.206253948e-16 -0.002032234053 -3.48956177e-16 0.0009883664735 0 -0.0001921069576 -1.019830872e-15 0.01082853092)
(0.0003583851284 1.12830474e-15 -0.00214012312 -3.40621011e-16 0.0009596453071 0 -0.0001947383281 -1.247382898e-15 0.0108550531)
(0.0002752607532 -6.793017237e-16 -0.002244599938 -4.204583985e-16 0.000930292573 0 -0.0001963271682 -1.505259731e-15 0.0108817429)
(0.0001910426105 -1.78995494e-15 -0.002345290532 -2.588359913e-16 0.0009003854524 0 -0.0001970207919 -1.361092717e-15 0.01090854695)
(0.0001061997945 -5.656544321e-16 -0.00244164581 -2.351489692e-16 0.0008700093432 0 -0.0001968557047 -1.421864717e-15 0.01093530627)
(2.097520191e-05 4.406417966e-16 -0.002533142499 -1.953321211e-16 0.0008392492604 0 -0.0001959004651 -1.09955981e-15 0.01096195751)
(-6.430087662e-05 1.425295296e-15 -0.002619235757 -2.521898446e-16 0.0008081788965 0 -0.0001942809878 -5.886983702e-16 0.01098833417)
(-0.0001499164768 9.61543874e-16 -0.002699096912 -2.778545071e-16 0.0007768785838 0 -0.0001918336124 1.398796887e-18 0.01101441558)
(-0.0002356321019 7.837872973e-16 -0.002772077186 -2.948115072e-16 0.0007453791635 -8.56416974e-15 -0.0001886764107 5.082676128e-16 0.01103989457)
(-0.0003209391064 -1.478440577e-16 -0.002837466587 -3.117404587e-16 0.0007137553505 0 -0.0001848204428 4.521477169e-16 0.01106495089)
(-0.0004058157055 -7.014010775e-16 -0.002894769067 -2.715281023e-16 0.0006820547603 0 -0.0001805611731 3.403907369e-16 0.01108918685)
(-0.0004898982019 -7.158118248e-16 -0.002942887367 -2.527124011e-16 0.0006503334049 0 -0.0001755884041 5.196415111e-16 0.01111287221)
(-0.0005733357547 7.222311535e-17 -0.002981310377 -2.175013419e-16 0.0006186437298 -8.210926235e-15 -0.0001701955109 6.991103366e-16 0.01113562752)
(-0.0006556779541 1.66937764e-15 -0.003008943377 -2.417946924e-16 0.0005870184034 0 -0.0001641347542 7.615867325e-16 0.01115769958)
(-0.0007371855029 2.04735436e-15 -0.003025244336 -2.907455309e-16 0.0005555187742 0 -0.0001576681413 6.543676273e-16 0.01117876445)
(-0.0008176959132 2.045057375e-15 -0.003029173096 -3.286185996e-16 0.0005241538845 0 -0.0001506454885 7.859642952e-16 0.01119890967)
(-0.0008968211276 2.301596154e-15 -0.003020157284 -3.703761062e-16 0.0004929799465 0 -0.0001432926055 9.677723331e-16 0.01121804313)
(-0.0009743854662 2.166456068e-15 -0.002997605722 -4.150922054e-16 0.0004620163906 0 -0.0001358785162 1.231877416e-15 0.0112360946)
(-0.001050586782 1.117871519e-15 -0.002960414066 -4.443240048e-16 0.0004313146683 0 -0.0001280797326 1.568925199e-15 0.01125315991)
(-0.001125957553 -3.206608008e-16 -0.002907970141 -4.446139709e-16 0.0004008785131 0 -0.0001201342247 1.608869991e-15 0.01126896876)
(-0.001199742166 -1.25301679e-15 -0.002839267994 -4.151061408e-16 0.0003707293105 0 -0.0001118336811 1.683373204e-15 0.01128378356)
(-0.001272033368 -7.124993828e-16 -0.002753850543 -3.800897923e-16 0.0003408960264 0 -0.0001034973771 1.538930381e-15 0.01129734432)
(-0.001342557552 6.458607727e-16 -0.002650746002 -3.735213807e-16 0.0003113904898 0 -9.493286481e-05 1.590999045e-15 0.01130986694)
(-0.001411451452 8.124561927e-16 -0.002529487998 -3.890958673e-16 0.0002822448497 0 -8.638745835e-05 1.717075467e-15 0.01132116433)
(-0.001478826848 2.548309994e-16 -0.002389175259 -3.883690832e-16 0.0002534615296 -7.993767662e-15 -7.770147619e-05 1.686280463e-15 0.01133135942)
(-0.001544723762 2.414972319e-16 -0.002229239527 -3.849290075e-16 0.000225063133 0 -6.896896094e-05 1.385911081e-15 0.01134039574)
(-0.001609154014 4.370166261e-16 -0.002049128303 -3.846239201e-16 0.0001970481595 0 -6.032152877e-05 1.160832363e-15 0.0113482998)
(-0.001671829213 6.001982038e-16 -0.001848196549 -3.864848387e-16 0.0001694347399 0 -5.171449456e-05 1.000742633e-15 0.01135513444)
(-0.001732882657 6.124125287e-17 -0.001625990138 -3.912673952e-16 0.0001422279248 0 -4.329926002e-05 9.021051925e-16 0.01136085672)
(-0.001792779349 -4.828905332e-16 -0.001381837652 -3.778979056e-16 0.0001154382668 0 -3.49433558e-05 8.316281707e-16 0.01136559179)
(-0.001851632889 -3.315728967e-16 -0.001115341559 -3.66810627e-16 8.90559382e-05 0 -2.678218425e-05 7.901033564e-16 0.01136925399)
(-0.00190558609 -6.74784157e-17 -0.0008259654944 -3.585174193e-16 6.308679553e-05 -8.221062839e-15 -1.877405374e-05 9.091095258e-16 0.01137202578)
(-0.00194259322 6.003746685e-16 -0.0005132742831 -3.554419843e-16 3.761931629e-05 0 -1.101906289e-05 9.049708799e-16 0.01137381581)
(-0.002035368733 5.41580833e-16 -0.0001751145291 -3.645835509e-16 1.294899415e-05 0 -3.528960009e-06 9.150587018e-16 0.01137484619)
(0.0009609653642 3.206387331e-15 -9.369289837e-05 -8.054126474e-15 0.001576487133 0 -1.193319873e-05 1.872949067e-15 0.01042528217)
(0.001270985183 3.344952109e-15 -0.0002162353779 -5.53003555e-15 0.001376287493 -1.505676817e-13 -3.084088135e-05 5.075987223e-15 0.01042814178)
(0.001238186469 1.884415164e-15 -0.0003492532069 -4.363543549e-15 0.001311210346 0 -4.809864426e-05 1.487854693e-15 0.0104342913)
(0.001242243398 -2.562686436e-16 -0.0004824445721 -3.51853568e-15 0.001293978405 0 -6.55304943e-05 4.458474165e-16 0.01044346261)
(0.001214756284 -1.562044136e-15 -0.0006147961802 -2.416057447e-15 0.001280301479 0 -8.266550863e-05 1.879463475e-16 0.01045541758)
(0.001177855457 -1.194797792e-15 -0.0007462892353 -1.732960537e-15 0.001265686586 0 -9.924998329e-05 5.955607665e-17 0.01047015358)
(0.001134493506 -4.659287109e-16 -0.0008764726323 -1.346945523e-15 0.001249820002 0 -0.0001147156242 -2.045349858e-17 0.01048725838)
(0.001083556511 -8.942120288e-16 -0.001004636911 -1.167701246e-15 0.001232302933 0 -0.0001283569475 2.583364152e-15 0.01050602625)
(0.001027394016 7.530920379e-16 -0.001131546188 -8.565363375e-16 0.001212927609 -3.226089966e-14 -0.0001408874548 2.976619707e-15 0.01052676014)
(0.0009678392677 2.156648918e-15 -0.001258058797 -1.061463146e-15 0.001192043796 0 -0.0001530203794 2.622762416e-15 0.01054962304)
(0.0009033670769 -1.338182067e-15 -0.001383084435 -1.091847098e-15 0.001169806207 0 -0.0001637362444 2.37706663e-15 0.01057397931)
(0.0008349371779 -3.50456212e-15 -0.001506576073 -6.95929583e-16 0.001146145191 -2.591388702e-14 -0.0001731776832 2.343821934e-15 0.01059963321)
(0.0007635450089 -6.531554741e-16 -0.001628858995 -4.218641519e-16 0.001121307474 0 -0.0001817640842 7.363993937e-16 0.010626695)
(0.0006879909575 1.200460517e-15 -0.001748794971 -5.097934801e-16 0.001095349373 0 -0.0001886366465 2.643185143e-16 0.0106543804)
(0.0006097353063 7.272615633e-16 -0.001866683889 -5.206430612e-16 0.00106827928 0 -0.0001944065627 -7.57983399e-16 0.01068296755)
(0.0005294790661 5.628118453e-16 -0.001982244967 -5.347625151e-16 0.001040301961 1.073719246e-14 -0.000199072342 -1.580013592e-15 0.01071227277)
(0.0004471586863 4.88023847e-16 -0.002095085881 -5.265232918e-16 0.001011472756 0 -0.0002026595034 -1.402782557e-15 0.01074201021)
(0.0003632234777 5.430772861e-16 -0.002204891164 -5.323821098e-16 0.0009819216553 1.004901899e-14 -0.0002052785039 -1.351278951e-15 0.01077226369)
(0.0002778586073 -2.538495727e-16 -0.002311086386 -5.271979011e-16 0.0009517156748 0 -0.0002068551284 -3.565270186e-16 0.01080258466)
(0.0001916036709 -7.011051177e-16 -0.002413225854 -4.652513216e-16 0.0009209580583 0 -0.0002074846091 -1.323375792e-15 0.01083319585)
(0.0001046486909 -1.027540654e-16 -0.002510767464 -4.275855575e-16 0.000889731453 0 -0.0002071989169 -1.230998823e-15 0.01086358926)
(1.752499282e-05 -5.002321297e-16 -0.002603160025 -4.190375162e-16 0.0008581190619 9.129668438e-15 -0.000206081852 -1.319087776e-15 0.01089401857)
(-6.99810011e-05 -9.437486379e-16 -0.002689817695 -3.611911285e-16 0.0008262133494 0 -0.0002041874039 -6.475186792e-16 0.01092400296)
(-0.0001578486876 -6.845973212e-16 -0.002769807297 -3.231088157e-16 0.0007940544507 0 -0.0002013247346 -4.300405865e-16 0.01095365929)
(-0.0002456448964 4.473083844e-17 -0.002842635843 -2.909090845e-16 0.0007617115218 0 -0.0001977022228 -3.093089312e-16 0.01098267737)
(-0.000332684427 8.424654893e-16 -0.002907572621 -3.040154277e-16 0.0007292365733 -1.717582334e-14 -0.000193376751 8.909705726e-17 0.0110111528)
(-0.0004189680215 1.931544641e-16 -0.002964015347 -3.275907486e-16 0.0006967192638 8.492479153e-15 -0.0001884759292 -1.875486104e-16 0.01103889441)
(-0.000504573276 -5.04247232e-16 -0.003011291117 -2.99764911e-16 0.0006641925679 0 -0.0001831546682 -3.961652939e-16 0.01106579597)
(-0.0005895447549 -5.763812388e-16 -0.003048443529 -2.829817324e-16 0.0006317205215 8.338799827e-15 -0.0001772250974 -7.378602768e-16 0.01109189791)
(-0.0006739038409 -6.939739129e-17 -0.003074841609 -2.556656659e-16 0.0005993217937 0 -0.0001709203412 -4.185942518e-16 0.01111690224)
(-0.0007573294493 4.392224436e-16 -0.003089405557 -2.621305405e-16 0.0005670452042 0 -0.0001639732266 1.445833312e-16 0.01114103591)
(-0.0008397879026 1.648287807e-16 -0.00309168362 -2.637916223e-16 0.0005349168425 0 -0.0001567781061 5.098205056e-16 0.0111639246)
(-0.0009201860805 -2.745225225e-16 -0.003080657493 -2.577284275e-16 0.0005029755934 0 -0.0001491471112 1.000895434e-15 0.01118590349)
(-0.0009989990714 -8.05981115e-16 -0.003055839262 -2.380555374e-16 0.0004712864773 -8.125629012e-15 -0.0001413775385 1.678458002e-15 0.01120661942)
(-0.001076581952 -2.787725715e-16 -0.003016066838 -2.127574577e-16 0.0004398561167 -8.106553925e-15 -0.0001331651856 1.941793532e-15 0.01122620756)
(-0.001152837874 1.441402723e-16 -0.002960737516 -2.183587387e-16 0.0004087228889 -8.09409406e-15 -0.0001246838898 2.010702454e-15 0.01124452405)
(-0.001227572448 5.097410048e-16 -0.002889197236 -2.083172034e-16 0.0003778925975 -8.087841374e-15 -0.0001161059619 1.814406947e-15 0.01126157994)
(-0.001300647492 8.477992534e-16 -0.002800595829 -2.2903868e-16 0.0003474032863 0 -0.0001073152782 1.578377528e-15 0.01127741477)
(-0.001372066215 5.389657157e-16 -0.002694376667 -2.331350886e-16 0.0003172613011 -8.092553584e-15 -9.853332575e-05 1.730633796e-15 0.01129188257)
(-0.00144177039 6.860413436e-16 -0.002569646875 -2.398628422e-16 0.0002874972029 -8.102913004e-15 -8.956518711e-05 1.872821614e-15 0.01130517646)
(-0.001510208917 1.318798287e-15 -0.002425917908 -2.482451121e-16 0.0002581153409 -8.118259315e-15 -8.063881448e-05 1.706240225e-15 0.01131703414)
(-0.001576810799 1.698051684e-15 -0.002262359885 -2.751864656e-16 0.0002291260038 0 -7.159482335e-05 1.31150053e-15 0.01132774021)
(-0.001641624305 1.386783547e-15 -0.002078567295 -2.954515813e-16 0.000200549039 0 -6.265672673e-05 1.051830682e-15 0.01133705514)
(-0.001704516032 1.066871155e-15 -0.001873854891 -3.090029875e-16 0.0001723895313 0 -5.375683299e-05 9.143634593e-16 0.01134520898)
(-0.00176565809 6.560702411e-16 -0.001647791358 -3.177882592e-16 0.0001446669964 0 -4.50165255e-05 8.654573882e-16 0.01135203874)
(-0.001825631761 3.266606804e-16 -0.001399751355 -3.192309103e-16 0.0001173787496 0 -3.636177152e-05 7.364887291e-16 0.01135770327)
(-0.001884285989 -2.315938094e-16 -0.001129360412 -3.175316672e-16 9.052497005e-05 -8.303972602e-15 -2.790472704e-05 6.859324791e-16 0.01136212377)
(-0.001937830079 -2.499175916e-16 -0.0008361452933 -3.044789942e-16 6.410640894e-05 0 -1.966296245e-05 5.856494366e-16 0.01136542014)
(-0.001974469337 1.641913693e-16 -0.0005197198751 -3.033133556e-16 3.821869837e-05 8.39794849e-15 -1.17422438e-05 5.486455512e-16 0.01136756644)
(-0.002067417861 6.657706964e-17 -0.000177530877 -3.010509708e-16 1.314621671e-05 -4.225222491e-15 -3.951947519e-06 8.329560282e-16 0.01136866175)
(0.0009846820776 2.439544746e-15 -9.732459221e-05 -6.165393389e-15 0.00161561151 0 -1.211532838e-05 1.18010247e-15 0.01029709168)
(0.001302215321 3.885402976e-15 -0.0002249070784 -4.22086843e-15 0.001410326903 0 -3.145705043e-05 3.051117768e-15 0.0103004561)
(0.001268759863 5.399766267e-15 -0.0003639342696 -4.19841438e-15 0.001343525214 0 -4.96743321e-05 3.115951945e-15 0.01030772726)
(0.00127388075 -3.638988195e-16 -0.0005032825956 -4.792618028e-15 0.00132593752 0 -6.827326144e-05 2.980818144e-15 0.0103186318)
(0.001246459829 -4.230986721e-15 -0.0006411547838 -2.484101802e-15 0.001312266885 0 -8.60413161e-05 1.91621126e-15 0.0103326905)
(0.00120711527 -2.187230667e-15 -0.0007772220372 -1.572296944e-15 0.00129754212 0 -0.0001024782741 1.064326505e-15 0.01034921711)
(0.001160204323 -1.810549127e-15 -0.0009111085104 -1.098295704e-15 0.001281010673 0 -0.0001171699097 2.052942356e-16 0.01036808229)
(0.001108302188 -1.776423295e-15 -0.00104397374 -7.163813056e-16 0.001262613472 0 -0.0001311349968 1.325031662e-15 0.01038952021)
(0.001052223683 -5.77460464e-16 -0.001176373244 -4.53935144e-16 0.001242676882 -3.276331894e-14 -0.0001447647829 1.370276299e-15 0.01041362702)
(0.0009902491991 1.537953694e-16 -0.00130695379 -4.488575613e-16 0.0012212749 -3.013968149e-14 -0.0001567721878 1.73764764e-15 0.01043954079)
(0.0009234717633 -3.078136696e-17 -0.00143575466 -4.072632196e-16 0.001198273628 2.803613693e-14 -0.0001673487976 1.200797652e-15 0.01046705967)
(0.0008533810012 1.8125637e-15 -0.001563288443 -3.758719302e-16 0.001173923069 0 -0.0001770516938 -5.919253086e-16 0.01049632782)
(0.0007786932834 2.457187588e-15 -0.001688290339 -6.046694142e-16 0.001148325711 2.48917178e-14 -0.0001848414185 -2.417746274e-15 0.01052660197)
(0.0007008419689 8.905057511e-16 -0.001811242746 -6.536738328e-16 0.001121455938 0 -0.0001914765895 -2.106920181e-15 0.01055795881)
(0.0006208376536 1.288409709e-15 -0.001932310152 -6.394846326e-16 0.00109356184 0 -0.0001973198257 -1.732948128e-15 0.01059048724)
(0.000538389982 9.276889659e-16 -0.002050506491 -7.267831533e-16 0.001064709567 0 -0.0002017733397 -1.52452554e-15 0.01062355975)
(0.0004540513039 -1.747556018e-16 -0.002165814228 -6.735455315e-16 0.001035028978 0 -0.0002052148632 -1.010099206e-15 0.01065744442)
(0.0003678744089 -1.290439805e-15 -0.00227751997 -6.378449178e-16 0.001004606175 0 -0.0002074027796 -1.082394462e-15 0.01069142943)
(0.0002803350043 -6.268708708e-16 -0.002385428162 -4.942230328e-16 0.0009735294287 -9.923223247e-15 -0.0002086402681 -3.25827509e-16 0.01072583547)
(0.0001918296482 2.1278975e-16 -0.002488918317 -5.221091551e-16 0.0009418932508 0 -0.0002088619255 -2.886446224e-16 0.01076004306)
(0.0001028143829 -5.588819701e-16 -0.002587561941 -4.735114166e-16 0.0009097851469 0 -0.0002082195985 -5.475513465e-17 0.01079436774)
(1.359649638e-05 -1.029887779e-15 -0.002680786414 -4.368816278e-16 0.0008773015059 -9.271850505e-15 -0.0002067751749 8.722290592e-17 0.01082826573)
(-7.617776423e-05 -7.850617533e-16 -0.002767748904 -3.645930566e-16 0.0008445208854 0 -0.0002043541377 -2.611074984e-16 0.01086196151)
(-0.0001663922545 8.945681994e-17 -0.0028479435 -3.543920558e-16 0.0008114853138 0 -0.000201175403 -3.060995284e-16 0.01089488118)
(-0.0002561998797 -5.741453059e-16 -0.002920684123 -3.450389426e-16 0.0007782594541 0 -0.0001972719045 -2.749882238e-16 0.01092743254)
(-0.0003452550913 -4.16550564e-16 -0.002985502942 -2.981034977e-16 0.000744922565 0 -0.0001929127401 3.68696248e-17 0.0109591057)
(-0.0004332543521 6.017035656e-16 -0.003041367368 -2.968964941e-16 0.0007115383103 -8.62473787e-15 -0.0001878463449 1.479994289e-16 0.01099023524)
(-0.0005206768737 7.87984759e-16 -0.003087770888 -3.148591377e-16 0.0006781802596 0 -0.0001823336499 -1.755510758e-16 0.01102032352)
(-0.0006074233085 9.110524919e-17 -0.003123627098 -3.256383713e-16 0.0006448668525 -8.468665199e-15 -0.000176142355 -4.134293393e-16 0.01104955533)