/*--------------------------------*- C++ -*----------------------------------*\
  =========                 |
  \\      /  F ield         | OpenFOAM: The Open Source CFD Toolbox
   \\    /   O peration     | Website:  https://openfoam.org
    \\  /    A nd           | Version:  7
     \\/     M anipulation  |
\*---------------------------------------------------------------------------*/
FoamFile
{
    version     2.0;
    format      ascii;
    class       volTensorField;
    location    "0.0024";
    object      grad(U);
}
// * * * * * * * * * * * * * * * * * * * * * * * * * * * * * * * * * * * * * //

dimensions      [0 0 -1 0 0 0 0];

internalField   nonuniform List<tensor> 
1166
(
(-0.001542758359 2.634052171e-16 0.0001116016019 -3.059243659e-15 -0.002496085488 0 8.672902404e-06 -9.076068095e-17 0.01733567808)
(-0.0020755572 -1.539411966e-18 0.0002557077608 -1.261086282e-15 -0.002197857946 0 2.320993175e-05 -2.532612764e-16 0.01734858905)
(-0.002086731664 -2.688516143e-15 0.0004106400897 -6.602649008e-16 -0.00212084022 0 4.148117639e-05 -4.175122954e-16 0.01737853899)
(-0.002189629918 -2.433089752e-15 0.0005669594983 7.919409392e-16 -0.002125107249 0 7.238648592e-05 -5.720512459e-16 0.0174281241)
(-0.002274672721 -8.517735562e-16 0.0007234509507 7.625547211e-16 -0.002146428839 0 0.0001196532404 -4.148290306e-16 0.01750215149)
(-0.00237537065 -1.192305414e-15 0.0008474915758 8.118450639e-16 -0.002174941345 0 0.0001477915117 -5.299435835e-16 0.01760689257)
(-0.002543653988 -1.492660065e-15 0.0008794258868 8.892034116e-16 -0.002211579947 0 9.236132404e-05 -6.344317414e-16 0.01774928913)
(-0.00278573817 5.458819537e-17 0.0007828757338 9.83432654e-16 -0.00226567291 0 -7.944335408e-05 -5.586852065e-16 0.01793791598)
(-0.002687253386 1.281665016e-15 0.0005457850433 6.933500502e-16 -0.002336199142 0 -0.0003713832064 -3.403516615e-16 0.0181852211)
(-0.001666250674 1.433715244e-15 0.0001579713861 5.346496209e-16 -0.002349491962 0 -0.0007893970012 -1.233826595e-16 0.01850429404)
(0.000147641003 1.620589649e-15 -0.0004053324397 3.271938932e-16 -0.002223671639 0 -0.001352947958 -9.261141348e-17 0.0188813801)
(0.002204612075 1.845296626e-15 -0.001171328834 1.883768633e-16 -0.001958758261 0 -0.002068889881 -2.776182489e-17 0.01927809025)
(0.004315933298 2.151721515e-15 -0.002006736334 1.161988625e-17 -0.001588071256 0 -0.002784983403 1.759924919e-16 0.01964767624)
(0.006339952066 2.517001505e-15 -0.002643165814 -1.198261812e-16 -0.00113100358 0 -0.003292111148 2.217514811e-16 0.01994251138)
(0.007428602156 2.885261222e-15 -0.002877438851 -2.928949758e-16 -0.0006220644074 0 -0.003530646388 2.257339062e-16 0.02012106256)
(0.007069074772 2.204712518e-15 -0.00264060641 -4.348022475e-16 -0.000161825528 0 -0.003515963152 2.558782809e-16 0.02016236084)
(0.006063389279 1.604759733e-15 -0.002023961155 -4.972903877e-16 0.0001898591249 0 -0.003269873549 3.005240647e-16 0.02009587603)
(0.005112558403 1.075591649e-15 -0.001268788084 -5.502550975e-16 0.0004518855255 0 -0.002911618515 3.570036423e-16 0.01996626759)
(0.004242362439 1.583905027e-16 -0.0005666777121 -5.497035142e-16 0.0006444544475 0 -0.002569326976 3.56877045e-16 0.01981750875)
(0.00341642688 -2.249341355e-16 4.894414598e-05 -5.149687107e-16 0.0007808014825 0 -0.002265875484 3.613370897e-16 0.01967916366)
(0.00263769713 -1.559423127e-16 0.000593432104 -4.8729313e-16 0.0008711195712 0 -0.001996327775 3.738930351e-16 0.01955884799)
(0.001926533515 -9.995859243e-17 0.001075896391 -4.674521744e-16 0.0009242752107 0 -0.001762107453 3.455585393e-16 0.01945900651)
(0.001330992122 -2.142839016e-17 0.001461324695 -4.420840446e-16 0.0009484101924 -1.160754004e-14 -0.001567033076 3.269603219e-16 0.01938802775)
(0.0008787295924 4.738424359e-17 0.001671113005 -4.29442855e-16 0.0009526408031 0 -0.00140668486 2.631927441e-16 0.01935588616)
(0.0005045565281 7.560633872e-17 0.001659145165 -4.20586433e-16 0.0009440215402 0 -0.001275950375 2.068300832e-16 0.01937080079)
(0.0001799803367 9.276530865e-17 0.001430696015 -4.098563615e-16 0.0009248593628 0 -0.001171516309 1.56151252e-16 0.01943101585)
(-2.826754505e-05 1.0122586e-16 0.001041146696 -3.999336272e-16 0.000898746795 0 -0.001090070585 1.081679061e-16 0.01952266444)
(-0.0001225868435 1.085964504e-16 0.000594769669 -3.933840678e-16 0.0008708749124 0 -0.001030658024 5.901878517e-17 0.01963035173)
(-0.0001691324494 1.177348119e-16 0.0001616190287 -3.821542687e-16 0.0008434561591 0 -0.0009858407902 5.325832401e-18 0.0197408608)
(-0.0002069170123 1.242420628e-16 -0.0002448531779 -3.767658122e-16 0.0008170249871 0 -0.0009452006634 -1.378006078e-17 0.01984810479)
(-0.0002635886985 1.235096941e-16 -0.0006235108433 -3.705519369e-16 0.000791391266 0 -0.0009028140978 -3.742153918e-17 0.01995113013)
(-0.0003641089193 1.152272643e-16 -0.0009708003749 -3.660754623e-16 0.0007657065078 0 -0.0008551145498 -6.48241872e-17 0.02004957118)
(-0.0005185675164 9.932117523e-17 -0.001282667432 -3.607012965e-16 0.0007387720902 0 -0.0008009739909 -8.000864938e-17 0.02014301099)
(-0.0007168148613 7.593823607e-17 -0.00155715292 -3.518396025e-16 0.0007095706692 0 -0.0007420386088 -9.689844729e-17 0.02023129516)
(-0.001746151003 6.983452468e-16 1.117762515e-05 -3.721193381e-15 -0.002833541657 0 -1.176634256e-05 -1.325468074e-16 0.01775903188)
(-0.002359546438 5.508192911e-16 1.428885251e-05 -1.860677311e-15 -0.002490423048 0 -4.000880105e-05 -3.738340671e-16 0.01780996046)
(-0.002433730695 1.713839935e-16 -1.407902275e-05 -1.236787805e-15 -0.002408889305 0 -0.000100778114 -6.33139e-16 0.01791455376)
(-0.002664398454 5.71703282e-18 -9.674869313e-05 -9.136993911e-16 -0.002443194752 4.482051145e-14 -0.0002130117741 -1.327919587e-15 0.01807551985)
(-0.002680475747 -6.611679431e-17 -0.0002526091118 -7.08800748e-16 -0.002511987155 0 -0.0003936514638 -1.31562385e-15 0.01829938582)
(-0.00213439899 -4.147315921e-17 -0.0004983948526 -5.741972911e-16 -0.002527121509 0 -0.0006570811795 -1.42523149e-15 0.01859367678)
(-0.001043567766 -3.565697502e-17 -0.000853438337 -4.867511707e-16 -0.002408088151 0 -0.001019649994 -1.616256194e-15 0.01894865976)
(0.0002751617622 1.19827496e-18 -0.001351870464 -4.109135638e-16 -0.002160139933 2.337641607e-14 -0.001508050611 -1.874244758e-15 0.01933706147)
(0.001683108474 3.402323614e-17 -0.002024411494 -3.831393582e-16 -0.001821751797 0 -0.002137597767 -1.703358921e-15 0.0197283895)
(0.00324300131 -8.358880263e-17 -0.002768824775 -3.405507636e-16 -0.001413165909 1.950903396e-14 -0.002794454681 -1.644244455e-15 0.02008810342)
(0.004969064782 -2.371781075e-16 -0.003364770806 -2.968452701e-16 -0.0009382922606 0 -0.003295224085 -1.420619405e-15 0.02037881038)
(0.006310259491 -4.647213338e-16 -0.003642338338 -2.495355262e-16 -0.0004052373159 1.703495859e-14 -0.003572438073 -1.285539679e-15 0.02056330831)
(0.006541411704 4.148289681e-16 -0.003520635799 -1.87092639e-16 0.0001078354729 0 -0.003637970057 -1.011116732e-15 0.02061185718)
(0.005900430688 1.178903364e-15 -0.003012955737 -2.686591697e-16 0.0005169530345 1.533697504e-14 -0.003495889198 -7.835918904e-16 0.02053447018)
(0.005083360646 8.18451344e-16 -0.002242956555 -3.099997487e-16 0.0008176758416 0 -0.003171188483 -4.204358621e-16 0.02036858922)
(0.004325194472 5.947849459e-16 -0.001426647886 -3.291339473e-16 0.001035389476 0 -0.002788654011 -9.728213979e-17 0.02016026207)
(0.00359945587 4.361009913e-16 -0.000702982839 -3.394633881e-16 0.001188195099 0 -0.00244721244 1.209722713e-16 0.01995103953)
(0.002892609432 3.271842662e-16 -7.408424323e-05 -3.419070857e-16 0.00128841258 -1.321180588e-14 -0.002146839543 3.212053525e-16 0.01976637342)
(0.002215569088 2.680815737e-16 0.0004808521402 -3.324495742e-16 0.001345902989 -1.284635336e-14 -0.001880067105 3.757040256e-16 0.01960825079)
(0.00158575561 2.078257369e-16 0.0009732064877 -3.364254344e-16 0.00136920391 0 -0.001647901807 3.061865987e-16 0.01947666563)
(0.001041714893 1.276568595e-16 0.001375207232 -3.289246191e-16 0.001365883305 0 -0.001454459784 2.450656016e-16 0.01937866815)
(0.0006213434622 5.045859981e-17 0.001611412323 -3.164880598e-16 0.001344285266 0 -0.001295887633 1.905532166e-16 0.01932363971)
(0.0002777796204 3.602987682e-16 0.001628014988 -3.050686025e-16 0.001311827398 0 -0.001166492467 1.411517627e-16 0.01932005764)
(-3.339129379e-05 6.715036358e-16 0.001422041547 -3.200180752e-16 0.00127080355 0 -0.001063337928 1.007208745e-16 0.01936832487)
(-0.00025190172 6.176619455e-16 0.001034157273 -3.350090038e-16 0.001223752319 0 -0.000982952199 6.376923384e-17 0.01945495706)
(-0.0003557120816 5.7618929e-16 0.0005636810934 -3.418124073e-16 0.001175877061 0 -0.0009253298442 3.010691258e-17 0.01956294804)
(-0.0004013148105 5.524033681e-16 9.608085354e-05 -3.489177217e-16 0.001129906639 0 -0.0008855160453 -8.917071559e-19 0.01967695866)
(-0.0004303561887 5.523769043e-16 -0.0003458188508 -3.482219687e-16 0.001086471535 0 -0.0008526916354 -2.946093728e-17 0.01978829483)
(-0.0004689352127 5.792703681e-16 -0.00076105323 -3.559866885e-16 0.00104542712 0 -0.0008198790966 -5.551345551e-17 0.01989526187)
(-0.000542554442 6.177442299e-16 -0.001147059714 -3.640331786e-16 0.001005948027 0 -0.00078270281 -7.862488184e-17 0.01999757691)
(-0.000666603009 6.485636096e-16 -0.001499452609 -3.697206125e-16 0.0009667449537 0 -0.0007388410969 -1.002011444e-16 0.02009482209)
(-0.0008381944974 5.301131255e-16 -0.001815239967 -3.783450676e-16 0.0009265498007 0 -0.0006888979871 -1.213185554e-16 0.02018673615)
(-0.001039597544 4.007454183e-16 -0.00209394618 -3.767849649e-16 0.0008845647426 0 -0.000635837882 -1.437557561e-16 0.02027339474)
(-0.001250049095 3.993808161e-16 -0.002336408165 -3.781843572e-16 0.0008405985509 0 -0.000583064117 -1.669002558e-16 0.02035507422)
(-0.001456432199 3.958361338e-16 -0.002542961916 -3.798986066e-16 0.0007948840158 0 -0.000532776078 -1.912784041e-16 0.02043200787)
(-0.001655521508 3.960979731e-16 -0.002712596882 -3.767166523e-16 0.0007477762363 -5.320797958e-15 -0.0004856216496 -2.170827183e-16 0.0205042562)
(-0.001849300517 2.006352711e-16 -0.0028433097 -3.803196971e-16 0.0006995699393 5.316687643e-15 -0.0004412890907 -2.738137666e-16 0.0205717355)
(-0.002040588481 7.491122314e-18 -0.002932845808 -3.738108061e-16 0.0006504690572 5.316420353e-15 -0.0003992096776 -3.072514153e-16 0.02063430893)
(-0.002231884933 1.297672256e-16 -0.002979070372 -3.649559739e-16 0.0006006078026 0 -0.0003588513981 -3.166045102e-16 0.02069185583)
(-0.002425219547 2.457320391e-16 -0.002980085869 -3.641227221e-16 0.0005500649147 0 -0.0003198290565 -3.267868374e-16 0.02074429465)
(-0.002621108905 3.816940752e-16 -0.002934324135 -3.622065409e-16 0.0004988837164 0 -0.0002819980468 -3.387160136e-16 0.02079159523)
(-0.002817779366 5.280163701e-16 -0.002840620052 -3.644097779e-16 0.000447114387 0 -0.000245474155 -3.513456119e-16 0.02083378259)
(-0.003012020219 5.421290982e-16 -0.002698170515 -3.674794041e-16 0.0003948481844 5.366116361e-15 -0.0002105238692 -3.653896693e-16 0.02087092781)
(-0.003201041408 5.702157105e-16 -0.002506350323 -3.694443555e-16 0.0003422203474 0 -0.0001773600376 -3.583240726e-16 0.02090312515)
(-0.003383880301 3.761198129e-16 -0.002264534233 -3.729246603e-16 0.0002893824815 0 -0.0001460245313 -3.515886779e-16 0.0209304704)
(-0.003561536271 2.901997967e-16 -0.001972025187 -3.693132918e-16 0.0002364686368 -5.431623853e-15 -0.0001164133655 -3.455033671e-16 0.02095305204)
(-0.003734388957 5.276072682e-16 -0.00162803165 -3.708255537e-16 0.0001835739378 5.458765384e-15 -8.836085268e-05 -3.599502391e-16 0.02097095123)
(-0.003892001791 5.187872286e-16 -0.001231577923 -3.738454872e-16 0.0001307982047 0 -6.169784309e-05 -3.532060917e-16 0.02098424003)
(-0.004006161335 3.06224744e-16 -0.0007815848201 -3.74179811e-16 7.848303525e-05 0 -3.627781018e-05 -3.495593962e-16 0.02099297848)
(-0.004261898791 1.049165778e-16 -0.0002709467775 -3.722806818e-16 2.738852806e-05 0 -1.192381786e-05 -3.478872752e-16 0.02099721516)
(-0.001331967511 2.097971907e-15 -0.00027541638 -5.709113449e-15 -0.002266842497 0 -0.000197618063 1.128489304e-16 0.02055503896)
(-0.001583126743 2.637932749e-15 -0.0006125573051 -3.773174362e-15 -0.001934998403 0 -0.0005252319267 3.257925168e-16 0.02061353111)
(-0.001156935888 2.618709808e-15 -0.00101505905 -3.238487977e-15 -0.00171768959 0 -0.0008757804819 5.679727672e-16 0.02072340379)
(-0.0006132983507 8.389008222e-16 -0.001509329664 -3.103283522e-15 -0.001509093453 0 -0.001309763136 3.553448719e-16 0.02087296224)
(0.0001436328042 -2.622852128e-16 -0.002108699447 -2.270604354e-15 -0.001251448767 0 -0.001841557853 2.6972054e-16 0.02104625971)
(0.001094676107 5.036270561e-16 -0.002752252462 -1.902679929e-15 -0.0009391514875 0 -0.002410427852 -2.914746296e-17 0.02122211592)
(0.002269598711 1.058486758e-15 -0.003306433806 -1.741543415e-15 -0.000569933185 0 -0.002896944469 -2.190147453e-16 0.021375743)
(0.003658858892 4.272575418e-16 -0.003683632657 -1.686277701e-15 -0.0001366782939 0 -0.003244631171 -3.40755184e-16 0.02147950812)
(0.004839332724 -3.891010921e-17 -0.003835286963 -1.461120173e-15 0.0003566647033 0 -0.003454521571 -2.094763172e-16 0.02150247621)
(0.005203783389 -2.969162821e-16 -0.003708064484 -1.344720502e-15 0.0008340022577 0 -0.0035237605 -2.325604286e-16 0.02141570425)
(0.004849613951 -5.432210683e-16 -0.003283259265 -1.154128362e-15 0.00120786659 0 -0.003436245456 -3.955768342e-16 0.02122194773)
(0.004323197017 -7.276593267e-16 -0.002607236408 -1.043252661e-15 0.001472843203 0 -0.003180712975 -5.357125847e-16 0.02095077353)
(0.003831612922 -9.969949636e-16 -0.001824076596 -8.868627517e-16 0.00165941515 1.636301726e-14 -0.002828708942 -6.936200394e-16 0.02063968626)
(0.003331253244 -1.285291403e-15 -0.001084733951 -7.71946521e-16 0.001786415359 0 -0.002485375478 -5.052998948e-16 0.02032683782)
(0.002801965221 -1.584274768e-15 -0.0004356736142 -6.223758872e-16 0.001864515494 0 -0.002182174458 -3.702330922e-16 0.02004249752)
(0.002257788477 -1.373762752e-15 0.0001338702983 -5.040147106e-16 0.001902057431 0 -0.001912295838 -2.61041387e-16 0.01980145089)
(0.00171836026 -1.223940622e-15 0.0006404520376 -4.123481154e-16 0.001906479906 0 -0.001671573667 -1.649433057e-16 0.01959878852)
(0.001199797731 -6.557493879e-16 0.001093308079 -3.341287311e-16 0.001884424647 0 -0.001461518094 -7.433788951e-17 0.01943188638)
(0.0007352928138 2.858930443e-16 0.001467038117 -3.121457348e-16 0.001841717773 0 -0.001286032623 -5.183297935e-17 0.01930575798)
(0.0003686495784 7.09239581e-16 0.001690221949 -3.292406236e-16 0.001785191402 0 -0.001142122096 -8.066859938e-17 0.01922798228)
(6.88405784e-05 6.850873247e-16 0.001707155309 -3.461943376e-16 0.001721730615 0 -0.001024563326 -1.612049291e-16 0.01920605336)
(-0.0002142272707 6.686071933e-16 0.001508467883 -3.571299181e-16 0.001653176621 0 -0.0009313668167 -2.364769243e-16 0.01924149832)
(-0.0004297565035 6.586350129e-16 0.001119481126 -3.711989866e-16 0.001580836013 0 -0.0008591528365 -3.077377224e-16 0.01932172265)
(-0.0005379024309 6.494027689e-16 0.0006274085396 -3.767721337e-16 0.001509391556 0 -0.0008081691919 -3.251518692e-16 0.01942870196)
(-0.0005807690374 6.347513194e-16 0.0001265596105 -3.884250355e-16 0.001441890787 0 -0.000776007521 -3.405420785e-16 0.01954546043)
(-0.0006003438477 6.141607875e-16 -0.0003496684953 -3.947268456e-16 0.001378997403 0 -0.0007526995425 -3.544185669e-16 0.01966066071)
(-0.0006214287755 5.90601379e-16 -0.0007995010338 -3.9864559e-16 0.00132052299 0 -0.0007306048107 -3.67314966e-16 0.01977138492)
(-0.0006691300005 5.661169277e-16 -0.00122184363 -4.057323022e-16 0.001265602279 0 -0.0007049675409 -3.784742376e-16 0.019877353)
(-0.0007630845803 5.380593499e-16 -0.00161278795 -4.131779335e-16 0.001212819365 1.1134058e-14 -0.0006727045991 -3.4650089e-16 0.01997818246)
(-0.0009076244355 5.147131122e-16 -0.001968764609 -4.101808702e-16 0.001160613167 0 -0.0006334003211 -3.054914653e-16 0.02007351165)
(-0.001089877522 5.044392346e-16 -0.002288411692 -4.157083424e-16 0.00110778346 0 -0.0005892846484 -2.549426226e-16 0.02016332289)
(-0.001288376265 5.094421919e-16 -0.002572190349 -4.162570446e-16 0.001053788345 -5.464707867e-15 -0.0005437570167 -2.136793004e-16 0.02024790491)
(-0.0014860185 5.174050411e-16 -0.002820776124 -4.171979238e-16 0.0009986738851 0 -0.0004995862471 -2.349781627e-16 0.02032759819)
(-0.001676632302 5.201709911e-16 -0.00303376304 -4.211570712e-16 0.0009427387655 0 -0.0004580534194 -2.525306684e-16 0.02040258543)
(-0.001861452565 5.244517889e-16 -0.003209511357 -4.228109646e-16 0.000886256655 0 -0.000419198862 -2.673950291e-16 0.02047286749)
(-0.002043395227 6.895830467e-16 -0.00334581649 -4.234803528e-16 0.0008294054229 0 -0.0003825405139 -2.803732275e-16 0.02053834975)
(-0.002224950744 7.093568167e-16 -0.003440467632 -4.336990888e-16 0.0007722880224 0 -0.0003475453915 -2.91224105e-16 0.02059893242)
(-0.002408268465 4.268650339e-16 -0.003491435111 -4.349954532e-16 0.0007149544332 0 -0.0003137740464 -3.205314129e-16 0.02065455083)
(-0.002594722438 2.890959476e-16 -0.003496949387 -4.326327721e-16 0.0006574122916 0 -0.000280969615 -3.208931998e-16 0.0207051889)
(-0.00278372561 2.970148559e-16 -0.003455616848 -4.305452112e-16 0.0005996577666 0 -0.0002491448075 -3.078607601e-16 0.02075088965)
(-0.002972707367 3.05843454e-16 -0.003366474587 -4.260678632e-16 0.0005417191308 0 -0.0002185546661 -3.077765938e-16 0.02079175254)
(-0.00315859552 3.137190779e-16 -0.003228854415 -4.271231429e-16 0.0004836754552 0 -0.0001894994353 -2.934112077e-16 0.02082791634)
(-0.003339412425 1.828669886e-16 -0.003042172745 -4.244262482e-16 0.0004256418486 0 -0.0001621341627 -2.76555794e-16 0.02085953334)
(-0.003514664675 4.443140404e-17 -0.002805799558 -4.199279474e-16 0.0003677378355 0 -0.000136428574 -2.576090206e-16 0.02088675288)
(-0.003684758492 3.077528456e-17 -0.002519045602 -4.13589241e-16 0.0003100682772 0 -0.0001122495167 -2.347082035e-16 0.02090971645)
(-0.003850966513 1.307934463e-16 -0.002181184625 -4.073864046e-16 0.0002527171495 5.516213928e-15 -8.944648452e-05 -2.289062397e-16 0.02092855917)
(-0.004013708459 1.19397374e-16 -0.001791374351 -4.05361708e-16 0.0001957342266 -5.54377815e-15 -6.786603311e-05 -1.983108767e-16 0.020943407)
(-0.00416268011 -8.06888039e-18 -0.001348509362 -3.997396502e-16 0.0001391771885 0 -4.735652024e-05 -1.676266637e-16 0.02095437179)
(-0.004269838986 -1.343915979e-17 -0.0008513627856 -3.945504194e-16 8.334702973e-05 -5.606516974e-15 -2.781171625e-05 -1.348857874e-16 0.0209615458)
(-0.004520978022 -4.320650087e-18 -0.0002939021495 -3.895275384e-16 2.896507213e-05 -5.641563924e-15 -9.107633533e-06 -1.180751e-16 0.02096500914)
(0.0007042443974 -8.686078172e-16 -0.0004291547868 -1.536111957e-15 0.0010518678 0 -0.0003232728278 -2.600846075e-17 0.02264075063)
(0.001160622468 -1.785033319e-15 -0.0009103745944 2.47673932e-16 0.0009739675617 0 -0.0008371005657 -7.05385488e-17 0.02262645565)
(0.001659047743 3.697967104e-16 -0.001383999829 9.970508163e-16 0.001089236437 0 -0.001292497638 -9.328204164e-17 0.02258936426)
(0.002443766049 1.503282362e-15 -0.001810115906 7.335893826e-17 0.001330313033 0 -0.001715019256 -9.541500776e-17 0.02251755796)
(0.003210392026 2.056782783e-15 -0.002131357675 -1.17328987e-16 0.001655805722 0 -0.002070140162 -4.503527917e-16 0.02239280006)
(0.003581514367 2.564267731e-15 -0.002302356216 -6.377766912e-16 0.00198057439 0 -0.002337329316 -3.949692505e-16 0.02219428621)
(0.00355034787 1.672186768e-15 -0.002289745517 -8.521301724e-16 0.002221116349 0 -0.002497620797 -3.509858995e-16 0.02191968356)
(0.003412114471 -1.170242737e-16 -0.002074206075 -9.182594352e-16 0.00237783512 0 -0.002527216226 -3.00626835e-16 0.02158532096)
(0.003289587888 -5.439947068e-16 -0.001659879136 -6.568299987e-16 0.002484239079 0 -0.002408986857 -2.434450462e-16 0.02121028677)
(0.003131639669 1.028199982e-15 -0.001127590338 -6.189694041e-16 0.002556239794 0 -0.00219218039 -1.569146798e-16 0.02081754642)
(0.002900865413 1.547764452e-15 -0.0005939096619 -7.128575432e-16 0.002597898593 0 -0.001964897267 -1.840101914e-16 0.02043336942)
(0.002597039084 1.332836494e-15 -0.0001063621113 -7.592367492e-16 0.002611143916 0 -0.001758821767 -1.804362784e-16 0.02008227171)
(0.00223057887 1.365148038e-16 0.0003395444261 -8.033041998e-16 0.002598083516 0 -0.001565810904 -2.59749883e-16 0.01978076297)
(0.001822559051 -8.727849907e-16 0.0007496592582 -6.87420668e-16 0.00256103956 0 -0.001383562233 -1.999940232e-16 0.01952814359)
(0.00140037399 -7.713297866e-16 0.001127715066 -5.988017617e-16 0.002503608436 0 -0.001215860824 -3.233818428e-16 0.01931725585)
(0.0009814840446 -7.669837741e-16 0.001473765483 -5.260824844e-16 0.002429870195 0 -0.001067279303 -5.176953819e-16 0.01914604715)
(0.000592111958 -8.244799863e-16 0.00175820609 -4.599603423e-16 0.002343473964 0 -0.0009422368313 -6.877874712e-16 0.01901883341)
(0.0002723744055 -4.391944241e-16 0.001913550841 -3.925609209e-16 0.002249237237 0 -0.0008393775802 -8.431060217e-16 0.01894178842)
(3.442498091e-06 3.204881337e-16 0.001889296319 -3.622936807e-16 0.00215267302 0 -0.0007557815675 -9.16988653e-16 0.01892163992)
(-0.000259128737 9.899444364e-16 0.001673204259 -3.785299115e-16 0.002054869494 0 -0.0006909439407 -9.219217788e-16 0.01896052666)
(-0.0004725796997 1.247049072e-15 0.001274580612 -4.194357306e-16 0.0019560839 0 -0.0006421144328 -9.291305892e-16 0.01904711525)
(-0.0005902251443 1.12456275e-15 0.0007618627844 -4.533646499e-16 0.001860298984 0 -0.0006103069646 -9.396026147e-16 0.01916350669)
(-0.0006418995888 1.013255215e-15 0.0002295025729 -4.689986091e-16 0.001770566494 0 -0.0005955487716 -9.520735057e-16 0.01929206416)
(-0.0006653675607 9.184964843e-16 -0.0002800138089 -4.907136825e-16 0.001687469591 0 -0.0005896041014 -9.06963501e-16 0.01941949835)
(-0.0006818206389 8.42812967e-16 -0.0007629239919 -4.981316734e-16 0.001610786431 0 -0.0005847000764 -8.623775972e-16 0.01954152898)
(-0.0007147200335 7.864556782e-16 -0.0012194193 -5.117542562e-16 0.001539657498 0 -0.0005760020864 -8.19586712e-16 0.01965789058)
(-0.0007859850989 7.448295542e-16 -0.001646413505 -5.201248544e-16 0.001472604626 0 -0.0005600018159 -8.253813117e-16 0.01976839218)
(-0.0009056638193 3.769013962e-16 -0.002040126642 -5.206320303e-16 0.001407865659 0 -0.0005354510457 -7.894497958e-16 0.01987268751)
(-0.00106728371 -2.731493444e-17 -0.00239851966 -5.107127103e-16 0.001343904157 0 -0.0005038763495 -7.601850892e-16 0.01997069773)
(-0.001252911698 -1.580921243e-16 -0.002721719023 -4.933052371e-16 0.00127979535 0 -0.0004686562776 -7.316162319e-16 0.02006269767)
(-0.001444170618 -1.418561664e-16 -0.003010708849 -4.766575729e-16 0.001215274218 0 -0.0004331912454 -6.841514307e-16 0.02014911999)
(-0.001630805476 3.642737017e-16 -0.00326569415 -4.66097584e-16 0.001150484161 0 -0.0003995014051 -6.338351565e-16 0.02023030876)
(-0.001811137044 7.489196405e-16 -0.003485462552 -4.722717213e-16 0.001085661691 0 -0.0003680541369 -5.949160869e-16 0.02030641495)
(-0.001987368207 6.957950845e-16 -0.00366791869 -4.734466492e-16 0.001020977754 0 -0.0003384888466 -5.528333532e-16 0.02037744238)
(-0.002162123327 6.556565577e-16 -0.003810823404 -4.803863917e-16 0.0009565214874 0 -0.0003103076651 -5.238076451e-16 0.02044334588)
(-0.002337800283 6.253747219e-16 -0.003912079133 -4.823276304e-16 0.0008923223212 0 -0.0002830854491 -4.916541336e-16 0.02050409734)
(-0.002516458193 5.976875177e-16 -0.003969784625 -4.873100883e-16 0.0008283601609 0 -0.0002565197792 -4.547917645e-16 0.02055970753)
(-0.002698681216 3.004563495e-16 -0.003982332493 -4.872855894e-16 0.0007645855461 0 -0.0002305232344 -4.149785742e-16 0.02061024058)
(-0.002882783195 3.681129652e-18 -0.003948532289 -4.795567454e-16 0.0007009654796 0 -0.0002052784025 -4.036979847e-16 0.02065582077)
(-0.003065667285 1.150810491e-16 -0.003867588411 -4.734643406e-16 0.0006375198824 0 -0.0001811289049 -3.889297527e-16 0.02069662386)
(-0.003244680347 2.285678741e-16 -0.003738915713 -4.689858506e-16 0.0005743231208 0 -0.0001583590562 -3.822968931e-16 0.02073285109)
(-0.003418768781 1.945691222e-16 -0.003561950743 -4.634117926e-16 0.0005114721684 0 -0.000137064767 -3.721614032e-16 0.02076470473)
(-0.003588006368 1.509766423e-16 -0.003336079348 -4.607627242e-16 0.000449055839 0 -0.0001171855431 -3.713141324e-16 0.02079237856)
(-0.003752678364 1.026336317e-16 -0.003060641995 -4.529100972e-16 0.0003871478338 0 -9.85918799e-05 -3.803372589e-16 0.02081605894)
(-0.003913240459 5.28428413e-17 -0.002734936159 -4.486223335e-16 0.0003258099709 0 -8.114058102e-05 -3.875073488e-16 0.02083592478)
(-0.004071071037 -1.305363938e-16 -0.002358164891 -4.424526946e-16 0.0002650875529 0 -6.468542396e-05 -3.932629712e-16 0.02085214373)
(-0.004226727801 -1.894656722e-16 -0.001929337331 -4.32636384e-16 0.0002049922803 0 -4.909206715e-05 -3.879180578e-16 0.02086486629)
(-0.004369383476 -2.392059245e-16 -0.001447136873 -4.260041648e-16 0.0001455467071 0 -3.424856644e-05 -3.909954172e-16 0.02087422197)
(-0.004470651945 -2.927455688e-16 -0.0009101425777 -4.158122808e-16 8.703396349e-05 0 -2.009877198e-05 -3.93841064e-16 0.0208803141)
(-0.004717110472 -1.002183965e-16 -0.0003132200952 -4.080955292e-16 3.015409684e-05 0 -6.550357898e-06 -3.949126319e-16 0.02088322473)
(0.002473857415 2.379562981e-15 -0.000172868345 -6.147555473e-15 0.004028518111 0 -0.0002006205563 -3.262140506e-16 0.02115059088)
(0.003308728848 2.889715778e-15 -0.0003352882129 -4.170037813e-15 0.003533026008 0 -0.0005150564098 -9.326355296e-16 0.02108410374)
(0.003289481276 2.69576622e-15 -0.0004485931534 -3.543049275e-15 0.003393400449 6.393096841e-14 -0.000769989791 -1.607560624e-15 0.02095227207)
(0.003385020503 2.858588377e-15 -0.0004800806263 -3.318177859e-15 0.003381284634 0 -0.0009609716204 -1.416505708e-15 0.02076246622)
(0.003402328305 1.165729547e-15 -0.0003925545144 -3.244715649e-15 0.003385009606 3.754337655e-14 -0.00105303087 -1.493866135e-15 0.02052400085)
(0.003368320198 1.190509e-17 -0.0002054341968 -2.606258387e-15 0.003386338651 0 -0.001062600801 -1.156480815e-15 0.02024998267)
(0.003278529257 5.558059986e-16 2.270612678e-05 -2.287610201e-15 0.003378835504 0 -0.001040715829 -1.014813391e-15 0.01995639869)
(0.003127399473 -1.755205254e-16 0.0002627161344 -2.074348342e-15 0.003358472133 -2.448567956e-14 -0.001008480839 -9.993700791e-16 0.01966103912)
(0.002910774489 -8.609826243e-16 0.0005141370665 -1.751708362e-15 0.003323059209 2.22136144e-14 -0.0009596868985 -1.270829407e-15 0.01938239816)
(0.002630283246 -5.89671724e-16 0.0007743659578 -1.516643937e-15 0.003270857575 2.043478147e-14 -0.0008923962234 -1.269162107e-15 0.0191362281)
(0.002299673638 -3.807330622e-16 0.001036416512 -1.327258749e-15 0.003201691945 0 -0.0008121865895 -1.055872421e-15 0.01892582943)
(0.001930479995 -2.288150879e-16 0.001296229955 -1.193619568e-15 0.003116992069 0 -0.0007250730071 -9.240871517e-16 0.01874639726)
(0.001539584702 -8.888931154e-16 0.001552004092 -1.104233844e-15 0.003018160875 0 -0.0006369233903 -8.431083421e-16 0.01859558554)
(0.00115437781 -8.515997927e-16 0.00179261404 -9.334497696e-16 0.002908078709 0 -0.0005562755284 -9.80043976e-16 0.01847675612)
(0.0007981517984 4.367028941e-16 0.00198073057 -8.708983191e-16 0.002790469104 0 -0.0004885201671 -1.119767815e-15 0.018396302)
(0.0004920039316 9.63206155e-16 0.002056126152 -8.736126332e-16 0.00266919226 0 -0.000432685571 -1.276007039e-15 0.01836074223)
(0.0002195260828 9.014161722e-16 0.001980555118 -8.784712314e-16 0.002548291812 0 -0.0003879784748 -1.454565344e-15 0.01837725931)
(-4.934591722e-05 8.565800725e-16 0.001741869097 -8.784353757e-16 0.002428208141 1.383873576e-14 -0.0003556499253 -1.663973505e-15 0.01844849128)
(-0.0002770903574 8.087673165e-16 0.001336945323 -8.804180605e-16 0.002308942125 1.34559417e-14 -0.0003341650545 -1.745697719e-15 0.01856456792)
(-0.0004218986358 7.979634229e-16 0.0008170477214 -8.713633187e-16 0.002193969694 1.312170645e-14 -0.0003252602328 -1.717785924e-15 0.01870916507)
(-0.0005030275288 8.187548683e-16 0.0002697805552 -8.70728429e-16 0.002086175284 0 -0.0003307083939 -1.586134201e-15 0.01886548778)
(-0.0005504224908 8.404138413e-16 -0.0002581847554 -8.594603361e-16 0.001986245233 0 -0.0003441705963 -1.482740707e-15 0.01901943808)
(-0.0005824362431 4.174242275e-16 -0.000760890398 -8.65182601e-16 0.001894042942 0 -0.000358401688 -1.404181696e-15 0.01916556531)
(-0.0006201265749 -1.258404198e-17 -0.00123929608 -8.365259285e-16 0.001808813479 0 -0.0003687775314 -1.350410797e-15 0.01930362857)
(-0.0006856963004 -2.301106784e-17 -0.001690979867 -8.070836483e-16 0.001729146481 0 -0.0003714837407 -1.316539714e-15 0.01943379457)
(-0.0007935399839 3.390105872e-16 -0.002112003578 -7.824735423e-16 0.001653227486 0 -0.0003644948935 -1.250400932e-15 0.0195559193)
(-0.0009437634148 3.501052649e-16 -0.002499626163 -7.766336352e-16 0.001579295753 0 -0.0003485152869 -1.198482079e-15 0.01966999551)
(-0.001123065337 4.237917746e-17 -0.002853351081 -7.521116674e-16 0.001506097737 -1.158138868e-14 -0.0003265616822 -1.123111771e-15 0.01977637322)
(-0.001313086286 5.786809614e-17 -0.003174095645 -7.401509102e-16 0.001433076368 0 -0.0003023312795 -1.149620112e-15 0.01987564625)
(-0.001500382819 -1.302291007e-16 -0.003462564232 -7.2086576e-16 0.001360226778 0 -0.0002785456807 -1.165541075e-15 0.01996838884)
(-0.001680613995 -3.338293994e-16 -0.003718217423 -6.998426122e-16 0.001287761941 5.66512913e-15 -0.0002563656354 -1.197854704e-15 0.02005497339)
(-0.001855255467 -2.609415922e-16 -0.003939346393 -6.770097521e-16 0.001215862488 1.127248758e-14 -0.0002358094896 -1.20464595e-15 0.0201355688)
(-0.002027039458 -1.915134437e-16 -0.004123767058 -6.52292316e-16 0.001144618303 0 -0.0002164768555 -1.131813947e-15 0.0202102443)
(-0.002198380683 -1.120251954e-16 -0.00426929657 -6.310761566e-16 0.001074050043 0 -0.0001979375226 -1.049086694e-15 0.02027906147)
(-0.002371494108 -3.224043097e-17 -0.00437389717 -6.214181375e-16 0.001004128515 0 -0.0001798349382 -9.786472647e-16 0.02034210759)