/*--------------------------------*- C++ -*----------------------------------*\
  =========                 |
  \\      /  F ield         | OpenFOAM: The Open Source CFD Toolbox
   \\    /   O peration     | Website:  https://openfoam.org
    \\  /    A nd           | Version:  7
     \\/     M anipulation  |
\*---------------------------------------------------------------------------*/
FoamFile
{
    version     2.0;
    format      ascii;
    class       volScalarField;
    location    "0.0024";
    object      p;
}
// * * * * * * * * * * * * * * * * * * * * * * * * * * * * * * * * * * * * * //

dimensions      [1 -1 -2 0 0 0 0];

internalField   nonuniform List<scalar> 
1166
(
1490618.523
1498802.609
1496078.16
1493593.801
1491255.443
1488759.431
1485463.814
1480352.898
1479890.965
1512283.114
1572324.367
1638014.324
1704515.252
1769844.96
1814796.377
1807292.416
1788555.535
1769832.668
1750853.4
1731365.914
1711997.647
1693259.836
1675935.043
1663581.728
1661881.095
1671419.503
1686202.829
1701194.802
1715076.875
1727713.475
1738904.905
1748467.955
1756476.853
1763271.768
1426780.292
1437616.063
1435896.743
1433750.09
1434974.118
1456124.055
1498473.937
1547675.314
1600046.005
1655154.495
1713259.186
1765339.526
1778819.64
1766894.657
1750850.017
1734215.278
1716659.769
1698424.568
1680153.604
1662271.866
1645279.539
1632060.917
1628443.922
1636433.638
1650892.016
1666222.568
1680557.576
1693719.595
1705547.042
1715829.73
1724539.766
1731915.202
1738333.106
1744133.366
1749500.512
1754485.82
1759098.874
1763351.104
1767261.245
1770847.256
1774137.356
1777171.818
1779994.887
1782642.898
1785137.869
1787491.323
1789710.505
1791830.491
1793972.848
1796132.28
1499931.977
1516343.516
1531216.001
1553338.702
1582138.053
1616030.494
1654891.551
1698581.312
1740504.835
1754969.947
1746000.751
1732775.989
1718932.509
1703620.802
1686959.476
1669605.089
1652148.155
1634878.78
1618084.491
1604328.489
1599147.131
1605433.594
1619081.3
1634330.211
1648809.708
1662231.527
1674458.075
1685264.71
1694529.112
1702375.969
1709134.199
1715176.289
1720751.248
1725938.56
1730748.595
1735188.715
1739276.035
1743029.428
1746470.009
1749632.014
1752558.202
1755289.385
1757854.771
1760272.454
1762556.334
1764716.978
1766760.349
1768718.115
1770700.611
1772706.878
1673130.702
1676450.552
1690434.903
1711057.904
1734046.662
1743503.558
1737370.824
1727706.635
1717345.347
1705825.397
1692600.692
1677965.256
1662004.138
1645187.241
1628273.773
1611466.953
1594921.081
1580857.822
1574501.916
1579078.051
1591398.375
1605973.884
1620047.945
1633253.567
1645487.108
1656504.28
1666106.42
1674304.891
1681343.078
1687561.803
1693245.861
1698532.694
1703454.53
1708016.465
1712228.468
1716106.606
1719665.762
1722931.892
1725943.333
1728743.063
1731366.2
1733834.191
1736161.574
1738361.966
1740448.029
1742428.555
1744307.049
1746113.096
1747952.528
1749819.732
1727652.208
1713549.264
1712709.307
1709771.522
1704571.919
1698010.362
1689919.009
1680108.633
1668541.388
1655133.984
1640497.23
1624899.204
1608419.527
1592173.234
1576332.292
1562635.65
1555872.444
1559074.189
1569719.774
1582872.625
1595913.521
1608366.481
1620114.996
1630907.608
1640491.973
1648774.638
1655890.298
1662128.213
1667788.656
1673059.577
1677994.583
1682594.792
1686861.712
1690805.985
1694440.25
1697780.04
1700854.678
1703703.327
1706364.398
1708865.526
1711223.005
1713449.255
1715557.095
1717556.833
1719458.708
1721269.187
1722993.577
1724657.933
1726361.254
1728095.685
1708913.976
1690049.339
1688506.369
1683900.412
1676178.945
1666244.144
1654638.914
1641378.397
1626969.594
1611588.281
1596036.326
1579684.382
1563925.279
1551061.891
1544545.628
1546605.526
1555070.098
1566051.22
1577301.927
1588350.088
1599048.125
1609115.113
1618243.65
1626242.784
1633150.141
1639185.592
1644633.943
1649714.262
1654505.179
1659009.652
1663219.705
1667136.294
1670766.22
1674115.713
1677202.88
1680059.206
1682722.556
1685224.553
1687584.244
1689813.638
1691923.587
1693925.164
1695828.337
1697641.571
1699373.721
1701031.211
1702614.776
1704145.792
1705717.465
1707324.281
1664562.57
1643487.491
1641022.06
1635325.974
1626924.156
1616339.315
1604354.354
1591715.802
1577789.397
1563765.62
1550025.196
1539258.469
1534760.301
1536853.432
1543498.119
1552283.633
1561634.252
1571133.191
1580607.115
1589749.104
1598201.269
1605742.044
1612334.622
1618113.666
1623307.758
1628133.546
1632708.891
1637053.282
1641151.66
1644993.562
1648577.709
1651905.832
1654983.094
1657829.647
1660477.6
1662960.689
1665303.229
1667517.157
1669611.91
1671598.574
1673486.053
1675283.045
1676996.103
1678635.426
1680208.39
1681718.088
1683164.933
1684572.067
1686022.64
1687510.006
1617245.03
1596619.192
1594326.01
1588687.676
1580458.645
1570789.207
1559713.895
1548512.931
1538275.185
1531291.25
1528816.632
1531076.693
1536043.527
1542463.109
1549782.143
1557560.565
1565585.652
1573541.279
1581070.894
1587947.155
1594062.062
1599451.057
1604278.381
1608752.81
1613021.997
1617118.272
1621026.914
1624723.869
1628198.938
1631448.505
1634469.033
1637269.043
1639871.393
1642307.425
1644604.612
1646779.371
1648840.596
1650795.768
1652653.875
1654422.53
1656108.348
1657716.083
1659254
1660729.209
1662146.882
1663510.636
1664824.842
1666112.823
1667449.175
1668822.124
1567601.743
1548578.829
1546819.79
1542415.331
1535989.97
1529677.693
1524689.471
1521857.317
1521844.411
1523840.258
1527629.391
1532460.744
1538210.004
1544624.681
1551439.011
1558367.135
1565070.179
1571336.111
1577014.267
1582057.251
1586566.054
1590751.289
1594758.734
1598631.745
1602357.406
1605910.801
1609275.449
1612442.13
1615404.302
1618158.111
1620714.222
1623096.722
1625337.722
1627459.959
1629473.669
1631384.888
1633200.738
1634929.484
1636577.578
1638149.056
1639650.934
1641089.765
1642470.378
1643794.976
1645070.634
1646303.771
1647497.489
1648670.952
1649895.735
1651159.05
1522294.43
1508435.152
1509214.227
1509328.519
1509034.719
1509307.004
1510698.647
1513155.817
1516478.606
1520802.351
1525838.435
1531534.729
1537606.984
1543853.179
1549962.278
1555771.808
1561123.275
1565908.775
1570228.762
1574233.86
1578046.416
1581735.231
1585303.218
1588718.799
1591972.035
1595056.944
1597957.867
1600664.426
1603179.592
1605520.398
1607713.549
1609784.343
1611748.78
1613614.408
1615385.747
1617068.286
1618669.233
1620195.327
1621650.806
1623042.55
1624375.865
1625656.759
1626889.087
1628078.501
1629229.483
1630345.818
1631430.896
1632502.167
1633621.674
1634778.427
1498635.786
1490942.899
1492978.077
1495014.068
1497198.815
1500113.826
1503711.704
1507943.245
1512830.868
1518172.118
1523818.858
1529611.452
1535328.513
1540806.091
1545928.26
1550559.696
1554786.284
1558705.801
1562409.494
1565967.206
1569432.745
1572778.957
1575974.831
1579006.673
1581866.473
1584545.667
1587033.431
1589340.503
1591491.261
1593513.925
1595430.952
1597253.764
1598985.244
1600629.784
1602194.457
1603684.733
1605104.83
1606457.831
1607750.292
1608988.129
1610175.013
1611315.6
1612417.218
1613488.425
1614532.749
1615548.92
1616539.318
1617519.692
1618545.119
1619602.391
1490317.845
1486316.972
1488550.125
1491223.547
1494330.203
1498016.785
1502239.389
1506921.439
1511934.334
1517075.809
1522265.933
1527285.149
1532074.455
1536496.987
1540596.027
1544422.666
1548023.559
1551511.733
1554911.148
1558195.325
1561338.274
1564315.685
1567133.379
1569794.871
1572281.897
1574591.305
1576736.545
1578741.871
1580631.031
1582417.895
1584112.932
1585722.087
1587251.364
1588706.135
1590092.098
1591414.43
1592677.667
1593886.262
1595043.116
1596148.358
1597210.791
1598237.688
1599234.94
1600207.405
1601160.553
1602093.604
1603003.773
1603905.473
1604849.291
1605822.257
1489943.657
1487721.425
1489772.709
1492336.552
1495351.249
1498847.994
1502759.686
1506983.527
1511324.055
1515682.524
1519934.392
1523993.333
1527836.458
1531491.318
1534954.718
1538346.672
1541658.76
1544855.636
1547920.131
1550869.213
1553678.992
1556332.662
1558818.452
1561122.483
1563258.806
1565248.597
1567120.781
1568893.458
1570575.09
1572170.694
1573683.834
1575119.085
1576482.813
1577781.295
1579018.069
1580198.95
1581328.69
1582412.741
1583453.342
1584453.861
1585418.849
1586356.434
1587271.503
1588167.786
1589047.672
1589912.095
1590755.929
1591592.957
1592468.292
1593368.291
1491794.326
1490323.098
1492096.633
1494329.259
1496929.403
1499904.746
1503194.907
1506659.201
1510158.093
1513661.488
1517050.472
1520382.592
1523609.856
1526807.339
1529955.436
1533002.04
1535976.327
1538855.686
1541605.805
1544199.976
1546649.324
1548957.228
1551109.264
1553109.423
1554973.772
1556724.313
1558382.974
1559958.136
1561454.452
1562879.041
1564235.53
1565526.637
1566754.089
1567920.787
1569035.451
1570102.421
1571124.135
1572104.166
1573050.204
1573969.575
1574861.14
1575730.937
1576583.625
1577421.143
1578244.528
1579052.959
1579844.365
1580628.757
1581445.68
1582282.631
1493853.563
1492600.088
1494058.232
1495870.415
1497940.629
1500312.516
1502926.044
1505640.492
1508440.433
1511278.806
1514136.746
1517004.874
1519887.364
1522707.493
1525511.123
1528245.197
1530858.685
1533372.575
1535786.012
1538065.222
1540184.743
1542157.233
1544002.364
1545746.922
1547400.32
1548969.072
1550453.127
1551862.062
1553203.027
1554480.261
1555698.385
1556862.476
1557975.333
1559038.111
1560053.327
1561025.479
1561959.88
1562862.667
1563739.592
1564595.378
1565432.487
1566252.31
1567057.77
1567849.982
1568629.232
1569394.357
1570143.04
1570882.072
1571649.292
1572434.347
1495144.626
1493893.974
1495048.379
1496447.522
1498063.42
1499954
1502024.382
1504233.828
1506596.249
1509008.598
1511523.801
1514035.799
1516569.787
1519072.715
1521505.735
1523896.78
1526200.804
1528379.739
1530441.85
1532397.295
1534230.824
1535942.377
1537558.251
1539097.023
1540568.236
1541974.919
1543313.031
1544583.218
1545793.876
1546950.072
1548054.049
1549110.782
1550125.986
1551102.726
1552035.632
1552932.814
1553801.818
1554647.603
1555473.759
1556283.812
1557079.687
1557861.505
1558630.424
1559387.502
1560132.297
1560860.944
1561571.539
1562271.831
1562997.153
1563736.057
1495449.489
1494131.513
1495078.566
1496225.904
1497576.648
1499133.131
1500858.171
1502781.351
1504808.086
1506930.95
1509105.506
1511313.006
1513498.593
1515690.655
1517815.556
1519866.167
1521854.529
1523736.296
1525499.17
1527163.614
1528755.489
1530273.802
1531714.995
1533090.916
1534405.915
1535664.342
1536874.633
1538031.452
1539132.839
1540186.164
1541197.155
1542168.764
1543103.234
1544003.13
1544871.954
1545713.555
1546534.109
1547337.634
1548126.911
1548902.952
1549666.096
1550417.348
1551157.504
1551886.079
1552600.11
1553294.665
1553972.028
1554638.731
1555326.842
1556025.31
1495120.368
1493768.573
1494626.467
1495649.105
1496803.349
1498115.341
1499630.756
1501303.23
1503054.177
1504913.286
1506791.061
1508716.614
1510618.935
1512499.708
1514344.878
1516102.247
1517783.774
1519399.192
1520926.334
1522380.838
1523780.353
1525135.497
1526433.779
1527671.116
1528857.584
1529997.095
1531092.951
1532149.013
1533159.399
1534129.143
1535063.279
1535963.033
1536830.509
1537671.372
1538490.831
1539290.35
1540074.673
1540846.597
1541607.028
1542355.76
1543091.46
1543817.854
1544533.134
1545233.933
1545916.832
1546582.193
1547229.713
1547865.117
1548519.07
1549182.868
1494545.33
1493170.303
1493951.859
1494849.42
1495831.156
1496982.636
1498316.353
1499755.03
1501293.574
1502899.981
1504540.136
1506195.146
1507846.516
1509452.9
1511026.033
1512532.548
1513972.722
1515367.763
1516718.683
1518015.209
1519265.659
1520474.935
1521646.764
1522769.174
1523848.065
1524887.507
1525888.761
1526855.76
1527790.376
1528690.166
1529557.619
1530396.869
1531213.014
1532009.826
1532789.714
1533556.724
1534312.998
1535059.21
1535794.902
1536518.255
1537231.997
1537935.617
1538625.109
1539297.731
1539951.251
1540589.369
1541208.671
1541814.71
1542435.114
1543066.625
1493814.425
1492400.79
1493110.128
1493892.489
1494744.309
1495772.976
1496936.61
1498178.091
1499522.878
1500904.287
1502329.989
1503745.107
1505161.433
1506531.003
1507866.336
1509174.183
1510435.683
1511665.722
1512873.761
1514037.826
1515162.121
1516252.265
1517312.468
1518337.497
1519324.618
1520277.86
1521200.573
1522095.159
1522963.141
1523800.174
1524612.122
1525404.454
1526180.543
1526942.281
1527691.148
1528432.014
1529164.562
1529888.018
1530600.915
1531301.313
1531993.728
1532672.545
1533335.177
1533979.733
1534606.471
1535217.615
1535809.209
1536384.816
1536975.015
1537576.16
1492968.41
1491518.357
1492160.125
1492849.327
1493611.278
1494506.119
1495506.293
1496592.021
1497751.791
1498935.294
1500151.639
1501356.674
1502559.516
1503739.787
1504900.281
1506053.348
1507176.683
1508276.02
1509355.227
1510405.389
1511424.471
1512415.765
1513380.751
1514319.805
1515227.239
1516108.02
1516964.687
1517796.929
1518603.288
1519388.261
1520156.693
1520911.597
1521654.964
1522387.592
1523111.543
1523829.714
1524540.246
1525241.866
1525932.603
1526611.752
1527279.367
1527932.299
1528568.265
1529183.785
1529785.295
1530370.016
1530932.795
1531478.894
1532041.696
1532612.386
1492038.492
1490553.488
1491132.131
1491753.41
1492421.352
1493188.588
1494037.143
1494974.347
1495961.392
1496970.815
1498004.792
1499037.501
1500073.936
1501113.809
1502143.634
1503169.174
1504176.787
1505164.195
1506134.064
1507088.813
1508018.207
1508924.63
1509808.691
1510671.115
1511510.602
1512329.441
1513127.052
1513902.706
1514658.86
1515402.531
1516135.605
1516859.976
1517576.223
1518282.553
1518985.125
1519681.99
1520371.686
1521052.305
1521718.46
1522374.063
1523016.617
1523643.143
1524249.687
1524840.163
1525416.299
1525973.055
1526506.377
1527027.234
1527561.678
1528100.552
1491028.155
1489517.572
1490049.232
1490605.05
1491175.917
1491825.686
1492545.443
1493338.359
1494170.416
1495037.03
1495926.168
1496831.102
1497744.75
1498670.055
1499589.809
1500505.418
1501412.154
1502305.856
1503187.357
1504055.904
1504905.623
1505737.454
1506552.015
1507348.895
1508129.281
1508891.355
1509636.132
1510366.135
1511081.536
1511790.889
1512494.802
1513193.238
1513884.415
1514568.075
1515249.621
1515926.076
1516594.672
1517249.793
1517891.903
1518523.207
1519139.797
1519737.259
1520316.787
1520883.378
1521432.22
1521959.565
1522466.887
1522962.926
1523468.427
1523975.637
1500481.44
1501273.748
1502053.594
1502821.41
1503576.542
1504315.564
1505040.795
1505753.199
1506454.741
1507144.728
1507828.194
1508510.009
1509189.133
1509863.525
1510529.809
1511193.939
1511855.8
1512511.467
1513154.749
1513783.005
1514402.52
1515008.692
1515596.959
1516166.522
1516722.484
1517262.269
1517782.367
1518282.674
1518766.371
1519236.149
1519711.805
1520192.146
)
;

boundaryField
{
    front_top
    {
        type            wedge;
    }
    front_middle
    {
        type            wedge;
    }
    front_bottom
    {
        type            wedge;
    }
    back_top
    {
        type            wedge;
    }
    back_middle
    {
        type            wedge;
    }
    back_bottom
    {
        type            wedge;
    }
    axis_top
    {
        type            symmetryPlane;
    }
    axis_middle
    {
        type            symmetryPlane;
    }
    axis_bottom
    {
        type            symmetryPlane;
    }
    wall_top
    {
        type            fixedFluxPressure;
        gradient        uniform 0;
        value           nonuniform List<scalar> 
23
(
1796132.28
1772706.878
1749819.732
1728095.685
1707324.281
1687510.006
1668822.124
1651159.05
1634778.427
1619602.391
1605822.257
1593368.291
1582282.631
1572434.347
1563736.057
1556025.31
1549182.868
1543066.625
1537576.16
1532612.386
1528100.552
1523975.637
1520192.146
)
;
    }
    wall_middle
    {
        type            fixedFluxPressure;
        gradient        nonuniform 0();
        value           nonuniform 0();
    }
    wall_bottom
    {
        type            fixedFluxPressure;
        gradient        nonuniform 0();
        value           nonuniform 0();
    }
    inlet
    {
        type            zeroGradient;
    }
    outlet
    {
        type            fixedValue;
        value           nonuniform 0();
    }
    procBoundary10to9
    {
        type            processor;
        value           nonuniform List<scalar> 
51
(
1489932.7
1488416.83
1488907.24
1489392.169
1489872.699
1490418.758
1491029.541
1491704.438
1492418.535
1493173.393
1493952.211
1494756.264
1495570.744
1496395.912
1497219.633
1498042.366
1498863.722
1499677.162
1499677.162
1497989.846
1498715.619
1499435.507
1500148.196
1500849.392
1501534.045
1502212.167
1502884.561
1503549.586
1504204.638
1504862.733
1505521.052
1506176.865
1506826.692
1507471.692
1508117.638
1508759.385
1509390.301
1510005.402
1510611.277
1511206.127
1511784.677
1512344.121
1512889.375
1513419.928
1513931.955
1514424.506
1514901.214
1515359.736
1515801.257
1516251.282
1516707.134
)
;
    }
    procBoundary10to11
    {
        type            processor;
        value           nonuniform List<scalar> 
51
(
1516486.553
1526123.38
1524341.667
1523053.236
1522244.459
1521279.232
1520023.274
1518508.208
1516718.975
1513840.674
1508463.653
1509298.852
1552606.739
1624086.409
1699919.268
1774775.301
1835932.001
1839403.778
1821155.207
1801071.131
1781129.246
1760989.134
1741137.406
1722120.708
1705121.297
1694451.656
1695343.24
1706526.231
1721479.026
1736050.243
1749404.267
1761399.002
1771821.99
1780584.7
1769260.621
1769260.621
1774742.521
1779837.443
1784569.291
1788946.657
1792979.774
1796686.654
1800088.501
1803219.774
1806123.35
1808839.964
1811394.97
1813798.991
1816089.784
1818397.155
1820718.371
)
;
    }
}


// ************************************************************************* //
