/*--------------------------------*- C++ -*----------------------------------*\
  =========                 |
  \\      /  F ield         | OpenFOAM: The Open Source CFD Toolbox
   \\    /   O peration     | Website:  https://openfoam.org
    \\  /    A nd           | Version:  7
     \\/     M anipulation  |
\*---------------------------------------------------------------------------*/
FoamFile
{
    version     2.0;
    format      ascii;
    class       volScalarField;
    location    "0.0024";
    object      thermo:mu;
}
// * * * * * * * * * * * * * * * * * * * * * * * * * * * * * * * * * * * * * //

dimensions      [1 -1 -1 0 0 0 0];

internalField   nonuniform List<scalar> 
1166
(
7.187379921e+10
7.187379921e+10
7.187379921e+10
7.187379921e+10
7.187379921e+10
7.187379921e+10
7.187379922e+10
7.187379922e+10
7.187379925e+10
7.187379932e+10
7.187379956e+10
7.187380042e+10
7.187380373e+10
7.187381705e+10
7.187387269e+10
7.187411032e+10
7.187513005e+10
7.187945219e+10
7.18972458e+10
7.196716033e+10
7.222340516e+10
7.306060061e+10
7.51686783e+10
7.673332427e+10
6.660261236e+10
4.685686361e+10
3.183737726e+10
2.213420997e+10
1.562323171e+10
1.111492775e+10
7952971162
5724465478
4149274183
3031889432
7.187379922e+10
7.187379922e+10
7.187379923e+10
7.187379923e+10
7.187379925e+10
7.187379929e+10
7.18737994e+10
7.187379966e+10
7.187380042e+10
7.187380273e+10
7.187381032e+10
7.187383666e+10
7.187393223e+10
7.187429e+10
7.187565073e+10
7.188082622e+10
7.190020168e+10
7.197038814e+10
7.221106128e+10
7.296102346e+10
7.484609971e+10
7.68875164e+10
6.98711599e+10
5.115792723e+10
3.507217732e+10
2.448091911e+10
1.736923119e+10
1.242474604e+10
8932946127
6453607180
4689119470
3430853731
2530049761
1880894933
1409530694
1064639707
810434550.5
621713521.6
480601590.7
374354179.2
293809052.3
232331837.3
185080048.2
148503753.5
119991667.1
97613295.24
79932821.76
65873693.89
54623580.94
45567050.85
7.187379955e+10
7.18737996e+10
7.187379973e+10
7.18738e+10
7.187380058e+10
7.187380187e+10
7.187380496e+10
7.187381291e+10
7.187383494e+10
7.187389965e+10
7.187410027e+10
7.187474851e+10
7.187690116e+10
7.188411528e+10
7.190822749e+10
7.198731152e+10
7.223638006e+10
7.296080735e+10
7.47107406e+10
7.685661709e+10
7.189252253e+10
5.476265569e+10
3.809850344e+10
2.676633616e+10
1.912073256e+10
1.377531489e+10
9969219500
7242066342
5284400792
3877633982
2864495469
2131486491
1597795334
1206542852
917768689.9
703215895.9
542741746.2
421931964.4
330395483.1
260597094.5
207026694.7
165633352.1
133431902.3
108212972.1
88334418.69
72566335.32
59980672.83
49875223.53
41713771.92
35085169.91
7.187380929e+10
7.187381069e+10
7.187381438e+10
7.187382207e+10
7.187383812e+10
7.187387308e+10
7.187395456e+10
7.187415511e+10
7.187468042e+10
7.187611988e+10
7.188020323e+10
7.189209735e+10
7.192711585e+10
7.202903329e+10
7.231778385e+10
7.308337364e+10
7.47942838e+10
7.68376431e+10
7.282161558e+10
5.721689533e+10
4.057461256e+10
2.88016266e+10
2.076580175e+10
1.509772007e+10
1.101912477e+10
8063613558
5919070791
4363103026
3233605561
2411597067
1810444840
1368226701
1040950817
797304920.1
614833913.2
477353293.3
373155403.6
293714218.3
232784588.4
185760921.3
149235895.3
120682817.3
98220400.11
80440794.83
66282710.04
54941388.42
45804755.26
38402730.28
32374410.64
27437928.6
7.187405906e+10
7.187409344e+10
7.187418295e+10
7.187436626e+10
7.187473555e+10
7.187550869e+10
7.187721349e+10
7.188113419e+10
7.189058893e+10
7.191410685e+10
7.19736068e+10
7.212557488e+10
7.250578181e+10
7.339670906e+10
7.515390914e+10
7.688126779e+10
7.270966574e+10
5.814271081e+10
4.210786628e+10
3.033734063e+10
2.21467564e+10
1.628944625e+10
1.201627695e+10
8876184218
6567740765
4872835727
3629697793
2717394631
2045832553
1549251635
1180192907
904510248.3
697516058
541262885.6
422684053.3
332211693.5
262810646.2
209272529
167725520.2
135288024.1
109808724.8
89676340.33
73676174.06
60886401.03
50605723.29
42296515.43
35544811.01
30029892.4
25502032.07
21766235.59
7.187927098e+10
7.187993333e+10
7.18816269e+10
7.188498887e+10
7.189143185e+10
7.190416803e+10
7.19302839e+10
7.198514356e+10
7.210444198e+10
7.236450476e+10
7.292482779e+10
7.405355275e+10
7.585736886e+10
7.678971697e+10
7.128873769e+10
5.720660819e+10
4.231963352e+10
3.109674991e+10
2.307565182e+10
1.722097219e+10
1.287090779e+10
9620559000
7192664410
5383493612
4038832064
3040834119
2299559514
1747428757
1334622242
1024706283
791053276.8
614113487.8
479498557.8
376604302.4
297577754.6
236581312.5
189251640.9
152321177.7
123341040.7
100470584.6
82321406.83
67839567.23
56220359.75
46849256.28
39251582.56
33060137.08
27988903.17
23814932.4
20363156.99
17495096.43
7.195964659e+10
7.196874494e+10
7.199145693e+10
7.203471509e+10
7.211314413e+10
7.225598768e+10
7.252175765e+10
7.300985827e+10
7.388856554e+10
7.528109293e+10
7.674173276e+10
7.568618058e+10
6.775664322e+10
5.409791727e+10
4.094557806e+10
3.084182583e+10
2.33678151e+10
1.775460428e+10
1.348459029e+10
1.022595715e+10
7743841157
5860736565
4438225765
3367454493
2562781890
1957591831
1501385622
1156458462
894864674.3
695802823
543757477.9
427174151
337418404.6
268025021.1
214130180.7
172065065.5
139062871.5
113034083.8
92397603.78
75951237.18
62775761.74
52166535.8
43580704.35
36597749.34
30890748.37
26203846.91
22336943.38
19132381.53
16463941.06
14231904.73
7.278442975e+10
7.286250057e+10
7.304983194e+10
7.338160244e+10
7.392250964e+10
7.473930044e+10
7.583241845e+10
7.68042e+10
7.615994973e+10
7.118697609e+10
6.097304152e+10
4.873230961e+10
3.794036952e+10
2.944825989e+10
2.288405675e+10
1.776813882e+10
1.375628501e+10
1.061357475e+10
8162505264
6262331250
4798886304
3678346558
2823485276
2172174917
1675799948
1297022032
1007458841
785619884.2
615226510.5
483960490.6
382517182.2
303851529.4
242624065.3
194772120.5
157203671.3
127568507.7
104077670.3
85368342.28
70394926.1
58351938.22
48619909.43
40717596.08
34271010.48
28987258.23
24636708.48
21038550.66
18049453.05
15555165.88
13465104.49
11705939.66
7.646425594e+10
7.66003868e+10
7.681485244e+10
7.685874755e+10
7.618240173e+10
7.379143223e+10
6.860341402e+10
6.048887323e+10
5.085272693e+10
4.156894207e+10
3.356451228e+10
2.696940229e+10
2.158113361e+10
1.718590735e+10
1.360632452e+10
1.071168838e+10
8389359700
6542344548
5086856396
3948712561
3064070503
2379196100
1850006074
1441358439
1125711648
881751636.6
692925827
546510191.3
432739732.7
344117173.7
274891703.7
220644093.6
177975666.9
144277851.3
117550153.1
96257892.85
79220707.32
65526915.33
54470346.92
45503372.35
38198203.91
32221165.4
27308747.73
23253586.08
19891818.64
17092800.61
14752322.35
12786979.34
11129648.9
9726551.752
6.480288206e+10
6.357769223e+10
6.086684887e+10
5.676265155e+10
5.149953627e+10
4.555517166e+10
3.945268938e+10
3.363185105e+10
2.833456286e+10
2.363677549e+10
1.953650285e+10
1.600506044e+10
1.299870287e+10
1.047190497e+10
8375755406
6657491988
5265983466
4150453854
3263814387
2563839762
2013858767
1582717234
1245264891
981394418.9
775121057.4
613813115.6
487549182.6
388583763.6
310876229.8
249728947.3
201482793.2
163293422.9
132952714.9
108754957.1
89381146.38
73807331.2
61236009.26
51046377.19
42752665.34
35973866.06
30410063.65
25824217.24
22028945.97
18875611.29
16244538.54
14040029.85
12185288.96
10618443.5
9289475.54
8157831.907
3.691976297e+10
3.605813032e+10
3.429180241e+10
3.186964615e+10
2.901730339e+10
2.594489109e+10
2.282523311e+10
1.978959964e+10
1.693177382e+10
1.4306202e+10
1.195258306e+10
9881075882
8093309134
6574676790
5304602785
4256238337
3400649176
2709461396
2154772663
1711825171
1359490789
1080026901
858814855.1
683974990.4
545811401.3
436624770.2
350288047.5
281946952.1
227763601.6
184709218.5
150404149.3
122985731.2
100998502.9
83305638.84
69017116.69
57435006.31
48010792.28
40312314.89
33999379.64
28802046.31
24506394.83
20942257.5
17973498.11
15490746.48
13406574.54
11650015.66
10163510.42
8900616.209
7823598.831
6901643.99
2.17892553e+10
2.133305381e+10
2.039071549e+10
1.908185529e+10
1.751458824e+10
1.579041761e+10
1.400425662e+10
1.223513031e+10
1.054051883e+10
8967178436
7541578232
6278350785
5180747231
4243120855
3453635214
2797980197
2258356879
1817752635
1460326290
1171952397
940121426
754315283.2
605726535.7
487070400.6
392394110.7
316864118
256595482
208449263.2
169918207.1
139013940.6
114162813.8
94123382.86
77915479.23
64764283.2
54057347.27
45310674.23
38139875.4
32240690.58
27369506.77
23332240.73
19973962.11
17169956.28
14819866.68
12842775.13
11173100.98
9758045.632
8553998.92
7525637.687
6644140.591
5885853.209
1.356813852e+10
1.329859107e+10
1.273970673e+10
1.195852848e+10
1.101510644e+10
9971266917
8882630297
7796269909
6751090926
5775423456
4887171042
4096835605
3406199716
2813201583
2310385421
1888720831
1538612839
1250018285
1013584187
820903424.4
664537863.8
538081328.7
436018230.1
353777200.5
287572959.1
234293414.9
191395033.1
156815623.2
128896082
106310364.5
87995543.03
73105884.76
60966514.46
51040588.65
42899432.71
36200798.1
30670957.5
26090368.01
22283392.98
19109183.87
16452488.34
14220994.49
12339819.42
10748158.46
9396551.583
8244788.392
7259852.841
6414448.998
5686281.371
5056970.154
8714001479
8546264763
8198013799
7710432631
7120843185
6466238159
5781552636
5096362405
4435024843
3815588041
3249529849
2743247735
2298473464
1913274624
1584287093
1306039136
1072834624
878938545.6
718783847.8
587121009.8
479340567.2
391405549.1
319841019.7
261717056.5
214538025.1
176246500.1
145151462
119873484.3
99294535.74
82511384.49
68795564.92
57560711.62
48334454.24
40736394.08
34461586.14
29263889.43
24945119.8
21345502.71
18335703.25
15810724.73
13685611.36
11890427.46
10368663.66
9074157.47
7969156.174
7022739.31
6209585.651
5508312.301
4901584.896
4375048.299
5733211351
5626180186
5403775028
5091943414
4714145928
4294558550
3854459455
3412794797
2985665497
2583407937
2214454908
1882054780
1588126594
1331766856
1110898484
922802671.1
763930814.6
630758020.7
519840442.1
427987659.9
352206524.2
289897005
238792931.6
196946163.8
162708921.1
134700765.4
111773226.6
92988895.29
77579818.94
64918983.72
54496285.4
45898164.62
38788780.47
32896352.85
27998415.39
23915931.93
20503486.72
17642541.16
15236411.5
13206415.52
11488494.93
10029541.08
8786292.21
7723347.986
6811556.713
6026971.791
5349737.684
4763174.669
4253637.971
3809707.304
3856993309
3787293429
3642365107
3439000174
3192813290
2918353552
2629604861
2339368347
2056928694
1789965390
1543319028
1320004285
1120990825
946421944.3
794967437.2
664965366.3
554451316
461140662.7
382859271.4
317532655.7
263273184
218334807.6
181199149
150556193.1
125290028.5
104461014.9
87289063.81
73118229.9
61410392.28
51723967.93
43696284.67
37030298.34
31483229.14
26856576.6
22988395.54
19745610.85
17019490.25
14721079.99
12777504.69
11128880.15
9726356.239
8529242.974
7504095.856
6623446.105
5864562.103
5208630.877
4640081.289
4145708.898
3714600.301
3337605.012
2651134882
2604913283
2508926079
2374075378
2210114159
2026805011
1833569294
1638317180
1447429809
1266180859
1097698309
944329268.6
806861783
685421057.1
579467541.1
487919515
409535077.7
342954853.5
286725682.6
239485825.7
199960593.9
167001579.9
139568467.6
116766748.5
97831302.69
82111696.89
69059846.64
58218125.55
49202160.22
41694582.01
35433587.14
30202752.83
25823711.82
22149960.2
19061635.89
16458221.95
14257717.81
12392571.75
10807097.16
9455387.109
8299752.959
7308654.19
6455999.922
5720231.103
5083423.26
4530859.507
4050010.242
3630315.175
3263013.241
2940788.811
1860405399
1829215672
1764242799
1672757647
1561265431
1436337781
1304205731
1170022645
1038422009
912721792
795400191.6
687933018.3
591144505.3
505107666.3
429605280.8
363996052.3
307471020.3
259150254.4
218097705.5
183379674.6
154133401.4
129570844.6
108993035.1
91774159.88
77379790.1
65351386.32
55299270.08
46895784.87
39865499.62
33976408.53
29036032.83
24884763.14
21390276.2
18442778.29
15951333.4
13840268.25
12046631.61
10518612.5
9213276.225
8095040.678
7134600.137
6307166.859
5592168.325
4972585.753
4434244.467
3965433.722
3555889.089
3197188.273
2882216.186
2605031.917
1330773221
1309239513
1264338495
1201013270
1123668839
1036899783
944679059.9
850713059
758224513.7
669431082.9
586225827.1
509589782
440228440.3
378257366
323547275.6
275765438.3
234363319.6
198748050.6
168304995.9
142397139.3
120430827
101862947.1
86205682.95
73024810.55
61936687.34
52614174.66
44776697.55
38185337.83
32639578.82
27967779.46
24027038.84
20698102.35
17881108.32
15492533.1
13463316.37
11735232.3
10259746.09
8996691.556
7912655.63
6979773.56
6175121.52
5478822.618
4874695.815
4349197.286
3890988.853
3490463.037
3139380.735
2830864.954
2559116.195
2319252.362
968752763.7
953605781.9
921994056.8
877344577.4
822784753.8
761320749.7
695801787.6
628876411.6
562688517.3
498927712.9
438889434.2
383369257.4
332851605.3
287516257.4
247282166.6
211950446.8
181168769.5
154533027.5
131622570.7
112011802.9
95284270.87
81059537.13
68991335.07
58772335.98
50126299.5
42815141.56
36633892.22
31406773.39
26984303.75
23239526.14
20064536.28
17368727.49
15075903.35
13122223.32
11454366.72
10027179.49
8802870.266
7750061.559
6842466.028
6058221.878
5378797.822
4788560.099
4274553.862
3825828.873
3433273.896
3088925.665
2786095.158
2519137.781
2283390.784
2074610.337
716692428.2
705854475.9
683217397.1
651230213.2
612049039.4
567780579.7
520462238
472012677.8
423897253.7
377399085
333414744.8
292587389.7
255258434.8
221611958.6
191599688.8
165096222.7
141885406.8
121687026.8
104211854.7
89171487.38
76269851.45
65236133.4
55821967.16
47805888.27
40987020.17
35190002.19
30262781.71
26074163.33
22512366.67
19481586.14
16899131.64
14695690.26
12812652.66
11200476.01
9817911.88
8629314.393
7605168.722
6720689.26
5955045.924
5290844.091
4713112.48
4209400.613
3769189.659
3383638.78
3045229.618
2747388.552
2484656.007
2252448.618
2046741.827
1864051.12
538174327
530296736.9
513838780.4
490564619.9
461977434.1
429609617.5
394944475.1
359328461.1
323842415.4
289445133.5
256772248.8
226331030.3
198371098.1
173049532.8
150354236
130205194.1
112469971.7
96955176.06
83460376.72
71782560.09
61712394.02
53054354.32
45628364.32
39271543.84
33836963.62
29193000.14
25226004.24
21837267.25
18942025.06
16466422.25
14347063.81
12530307.32
10970535.64
9629219.179
8473758.999
7476085.904
6612846.859
5864303.19
5213822.267
4647383.679
4152908.647
3720287.776
3340943.087
3007759.236
2714279.983
2455217.558
2226067.719
2022999.76
1842565.992
1681907.129
409748025.2
403943000.4
391816911.1
374624566.5
353473779.5
329477954
303731662.6
277193805.6
250677365.5
224888737.7
200297869.2
177296964.8
156079305
136772059.3
119387930.4
103878023.1
90159471.31
78099159.72
67556134.49
58385212.49
50438126.89
43571045.39
37651738.7
32559968.67
28185409.38
24429388.48
21205897.38
18439571.61
16065192.65
14025584.47
12271529.87
10761170.94
9458762.735
8334125.165
7361075.021
6517479.473
5784651.784
5146707.984
4590498.213
4104330.414
3678482.15
3304687.034
2976034.058
2686351.772
2430457.741
2203941.835
2003101.057
1824570.698
1665537.221
1523617.864
55227021.5
47949218.63
41612469.12
36111097.94
31346729.06
27229238.66
23675486.12
20610514.53
17968294.65
15690505.05
13727177.74
12032957.43
10569600.45
9304167.667
8208492.726
7258533.766
6433245.41
5714963.877
5088632.688
4541647.971
4062978.081
3643184.48
3274306.367
2949618.418
2663225.954
2410047.189
2185781.106
1986791.437
1809840.511
1652142.224
1511339.667
1385427.34
)
;

boundaryField
{
    front_top
    {
        type            wedge;
    }
    front_middle
    {
        type            wedge;
    }
    front_bottom
    {
        type            wedge;
    }
    back_top
    {
        type            wedge;
    }
    back_middle
    {
        type            wedge;
    }
    back_bottom
    {
        type            wedge;
    }
    axis_top
    {
        type            symmetryPlane;
    }
    axis_middle
    {
        type            symmetryPlane;
    }
    axis_bottom
    {
        type            symmetryPlane;
    }
    wall_top
    {
        type            calculated;
        value           nonuniform List<scalar> 
23
(
41694335.4
32230653.71
25300052.1
20140052.63
16239478.55
13249579.37
10928240.96
9103722.755
7653624.192
6489239.298
5545356.024
4773456.338
4137114.04
3608528.458
3166336.244
2793951.825
2478361.168
2209338.45
1978765.353
1780048.129
1607923.091
1458120.217
1327167.719
)
;
    }
    wall_middle
    {
        type            calculated;
        value           nonuniform 0();
    }
    wall_bottom
    {
        type            calculated;
        value           nonuniform 0();
    }
    inlet
    {
        type            calculated;
        value           nonuniform 0();
    }
    outlet
    {
        type            calculated;
        value           nonuniform 0();
    }
    procBoundary10to9
    {
        type            processor;
        value           nonuniform List<scalar> 
51
(
316030090.8
311699841.6
302636415.7
289772167.7
273922246.3
255906650.5
236539276.2
216515069.9
196451804.3
176867440.5
158127284.7
140525938.3
124223329.7
109321669.8
95846263.97
83768199.75
73034860.56
63554430.44
63554430.44
45568523.4
39735643.27
34634312.11
30185442.01
26315241.15
22956299.84
20044498.65
17522240.33
15338386.47
13448094.02
11811483.49
10393248.05
9163176.746
8095164
7166966.659
6358893.769
5654189.437
5038605.364
4500083.451
4028215.36
3613852.249
3249330.102
2928111.947
2644556.387
2393685.204
2171302.847
1973840.606
1798172.337
1641542.138
1501620.065
1376466.286
1264226.874
)
;
    }
    procBoundary10to11
    {
        type            processor;
        value           nonuniform List<scalar> 
51
(
7.187379921e+10
7.187379921e+10
7.187379921e+10
7.187379921e+10
7.187379921e+10
7.187379921e+10
7.187379921e+10
7.187379921e+10
7.187379921e+10
7.187379921e+10
7.187379922e+10
7.187379924e+10
7.187379934e+10
7.187379975e+10
7.187380154e+10
7.187380974e+10
7.187384857e+10
7.187403451e+10
7.187491918e+10
7.187902611e+10
7.189730668e+10
7.197392973e+10
7.226902316e+10
7.32590312e+10
7.564729742e+10
7.605119484e+10
6.212174802e+10
4.230786079e+10
2.864495848e+10
1.986938386e+10
1.397031813e+10
9898792212
7059182584
5069456973
2234654164
2234654164
1661404122
1245750528
941903797.5
718042352.5
551828609
427488897.1
333791377.4
262678577.9
208316058.9
166451118.4
133973230.8
108595557.6
88628246.08
72812237.82
60201809.69
)
;
    }
}


// ************************************************************************* //
