/*--------------------------------*- C++ -*----------------------------------*\
  =========                 |
  \\      /  F ield         | OpenFOAM: The Open Source CFD Toolbox
   \\    /   O peration     | Website:  https://openfoam.org
    \\  /    A nd           | Version:  7
     \\/     M anipulation  |
\*---------------------------------------------------------------------------*/
FoamFile
{
    version     2.0;
    format      ascii;
    class       volVectorField;
    location    "0.0006";
    object      grad(generalizedNewtonian:nu);
}
// * * * * * * * * * * * * * * * * * * * * * * * * * * * * * * * * * * * * * //

dimensions      [0 1 -1 0 0 0 0];

internalField   nonuniform List<vector> 
1166
(
(-209477.9726 0 1226833.39)
(-437174.8342 0 1223197.198)
(-202755.8055 3.091326197e-07 1193571.637)
(-424902.5894 0 1189825.099)
(-688027.1775 0 1183926.963)
(-955886.9349 -4.783784015e-08 1174066.909)
(-1197905.121 -3.825549727e-08 1161732.141)
(-1430978.679 0 1146502.782)
(-1651000.569 2.799936073e-08 1128657.752)
(-1854830.235 -2.49501226e-08 1108831.109)
(-2042787.486 0 1087039.964)
(-2214884.566 2.082238729e-08 1063009.538)
(-2369610.813 0 1037554.832)
(-2508319.962 0 1010340.595)
(-2629549.344 0 982224.4246)
(-2734286.827 0 952921.1132)
(-2822239.701 0 922857.0457)
(-2893875.785 0 891911.2556)
(-2949896.948 -7.27474002e-09 860555.2298)
(-2990509.88 -7.050614076e-09 828654.6532)
(-3017170.919 0 796687.1902)
(-3029244.089 0 764387.1532)
(-3029068.019 -6.536246209e-09 732247.1552)
(-3016342.171 0 700237.0819)
(-2992729.648 0 668576.5331)
(-2959741.04 0 637435.5822)
(-2916898.803 0 606766.5087)
(-2866793.454 0 576837.7129)
(-2809417.394 0 547621.9821)
(-2745886.114 0 519262.8768)
(-2678349.382 0 491857.7739)
(-2605799.237 0 465375.1237)
(-2530269.027 0 439925.9248)
(-2453300.736 0 415563.6611)
(-2373851.355 -2.859734959e-09 392236.3414)
(-2293753.711 0 369975.6153)
(-2213621.076 0 348794.7474)
(-2133255.632 -1.419748872e-09 328685.2877)
(-2054101.341 0 309607.6109)
(-1975831.566 0 291584.9103)
(-1898952.753 0 274569.1829)
(-1824436.25 -1.421295763e-09 258506.7033)
(-1751315.323 0 243388.6297)
(-1680531.171 0 229159.3378)
(-1612408.77 0 215772.2379)
(-1546424.727 0 203228.7674)
(-1483314.206 -1.442770861e-09 191423.5986)
(-1422403.164 7.246602762e-10 180376.1869)
(-1363975.344 -7.282813645e-10 170007.6531)
(-1307782.142 1.464477323e-09 160258.1697)
(-1256129.25 7.365233097e-10 151167.1918)
(-1217275.768 0 142560.7832)
(-195445.1361 -3.139469288e-07 1161924.356)
(-411222.3451 0 1158282.187)
(-666454.7813 0 1152422.585)
(-927025.0391 -4.858284776e-08 1142548.012)
(-1162473.753 3.885127326e-08 1130175.248)
(-1387023.068 0 1115160.796)
(-1598691.098 0 1097774.071)
(-1796854.256 0 1077747.12)
(-1978053.439 -2.298746896e-08 1055958.488)
(-2143144.376 0 1032501.134)
(-2292874.31 0 1007220.512)
(-2425531.061 1.8464912e-08 980795.5519)
(-2542268.754 0 952902.9988)
(-2642096.437 0 924169.6805)
(-2725771.396 0 894334.3063)
(-2793603.375 7.650774805e-09 863984.1504)
(-2846051.91 0 832963.0829)
(-2884115.512 0 801738.5007)
(-2907459.869 0 770097.6353)
(-2918040.728 0 738498.7942)
(-2915752.387 0 706943.9628)
(-2902262.647 0 675654.7078)
(-2878353.05 0 644745.2511)
(-2844332.582 0 614250.7196)
(-2802648.755 0 584411.6522)
(-2752609.911 0 555230.8036)
(-2696202.994 0 526843.4254)
(-2634970.091 0 499355.7214)
(-2568280.199 2.970901372e-09 472750.4093)
(-2498376.217 0 447122.1401)
(-2425692.743 0 422554.1992)
(-2350474.749 -2.916296665e-09 399000.8315)
(-2274464.336 0 376471.6009)
(-2197163.493 0 355029.1877)
(-2119637.893 0 334637.2443)
(-2043108.883 1.441859479e-09 315266.4175)
(-1966727.106 1.440745643e-09 296951.9175)
(-1891767.889 0 279639.1482)
(-1818564.287 -1.441585063e-09 263286.1282)
(-1746691.667 0 247891.2125)
(-1677167.407 0 233356.1697)
(-1609472.449 0 219737.1403)
(-1544099.312 -1.454140112e-09 206939.4168)
(-1481467.619 -7.296571404e-10 194888.2343)
(-1420871.15 0 183613.423)
(-1363001.627 0 172999.568)
(-1307173.489 -7.396233304e-10 163082.749)
(-1253356.998 -7.436422569e-10 153784.9665)
(-1204278.358 0 145054.2302)
(-1167233.31 -7.526694223e-10 136854.3987)
(-189309.6538 -3.188362179e-07 1130032.495)
(-399652.6404 0 1126542.589)
(-646796.816 0 1121100.697)
(-897961.8891 0 1111635.095)
(-1125563.551 3.945632809e-08 1099299.737)
(-1344028.774 0 1084072.917)
(-1548799.118 0 1066734.34)
(-1738709.138 0 1047247.748)
(-1914827.164 0 1025528.536)
(-2074465.373 0 1002321.794)
(-2217957.823 0 977643.7842)
(-2345979.48 -1.875247746e-08 951400.0595)
(-2457212.11 8.868283111e-09 924096.0254)
(-2552658.701 8.441648895e-09 895553.5529)
(-2632144.237 0 866344.6897)
(-2696370.656 0 836361.9985)
(-2745842.15 0 806018.2734)
(-2780527.845 7.271931148e-09 775159.9328)
(-2801984.982 0 744211.806)
(-2810304.94 0 713212.5193)
(-2807101.946 0 682411.0587)
(-2792523.3 0 651796.5926)
(-2767610.487 0 621562.2345)
(-2734377.673 0 591888.3508)
(-2692295.343 0 562809.5984)
(-2643581.651 0 534458.766)
(-2588686.774 0 506922.8496)
(-2528174.553 -3.042874094e-09 480233.9517)
(-2464148.393 0 454460.6553)
(-2396081.99 0 429709.797)
(-2325430.728 0 405953.6387)
(-2253429.563 -2.961713951e-09 383181.7571)
(-2179552.765 1.474750674e-09 361481.6651)
(-2105407 1.47001948e-09 340802.7579)
(-2031216.486 1.466568578e-09 321159.3323)
(-1957133.358 0 302555.641)
(-1884446.037 -1.463183263e-09 284918.7407)
(-1812492.195 -1.463109703e-09 268309.3709)
(-1742020.395 -1.464035756e-09 252632.7353)
(-1673685.962 0 237811.333)
(-1606846.483 0 223917.0454)
(-1542412.552 0 210828.2512)
(-1480029.746 0 198565.2996)
(-1419824.545 1.482041082e-09 187052.5406)
(-1362261.877 0 176207.8611)
(-1306727.852 -7.474071873e-10 166077.4934)
(-1253666.334 0 156541.5173)
(-1202325.481 7.552234563e-10 147652.2827)
(-1155228.777 0 139327.7446)
(-1119582.663 0 131442.2221)
(-182770.3687 0 1099171.726)
(-387930.2924 0 1095598.303)
(-627923.6591 0 1089892.754)
(-871008.0751 0 1080251.385)
(-1090711.377 0 1067968.109)
(-1301027.629 0 1053304.405)
(-1499720.847 0 1036153.443)
(-1684084.221 0 1016854.384)
(-1852968.773 -2.370904075e-08 995786.1753)
(-2007347.298 0 972867.3943)
(-2145755.212 0 948402.6833)
(-2267997.584 0 922626.0883)
(-2374865.177 0 895519.9833)
(-2465789.974 0 867594.4354)
(-2541654.942 0 838790.8304)
(-2602461.187 1.578186202e-08 809454.966)
(-2648473.156 0 779497.5137)
(-2680853.925 0 749310.1176)
(-2699901.437 0 718969.2539)
(-2707080.693 0 688699.4933)
(-2702157.375 -6.846405767e-09 658523.1861)
(-2686662.011 0 628632.4002)
(-2662084.272 0 599198.9252)
(-2628247.487 0 570288.8631)
(-2587441.755 0 542019.4263)
(-2539245.856 0 514499.8907)
(-2485284.878 0 487772.9862)
(-2427051.104 0 461891.5081)
(-2364282.924 0 436992.2413)
(-2298820.71 0 413034.9381)
(-2230663.198 0 390075.7561)
(-2160563.355 0 368134.6849)
(-2090063.813 0 347180.7807)
(-2018408.452 0 327284.0424)
(-1946889.89 0 308396.4085)
(-1876322.841 0 290464.6297)
(-1806159.981 0 273562.1779)
(-1737527.596 0 257564.922)
(-1670109.509 0 242505.5185)
(-1604289.636 0 228329.2052)
(-1540819.893 0 214960.9552)
(-1478958.971 0 202446.0563)
(-1419387.032 0 190665.5683)
(-1361974.023 0 179613.0272)
(-1306661.243 0 169260.0163)
(-1253885.948 0 159507.5565)
(-1203024.419 0 150415.3966)
(-1154214.143 0 141860.4032)
(-1109145.276 0 133892.0108)
(-1074903.117 0 126360.2961)
(-176525.1681 0 1068213.304)
(-375779.5621 0 1064824.242)
(-607822.1471 0 1059139.997)
(-842579.4153 0 1049619.78)
(-1056578.929 0 1037356.575)
(-1261206.483 0 1022824.555)
(-1452329.111 0 1006026.444)
(-1630006.9 -2.654106324e-08 987179.0949)
(-1794172.395 0 966269.3514)
(-1942137.077 0 943751.9371)
(-2075064.309 0 919680.6367)
(-2192750.128 0 894163.3094)
(-2294822.262 0 867669.1126)
(-2382102.377 0 840178.2691)
(-2454094.794 0 811973.0968)
(-2511362.689 0 783031.7211)
(-2554670.876 0 753717.2387)
(-2584520.34 0 724143.8636)
(-2602022.242 0 694508.5962)
(-2607133.64 0 664868.2587)
(-2601404.626 0 635413.4115)
(-2585546.612 0 606287.1904)
(-2560228.707 0 577615.0935)
(-2527296.181 0 549488.4461)
(-2486456.051 0 522043.3667)
(-2439653.938 0 495305.9382)
(-2387185.187 0 469390.7389)
(-2330022.819 0 444378.5654)
(-2269894.881 0 420272.682)
(-2206034.712 0 397134.0143)
(-2140123.01 -3.070336482e-09 374971.6353)
(-2073047.475 0 353771.6628)
(-2004542.583 0 333615.089)
(-1936106.071 0 314406.7008)
(-1867455.996 0 296243.3258)
(-1799293.825 0 279048.1651)
(-1732545.018 1.509112245e-09 262755.5806)
(-1666404.88 0 247419.2717)
(-1601902.294 0 232936.8683)
(-1539173.53 0 219316.3642)
(-1478074.593 0 206535.9348)
(-1419248.459 0 194477.7741)
(-1362098.469 0 183206.0621)
(-1307181.393 0 172602.1996)
(-1254454.953 0 162653.6002)
(-1203785.51 -7.708681248e-10 153352.6183)
(-1155435.865 0 144593.1764)
(-1108623.587 0 136433.7454)
(-1065660.028 0 128748.8332)
(-1032756.138 0 121551.5945)
(-170829.2709 0 1037383.217)
(-364834.811 0 1034051.235)
(-589897.4358 0 1028493.571)
(-816765.7911 0 1019276.523)
(-1023186.451 0 1007522.326)
(-1220777.025 0 993254.5144)
(-1406832.477 0 976586.2932)
(-1578607.403 -1.34772017e-08 957974.7499)
(-1735723.434 0 937441.9367)
(-1879226.432 0 915096.7277)
(-2006856.87 0 891388.4873)
(-2119640.721 0 866465.3888)
(-2217980.573 0 840417.9826)
(-2300925.513 0 813461.9809)
(-2369311.607 0 785652.4374)
(-2423494.123 0 757324.8568)
(-2464165.835 0 728629.2108)
(-2492061.987 0 699730.6891)
(-2507342.6 0 670723.0256)
(-2511494.355 7.222339244e-09 641774.3052)
(-2504629.383 7.061312677e-09 613060.2457)
(-2488108.905 0 584706.4167)
(-2463281.337 0 556794.0447)
(-2430088.675 0 529488.4794)
(-2390582.865 0 502815.1011)
(-2344350.765 0 476903.9648)
(-2293226.315 -3.218583719e-09 451821.9036)
(-2238312.391 0 427603.5938)
(-2179334.083 0 404317.5337)
(-2118127.241 0 381912.0981)
(-2054438.936 0 360544.0662)
(-1989333.95 0 340144.5913)
(-1923990.342 0 320667.251)
(-1857784.283 0 302229.9073)
(-1792046.715 0 284717.9386)
(-1726897 0 268174.6188)
(-1662379.485 0 252556.6709)
(-1599407.229 0 237756.4463)
(-1537484.795 0 223888.5012)
(-1477349.657 0 210825.2026)
(-1419127.389 0 198516.6395)
(-1362513.438 0 186994.0438)
(-1308130.185 0 176122.2058)
(-1255475.902 0 165977.4502)
(-1205035.099 0 156437.1807)
(-1156729.924 0 147500.0304)
(-1110301.761 0 139147.8769)
(-1065731.661 0 131271.3767)
(-1024472.707 0 123944.8015)
(-993025.0768 0 116995.085)
(-164970.5865 0 1007555.336)
(-353520.8833 0 1004289.06)
(-571479.1338 0 998789.5425)
(-791202.5521 0 989710.4086)
(-991936.1831 0 978009.7745)
(-1183127.266 0 963979.8724)
(-1361826.44 0 947673.8344)
(-1527778.288 0 929264.7226)
(-1680138.179 0 908953.2984)
(-1817458.146 0 887132.1328)
(-1940958.178 -2.125095688e-08 863881.0859)
(-2049568.083 0 839402.6362)
(-2143167.237 -9.433767976e-09 813814.3404)
(-2222462.263 0 787258.2469)
(-2287408.226 0 760038.9357)
(-2338867.494 0 732338.8566)
(-2377178.249 0 704286.94)
(-2402713.724 0 676017.4765)
(-2416634.178 7.521649285e-09 647673.7098)
(-2419224.738 0 619465.9175)
(-2411930.695 0 591480.2523)
(-2395212.909 0 563897.8906)
(-2369936.629 3.45107832e-09 536798.8074)
(-2337756.412 0 510248.0967)
(-2298347.893 0 484394.3223)
(-2253793.024 0 459239.7901)
(-2204105.876 0 435002.9589)
(-2150298.461 0 411607.9076)
(-2093754.553 0 389032.8436)
(-2034124.077 0 367468.5109)
(-1972988.93 0 346797.2477)
(-1910461.085 -1.575283619e-09 327126.6239)
(-1847057.734 0 308424.1944)
(-1783953.844 0 290606.3251)
(-1720608.348 0 273806.5766)
(-1657998.439 0 257894.4492)
(-1596374.651 0 242821.7989)
(-1535663.049 0 228666.3657)
(-1476753.574 0 215284.7985)
(-1419045.347 0 202760.437)
(-1363119.944 7.811683971e-10 190968.7428)
(-1309174.003 0 179856.9079)
(-1256859.045 0 169473.8151)
(-1206740.19 0 159678.5088)
(-1158398.738 0 150557.5842)
(-1112211.49 0 141975.867)
(-1067849.506 0 133943.5982)
(-1025034.076 0 126429.5813)
(-985671.5116 0 119350.7453)
(-955647.5716 0 112728.4996)
(-159670.7035 0 978063.6837)
(-343195.1674 0 974881.7403)
(-554581.017 0 969426.9049)
(-766607.4932 0 960471.1601)
(-960297.2395 0 948993.3719)
(-1145420.432 0 935102.8113)
(-1319102.329 0 918953.9332)
(-1479024.334 0 900894.8324)
(-1625436.747 0 881111.9615)
(-1759047.175 0 859740.6603)
(-1877252.698 -1.079095553e-08 836974.5691)
(-1981163.45 0 812884.2012)
(-2071058.727 -1.916137166e-08 787710.1086)
(-2146591.229 0 761729.6408)
(-2208740.152 0 735150.7088)
(-2257430.744 0 708061.0824)
(-2293258.249 0 680640.2921)
(-2317037.853 0 653004.6656)
(-2329232.168 0 625400.5679)
(-2331173.63 0 597892.9099)
(-2322969.615 0 570700.1992)
(-2305981.764 0 543880.6834)
(-2281216.542 0 517539.835)
(-2248914.161 0 491807.6881)
(-2210898.375 0 466683.5347)
(-2167101.992 0 442420.7555)
(-2119060.076 0 418905.7482)
(-2067044.377 0 396258.6553)
(-2011806.02 3.259542846e-09 374525.4089)
(-1954785.045 0 353636.5952)
(-1895490.074 0 333754.4797)
(-1835290.323 0 314777.3404)
(-1774607.323 1.593219647e-09 296719.5746)
(-1713530.445 0 279639.3412)
(-1653150.273 0 263400.6059)
(-1592850.874 0 248107.0925)
(-1533558.027 0 233655.5691)
(-1475735.74 1.580643539e-09 219997.6887)
(-1418956.865 0 207200.3609)
(-1363987.122 0 195098.1518)
(-1310332.832 0 183790.1511)
(-1258492.11 0 173147.0402)
(-1208625.787 -7.977094165e-10 163130.3848)
(-1160447.064 0 153783.7683)
(-1114414.859 0 144967.9244)
(-1070081.36 0 136763.2122)
(-1027691.229 0 129024.3224)
(-986718.3955 0 121805.6021)
(-948893.1164 0 115041.4362)
(-919934.4286 0 108650.1501)
(-154271.7273 0 948965.1895)
(-332504.9765 0 945836.4939)
(-537132.5171 0 940405.0872)
(-742651.7278 -2.706654606e-08 931573.4676)
(-930841.1275 0 920253.5174)
(-1109635.491 0 906650.5133)
(-1276741.001 0 890946.9911)
(-1431966.8 0 873312.8458)
(-1574032.359 0 853948.5562)
(-1701594.366 0 832963.1249)
(-1815663.656 0 810529.0712)
(-1915392.248 0 786869.0013)
(-2001259.999 -1.94597834e-08 762266.9932)
(-2073929.892 0 736941.119)
(-2132898.922 -8.864642256e-09 710934.2774)
(-2178993.731 0 684476.7123)
(-2212668.086 -8.232064208e-09 657655.7546)
(-2234565.297 0 630756.075)
(-2245711.979 0 603819.1933)
(-2246400.185 7.565055458e-09 577101.124)
(-2238059.745 0 550589.0833)
(-2220863.182 3.624261772e-09 524574.0673)
(-2195945.624 0 499044.6939)
(-2164616.382 0 474020.7238)
(-2127062.941 0 449790.2195)
(-2084947.841 0 426233.0978)
(-2037905.846 0 403531.4929)
(-1987503.528 -3.338508144e-09 381640.6076)
(-1934448.387 0 360611.0945)
(-1878881.817 -1.643146888e-09 340527.1178)
(-1822221.854 0 321270.0593)
(-1764064.813 0 303020.5382)
(-1705548.106 0 285661.1166)
(-1647224.437 -1.61284097e-09 269160.3207)
(-1588785.181 0 253593.8856)
(-1531291.127 0 238798.8806)
(-1474372.8 0 224934.2417)
(-1418685.659 0 211853.8295)
(-1364563.508 0 199486.8065)
(-1311588.899 0 187918.5852)
(-1260450.416 0 176979.2828)
(-1210719.263 0 166778.085)
(-1162849.123 -8.101326323e-10 157177.1738)
(-1116885.691 0 148166.9427)
(-1072615.348 0 139756.8353)
(-1030329.016 0 131810.9101)
(-989588.4215 0 124421.0721)
(-950488.4863 0 117443.664)
(-914208.4013 0 110963.8572)
(-886389.2795 8.386565436e-10 104823.4945)
(-149308.0971 3.552609828e-07 920199.0694)
(-322654.3366 0 917166.3896)
(-521112.0675 0 911834.4896)
(-719459.5129 0 903237.2488)
(-901229.1483 0 892271.3729)
(-1074844.168 0 879022.2023)
(-1237422.707 0 863689.6135)
(-1386777.63 0 846397.1863)
(-1523014.58 1.300626008e-08 827304.8993)
(-1646794.313 0 806655.4048)
(-1755896.208 0 784631.5852)
(-1851747.892 0 761544.0997)
(-1934676.334 0 737605.0731)
(-2003746.39 -9.406047099e-09 712805.4552)
(-2060015.952 0 687432.7663)
(-2103562.122 0 661542.8541)
(-2135211.695 0 635460.1693)
(-2155664.62 0 609199.6934)
(-2165393.168 0 583056.595)
(-2165559.852 -7.682870678e-09 556994.7146)
(-2156486.375 3.755788138e-09 531335.7447)
(-2139526.921 -3.68070461e-09 505976.597)
(-2114880.385 0 481209.4421)
(-2083819.572 3.557078552e-09 457074.3835)
(-2047682.943 0 433548.5258)
(-2006148.447 0 410820.0428)
(-1960967.342 0 388775.3578)
(-1912013.585 1.695250383e-09 367676.8485)
(-1860510.858 0 347412.0757)
(-1807266.904 0 327959.0852)
(-1752217.432 0 309479.9604)
(-1696688.819 0 291802.4741)
(-1640324.426 0 275118.4128)
(-1583970.548 1.637958726e-09 259279.341)
(-1528152.742 0 244209.5197)
(-1472650.944 0 230060.7662)
(-1418406.324 0 216643.2692)
(-1364927.833 -8.151297782e-10 204083.1146)
(-1312778.982 -8.156457019e-10 192236.729)
(-1262245.118 0 181051.4396)
(-1212980.297 0 170601.4255)
(-1165572.58 0 160721.8928)
(-1119647.502 8.227493216e-10 151530.1197)
(-1075594.38 0 142871.7154)
(-1033233.416 0 134763.2544)
(-992538.2696 8.3279313e-10 127178.099)
(-953663.7597 0 120018.548)
(-916080.9502 0 113364.6837)
(-881388.5988 4.232131749e-10 107077.6785)
(-854741.1515 0 101215.7192)
(-144384.0729 1.803968433e-07 892335.4969)
(-312726.9849 0 889410.4989)
(-504976.4384 0 884199.3729)
(-697588.5446 -2.791615897e-08 875807.5378)
(-874297.0043 -2.23243052e-08 865110.1932)
(-1041848.159 0 852102.5332)
(-1198046.581 0 836969.8566)
(-1342635.083 0 819896.4956)
(-1474686.909 1.320881479e-08 801184.817)
(-1592979.79 0 780970.835)
(-1698722.953 0 759496.5806)
(-1791221.479 0 737049.8413)
(-1870161.936 0 713573.4598)
(-1936459.038 -9.552533416e-09 689406.4428)
(-1989805.027 0 664567.2002)
(-2031209.661 0 639419.0805)
(-2061025.727 0 613948.2473)
(-2079909.824 -8.228885868e-09 588482.4279)
(-2088730.888 0 562966.4571)
(-2087968.35 0 537754.1575)
(-2078820.216 0 512734.0687)
(-2061481.074 0 488219.6589)
(-2037521.793 0 464137.6568)
(-2007294.935 0 440789.2509)
(-1971524.656 0 418092.5566)
(-1931534.805 0 395996.0474)
(-1887313.218 0 374799.6218)
(-1840388.321 3.443303178e-09 354312.1718)
(-1790518.681 0 334775.882)
(-1738846.277 0 316084.4889)
(-1686205.928 0 298178.1202)
(-1632382.911 0 281241.1255)
(-1578548.427 0 265070.5788)
(-1524246.017 0 249825.71)
(-1470354.65 1.659562667e-09 235385.0782)
(-1417433.987 0 221698.8361)
(-1365067.785 8.278659293e-10 208866.0449)
(-1314043.703 0 196693.8034)
(-1263949.744 0 185320.9196)
(-1215301.921 -8.294086511e-10 174593.9087)
(-1168255.012 0 164493.1777)
(-1122611.061 0 155063.1611)
(-1078815.837 0 146150.447)
(-1036466.404 0 137863.534)
(-995923.25 0 130035.2281)
(-956907.8544 0 122736.8594)
(-919515.8852 0 115884.1637)
(-883593.5922 4.273038e-10 109444.509)
(-850228.7059 8.596082823e-10 103451.4991)
(-824569.5316 0 97756.8233)
(-139914.5455 0 865204.4422)
(-303683.2439 0 862351.2439)
(-490181.7575 0 857196.4771)
(-676169.9252 2.835091416e-08 848944.1036)
(-846736.0219 -2.267197507e-08 838319.0537)
(-1009127.136 0 825439.0299)
(-1160911.599 0 810601.5676)
(-1300275.678 0 793877.3266)
(-1427217.379 -1.341452363e-08 775592.0257)
(-1542305.723 0 756001.8618)
(-1643795.043 0 735091.4708)
(-1732342.305 0 713074.5297)
(-1808495.996 0 690245.9768)
(-1871523.512 0 666586.0065)
(-1922633.568 0 642494.9047)
(-1961823.722 0 617931.9229)
(-1989920.921 0 593253.44)
(-2007497.748 4.178519636e-09 568389.2072)
(-2015210.74 -8.125874728e-09 543718.8899)
(-2014028.765 3.962017122e-09 519128.9355)
(-2004268.221 0 494947.4961)
(-1987362.969 3.796241092e-09 471076.6203)
(-1963589.95 0 447888.1553)
(-1934171.749 0 425179.219)
(-1899349.322 3.616558086e-09 403186.3285)
(-1860104.093 -3.570971212e-09 381946.9567)
(-1817679.339 0 361359.822)
(-1771859.541 -1.748463908e-09 341682.6051)
(-1724110.579 0 322715.7967)
(-1674213.496 0 304709.082)
(-1623170.778 0 287527.0693)
(-1571740.08 -1.70182853e-09 271117.1222)
(-1519542.468 -1.694811055e-09 255619.4838)
(-1467676.537 0 240831.6627)
(-1415881.91 -1.685408037e-09 226963.943)
(-1364813.515 1.682817546e-09 213840.0956)
(-1314792.023 1.68151757e-09 201417.2387)
(-1265537.145 8.407165167e-10 189780.5251)
(-1217718.426 0 178744.6594)
(-1170965.645 0 168455.795)
(-1125776.567 0 158747.4262)
(-1082117.157 0 149644.3697)
(-1039928.345 0 141138.8276)
(-999480.423 0 133087.446)
(-960448.1933 0 125606.7137)
(-923157.5135 0 118530.0712)
(-887261.776 0 111960.8237)
(-852806.1135 -8.679169197e-10 105760.6792)
(-820773.1829 -4.364977403e-10 99978.35965)
(-796056.3258 -4.392263353e-10 94520.92204)
(-135365.6028 0 838244.5032)
(-294328.7759 0 835421.0928)
(-474982.9519 0 830276.1481)
(-655413.4916 0 822138.8759)
(-821079.0288 0 811809.5804)
(-978120.6831 0 799241.2283)
(-1124231.223 0 784756.1437)
(-1259312.953 0 768509.0644)
(-1382902.878 0 750819.5173)
(-1493027.367 0 731607.2548)
(-1590824.78 0 711177.6709)
(-1676412.885 0 689815.5049)
(-1748919.716 1.035031684e-08 667449.8155)
(-1809610.954 0 644524.7706)
(-1858125.825 0 620972.2212)
(-1895456.624 0 597184.1555)
(-1921863.058 0 573069.0538)
(-1938175.128 0 549058.7378)
(-1945112.387 -4.126212002e-09 525008.9855)
(-1943119.666 0 501271.0949)
(-1933403.303 0 477720.1593)
(-1916411.862 0 454761.8311)
(-1893347.605 0 432182.8518)
(-1864246.578 0 410293.0076)
(-1830569.933 0 388951.2652)
(-1792580.096 0 368418.0536)
(-1751048.152 0 348648.4951)
(-1707120.977 0 329533.1568)
(-1660629.318 0 311349.4495)
(-1612883.937 0 293862.5725)
(-1563685.886 0 277330.8101)
(-1513826.273 0 261575.9169)
(-1463879.201 0 246545.4297)
(-1413720.514 0 232407.2717)
(-1364271.088 0 218947.975)
(-1315132.06 0 206340.6863)
(-1266913.611 0 194408.1556)
(-1219789.167 0 183146.6361)
(-1173640.523 0 172602.962)
(-1129005.497 0 162606.964)
(-1085547.444 0 153309.8068)
(-1043732.684 0 144526.4921)
(-1003239.812 0 136321.2407)
(-964242.2416 0 128618.0424)
(-926942.5922 0 121363.956)
(-891036.3098 0 114614.4859)
(-856703.3948 0 108219.3748)
(-823544.9809 0 102293.0137)
(-792833.6552 0 96677.86842)
(-769108.6366 0 91451.1376)
(-131124.1091 0 811592.6547)
(-285636.5278 6.457335601e-08 808884.8377)
(-460933.4677 0 803854.3285)
(-635571.3143 0 795955.1188)
(-795692.8814 2.338364287e-08 785863.0101)
(-947886.1053 0 773700.4807)
(-1090131.847 0 759758.5679)
(-1220745.797 0 744010.0559)
(-1339155.935 0 726667.2134)
(-1445973.499 0 707920.0758)
(-1540370.648 0 688054.3978)
(-1622102.184 1.111358449e-08 667079.9781)
(-1692203.536 0 645420.9353)
(-1749939.871 0 622973.2452)
(-1796488.957 0 600162.5214)
(-1831770.774 9.209633083e-09 576908.5437)
(-1856832.431 0 553600.8462)
(-1872072.426 0 530237.1946)
(-1878040.478 0 507010.6903)
(-1875717.819 0 483913.0653)
(-1865701.697 0 461293.7523)
(-1849114.735 0 438963.7574)
(-1826064.412 0 417240.701)
(-1797935.924 -3.783895126e-09 395939.7862)
(-1764919.543 0 375437.5869)
(-1728277.104 0 355500.389)
(-1688080.206 0 336395.9787)
(-1645224.402 -1.803347766e-09 318066.3123)
(-1600699.717 1.78811377e-09 300403.2146)
(-1554319.846 0 283664.6932)
(-1507222.188 -1.764244037e-09 267600.8248)
(-1459092.933 0 252432.1166)
(-1410812.898 0 238001.2821)
(-1362846.753 -1.742402915e-09 224313.218)
(-1315015.996 0 211443.0719)
(-1268052.078 0 199189.7014)
(-1221612.067 8.671499995e-10 187735.7792)
(-1176290.266 0 176889.0763)
(-1132053.376 0 166696.8851)
(-1088995.607 0 157153.7213)
(-1047497.023 0 148112.842)
(-1007184.627 0 139710.2192)
(-968431.7278 0 131744.0589)
(-930986.6673 8.783260141e-10 124346.9083)
(-895118.4596 0 117369.9386)
(-860668.3579 0 110837.0575)
(-827590.8565 0 104724.2794)
(-795847.1868 0 98962.70992)
(-766264.5269 0 93608.30931)
(-743413.622 0 88509.42798)
(-127065.1693 -1.918998201e-07 785689.3324)
(-277048.5071 0 783123.1637)
(-446967.8933 0 778212.4202)
(-616455.1885 2.969622854e-08 770530.6589)
(-772235.4676 0 760808.3056)
(-919932.4549 0 748989.4658)
(-1056898.087 0 735239.9947)
(-1182943.148 0 719861.9729)
(-1298091.994 0 703079.3406)
(-1400644.435 0 684782.283)
(-1491295.156 0 665356.6605)
(-1570596.026 0 645121.1152)
(-1637390.264 0 623923.9747)
(-1693047.141 0 602208.017)
(-1737249.559 0 579969.1565)
(-1771001.164 0 557465.1302)
(-1794762.998 0 534916.8395)
(-1808918.319 4.376799752e-09 512202.0577)
(-1814167.705 -4.255732843e-09 489690.0443)
(-1811478.17 0 467367.136)
(-1801515.263 0 445430.0766)
(-1784740.683 3.976381235e-09 423927.7352)
(-1762309.546 3.905225248e-09 402788.4279)
(-1734553.595 0 382365.8357)
(-1702722.074 0 362414.9324)
(-1666843.966 0 343279.6783)
(-1628209.636 0 324721.1562)
(-1586774.513 0 307036.5786)
(-1543454.874 0 290090.6973)
(-1499029.354 0 273849.1168)
(-1453254.545 0 258465.6778)
(-1407183.122 0 243712.8931)
(-1360659.322 0 229858.6289)
(-1314399.324 0 216683.3487)
(-1268528.47 0 204223.3192)
(-1223098.623 0 192510.6478)
(-1178694.831 8.806546724e-10 181362.7318)
(-1134996.272 0 170966.0735)
(-1092601.667 0 161111.4762)
(-1051245.1 0 151906.9266)
(-1011195.282 0 143254.2095)
(-972631.3964 0 135091.6476)
(-935258.5816 0 127487.8391)
(-899428.9911 -8.920047381e-10 120280.7701)
(-864879.9167 -8.956268319e-10 113597.4466)
(-831846.9808 0 107263.5113)
(-800071.3169 0 101384.8604)
(-769535.2861 0 95834.72039)
(-741076.0067 0 90648.5492)
(-719054.1058 -4.600686088e-10 85759.8277)
(-123376.958 0 760543.7214)
(-269151.8204 0 758105.7219)
(-434066.2405 4.106888863e-08 753347.6475)
(-598476.0023 0 745909.2775)
(-749135.8133 0 736330.159)
(-891758.3529 0 724831.8914)
(-1025102.007 0 711422.14)
(-1147664.844 0 696511.135)
(-1257980.179 0 679947.4078)
(-1357099.823 0 662210.6122)
(-1445207.762 0 643557.1554)
(-1520824.458 0 623757.7799)
(-1585369.24 0 603293.0734)
(-1638458.819 0 582195.9422)
(-1680889.626 0 560647.4942)
(-1713195.468 0 539015.7758)
(-1735450.325 0 516991.3791)
(-1748527.429 0 495108.2517)
(-1753253.874 0 473165.5891)
(-1750221.117 0 451662.5672)
(-1740212.221 0 430303.0286)
(-1723598.652 0 409461.1757)
(-1701443.841 0 389089.2912)
(-1674575.408 0 369258.8485)
(-1643265.875 0 350132.4416)
(-1608724.714 0 331505.2015)
(-1570983.622 -1.878230616e-09 313730.2219)
(-1531217.466 0 296524.8367)
(-1489377.982 0 280218.4836)
(-1446252.333 0 264590.3008)
(-1402282.314 0 249662.034)
(-1357620.009 0 235564.4861)
(-1313112.43 0 222081.1179)
(-1268441.2 0 209434.658)
(-1224321.46 0 197399.2742)
(-1180650.186 0 186073.672)
(-1137703.815 0 175413.441)
(-1095917.017 0 165296.6527)
(-1054994.229 8.948907397e-10 155872.3134)
(-1015427.906 0 146923.888)
(-976911.1805 0 138609.903)
(-939760.5423 0 130746.8221)
(-903888.4351 0 123381.9947)
(-869323.7498 0 116488.9606)
(-836230.0343 0 109979.059)
(-804386.6893 0 103935.5327)
(-773920.0917 0 98195.51093)
(-744480.6475 0 92880.05114)
(-717149.1331 -9.286619184e-10 87831.92135)
(-696030.4773 0 83147.96786)
(-119819.4921 1.979235112e-07 735787.3633)
(-261405.4374 0 733403.6155)
(-421352.1127 0 728886.0613)
(-580716.7678 0 721761.2362)
(-727393.7935 0 712439.4273)
(-866067.4492 0 701390.5523)
(-994649.5376 0 688374.4057)
(-1112504.139 0 673746.6034)
(-1219959.131 0 657727.5616)
(-1316233.519 0 640681.8561)
(-1400425.984 0 622367.5084)
(-1473699.304 0 603255.7161)
(-1535500.142 0 583374.7561)
(-1586545.96 0 562926.181)
(-1627410.27 0 542277.5038)
(-1657840.227 0 521080.3409)
(-1678842.385 0 499904.0136)
(-1691016.868 0 478539.5177)
(-1695119.468 0 457514.4692)
(-1691792.462 -4.280291995e-09 436503.1433)
(-1681479.317 0 415960.0349)
(-1665297.368 0 395642.0683)
(-1643602.443 0 376008.7856)
(-1617366 0 356805.6776)
(-1586995.483 0 338259.4595)
(-1553180.943 1.928916386e-09 320405.8469)
(-1516904.36 0 303109.7586)
(-1478155.451 0 286660.6825)
(-1437981.029 1.872963794e-09 270775.6097)
(-1396204.15 0 255739.5503)
(-1353747.736 0 241341.36)
(-1310830.977 0 227698.3635)
(-1267672.984 0 214808.8228)
(-1224893.849 9.125419282e-10 202484.8618)
(-1182223.247 9.103997166e-10 190952.408)
(-1140339.305 0 179963.3866)
(-1099002.328 0 169688.279)
(-1058643.229 0 159982.0829)
(-1019445.263 -9.088274202e-10 150832.3028)
(-981226.5328 0 142290.9956)
(-944330.1587 0 134170.0703)
(-908505.9568 0 126633.8956)
(-874084.7298 9.167425779e-10 119487.2242)
(-840832.9594 9.20004561e-10 112845.0748)
(-808969.747 0 106577.7726)
(-778365.5275 0 100712.9174)
(-748957.522 0 95215.01761)
(-720706.2534 0 90034.61337)
(-694364.8166 0 85214.6985)
(-673973.7534 0 80637.84824)
(-116401.0525 0 711960.3564)
(-254409.8466 0 709610.7094)
(-409967.0178 0 705153.5756)
(-564430.21 0 698237.3851)
(-706486.8871 0 689160.5376)
(-840514.6534 0 678184.833)
(-965256.5277 0 665635.8336)
(-1080133.911 0 651676.9302)
(-1183828.579 0 636247.6507)
(-1276313.203 0 619552.1817)
(-1358139.526 0 601911.957)
(-1428421.004 0 583312.3853)
(-1488017.396 0 564062.8277)
(-1537414.27 0 544487.6639)
(-1576047.36 0 524214.3568)
(-1605070.235 0 503824.6042)
(-1624837.608 0 483117.7089)
(-1636265.175 0 462674.2435)
(-1639805.286 0 442149.9375)
(-1635989.293 0 422014.7088)
(-1625749.075 0 401986.743)
(-1609604.876 0 382565.5483)
(-1588523.639 0 363413.4791)
(-1562760.303 0 344970.0464)
(-1533415.539 0 326957.7268)
(-1500635.408 0 309713.7033)
(-1465277.169 0 293091.0845)
(-1428000.18 0 277118.0312)
(-1388831.083 0 261920.5064)
(-1348720.368 0 247256.1404)
(-1307621.694 0 233455.5088)
(-1266363.626 0 220239.7783)
(-1224744.697 0 207782.0331)
(-1183270.384 0 195976.8882)
(-1142383.354 0 184756.2094)
(-1101840.843 0 174249.928)
(-1062243.122 0 164232.1134)
(-1023362.072 0 154914.025)
(-985642.9074 0 146078.3505)
(-948866.2232 0 137802.7517)
(-913197.9668 0 130026.1)
(-878872.3413 0 122686.6933)
(-845638.2386 0 115860.9643)
(-813751.9425 0 109369.9389)
(-783021.79 0 103366.353)
(-753611.3261 0 97658.72282)
(-725300.0268 0 92369.77843)
(-698092.684 0 87360.33696)
(-672731.5348 0 82698.81244)
(-653059.2437 0 78285.71013)
(-113049.3514 2.04136281e-07 688788.5589)
(-247095.3425 0 686481.6583)
(-398207.0479 0 681872.862)
(-548123.8148 0 675076.243)
(-686025.1415 0 666416.349)
(-816777.9516 0 655858.8703)
(-938150.0161 0 643796.8323)
(-1048737.65 -1.64758583e-08 630066.6931)
(-1148997.392 0 615125.8575)
(-1239003.665 0 599140.7618)
(-1317400.653 0 581913.3603)
(-1385385.647 0 563978.9)
(-1443231.886 0 545572.4822)
(-1490043.231 0 526300.7435)
(-1527120.633 0 506811.1459)
(-1554559.258 0 486855.9101)
(-1573514.603 4.803887647e-09 467033.1713)
(-1584156.485 0 447134.8241)
(-1587094.468 4.527098956e-09 427422.2416)
(-1583053.369 -4.414649296e-09 407825.5718)
(-1572691.712 0 388674.5305)
(-1556895.163 -2.114967269e-09 369770.6861)
(-1535985.017 -2.077120651e-09 351482.545)
(-1511023.149 2.043930581e-09 333509.5318)
(-1482234.77 0 316292.347)
(-1450641.459 0 299493.9504)
(-1416351.681 0 283515.9536)
(-1380195.106 0 268082.4246)
(-1342346.733 0 253341.0973)