/*--------------------------------*- C++ -*----------------------------------*\
  =========                 |
  \\      /  F ield         | OpenFOAM: The Open Source CFD Toolbox
   \\    /   O peration     | Website:  https://openfoam.org
    \\  /    A nd           | Version:  7
     \\/     M anipulation  |
\*---------------------------------------------------------------------------*/
FoamFile
{
    version     2.0;
    format      ascii;
    class       volScalarField;
    location    "0.0006";
    object      p;
}
// * * * * * * * * * * * * * * * * * * * * * * * * * * * * * * * * * * * * * //

dimensions      [1 -1 -2 0 0 0 0];

internalField   nonuniform List<scalar> 
1166
(
1467809.312
1467156.152
1467342.382
1466724.028
1466855.992
1466951.462
1467024.146
1467105.854
1467204.714
1467326.49
1467464.363
1467611.861
1467778.215
1467954.931
1468149.034
1468353.559
1468571.156
1468796.839
1469032.806
1469274.824
1469526.075
1469779.745
1470037.812
1470296.779
1470557.227
1470818.639
1471077.56
1471334.815
1471587.784
1471836.876
1472081.616
1472319.867
1472552.257
1472778.739
1472997.787
1473209.346
1473413.408
1473609.958
1473798.729
1473980.319
1474154.611
1474321.283
1474480.86
1474633.401
1474778.956
1474918.311
1475050.924
1475177.649
1475298.045
1475413.232
1475529.704
1475645.544
1466925.076
1466335.845
1466457.229
1466544.895
1466617.662
1466703.906
1466806.799
1466920.897
1467055.822
1467205.198
1467363.824
1467539.447
1467725.636
1467926.674
1468135.526
1468355.329
1468581.96
1468818.22
1469057.935
1469302.663
1469549.519
1469798.999
1470049.459
1470298.653
1470546.937
1470792.033
1471033.933
1471272.185
1471504.849
1471732.051
1471953.969
1472169.165
1472377.035
1472578.218
1472772.207
1472958.555
1473138.12
1473310.635
1473475.746
1473633.934
1473784.751
1473929.705
1474068.299
1474200.042
1474326.048
1474445.651
1474559.855
1474669.651
1474779.793
1474890.241
1466521.935
1465964.983
1466087.911
1466178.656
1466249.63
1466328.211
1466429.472
1466546.188
1466673.46
1466818.839
1466978.111
1467147.308
1467331.167
1467523.529
1467727.246
1467938.712
1468160.162
1468386.011
1468617.427
1468852.237
1469091.007
1469330.054
1469569.288
1469808.427
1470045.529
1470280.241
1470511.64
1470738.472
1470960.209
1471177.378
1471388.652
1471592.816
1471790.781
1471981.869
1472165.989
1472343.399
1472513.538
1472677.606
1472834.746
1472984.309
1473128.007
1473265.189
1473396.654
1473522.153
1473641.234
1473755.076
1473862.916
1473967.264
1474072.361
1474176.487
1466151.562
1465620.404
1465738.626
1465827.069
1465898.354
1465981.332
1466078.811
1466190.784
1466319.055
1466460.052
1466614.256
1466781.738
1466957.823
1467145.675
1467342.188
1467548.933
1467760.952
1467979.042
1468201.467
1468428.502
1468656.955
1468886.346
1469116.187
1469345.036
1469572.077
1469796.728
1470017.669
1470233.762
1470445.875
1470652.632
1470853.529
1471048.309
1471236.276
1471418.288
1471593.74
1471761.949
1471924.23
1472079.513
1472228.565
1472371.373
1472507.532
1472638.264
1472762.806
1472881.683
1472995.304
1473102.987
1473205.931
1473304.493
1473404.284
1473503.757
1465811.696
1465308.844
1465422.919
1465506.875
1465571.674
1465652.277
1465749.993
1465861.81
1465985.019
1466124.24
1466275.783
1466435.9
1466608.112
1466789.883
1466982.041
1467180.273
1467385.062
1467595.1
1467810.314
1468028.075
1468247.639
1468467.86
1468688.215
1468907.351
1469124.909
1469339.334
1469550.103
1469757.189
1469959.493
1470156.728
1470348.226
1470533.197
1470712.494
1470885.014
1471052.069
1471212.916
1471366.754
1471514.709
1471656.178
1471791.781
1471921.84
1472045.43
1472164.036
1472276.977
1472384.681
1472487.684
1472585.11
1472679.224
1472773.443
1472868.08
1465485.191
1465007.943
1465118.266
1465200.871
1465268.681
1465347.982
1465441.064
1465551.011
1465674.047
1465807.638
1465954.067
1466111.548
1466278.887
1466456.618
1466641.15
1466832.7
1467030.382
1467233.726
1467440.586
1467649.835
1467860.728
1468072.544
1468283.576
1468493.891
1468701.782
1468906.889
1469108.733
1469306.4
1469499.574
1469686.754
1469869.476
1470046.457
1470216.605
1470381.555
1470540.224
1470693.186
1470840.114
1470980.037
1471115.162
1471244.511
1471367.713
1471485.805
1471597.872
1471705.544
1471808.088
1471905.907
1471999.224
1472088.207
1472178.331
1472267.633
1465189.558
1464734.641
1464840.611
1464919.765
1464983.902
1465062.015
1465155.867
1465263.05
1465380.958
1465511.696
1465653.887
1465807.251
1465970.706
1466141.518
1466319.814
1466505.116
1466696.51
1466892.36
1467091.131
1467292.353
1467494.843
1467698.2
1467901.256
1468102.415
1468301.452
1468496.992
1468690.693
1468880.179
1469063.608
1469242.904
1469416.418
1469584.999
1469748.083
1469904.532
1470056.368
1470202.149
1470341.282
1470475.361
1470603.3
1470726.643
1470844.387
1470956.249
1471063.555
1471165.378
1471263.392
1471356.513
1471445.164
1471530.495
1471615.823
1471701.712
1464906.458
1464473.859
1464576.591
1464654.193
1464719.28
1464795.701
1464885.695
1464989.424
1465105.347
1465232.816
1465372.265
1465521.643
1465678.894
1465844.064
1466017.076
1466196.529
1466381.323
1466569.541
1466761.096
1466954.4
1467149.498
1467344.855
1467539.245
1467732.31
1467922.076
1468110.462
1468294.942
1468475.39
1468651.548
1468821.899
1468988.145
1469148.837
1469303.827
1469453.982
1469597.747
1469736.695
1469869.987
1469997.282
1470119.907
1470236.451
1470348.722
1470455.767
1470557.542
1470655.316
1470748.052
1470837.091
1470921.198
1471002.468
1471084.303
1471165.534
1464647.487
1464234.531
1464333.471
1464408.164
1464470.461
1464544.43
1464632.75
1464733.932
1464847.574
1464972.696
1465108.104
1465251.597
1465403.618
1465564.353
1465731.812
1465905.442
1466082.956
1466264.692
1466448.643
1466635.101
1466821.726
1467009.918
1467197.067
1467380.824
1467563.794
1467743.4
1467920.206
1468092.601
1468260.312
1468423.892
1468581.499
1468735.328
1468883.915
1469026.564
1469164.329
1469295.676
1469423.187
1469545.472
1469661.703
1469773.509
1469879.569
1469981.819
1470079.265
1470172.24
1470261.442
1470345.627
1470426.283
1470503.266
1470581.52
1470659.226
1464402.492
1464008.042
1464103.319
1464175.354
1464236.529
1464308.882
1464395.916
1464495.325
1464606.2
1464727.748
1464857.593
1464996.557
1465145.081
1465300.537
1465462.942
1465629.642
1465801.4
1465975.817
1466153.708
1466332.192
1466512.663
1466691.879
1466871.045
1467048.933
1467223.682
1467396.201
1467563.917
1467729.345
1467890.366
1468045.734
1468197.288
1468343.011
1468485.341
1468622.349
1468752.844
1468879.24
1468999.897
1469116.725
1469228.37
1469334.419
1469436.425
1469533.117
1469626.497
1469715.332
1469800.226
1469881.327
1469957.792
1470031.922
1470105.973
1470180.761
1464172.362
1463795.25
1463887.314
1463957.308
1464018.4
1464089.645
1464174.242
1464270.836
1464378.576
1464495.052
1464621.012
1464757.438
1464900.932
1465052.078
1465207.876
1465369.541
1465534.268
1465703.369
1465873.483
1466046.437
1466218.744
1466391.414
1466562.128
1466733.292
1466902.071
1467065.766
1467227.363
1467384.121
1467538.323
1467688.076
1467831.995
1467972.412
1468107.026
1468237.82
1468363.549
1468483.694
1468599.863
1468710.233
1468816.979
1468918.778
1469015.743
1469109.06
1469197.446
1469282.677
1469363.391
1469440.838
1469514.432
1469584.989
1469656.52
1469727.072
1463960.524
1463599.084
1463688.315
1463756.073
1463814.591
1463884
1463967.376
1464060.154
1464163.529
1464278.317
1464400.822
1464531.794
1464671.56
1464816.313
1464967.707
1465122.547
1465282.647
1465444.147
1465609.303
1465774.432
1465940.813
1466105.305
1466270.861
1466433.726
1466594.809
1466753.277
1466906.813
1467057.89
1467203.801
1467347.264
1467486.304
1467619.736
1467749.275
1467872.838
1467993.434
1468109.198
1468219.54
1468325.965
1468426.818
1468524.394
1468617.325
1468706.341
1468791.835
1468872.466
1468950.192
1469023.635
1469094.295
1469161.788
1469230.092
1469298.216
1463759.563
1463413.055
1463499.661
1463565.823
1463624.48
1463691.056
1463769.714
1463859.892
1463962.431
1464072.53
1464191.299
1464319.696
1464453.388
1464594.457
1464739.301
1464890.247
1465042.903
1465200.044
1465357.683
1465517.512
1465675.645
1465835.453
1465993.017
1466149.849
1466303.016
1466454.779
1466603.54
1466746.835
1466887.716
1467023.401
1467156.831
1467285.519
1467408.385
1467527.889
1467641.965
1467752.93
1467858.959
1467960.202
1468057.74
1468150.041
1468239.471
1468324.423
1468406.029
1468483.919
1468557.916
1468629.07
1468695.95
1468761.046
1468825.941
1468891.593
1463577.978
1463243.521
1463326.651
1463389.267
1463443.482
1463508.172
1463587.18
1463675.248
1463772.604
1463879.77
1463996.011
1464118.329
1464248.911
1464383.497
1464524.798
1464668.409
1464816.43
1464967.056
1465119.698
1465271.765
1465425.753
1465577.979
1465730.298
1465878.86
1466026.923
1466170.972
1466313.29
1466452.34
1466586.024
1466717.362
1466843.41
1466966.59
1467085.078
1467198.969
1467309.419
1467414.261
1467516.073
1467613.054
1467706.144
1467795.763
1467880.496
1467962.439
1468039.832
1468114.724
1468185.867
1468253.8
1468318.628
1468380.651
1468443.641
1468505.595
1463399.746
1463078.085
1463159.135
1463220.568
1463276.082
1463340.122
1463414.515
1463499.832
1463596.937
1463699.485
1463809.909
1463929.863
1464053.938
1464185.007
1464319.608
1464458.024
1464601.35
1464745.487
1464891.963
1465038.643
1465186.569
1465334.196
1465478.546
1465622.735
1465762.995
1465902.196
1466036.937
1466170.217
1466299.835
1466424.772
1466546.679
1466662.927
1466777.008
1466886.506
1466991.793
1467093.507
1467189.725
1467283.164
1467371.95
1467457.769
1467539.887
1467617.876
1467693.027
1467763.95
1467832.595
1467897.378
1467959.781
1468019.382
1468079.632
1468139.825
1463241.829
1462931.681
1463010.262
1463068.859
1463119.702
1463180.124
1463252.452
1463337.68
1463428.451
1463527.311
1463636.524
1463750.051
1463870.983
1463996.186
1464125.101
1464260.642
1464396.795
1464536.448
1464675.465
1464817.99
1464958.83
1465100.082
1465239.533
1465377.016
1465513.336
1465645.006
1465775.543
1465901.42
1466026.142
1466146.57
1466262.44
1466375.502
1466483.381
1466588.851
1466689.476
1466786.637
1466880.125
1466968.751
1467054.774
1467136.202
1467215.292
1467290.315
1467362.195
1467431.13
1467496.491
1467559.578
1467618.764
1467676.451
1467733.904
1467792.33
1463091.202
1462788.825
1462865.39
1462922.244
1462972.385
1463035.094
1463104.636
1463182.908
1463270.45
1463368.483
1463471.3
1463582.168
1463697.509
1463817.074
1463944.038
1464072.091
1464204.468
1464336.411
1464472.435
1464607.22
1464743.455
1464876.779
1465011.35
1465142.927
1465273.027
1465401.114
1465524.845
1465647.269
1465764.875
1465880.555
1465991.726
1466099.887
1466204.988
1466304.643
1466401.846
1466494.149
1466583.891
1466669.755
1466751.913
1466831.319
1466906.077
1466978.624
1467047.251
1467113.663
1467176.776
1467237.175
1467294.731
1467349.872
1467405.932
1467461.306
1462951.459
1462658.198
1462736.184
1462793.401
1462840.536
1462896.164
1462962.871
1463041.351
1463125.749
1463217.227
1463318.172
1463423
1463532.799
1463650.882
1463770.467
1463895.191
1464019.634
1464148.875
1464277.426
1464408.399
1464536.597
1464666.449
1464793.111
1464920.187
1465043.537
1465166.371
1465286.186
1465402.793
1465517.155
1465626.083
1465733.635
1465836.721
1465937.276
1466034.087
1466126.465
1466216.223
1466301.121
1466384.11
1466463.027
1466539.004
1466611.746
1466680.962
1466747.916
1466810.91
1466872.159
1466929.806
1466985.495
1467038.606
1467092.64
1467146.353
1462832.126
1462543.463
1462615.595
1462667.991
1462712.956
1462767.695
1462835.046
1462907.197
1462987.639
1463078.977
1463172.661
1463272.335
1463381.245
1463491.969
1463608.665
1463724.894
1463845.904
1463968.443
1464092.845
1464216.398
1464341.139
1464463.801
1464587.152
1464706.637
1464826.368
1464941.999
1465057.589
1465169.242
1465278.104
1465384.348
1465486.238
1465586.245
1465681.26
1465774.534
1465863.598
1465949.358
1466032.334
1466111.029
1466187.622
1466259.849
1466330.191
1466397.009
1466461.196
1466522.702
1466581.274
1466637.654
1466690.726
1466742.623
1466794.214
1466846.816
1462712.691
1462430.904
1462502.121
1462555.371
1462602.261
1462653.171
1462713.038
1462782.338
1462863.239
1462946.222
1463035.62
1463134.997
1463236.114
1463343.204
1463451.767
1463563.803
1463680.115
1463796.685
1463915.551
1464033.321
1464152.588
1464270.488
1464387.557
1464503.736
1464616.945
1464729.842
1464838.398
1464946.054
1465049.212
1465151.328
1465250.03
1465345.236
1465438.084
1465525.891
1465612.034
1465693.912
1465773.72
1465850.17
1465923.288
1465993.935
1466060.694
1466125.658
1466186.86
1466246.563
1466303.018
1466357.349
1466408.963
1466458.846
1466509.256
1466559.461
1462618.57
1462339.669
1462408.006
1462455.803
1462495.849
1462544.096
1462603.802
1462672.098
1462744.008
1462822.931
1462912.498
1463003.694
1463100.934
1463201.155
1463303.76
1463413.436
1463522.556
1463635.411
1463746.384
1463860.626
1463972.311
1464085.956
1464196.568
1464307.944
1464416.754
1464524.159
1464629.702
1464731.125
1464831.682
1464927.814
1465023.05
1465114.118
1465202.768
1465288.375
1465370.229
1465450.191
1465525.773
1465599.852
1465670.017
1465737.978
1465803.011
1465865.207
1465925.255
1465982.15
1466037.381
1466089.208
1466139.633
1466187.483
1466236.638
1466284.961
1462522.832
1462247.786
1462315.072
1462361.411
1462401.409
1462452.01
1462506
1462566.734
1462636.157
1462714.569
1462795.318
1462882.56
1462974.069
1463067.927
1463169.311
1463270.658
1463376.63
1463480.802
1463589.023
1463695.024
1463803.655
1463909.245
1464016.591
1464120.452
1464225.483
1464326.877
1464427.661
1464525.415
1464621.094
1464714.961
1464804.602
1464892.917
1464976.668
1465059.303
1465138.268
1465214.777
1465288.72
1465359.088
1465427.617
1465492.192
1465555.431
1465615.23
1465673.312
1465728.567
1465781.654
1465832.509
1465880.946
1465927.93
1465975.06
1466022.786
1462442.181
1462171.47
1462240.729
1462288.146
1462323.334
1462364.66
1462414.876
1462475.319
1462541.722
1462611.618
1462688.743
1462770.7
1462855.15
1462947.68
1463040.141
1463137.244
1463234.703
1463334.607
1463435.676
1463537.461
1463639.245
1463741.294
1463841.98
1463943.102
1464041.292
1464139.583
1464233.5
1464327.926
1464418.707
1464508.438
1464595.123
1464678.979
1464760.912
1464838.744
1464915.489
1464988.264
1465059.677
1465127.681
1465193.349
1465256.623
1465316.963
1465375.637
1465430.987
1465485.008
1465535.818
1465585.542
1465632.309
1465678.04
1465723.792
1465770.142
1464838.687
1464904.945
1464967.523
1465028.964
1465087.297
1465143.854
1465197.938
1465249.831
1465299.875
1465347.553
1465393.559
1465437.498
1465482.55
1465526.917
)
;

boundaryField
{
    front_top
    {
        type            wedge;
    }
    front_middle
    {
        type            wedge;
    }
    front_bottom
    {
        type            wedge;
    }
    back_top
    {
        type            wedge;
    }
    back_middle
    {
        type            wedge;
    }
    back_bottom
    {
        type            wedge;
    }
    axis_top
    {
        type            symmetryPlane;
    }
    axis_middle
    {
        type            symmetryPlane;
    }
    axis_bottom
    {
        type            symmetryPlane;
    }
    wall_top
    {
        type            fixedFluxPressure;
        gradient        uniform 0;
        value           nonuniform List<scalar> 
24
(
1475645.544
1474890.241
1474176.487
1473503.757
1472868.08
1472267.633
1471701.712
1471165.534
1470659.226
1470180.761
1469727.072
1469298.216
1468891.593
1468505.595
1468139.825
1467792.33
1467461.306
1467146.353
1466846.816
1466559.461
1466284.961
1466022.786
1465770.142
1465526.917
)
;
    }
    wall_middle
    {
        type            fixedFluxPressure;
        gradient        nonuniform 0();
        value           nonuniform 0();
    }
    wall_bottom
    {
        type            fixedFluxPressure;
        gradient        nonuniform 0();
        value           nonuniform 0();
    }
    inlet
    {
        type            zeroGradient;
    }
    outlet
    {
        type            fixedValue;
        value           nonuniform 0();
    }
    procBoundary8to7
    {
        type            processor;
        value           nonuniform List<scalar> 
51
(
1462386.212
1462113.162
1462176.836
1462217.738
1462249.683
1462289.134
1462341.12
1462394.957
1462453.784
1462520.827
1462592.428
1462666.72
1462749.373
1462832.623
1462919.836
1463010.178
1463100.961
1463196.247
1463289.975
1463387.262
1463482.299
1463579.645
1463674.828
1463770.748
1463864.83
1463957.215
1464048.638
1464137.279
1464225.524
1464309.421
1464393.027
1464472.823
1464551.198
1464626.82
1464699.898
1464771.152
1464771.152
1464625.72
1464688.995
1464750.368
1464808.824
1464866.045
1464919.905
1464972.785
1465022.652
1465071.499
1465117.719
1465162.431
1465205.275
1465249.013
1465292.574
)
;
    }
    procBoundary8to9
    {
        type            processor;
        value           nonuniform List<scalar> 
51
(
1468292.722
1467600.749
1467292.055
1467292.055
1467385.813
1467450.723
1467535.915
1467641.061
1467760.491
1467894.108
1468049.238
1468216.498
1468402.663
1468601.378
1468811.289
1469035.174
1469268.567
1469511.878
1469763.345
1470020.681
1470286.969
1470554.562
1470825.877
1471096.948
1471368.57
1471640.439
1471908.478
1472173.456
1472435.276
1472691.711
1472942.784
1473186.499
1473423.985
1473654.943
1473877.693
1474092.611
1474299.722
1474498.929
1474690.265
1474873.648
1475049.676
1475217.934
1475378.79
1475532.586
1475679.348
1475819.79
1475953.465
1476080.234
1476202.197
1476324.73
1476447.488
)
;
    }
}


// ************************************************************************* //
