/*--------------------------------*- C++ -*----------------------------------*\
  =========                 |
  \\      /  F ield         | OpenFOAM: The Open Source CFD Toolbox
   \\    /   O peration     | Website:  https://openfoam.org
    \\  /    A nd           | Version:  7
     \\/     M anipulation  |
\*---------------------------------------------------------------------------*/
FoamFile
{
    version     2.0;
    format      ascii;
    class       volTensorField;
    location    "0.003";
    object      grad(U);
}
// * * * * * * * * * * * * * * * * * * * * * * * * * * * * * * * * * * * * * //

dimensions      [0 0 -1 0 0 0 0];

internalField   nonuniform List<tensor> 
1167
(
(-3.574864551 -8.500349267e-15 0.1198788505 3.606778032e-14 -5.939702707 0 0.1888800103 5.071001621e-15 9.756819811)
(-4.735901714 -3.899910814e-15 0.2802544535 2.465128811e-14 -5.145026373 0 0.4588643624 2.509938717e-14 9.733713146)
(-4.6658016 -1.580483926e-14 0.4580000215 0 -4.898061467 0 0.724667514 4.062537406e-14 9.683752058)
(-4.728682604 -4.011658931e-14 0.6328612883 2.976767207e-14 -4.855012621 0 0.9959919042 3.643995462e-14 9.610696903)
(-4.662187973 -4.443667006e-14 0.8003487372 2.380494384e-14 -4.820382679 0 1.254612633 2.883420632e-14 9.516575676)
(-4.579371885 -4.272151466e-14 0.9629760388 3.003902335e-14 -4.784856138 0 1.500947209 5.570500703e-14 9.403177557)
(-4.484732802 -2.565800057e-14 1.120918368 8.711469688e-15 -4.747639016 -6.96917575e-14 1.734384795 3.434115645e-14 9.2723022)
(-4.376531845 3.851055275e-15 1.273746958 7.76275709e-15 -4.707628172 -6.210205672e-14 1.95383877 1.950967447e-14 9.125741479)
(-4.256991825 7.964007658e-15 1.421486823 4.225463131e-14 -4.664545566 5.633950841e-14 2.158688343 -1.540779085e-14 8.965180133)
(-4.127842683 1.758808978e-15 1.564316326 1.295698125e-14 -4.618465642 0 2.348526343 -9.604007568e-15 8.792214557)
(-3.990352205 9.651553838e-15 1.702525094 0 -4.569574774 -4.821068844e-14 2.52307667 1.244954272e-15 8.608336206)
(-3.845623266 6.651286916e-15 1.836469926 2.262763389e-14 -4.518101437 0 2.682189335 2.073534127e-15 8.414856713)
(-3.694624921 -7.419564804e-16 1.966634564 2.140178693e-14 -4.464287569 0 2.825796893 -6.679327739e-15 8.212967784)
(-3.538163 3.342312825e-15 2.093612621 2.037219246e-14 -4.408371617 0 2.953898956 -1.011800173e-14 8.003688467)
(-3.376882152 1.187243351e-14 2.21808066 1.949859167e-14 -4.350576979 0 3.066533812 -3.985316337e-15 7.787857534)
(-3.211283818 1.854969622e-14 2.340793886 0 -4.291107475 0 3.163762968 4.764039641e-16 7.566144505)
(-3.041728338 4.889291805e-15 2.462586341 9.053589164e-15 -4.230144801 3.621435666e-14 3.245654852 -3.892903269e-15 7.339048757)
(-2.868432962 -1.153387792e-14 2.58435929 0 -4.167847357 0 3.312270805 1.061476102e-14 7.106899314)
(-2.691478323 3.407777892e-15 2.707067045 -8.531942693e-15 -4.104349386 -3.412777077e-14 3.363649306 7.307214228e-15 6.869863504)
(-2.510831238 1.246377367e-14 2.831713471 0 -4.039761497 0 3.399812215 2.749147203e-15 6.627963682)
(-2.32633789 5.250893491e-15 2.95936059 0 -3.974172283 0 3.420739098 -2.309339378e-15 6.38107141)
(-2.13773422 7.613782845e-15 3.091110826 0 -3.907648201 0 3.426380016 -3.552047381e-16 6.128936697)
(-1.944650931 1.029117026e-14 3.228129032 0 -3.840235755 0 3.416642555 2.327401869e-15 5.871179025)
(-1.746618621 3.227612699e-15 3.371650491 7.704138469e-15 -3.771961672 1.540827694e-14 3.391393203 6.085629617e-15 5.607302287)
(-1.54306208 -5.451181312e-15 3.523010699 0 -3.702834986 -1.518914194e-14 3.350456908 1.073879419e-14 5.336675837)
(-1.333263855 -7.345056299e-15 3.68369495 0 -3.632846719 0 3.293571378 7.156740405e-15 5.058521238)
(-1.11636445 -5.025746548e-15 3.85536341 -7.415510757e-15 -3.561969542 -1.483102151e-14 3.220407806 9.528050754e-16 4.771915069)
(-0.8913282615 1.226282766e-15 4.039942788 0 -3.490157931 0 3.130538456 -1.234913022e-14 4.475723796)
(-0.6568666017 2.830044376e-15 4.239735798 0 -3.417346396 0 3.023384206 -1.47272784e-14 4.168547312)
(-0.4113529293 1.411817144e-15 4.457543041 7.228503775e-15 -3.343446296 1.445700755e-14 2.898154958 -1.589557176e-14 3.848639904)
(-0.1527204215 1.003251277e-15 4.696848835 0 -3.268341332 0 2.753785326 -1.642471951e-14 3.513798461)
(0.121711952 1.647273236e-15 4.962107776 0 -3.191881614 0 2.588819852 -1.455966749e-14 3.161173017)
(0.4155034227 2.293892558e-16 5.259142479 0 -3.113874009 0 2.401234001 -8.519658407e-15 2.787005046)
(0.7334665862 -1.482782283e-15 5.595733982 0 -3.034068526 0 2.188194788 -9.992498009e-15 2.3862361)
(1.082243919 -2.13878691e-15 5.982513222 -1.446778954e-15 -2.952138479 -2.748328707e-15 1.945674601 -1.237313872e-14 1.951911716)
(-3.747807347 -1.620555426e-14 0.1319714253 3.709646997e-14 -6.224114086 0 0.1891358073 2.626315164e-15 10.22735811)
(-4.964686429 -9.920556686e-15 0.3092082835 3.380582378e-14 -5.392946334 0 0.4581982869 2.415242464e-14 10.20280836)
(-4.889889778 -2.074447824e-14 0.505083992 3.126939998e-14 -5.13420938 0 0.7238933076 5.305636613e-14 10.15008329)
(-4.955332085 -3.314315003e-14 0.697364898 3.061667626e-14 -5.08861408 0 0.9952122366 3.379142417e-14 10.07297088)
(-4.88550312 -6.395936748e-14 0.8815959795 3.672582746e-14 -5.052193908 9.793553989e-14 1.253893843 3.425996149e-14 9.973576111)
(-4.79790306 -4.580056043e-14 1.060169936 2.059717781e-14 -5.014738865 -8.238871126e-14 1.500449218 3.91315331e-14 9.853811929)
(-4.697894259 -3.324973891e-15 1.233242673 2.687978893e-14 -4.975462104 0 1.734334703 2.281800236e-14 9.715596376)
(-4.583591722 1.521980273e-14 1.400354636 2.395247642e-14 -4.93322446 0 1.954429777 -1.772317368e-14 9.560753746)
(-4.457279675 1.802335768e-14 1.561526304 2.897318409e-14 -4.887733572 0 2.160111658 -5.688662235e-15 9.391104102)
(-4.320764581 1.327447073e-15 1.716927906 2.665305496e-14 -4.839066719 0 2.350963554 6.551863227e-16 9.208267221)
(-4.175383475 4.818142358e-15 1.866875662 1.239642657e-14 -4.787418224 0 2.526667642 -7.610811136e-15 9.013802778)
(-4.022292463 1.118194773e-14 2.011805619 2.32729969e-14 -4.73302902 0 2.687033368 -8.544267045e-15 8.809105376)
(-3.862479384 3.009478778e-15 2.152251586 3.301828145e-14 -4.676152226 4.402437526e-14 2.831953955 -1.030250632e-14 8.59538433)
(-3.696769717 -4.92114389e-15 2.288875657 3.142984206e-14 -4.617035438 0 2.96136282 -9.510942995e-15 8.373677995)
(-3.525830346 3.045417574e-15 2.422439648 2.005471122e-14 -4.555910971 0 3.07523517 -1.321329517e-14 8.144854215)
(-3.350172515 1.342857895e-14 2.553791058 2.892888816e-14 -4.492990641 0 3.173565183 -2.172912873e-15 7.909595131)
(-3.170158472 -8.366076307e-16 2.683856767 0 -4.428462821 0 3.256353026 1.412884009e-14 7.668408369)
(-2.986006616 -6.019551917e-15 2.813634164 9.024921176e-15 -4.362491463 -3.609968471e-14 3.323588692 1.570441192e-14 7.421622314)
(-2.797801161 1.009500255e-14 2.944176181 0 -4.295215629 0 3.375245095 -1.340889247e-14 7.16940572)
(-2.605494301 1.336244183e-14 3.076578614 0 -4.226750319 0 3.41127754 -9.227877911e-15 6.911775999)
(-2.408927826 7.925317205e-15 3.21197469 0 -4.157186621 0 3.431609702 -6.350837939e-15 6.648602889)
(-2.207837866 3.547141597e-15 3.351555621 0 -4.086594275 0 3.436142322 -1.647668862e-15 6.379638688)
(-2.001851429 3.444347688e-15 3.496555927 0 -4.015021949 0 3.42473788 1.792437978e-15 6.10450223)
(-1.790500262 -6.809574305e-16 3.648279246 0 -3.942498981 0 3.397238936 8.985856535e-15 5.822702188)
(-1.573192019 -7.376374065e-15 3.808142334 0 -3.86903646 0 3.353423709 1.171653116e-14 5.533598812)
(-1.34920437 -2.621118215e-15 3.97768902 -1.542543133e-14 -3.794626738 -3.085086267e-14 3.293017259 1.00904606e-14 5.236426711)
(-1.11766831 1.403995244e-14 4.158663773 -7.627008648e-15 -3.719244227 -1.52540173e-14 3.215676684 -4.891061223e-16 4.930247445)
(-0.8775141633 1.665450087e-14 4.353097446 7.552794016e-15 -3.642844297 1.510558803e-14 3.120946907 -7.360952424e-15 4.613900027)
(-0.6274013252 4.651365402e-15 4.563414904 7.488990836e-15 -3.565361466 1.497798167e-14 3.008213843 -5.351366601e-15 4.285943958)
(-0.365630031 4.312688305e-15 4.792576623 -7.434668055e-15 -3.486705687 -1.486933611e-14 2.876648193 -9.396960628e-15 3.944576161)
(-0.09002572898 3.211048478e-15 5.044287328 7.38901942e-15 -3.406757752 1.477803884e-14 2.725133508 -7.628042782e-15 3.587490729)
(0.2022610527 -7.746191944e-15 5.323308573 7.351344347e-15 -3.325362396 1.470268869e-14 2.552124618 -7.503070594e-15 3.211674763)
(0.5150311447 -3.546124489e-15 5.635896571 -7.321031203e-15 -3.242317595 -1.464206241e-14 2.355467638 -1.046949125e-14 2.813127133)
(0.8534535944 4.703495338e-15 5.990459204 7.297544283e-15 -3.157359909 1.459508857e-14 2.132130133 -1.484414286e-14 2.386426052)
(1.224692195 4.6284658e-15 6.398529119 0 -3.070142366 0 1.877793196 -1.710060363e-14 1.924091202)
(1.638833632 -1.490758649e-15 6.876231139 7.269223125e-15 -2.980202962 0 1.586256799 -1.390590633e-14 1.415617042)
(2.110273879 -7.206860675e-15 7.446461389 0 -2.886918519 0 1.248549602 -1.145763295e-14 0.8460514072)
(2.659646684 5.291385609e-15 8.14198503 -7.263242444e-15 -2.789438242 -1.452648489e-14 0.8517016821 -1.800545642e-14 0.1939763926)
(3.316307344 1.682107414e-14 9.009510138 0 -2.686591982 0 0.3771780083 -1.779875173e-14 -0.5711052521)
(4.121029879 1.779488941e-14 10.11422316 0 -2.57677044 0 -0.2007515161 -1.169793799e-14 -1.49160066)
(5.128043769 1.081534776e-14 11.5434962 0 -2.45778637 1.458185136e-14 -0.9161137577 -1.661735876e-14 -2.62395868)
(6.40527345 -6.102715969e-15 13.40826465 0 -2.32674166 7.308983804e-15 -1.811009269 -9.939929298e-15 -4.038944441)
(8.032239135 -1.649505737e-14 15.84146973 0 -2.179937436 0 -2.933644023 5.703217221e-15 -5.819538152)
(10.09632685 1.066940969e-14 18.99473701 -7.357222573e-15 -2.012853844 -1.471444515e-14 -4.335137902 -6.964853699e-15 -8.057218129)
(12.68863754 3.845041913e-14 23.03568479 0 -1.820199895 0 -6.066111085 -2.211568015e-14 -10.84837698)
(15.89998178 2.843971863e-14 28.14747902 3.710316203e-15 -1.596017412 7.420632406e-15 -8.173594691 -1.914757382e-14 -14.29207171)
(19.82202184 2.085829055e-14 34.52780368 0 -1.333825471 0 -10.7011084 -1.718397278e-14 -18.48766698)
(24.56855038 2.845155953e-14 42.37777571 0 -1.026663467 0 -13.70057849 -2.621422949e-14 -23.5269177)
(30.32163079 3.863675003e-14 51.87655418 0 -0.6666672527 0 -17.25923441 -3.123646306e-14 -29.47795798)
(36.67790466 6.19656636e-14 63.57386195 0 -0.2440261961 0 -21.12122801 -4.102279668e-14 -36.61212948)
(-3.923276569 -3.561024047e-14 0.1448488892 2.544653611e-14 -6.512415061 0 0.1898275019 9.54456536e-15 10.70470704)
(-5.196880434 -4.777697514e-14 0.3399329401 5.217592166e-14 -5.644399209 0 0.4586315496 2.213193492e-14 10.67878016)
(-5.11739783 -1.733339689e-14 0.555020299 5.362356016e-14 -5.373796984 -1.715953925e-13 0.7248609194 4.176877643e-14 10.62345375)
(-5.185627833 -2.291931877e-14 0.7658268388 3.150252674e-14 -5.325669163 0 0.9968480188 2.196691039e-14 10.54249372)
(-5.112714313 -4.903148193e-14 0.9678592913 2.519229177e-14 -5.287524736 -1.007691671e-13 1.256269572 1.948563098e-14 10.4381006)
(-5.020584537 -3.676717996e-14 1.163398268 3.178969232e-14 -5.24822486 0 1.503766215 -2.976030144e-17 10.31233451)
(-4.915479168 2.148139239e-14 1.352618291 9.219172593e-15 -5.206986025 -7.375338074e-14 1.738808269 2.687571064e-14 10.167129)
(-4.795350086 2.55279965e-14 1.534999927 3.286067683e-14 -5.16262787 6.572135366e-14 1.960268958 -4.834900624e-15 10.00440895)
(-4.662547583 -7.452870612e-15 1.710554334 2.981148245e-14 -5.114840051 0 2.167503132 5.370250631e-15 9.826034891)
(-4.518945689 5.664280557e-15 1.879499503 0 -5.063702208 -5.484844719e-14 2.360067288 5.681063073e-15 9.633726867)
(-4.365915216 1.70151038e-14 2.042140795 3.826529932e-14 -5.009413445 0 2.537624066 -6.535722555e-15 9.42904026)
(-4.204656319 9.95037081e-15 2.198973321 4.789273659e-14 -4.95222211 9.578547318e-14 2.69991814 -6.503607705e-15 9.213416879)
(-4.036181603 3.295617985e-15 2.350627607 0 -4.892390453 0 2.846772811 -1.980755609e-15 8.98810256)
(-3.861326124 6.484687434e-15 2.497834548 0 -4.830173483 0 2.978064973 -8.163157513e-15 8.754158458)
(-3.680765452 -5.340103516e-16 2.64143716 1.031748302e-14 -4.765810341 4.126993208e-14 3.0937015 -1.820644097e-14 8.512459276)
(-3.495016959 -9.476254867e-15 2.782373716 0 -4.699518649 0 3.193604785 -1.170028453e-14 8.263691834)
(-3.304444711 -9.113397197e-15 2.921669558 9.581230729e-15 -4.631492132 -3.832492291e-14 3.277698212 4.146431854e-15 8.008359464)
(-3.109259991 1.636846724e-14 3.060418682 9.286044574e-15 -4.561899105 -3.714417829e-14 3.345892864 -8.373091758e-15 7.746791131)
(-2.909543828 2.511241471e-14 3.199758016 1.805836564e-14 -4.490882052 3.611673127e-14 3.398098152 -1.898827178e-14 7.479159986)
(-2.705255834 5.193518096e-15 3.340879937 8.804904851e-15 -4.418559238 3.521961941e-14 3.434201859 -1.129440686e-14 7.205480744)
(-2.496234917 -4.875961414e-16 3.485003147 0 -4.345025253 0 3.45408186 -3.329957244e-15 6.925637666)
(-2.282213737 -5.108034662e-16 3.633379692 0 -4.270352393 0 3.457584386 -6.863832689e-15 6.639375323)
(-2.062832878 -8.414989108e-16 3.787318982 8.285527737e-15 -4.194592147 1.657105547e-14 3.444548441 -4.296117946e-15 6.346338094)
(-1.837618674 -4.299504416e-15 3.948199683 0 -4.117777111 0 3.414771795 -2.294241101e-16 6.046023477)
(-1.605978616 -6.169164488e-15 4.117497447 0 -4.039920515 0 3.368011931 8.738074587e-16 5.737818129)
(-1.367196062 -1.805720936e-15 4.296830386 0 -3.961017643 0 3.303986668 -5.047731338e-16 5.420956948)
(-1.120384545 8.200218169e-15 4.488035285 0 -3.881045243 0 3.222324987 -7.606239857e-16 5.09448673)
(-0.8644406447 1.223376311e-14 4.693247673 -7.771323465e-15 -3.79996039 -1.554264693e-14 3.122546656 9.207379279e-15 4.757232059)
(-0.5979729105 1.21003166e-14 4.915017245 -7.705674254e-15 -3.717698078 -1.541134851e-14 3.004007159 9.014105998e-15 4.407718412)
(-0.3192148633 5.199459648e-15 5.15647535 7.649779712e-15 -3.634167563 1.529955942e-14 2.865843875 1.051517598e-14 4.044079442)
(-0.02587714125 5.709532354e-15 5.42157542 0 -3.549247413 -1.520562063e-14 2.706879753 3.775390027e-15 3.663895852)
(0.2850701164 1.006815779e-14 5.715420399 0 -3.462777212 0 2.525473283 -1.495529371e-15 3.263982305)
(0.6176912262 3.236773606e-15 6.044741551 7.532854938e-15 -3.374546086 1.506570988e-14 2.31933146 -5.494379857e-15 2.840077537)
(0.9775361629 3.035739283e-15 6.418616285 0 -3.284276438 0 2.085209133 -3.649537335e-15 2.386375194)
(1.372309586 4.828223352e-16 6.849539865 7.491061685e-15 -3.191600133 1.498212337e-14 1.818486734 -2.391144675e-15 1.894836599)
(1.812869365 -2.702571012e-16 7.355008622 0 -3.096024462 0 1.512531967 -1.028883322e-15 1.354158384)
(2.314669774 8.064956752e-15 7.95982019 7.473769877e-15 -2.996882511 1.494753975e-14 1.157786276 -9.146162241e-15 0.7482901374)
(2.899716536 7.568271246e-15 8.699259828 7.473394172e-15 -2.893263352 0 0.7405378264 -9.980557292e-15 0.05438017059)
(3.598942089 -2.54139382e-15 9.623042599 7.478124345e-15 -2.783917389 1.495624869e-14 0.2414367276 -4.198641713e-15 -0.759732152)
(4.454525029 1.064656943e-14 10.79929354 -7.487697181e-15 -2.66713833 0 -0.3658952868 -6.552673194e-15 -1.737969306)
(5.521239933 1.575101411e-14 12.31717016 7.501878346e-15 -2.540634653 7.501878346e-15 -1.115538165 -4.379396496e-15 -2.937422156)
(6.865827834 -9.70168585e-15 14.28677479 0 -2.401418825 7.520458978e-15 -2.04853251 2.719188942e-16 -4.427727463)
(8.56418818 -7.064432981e-15 16.83624167 -3.771626367e-15 -2.245749311 -1.508650547e-14 -3.210591508 -1.15323294e-14 -6.288252498)
(10.69744423 1.04680199e-14 20.10767054 0 -2.069144399 0 -4.648988222 -2.279416132e-14 -8.604198933)
(13.34811279 1.79777508e-14 24.25432005 0 -1.866457988 0 -6.409569481 -2.05496596e-14 -11.46331284)
(16.59668891 2.388652839e-14 29.44031192 0 -1.631997141 0 -8.534211625 -1.163338399e-14 -14.95414046)
(20.52351744 2.773397573e-14 35.83961142 0 -1.35966815 0 -11.06146281 -1.446527576e-14 -19.16412245)
(25.23065141 3.36597643e-14 43.62496261 0 -1.043009701 0 -14.03886345 -1.615151855e-14 -24.17212744)
(30.88534675 3.919005568e-14 52.94478181 0 -0.6747554105 0 -17.5483343 -2.427034423e-14 -30.0340706)
(37.07530859 5.488161833e-14 64.31244317 0 -0.2458485579 0 -21.3331637 -3.698015833e-14 -37.00791362)
(-4.101840791 -3.141185957e-14 0.1584829338 7.858080831e-14 -6.805546163 0 0.1911031708 1.790261118e-14 11.1904048)
(-5.433241071 -3.917936013e-14 0.3723489547 5.370771723e-14 -5.900201908 0 0.4605410213 -6.010593049e-14 11.16316426)
(-5.349069041 -1.621437017e-14 0.6076837813 3.311871355e-14 -5.617605134 0 0.7281478606 -3.431860896e-14 11.10539485)
(-5.42034363 -1.30944575e-14 0.8380730154 3.24273869e-14 -5.56695049 0 1.001679128 -7.339099999e-15 11.02081515)
(-5.344630523 -4.369676125e-14 1.058910787 5.18637885e-14 -5.527151288 1.03727577e-13 1.26273729 4.925129009e-15 10.91175301)
(-5.24822904 -6.325165167e-14 1.272420792 3.272298315e-14 -5.486098484 0 1.512052429 -1.199644987e-14 10.78033681)
(-5.138301644 -1.797878271e-15 1.47878253 3.795932679e-14 -5.442997491 -7.591865359e-14 1.749097337 -7.909671557e-15 10.62851186)
(-5.012641009 3.767371094e-14 1.677428938 1.691270495e-14 -5.396629777 -1.353016396e-13 1.972751566 6.728229626e-15 10.45832303)
(-4.873619318 1.08931779e-14 1.868344794 3.068669646e-14 -5.346661804 0 2.182346862 -4.597505796e-16 10.27161847)
(-4.72319016 9.717623552e-15 2.051786389 1.411467591e-14 -5.293169745 0 2.377391654 -6.836449097e-15 10.07018989)
(-4.562752311 1.584779838e-14 2.228124613 2.625913517e-14 -5.236358334 0 2.557509187 -6.464168615e-15 9.85563643)
(-4.393505723 8.990769672e-15 2.397876161 2.464939262e-14 -5.176479284 0 2.722394057 2.763811937e-15 9.629383763)
(-4.216488046 5.532525615e-15 2.561736631 0 -5.113799048 0 2.871798466 1.674390944e-15 9.392701866)
(-4.032550588 1.314424668e-14 2.720531631 0 -5.048578671 0 3.005526373 1.106122033e-15 9.146666616)
(-3.842369363 1.051667195e-14 2.875198429 0 -4.981062232 0 3.123407621 -6.639461547e-16 8.892154448)
(-3.646455878 -8.52767333e-15 3.026770382 1.021326022e-14 -4.91147177 4.085304089e-14 3.225287526 -1.085479946e-14 8.629852002)
(-3.44516307 -1.147095746e-14 3.176362361 0 -4.840004206 0 3.311010162 -2.122354678e-14 8.360257758)
(-3.238711623 9.511993731e-15 3.325152923 0 -4.766830452 0 3.38042236 -2.614047006e-14 8.083704562)
(-3.027186128 1.679139519e-14 3.474375259 0 -4.692096775 0 3.433364968 -6.89285616e-15 7.800364025)
(-2.810544137 3.487285441e-15 3.625294344 0 -4.615924103 0 3.469668623 -1.847818616e-15 7.510259916)
(-2.588630877 5.192184069e-15 3.779211978 -1.772265496e-14 -4.538410209 -3.544530991e-14 3.489155261 -5.481761805e-15 7.21328568)
(-2.361194645 4.935733421e-15 3.937452118 8.684177016e-15 -4.459630347 3.473670806e-14 3.491642672 -1.363364477e-14 6.909209586)
(-2.127878151 -3.081686863e-15 4.101387874 0 -4.379639999 0 3.476928924 -1.025889295e-14 6.597675733)
(-1.888213466 -4.835520371e-15 4.272462736 0 -4.298474511 0 3.444781764 -5.122741952e-15 6.278212207)
(-1.641628967 -8.33777295e-15 4.452213824 0 -4.216150997 1.65462781e-14 3.394957979 -1.620391998e-15 5.950219482)
(-1.387398229 -7.626392801e-15 4.642347157 0 -4.132668473 0 3.327142563 -4.937816008e-15 5.612929273)
(-1.124618939 -6.066448739e-15 4.844780611 0 -4.048006457 0 3.240944721 3.416911986e-15 5.26539617)
(-0.8521660564 1.663953545e-15 5.061755301 -7.9994762e-15 -3.962124459 -1.59989524e-14 3.135866644 7.386103712e-15 4.90643196)
(-0.5686028242 6.522128409e-15 5.295965479 0 -3.874958936 0 3.011239376 5.810482695e-15 4.534527507)
(-0.2720845771 1.546420531e-14 5.5507342 -1.574872823e-14 -3.786419276 -3.149745647e-14 2.866160525 5.33621183e-15 4.147740873)
(0.03980590151 1.759325042e-14 5.83027943 7.826015827e-15 -3.696382019 1.565203165e-14 2.699380146 -1.065290699e-15 3.743530658)
(0.3702844789 7.124597106e-15 6.140071327 -7.786112526e-15 -3.604681694 -1.557222505e-14 2.509154582 7.282899671e-15 3.318529223)
(0.7236924634 3.680124258e-15 6.48736179 0 -3.511098528 0 2.293039699 4.2855603e-15 2.868198859)
(1.105982516 1.970022567e-15 6.88195874 0 -3.415340308 0 2.047572396 7.346382209e-15 2.386328519)
(1.525429951 2.997043555e-15 7.337377825 0 -3.317016891 0 1.767820346 1.109274867e-14 1.864293902)
(1.993686479 3.646562752e-15 7.872538206 0 -3.215603421 0 1.446711097 6.030416676e-15 1.289973703)
(2.527264024 7.813392983e-16 8.514179802 0 -3.11038785 0 1.074105691 8.589637069e-15 0.6462067718)
(3.149489119 5.574275166e-15 9.300075418 -7.692800229e-15 -3.000398122 0 0.6355812245 4.622452584e-15 -0.0912547987)
(3.89273226 8.795188493e-15 10.28276096 0 -2.884305988 0 0.1110565749 -1.91538102e-15 -0.9560972017)
(4.800329465 2.882794279e-15 11.53288812 0 -2.760312111 0 -0.5263490822 -4.703636685e-15 -1.993490902)
(5.927260184 1.76764168e-14 13.14074184 -7.722120649e-15 -2.626029312 -7.722120649e-15 -1.310592499 -9.239947317e-16 -3.26080704)
(7.338764827 2.744211499e-14 15.21484912 0 -2.47839425 7.741246762e-15 -2.281555321 -6.240158924e-15 -4.826230168)
(9.107052793 5.527806022e-15 17.87806182 7.764709694e-15 -2.313638837 7.764709694e-15 -3.482562501 -3.69326871e-15 -6.765454865)
(11.30738458 2.82320074e-15 21.2631217 -3.896169215e-15 -2.127331909 -7.792338431e-15 -4.957439778 -1.400798781e-14 -9.157796861)
(14.01462426 4.389527926e-15 25.50997473 3.911990075e-15 -1.9144734 1.56479603e-14 -6.747931244 -1.466698556e-14 -12.08326994)
(17.3003135 6.953813986e-15 30.76569777 -3.929749184e-15 -1.669619896 -7.859498368e-15 -8.891581619 -1.435595261e-14 -15.62128675)
(21.23515508 1.868244659e-14 37.18352924 0 -1.387029895 0 -11.42280244 -2.021168316e-14 -19.84908376)
(25.91135355 3.523350185e-14 44.91181525 -1.985422952e-15 -1.060686201 -7.94169181e-15 -14.38550126 -2.818921187e-14 -24.83454535)
(31.48357713 5.642809615e-14 54.07290994 0 -0.6838457193 0 -17.85704555 -3.728595895e-14 -30.62317615)
(37.53080518 4.796414502e-14 65.15037026 1.004762123e-15 -0.248108495 1.004762123e-15 -21.57923195 -2.905244241e-14 -37.46189837)
(-4.284235812 6.43794891e-14 0.1728406622 1.078962305e-13 -7.104721012 0 0.1931021769 -1.199695166e-13 11.68643713)
(-5.674739924 -2.063246626e-14 0.4063747038 -1.84359908e-14 -6.161410424 5.899517055e-13 0.4642782154 -2.000340012e-13 11.65794133)
(-5.585860754 -6.474717236e-14 0.6629377005 3.410550643e-14 -5.866638096 0 0.7343021547 -1.085501575e-13 11.59788604)
(-5.660475863 -5.488417703e-14 0.9138943967 1.669679064e-14 -5.813454209 0 1.010476615 -4.138981333e-14 11.50994242)
(-5.582246427 -3.958741105e-14 1.154514028 2.670455133e-14 -5.772072574 -1.068182053e-13 1.274254984 -1.63050097e-14 11.39653365)
(-5.481815852 -3.078012559e-14 1.386993648 3.369798497e-14 -5.72935509 0 1.526397315 -2.855288108e-14 11.25978384)
(-5.367326947 -5.649776979e-15 1.611475259 1.954517441e-14 -5.684489176 0 1.766430086 -5.399572539e-14 11.10172376)
(-5.236411351 1.910046397e-14 1.827366492 3.483325932e-14 -5.63621768 1.393330373e-13 1.993208503 5.657731624e-17 10.92441992)
(-5.091433987 8.116279085e-15 2.034666915 3.160102579e-14 -5.584181086 0 2.206034226 9.633455079e-15 10.72977524)
(-4.934396422 1.023427926e-14 2.233617584 2.907046315e-14 -5.528447063 0 2.404384634 -1.88982578e-14 10.51955315)
(-4.766733049 7.40737566e-15 2.424662498 4.056231377e-14 -5.46922044 0 2.5878086 2.784081929e-15 10.29539906)
(-4.589650808 3.743124381e-15 2.608391249 2.538383686e-14 -5.406756051 0 2.755949033 -2.546946652e-15 10.05875836)
(-4.404179553 3.716186229e-15 2.785552262 2.400867318e-14 -5.341322618 0 2.908497034 3.608498205e-16 9.810883451)
(-4.211169731 7.878266087e-15 2.957051309 2.285366706e-14 -5.273183267 0 3.045174512 5.512940701e-15 9.552842532)
(-4.011298186 1.826364793e-14 3.123915807 0 -5.202584552 0 3.165732099 1.539997926e-14 9.285512615)
(-3.805075231 1.900147055e-14 3.287272989 0 -5.129750974 0 3.269938286 5.922721629e-15 9.009577193)
(-3.592858004 2.410156395e-15 3.448329349 2.031275842e-14 -5.054881931 4.062551684e-14 3.357565922 -7.976761611e-15 8.725534246)
(-3.374858863 -9.055226498e-15 3.60834938 9.843473391e-15 -4.978151311 3.937389356e-14 3.428394272 -9.830393803e-15 8.433719643)
(-3.151162534 -3.364872397e-16 3.768641787 0 -4.899707134 0 3.482201532 -4.804086895e-16 8.134306179)
(-2.921739875 7.437594168e-15 3.930553836 0 -4.819673344 0 3.51876651 1.3604634e-15 7.827333599)
(-2.686454481 1.343851295e-14 4.095448705 9.125356275e-15 -4.738150742 0 3.537870173 -6.312965928e-15 7.512708806)
(-2.445063179 8.401461215e-15 4.264722634 8.94292753e-15 -4.655218822 3.577171012e-14 3.53929262 -4.684144899e-15 7.190223931)
(-2.197219077 -7.805113456e-15 4.439809634 8.782896899e-15 -4.5709364 3.51315876e-14 3.522793996 -1.757140763e-15 6.859544494)
(-1.942486754 -1.313263399e-14 4.622205561 -8.642556046e-15 -4.485343245 -1.728511209e-14 3.488145389 1.196104022e-15 6.520233693)
(-1.68029248 -4.975338085e-15 4.813530622 0 -4.398461488 -1.703928495e-14 3.435069243 -8.423294603e-15 6.171693274)
(-1.409905048 -9.775956955e-15 5.015555697 8.412252035e-15 -4.310293708 1.682450407e-14 3.36322797 -1.105684764e-14 5.813180913)
(-1.130428282 -1.293309e-14 5.23028667 -8.31877146e-15 -4.220823445 -1.663754292e-14 3.272231203 -4.672070328e-15 5.443762036)
(-0.8407108954 2.89611057e-15 5.460084903 -8.237825622e-15 -4.130013695 -1.647565124e-14 3.161559797 -1.205297838e-14 5.062227489)
(-0.539264858 7.362579548e-15 5.707799973 0 -4.037803067 0 3.030512416 -1.354694028e-14 4.667026718)
(-0.2241589174 8.623716275e-15 5.976970054 0 -3.944101601 0 2.878137391 -1.054600546e-14 4.256138248)
(0.1071617003 7.390220556e-15 6.27209956 0 -3.848783961 0 2.703108051 1.017066455e-15 3.826892882)
(0.4581107452 1.108753535e-14 6.59905307 -8.018104662e-15 -3.751679619 -1.603620932e-14 2.503573513 -1.618446141e-15 3.375726592)
(0.8333178663 6.363080471e-15 6.965636084 7.98504216e-15 -3.652559549 1.597008432e-14 2.276928404 -2.572123521e-15 2.897807354)
(1.239152138 -7.259866157e-15 7.382435379 0 -3.551116513 0 2.019482017 6.561548742e-15 2.386500546)
(1.684481034 1.473379519e-15 7.86405229 -7.940740146e-15 -3.446937588 -1.588148029e-14 1.725978736 8.559118373e-15 1.832576504)
(2.181768508 5.210843852e-15 8.43089118 0 -3.339464698 0 1.388906549 7.758781779e-15 1.223076709)
(2.748584267 9.18349706e-15 9.111654734 -7.922410269e-15 -3.227939461 0 0.9975558544 2.511333833e-15 0.5397318573)
(3.409523784 1.90932868e-14 9.946537592 0 -3.111327954 0 0.5368305091 -7.389877926e-15 -0.2430478615)
(4.198253019 1.548247291e-14 10.9906871 0 -2.988224243 1.585405226e-14 -0.01400197528 -4.915765999e-15 -1.160340801)
(5.159021602 6.278428348e-16 12.31686367 7.937173615e-15 -2.856740213 0 -0.6821992057 2.889293974e-15 -2.258320739)
(6.346722896 -3.385900239e-15 14.01589722 0 -2.714401655 0 -1.501463301 9.548155983e-15 -3.594333543)
(7.8248962 5.846580529e-15 16.19419099 0 -2.558081723 0 -2.51047595 1.840616131e-14 -5.234898246)
(9.662129884 3.02975866e-14 18.96908942 -3.998032046e-15 -2.383998371 -7.996064092e-15 -3.750333294 8.458372929e-15 -7.252099456)
(11.92827255 3.238801263e-14 22.46431526 8.024516075e-15 -2.187778405 8.024516075e-15 -5.261810927 -3.197821929e-15 -9.719817319)
(14.69136976 1.496150066e-14 26.80752559 0 -1.964564845 0 -7.083129618 -1.538543874e-15 -12.71116858)
(18.01515631 2.015515285e-14 32.13051199 0 -1.709146869 0 -9.248168525 -1.733426168e-14 -16.29758919)
(21.96205168 2.451754244e-14 38.5682872 0 -1.416102655 0 -11.78786508 -2.715813938e-14 -20.54750758)
(26.61593833 2.519784975e-14 46.24800113 0 -1.079811107 0 -14.7431066 -4.113433133e-14 -25.51933476)
(32.1207379 2.575097844e-14 55.26968813 0 -0.6939889164 0 -18.18736813 -4.246688747e-14 -31.24962293)
(38.04659904 4.208721629e-14 66.09250466 -5.173498209e-16 -0.2508105433 -1.034699642e-15 -21.8603457 -3.336372143e-14 -37.97631274)
(-4.471363093 7.389839159e-14 0.1878993895 -3.056891234e-13 -7.411436474 1.7785549e-12 0.1959536837 -1.334215646e-13 12.19524707)
(-5.922570444 -7.703169914e-14 0.4419315176 -1.709424848e-13 -6.429321846 3.038977507e-13 0.4701763578 -1.195477492e-13 12.16555964)
(-5.828961168 -1.533586628e-13 0.720623869 -2.342471222e-14 -6.122130294 1.873976977e-13 0.7438672026 -1.3727178e-13 12.10338858)
(-5.907238267 -9.294686271e-14 0.9930897017 3.440361013e-14 -6.066410123 0 1.023989308 -1.164423338e-13 12.01232802)
(-5.826737625 -5.464838072e-14 1.254463719 2.751226247e-14 -6.023512991 0 1.291711304 -7.734407216e-14 11.89482879)
(-5.722490008 -3.182411921e-14 1.506874318 3.471722095e-14 -5.979205375 0 1.547835299 -3.315663686e-14 11.75304153)
(-5.603677325 -3.885684666e-14 1.750456591 4.027268317e-14 -5.93266149 8.054536635e-14 1.79195883 -2.026926752e-14 11.5890859)
(-5.467731985 -2.234165624e-14 1.98458522 0 -5.882579665 -7.177366586e-14 2.022893494 4.536819082e-17 11.40497599)
(-5.317014683 3.263632125e-14 2.209286917 1.627841839e-14 -5.828569601 -6.511367356e-14 2.239890731 8.759064678e-16 11.20268389)
(-5.153553246 1.481400418e-14 2.424834398 4.492460101e-14 -5.770689713 1.19798936e-13 2.44239521 -5.898705548e-15 10.98396063)
(-4.97879025 1.509960231e-15 2.631679887 1.392972322e-14 -5.709139173 -5.571889286e-14 2.629907608 -9.714462578e-15 10.75042826)
(-4.793944254 1.20925618e-14 2.830497157 3.922740216e-14 -5.644172561 1.046064058e-13 2.801991429 -7.844996327e-15 10.5035395)
(-4.600034347 -4.142603305e-15 3.022122828 3.710226633e-14 -5.576059082 0 2.958264198 7.146108488e-15 10.24454191)
(-4.397900328 -6.897920977e-15 3.207529809 2.35449036e-14 -5.505062005 0 3.09838101 -3.259187474e-15 9.974490738)
(-4.188216544 7.746492316e-15 3.387828496 1.126762519e-14 -5.431428538 -4.507050075e-14 3.222016482 1.03512882e-14 9.694249595)
(-3.971486165 2.177719182e-14 3.564237123 0 -5.355384449 0 3.328862999 1.480885957e-14 9.404497455)
(-3.748058679 1.387649365e-14 3.738041472 0 -5.277130108 0 3.41862465 1.973066988e-14 9.10573092)
(-3.51815932 1.465720461e-15 3.910588102 0 -5.196840774 0 3.491020669 2.013027985e-14 8.79828954)
(-3.281880582 -1.136289849e-15 4.083262326 0 -5.114667435 0 3.545773855 8.585106055e-15 8.482357942)
(-3.039202714 5.878380184e-15 4.257468443 0 -5.030736532 0 3.582619025 1.039199208e-15 8.157991875)