/*--------------------------------*- C++ -*----------------------------------*\
  =========                 |
  \\      /  F ield         | OpenFOAM: The Open Source CFD Toolbox
   \\    /   O peration     | Website:  https://openfoam.org
    \\  /    A nd           | Version:  7
     \\/     M anipulation  |
\*---------------------------------------------------------------------------*/
FoamFile
{
    version     2.0;
    format      ascii;
    class       surfaceScalarField;
    location    "0.003";
    object      phi;
}
// * * * * * * * * * * * * * * * * * * * * * * * * * * * * * * * * * * * * * //

dimensions      [1 0 -1 0 0 0 0];

internalField   nonuniform List<scalar> 
2260
(
-6.18851982e-13
6.481496683e-11
-2.421346566e-12
1.8950356e-10
-5.313180086e-12
3.067555115e-10
-9.18937578e-12
4.165870684e-10
-1.393689245e-11
5.190859107e-10
-1.943806349e-11
6.143753214e-10
-2.557317578e-11
7.026082456e-10
-3.222312179e-11
7.839672349e-10
-3.927103131e-11
8.586576682e-10
-4.66043118e-11
9.26902944e-10
-5.411563621e-11
9.88939663e-10
-6.170398108e-11
1.045013798e-09
-6.927533069e-11
1.095376782e-09
-7.674308985e-11
1.140282291e-09
-8.402814736e-11
1.179983151e-09
-9.105895375e-11
1.214729002e-09
-9.777135128e-11
1.244764064e-09
-1.041082694e-10
1.270325432e-09
-1.100194239e-10
1.291641833e-09
-1.15460898e-10
1.308932388e-09
-1.203948626e-10
1.322406185e-09
-1.247889446e-10
1.332261275e-09
-1.286161482e-10
1.338684851e-09
-1.318541752e-10
1.34185252e-09
-1.344853835e-10
1.341928464e-09
-1.364962997e-10
1.339065142e-09
-1.378771963e-10
1.333402717e-09
-1.386219795e-10
1.325068734e-09
-1.387278059e-10
1.31417739e-09
-1.381945378e-10
1.300828189e-09
-1.370242919e-10
1.285104109e-09
-1.352208365e-10
1.267069064e-09
-1.327887094e-10
1.246764235e-09
-1.297321327e-10
1.224202571e-09
1.199360949e-09
-6.217406102e-13
6.543670744e-11
-2.432755882e-12
1.913145751e-10
-5.338914178e-12
3.096616697e-10
-9.235587057e-12
4.204837412e-10
-1.401020482e-11
5.238605285e-10
-1.954553444e-11
6.199106512e-10
-2.572245336e-11
7.087851646e-10
-3.242216994e-11
7.906669516e-10
-3.952817667e-11
8.65763675e-10
-4.692777801e-11
9.343025451e-10
-5.451351862e-11
9.965254035e-10
-6.218394909e-11
1.052684228e-09
-6.984432323e-11
1.103037156e-09
-7.740698607e-11
1.147844954e-09
-8.479156879e-11
1.187367733e-09
-9.192493778e-11
1.22186237e-09
-9.874117554e-11
1.251580302e-09
-1.051812824e-10
1.276765539e-09
-1.111929321e-10
1.297653483e-09
-1.167300999e-10
1.314469556e-09
-1.217526623e-10
1.327428747e-09
-1.262262704e-10
1.336734884e-09
-1.301216935e-10
1.342580275e-09
-1.334148105e-10
1.345145636e-09
-1.360861459e-10
1.344599799e-09
-1.381205103e-10
1.341099507e-09
-1.39506828e-10
1.334789035e-09
-1.402377254e-10
1.325799631e-09
-1.403092548e-10
1.31424892e-09
-1.397203246e-10
1.300239259e-09
-1.384721674e-10
1.283855952e-09
-1.365677884e-10
1.265164686e-09
-1.340109973e-10
1.244207444e-09
-1.308052858e-10
1.220996859e-09
-1.269520894e-10
1.195507752e-09
-1.224486821e-10
1.167665105e-09
-1.172851195e-10
1.137326261e-09
-1.114403923e-10
1.104255065e-09
-1.048785524e-10
1.06808616e-09
-9.754594239e-11
1.028277498e-09
-8.937326841e-11
9.840552985e-10
-8.028720074e-11
9.343596281e-10
-7.023718163e-11
8.778029734e-10
-5.923892519e-11
8.126502174e-10
-4.743402843e-11
7.368183999e-10
-3.516262947e-11
6.478872616e-10
-2.304667355e-11
5.431105678e-10
-1.208148492e-11
4.194405043e-10
-3.729967874e-12
2.73611089e-10
1.02301802e-10
-6.19503776e-13
6.605621122e-11
-2.424148679e-12
1.931192201e-10
-5.320856435e-12
3.125583775e-10
-9.206340983e-12
4.243692258e-10
-1.396956149e-11
5.286237491e-10
-1.949495118e-11
6.254360409e-10
-2.566512649e-11
7.1495534e-10
-3.236272972e-11
7.973645547e-10
-3.947269416e-11
8.728736392e-10
-4.688342392e-11
9.417132749e-10
-5.448813529e-11
1.004130115e-09
-6.218581325e-11
1.060381906e-09
-6.988173428e-11
1.110733077e-09
-7.748783933e-11
1.155451059e-09
-8.492300751e-11
1.194802901e-09
-9.211302385e-11
1.229052387e-09
-9.899056096e-11
1.258457839e-09
-1.054949849e-10
1.283269963e-09
-1.115720463e-10
1.303730544e-09
-1.171738074e-10
1.320071317e-09
-1.222581071e-10
1.332513047e-09
-1.267884967e-10
1.341265273e-09
-1.307338168e-10
1.346525595e-09
-1.340680537e-10
1.348479874e-09
-1.367699455e-10
1.347301691e-09
-1.388227462e-10
1.343152307e-09
-1.402139822e-10
1.336180271e-09
-1.409350593e-10
1.326520708e-09
-1.409808842e-10
1.314294745e-09
-1.403493573e-10
1.299607733e-09
-1.390409622e-10
1.282547557e-09
-1.370579737e-10
1.263181697e-09
-1.344034515e-10
1.241552922e-09
-1.310801799e-10
1.217673588e-09
-1.270889235e-10
1.191516496e-09
-1.224263543e-10
1.163002536e-09
-1.170822031e-10
1.13198211e-09
-1.11035941e-10
1.098208803e-09
-1.042536985e-10
1.061303918e-09
-9.668720401e-11
1.020711004e-09
-8.82782667e-11
9.756463611e-10
-7.897294486e-11
9.250543063e-10
-6.874909611e-11
8.675791246e-10
-5.765778481e-11
8.015589061e-10
-4.587661989e-11
7.250372349e-10
-3.377199057e-11
6.357826322e-10
-2.196794928e-11
5.313065264e-10
-1.141997476e-11
4.088925297e-10
-3.489102804e-12
2.656802169e-10
9.881269916e-11
-6.125861778e-13
6.666879742e-11
-2.397258915e-12
1.949038929e-10
-5.262788705e-12
3.154239073e-10
-9.108139842e-12
4.282145769e-10
-1.382481328e-11
5.333404225e-10
-1.930005139e-11
6.309112788e-10
-2.541911462e-11
7.210744031e-10
-3.206731986e-11
8.0401276e-10
-3.913185111e-11
8.799381706e-10
-4.650323066e-11
9.490846545e-10
-5.40762924e-11
1.011703177e-09
-6.175110071e-11
1.068056715e-09
-6.943360404e-11
1.11841558e-09
-7.703597947e-11
1.163053434e-09
-8.447683184e-11
1.202243754e-09
-9.168128367e-11
1.236256839e-09
-9.858090629e-11
1.265357462e-09
-1.051136167e-10
1.289802674e-09
-1.112236468e-10
1.309840574e-09
-1.168611407e-10
1.325708811e-09
-1.219821918e-10
1.337634098e-09
-1.265482883e-10
1.345831369e-09
-1.305265347e-10
1.350503841e-09
-1.338890042e-10
1.351842344e-09
-1.366127769e-10
1.350025464e-09
-1.386796565e-10
1.345219187e-09
-1.400757049e-10
1.337576319e-09
-1.407910926e-10
1.327236096e-09
-1.408196386e-10
1.314323291e-09
-1.401583382e-10
1.298946432e-09
-1.388068211e-10
1.28119604e-09
-1.367665833e-10
1.261141459e-09
-1.340400423e-10
1.23882638e-09
-1.306292981e-10
1.214262844e-09
-1.265345182e-10
1.187421716e-09
-1.21751982e-10
1.15822e-09
-1.162713602e-10
1.126501488e-09
-1.100731235e-10
1.092010566e-09
-1.031262662e-10
1.054357061e-09
-9.538888971e-11
1.012973627e-09
-8.681456142e-11
9.670720328e-10
-7.736821672e-11
9.156079616e-10
-6.705362962e-11
8.572645374e-10
-5.595195356e-11
7.9045723e-10
-4.426891127e-11
7.133541926e-10
-3.238787881e-11
6.239015997e-10
-2.092695947e-11
5.198456072e-10
-1.079872665e-11
3.987642969e-10
-3.268897547e-12
2.581503878e-10
9.554380155e-11
-6.014861907e-13
6.727028361e-11
-2.35403067e-12
1.966564374e-10
-5.168953403e-12
3.1823883e-10
-8.948277741e-12
4.319939012e-10
-1.35870077e-11
5.379791524e-10
-1.897607032e-11
6.363003416e-10
-2.500430231e-11
7.271026351e-10
-3.15606442e-11
8.105691021e-10
-3.853545585e-11
8.869129824e-10
-4.58220456e-11
9.563712443e-10
-5.331766648e-11
1.019198798e-09
-6.092421423e-11
1.075663263e-09
-6.854890302e-11
1.126040269e-09
-7.610457895e-11
1.170609111e-09
-8.351003537e-11
1.20964921e-09
-9.069005395e-11
1.243436857e-09
-9.75754967e-11
1.272242905e-09
-1.041032076e-10
1.296330384e-09
-1.102159368e-10
1.315953304e-09
-1.158623194e-10
1.331355194e-09
-1.209966101e-10
1.342768389e-09
-1.255787087e-10
1.350413469e-09
-1.295738103e-10
1.354498943e-09
-1.329523466e-10
1.355220879e-09
-1.356898746e-10
1.352762992e-09
-1.377666352e-10
1.347295948e-09
-1.391672999e-10
1.338976984e-09
-1.398809263e-10
1.327949723e-09
-1.399002278e-10
1.314342592e-09
-1.392212697e-10
1.298267474e-09
-1.378428466e-10
1.279817617e-09
-1.357655774e-10
1.25906419e-09
-1.329912598e-10
1.236052063e-09
-1.29521327e-10
1.210792911e-09
-1.253555373e-10
1.183255927e-09
-1.204898452e-10
1.153354308e-09
-1.149142775e-10
1.12092592e-09
-1.08610703e-10
1.085706992e-09
-1.015516133e-10
1.047297971e-09
-9.370209068e-11
1.005124105e-09
-8.502780641e-11
9.583977486e-10
-7.551165794e-11
9.060918131e-10
-6.518059577e-11
8.469334753e-10
-5.414087944e-11
7.794175139e-10
-4.261957367e-11
7.01832887e-10
-3.100958926e-11
6.122916153e-10
-1.991711764e-11
5.087531355e-10
-1.021015792e-11
3.890573372e-10
-3.065234832e-12
2.510054647e-10
9.247856665e-11
-5.867435312e-13
6.785702714e-11
-2.296566927e-12
1.983662608e-10
-5.043942914e-12
3.209862061e-10
-8.734683996e-12
4.356846423e-10
-1.326806389e-11
5.425125323e-10
-1.853938466e-11
6.415716624e-10
-2.444199776e-11
7.330052483e-10
-3.086906915e-11
8.169961732e-10
-3.77150102e-11
8.937589234e-10
-4.48766276e-11
9.635328618e-10
-5.225408513e-11
1.026576255e-09
-5.975176424e-11
1.083160942e-09
-6.727862676e-11
1.133567132e-09
-7.474870316e-11
1.178079187e-09
-8.20813559e-11
1.216981863e-09
-8.920143392e-11
1.250556935e-09
-9.603933247e-11
1.279080803e-09
-1.025310837e-10
1.302822135e-09
-1.086183427e-10
1.322040563e-09
-1.14248338e-10
1.336985189e-09
-1.193738401e-10
1.347893891e-09
-1.239531394e-10
1.354992768e-09
-1.279497792e-10
1.358495583e-09
-1.31332769e-10
1.358603869e-09
-1.340760315e-10
1.355506255e-09
-1.361583363e-10
1.349378253e-09
-1.375632456e-10
1.340381894e-09
-1.382785779e-10
1.328665055e-09
-1.382959665e-10
1.314359981e-09
-1.376105176e-10
1.297582025e-09
-1.362201057e-10
1.278427205e-09
-1.341246391e-10
1.256968723e-09
-1.313250992e-10
1.233252523e-09
-1.278223739e-10
1.207290185e-09
-1.236157736e-10
1.179049326e-09
-1.187012545e-10
1.148439789e-09
-1.130694471e-10
1.115294113e-09
-1.067040444e-10
1.079341589e-09
-9.958153837e-11
1.040175465e-09
-9.167445512e-11
9.972170212e-10
-8.29603195e-11
9.49683613e-10
-7.343885721e-11
8.965703509e-10
-6.31573555e-11
8.366519736e-10
-5.224265736e-11
7.685028157e-10
-4.093731745e-11
6.905275472e-10
-2.963786504e-11
6.009921631e-10
-1.893415264e-11
4.980494231e-10
-9.648958366e-12
3.797721429e-10
-2.875168592e-12
2.442316749e-10
8.9603398e-11
-5.689240067e-13
6.842595115e-11
-2.227087421e-12
2.000244241e-10
-4.892625857e-12
3.236517444e-10
-8.475712215e-12
4.392677287e-10
-1.288045058e-11
5.469172707e-10
-1.800716026e-11
6.466983719e-10
-2.375438937e-11
7.387524772e-10
-3.002010133e-11
8.232618852e-10
-3.670330742e-11
9.004421296e-10
-4.370490314e-11
9.705344576e-10
-5.09286075e-11
1.033799959e-09
-5.828161528e-11
1.090513949e-09
-6.567513493e-11
1.140960651e-09
-7.302479086e-11
1.185428843e-09
-8.02508548e-11
1.224207927e-09
-8.727860931e-11
1.25758469e-09
-9.403833102e-11
1.285840525e-09
-1.00465565e-10
1.30924937e-09
-1.065010772e-10
1.328076075e-09
-1.120910008e-10
1.342575113e-09
-1.171868269e-10
1.352989717e-09
-1.217453841e-10
1.359551325e-09
-1.25728906e-10
1.362479105e-09
-1.291048752e-10
1.361979838e-09
-1.318458221e-10
1.358247202e-09
-1.339292789e-10
1.351461709e-09
-1.353375945e-10
1.341790209e-09
-1.36057363e-10
1.329384823e-09
-1.360791853e-10
1.314381803e-09
-1.353972007e-10
1.296900041e-09
-1.340083278e-10
1.277038332e-09
-1.31911711e-10
1.254872107e-09
-1.291076218e-10
1.230448434e-09
-1.255963491e-10
1.203778913e-09
-1.213769005e-10
1.174829878e-09
-1.164452924e-10
1.143508181e-09
-1.107930393e-10
1.10964186e-09
-1.044060645e-10
1.072954614e-09
-9.726526286e-11
1.033034663e-09
-8.935071424e-11
9.893024727e-10
-8.065151254e-11
9.409844112e-10
-7.11827436e-11
8.871015818e-10
-6.100920045e-11
8.264784304e-10
-5.02742045e-11
7.577678197e-10
-3.92308737e-11
6.794842163e-10
-2.827461099e-11
5.900359002e-10
-1.797566414e-11
4.877504762e-10
-9.11152117e-12
3.709079999e-10
-2.696641991e-12
2.378167957e-10
8.690675595e-11
-5.48619382e-13
6.897457055e-11
-2.147897959e-12
2.016237028e-10
-4.720016146e-12
3.262238626e-10
-8.179923657e-12
4.427276362e-10
-1.243693848e-11
5.511742855e-10
-1.73969794e-11
6.51658413e-10
-2.296411858e-11
7.443196165e-10
-2.904176345e-11
8.293395302e-10
-3.553379007e-11
9.069341564e-10
-4.234565242e-11
9.7734632e-10
-4.938501068e-11
1.040839318e-09
-5.65623208e-11
1.09769126e-09
-6.379140094e-11
1.148189731e-09
-7.098980317e-11
1.192627245e-09
-7.807912824e-11
1.231297252e-09
-8.498537957e-11
1.264490941e-09
-9.163906439e-11
1.29249421e-09
-9.797550514e-11
1.31558581e-09
-1.03934897e-10
1.334035467e-09
-1.094625534e-10
1.348102769e-09
-1.145088888e-10
1.358036052e-09
-1.190296327e-10
1.364072068e-09
-1.229857647e-10
1.366435237e-09
-1.263434297e-10
1.365337504e-09
-1.290740184e-10
1.36097779e-09
-1.311538449e-10
1.353541536e-09
-1.325640084e-10
1.343200373e-09
-1.332900058e-10
1.33011082e-09
-1.333214106e-10
1.314413208e-09
-1.326513815e-10
1.296230012e-09
-1.312759478e-10
1.275662898e-09
-1.291934169e-10
1.252789576e-09
-1.264033499e-10
1.227658367e-09
-1.229055177e-10
1.20028108e-09
-1.186986526e-10
1.170623012e-09
-1.137790262e-10
1.138588554e-09
-1.081392548e-10
1.104002089e-09
-1.017677138e-10
1.066583073e-09
-9.464994379e-11
1.025916893e-09
-8.677362236e-11
9.814261514e-10
-7.813876017e-11
9.323495492e-10
-6.877426829e-11
8.777370901e-10
-5.875981993e-11
8.164639821e-10
-4.825147085e-11
7.472594707e-10
-3.750880817e-11
6.687415536e-10
-2.692226521e-11
5.794493573e-10
-1.704018259e-11
4.778683936e-10
-8.595222138e-12
3.624630395e-10
-2.528074716e-12
2.317496483e-10
8.43786812e-11
-5.264282382e-13
6.95009988e-11
-2.061321301e-12
2.031585958e-10
-4.531150449e-12
3.286936918e-10
-7.855873583e-12
4.460523593e-10
-1.195037634e-11
5.552687883e-10
-1.672648781e-11
6.564345246e-10
-2.209399374e-11
7.496871227e-10
-2.796205149e-11
8.352075878e-10
-3.423984261e-11
9.132119472e-10
-4.083757278e-11
9.839440502e-10
-4.766711066e-11
1.047668856e-09
-5.464250213e-11
1.104666651e-09
-6.168050908e-11
1.155227738e-09
-6.870092782e-11
1.199647664e-09
-7.562703438e-11
1.238223358e-09
-8.238579416e-11
1.271249701e-09
-8.890830188e-11
1.299016717e-09
-9.512995878e-11
1.321807467e-09
-1.009907686e-10
1.339896277e-09
-1.064354099e-10
1.35354741e-09
-1.114136514e-10
1.363014294e-09
-1.15880174e-10
1.368538591e-09
-1.197950386e-10
1.370350101e-09
-1.231233387e-10
1.368665803e-09
-1.258352374e-10
1.363689689e-09
-1.279060097e-10
1.355612308e-09
-1.29315622e-10
1.344609985e-09
-1.300485426e-10
1.330843741e-09
-1.300933866e-10
1.314458052e-09
-1.294422566e-10
1.295578881e-09
-1.280903731e-10
1.274311015e-09
-1.260351779e-10
1.250734381e-09
-1.232755067e-10
1.224898696e-09
-1.198106864e-10
1.19681626e-09
-1.156392468e-10
1.166451573e-09
-1.107578412e-10
1.133707149e-09
-1.051603605e-10
1.098404608e-09
-9.883786488e-11
1.060260578e-09
-9.178065112e-11
1.018859679e-09
-8.398377267e-11
9.736292727e-10
-7.545742195e-11
9.238231985e-10
-6.62427387e-11
8.685224069e-10
-5.643176663e-11
8.0665301e-10
-4.61900503e-11
7.370177543e-10
-3.578003667e-11
6.583315399e-10
-2.55842041e-11
5.692535247e-10
-1.612742764e-11
4.684116172e-10
-8.098343161e-12
3.54433955e-10
-2.368324054e-12
2.260196291e-10
8.201035711e-11
-5.029338024e-13
7.000393259e-11
-1.969629771e-12
2.046252918e-10
-4.330960012e-12
3.31055022e-10
-7.512027667e-12
4.49233427e-10
-1.14334815e-11
5.591902421e-10
-1.601304971e-11
6.610140926e-10
-2.116653211e-11
7.548406048e-10
-2.680876853e-11
8.408498243e-10
-3.285450668e-11
9.192576854e-10
-3.921891409e-11
9.903084574e-10
-4.58182549e-11
1.054268196e-09
-5.257039187e-11
1.111418788e-09
-5.939518039e-11
1.162052526e-09
-6.621497001e-11
1.206467453e-09
-7.295493548e-11
1.244963324e-09
-7.954345529e-11
1.27783822e-09
-8.591247657e-11
1.305385739e-09
-9.199779325e-11
1.327892784e-09
-9.773945571e-11
1.345637939e-09
-1.030819686e-10
1.358889924e-09
-1.079745243e-10
1.36790685e-09
-1.123712976e-10
1.372935364e-09
-1.162314315e-10
1.374210235e-09
-1.195191603e-10
1.371953532e-09
-1.222036972e-10
1.366374226e-09
-1.242593833e-10
1.357667994e-09
-1.256652314e-10
1.346015833e-09
-1.264047069e-10
1.331583217e-09
-1.264654054e-10
1.31451875e-09
-1.25838544e-10
1.29495202e-09
-1.245184096e-10
1.27299088e-09
-1.22501658e-10
1.248717629e-09
-1.197864954e-10
1.222183533e-09
-1.163717346e-10
1.193401499e-09
-1.122558578e-10
1.162335696e-09
-1.07435986e-10
1.128887277e-09
-1.019074217e-10
1.092876043e-09
-9.566403313e-11
1.054017189e-09
-8.870090551e-11
1.011896552e-09
-8.102011335e-11
9.659484808e-10
-7.264118262e-11
9.154442675e-10
-6.361586518e-11
8.594970892e-10
-5.404626109e-11
7.970834058e-10
-4.410457064e-11
7.270760638e-10
-3.40531872e-11
6.482801564e-10
-2.426418412e-11
5.594645216e-10
-1.523781384e-11
4.593852469e-10
-7.619875645e-12
3.468160168e-10
-2.21659271e-12
2.206163462e-10
7.979376435e-11
-4.786986838e-13
7.048263128e-11
-1.87501229e-12
2.060216054e-10
-4.124235073e-12
3.333042449e-10
-7.156647623e-12
4.522658396e-10
-1.08985859e-11
5.629321804e-10
-1.527359785e-11
6.653891046e-10
-2.020355191e-11
7.59770559e-10
-2.560901575e-11
8.462552883e-10
-3.141015203e-11
9.250588218e-10
-3.752720721e-11
9.964255127e-10
-4.388095717e-11
1.060621946e-09
-5.039317196e-11
1.117931003e-09
-5.698706039e-11
1.168646415e-09
-6.358769624e-11
1.213068089e-09
-7.012244901e-11
1.251498077e-09
-7.652131679e-11
1.284237088e-09
-8.271737681e-11
1.311581799e-09
-8.864723414e-11
1.333822641e-09
-9.425126123e-11
1.351241966e-09
-9.947403214e-11
1.364112695e-09
-1.042645952e-10
1.372697413e-09
-1.08576749e-10
1.377247518e-09
-1.123690153e-10
1.378002502e-09
-1.156050192e-10
1.375189537e-09
-1.182533382e-10
1.369022545e-09
-1.202873754e-10
1.359702032e-09
-1.216852571e-10
1.347413715e-09
-1.224295594e-10
1.332327519e-09
-1.225070079e-10
1.314596199e-09
-1.219079186e-10
1.29435293e-09
-1.20625746e-10
1.271708708e-09
-1.186563442e-10
1.246748227e-09
-1.159973064e-10
1.219524495e-09
-1.126470688e-10
1.190051261e-09
-1.086040453e-10
1.158292673e-09
-1.038659907e-10
1.124149223e-09
-9.842970569e-11
1.087439759e-09
-9.229194752e-11
1.047879431e-09
-8.545240614e-11
1.00505701e-09
-7.791984517e-11
9.584159199e-10
-6.972213077e-11
9.072465534e-10
-6.092005394e-11
8.506950126e-10
-5.162355338e-11
7.877869054e-10
-4.20090773e-11
7.174615877e-10
-3.233664144e-11
6.386077207e-10
-2.296600808e-11
5.500938884e-10
-1.43721539e-11
4.507913927e-10
-7.159274326e-12
3.396031371e-10
-2.072333387e-12
2.155294052e-10
7.772143093e-11
-4.542609715e-13
7.093689228e-11
-1.779575133e-12
2.073469195e-10
-3.915588333e-12
3.35440258e-10
-6.797619311e-12
4.551478705e-10
-1.035743803e-11
5.664919992e-10
-1.452438129e-11
6.69556048e-10
-1.922601997e-11
7.644721977e-10
-2.43886631e-11
8.514179312e-10
-2.993778061e-11
9.30607939e-10
-3.579855044e-11
1.002286283e-09
-4.189624546e-11
1.066719641e-09
-4.815664659e-11
1.124191404e-09
-5.450641472e-11
1.174996183e-09
-6.087352485e-11
1.219435199e-09
-6.718769025e-11
1.257812242e-09
-7.338079443e-11
1.290430193e-09
-7.938742801e-11
1.317588432e-09
-8.514517325e-11
1.339580386e-09
-9.059510604e-11
1.356691899e-09
-9.568222372e-11
1.369199812e-09
-1.003556437e-10
1.377370833e-09
-1.045690693e-10
1.381460944e-09
-1.082808649e-10
1.381714297e-09
-1.114540793e-10
1.378362751e-09
-1.140567883e-10
1.371625254e-09
-1.160617569e-10
1.361707e-09
-1.174463588e-10
1.348798317e-09
-1.181924511e-10
1.333073611e-09
-1.182859185e-10
1.314689667e-09
-1.177162585e-10
1.293783271e-09
-1.164761292e-10
1.270468578e-09
-1.14560691e-10
1.244832789e-09
-1.119669296e-10
1.216930734e-09
-1.086929502e-10
1.186777282e-09
-1.047372549e-10
1.154336977e-09
-1.000982457e-10
1.119510213e-09
-9.477430683e-11
1.08211582e-09
-8.876504625e-11
1.04187017e-09
-8.20745912e-11
9.983665554e-10
-7.47177916e-11
9.5105912e-10
-6.67300175e-11
8.992587791e-10
-5.817954021e-11
8.421445352e-10
-4.918225906e-11
7.787896242e-10
-3.991660266e-11
7.081959313e-10
-3.063820501e-11
6.29329323e-10
-2.169329297e-11
5.411489762e-10
-1.353125088e-11
4.426293506e-10
-6.716025404e-12
3.327879117e-10
-1.935003873e-12
2.107483837e-10
7.578642703e-11
-4.301421364e-13
7.136703442e-11
-1.685351267e-12
2.086021287e-10
-3.70943254e-12
3.374643393e-10
-6.442449073e-12
4.578808871e-10
-9.821333867e-12
5.69870884e-10
-1.378094738e-11
6.735156613e-10
-1.82542135e-11
7.689454636e-10
-2.317282759e-11
8.563365454e-10
-2.846744013e-11
9.359025517e-10
-3.406800046e-11
1.007886843e-09
-3.990417728e-11
1.072555818e-09
-4.590566552e-11
1.130192892e-09
-5.200260388e-11
1.181093122e-09
-5.81259896e-11
1.225558585e-09
-6.420808171e-11
1.263894334e-09
-7.018291625e-11
1.296405027e-09
-7.598668746e-11
1.323392204e-09
-8.15583919e-11
1.345152091e-09
-8.684006159e-11
1.361973568e-09
-9.177735442e-11
1.374137105e-09
-9.631988873e-11
1.381913368e-09
-1.004215156e-10
1.385562571e-09
-1.040405716e-10
1.385333354e-09
-1.071399547e-10
1.381462134e-09
-1.096874222e-10
1.374172722e-09
-1.116553065e-10
1.363674885e-09
-1.13020446e-10
1.350163456e-09
-1.137640319e-10
1.333817197e-09
-1.13871196e-10
1.314796831e-09
-1.133307798e-10
1.293242855e-09
-1.121347241e-10
1.269272523e-09
-1.102775178e-10
1.242975583e-09
-1.077556801e-10
1.214408896e-09
-1.045670233e-10
1.183588625e-09
-1.007101453e-10
1.150480099e-09
-9.618423182e-11
1.114984299e-09
-9.098923708e-11
1.076920824e-09
-8.512759679e-11
1.03600853e-09
-7.860759854e-11
9.918465571e-10
-7.144967974e-11
9.439012013e-10
-6.369547866e-11
8.91504578e-10
-5.541951838e-11
8.338685749e-10
-4.674190202e-11
7.701120078e-10
-3.784123427e-11
6.992952635e-10
-2.896710142e-11
6.204551901e-10
-2.045116927e-11
5.326330441e-10
-1.271728236e-11
4.348954637e-10
-6.290629462e-12
3.263612588e-10
-1.804556265e-12
2.062623105e-10
7.398187073e-11
-4.068151707e-13
7.177384958e-11
-1.594176868e-12
2.097894904e-10
-3.509756819e-12
3.393799194e-10
-6.097983657e-12
4.604691139e-10
-9.30063955e-12
5.730735398e-10
-1.305751189e-11
6.772725337e-10
-1.730668168e-11
7.731946335e-10
-2.198469003e-11
8.610145538e-10
-2.702699856e-11
9.409448604e-10
-3.236811528e-11
1.013227959e-09
-3.794189679e-11
1.078129599e-09
-4.368186306e-11
1.135932858e-09
-4.95216145e-11
1.186932873e-09
-5.539522775e-11
1.231432198e-09
-6.123757226e-11
1.269736679e-09
-6.69849555e-11
1.30215241e-09
-7.25755556e-11
1.328982804e-09
-7.794986002e-11
1.350526395e-09
-8.305125892e-11
1.367074967e-09
-8.782634433e-11
1.37891219e-09
-9.222550604e-11
1.386312529e-09
-9.620304452e-11
1.389540109e-09
-9.971758113e-11
1.388847889e-09
-1.027321998e-10
1.384476752e-09
-1.052145102e-10
1.376655032e-09
-1.071365708e-10
1.365596945e-09
-1.084748847e-10
1.35150177e-09
-1.092101659e-10
1.334552478e-09
-1.093270161e-10
1.31491368e-09
-1.088136601e-10
1.292729498e-09
-1.076614552e-10
1.268120318e-09
-1.058643535e-10
1.241178481e-09
-1.034184256e-10
1.211962968e-09
-1.003213075e-10
1.180491507e-09
-9.657183632e-11
1.146730628e-09
-9.216990335e-11
1.110582366e-09
-8.711709135e-11
1.071868013e-09
-8.141844904e-11
1.030309888e-09
-7.508620587e-11
9.855143141e-10
-6.8145734e-11
9.369607295e-10
-6.064410612e-11
8.840029502e-10
-5.266060589e-11
8.258850748e-10
-4.431799871e-11
7.617694008e-10
-3.579365971e-11
6.907709248e-10
-2.732972698e-11
6.119912575e-10
-1.924261243e-11
5.245459296e-10
-1.19308955e-11
4.275837469e-10
-5.882678735e-12
3.203130421e-10
-1.680551569e-12
2.020601833e-10
7.230131912e-11
-3.847151004e-13
7.215856468e-11
-1.507744346e-12
2.109125197e-10
-3.32026289e-12
3.411924379e-10
-5.770663592e-12
4.629195146e-10
-8.805047128e-12
5.761079234e-10
-1.236756099e-11
6.808350476e-10
-1.640088397e-11
7.772279566e-10
-2.084607243e-11
8.654597421e-10
-2.56428703e-11
9.457416579e-10
-3.07299423e-11
1.018315031e-09
-3.604509127e-11
1.083444748e-09
-4.152551506e-11
1.141413282e-09
-4.710814664e-11
1.192515504e-09
-5.273000155e-11
1.237054053e-09
-5.832873413e-11
1.275335412e-09
-6.384307243e-11
1.307666749e-09
-6.921327816e-11
1.334353009e-09
-7.438164305e-11
1.35569476e-09
-7.929309034e-11
1.371986415e-09
-8.389550812e-11
1.383514608e-09
-8.814026582e-11
1.390557286e-09
-9.198253159e-11
1.393382375e-09
-9.5381431e-11
1.392246789e-09
-9.830043247e-11
1.387395754e-09
-1.007072879e-10
1.379061887e-09
-1.025740931e-10
1.36746375e-09
-1.03877233e-10
1.35280491e-09
-1.045971483e-10
1.335272393e-09
-1.047180578e-10
1.31503459e-09
-1.042277531e-10
1.292239194e-09
-1.031170493e-10
1.267009614e-09
-1.013795348e-10
1.239440966e-09
-9.90109254e-11
1.209594359e-09
-9.600878226e-11
1.177489364e-09
-9.237217345e-11
1.143094019e-09
-8.810185706e-11
1.10631205e-09
-8.320095731e-11
1.066967113e-09
-7.767705375e-11
1.024785984e-09
-7.154580079e-11
9.793830611e-10
-6.483688157e-11
9.302518102e-10
-5.760200974e-11
8.767680784e-10
-4.992400958e-11
8.182070746e-10
-4.192690814e-11
7.537722993e-10
-3.378545783e-11
6.826294744e-10
-2.573348471e-11
6.039392843e-10
-1.807165004e-11
5.168840949e-10
-1.11737802e-11
4.20685877e-10
-5.492511998e-12
3.146317738e-10
-1.562911241e-12
1.981305825e-10
7.073840784e-11
-3.642282749e-13
7.252279299e-11
-1.427578931e-12
2.119758703e-10
-3.144330071e-12
3.42909189e-10
-5.466340255e-12
4.652415248e-10
-8.343330142e-12
5.789849132e-10
-1.172337831e-11
6.842150957e-10
-1.555295462e-11
7.810575328e-10
-1.977710513e-11
8.696838928e-10
-2.433942772e-11
9.503039807e-10
-2.918228867e-11
1.023157893e-09
-3.424702347e-11
1.088509484e-09
-3.947418717e-11
1.146640446e-09
-4.480388506e-11
1.197845202e-09
-5.017611043e-11
1.242426279e-09
-5.553126012e-11
1.280690561e-09
-6.081046102e-11
1.31294595e-09
-6.595624408e-11
1.339498793e-09
-7.091291355e-11
1.36065143e-09
-7.56271445e-11
1.376700646e-09
-8.004837894e-11
1.387935842e-09
-8.412930636e-11
1.394638214e-09
-8.782609414e-11
1.397079163e-09
-9.10988172e-11
1.395519513e-09
-9.391159887e-11
1.390208535e-09
-9.623263169e-11
1.38138292e-09
-9.803425712e-11
1.369265376e-09
-9.929295544e-11
1.354063609e-09
-9.998910327e-11
1.335968542e-09
-1.001067803e-10
1.315152268e-09
-9.963349037e-11
1.291765904e-09
-9.855975123e-11
1.265935875e-09
-9.687885472e-11
1.23776007e-09
-9.458636219e-11
1.207301866e-09
-9.167979833e-11
1.1745828e-09
-8.815859325e-11
1.139572814e-09
-8.402429051e-11
1.102177747e-09
-7.928151797e-11
1.06222434e-09
-7.394022603e-11
1.019444692e-09
-6.801920633e-11
9.734620414e-10
-6.155181254e-11
9.237844165e-10
-5.45932671e-11
8.698095329e-10
-4.722908165e-11
8.108428892e-10
-3.958335463e-11
7.461265721e-10
-3.182705314e-11
6.748731729e-10
-2.418500534e-11
5.962972365e-10
-1.694187797e-11
5.096409675e-10
-1.044737406e-11
4.141913731e-10
-5.12040094e-12
3.093048007e-10
-1.451535531e-12
1.944617171e-10
6.928687228e-11
-3.457118205e-13
7.286850481e-11
-1.355078421e-12
2.129852369e-10
-2.985018671e-12
3.445391292e-10
-5.190234396e-12
4.674467405e-10
-7.923443189e-12
5.817181221e-10
-1.11359684e-11
6.874276211e-10
-1.477748617e-11
7.846990507e-10
-1.87962311e-11
8.737026378e-10
-2.313908986e-11
9.546468395e-10
-2.775163144e-11
1.027770434e-09
-3.257831469e-11
1.093336167e-09
-3.756271076e-11
1.151624842e-09
-4.264787935e-11
1.202930371e-09
-4.777660262e-11
1.247555002e-09
-5.289187075e-11
1.285805829e-09
-5.793736728e-11
1.317991446e-09
-6.285790432e-11
1.344419329e-09
-6.75999556e-11
1.365393481e-09
-7.21121473e-11
1.381212837e-09
-7.634572141e-11
1.392169416e-09
-8.025492996e-11
1.398547423e-09
-8.379733667e-11
1.400621569e-09
-8.693413811e-11
1.398656314e-09
-8.963038777e-11
1.392904785e-09
-9.18550294e-11
1.383607561e-09
-9.358098115e-11
1.370991327e-09
-9.478508044e-11
1.355267708e-09
-9.544783474e-11
1.336631296e-09
-9.55534557e-11
1.315257888e-09
-9.508933734e-11
1.291301785e-09
-9.404597387e-11
1.264892511e-09
-9.241642588e-11
1.236130522e-09
-9.019620348e-11
1.205081644e-09
-8.738294989e-11
1.171769547e-09
-8.397657298e-11
1.136166438e-09
-7.997944985e-11
1.098180624e-09
-7.53976479e-11
1.057642538e-09
-7.024313337e-11
1.014290178e-09
-6.45375229e-11
9.677564311e-10
-5.831727966e-11
9.175641734e-10
-5.16403935e-11
8.631326468e-10
-4.459385225e-11
8.037963479e-10
-3.730099217e-11
7.388337122e-10
-2.992809581e-11
6.675002765e-10
-2.269038319e-11
5.89059524e-10
-1.585658971e-11
5.028071741e-10
-9.753022791e-12
4.080878061e-10
-4.766576789e-12
3.043183547e-10
-1.346317658e-12
1.910414579e-10
6.79405546e-11
-3.294816524e-13
7.319798645e-11
-1.291468414e-12
2.139472237e-10
-2.844996858e-12
3.460926577e-10
-4.946959358e-12
4.695487032e-10
-7.552492871e-12
5.843236556e-10
-1.061524226e-11
6.904903705e-10
-1.408748281e-11
7.881712913e-10
-1.791997674e-11
8.775351315e-10
-2.206212559e-11
9.587889882e-10
-2.6462145e-11
1.032170453e-09
-3.106712298e-11
1.097941145e-09
-3.582330099e-11
1.15638102e-09
-4.0676265e-11
1.207783335e-09
-4.557134367e-11
1.252450081e-09
-5.045415415e-11
1.29068864e-09
-5.527081118e-11
1.322808103e-09
-5.996844099e-11
1.349116959e-09
-6.449580123e-11
1.369920841e-09
-6.880366142e-11
1.385520698e-09
-7.284525303e-11
1.396211008e-09
-7.657660248e-11
1.402278772e-09
-7.995689203e-11
1.404001859e-09
-8.294883546e-11
1.401648257e-09
-8.55187117e-11
1.395474662e-09
-8.763649747e-11
1.385725348e-09
-8.927596737e-11
1.372630798e-09
-9.041450848e-11
1.356406249e-09
-9.103316733e-11
1.337249955e-09
-9.111642616e-11
1.315341147e-09
-9.06518958e-11
1.290837255e-09
-8.96301067e-11
1.263870723e-09
-8.804427036e-11
1.234544686e-09
-8.58899541e-11
1.202927328e-09
-8.316508828e-11
1.169044681e-09
-7.986996361e-11
1.132871313e-09
-7.600784131e-11
1.094318502e-09
-7.158626718e-11
1.053220964e-09
-6.661909099e-11
1.009323001e-09
-6.113019868e-11
9.622675384e-10
-5.515860762e-11
9.115925821e-10
-4.876438352e-11
8.567384227e-10
-4.203512214e-11
7.970670866e-10
-3.509248125e-11
7.318910712e-10
-2.809744116e-11
6.605052363e-10
-2.125521928e-11
5.822173021e-10
-1.481880249e-11
4.963707573e-10
-9.091929017e-12
4.023609326e-10
-4.431264173e-12
2.996576898e-10
-1.247191429e-12
1.878573852e-10
6.669336315e-11
-3.158043928e-13
7.351379085e-11
-1.237787826e-12
2.148692072e-10
-2.726552447e-12
3.475814223e-10
-4.740573507e-12
4.715627241e-10
-7.236635756e-12
5.868197178e-10
-1.016997471e-11
6.934237094e-10
-1.349457022e-11
7.914958867e-10
-1.716301969e-11
8.812035811e-10
-2.11266185e-11
9.627525871e-10
-2.533550824e-11
1.036379343e-09
-2.973885172e-11
1.102344488e-09
-3.42850214e-11
1.16092719e-09
-3.892180572e-11
1.21242012e-09
-4.359697777e-11
1.257125253e-09
-4.825832898e-11
1.295349991e-09
-5.285433588e-11
1.32740411e-09
-5.733458127e-11
1.353597205e-09
-6.16501105e-11
1.374236371e-09
-6.575387585e-11