/*--------------------------------*- C++ -*----------------------------------*\
  =========                 |
  \\      /  F ield         | OpenFOAM: The Open Source CFD Toolbox
   \\    /   O peration     | Website:  https://openfoam.org
    \\  /    A nd           | Version:  7
     \\/     M anipulation  |
\*---------------------------------------------------------------------------*/
FoamFile
{
    version     2.0;
    format      ascii;
    class       volScalarField;
    location    "0.003";
    object      T;
}
// * * * * * * * * * * * * * * * * * * * * * * * * * * * * * * * * * * * * * //

dimensions      [0 0 0 1 0 0 0];

internalField   nonuniform List<scalar> 
1167
(
438.1936033
438.2659464
438.4214769
438.6527279
438.9564479
439.3301716
439.7722098
440.2815631
440.8571675
441.4987962
442.2063579
442.9796432
443.8191372
444.7252581
445.6984499
446.7392003
447.8479652
449.0251349
450.2707526
451.5848899
452.9674949
454.4179503
455.9355991
457.5194369
459.1683322
460.8803829
462.6538227
464.4864766
466.3758268
468.3188207
470.312268
472.3527695
474.4364854
476.559504
478.7174833
438.3826087
438.45714
438.6173939
438.8557151
439.1687779
439.5538858
440.0098462
440.5350719
441.1291683
441.7911829
442.5213273
443.3195755
444.1860752
445.1210127
446.1247669
447.1975897
448.3396654
449.5510894
450.831774
452.1814186
453.59904
455.0842458
456.6354508
458.2515802
459.930594
461.6704728
463.4688638
465.3231215
467.2301626
469.186559
471.1888333
473.2330951
475.3152833
477.431193
479.5763051
481.7460795
483.9357459
486.1405628
488.3555759
490.5761631
492.7975413
495.0149653
497.2239541
499.4200765
501.5994178
503.7582567
505.8933282
508.0018345
510.0818565
512.1320823
438.57518
438.6519541
438.8170477
439.062608
439.3849697
439.7819659
440.251984
440.7935001
441.4060274
442.0890023
442.8419296
443.6650538
444.5583869
445.5220123
446.5560449
447.6605291
448.8354284
450.080465
451.3949843
452.778393
454.2297843
455.7474763
457.3302891
458.9760487
460.6826049
462.4474214
464.2676844
466.1403225
468.0616862
470.0281911
472.0360294
474.0809834
476.1588288
478.2649287
480.3948429
482.5439127
484.7074046
486.880661
489.0589622
491.2376847
493.4122286
495.5783004
497.7318142
499.8687726
501.9855374
504.0788331
506.1458722
508.1842201
510.1924364
512.1695214
438.771364
438.8504269
439.020458
439.2732374
439.6052323
440.0143179
440.4984136
441.056624
441.687738
442.3915422
443.1676424
444.0156761
444.9357501
445.9278116
446.9917469
448.127375
449.3341147
450.6114859
451.9587849
453.3746306
454.8576889
456.4062396
458.0182658
459.6912902
461.4228383
463.2098432
465.0490157
466.936924
468.8697131
470.8434631
472.8539831
474.8968919
476.9678075
479.0620642
481.1750794
483.3020352
485.4383909
487.5796244
489.7211742
491.858702
493.9878383
496.1045976
498.2051332
500.2858534
502.3435682
504.3754098
506.3789942
508.3523188
510.2941983
512.2039085
438.9712008
439.0525899
439.2275366
439.487632
439.8295137
440.2507059
440.7491686
441.3239873
441.9740197
442.6986368
443.4975961
444.3705571
445.3172336
446.3373651
447.4306006
448.5964946
449.834342
451.1432773
452.5216963
453.9684942
455.4815211
457.0589076
458.6978451
460.395949
462.1499625
463.9563435
465.8118178
467.712389
469.653931
471.6322976
473.6430183
475.68163
477.7435326
479.8240733
481.9186426
484.0225695
486.1313334
488.2404415
490.3456374
492.4427782
494.5277904
496.597038
498.6470128
500.6744956
502.6766143
504.6508591
506.5951911
508.5079723
510.3882854
512.2356475
439.1746911
439.2583264
439.4382188
439.7058866
440.0577561
440.4909738
441.0040878
441.5954595
442.2644181
443.0099748
443.8316907
444.7292098
445.7020781
446.7498136
447.8718261
449.0673637
450.3351595
451.6740863
453.0826349
454.5585535
456.0999539
457.7039198
459.3679353
461.0887322
462.8626045
464.6861491
466.5554488
468.4661966
470.4140904
472.394735
474.4034957
476.4358441
478.487024
480.5524464
482.6274788
484.7075699
486.7883491
488.8655105
490.9350011
492.9928458
495.035303
497.0590286
499.0607947
501.0377606
502.9873829
504.9074772
506.7963132
508.6525755
510.4755795
512.2650511
439.3816557
439.4676657
439.6526762
439.9279754
440.2897094
440.7352005
441.2628608
441.8709352
442.5585499
443.3249557
444.1694313
445.0912381
446.0898869
447.1646496
448.3145464
449.538563
450.8353702
452.2033324
453.6401115
455.1438697
456.7114727
458.3404057
460.0272716
461.7683903
463.5601384
465.3985609
467.2793535
469.1980126
471.1501109
473.1309506
475.1358888
477.160305
479.1993977
481.2486153
483.3033317
485.3591551
487.411885
489.4573744
491.4918054
493.511413
495.5127968
497.4928783
499.4487213
501.3778055
503.2779015
505.1471434
506.9839076
508.7872912
510.5568124
512.2923772
439.5923503
439.6807487
439.8709042
440.1538628
440.5253695
440.9832787
441.5252782
442.1501936
442.856357
443.6432526
444.5099885
445.4557263
446.4796188
447.5806916
448.757824
450.0095868
451.3341577
452.7295069
454.1934942
455.7229597
457.3153919
458.9671675
460.6747872
462.4343737
464.2418542
466.0929397
467.9829933
469.9074685
471.8617654
473.8410429
475.8406025
477.8556606
479.8815414
481.9136888
483.9475943
485.9789939
488.0038266
490.0181759
492.0184084
494.0009818
495.9628299
497.9011125
499.8131778
501.6967848
503.5499899
505.371231
507.1592724
508.9130988
510.6325976
512.3178414
439.8067883
439.8975812
440.0928923
440.383215
440.7647965
441.2349887
441.7913721
442.4326549
443.1575555
443.9646958
444.8533425
445.8224824
446.8710288
447.9977656
449.2011966
450.479359
451.8305169
453.2521626
454.7413786
456.2953696
457.910557
459.5833715
461.3099628
463.0859621
464.9069979
466.7686849
468.666173
470.5947179
472.5495144
474.5256582
476.5184292
478.5229788
480.5347233
482.549131
484.5618411
486.5687506
488.5659253
490.5496998
492.5166209
494.4634189
496.3872966
498.2856518
500.1561204
501.9965536
503.8053884
505.5813398
507.3233715
509.0308307
510.7034551
512.3416255
440.0249759
440.1181625
440.3183975
440.6162968
441.0079228
441.4901123
442.0609923
442.7184832
443.4615211
444.2887875
445.1990427
446.1910685
447.2635273
448.4149515
449.643577
450.9473861
452.3238556
453.7701741
455.2834303
456.8600148
458.4963293
460.1885246
461.9319584
463.7224022
465.5553253
467.4258439
469.3289925
471.25994
473.213686
475.1853273
477.1701132
479.1632252
481.1601415
483.1563624
485.1476991
487.1302206
489.1001155
491.0539723
492.9885046
494.9007258
496.7880695
498.6481508
500.478889
502.2785149
504.0454748
505.778657
507.477341
509.1412027
510.7698302
512.3638846
440.2467816
440.3422259
440.5475477
440.8530683
441.2545421
441.7487626
442.3337566
443.00749
443.7683814
444.6151676
445.5464237
446.5607075
447.6564382
448.8318577
450.0848752
451.4128968
452.8133486
454.2831786
455.8186875
457.416412
459.0722305
460.7817095
462.5404227
464.3436906
466.1867115
468.0642636
469.9713727
471.9031322
473.8544363
475.8204063
477.7961672
479.7770297
481.7585101
483.7362372
485.7061616
487.6645006
489.6076498
491.5323764
493.4355754
495.3145519
497.1669511
498.9904334
500.7833038
502.5440218
504.271344
505.9642198
507.6220203
509.2447337
510.8321084
512.3847525
440.4721567
440.5699735
440.7803961
441.0934861
441.5045313
442.0108402
442.6096511
443.2993118
444.0779158
444.9438014
445.8955382
446.9314383
448.0496816
449.2480852
450.5241599
451.8754341
453.2986632
454.790334
456.3468471
457.9640341
459.6375378
461.3629083
463.1352275
464.9494463
466.8007287
468.6837847
470.5935
472.5247712
474.4724743
476.4317455
478.3976697
480.3656723
482.3313217
484.2903979
486.2389936
488.1734733
490.0903896
491.9866923
493.8594855
495.7063445
497.5251029
499.3137695
501.0707044
502.7944438
504.4840953
506.1389415
507.7581469
509.3420685
510.8906264
512.4043456
440.701259
440.801431
441.0169142
441.3372582
441.7580064
442.2760869
442.8886679
443.5937929
444.3896234
445.2742948
446.2459847
447.3027574
448.4425429
449.6629617
450.9613688
452.3345818
453.779159
455.2915
456.8673505
458.502442
460.1923023
461.931689
463.7158051
465.5396099
467.3977658
469.2849111
471.195886
473.1254109
475.0683853
477.0199939
478.9753608
480.929985
482.8794764
484.8197778
486.7471515
488.6580733
490.5493755
492.4181485
494.2616915
496.0777289
497.8642133
499.6194622
501.3421022
503.0308688
504.6847868
506.3034866
507.8863826
509.4337022
510.9456833
512.4227668
440.9340692
441.0365748
441.256928
441.5845015
442.0149003
442.544394
443.1706666
443.8909679
444.7035356
445.6063372
446.5973208
447.6743114
448.8349554
450.0765626
451.395948
452.7898874
454.2547403
455.786118
457.3800013
459.0315773
460.7359111
462.4879805
464.2825851
466.1144231
467.977883
469.8676834
471.7785864
473.7052654
475.642669
477.5858637
479.5301081
481.4709677
483.4041531
485.3257547
487.2321897
489.1200324
490.9862649
492.8281961
494.6433561
496.4297216
498.1854898
499.9088302
501.598704
503.2541774
504.8742893
506.4587415
508.0073108
509.5200639
510.9975437
512.4401074
441.1705346
441.2752108
441.5003587
441.8352382
442.2749854
442.8158608
443.4552358
444.1906577
445.0195916
445.940009
446.9496623
448.0461414
449.2267052
450.4882442
451.827706
453.2413174
454.7248487
456.2742311
457.8845667
459.5510827
461.2687165
463.0319135
464.8353633
466.6737088
468.5412851
470.43264
472.3424367
474.2653395
476.1963433
478.1304377
480.0630007
481.9897114
483.9064127
485.8093218
487.6949838
489.5601878
491.4021334
493.2181902
495.0060006
496.7637474
498.4898495
500.1829221
501.8415833
503.4652665
505.0533907
506.6053799
508.1214599
509.6015399
511.0464445
512.4564484
441.4103612
441.517312
441.7473363
442.0894164
442.5381818
443.0904102
443.74261
444.4924727
445.3374283
446.2750068
447.3026642
448.4177468
449.6173064
450.8981268
452.2565575
453.6884134
455.1897309
456.7554617
458.3810351
460.0612234
461.7904333
463.5633777
465.3745321
467.2181934
469.0885795
470.9802562
472.8878191
474.8059738
476.729736
478.6541612
480.5747358
482.4871415
484.3873784
486.2718088
488.1371003
489.9800975
491.7982562
493.5890948
495.3506062
497.0810177
498.7786632
500.4425534
502.0716664
503.6650864
505.2227419
506.7440078
508.2292382
509.678485
511.0926025
512.4718637
441.653789
441.7629831
441.9978132
442.3467264
442.8046057
443.3676961
444.0327058
444.7966438
445.6570113
446.6111049
447.6561434
448.7891979
450.0070232
451.305984
452.6821345
454.1314839
455.648909
457.2300934
458.8694017
460.5617575
462.3015027
464.0829134
465.9002854
467.7478807
469.6199539
471.5110017
473.4154975
475.328201
477.2441302
479.1584393
481.0666184
482.964461
484.8481311
486.7141483
488.5592917
490.3807235
492.1759196
493.942346
495.6783433
497.382367
499.0529382
500.6889064
502.2896773
503.8544151
505.3830036
506.8751909
508.3311476
509.7512225
511.1362151
512.4864206
441.900771
442.0121756
442.2516065
442.6072889
443.0741973
443.6478473
444.3252305
445.1030931
445.9784198
446.9484787
448.0102558
449.1605247
450.3954973
451.7116443
453.1047749
454.5700097
456.1028752
457.6978428
459.3498702
461.0532256
462.8019584
464.5905144
466.4130624
468.2636092
470.1363624
472.0257064
473.9262058
475.8326842
477.7401066
479.6437707
481.5393085
483.4225721
485.2898422
487.1377597
488.9630728
490.763265
492.5359264
494.2789117
495.9904022
497.6689668
499.3134754
500.9228732
502.4965008
504.0339728
505.5348984
506.9994532
508.4276289
509.8200514
511.1774346
512.500181
442.1512521
442.2646864
442.5085928
442.8711276
443.3466504
443.9308777
444.6201896
445.411431
446.3014026
447.2869051
448.3646874
449.5312466
450.7828269
452.1154021
453.5240927
455.0045296
456.5512854
458.159295
459.8225472
461.5355584
463.2923538
465.0869638
466.9133535
468.7656175
470.6379955
472.5248527
474.4206848
476.3203693
478.2188659
480.111561
481.9941268
483.8626199
485.7134348
487.5433369
489.3493643
491.1289865
492.8797167
494.5997866
496.287665
497.9418502
499.5612549
501.1452913
502.6929742
504.2043796
505.6790085
507.1172805
508.5190659
509.8852496
511.2164472
512.5132022
442.4048465
442.5204246
442.7689143
443.138185
443.6220562
444.2166478
444.9176787
445.7218773
446.6258877
447.6262727
448.7195105
449.9018098
451.1691651
452.5168651
453.9405419
455.4348775
456.9947018
458.6141884
460.287853
462.0094159
463.7728752
465.5723595
467.4017053
469.2548511
471.1260257
473.0094522
474.8997936
476.7919707
478.6810044
480.562404
482.4319338
484.2857234
486.1202725
487.9323496
489.7192742
491.4786505
493.2082868
494.9061953
496.5711057
498.2018955
499.7972309
501.3567532
502.8798142
504.3662196
505.8158813
507.2290457
508.6058177
509.9470769
511.2534253
512.5255375
442.661818
442.7795084
443.03251
443.4080771
443.9004541
444.5049115
445.2175692
446.034455
446.952066
447.9668166
449.0749042
450.2721082
451.554174
452.9165265
454.3540606
455.8613925
457.4330856
459.063313
460.7459409
462.4749785
464.2442791
466.0476212
467.8787575
469.7317246
471.6007559
473.4801212
475.3644502
477.2486759
479.1279158
480.9976853
482.8538897
484.6928031
486.511094
488.3057497
490.074046
491.8135969
493.522476
495.1990859
496.8418302
498.4498526
500.0222345
501.5582252
503.0577065
504.5202092
505.9460369
507.3352343
508.6882233
510.005778
511.2885169
512.5372368
442.9220985
443.0418707
443.299127
443.6810488
444.1817486
444.7958959
445.5196169
446.3488914
447.2797738
448.3083572
449.4305559
450.6420663
451.9383789
453.314383
454.7648265
456.2843219
457.866878
459.5066366
461.1975234
462.9329198
464.7068256
466.5130383
468.3452162
470.1972982
472.063423
473.9379225
475.8155528
477.691219
479.5602052
481.4181807
483.2610683
485.0851953
486.8872938
488.664551
490.4144752
492.1348813
493.8235305
495.4792378
497.1007576
498.6867958
500.2369797
501.750444
503.2272311
504.666927
506.0699715
507.4362909
508.766605
510.0615846
511.321862
512.5483475
443.1855693
443.3072412
443.5687328
443.9570521
444.4656083
445.0895579
445.8240835
446.6652716
447.6089352
448.6508955
449.7867788
451.0120598
452.3217126
453.7105425
455.173288
456.7037752
458.296425
459.9448281
461.6426684
463.3836613
465.1614736
466.9695427
468.8017164
470.6519894
472.5145151
474.3836399
476.2541394
478.1208951
479.9792459
481.8250528
483.6543586
485.4636628
487.2498664
489.0100202
490.7418003
492.4432242
494.1124361
495.7478235
497.3485756
498.9135539
500.4422049
501.9341128
503.3890122
504.8069271
506.1881223
507.5326092
508.8412713
510.1147186
511.3535942
512.5589146
462.0823173
463.8277859
465.6084033
467.4176597
469.249213
471.0970279
472.9551823
474.818199
476.680913
478.538304
480.3858813
482.2194627
484.0351263
485.8295233
487.5997197
489.3430264
491.0571298
492.739924
494.3899239
496.0057582
497.5863025
499.1309336
500.6387848
502.1099114
503.5437514
504.9407437
506.3009106
507.6245676
508.9125182
510.1653779
511.3838416
512.5689809
)
;

boundaryField
{
    front_top
    {
        type            wedge;
    }
    front_middle
    {
        type            wedge;
    }
    front_bottom
    {
        type            wedge;
    }
    back_top
    {
        type            wedge;
    }
    back_middle
    {
        type            wedge;
    }
    back_bottom
    {
        type            wedge;
    }
    axis_top
    {
        type            symmetryPlane;
    }
    axis_middle
    {
        type            symmetryPlane;
    }
    axis_bottom
    {
        type            symmetryPlane;
    }
    wall_top
    {
        type            convectiveRadiativeHeatFlux;
        mode            convectiveRadiative;
        kappaMethod     fluidThermo;
        kappa           none;
        alphaAni        Anialpha;
        h               nonuniform 0();
        Ta              constant 513.15;
        emissivityNozzle 0.95;
        emissivityFilament 0.95;
        dNozzle         2;
        dFilament       1.65;
        refValue        nonuniform 0();
        refGradient     nonuniform 0();
        valueFraction   nonuniform 0();
        value           nonuniform 0();
    }
    wall_middle
    {
        type            fixedValue;
        value           uniform 513.15;
    }
    wall_bottom
    {
        type            fixedValue;
        value           nonuniform 0();
    }
    inlet
    {
        type            fixedValue;
        value           nonuniform 0();
    }
    outlet
    {
        type            zeroGradient;
    }
    procBoundary4to3
    {
        type            processor;
        value           nonuniform List<scalar> 
51
(
443.4519056
443.5756008
443.8414024
444.2359133
444.7522897
445.3855605
446.1309441
446.9837353
447.9398071
448.994697
450.1437461
451.3819343
452.7042853
454.1054703
455.579311
457.1203834
458.7219547
460.378169
460.378169
462.5166236
464.26601
466.0487346
467.8582157
469.6882537
471.5328707
473.3861793
475.242687
477.0972263
478.9448428
480.7812169
482.6022276
484.4042
486.1838751
487.9381715
489.664674
491.3612841
493.0259814
494.6571474
496.2538398
497.8148274
499.3395496
500.82745
502.2783769
503.6920475
505.0689009
506.4088605
507.7125286
508.9806296
510.2137491
511.4127266
512.5785877
)
;
    }
    procBoundary4to5
    {
        type            processor;
        value           nonuniform List<scalar> 
51
(
438.007918
438.0782307
438.2292697
438.4536473
438.7482516
439.1108578
439.5393572
440.0330283
440.5906593
441.2122349
441.8971886
442.6458836
443.4586989
444.3360951
445.278635
446.2869824
447.3617945
448.5037356
449.7133175
450.9909803
452.3367604
453.7506438
455.2325412
456.7816532
458.3974383
460.0787952
461.8240348
463.6316572
465.4996677
467.4255766
469.4065575
471.4396666
473.5214752
475.6483496
477.8163349
480.9060414
480.9060414
483.1204888
485.3558492
487.6074799
489.8704194
492.1397508
494.4101293
496.6770476
498.9357554
501.1817289
503.4106154
505.618831
507.8031345
509.9611153
512.0910987
)
;
    }
}


// ************************************************************************* //
