/*--------------------------------*- C++ -*----------------------------------*\
  =========                 |
  \\      /  F ield         | OpenFOAM: The Open Source CFD Toolbox
   \\    /   O peration     | Website:  https://openfoam.org
    \\  /    A nd           | Version:  7
     \\/     M anipulation  |
\*---------------------------------------------------------------------------*/
FoamFile
{
    version     2.0;
    format      ascii;
    class       volScalarField;
    location    "0.003";
    object      T;
}
// * * * * * * * * * * * * * * * * * * * * * * * * * * * * * * * * * * * * * //

dimensions      [0 0 0 1 0 0 0];

internalField   nonuniform List<scalar> 
1166
(
298.1625368
298.1628812
298.1636368
298.1647999
298.1664012
298.1684909
298.1711383
298.1744327
298.1784859
298.1834356
298.1894487
298.1967268
298.2055113
298.2160908
298.2288087
298.2440725
298.2623646
298.2842543
298.3104121
298.3416255
298.3788173
298.4230665
298.4756306
298.5379727
298.6117897
298.6990448
298.8020033
298.9232722
299.0658442
299.2324579
299.4267765
299.6539082
299.9188658
300.2267148
300.5822593
300.9945131
301.4690896
302.015732
302.6420316
303.3596718
304.1790018
305.1113197
306.1702119
307.3691198
308.7240201
310.2517223
311.9685664
313.8941042
316.0488482
318.4536156
298.3139847
298.317847
298.3262778
298.3391365
298.3566173
298.3790731
298.406994
298.4410033
298.4818585
298.5304565
298.5878406
298.6552095
298.7339273
298.8255348
298.9317611
299.0545355
299.1956194
299.3567935
299.5414208
299.7523185
299.9925535
300.2645333
300.5712216
300.9176815
301.3067737
301.7418705
302.2286684
302.7690643
303.3693748
304.0330466
304.7637026
305.5666849
306.4457693
307.4046896
308.4470651
309.5763021
310.7955398
312.1074548
313.5124814
315.013471
316.6093705
318.300664
320.0849074
321.9589604
323.9189436
325.9588469
328.0709848
330.2454111
332.4703554
334.7322252
298.7650003
298.7771821
298.8036667
298.8437791
298.8977894
298.9663505
299.0504167
299.151201
299.2692127
299.4069666
299.5663811
299.7495912
299.9589407
300.1966019
300.4639217
300.7653133
301.1038397
301.4801741
301.8995068
302.3640362
302.8766497
303.440662
304.0593742
304.7342497
305.469606
306.2676079
307.1301857
308.0590788
309.056665
310.1243853
311.2627546
312.4726341
313.7546014
315.1086715
316.5326181
318.0268337
319.5882453
321.2157469
322.9052258
324.6539658
326.458103
328.3130904
330.2139503
332.1553322
334.1315136
336.1367475
338.1650335
340.210241
342.2664707
344.3280672
299.6774919
299.7025022
299.7566953
299.8382947
299.9472905
300.0842854
300.2495273
300.4444557
300.6712923
300.9319996
301.228164
301.5608037
301.93409
302.3491864
302.8083686
303.3148093
303.8696927
304.4759505
305.1362328
305.8504274
306.6221222
307.4525836
308.3429202
309.2940354
310.306664
311.3812546
312.5179575
313.7166914
314.9770549
316.2976052
317.6769852
319.1146272
320.6069153
322.1533523
323.7494901
325.3938941
327.0828666
328.812317
330.5793485
332.3799298
334.2099278
336.0648417
337.9406109
339.8331217
341.7380144
343.6510282
345.567969
347.4847964
349.3975696
351.3025668
301.1376401
301.1778707
301.2646086
301.3946036
301.5671406
301.7822949
302.0406646
302.3418301
302.6873837
303.0796704
303.5178045
304.0053994
304.542189
305.1314582
305.7720132
306.4672893
307.2180212
308.0241318
308.8868624
309.8069986
310.7847458
311.8200677
312.9127577
314.0623965
315.2677576
316.5278409
317.8419366
319.2084195
320.6244257
322.0893901
323.5995224
325.1538551
326.7479524
328.3803198
330.0474115
331.7455679
333.4721473
335.2236777
336.9961247
338.7862297
340.5906004
342.4056794
344.2279457
346.0534515
347.8788048
349.7009717
351.5167571
353.3230965
355.1172146
356.8981839
303.1359618
303.1914151
303.3107955
303.4890732
303.7245387
304.0163916
304.362935
304.7644988
305.2219779
305.7336246
306.3017976
306.9253668
307.6050964
308.3418037
309.1352472
309.9846286
310.8907898
311.8533015
312.8716547
313.9452047
315.0731216
316.253908
317.4863404
318.7694502
320.1016547
321.4799528
322.903493
324.3695232
325.8756468
327.4194432
328.998278
330.6089617
332.2493783
333.9156085
335.6050839
337.3150208
339.0418501
340.7821136
342.5332182
344.2920369
346.0550101
347.8188337
349.581059
351.3388184
353.089047
354.8286087
356.5577933
358.2771855
359.986222
361.6832692
305.597184
305.6661977
305.8148083
306.0361426
306.3262893
306.6834032
307.1069603
307.5934121
308.1442474
308.7557916
309.4293783
310.1638307
310.9570251
311.8091903
312.7193224
313.6863311
314.7090447
315.7861937
316.9164463
318.0983653
319.3296066
320.6088352
321.9344579
323.3039634
324.7148814
326.1658048
327.6527721
329.1748492
330.7278106
332.3102336
333.9184299
335.5497707
337.2018436
338.8706339
340.5538717
342.2487566
343.9515391
345.6595227
347.3701801
349.0803368
350.7864918
352.486867
354.17894
355.859851
357.5311469
359.1929844
360.8435538
362.4808693
364.0989729
365.6800905
308.4173889
308.4972373
308.6689838
308.9242677
309.258681
309.6683572
310.1523506
310.7058219
311.3288902
312.0184319
312.772394
313.5896416
314.4681905
315.4061301
316.4015805
317.4526958
318.5575934
319.7143051
320.9208466
322.1750763
323.4739035
324.8160046
326.1989213
327.6190984
329.0752933
330.5635721
332.082415
333.6277574
335.198099
336.7892328
338.3993065
340.0250539
341.6630484
343.3112257
344.96595
346.6244039
348.2843468
349.9421273
351.5953272
353.2419597
354.8785016
356.5050979
358.122197
359.7285899
361.323764
362.9041682
364.4615398
365.9806206
367.4446167
368.8465203
311.4882661
311.5764317
311.7659089
312.047135
312.4141233
312.8636586
313.3920051
313.9958692
314.6717456
315.4175879
316.2303903
317.107182
318.0454184
319.0428262
320.096847
321.2047583
322.3639169
323.5720092
324.8265297
326.1249547
327.4635487
328.8406074
330.2532421
331.6979338
333.1729341
334.6739401
336.1995563
337.745465
339.3099718
340.8892352
342.4806995
344.0817975
345.6885651
347.2994467
348.9106882
350.519914
352.1251117
353.7221702
355.3108956
356.8898082
358.4596111
360.0197179
361.5679382
363.1022991
364.6122052
366.0849232
367.5034826
368.8635048
370.1647639
371.4078094
314.7165222
314.8107175
315.0130282
315.3122233
315.7026741
316.1805842
316.739958
317.3784196
318.0917129
318.8756081
319.7274779
320.6438905
321.6215958
322.6574476
323.7483473
324.8913026
326.0833668
327.3209486
328.6013668
329.9219876
331.2794528
332.670396
334.0926873
335.542106
337.0168552
338.512969
340.0282707
341.5588713
343.1029258
344.6561497
346.2172126
347.7818021
349.348378
350.9136151
352.4750787
354.0307516
355.578045
357.1179743
358.6492925
360.1724941
361.6845553
363.183949
364.6599609
366.1006694
367.4897559
368.8231808
370.1006984
371.3230987
372.499761
373.6402641
318.0273323
318.1256282
318.3358536
318.6471236
319.0537352
319.5492198
320.1301585
320.7904175
321.5270327
322.3356674
323.212241
324.1528502
325.15382
326.2115824
327.3226185
328.4835618
329.6911266
330.9420475
332.2328365
333.5597422
334.9204088
336.3111899
337.7287226
339.1707615
340.6327496
342.1132989
343.6078133
345.1149223
346.6301261
348.1523942
349.6770122
351.2033903
352.7271321
354.2475648
355.7617162
357.2707021
358.7734849
360.2699672
361.7576363
363.2343733
364.6901329
366.1130666
367.4871784
368.8085942
370.0768051
371.2928158
372.4647973
373.6025319
374.7162971
375.8164998
321.3630576
321.4635182
321.6791046
321.9982684
322.4138131
322.9206183
323.5131888
324.1872088
324.9369626
325.7587167
326.6481345
327.6009678
328.6131848
329.6808815
330.8002809
331.9677287
333.1795294
334.4315754
335.7211073
337.044849
338.3986878
339.7798217
341.1853555
342.6109807
344.0550958
345.5133458
346.9838798
348.4630184
349.9486236
351.4375801
352.9277247
354.4164183
355.9024506
357.3856198
358.8656276
360.3416651
361.8116214
363.2728824
364.7158141
366.1284936
367.4948899
368.8112691
370.0767636
371.2921509
372.4653601
373.6060544
374.7244904
375.8311436
376.9343207
378.0395857
324.6833224
324.7851892
325.0037366
325.3264884
325.7467653
326.259252
326.8575856
327.5371894
328.2932556
329.1207507
330.0148111
330.9714717
331.9864341
333.0555384
334.17475
335.339833
336.5474072
337.7938851
339.0757991
340.38884
341.7301811
343.0969022
344.4845962
345.8912189
347.3133674
348.7477046
350.1923425
351.6430201
353.0989241
354.5558201
356.013897
357.4717834
358.9296639
360.3861238
361.8392444
363.2860904
364.7172112
366.1206325
367.480442
368.792424
370.055465
371.2703511
372.4439916
373.5862187
374.7071618
375.8172741
376.924896
378.0356292
379.1522417
380.2747581
327.9605169
328.0629279
328.2821325
328.6059327
329.028065
329.5415314
330.1418015
330.8221377
331.5785124
332.4057987
333.2991296
334.2538902
335.2656427
336.3301218
337.4432455
338.6010835
339.7997961
341.035672
342.304634
343.6032418
344.928551
346.2768609
347.644556
349.0294932
350.4275669
351.8365781
353.2538711
354.6759896
356.1028127
357.5323683
358.965104
360.3991059
361.8324471
363.2621556
364.678761
366.070402
367.4217881
368.7271723
369.9854616
371.1980786
372.3691139
373.509265
374.6283536
375.7367191
376.8427246
377.9520316
379.0675004
380.1892436
381.3141793
382.4373711
331.1759552
331.2779392
331.4966579
331.8201057
332.2413148
332.753415
333.3515824
334.0299196
334.7829148
335.6060383
336.4943124
337.4430087
338.4475848
339.5036687
340.6070453
341.7537069
342.9397835
344.1614842
345.4142969
346.695531
348.0018413
349.3292113
350.6745611
352.0355228
353.4080023
354.7900129
356.1802228
357.5766158
358.9794489
360.3864911
361.7956686
363.2042466
364.6025945
365.9791589
367.319807
368.6162602
369.8677145
371.0757571
372.2434544
373.3792455
374.4938925
375.5975978
376.6988131
377.8033595
378.9143399
380.0321168
381.1542798
382.2760135
383.3920709
384.4989559
334.3174219
334.4188814
334.6364533
334.9581492
335.3765032
335.885536
336.4794398
337.1531526
337.9002349
338.7164997
339.5969058
340.5366063
341.5309914
342.5756585
343.6663325
344.7989196
345.9694954
347.1741854
348.4085474
349.6697841
350.9545738
352.2591624
353.5799256
354.9150011
356.2620189
357.6194283
358.9867236
360.3615324
361.7415706
363.1243275
364.5003767
365.8582803
367.1855662
368.4706951
369.7133318
370.9144113
372.0777738
373.2089709
374.317506
375.4147729
376.5093575
377.6073097
378.7120734
379.8243725
380.9422297
382.0615368
383.1770171
384.284248
385.3818882
386.4696393
337.3781117
337.4787213
337.6944522
338.0133783
338.4278431
338.9322422
339.5203857
340.1873444
340.9266932
341.7340333
342.6044058
343.5329042
344.514863
345.5458067
346.6214293
347.737605
348.890349
350.0758579
351.2898656
352.5289769
353.7901652
355.0704632
356.3668836
357.6785008
359.0038894
360.340499
361.6858539
363.037259
364.3865304
365.7216079
367.0306861
368.3028868
369.5342101
370.726208
371.8821045
373.0074704
374.1101327
375.1996104
376.2857339
377.3752711
378.4720599
379.5772476
380.6893594
381.8046233
382.9180408
384.0251007
385.123613
386.2128082
387.2926101
388.3625809
340.3535687
340.4530656
340.6663955
340.981733
341.3915526
341.8900363
342.4712615
343.1300982
343.8600366
344.6569188
345.5155952
346.4311516
347.3988875
348.4142751
349.4729734
350.5708527
351.7039279
352.8683615
354.0605265
355.2766795
356.5146087
357.7727627
359.0490688
360.3407096
361.6451181
362.9593284
364.2763363
365.5835806
366.8695337
368.1251034
369.3421441
370.5222017
371.6681442
372.7847292
373.8790097
374.9599846
376.0366396
377.1159616
378.2027011
379.298821
380.4033837
381.5129994
382.6228906
383.7283156
384.8264434
385.9163356
386.9977147
388.0701303
389.1329625
390.1855891
343.2410648
343.3392355
343.549712
343.8608067
344.2654905
344.7570167
345.3304715
345.9796952
346.6992568
347.4844795
348.3301948
349.2314618
350.1835681
351.1819978
352.2223888
353.3005763
354.4126863
355.5553825
356.7259861
357.9221032
359.1412969
360.3803396
361.6367625
362.9071871
364.1855499
365.459056
366.7164824
367.9484821
369.149129
370.3135975
371.4463855
372.5513607
373.6347015
374.704577
375.7696868
376.8371686
377.9119564
378.99659
380.0911708
381.193141
382.297803
383.4000919
384.4964872
385.5857023
386.6673441
387.7410002
388.8060369
389.8618385
390.9076602
391.9426561
346.0389432
346.1359977
346.3432917
346.649572
347.0483845
347.5324746
348.0973709
348.7360392
349.4444074
350.2170868
351.0484706
351.9339808
352.8691676
353.8495293
354.8709101
355.9296913
357.0228012
358.1473497
359.300088
360.4783663
361.6789226
362.8981557
364.1303494
365.3633188
366.5858116
367.7883855
368.9645763
370.111284
371.2275943
372.3174464
373.3867228
374.4426535
375.4935574
376.5466662
377.6071866
378.6781356
379.7601568
380.8514427
381.9481426
383.0452848
384.1385049
385.2255931
386.3061237
387.3797568
388.4458456
389.5036976
390.5525971
391.5916667
392.6199593
393.6365956
348.7467147
348.8421249
349.0466631
349.3480785
349.7399384
350.216782
350.7715337
351.3999363
352.0963914
352.8548607
353.6713371
354.5409911
355.4593806
356.4225723
357.4270433
358.4694168
359.5463804
360.6545726
361.7904384
362.9501455
364.127898
365.312325
366.4923573
367.6585161
368.8038854
369.9246756
371.0202184
372.0921793
373.1445577
374.1831907
375.2167249
376.2524852
377.2958926
378.3504104
379.4172177
380.4951957
381.5809901
382.6699402
383.757429
384.8406515
385.9185491
386.990684
388.0564562
389.1151051
390.1659118
391.2079494
392.2403207
393.2620102
394.2722597
395.2706353
351.3655507
351.4591894
351.6599233
351.956551
352.3418356
352.8098366
353.3553297
353.9724642
354.6558794
355.4013064
356.2038993
357.0590293
357.9629629
358.9119535
359.9022045
360.9299542
361.9913082
363.0821713
364.1961472
365.322904
366.4518132
367.5733975
368.6804104
369.7684262
370.8358745
371.8835175
372.9142848
373.9332152
374.947192
375.9631884
376.9867812
378.0218349
379.0702107
380.1317091
381.2037118
382.2817645
383.3609944
384.4378051
385.5107216
386.5791549
387.6425454
388.7001128
389.751081
390.79458
391.8296221
392.855138
393.8702007
394.8742017
395.8667512
396.8475771
353.8962471
353.9884585
354.1859647
354.4767243
354.8552319
355.315349
355.8511439
356.4579383
357.1309495
357.8646594
358.6554231
359.4988333
360.3906559
361.3267381
362.3028067
363.3142012
364.354251
365.4134574
366.4816055
367.5494517
368.6095829
369.6570336
370.6893925
371.7065014
372.7101951
373.7043594
374.694694
375.6875111
376.6882598
377.700936
378.7278128
379.7692326
380.8234047
381.886709
382.9544403
384.0222936
385.0879911
386.150601
387.2094613
388.2639295
389.3131344
390.356243
391.392232
392.4200193
393.4385241
394.4469395
395.4447543
396.4316026
397.4071728
398.3711261
384.6560996
385.7101085
386.7620161
387.8110814
388.8563876
389.8970553
390.9320717
391.9603353
392.9806579
393.992033
394.993783
395.9854295
396.9666096
397.93693
398.8960199
399.8436235
)
;

boundaryField
{
    front_top
    {
        type            wedge;
    }
    front_middle
    {
        type            wedge;
    }
    front_bottom
    {
        type            wedge;
    }
    back_top
    {
        type            wedge;
    }
    back_middle
    {
        type            wedge;
    }
    back_bottom
    {
        type            wedge;
    }
    axis_top
    {
        type            symmetryPlane;
    }
    axis_middle
    {
        type            symmetryPlane;
    }
    axis_bottom
    {
        type            symmetryPlane;
    }
    wall_top
    {
        type            convectiveRadiativeHeatFlux;
        mode            convectiveRadiative;
        kappaMethod     fluidThermo;
        kappa           none;
        alphaAni        Anialpha;
        h               uniform 165;
        Ta              constant 513.15;
        emissivityNozzle 0.95;
        emissivityFilament 0.95;
        dNozzle         2;
        dFilament       1.65;
        refValue        uniform 513.15;
        refGradient     nonuniform List<scalar> 
24
(
17315.74723
15934.5421
15070.88388
14366.25675
13814.76487
13400.79938
12569.08399
11484.31177
10698.81301
10291.92012
10258.43221
10427.96091
10590.01792
10590.01931
10492.28075
10397.65599
10301.85659
10198.57779
10082.86659
9956.563324
9832.411276
9711.151849
9593.05212
9477.052838
)
;
        valueFraction   nonuniform List<scalar> 
24
(
0.004685715129
0.004485570052
0.004358450107
0.004245252499
0.00415899005
0.0041032525
0.003906336107
0.003613358356
0.003400986046
0.003301906276
0.003321657871
0.00340946152
0.003497350971
0.003532409401
0.003534146825
0.003535961316
0.003536552034
0.003533788262
0.003525876132
0.003513327373
0.003500565013
0.003487890987
0.003475433492
0.003462843313
)
;
        value           nonuniform List<scalar> 
24
(
319.806342
335.8840691
345.3685597
352.2583939
357.7904672
362.5317945
366.4531358
369.5238699
372.0136213
374.2038934
376.3680219
378.5985812
380.8415846
383.0004263
385.0518567
387.0128922
388.8965481
390.7103456
392.458264
394.1428568
395.7674431
397.3357788
398.8507639
400.3152078
)
;
    }
    wall_middle
    {
        type            fixedValue;
        value           nonuniform 0();
    }
    wall_bottom
    {
        type            fixedValue;
        value           nonuniform 0();
    }
    inlet
    {
        type            fixedValue;
        value           uniform 298.15;
    }
    outlet
    {
        type            zeroGradient;
    }
    procBoundary11to10
    {
        type            processor;
        value           nonuniform List<scalar> 
51
(
356.3434182
356.4339499
356.6280159
356.9147724
357.2876403
357.7406809
358.2692643
358.8676524
359.531429
360.2560575
361.0365972
361.8685199
362.7474938
363.668169
364.6232871
365.6038649
366.6004557
367.60421
368.6077345
369.6056476
370.5947925
371.5740911
372.5442771
373.5080347
374.4697894
375.4350351
376.4089366
377.3954988
378.3973122
379.4152003
380.4480717
381.4928574
382.5452331
383.6006811
383.6006811
386.3072853
387.348067
388.3867844
389.4224487
390.4540816
391.4805395
392.5006188
393.5131424
394.5172108
395.5122073
396.4976613
397.4731515
398.4382404
399.3925542
400.3357898
401.2675692
)
;
    }
}


// ************************************************************************* //
