/*--------------------------------*- C++ -*----------------------------------*\
  =========                 |
  \\      /  F ield         | OpenFOAM: The Open Source CFD Toolbox
   \\    /   O peration     | Website:  https://openfoam.org
    \\  /    A nd           | Version:  7
     \\/     M anipulation  |
\*---------------------------------------------------------------------------*/
FoamFile
{
    version     2.0;
    format      ascii;
    class       volTensorField;
    location    "0.0015";
    object      grad(U);
}
// * * * * * * * * * * * * * * * * * * * * * * * * * * * * * * * * * * * * * //

dimensions      [0 0 -1 0 0 0 0];

internalField   nonuniform List<tensor> 
1167
(
(-3.574864748 -6.598337415e-15 0.1198788734 3.606778032e-14 -5.939703037 0 0.1888800389 9.55599561e-15 9.75682035)
(-4.735901971 -5.424567305e-15 0.2802545026 2.465128811e-14 -5.145026658 0 0.4588644343 2.939759857e-14 9.733713677)
(-4.665801843 -1.805136306e-14 0.4580000977 0 -4.898061735 0 0.7246676258 4.344458461e-14 9.683752574)
(-4.728682838 -3.388107597e-14 0.6328613902 1.488383603e-14 -4.855012882 0 0.9959920551 3.502040842e-14 9.610697397)
(-4.662188186 -3.853192813e-14 0.8003488614 1.190247192e-14 -4.820382932 0 1.254612819 1.095020549e-14 9.516576142)
(-4.579372075 -4.753245199e-14 0.9629761819 3.003902335e-14 -4.784856382 0 1.500947426 3.798585762e-14 9.403177992)
(-4.484732966 -3.487990793e-14 1.120918526 1.742293938e-14 -4.747639251 -6.96917575e-14 1.734385038 2.875647211e-14 9.272302599)
(-4.376531982 -5.913037627e-15 1.273747127 7.76275709e-15 -4.707628396 -6.210205672e-14 1.953839034 1.362570945e-14 9.125741841)
(-4.256991934 1.127890549e-15 1.421487 2.81697542e-14 -4.664545779 1.126790168e-13 2.158688624 -1.90715251e-14 8.965180455)
(-4.127842764 -1.088183972e-15 1.564316507 1.295698125e-14 -4.618465844 0 2.348526635 -8.212521867e-15 8.792214839)
(-3.990352258 1.413599532e-14 1.702525275 0 -4.569574964 -4.821068844e-14 2.52307697 2.886528355e-15 8.608336449)
(-3.845623293 1.579956859e-14 1.836470105 2.262763389e-14 -4.518101615 0 2.682189638 3.720756878e-16 8.414856917)
(-3.694624922 3.135027382e-15 1.966634737 2.140178693e-14 -4.464287736 0 2.825797195 -9.221088095e-15 8.212967952)
(-3.538162977 4.44646974e-15 2.093612787 2.037219246e-14 -4.408371771 0 2.953899254 -1.129129746e-14 8.0036886)
(-3.376882108 9.216131221e-15 2.218080816 1.949859167e-14 -4.350577122 0 3.066534103 -7.441718526e-15 7.787857634)
(-3.211283755 1.012633959e-14 2.340794032 1.875112431e-14 -4.291107607 0 3.163763249 -2.13435038e-15 7.566144574)
(-3.041728257 8.79718869e-15 2.462586474 1.810717833e-14 -4.230144922 3.621435666e-14 3.245655121 -5.586795035e-15 7.339048799)
(-2.868432867 3.067703043e-15 2.58435941 0 -4.167847468 0 3.31227106 1.786305107e-15 7.10689933)
(-2.691478215 8.365303187e-15 2.707067152 -8.531942693e-15 -4.104349488 -3.412777077e-14 3.363649546 4.803994663e-15 6.869863498)
(-2.51083112 1.230127337e-14 2.831713564 0 -4.039761589 0 3.399812439 2.032720588e-15 6.627963657)
(-2.326337765 6.911160873e-15 2.959360669 0 -3.974172367 0 3.420739306 -3.333014497e-15 6.381071368)
(-2.137734089 8.999522463e-15 3.091110891 0 -3.907648277 0 3.426380206 -1.089174675e-15 6.128936641)
(-1.944650795 1.224848051e-14 3.228129084 0 -3.840235823 0 3.416642727 1.311663213e-15 5.871178957)
(-1.746618484 4.010064262e-15 3.371650529 7.704138469e-15 -3.771961732 1.540827694e-14 3.391393359 7.118208314e-15 5.60730221)
(-1.543061941 -5.911008852e-15 3.523010725 -7.594570971e-15 -3.70283504 -1.518914194e-14 3.350457047 1.476168363e-14 5.336675753)
(-1.333263717 -9.139212624e-15 3.683694963 0 -3.632846767 0 3.293571501 1.304119589e-14 5.058521149)
(-1.116364315 -8.892819541e-15 3.855363411 -7.415510757e-15 -3.561969585 -1.483102151e-14 3.220407914 6.284577307e-15 4.771914977)
(-0.8913281298 -6.74096959e-16 4.039942778 0 -3.490157969 0 3.130538549 -6.804375439e-15 4.475723702)
(-0.6568664746 5.830744694e-15 4.239735778 0 -3.41734643 0 3.023384286 -1.120335624e-14 4.168547218)
(-0.4113528076 1.934189487e-15 4.457543011 7.228503775e-15 -3.343446326 1.445700755e-14 2.898155025 -1.156837233e-14 3.848639812)
(-0.1527203059 -6.945585761e-16 4.696848797 0 -3.268341358 0 2.753785382 -1.003750755e-14 3.513798372)
(0.1217120609 3.608645182e-15 4.962107731 0 -3.191881636 0 2.588819897 -1.231546268e-14 3.161172931)
(0.4155035246 2.432916349e-15 5.259142427 0 -3.113874029 0 2.401234037 -8.086305526e-15 2.787004964)
(0.7334666808 -1.039333376e-16 5.595733925 0 -3.034068543 0 2.188194815 -1.133554909e-14 2.386236023)
(1.082244006 -6.215915969e-16 5.98251316 -1.446778961e-15 -2.952138494 -2.748328702e-15 1.94567462 -1.122137688e-14 1.951911644)
(-3.747807572 -1.885012683e-14 0.1319714527 3.709646997e-14 -6.224114462 0 0.1891358378 4.371301267e-15 10.22735872)
(-4.964686722 -1.025069168e-14 0.3092083427 1.690291189e-14 -5.392946659 0 0.4581983633 3.038783771e-14 10.20280896)
(-4.889890056 -1.844406014e-14 0.505084084 3.126939998e-14 -5.134209685 0 0.7238934265 7.526253273e-14 10.15008388)
(-4.955332352 -1.405257602e-14 0.697365021 1.530833813e-14 -5.088614378 0 0.995212397 4.033222199e-14 10.07297145)
(-4.885503364 -4.935033065e-14 0.8815961297 3.672582746e-14 -5.052194197 9.793553989e-14 1.253894041 5.094935922e-14 9.973576644)
(-4.797903279 -5.885482645e-14 1.060170109 2.059717781e-14 -5.014739144 -8.238871126e-14 1.500449449 4.139825809e-14 9.853812426)
(-4.697894449 -1.89873509e-14 1.233242865 1.791985929e-14 -4.975462373 0 1.734334962 1.653755755e-14 9.715596834)
(-4.58359188 4.537871509e-15 1.400354842 2.395247642e-14 -4.933224717 0 1.954430059 -1.678506345e-14 9.560754161)
(-4.457279801 9.506826029e-15 1.561526519 2.897318409e-14 -4.887733816 0 2.160111958 -7.066914068e-15 9.391104473)
(-4.320764676 -7.418086584e-16 1.716928127 1.332652748e-14 -4.83906695 0 2.350963866 2.171520998e-16 9.208267547)
(-4.175383538 8.389378528e-15 1.866875884 2.479285314e-14 -4.787418442 0 2.526667963 -1.705733709e-14 9.013803059)
(-4.022292495 1.76592955e-14 2.011805838 3.490949536e-14 -4.733029225 0 2.687033693 -1.578052723e-14 8.809105614)
(-3.862479387 5.589032016e-15 2.152251799 3.301828145e-14 -4.676152417 8.804875052e-14 2.831954279 -1.231739561e-14 8.595384525)
(-3.696769693 -2.230372907e-15 2.288875862 3.142984206e-14 -4.617035616 0 2.96136314 -8.20240502e-15 8.37367815)
(-3.525830298 2.301199774e-15 2.422439842 2.005471122e-14 -4.555911136 0 3.075235482 -1.127295844e-14 8.144854332)
(-3.350172445 5.96093301e-15 2.55379124 1.928592544e-14 -4.492990794 0 3.173565484 -6.035915193e-16 7.909595213)
(-3.170158382 4.674090458e-15 2.683856935 1.862361334e-14 -4.428462961 0 3.256353315 1.127269329e-14 7.668408419)
(-2.986006509 3.525359834e-15 2.813634316 0 -4.362491591 -3.609968471e-14 3.323588966 1.094865028e-14 7.421622335)
(-2.797801039 1.109764712e-14 2.944176318 0 -4.295215746 0 3.375245353 -6.704274138e-15 7.169405715)
(-2.605494167 1.474966218e-14 3.076578734 0 -4.226750425 0 3.41127778 -6.020636224e-15 6.911775972)
(-2.408927682 1.033559409e-14 3.211974793 0 -4.157186718 0 3.431609925 -4.781195637e-15 6.648602842)
(-2.207837715 6.04535419e-15 3.351555708 0 -4.086594362 0 3.436142526 -2.215458445e-15 6.379638625)
(-2.001851273 4.537416931e-15 3.496555997 0 -4.015022028 0 3.424738065 -1.902423658e-15 6.104502153)
(-1.790500103 -2.166682733e-15 3.648279301 0 -3.942499052 0 3.397239103 8.900227632e-15 5.8227021)
(-1.573191859 -9.45884575e-15 3.808142373 0 -3.869036523 0 3.353423858 1.239396613e-14 5.533598715)
(-1.349204211 -5.71674921e-15 3.977689044 -7.712715666e-15 -3.794626794 -3.085086267e-14 3.29301739 1.358509877e-14 5.236426608)
(-1.117668153 8.24521345e-15 4.158663783 -7.627008648e-15 -3.719244277 -1.52540173e-14 3.215676798 5.242690932e-15 4.930247337)
(-0.8775140099 1.267158215e-14 4.353097443 7.552794016e-15 -3.642844341 1.510558803e-14 3.120947005 1.399659788e-15 4.613899918)
(-0.6274011767 4.271065086e-15 4.563414889 0 -3.565361505 1.497798167e-14 3.008213926 3.600725939e-15 4.285943848)
(-0.3656298884 2.78800052e-15 4.792576597 -7.434668055e-15 -3.486705721 -1.486933611e-14 2.876648261 2.011982757e-16 3.944576053)
(-0.09002559307 6.140679225e-15 5.044287291 7.38901942e-15 -3.406757782 1.477803884e-14 2.725133564 -4.767708663e-15 3.587490623)
(0.2022611813 3.302361718e-16 5.323308527 7.351344347e-15 -3.325362422 1.470268869e-14 2.552124662 -5.990042762e-15 3.211674661)
(0.5150312654 4.118080052e-15 5.635896517 -7.321031203e-15 -3.242317617 -1.464206241e-14 2.355467672 -9.854286378e-15 2.813127035)
(0.853453707 6.257074102e-15 5.990459143 7.297544283e-15 -3.157359929 1.459508857e-14 2.132130156 -1.30762444e-14 2.386425959)
(1.2246923 2.417324688e-16 6.398529052 0 -3.070142383 0 1.877793211 -1.44545078e-14 1.924091114)
(1.638833728 2.754354075e-15 6.876231068 0 -2.980202977 1.453844625e-14 1.586256806 -1.66924372e-14 1.415616961)
(2.110273967 3.645990538e-15 7.446461315 0 -2.886918532 0 1.248549602 -1.736721676e-14 0.8460513316)
(2.659646764 7.873241321e-15 8.141984954 -7.263242444e-15 -2.789438252 -1.452648489e-14 0.8517016755 -1.620427971e-14 0.1939763227)
(3.316307418 1.386141679e-14 9.009510061 0 -2.686591991 0 0.3771779958 -1.142010976e-14 -0.5711053166)
(4.121029946 1.376545559e-14 10.11422308 0 -2.576770448 0 -0.2007515341 -9.049161389e-15 -1.491600719)
(5.128043829 1.872571733e-15 11.54349613 7.290925681e-15 -2.457786377 7.290925681e-15 -0.9161137808 -1.270922614e-14 -2.623958735)
(6.405273504 -1.04424251e-14 13.40826458 7.308983804e-15 -2.326741666 7.308983804e-15 -1.811009297 -1.153629773e-14 -4.038944492)
(8.032239183 -1.386758947e-14 15.84146966 0 -2.179937441 0 -2.933644054 -5.135426868e-16 -5.819538198)
(10.09632689 1.453482545e-14 18.99473695 -7.357222573e-15 -2.012853848 -1.471444515e-14 -4.335137936 -1.093447189e-14 -8.057218171)
(12.68863757 4.626674729e-14 23.03568472 0 -1.820199898 0 -6.066111121 -2.65227215e-14 -10.84837702)
(15.89998181 2.826942091e-14 28.14747896 3.710316203e-15 -1.596017415 7.420632406e-15 -8.173594728 -1.932652413e-14 -14.29207174)
(19.82202187 1.145239591e-14 34.52780364 0 -1.333825474 0 -10.70110844 -1.248112776e-14 -18.48766701)
(24.56855042 2.145857552e-14 42.3777757 0 -1.026663469 0 -13.70057853 -2.252308572e-14 -23.52691774)
(30.32163084 3.33337028e-14 51.87655422 0 -0.666667254 0 -17.25923445 -2.834175597e-14 -29.47795802)
(36.67790474 5.671840302e-14 63.57386205 0 -0.2440261967 0 -21.12122806 -3.76871622e-14 -36.61212954)
(-3.923276823 -3.928806014e-14 0.1448489218 3.816980416e-14 -6.512415487 0 0.189827534 4.696005644e-15 10.70470774)
(-5.196880766 -6.910931811e-14 0.3399330108 5.217592166e-14 -5.644399576 0 0.4586316301 1.302437137e-14 10.67878085)
(-5.117398145 -1.757428397e-14 0.5550204089 4.289884813e-14 -5.37379733 -1.715953925e-13 0.7248610447 5.475740513e-14 10.62345442)
(-5.185628136 -1.484371988e-14 0.7658269857 4.725379011e-14 -5.3256695 0 0.996848188 2.650396668e-14 10.54249436)
(-5.112714591 -3.508223444e-14 0.9678594708 2.519229177e-14 -5.287525063 -1.007691671e-13 1.256269781 4.423826101e-14 10.4381012)
(-5.020584785 -1.882338878e-14 1.163398475 3.178969232e-14 -5.248225176 0 1.503766459 1.260724567e-14 10.31233508)
(-4.915479384 1.249630035e-14 1.35261852 9.219172593e-15 -5.206986329 -1.475067615e-13 1.738808543 2.037789901e-14 10.16712952)
(-4.795350267 1.09107716e-14 1.535000174 3.286067683e-14 -5.162628161 6.572135366e-14 1.960269256 8.951440548e-17 10.00440942)
(-4.662547729 -1.429437293e-14 1.710554593 1.490574122e-14 -5.114840328 0 2.167503449 1.13583817e-15 9.826035315)
(-4.518945799 9.252997317e-15 1.879499769 0 -5.063702471 -5.484844719e-14 2.36006762 -4.749307498e-15 9.63372724)
(-4.365915291 2.650669172e-14 2.042141063 2.551019955e-14 -5.009413693 0 2.537624406 -1.975136771e-14 9.429040583)
(-4.204656359 1.197318415e-14 2.198973586 4.789273659e-14 -4.952222343 4.789273659e-14 2.699918485 -1.399464194e-14 9.213417152)
(-4.03618161 -8.736705396e-16 2.350627867 3.397361896e-14 -4.892390671 0 2.846773156 -1.129394896e-15 8.988102785)
(-3.861326101 4.284525626e-15 2.497834798 2.15594803e-14 -4.830173686 0 2.978065313 -6.262383699e-15 8.754158638)
(-3.680765401 -9.773397e-16 2.641437398 1.031748302e-14 -4.765810529 4.126993208e-14 3.093701832 -1.265006954e-14 8.512459413)
(-3.495016882 -1.478605821e-14 2.78237394 1.984393657e-14 -4.699518824 0 3.193605107 -1.009132464e-14 8.263691931)
(-3.304444611 -2.835071202e-15 2.921669766 9.581230729e-15 -4.631492292 -3.832492291e-14 3.27769852 1.837187027e-17 8.008359525)
(-3.109259871 2.172789336e-14 3.060418872 9.286044574e-15 -4.561899252 -3.714417829e-14 3.345893156 -5.96110546e-15 7.746791158)
(-2.909543691 2.384268588e-14 3.199758188 9.029182819e-15 -4.490882187 3.611673127e-14 3.398098427 -1.309558555e-14 7.479159983)
(-2.705255683 1.044722597e-14 3.340880089 1.76098097e-14 -4.41855936 3.521961941e-14 3.434202116 -7.624102309e-15 7.205480715)
(-2.496234754 5.296302916e-15 3.485003281 0 -4.345025364 0 3.454082097 5.984063884e-16 6.925637615)
(-2.282213565 7.826827304e-15 3.633379806 0 -4.270352494 0 3.457584604 -5.899156768e-15 6.639375252)
(-2.0628327 2.039016592e-15 3.787319077 8.285527737e-15 -4.194592237 1.657105547e-14 3.444548638 -3.320671398e-15 6.346338007)
(-1.837618492 -7.611715226e-15 3.948199758 0 -4.117777193 0 3.414771971 1.478336978e-15 6.046023377)
(-1.605978433 -1.050170749e-14 4.117497504 0 -4.039920587 0 3.368012088 -8.234352622e-16 5.737818018)
(-1.367195879 -8.354365532e-15 4.296830425 0 -3.961017708 0 3.303986805 1.774115656e-15 5.420956829)
(-1.120384364 -2.368100387e-15 4.488035308 0 -3.881045301 0 3.222325106 2.723594705e-15 5.094486606)
(-0.8644404672 3.225402805e-15 4.693247679 -7.771323465e-15 -3.799960441 -1.554264693e-14 3.122546757 1.035726684e-14 4.757231932)
(-0.5979727381 1.289797429e-14 4.915017237 0 -3.717698123 0 3.004007244 1.111545431e-14 4.407718284)
(-0.3192146973 1.258030179e-14 5.156475328 0 -3.634167603 1.529955942e-14 2.865843945 1.229382334e-14 4.044079315)
(-0.02587698256 9.562909847e-15 5.421575385 0 -3.549247447 0 2.706879809 8.266903353e-15 3.663895727)
(0.285070267 1.223247931e-14 5.715420353 0 -3.462777242 0 2.525473326 6.439285774e-15 3.263982185)
(0.6176913682 9.151241741e-15 6.044741495 7.532854938e-15 -3.374546112 1.506570988e-14 2.319331491 -1.439355639e-15 2.840077421)
(0.9775362959 9.444522213e-15 6.41861622 0 -3.28427646 0 2.085209153 -4.062005324e-16 2.386375083)
(1.37230971 7.161864638e-15 6.849539794 0 -3.191600153 1.498212337e-14 1.818486744 -3.780237066e-15 1.894836495)
(1.81286948 6.500778921e-15 7.355008545 0 -3.096024479 0 1.512531968 -4.358726932e-15 1.354158286)
(2.31466988 6.546847245e-15 7.959820108 7.473769877e-15 -2.996882525 1.494753975e-14 1.157786268 -5.365081721e-15 0.7482900452)
(2.899716633 -5.473677372e-16 8.699259743 7.473394172e-15 -2.893263364 1.494678834e-14 0.7405378116 -9.050249501e-17 0.0543800846)
(3.598942179 8.61736985e-16 9.623042513 7.478124345e-15 -2.783917399 1.495624869e-14 0.2414367058 -9.05065344e-16 -0.7597322322)
(4.454525111 1.53848778e-14 10.79929345 -7.487697181e-15 -2.667138338 -1.497539436e-14 -0.365895315 -4.193280157e-15 -1.737969381)
(5.521240008 1.21612481e-14 12.31717008 7.501878346e-15 -2.54063466 1.500375669e-14 -1.115538199 -2.088888765e-15 -2.937422226)
(6.865827901 -9.003987019e-15 14.28677471 0 -2.401418831 7.520458978e-15 -2.048532549 -7.919406975e-16 -4.427727527)
(8.56418824 -8.419861207e-15 16.83624159 -3.771626367e-15 -2.245749316 -7.543252735e-15 -3.210591551 -7.457720197e-15 -6.288252557)
(10.69744428 5.189653933e-15 20.10767046 0 -2.069144403 0 -4.648988268 -1.647659501e-14 -8.604198984)
(13.34811284 1.545403682e-14 24.25431997 0 -1.866457991 0 -6.409569527 -1.452079342e-14 -11.46331288)
(16.59668895 2.13476294e-14 29.44031185 0 -1.631997144 0 -8.53421167 -2.035502071e-15 -14.95414049)
(20.52351748 2.436932966e-14 35.83961136 0 -1.359668152 0 -11.06146285 -5.187747434e-15 -19.16412248)
(25.23065144 3.130527603e-14 43.62496257 0 -1.043009702 0 -14.03886349 -4.975173449e-15 -24.17212747)
(30.88534679 3.714955822e-14 52.94478181 0 -0.6747554115 0 -17.54833433 -1.800421956e-14 -30.03407063)
(37.07530865 5.140900918e-14 64.31244322 0 -0.2458485583 0 -21.33316374 -3.328465497e-14 -37.00791366)
(-4.101841077 -2.788186232e-14 0.1584829721 6.548400693e-14 -6.805546641 0 0.1911032044 9.963365235e-15 11.19040559)
(-5.433241444 -5.963444774e-14 0.3723490381 5.370771723e-14 -5.900202321 0 0.4605411052 -9.518029091e-14 11.16316503)
(-5.349069396 -2.296317053e-14 0.6076839111 5.519785591e-14 -5.617605523 0 0.7281479913 -5.880870476e-14 11.10539561)
(-5.420343972 -7.20432668e-15 0.838073189 3.24273869e-14 -5.566950869 0 1.001679305 -2.108491887e-14 11.02081587)
(-5.344630837 -3.473202438e-14 1.058910999 5.18637885e-14 -5.527151656 1.03727577e-13 1.262737509 -9.403961495e-15 10.9117537)
(-5.248229321 -4.586756687e-14 1.272421037 2.18153221e-14 -5.48609884 0 1.512052684 -1.240314636e-14 10.78033745)
(-5.138301889 -9.489831698e-15 1.478782802 3.795932679e-14 -5.442997835 -7.591865359e-14 1.749097624 -3.691853036e-16 10.62851244)
(-5.012641216 2.541860637e-14 1.677429231 0 -5.396630105 -6.765081982e-14 1.972751879 4.719287134e-15 10.45832357)
(-4.873619486 1.451924261e-14 1.868345102 3.068669646e-14 -5.346662118 0 2.182347196 -1.036247245e-14 10.27161895)
(-4.723190287 1.377007933e-14 2.051786706 1.411467591e-14 -5.293170042 0 2.377392002 -2.108228407e-14 10.07019032)
(-4.562752398 1.650171239e-14 2.228124933 3.938870276e-14 -5.236358615 0 2.557509545 -1.55226657e-14 9.855636799)
(-4.393505772 3.670930054e-15 2.39787648 2.464939262e-14 -5.176479548 0 2.72239442 -7.412716993e-16 9.629384076)
(-4.216488058 -4.895032951e-16 2.561736944 2.331401741e-14 -5.113799295 0 2.87179883 -2.020018523e-16 9.392702126)
(-4.032550565 1.014263387e-14 2.720531934 3.328864451e-14 -5.048578902 0 3.005526733 -2.242432644e-15 9.146666824)
(-3.842369308 1.125304642e-14 2.875198717 0 -4.981062446 0 3.123407972 -2.058269058e-15 8.892154607)
(-3.646455794 -7.560206297e-15 3.026770655 1.021326022e-14 -4.911471968 8.170608177e-14 3.225287866 -1.335880524e-14 8.629852116)
(-3.44516296 -9.910676089e-15 3.176362615 0 -4.840004388 0 3.311010488 -2.901538399e-14 8.360257831)
(-3.23871149 1.026809922e-14 3.325153157 0 -4.76683062 0 3.38042267 -2.573329071e-14 8.083704596)
(-3.027185975 1.621050368e-14 3.474375472 0 -4.692096929 0 3.43336526 -8.384480198e-15 7.800364026)
(-2.810543967 4.7264224e-15 3.625294534 0 -4.615924243 0 3.469668895 1.470010805e-16 7.510259886)
(-2.588630694 9.640155089e-15 3.779212146 -8.861327478e-15 -4.538410336 -3.544530991e-14 3.489155512 -2.196432975e-15 7.213285623)
(-2.361194451 1.211035623e-14 3.937452264 8.684177016e-15 -4.459630462 0 3.491642901 -8.622216422e-15 6.909209507)
(-2.12787795 1.765723283e-15 4.101387997 0 -4.379640103 0 3.476929131 2.598342604e-15 6.597675635)
(-1.888213259 2.950487006e-16 4.272462837 0 -4.298474604 0 3.44478195 2.510382352e-15 6.278212093)
(-1.641628758 -9.7112433e-15 4.452213903 8.273139051e-15 -4.216151081 1.65462781e-14 3.394958143 2.012668455e-15 5.950219356)
(-1.38739802 -1.43114526e-14 4.642347215 0 -4.132668547 0 3.327142706 -2.424949807e-17 5.612929137)
(-1.124618731 -8.937953734e-15 4.844780649 0 -4.048006523 0 3.240944844 5.520981896e-15 5.265396028)
(-0.8521658523 -6.499574412e-15 5.061755319 -7.9994762e-15 -3.962124518 -1.59989524e-14 3.135866748 7.07919795e-15 4.906431814)
(-0.5686026255 -3.74131594e-15 5.295965479 0 -3.874958987 0 3.011239462 5.87238567e-15 4.534527359)
(-0.2720843851 8.551067283e-15 5.550734184 -1.574872823e-14 -3.786419321 -3.149745647e-14 2.866160594 7.024978271e-15 4.147740726)
(0.03980608567 1.45209278e-14 5.830279399 7.826015827e-15 -3.696382058 1.565203165e-14 2.6993802 3.569116683e-15 3.743530513)
(0.3702846543 1.485748425e-14 6.140071282 -7.786112526e-15 -3.604681728 -1.557222505e-14 2.509154621 6.783976879e-15 3.318529081)
(0.7236926293 1.580333195e-14 6.487361733 0 -3.511098557 0 2.293039724 1.654460754e-15 2.868198722)
(1.105982672 1.129177686e-14 6.881958672 0 -3.415340333 0 2.04757241 5.126962206e-15 2.386328389)
(1.525430097 8.132681003e-15 7.337377748 0 -3.317016912 0 1.767820349 1.072988643e-14 1.864293777)
(1.993686614 5.563827704e-15 7.872538122 0 -3.21560344 0 1.446711089 8.994118516e-15 1.289973585)
(2.52726415 2.005938391e-15 8.514179713 0 -3.110387865 0 1.074105674 1.385641123e-14 0.6462066606)
(3.149489236 5.266262657e-15 9.300075326 -7.692800229e-15 -3.000398135 -1.538560046e-14 0.6355811993 7.805656934e-15 -0.0912549033)
(3.892732368 7.878083368e-15 10.28276087 0 -2.884305999 0 0.1110565417 2.692634911e-16 -0.9560973)
(4.800329564 6.48064197e-15 11.53288802 0 -2.76031212 0 -0.5263491228 8.81394169e-16 -1.993490994)
(5.927260276 1.775182813e-14 13.14074175 -7.722120649e-15 -2.626029319 -1.54442413e-14 -1.310592546 3.470029628e-15 -3.260807127)
(7.33876491 1.76068005e-14 15.21484903 0 -2.478394256 7.741246762e-15 -2.281555374 1.780625838e-15 -4.826230248)
(9.107052867 6.445315664e-16 17.87806172 3.882354847e-15 -2.313638841 7.764709694e-15 -3.482562557 4.932928992e-15 -6.765454938)
(11.30738464 4.459287422e-15 21.2631216 -3.896169215e-15 -2.127331912 -7.792338431e-15 -4.957439837 -7.837148427e-15 -9.157796924)
(14.01462431 3.656029787e-15 25.50997463 3.911990075e-15 -1.914473402 7.823980151e-15 -6.747931301 -1.015253587e-14 -12.08327)
(17.30031354 1.61948648e-15 30.76569767 -3.929749184e-15 -1.669619898 -7.859498368e-15 -8.891581673 -8.883237663e-15 -15.62128679)
(21.23515511 5.54611028e-15 37.18352915 0 -1.387029896 0 -11.42280249 -1.123861387e-14 -19.84908379)
(25.91135357 3.280213429e-14 44.91181518 -3.970845905e-15 -1.060686202 -3.970845905e-15 -14.3855013 -2.498185124e-14 -24.83454537)
(31.48357715 6.760294204e-14 54.07290989 0 -0.6838457198 0 -17.85704559 -4.164416047e-14 -30.62317616)
(37.53080521 5.670871537e-14 65.15037026 5.023810617e-16 -0.2481084952 2.009524247e-15 -21.57923197 -3.313672657e-14 -37.46189839)
(-4.284236132 9.64902081e-14 0.1728407068 8.092217288e-14 -7.104721546 0 0.1931022116 -1.209514943e-13 11.686438)
(-5.674740341 -3.435143597e-14 0.4063748013 -3.687198159e-14 -6.161410885 5.899517055e-13 0.464278302 -1.713682479e-13 11.65794219)
(-5.58586115 -8.45976429e-14 0.6629378524 2.273700429e-14 -5.866638531 0 0.7343022897 -1.441662342e-13 11.59788688)
(-5.660476245 -5.543856266e-14 0.9138946 3.339358127e-14 -5.813454633 0 1.010476797 -6.089869829e-14 11.50994323)
(-5.582246779 -3.967868638e-14 1.154514276 2.670455133e-14 -5.772072986 -1.068182053e-13 1.27425521 -2.973571411e-14 11.39653441)
(-5.481816168 -3.045104371e-14 1.386993936 3.369798497e-14 -5.729355489 0 1.52639758 -3.748523262e-14 11.25978455)
(-5.367327224 -9.696238869e-15 1.611475579 1.954517441e-14 -5.68448956 0 1.766430383 -6.823673268e-14 11.10172443)
(-5.236411586 1.921952296e-14 1.827366837 3.483325932e-14 -5.636218048 6.966651863e-14 1.993208827 -1.50223047e-14 10.92442052)
(-5.091434178 1.086285262e-14 2.034667278 1.58005129e-14 -5.584181437 0 2.206034572 -4.000906094e-15 10.72977579)
(-4.934396569 1.314416449e-14 2.233617959 2.907046315e-14 -5.528447397 0 2.404384997 -2.40604999e-14 10.51955364)
(-4.766733151 8.014754056e-15 2.424662878 4.056231377e-14 -5.469220755 0 2.587808973 1.633809347e-15 10.29539948)
(-4.589650867 -6.197225797e-17 2.608391628 2.538383686e-14 -5.406756348 0 2.755949412 -1.016361976e-14 10.05875871)
(-4.404179571 -1.008176706e-15 2.785552635 2.400867318e-14 -5.341322897 0 2.908497414 -9.023636664e-15 9.810883747)
(-4.21116971 3.503931376e-15 2.957051671 3.42805006e-14 -5.273183527 0 3.045174888 -5.009623733e-16 9.552842771)
(-4.011298129 1.603142429e-14 3.123916154 0 -5.202584794 0 3.165732467 1.497250274e-14 9.2855128)
(-3.805075141 2.048050393e-14 3.287273318 0 -5.129751198 0 3.269938643 3.119904082e-15 9.009577327)
(-3.592857883 5.296393065e-15 3.448329656 1.015637921e-14 -5.054882138 4.062551684e-14 3.357566264 -1.507034533e-14 8.725534333)
(-3.374858716 -9.862698925e-15 3.608349665 1.968694678e-14 -4.978151501 7.874778713e-14 3.428394597 -1.253156979e-14 8.433719686)
(-3.151162364 -3.925684463e-15 3.768642048 0 -4.899707309 0 3.482201838 -1.466482195e-15 8.134306184)
(-2.921739686 5.377672253e-15 3.930554071 0 -4.819673503 0 3.518766795 2.49124549e-15 7.827333568)
(-2.686454276 1.334939815e-14 4.095448915 9.125356275e-15 -4.738150887 0 3.537870436 -5.787291847e-15 7.512708745)
(-2.445062961 4.593730352e-15 4.264722817 0 -4.655218953 3.577171012e-14 3.53929286 3.347658149e-15 7.190223843)
(-2.19721885 -7.239028304e-15 4.439809791 0 -4.570936518 3.51315876e-14 3.522794213 1.142625121e-14 6.859544385)
(-1.94248652 -1.890559135e-15 4.622205691 0 -4.485343351 -1.728511209e-14 3.488145582 1.101981333e-14 6.520233565)
(-1.680292243 -4.991978011e-16 4.813530727 -8.519642473e-15 -4.398461583 -1.703928495e-14 3.435069413 8.005467183e-15 6.171693131)
(-1.409904809 -1.370276992e-14 5.015555777 8.412252035e-15 -4.310293792 1.682450407e-14 3.363228117 1.080441297e-15 5.813180759)
(-1.130428045 -1.563019169e-14 5.230286727 -8.31877146e-15 -4.220823521 -1.663754292e-14 3.272231328 3.97836249e-15 5.443761873)
(-0.840710662 4.826850951e-16 5.460084937 -8.237825622e-15 -4.130013761 -1.647565124e-14 3.161559902 -4.84167517e-15 5.062227322)
(-0.53926463 4.977518568e-15 5.707799985 0 -4.037803126 0 3.030512501 -1.24590158e-14 4.667026548)
(-0.2241586965 5.725387389e-15 5.976970047 0 -3.944101652 0 2.878137458 -1.155444757e-14 4.256138077)
(0.1071619128 5.824028979e-15 6.272099534 0 -3.848784005 0 2.7031081 -2.998755888e-15 3.826892713)
(0.4581109482 1.439970163e-14 6.599053027 -8.018104662e-15 -3.751679657 -1.603620932e-14 2.503573546 -7.654475236e-15 3.375726427)
(0.833318059 1.372429121e-14 6.965636027 7.98504216e-15 -3.652559582 0 2.276928423 -7.999304964e-15 2.897807194)
(1.23915232 3.186879148e-16 7.382435309 0 -3.551116541 0 2.019482022 8.911584755e-16 2.386500392)
(1.684481205 5.234374608e-15 7.864052209 -7.940740146e-15 -3.446937613 -1.588148029e-14 1.725978729 1.953363315e-15 1.832576356)
(2.181768668 5.892202335e-15 8.43089109 0 -3.339464719 0 1.388906531 1.58544316e-15 1.223076569)
(2.748584417 9.044235942e-15 9.111654638 -7.922410269e-15 -3.227939478 0 0.9975558261 2.84008917e-16 0.5397317244)
(3.409523923 1.749186445e-14 9.946537491 0 -3.111327969 0 0.5368304711 -6.979241583e-15 -0.2430479875)
(4.198253148 1.137961759e-14 10.990687 7.92702613e-15 -2.988224254 0 -0.01400202245 -2.863982076e-15 -1.16034092)
(5.159021723 1.077409309e-15 12.31686356 7.937173615e-15 -2.856740222 1.587434723e-14 -0.6821992614 2.341171357e-15 -2.258320852)
(6.346723007 7.455193186e-16 14.01589711 0 -2.714401662 0 -1.501463364 8.60895979e-15 -3.594333649)
(7.824896301 3.49549222e-15 16.19419088 0 -2.558081728 0 -2.510476019 1.607408177e-14 -5.234898343)
(9.662129973 2.146599628e-14 18.96908931 -3.998032046e-15 -2.383998375 -7.996064092e-15 -3.750333367 8.199275384e-15 -7.252099544)
(11.92827263 3.070317772e-14 22.46431515 4.012258037e-15 -2.187778407 1.604903215e-14 -5.261811001 -5.054456039e-15 -9.719817394)
(14.69136982 2.094924822e-14 26.80752547 0 -1.964564847 0 -7.083129688 -7.19938842e-15 -12.71116865)
(18.01515635 2.232084378e-14 32.13051186 0 -1.709146869 0 -9.248168589 -2.252921561e-14 -16.29758924)
(21.96205171 2.253564487e-14 38.56828708 0 -1.416102655 0 -11.78786513 -3.306680389e-14 -20.54750761)
(26.61593834 2.223480625e-14 46.24800102 0 -1.079811107 0 -14.74310664 -5.091558929e-14 -25.51933477)
(32.1207379 2.545374362e-14 55.26968803 0 -0.6939889163 0 -18.18736816 -4.834455277e-14 -31.24962292)
(38.04659904 4.439861808e-14 66.0925046 -5.173498209e-16 -0.2508105433 -1.034699642e-15 -21.86034571 -3.609510296e-14 -37.97631273)
(-4.471363448 4.000228763e-14 0.1878994411 -3.334790437e-13 -7.411437066 1.7785549e-12 0.1959537191 -1.694131797e-13 12.19524804)
(-5.922570906 -5.011790298e-14 0.4419316307 -1.329552659e-13 -6.429322357 6.077955015e-13 0.4701764459 -8.06255762e-14 12.1655606)
(-5.828961609 -1.271888671e-13 0.7206240452 -2.342471222e-14 -6.122130776 1.873976977e-13 0.7438673401 -1.403261449e-13 12.10338951)
(-5.907238692 -1.066377525e-13 0.9930899375 0 -6.066410593 0 1.023989494 -1.150377021e-13 12.01232892)
(-5.826738017 -5.494392261e-14 1.254464008 4.12683937e-14 -6.023513448 0 1.291711534 -8.071824101e-14 11.89482964)
(-5.722490362 -1.170802113e-14 1.506874652 3.471722095e-14 -5.979205819 0 1.547835569 -4.498830048e-14 11.75304232)
(-5.603677635 -4.125590298e-14 1.750456964 4.027268317e-14 -5.932661917 8.054536635e-14 1.791959134 -4.760608097e-14 11.58908664)
(-5.46773225 -3.674545344e-14 1.984585623 0 -5.882580075 -1.435473317e-13 2.022893827 -1.21237049e-14 11.40497667)
(-5.3170149 2.57370697e-14 2.209287342 1.627841839e-14 -5.828569993 -1.302273471e-13 2.239891087 -4.270888021e-15 11.2026845)
(-5.153553414 6.756238824e-15 2.424834837 1.4974867e-14 -5.770690085 5.989946802e-14 2.442395583 -3.304028199e-15 10.98396117)
(-4.978790369 6.352715568e-15 2.631680332 2.785944643e-14 -5.709139525 -1.114377857e-13 2.629907992 2.208425373e-15 10.75042873)
(-4.793944325 1.621705753e-14 2.830497602 1.307580072e-14 -5.644172893 1.046064058e-13 2.80199182 -6.53276011e-15 10.50353991)
(-4.600034372 -1.205340553e-14 3.022123268 0 -5.576059393 0 2.95826459 2.509800953e-15 10.24454225)
(-4.39790031 -2.038335649e-14 3.207530238 2.35449036e-14 -5.505062296 0 3.098381399 -9.599411559e-15 9.974491012)
(-4.188216485 3.796221376e-15 3.387828908 1.126762519e-14 -5.43142881 -9.01410015e-14 3.222016863 4.554787537e-15 9.694249808)
(-3.971486069 2.909974611e-14 3.564237515 0 -5.3553847 0 3.328863369 8.811224395e-15 9.404497611)
(-3.748058548 1.57975399e-14 3.738041841 0 -5.27713034 0 3.418625005 1.529845562e-14 9.105731023)
(-3.51815916 -2.852212789e-15 3.910588445 0 -5.196840988 0 3.491021006 1.997985268e-14 8.798289594)
(-3.281880395 -5.893299893e-15 4.083262642 0 -5.114667632 0 3.545774173 1.151563507e-14 8.482357952)
(-3.039202505 4.225672656e-15 4.25746873 0 -5.030736711 0 3.582619321 3.492745689e-15 8.157991845)