/*--------------------------------*- C++ -*----------------------------------*\
  =========                 |
  \\      /  F ield         | OpenFOAM: The Open Source CFD Toolbox
   \\    /   O peration     | Website:  https://openfoam.org
    \\  /    A nd           | Version:  7
     \\/     M anipulation  |
\*---------------------------------------------------------------------------*/
FoamFile
{
    version     2.0;
    format      ascii;
    class       volScalarField;
    location    "0.0015";
    object      T;
}
// * * * * * * * * * * * * * * * * * * * * * * * * * * * * * * * * * * * * * //

dimensions      [0 0 0 1 0 0 0];

internalField   nonuniform List<scalar> 
1167
(
438.1936033
438.2659464
438.4214769
438.6527279
438.956448
439.3301717
439.7722098
440.2815631
440.8571676
441.4987962
442.206358
442.9796432
443.8191373
444.7252581
445.6984499
446.7392004
447.8479653
449.025135
450.2707527
451.58489
452.967495
454.4179503
455.9355991
457.519437
459.1683323
460.880383
462.6538228
464.4864767
466.3758269
468.3188207
470.3122681
472.3527695
474.4364854
476.5595041
478.7174834
438.3826087
438.45714
438.617394
438.8557152
439.1687779
439.5538858
440.0098463
440.5350719
441.1291684
441.7911829
442.5213273
443.3195756
444.1860753
445.1210128
446.124767
447.1975898
448.3396655
449.5510895
450.8317742
452.1814188
453.5990401
455.0842459
456.6354509
458.2515803
459.9305941
461.6704729
463.4688639
465.3231216
467.2301627
469.1865591
471.1888334
473.2330951
475.3152834
477.4311931
479.5763051
481.7460796
483.9357459
486.1405628
488.355576
490.5761632
492.7975413
495.0149653
497.2239541
499.4200765
501.5994178
503.7582567
505.8933282
508.0018345
510.0818565
512.1320823
438.57518
438.6519541
438.8170478
439.062608
439.3849697
439.781966
440.2519841
440.7935001
441.4060275
442.0890024
442.8419297
443.6650539
444.558387
445.5220124
446.556045
447.6605292
448.8354285
450.0804651
451.3949844
452.7783932
454.2297844
455.7474764
457.3302892
458.9760489
460.682605
462.4474216
464.2676845
466.1403226
468.0616863
470.0281912
472.0360295
474.0809835
476.1588288
478.2649287
480.394843
482.5439128
484.7074046
486.8806611
489.0589623
491.2376848
493.4122286
495.5783004
497.7318143
499.8687726
501.9855374
504.0788332
506.1458722
508.1842201
510.1924364
512.1695214
438.771364
438.8504269
439.020458
439.2732374
439.6052324
440.014318
440.4984137
441.0566241
441.6877381
442.3915423
443.1676425
444.0156762
444.9357502
445.9278117
446.9917471
448.1273751
449.3341148
450.6114861
451.9587851
453.3746307
454.857689
456.4062397
458.018266
459.6912903
461.4228385
463.2098433
465.0490158
466.9369242
468.8697132
470.8434633
472.8539832
474.896892
476.9678076
479.0620643
481.1750795
483.3020352
485.438391
487.5796244
489.7211743
491.8587021
493.9878383
496.1045976
498.2051333
500.2858534
502.3435682
504.3754098
506.3789942
508.3523188
510.2941983
512.2039085
438.9712008
439.05259
439.2275367
439.487632
439.8295137
440.2507059
440.7491686
441.3239874
441.9740198
442.6986369
443.4975962
444.3705572
445.3172337
446.3373652
447.4306008
448.5964948
449.8343421
451.1432775
452.5216965
453.9684944
455.4815213
457.0589078
458.6978453
460.3959492
462.1499626
463.9563437
465.8118179
467.7123892
469.6539311
471.6322977
473.6430185
475.6816301
477.7435327
479.8240734
481.9186427
484.0225696
486.1313335
488.2404416
490.3456374
492.4427782
494.5277905
496.5970381
498.6470128
500.6744957
502.6766143
504.6508592
506.5951911
508.5079723
510.3882854
512.2356475
439.1746911
439.2583264
439.4382188
439.7058866
440.0577562
440.4909738
441.0040878
441.5954596
442.2644181
443.0099749
443.8316908
444.7292099
445.7020782
446.7498138
447.8718263
449.0673639
450.3351597
451.6740865
453.0826351
454.5585537
456.0999541
457.70392
459.3679355
461.0887324
462.8626047
464.6861493
466.555449
468.4661968
470.4140906
472.3947352
474.4034958
476.4358443
478.4870241
480.5524465
482.6274789
484.70757
486.7883492
488.8655106
490.9350012
492.9928459
495.0353031
497.0590287
499.0607948
501.0377607
502.9873829
504.9074772
506.7963132
508.6525755
510.4755795
512.2650511
439.3816557
439.4676657
439.6526762
439.9279754
440.2897094
440.7352005
441.2628608
441.8709353
442.55855
443.3249558
444.1694314
445.0912382
446.089887
447.1646497
448.3145466
449.5385632
450.8353704
452.2033326
453.6401117
455.14387
456.7114729
458.3404059
460.0272718
461.7683905
463.5601386
465.3985612
467.2793538
469.1980128
471.1501111
473.1309508
475.135889
477.1603052
479.1993979
481.2486154
483.3033318
485.3591552
487.4118851
489.4573745
491.4918055
493.511413
495.5127969
497.4928784
499.4487213
501.3778055
503.2779016
505.1471434
506.9839076
508.7872913
510.5568124
512.2923772
439.5923503
439.6807487
439.8709042
440.1538629
440.5253696
440.9832787
441.5252783
442.1501937
442.8563571
443.6432527
444.5099886
445.4557265
446.479619
447.5806918
448.7578242
450.009587
451.334158
452.7295071
454.1934944
455.7229599
457.3153921
458.9671678
460.6747875
462.434374
464.2418545
466.0929399
467.9829935
469.9074687
471.8617656
473.8410431
475.8406027
477.8556608
479.8815415
481.913689
483.9475945
485.978994
488.0038267
490.018176
492.0184085
494.0009819
495.96283
497.9011126
499.8131778
501.6967849
503.54999
505.371231
507.1592724
508.9130989
510.6325977
512.3178414
439.8067883
439.8975812
440.0928923
440.383215
440.7647966
441.2349887
441.7913722
442.432655
443.1575556
443.9646959
444.8533427
445.8224826
446.871029
447.9977658
449.2011968
450.4793592
451.8305172
453.2521629
454.7413789
456.2953699
457.9105573
459.5833718
461.3099631
463.0859624
464.9069981
466.7686852
468.6661732
470.5947182
472.5495146
474.5256584
476.5184295
478.522979
480.5347235
482.5491312
484.5618413
486.5687508
488.5659255
490.5497
492.516621
494.463419
496.3872967
498.2856519
500.1561205
501.9965537
503.8053884
505.5813398
507.3233715
509.0308307
510.7034551
512.3416255
440.0249759
440.1181625
440.3183975
440.6162969
441.0079228
441.4901124
442.0609924
442.7184833
443.4615212
444.2887877
445.1990428
446.1910687
447.2635275
448.4149517
449.6435772
450.9473863
452.3238559
453.7701744
455.2834306
456.8600151
458.4963296
460.1885249
461.9319587
463.7224026
465.5553256
467.4258443
469.3289928
471.2599403
473.2136863
475.1853276
477.1701134
479.1632255
481.1601418
483.1563627
485.1476993
487.1302208
489.1001157
491.0539725
492.9885048
494.9007259
496.7880696
498.6481509
500.478889
502.278515
504.0454749
505.7786571
507.477341
509.1412027
510.7698302
512.3638846
440.2467816
440.342226
440.5475477
440.8530683
441.2545422
441.7487627
442.3337567
443.0074901
443.7683816
444.6151678
445.5464239
446.5607077
447.6564384
448.831858
450.0848754
451.4128971
452.8133489
454.2831789
455.8186878
457.4164123
459.0722309
460.7817098
462.5404231
464.3436909
466.1867119
468.064264
469.9713731
471.9031325
473.8544366
475.8204067
477.7961675
479.77703
481.7585103
483.7362375
485.7061618
487.6645009
489.60765
491.5323766
493.4355756
495.314552
497.1669512
498.9904335
500.7833039
502.5440219
504.271344
505.9642198
507.6220203
509.2447337
510.8321085
512.3847525
440.4721567
440.5699736
440.7803961
441.0934861
441.5045314
442.0108402
442.6096512
443.2993119
444.0779159
444.9438015
445.8955384
446.9314385
448.0496819
449.2480854
450.5241602
451.8754344
453.2986635
454.7903343
456.3468474
457.9640345
459.6375382
461.3629087
463.1352279
464.9494467
466.8007291
468.6837851
470.5935004
472.5247716
474.4724746
476.4317458
478.3976701
480.3656726
482.331322
484.2903982
486.2389939
488.1734735
490.0903898
491.9866925
493.8594857
495.7063447
497.525103
499.3137697
501.0707045
502.7944439
504.4840954
506.1389416
507.7581469
509.3420685
510.8906264
512.4043456
440.701259
440.801431
441.0169143
441.3372583
441.7580065
442.276087
442.888668
443.593793
444.3896235
445.274295
446.2459849
447.3027576
448.4425431
449.662962
450.9613691
452.3345821
453.7791594
455.2915003
456.8673509
458.5024424
460.1923027
461.9316894
463.7158055
465.5396103
467.3977662
469.2849115
471.1958865
473.1254113
475.0683858
477.0199943
478.9753612
480.9299853
482.8794767
484.8197781
486.7471518
488.6580735
490.5493757
492.4181487
494.2616917
496.0777291
497.8642134
499.6194624
501.3421023
503.0308689
504.6847869
506.3034866
507.8863827
509.4337022
510.9456833
512.4227668
440.9340692
441.0365748
441.256928
441.5845015
442.0149004
442.544394
443.1706667
443.8909681
444.7035358
445.6063374
446.597321
447.6743116
448.8349557
450.0765629
451.3959484
452.7898877
454.2547406
455.7861184
457.3800018
459.0315777
460.7359115
462.4879809
464.2825856
466.1144236
467.9778834
469.8676839
471.7785869
473.7052658
475.6426694
477.5858641
479.5301085
481.4709681
483.4041534
485.325755
487.2321901
489.1200327
490.9862651
492.8281963
494.6433564
496.4297218
498.18549
499.9088304
501.5987042
503.2541775
504.8742894
506.4587416
508.0073109
509.520064
510.9975437
512.4401074
441.1705346
441.2752109
441.5003587
441.8352383
442.2749854
442.8158609
443.4552359
444.1906579
445.0195917
445.9400092
446.9496625
448.0461417
449.2267055
450.4882445
451.8277063
453.2413178
454.7248491
456.2742315
457.8845671
459.5510832
461.2687169
463.031914
464.8353638
466.6737093
468.5412856
470.4326405
472.3424372
474.26534
476.1963438
478.1304381
480.0630011
481.9897118
483.9064131
485.8093221
487.6949841
489.5601881
491.4021337
493.2181905
495.0060008
496.7637477
498.4898496
500.1829223
501.8415835
503.4652666
505.0533908
506.60538
508.1214599
509.6015399
511.0464445
512.4564484
441.4103612
441.517312
441.7473363
442.0894164
442.5381818
443.0904103
443.7426101
444.4924728
445.3374284
446.275007
447.3026644
448.417747
449.6173067
450.8981271
452.2565579
453.6884138
455.1897313
456.7554622
458.3810355
460.0612239
461.7904338
463.5633783
465.3745327
467.2181939
469.08858
470.9802567
472.8878196
474.8059744
476.7297365
478.6541617
480.5747363
482.487142
484.3873789
486.2718092
488.1371007
489.9800979
491.7982565
493.5890951
495.3506064
497.0810179
498.7786634
500.4425536
502.0716666
503.6650866
505.222742
506.7440079
508.2292383
509.6784851
511.0926025
512.4718637
441.6537891
441.7629831
441.9978133
442.3467265
442.8046058
443.3676962
444.0327059
444.7966439
445.6570114
446.6111051
447.6561436
448.7891982
450.0070235
451.3059843
452.6821349
454.1314843
455.6489094
457.2300939
458.8694022
460.561758
462.3015033
464.0829139
465.9002859
467.7478813
469.6199545
471.5110023
473.4154981
475.3282015
477.2441307
479.1584398
481.0666189
482.9644615
484.8481316
486.7141487
488.5592921
490.3807239
492.17592
493.9423463
495.6783436
497.3823673
499.0529384
500.6889066
502.2896775
503.8544152
505.3830037
506.875191
508.3311477
509.7512226
511.1362151
512.4864206
441.900771
442.0121757
442.2516065
442.6072889
443.0741974
443.6478474
444.3252306
445.1030932
445.97842
446.9484789
448.010256
449.160525
450.3954976
451.7116446
453.1047753
454.5700101
456.1028757
457.6978432
459.3498707
461.0532261
462.801959
464.590515
466.413063
468.2636098
470.136363
472.0257069
473.9262064
475.8326848
477.7401071
479.6437712
481.539309
483.4225726
485.2898427
487.1377602
488.9630732
490.7632654
492.5359268
494.278912
495.9904025
497.6689671
499.3134756
500.9228734
502.496501
504.033973
505.5348985
506.9994533
508.4276289
509.8200514
511.1774346
512.500181
442.1512521
442.2646865
442.5085928
442.8711276
443.3466504
443.9308778
444.6201897
445.4114311
446.3014028
447.2869053
448.3646876
449.5312469
450.7828272
452.1154025
453.5240931
455.00453
456.5512858
458.1592955
459.8225477
461.5355589
463.2923544
465.0869644
466.9133541
468.7656181
470.6379961
472.5248533
474.4206854
476.3203699
478.2188665
480.1115616
481.9941274
483.8626204
485.7134353
487.5433374
489.3493647
491.1289869
492.8797171
494.599787
496.2876654
497.9418505
499.5612551
501.1452915
502.6929744
504.2043797
505.6790086
507.1172806
508.519066
509.8852497
511.2164472
512.5132022
442.4048465
442.5204246
442.7689143
443.1381851
443.6220563
444.2166479
444.9176788
445.7218774
446.6258878
447.6262729
448.7195108
449.90181
451.1691654
452.5168655
453.9405423
455.4348779
456.9947023
458.6141889
460.2878535
462.0094164
463.7728757
465.5723601
467.4017059
469.2548517
471.1260263
473.0094529
474.8997942
476.7919713
478.681005
480.5624046
482.4319344
484.2857239
486.1202731
487.9323502
489.7192747
491.478651
493.2082872
494.9061957
496.5711061
498.2018959
499.7972311
501.3567534
502.8798145
504.3662198
505.8158815
507.2290458
508.6058178
509.947077
511.2534254
512.5255375
442.661818
442.7795084
443.03251
443.4080771
443.9004541
444.5049116
445.2175692
446.0344551
446.9520661
447.9668168
449.0749044
450.2721084
451.5541742
452.9165268
454.354061
455.8613929
457.4330861
459.0633135
460.7459414
462.474979
464.2442796
466.0476218
467.8787581
469.7317252
471.6007565
473.4801218
475.3644508
477.2486765
479.1279164
480.9976859
482.8538903
484.6928037
486.5110945
488.3057503
490.0740465
491.8135973
493.5224765
495.1990863
496.8418306
498.449853
500.0222348
501.5582254
503.0577067
504.5202094
505.9460371
507.3352344
508.6882234
510.005778
511.2885169
512.5372368
442.9220985
443.0418707
443.299127
443.6810488
444.1817487
444.7958959
445.519617
446.3488915
447.2797739
448.3083574
449.4305561
450.6420665
451.9383792
453.3143833
454.7648268
456.2843223
457.8668784
459.506637
461.1975239
462.9329203
464.7068262
466.5130389
468.3452168
470.1972988
472.0634236
473.9379231
475.8155534
477.6912196
479.5602059
481.4181813
483.2610689
485.0851959
486.8872944
488.6645516
490.4144758
492.1348818
493.8235309
495.4792382
497.100758
498.6867961
500.23698
501.7504442
503.2272314
504.6669272
506.0699717
507.436291
508.7666051
510.0615847
511.321862
512.5483476
443.1855693
443.3072412
443.5687328
443.9570521
444.4656083
445.089558
445.8240835
446.6652717
447.6089353
448.6508956
449.7867789
451.01206
452.3217128
453.7105427
455.1732883
456.7037755
458.2964253
459.9448285
461.6426688
463.3836617
465.1614741
466.9695432
468.8017169
470.6519899
472.5145157
474.3836405
476.25414
478.1208957
479.9792465
481.8250534
483.6543592
485.4636634
487.2498669
489.0100207
490.7418008
492.4432246
494.1124366
495.7478239
497.348576
498.9135543
500.4422053
501.9341131
503.3890124
504.8069274
506.1881225
507.5326094
508.8412714
510.1147187
511.3535943
512.5589146
462.0823177
463.8277863
465.6084037
467.4176601
469.2492135
471.0970284
472.9551828
474.8181995
476.6809135
478.5383046
480.3858819
482.2194632
484.0351269
485.8295239
487.5997202
489.3430269
491.0571302
492.7399244
494.3899244
496.0057587
497.5863028
499.1309339
500.6387851
502.1099116
503.5437516
504.9407439
506.3009108
507.6245677
508.9125183
510.1653779
511.3838417
512.5689809
)
;

boundaryField
{
    front_top
    {
        type            wedge;
    }
    front_middle
    {
        type            wedge;
    }
    front_bottom
    {
        type            wedge;
    }
    back_top
    {
        type            wedge;
    }
    back_middle
    {
        type            wedge;
    }
    back_bottom
    {
        type            wedge;
    }
    axis_top
    {
        type            symmetryPlane;
    }
    axis_middle
    {
        type            symmetryPlane;
    }
    axis_bottom
    {
        type            symmetryPlane;
    }
    wall_top
    {
        type            convectiveRadiativeHeatFlux;
        mode            convectiveRadiative;
        kappaMethod     fluidThermo;
        kappa           none;
        alphaAni        Anialpha;
        h               nonuniform 0();
        Ta              constant 513.15;
        emissivityNozzle 0.95;
        emissivityFilament 0.95;
        dNozzle         2;
        dFilament       1.65;
        refValue        nonuniform 0();
        refGradient     nonuniform 0();
        valueFraction   nonuniform 0();
        value           nonuniform 0();
    }
    wall_middle
    {
        type            fixedValue;
        value           uniform 513.15;
    }
    wall_bottom
    {
        type            fixedValue;
        value           nonuniform 0();
    }
    inlet
    {
        type            fixedValue;
        value           nonuniform 0();
    }
    outlet
    {
        type            zeroGradient;
    }
    procBoundary4to3
    {
        type            processor;
        value           nonuniform List<scalar> 
51
(
443.4519056
443.5756008
443.8414024
444.2359133
444.7522897
445.3855606
446.1309441
446.9837353
447.9398071
448.9946971
450.1437462
451.3819344
452.7042854
454.1054705
455.5793112
457.1203837
458.7219549
460.3781694
460.3781694
462.5166239
464.2660103
466.0487349
467.8582161
469.6882541
471.5328712
473.3861797
475.2426875
477.0972268
478.9448433
480.7812174
482.6022281
484.4042005
486.1838757
487.938172
489.6646745
491.3612846
493.0259819
494.6571479
496.2538402
497.8148278
499.3395499
500.8274503
502.2783772
503.6920477
505.0689011
506.4088606
507.7125287
508.9806297
510.2137492
511.4127267
512.5785878
)
;
    }
    procBoundary4to5
    {
        type            processor;
        value           nonuniform List<scalar> 
51
(
438.007918
438.0782308
438.2292697
438.4536474
438.7482516
439.1108578
439.5393572
440.0330283
440.5906593
441.212235
441.8971887
442.6458837
443.458699
444.3360952
445.2786351
446.2869825
447.3617946
448.5037356
449.7133176
450.9909803
452.3367605
453.7506439
455.2325413
456.7816532
458.3974384
460.0787953
461.8240349
463.6316573
465.4996678
467.4255767
469.4065575
471.4396667
473.5214752
475.6483497
477.816335
480.9060415
480.9060415
483.1204888
485.3558492
487.6074799
489.8704195
492.1397508
494.4101293
496.6770477
498.9357554
501.1817289
503.4106154
505.618831
507.8031345
509.9611153
512.0910987
)
;
    }
}


// ************************************************************************* //
