/*--------------------------------*- C++ -*----------------------------------*\
  =========                 |
  \\      /  F ield         | OpenFOAM: The Open Source CFD Toolbox
   \\    /   O peration     | Website:  https://openfoam.org
    \\  /    A nd           | Version:  7
     \\/     M anipulation  |
\*---------------------------------------------------------------------------*/
FoamFile
{
    version     2.0;
    format      ascii;
    class       volVectorField;
    location    "0.0015";
    object      U;
}
// * * * * * * * * * * * * * * * * * * * * * * * * * * * * * * * * * * * * * //

dimensions      [0 1 -1 0 0 0 0];

internalField   nonuniform List<vector> 
1167
(
(-6.287792704e-05 -3.940249982e-19 -0.004350758859)
(-0.0001623873265 -5.776247208e-19 -0.004347418545)
(-0.0002554307725 -6.382737669e-19 -0.004340171659)
(-0.0003512859787 -1.238556293e-18 -0.00432931348)
(-0.000444376317 -1.977597602e-18 -0.004315227738)
(-0.0005342347193 -2.745416348e-18 -0.004298168132)
(-0.0006207764918 -3.789520415e-18 -0.004278340112)
(-0.0007038115382 -4.105958662e-18 -0.004255953512)
(-0.0007832090963 -4.028715022e-18 -0.004231207585)
(-0.0008588880427 -4.059646132e-18 -0.00420429104)
(-0.0009307999227 -4.068962938e-18 -0.004175378858)
(-0.0009989228471 -3.583025382e-18 -0.004144633198)
(-0.001063257518 -3.510642305e-18 -0.004112201985)
(-0.001123823181 -3.475821495e-18 -0.00407821766)
(-0.001180653333 -3.365835655e-18 -0.004042796566)
(-0.001233792386 -3.17864838e-18 -0.004006038794)
(-0.001283292589 -3.041243064e-18 -0.003968027863)
(-0.001329211274 -2.903601658e-18 -0.003928830668)
(-0.001371608211 -2.942842141e-18 -0.003888497648)
(-0.001410543493 -2.658277652e-18 -0.003847063246)
(-0.001446075985 -2.572919268e-18 -0.00380454623)
(-0.00147826136 -2.458181724e-18 -0.003760949934)
(-0.001507151138 -2.316825033e-18 -0.00371626312)
(-0.001532791182 -2.116281817e-18 -0.003670459641)
(-0.001555221098 -2.200755115e-18 -0.003623499087)
(-0.001574472839 -2.276780368e-18 -0.003575325778)
(-0.001590569339 -2.441638139e-18 -0.003525868183)
(-0.001603523426 -2.51026747e-18 -0.003475037539)
(-0.00161333589 -2.461181377e-18 -0.003422725238)
(-0.001619992809 -2.365229775e-18 -0.003368799184)
(-0.001623462036 -2.411230337e-18 -0.003313098909)
(-0.001623688721 -2.383521877e-18 -0.003255428413)
(-0.001620588564 -2.32659621e-18 -0.003195545811)
(-0.001614038381 -2.326419609e-18 -0.003133148809)
(-0.001603862511 -2.329380489e-18 -0.003067853519)
(-6.496875879e-05 -5.040121123e-19 -0.004518550123)
(-0.0001678356223 -1.021273752e-18 -0.004514924204)
(-0.0002640073876 -1.013361589e-18 -0.004507034791)
(-0.0003630475295 -1.670752708e-18 -0.00449523449)
(-0.0004592433929 -1.636270153e-18 -0.004479931814)
(-0.0005520838779 -3.433537212e-18 -0.004461405893)
(-0.0006414820564 -3.955121218e-18 -0.004439887274)
(-0.0007272414486 -4.160121798e-18 -0.004415608637)
(-0.00080922525 -3.817026836e-18 -0.004388792356)
(-0.0008873479847 -3.80411442e-18 -0.004359647917)
(-0.0009615578919 -3.840750917e-18 -0.004328371486)
(-0.001031831196 -3.526902279e-18 -0.004295143304)
(-0.001098167175 -3.240483436e-18 -0.004260127973)
(-0.001160583826 -3.328576773e-18 -0.004223472905)
(-0.001219113909 -3.316212143e-18 -0.004185307624)
(-0.001273801409 -3.256626187e-18 -0.00414574341)
(-0.00132469828 -3.130239839e-18 -0.004104873212)
(-0.001371861658 -3.109644296e-18 -0.004062771624)
(-0.001415351277 -3.025177486e-18 -0.004019495175)
(-0.001455227413 -2.782858617e-18 -0.003975082834)
(-0.001491548781 -2.592793798e-18 -0.003929556706)
(-0.00152437145 -2.48451198e-18 -0.003882922703)
(-0.001553747201 -2.421302896e-18 -0.003835170653)
(-0.00157972259 -2.359182506e-18 -0.003786275381)
(-0.001602337954 -2.477128581e-18 -0.00373619617)
(-0.001621625922 -2.61081198e-18 -0.003684876688)
(-0.001637610518 -2.628925981e-18 -0.003632244267)
(-0.00165030553 -2.404622728e-18 -0.003578208134)
(-0.001659712539 -2.30776156e-18 -0.003522656878)
(-0.001665817965 -2.29739076e-18 -0.003465454554)
(-0.001668589477 -2.241519103e-18 -0.003406435458)
(-0.001667971004 -2.152069219e-18 -0.003345396296)
(-0.001663875407 -2.230928688e-18 -0.003282085082)
(-0.001656174444 -2.06171732e-18 -0.0032161853)
(-0.001644683902 -2.087097779e-18 -0.003147292868)
(-0.001629142314 -2.057527664e-18 -0.003074882877)
(-0.001609179728 -2.027348428e-18 -0.002998260599)
(-0.001584272331 -1.980278542e-18 -0.00291649034)
(-0.001553678771 -1.863921757e-18 -0.002828294074)
(-0.001516354977 -1.697045282e-18 -0.002731914337)
(-0.001470851278 -1.586243053e-18 -0.002624945759)
(-0.001415206102 -1.657551602e-18 -0.002504155732)
(-0.001346860035 -1.787534062e-18 -0.002365325081)
(-0.001262610281 -1.921554793e-18 -0.002203134695)
(-0.001158610495 -1.523484279e-18 -0.002011100019)
(-0.001030410152 -1.074576031e-18 -0.001781531521)
(-0.0008730276538 -1.0097556e-18 -0.001505495664)
(-0.0006809651139 -8.734209816e-19 -0.001172809278)
(-0.0004479125839 -6.394487044e-19 -0.0007722041712)
(-0.000166010456 -3.078974442e-19 -0.0002917469463)
(-6.701554149e-05 -5.286209914e-19 -0.004694296936)
(-0.0001731738055 -1.592959009e-18 -0.004690373562)
(-0.0002724144827 -3.149634942e-18 -0.004681818676)
(-0.0003745800025 -2.573235738e-18 -0.004669041596)
(-0.0004738291246 -3.568719786e-18 -0.004652476063)
(-0.0005696073831 -3.958364798e-18 -0.004632428287)
(-0.0006618261692 -4.278728918e-18 -0.004609153912)
(-0.0007502828201 -3.55894995e-18 -0.004582908444)
(-0.000834834506 -3.835816521e-18 -0.004553938352)
(-0.0009153916529 -4.067739978e-18 -0.004522474095)
(-0.000991898831 -3.545935029e-18 -0.004488732002)
(-0.001064329341 -3.159017646e-18 -0.004452911812)
(-0.001132680336 -3.133207501e-18 -0.004415194688)
(-0.001196967802 -3.185392391e-18 -0.00437574283)
(-0.001257222792 -3.002544871e-18 -0.00433469891)
(-0.001313487733 -3.205448251e-18 -0.004292185449)
(-0.001365813286 -3.460867319e-18 -0.004248304941)
(-0.001414255371 -3.302835927e-18 -0.004203139657)
(-0.001458872546 -2.819823327e-18 -0.004156752404)
(-0.00149972416 -2.596712079e-18 -0.004109187175)
(-0.00153686839 -2.515717193e-18 -0.004060469539)
(-0.001570360748 -2.446995542e-18 -0.00401060811)
(-0.001600252843 -2.300476512e-18 -0.003959594743)
(-0.00162659153 -2.386879812e-18 -0.003907405267)
(-0.001649417319 -2.50343401e-18 -0.00385399942)
(-0.001668763625 -2.661790392e-18 -0.003799320887)
(-0.001684655325 -2.720919993e-18 -0.0037432962)
(-0.001697107089 -2.722803045e-18 -0.003685833054)
(-0.001706121115 -2.642367117e-18 -0.003626817604)
(-0.001711684158 -2.41149929e-18 -0.003566110515)
(-0.001713763756 -2.338815524e-18 -0.003503541033)
(-0.001712302529 -2.188543012e-18 -0.003438898488)
(-0.00170721039 -2.05659381e-18 -0.003371920395)
(-0.001698353636 -1.980543759e-18 -0.003302275315)
(-0.001685539107 -1.847953783e-18 -0.003229538094)
(-0.001668491494 -1.823243805e-18 -0.003153153781)
(-0.001646820161 -1.710797353e-18 -0.003072385335)
(-0.001619971911 -1.684639386e-18 -0.002986238399)
(-0.001587165785 -1.721141186e-18 -0.002893356457)
(-0.001547309256 -1.668672298e-18 -0.002791884253)
(-0.00149890214 -1.418969381e-18 -0.002679308484)
(-0.001439944883 -1.427927403e-18 -0.002552300329)
(-0.001367874154 -1.58901347e-18 -0.002406590891)
(-0.001279541309 -1.588206193e-18 -0.002236899528)
(-0.001171232253 -1.494781877e-18 -0.002036908795)
(-0.001038719606 -1.310283198e-18 -0.001799259983)
(-0.000877340847 -1.1164261e-18 -0.001515544045)
(-0.0006820112431 -8.866053289e-19 -0.001176323532)
(-0.0004469273663 -5.828417539e-19 -0.000771317568)
(-0.00016488194 -2.64067606e-19 -0.0002897993873)
(-6.90260899e-05 -6.391578839e-19 -0.004878125153)
(-0.0001784219089 -1.383043464e-18 -0.004873894144)
(-0.00028068356 -2.817091002e-18 -0.004864654811)
(-0.0003859264927 -2.509983885e-18 -0.004850871831)
(-0.0004881884736 -3.011071053e-18 -0.004833005057)
(-0.0005868722908 -3.791535201e-18 -0.004811389019)
(-0.0006818871198 -4.693322536e-18 -0.004786303171)
(-0.0007730251706 -4.213578033e-18 -0.004758027215)
(-0.000860137491 -3.787592161e-18 -0.004726830267)
(-0.0009431297433 -3.691976831e-18 -0.004692965419)
(-0.001021943037 -3.328210507e-18 -0.004656668352)
(-0.001096546946 -3.131428493e-18 -0.004618157249)
(-0.001166935194 -3.19784697e-18 -0.004577630369)
(-0.001233121006 -3.151472424e-18 -0.004535264884)
(-0.001295132755 -2.883260366e-18 -0.004491216369)
(-0.001353010369 -2.795071158e-18 -0.004445618442)
(-0.001406801978 -3.103194996e-18 -0.004398582895)
(-0.001456561059 -3.101275599e-18 -0.004350199913)
(-0.001502344364 -2.807772204e-18 -0.004300538804)
(-0.001544209408 -2.62954854e-18 -0.00424964854)
(-0.001582213003 -2.668798961e-18 -0.00419755912)
(-0.001616409547 -2.369068848e-18 -0.004144281966)
(-0.001646850249 -2.331739989e-18 -0.004089811599)
(-0.001673581457 -2.321500216e-18 -0.004034125308)
(-0.001696643956 -2.324053256e-18 -0.003977184196)
(-0.001716071754 -2.568495263e-18 -0.00391893236)
(-0.001731890293 -2.690136154e-18 -0.003859296082)
(-0.001744115009 -2.792060761e-18 -0.003798182228)
(-0.001752748779 -2.850728211e-18 -0.003735475073)
(-0.001757778765 -2.88246974e-18 -0.003671032152)
(-0.001759172212 -2.654302447e-18 -0.003604677803)
(-0.001756870279 -2.545016204e-18 -0.003536194034)
(-0.001750779795 -2.319353298e-18 -0.00346530764)
(-0.001740761336 -2.191458511e-18 -0.003391671626)
(-0.001726612455 -2.072203014e-18 -0.003314838701)
(-0.001708043485 -2.016184806e-18 -0.0032342227)
(-0.001684642808 -1.955187158e-18 -0.003149043099)
(-0.001655828033 -1.973611198e-18 -0.003058246146)
(-0.001620780146 -1.850758532e-18 -0.002960397922)
(-0.001578361944 -1.815585373e-18 -0.002853550072)
(-0.001527029613 -1.724893309e-18 -0.002735091839)
(-0.001464755638 -1.477369762e-18 -0.002601615658)
(-0.001388984059 -1.391003442e-18 -0.002448825383)
(-0.00129662859 -1.463205148e-18 -0.002271500341)
(-0.001184107054 -1.313624963e-18 -0.002063502196)
(-0.00104740194 -1.394960221e-18 -0.001817796621)
(-0.0008821411347 -1.288042473e-18 -0.001526466068)
(-0.0006836076791 -1.298330239e-18 -0.001180751341)
(-0.000446442501 -7.436246626e-19 -0.0007712506112)
(-0.0001640075666 -1.813759007e-19 -0.0002882939112)
(-7.10103923e-05 -8.477666241e-19 -0.005070190031)
(-0.0001836056501 1.691337192e-18 -0.005065642958)
(-0.0002888548473 -1.140404295e-18 -0.005055704036)
(-0.000397142243 -1.838730574e-18 -0.005040891817)
(-0.0005023918052 -3.167843627e-18 -0.005021693606)
(-0.0006039630078 -3.395071627e-18 -0.004998471309)
(-0.0007017628784 -4.233182629e-18 -0.00497152798)
(-0.0007955790941 -3.813220719e-18 -0.004941168167)
(-0.0008852567588 -3.551958749e-18 -0.004907682709)
(-0.00097069629 -3.434317671e-18 -0.004871346469)
(-0.001051834359 -3.117543197e-18 -0.004832415443)
(-0.001128636571 -3.155373928e-18 -0.004791125375)
(-0.001201092581 -3.122516149e-18 -0.00474769087)
(-0.001269211584 -3.184416915e-18 -0.004702303737)
(-0.001333018144 -3.020000303e-18 -0.004655132336)
(-0.001392548563 -2.696633617e-18 -0.004606321313)
(-0.001447847569 -2.401568583e-18 -0.004555991792)
(-0.001498965635 -2.528764627e-18 -0.004504241847)
(-0.00154595642 -2.687654778e-18 -0.004451147372)
(-0.001588875004 -2.645817277e-18 -0.004396762976)
(-0.001627776105 -2.539373482e-18 -0.004341122974)
(-0.001662712794 -2.283192187e-18 -0.004284242861)
(-0.001693735025 -2.407097319e-18 -0.004226119775)
(-0.001720888674 -2.476456694e-18 -0.004166733752)
(-0.001744214711 -2.458084645e-18 -0.004106047582)
(-0.001763747185 -2.488932424e-18 -0.004044006458)
(-0.001779512164 -2.796158398e-18 -0.00398053734)
(-0.001791525899 -2.877251027e-18 -0.003915546777)
(-0.001799791911 -2.787682677e-18 -0.003848917739)
(-0.001804297712 -2.758820583e-18 -0.003780504948)
(-0.001805010091 -2.655714884e-18 -0.003710127958)
(-0.001801868578 -2.625230079e-18 -0.003637561435)
(-0.001794776635 -2.33839456e-18 -0.003562521222)
(-0.001783588909 -2.319460928e-18 -0.003484644385)
(-0.001768093384 -2.33112532e-18 -0.003403460733)
(-0.001747985762 -2.211305208e-18 -0.003318351839)
(-0.001722833307 -2.206993597e-18 -0.003228492621)
(-0.001692024821 -2.029923804e-18 -0.003132769751)
(-0.001654704904 -1.857169797e-18 -0.003029673692)
(-0.001609695578 -1.804993946e-18 -0.00291716846)
(-0.001555416113 -1.835377009e-18 -0.002792556707)
(-0.001489819975 -1.792185977e-18 -0.002652368341)
(-0.001410367341 -1.770260416e-18 -0.002492298668)
(-0.001314039022 -1.406241904e-18 -0.002307202564)
(-0.001197381634 -1.218750354e-18 -0.002091126612)
(-0.00105657356 -1.038640892e-18 -0.001837350369)
(-0.0008875065803 -8.347457639e-19 -0.001538414842)
(-0.0006857919713 -6.574738505e-19 -0.001186178317)
(-0.0004464620267 -4.661325181e-19 -0.0007720251714)
(-0.0001633776451 -2.434183513e-19 -0.0002872165558)
(-7.298050854e-05 3.408940744e-18 -0.005270684171)
(-0.0001887559632 4.439096272e-18 -0.005265814036)
(-0.0002969768125 2.150057949e-18 -0.005255164184)
(-0.0004082941971 -3.39098205e-19 -0.005239305635)
(-0.0005165236682 -1.903720098e-18 -0.00521875291)
(-0.000620980099 -2.427474845e-18 -0.005193894148)
(-0.0007215694334 -2.362002284e-18 -0.005165057044)
(-0.0008180748345 -3.792316216e-18 -0.005132569093)
(-0.0009103352425 -3.707048115e-18 -0.005096743832)
(-0.0009982459314 -2.951491045e-18 -0.005057875958)
(-0.001081738199 -3.431335576e-18 -0.005016241055)
(-0.00116077284 -2.786343673e-18 -0.004972092857)
(-0.001235334732 -2.885861024e-18 -0.004925661418)
(-0.001305428194 -3.160673707e-18 -0.004877152544)
(-0.00137107305 -3.512161251e-18 -0.004826747065)
(-0.001432301118 -3.068606573e-18 -0.0047746004)
(-0.001489152716 -2.648232343e-18 -0.004720842907)
(-0.001541674202 -2.598702341e-18 -0.004665580773)
(-0.00158991584 -2.724814185e-18 -0.004608896601)
(-0.001633929493 -2.766845344e-18 -0.004550850889)
(-0.001673767401 -2.613033974e-18 -0.004491483149)
(-0.001709480573 -2.530649934e-18 -0.004430813016)
(-0.001741117554 -2.637784326e-18 -0.004368841547)
(-0.001768723806 -2.671024466e-18 -0.004305551949)
(-0.001792339736 -2.586260863e-18 -0.004240909393)
(-0.001811999567 -2.437057745e-18 -0.00417486123)
(-0.001827730146 -2.627873782e-18 -0.004107335791)
(-0.001839548361 -2.633842335e-18 -0.004038239875)
(-0.001847458266 -2.494970139e-18 -0.00396745559)
(-0.001851447602 -2.572158391e-18 -0.003894835277)
(-0.001851482579 -2.633382044e-18 -0.003820193974)
(-0.001847500976 -2.491939373e-18 -0.003743299001)
(-0.001839402622 -2.24703965e-18 -0.003663854966)
(-0.001827035911 -2.223589544e-18 -0.003581482533)
(-0.001810178949 -2.214074693e-18 -0.003495687999)
(-0.001788512679 -2.157274416e-18 -0.003405820005)
(-0.001761583375 -2.105004408e-18 -0.003311008389)
(-0.001728751744 -2.019771452e-18 -0.00321008052)
(-0.001689127935 -1.940632535e-18 -0.003101453532)
(-0.001641497048 -1.912478546e-18 -0.002983009742)
(-0.001584247516 -2.027663991e-18 -0.002851975697)
(-0.001515321219 -2.076766082e-18 -0.002704833141)
(-0.001432200984 -2.043088544e-18 -0.00253728405)
(-0.001331937046 -1.842370078e-18 -0.002344269915)
(-0.001211199876 -1.452375857e-18 -0.002120023627)
(-0.001066349529 -1.050189288e-18 -0.001858125307)
(-0.0008935172336 -5.971068198e-19 -0.00155154213)
(-0.0006886074674 -6.227946537e-21 -0.00119269473)
(-0.0004469978364 4.010365382e-19 -0.0007736727637)
(-0.0001629877028 1.784344592e-19 -0.0002865616213)
(-7.495022881e-05 4.787871322e-18 -0.005479844938)
(-0.000193908648 4.442580383e-18 -0.005474646603)
(-0.0003051061503 3.745803655e-18 -0.005463278593)
(-0.0004194602601 2.245890156e-18 -0.005446361927)
(-0.0005306812186 -3.194801441e-19 -0.005424437454)
(-0.0006380391176 -1.856542825e-18 -0.005397919518)
(-0.0007414393385 -2.492444708e-18 -0.005367160434)
(-0.000840660605 -3.25840152e-18 -0.005332508767)
(-0.000935535204 -3.531177769e-18 -0.005294300366)
(-0.001025952862 -3.358164127e-18 -0.005252849691)
(-0.001111839617 -3.231511314e-18 -0.005208450251)
(-0.001193150342 -3.036846346e-18 -0.00516137251)
(-0.001269864176 -3.129762691e-18 -0.005111861879)
(-0.001341979953 -2.712316417e-18 -0.005060137608)
(-0.001409511855 -3.199868101e-18 -0.00500639238)
(-0.001472486244 -3.223378516e-18 -0.004950792266)
(-0.001530938445 -3.047443846e-18 -0.004893476772)
(-0.001584910319 -3.177905887e-18 -0.004834560153)
(-0.001634447687 -3.022404344e-18 -0.004774132159)
(-0.001679598965 -2.804876623e-18 -0.004712259585)
(-0.001720413319 -2.885535468e-18 -0.004648987395)
(-0.001756939367 -3.080739169e-18 -0.004584340416)
(-0.00178922439 -3.178785031e-18 -0.004518324247)
(-0.001817312623 -3.002691741e-18 -0.004450925855)
(-0.001841244055 -2.860117552e-18 -0.004382113991)
(-0.001861053295 -2.748601662e-18 -0.004311838926)
(-0.001876767646 -2.760263411e-18 -0.004240030877)
(-0.001888404496 -2.797998748e-18 -0.004166597619)
(-0.001895968405 -2.54364063e-18 -0.004091420988)
(-0.001899447188 -2.421848186e-18 -0.004014351318)
(-0.001898806339 -2.251104589e-18 -0.003935199445)
(-0.001893981769 -2.230009434e-18 -0.003853725396)
(-0.001884869458 -2.114018707e-18 -0.003769622368)
(-0.001871311309 -2.251109385e-18 -0.00368249419)
(-0.001853075259 -2.066746041e-18 -0.003591823083)
(-0.001829827316 -1.944223355e-18 -0.00349692422)
(-0.001801092974 -1.89645423e-18 -0.003396882203)
(-0.001766205792 -1.853433066e-18 -0.003290465933)
(-0.001724243627 -1.891483958e-18 -0.00317602212)
(-0.001673958477 -1.723442276e-18 -0.003051357539)
(-0.001613713431 -1.610467602e-18 -0.002913632525)
(-0.001541444861 -1.828932024e-18 -0.00275929311)
(-0.001454662703 -1.813624567e-18 -0.002584059844)
(-0.001350486809 -1.757223398e-18 -0.002382967884)
(-0.001225705241 -1.655045774e-18 -0.002150434268)
(-0.001076845535 -1.28119092e-18 -0.001880324385)
(-0.0009002557125 -9.406602368e-19 -0.001566000341)
(-0.0006921023479 -6.101379078e-19 -0.001200395001)
(-0.0004480677621 9.898855707e-20 -0.0007762321267)
(-0.0001628370483 1.904867696e-20 -0.0002863292773)
(-7.693545056e-05 -6.643661862e-19 -0.005697963823)
(-0.000199104724 -1.184311582e-18 -0.005692433895)
(-0.0003133070912 2.936204981e-18 -0.00568034376)
(-0.0004307276563 1.961141165e-18 -0.005662361118)
(-0.0005449731786 -8.665531905e-19 -0.005639052346)
(-0.0006552693041 -2.511132878e-19 -0.005610859135)
(-0.0007615202526 -2.154254873e-18 -0.005578155915)
(-0.0008635007372 -2.44018583e-18 -0.005541312632)
(-0.0009610362895 -2.784015681e-18 -0.005500684446)
(-0.001054010174 -3.141889199e-18 -0.005456605888)
(-0.001142342652 -2.772595993e-18 -0.00540938754)
(-0.001225982388 -3.179626686e-18 -0.005359315289)
(-0.001304902183 -3.611208943e-18 -0.005306648916)
(-0.00137909445 -3.195312152e-18 -0.005251620504)
(-0.00144856717 -3.235367908e-18 -0.005194434189)
(-0.001513340781 -3.257597144e-18 -0.005135266362)
(-0.00157344489 -3.39170872e-18 -0.005074265634)
(-0.001628915967 -3.166936141e-18 -0.005011554406)
(-0.001679795391 -2.994968526e-18 -0.004947229737)
(-0.001726127457 -3.125451631e-18 -0.004881365175)
(-0.001767957992 -3.22174032e-18 -0.004814011968)
(-0.001805333354 -3.484632661e-18 -0.004745200699)
(-0.001838298817 -3.368631661e-18 -0.004674942174)
(-0.001866897562 -3.314325271e-18 -0.004603228213)
(-0.001891169295 -3.293789684e-18 -0.004530031968)
(-0.001911148668 -3.277316899e-18 -0.004455307145)
(-0.001926863223 -3.00455248e-18 -0.004378986685)
(-0.001938330819 -2.845565641e-18 -0.004300980179)
(-0.001945556536 -2.629228061e-18 -0.004221169804)
(-0.00194852818 -2.341115129e-18 -0.004139404276)
(-0.001947210427 -2.372897673e-18 -0.004055490416)
(-0.001941537069 -2.105606619e-18 -0.003969181023)
(-0.001931400041 -2.118058031e-18 -0.003880157824)
(-0.001916634557 -2.182292084e-18 -0.003788007511)
(-0.001896998201 -2.311135169e-18 -0.003692187832)
(-0.001872141992 -2.165152323e-18 -0.003591980135)
(-0.001841570959 -1.801308028e-18 -0.003486423928)
(-0.00180459253 -1.487518323e-18 -0.00337423087)
(-0.001760254426 -1.236580389e-18 -0.003253680503)
(-0.001707279136 -1.052618776e-18 -0.003122510254)
(-0.001644009197 -1.197615528e-18 -0.002977823328)
(-0.00156838027 -1.264235879e-18 -0.002816040568)
(-0.001477932157 -1.457225757e-18 -0.002632910044)
(-0.001369852943 -1.435382005e-18 -0.002423564281)
(-0.001241041125 -1.437458792e-18 -0.002182599703)
(-0.001088177975 -1.120316806e-18 -0.001904150833)
(-0.0009078071346 -7.331073838e-19 -0.001581944083)
(-0.0006963287916 -6.060575431e-19 -0.001209378237)
(-0.000449694279 -4.178977912e-19 -0.0007797484376)
(-0.0001629278831 -3.228801337e-19 -0.0002865244232)
(-7.895372049e-05 -5.506250836e-18 -0.005925394925)
(-0.0002043894139 -1.086915588e-18 -0.005919530869)
(-0.0003216501853 3.671930658e-18 -0.005906716469)
(-0.0004421915864 2.641160979e-18 -0.005887662367)
(-0.0005595186933 1.231580561e-18 -0.005862961284)
(-0.0006728120269 5.935181125e-19 -0.005833081045)
(-0.0007819738659 -7.761132147e-19 -0.005798416104)
(-0.0008867746056 -2.237843438e-18 -0.005759357709)
(-0.0009870334826 -2.195730108e-18 -0.005716279162)
(-0.001082627075 -3.292224934e-18 -0.005669532309)
(-0.001173468685 -3.409994633e-18 -0.005619444508)
(-0.001259500518 -3.323895997e-18 -0.005566316562)
(-0.001340688565 -3.124013805e-18 -0.005510421455)
(-0.001417018373 -3.542331696e-18 -0.005452003349)
(-0.001488491327 -3.959358813e-18 -0.005391277271)
(-0.001555121037 -3.752546988e-18 -0.005328429262)
(-0.001616930988 -3.196038173e-18 -0.005263617217)
(-0.001673952267 -3.007178465e-18 -0.005196971746)
(-0.00172622116 -2.948767971e-18 -0.00512859775)
(-0.001773777685 -3.167068163e-18 -0.005058575762)
(-0.001816664403 -3.375177173e-18 -0.004986964073)
(-0.001854924736 -3.429358918e-18 -0.004913799545)
(-0.001888602304 -3.390011438e-18 -0.004839099243)
(-0.001917739142 -3.399440309e-18 -0.004762860499)
(-0.001942374253 -3.318972699e-18 -0.004685061516)
(-0.001962542303 -3.416420468e-18 -0.004605660587)
(-0.0019782712 -3.401012702e-18 -0.004524594142)
(-0.001989579272 -3.079777845e-18 -0.004441774176)
(-0.001996471958 -2.833561368e-18 -0.004357083747)
(-0.001998936938 -2.576174309e-18 -0.004270370441)
(-0.001996937956 -2.356488536e-18 -0.00418143731)
(-0.001990406461 -2.287849469e-18 -0.004090029972)
(-0.001979230148 -2.265354834e-18 -0.003995818635)
(-0.001963237339 -2.24301257e-18 -0.003898372678)
(-0.00194217517 -2.243149398e-18 -0.003797125161)
(-0.001915679742 -2.203185831e-18 -0.003691323493)
(-0.001883236042 -1.965167663e-18 -0.003579962508)
(-0.001844126504 -1.478852406e-18 -0.003461698229)
(-0.001797370863 -1.382290483e-18 -0.003334746536)
(-0.001741665384 -1.231362567e-18 -0.003196781469)
(-0.001675336057 -1.294754021e-18 -0.003044857207)
(-0.0015963214 -1.18345989e-18 -0.002875378037)
(-0.001502192384 -1.093495863e-18 -0.002684125765)
(-0.001390202592 -8.966134092e-19 -0.002466331326)
(-0.001257353151 -9.582244172e-19 -0.00221676363)
(-0.001100465391 -7.583857156e-19 -0.001929809136)
(-0.0009162593267 -6.80862138e-19 -0.001599529834)
(-0.0007013430187 -4.704418039e-19 -0.001219747913)
(-0.0004519040846 -1.142757024e-19 -0.0007842726329)
(-0.0001632648696 -1.087809429e-19 -0.0002871560161)
(-8.102377057e-05 9.508344893e-19 -0.006162562165)
(-0.0002098111847 3.669115332e-18 -0.006156361931)
(-0.0003302107329 7.451670007e-18 -0.006142821726)
(-0.0004539548006 4.09557204e-18 -0.006122692635)
(-0.0005744468173 4.247154733e-18 -0.006096593963)
(-0.0006908196619 1.006757994e-18 -0.006065016793)
(-0.0008029740442 -4.337604891e-19 -0.00602837577)
(-0.0009106759522 -1.904007549e-18 -0.005987080416)
(-0.001013737365 -2.303899835e-18 -0.005941522917)
(-0.001112028483 -3.523417674e-18 -0.00589207049)
(-0.001205455689 -4.086218444e-18 -0.005839065393)
(-0.001293953849 -3.76019001e-18 -0.005782822175)
(-0.001377481599 -3.723071478e-18 -0.005723626295)
(-0.001456017226 -3.621251557e-18 -0.005661733381)
(-0.001529555002 -3.670449466e-18 -0.005597368852)
(-0.001598101894 -3.283346867e-18 -0.005530728279)
(-0.001661675104 -2.91256855e-18 -0.005461978503)
(-0.001720299639 -2.9663275e-18 -0.005391258475)
(-0.00177400673 -3.268426438e-18 -0.005318681083)
(-0.001822832123 -3.349192437e-18 -0.005244334692)
(-0.001866814612 -3.45595244e-18 -0.005168284856)
(-0.001905995215 -3.676454529e-18 -0.005090575794)
(-0.001940415457 -3.63879156e-18 -0.005011231171)
(-0.00197011601 -3.583613798e-18 -0.004930254952)
(-0.001995135478 -3.602651722e-18 -0.004847631282)
(-0.002015508571 -3.800540804e-18 -0.00476332375)
(-0.002031263459 -3.694603985e-18 -0.004677273106)
(-0.002042418912 -3.42655697e-18 -0.004589394325)
(-0.002048980578 -3.151545118e-18 -0.004499571823)
(-0.002050935845 -2.934084629e-18 -0.004407652519)
(-0.00204824741 -2.539817222e-18 -0.004313436048)
(-0.002040844254 -2.530261632e-18 -0.00421666101)
(-0.002028609682 -2.38839163e-18 -0.004116986022)
(-0.002011364933 -2.343178571e-18 -0.004013963035)
(-0.001988846614 -2.379965832e-18 -0.003907000345)
(-0.001960676054 -2.511968334e-18 -0.003795311537)
(-0.0019263187 -2.285268708e-18 -0.00367784746)
(-0.001885033167 -2.040775483e-18 -0.003553210339)
(-0.001835813262 -1.935104196e-18 -0.003419555992)
(-0.00177733196 -1.736212233e-18 -0.003274500686)
(-0.001707901953 -1.634251463e-18 -0.003115056642)
(-0.001625467117 -1.309397556e-18 -0.002937618467)
(-0.001527629808 -1.111697848e-18 -0.00273800595)
(-0.001411705375 -1.341736078e-18 -0.002511546933)
(-0.001274789 -1.709340699e-18 -0.002253173707)
(-0.001113828888 -1.367626003e-18 -0.001957507324)
(-0.0009257032146 -1.184442171e-18 -0.001618917782)
(-0.0007072045428 -1.212261078e-18 -0.001231611278)
(-0.0004547272877 -6.836893138e-19 -0.0007898602135)
(-0.0001638546394 -2.778500566e-19 -0.0002882361813)
(-8.316545256e-05 2.283033348e-18 -0.006409967392)
(-0.0002154211343 1.02830965e-18 -0.0064034288)
(-0.0003390690186 3.99004277e-18 -0.006389161829)
(-0.0004661274777 2.976167924e-18 -0.006367955426)
(-0.0005898949767 2.418613871e-18 -0.006340453592)
(-0.0007094549023 1.370123432e-18 -0.0063071696)
(-0.000824706209 -7.533210999e-19 -0.006268538155)
(-0.0009354107607 -1.679097658e-18 -0.006224984853)
(-0.001041372835 -2.103888034e-18 -0.006176918505)
(-0.001142455439 -2.590285634e-18 -0.006124722021)
(-0.001238557968 -3.479023018e-18 -0.006068750791)
(-0.001329607839 -3.697198947e-18 -0.00600933178)
(-0.00141555615 -3.806128082e-18 -0.005946761963)
(-0.001496373756 -3.637762923e-18 -0.005881307739)
(-0.001572047746 -3.501223059e-18 -0.005813204446)
(-0.001642578017 -2.992786457e-18 -0.005742656814)
(-0.00170797515 -2.992785734e-18 -0.005669840451)
(-0.001768258518 -3.079012375e-18 -0.005594902872)
(-0.001823454074 -3.069069298e-18 -0.005517965242)
(-0.001873593117 -3.103582793e-18 -0.005439124136)
(-0.001918711146 -3.307049152e-18 -0.005358453147)
(-0.001958846323 -3.407083821e-18 -0.005276004273)
(-0.00199403813 -3.503185994e-18 -0.005191808777)
(-0.002024326304 -3.624141063e-18 -0.005105878097)
(-0.002049749077 -3.795439056e-18 -0.00501820309)
(-0.002070340991 -3.953646413e-18 -0.004928753119)
(-0.002086130359 -4.011614264e-18 -0.004837474068)
(-0.00209713641 -4.003385682e-18 -0.004744284709)
(-0.002103364998 -3.713860373e-18 -0.004649071386)
(-0.002104803201 -3.556974977e-18 -0.00455168071)
(-0.002101412496 -3.50694613e-18 -0.004451909155)
(-0.002093119261 -3.166205981e-18 -0.004349488522)
(-0.002079802289 -3.073125112e-18 -0.004244065896)
(-0.002061275624 -2.89238971e-18 -0.004135175782)
(-0.002037265318 -2.787604845e-18 -0.00402220171)
(-0.002007378113 -2.743540775e-18 -0.003904323769)
(-0.001971060496 -2.6700478e-18 -0.003780449724)
(-0.001927548415 -2.415113382e-18 -0.003649129962)
(-0.001875811636 -2.177254482e-18 -0.003508463825)
(-0.001814502368 -1.824203883e-18 -0.003356014923)
(-0.001741922513 -1.762687519e-18 -0.003188759358)
(-0.001656022643 -1.633227854e-18 -0.003003087208)
(-0.001554435517 -1.740553635e-18 -0.002794858417)
(-0.00143453399 -1.451391989e-18 -0.00255949472)
(-0.00129349885 -1.233380194e-18 -0.002292081896)
(-0.001128391956 -1.202542051e-18 -0.001987457213)
(-0.0009362324245 -7.431824063e-19 -0.001640271821)
(-0.0007139760496 -1.661278825e-19 -0.001245080147)
(-0.00045819707 -1.576388063e-19 -0.0007965711459)
(-0.0001647054298 1.583788166e-20 -0.0002897795891)
(-8.539966048e-05 1.226011294e-19 -0.006668199417)
(-0.000221273736 1.868661349e-19 -0.006661320316)
(-0.0003483108294 3.63521861e-18 -0.006646325538)
(-0.0004788262989 3.778966435e-18 -0.006624037949)
(-0.0006060083246 1.493990986e-18 -0.006595124904)
(-0.000728889769 9.358883008e-19 -0.006560122657)
(-0.0008473669601 -5.055831569e-19 -0.006519483024)
(-0.0009611971888 -2.495929201e-18 -0.006473648225)
(-0.001070177505 -3.136009104e-18 -0.006423040969)
(-0.00117416299 -2.025219991e-18 -0.006368057932)
(-0.001273045533 -3.694149523e-18 -0.006309067439)
(-0.001366745215 -3.722396963e-18 -0.006246407986)
(-0.001455205708 -3.776021081e-18 -0.006180387082)
(-0.001538390359 -3.630759137e-18 -0.006111280773)
(-0.001616278594 -3.256476882e-18 -0.006039333678)
(-0.001688863492 -3.01292434e-18 -0.005964759692)
(-0.001756149468 -3.446149391e-18 -0.005887743186)
(-0.001818149907 -3.556153371e-18 -0.005808440298)
(-0.001874885748 -3.654863072e-18 -0.005726980698)
(-0.001926384187 -3.625815464e-18 -0.005643469637)
(-0.001972677093 -3.670310708e-18 -0.005557989231)
(-0.002013800159 -3.593917355e-18 -0.005470600072)
(-0.002049791291 -3.54998866e-18 -0.005381341756)
(-0.002080688968 -3.478177702e-18 -0.005290233596)
(-0.002106530981 -3.62980408e-18 -0.005197274156)
(-0.002127351948 -3.968466736e-18 -0.005102439472)
(-0.002143180515 -4.247681297e-18 -0.005005681119)
(-0.002154036308 -4.396878286e-18 -0.004906922232)
(-0.002159925336 -4.133798728e-18 -0.004806051663)
(-0.002160834343 -3.837329989e-18 -0.004702916126)
(-0.002156723448 -3.781627917e-18 -0.004597309176)
(-0.002147516308 -3.686115075e-18 -0.004488956005)
(-0.002133087073 -3.638088152e-18 -0.004377492287)
(-0.002113242549 -3.598553242e-18 -0.004262435173)
(-0.002087698257 -3.53272736e-18 -0.004143143548)
(-0.002056046577 -3.413011216e-18 -0.004018764409)
(-0.002017715612 -3.088034559e-18 -0.003888163487)
(-0.00197191974 -2.8040996e-18 -0.003749841446)
(-0.001917606362 -2.576314383e-18 -0.003601844601)
(-0.00185340902 -2.551235179e-18 -0.003441688571)