/*--------------------------------*- C++ -*----------------------------------*\
  =========                 |
  \\      /  F ield         | OpenFOAM: The Open Source CFD Toolbox
   \\    /   O peration     | Website:  https://openfoam.org
    \\  /    A nd           | Version:  7
     \\/     M anipulation  |
\*---------------------------------------------------------------------------*/
FoamFile
{
    version     2.0;
    format      ascii;
    class       volVectorField;
    location    "0.0015";
    object      grad(generalizedNewtonian:nu);
}
// * * * * * * * * * * * * * * * * * * * * * * * * * * * * * * * * * * * * * //

dimensions      [0 1 -1 0 0 0 0];

internalField   nonuniform List<vector> 
1166
(
(-575642.5973 0 3167229.321)
(-1232373.044 0 3152395.689)
(-1982077.335 0 3119111.575)
(-2727492.934 0 3072047.622)
(-3394962.623 -1.056039137e-07 3012072.407)
(-4013366.572 0 2941450.529)
(-4577286.301 0 2862072.028)
(-5085842.79 0 2776417.017)
(-5534417.505 0 2685725.75)
(-5927575.28 0 2592340.596)
(-6265966.245 0 2497045.942)
(-6552773.088 0 2401636.857)
(-6792628.183 0 2306557.866)
(-6986926.441 0 2213117.706)
(-7143251.913 0 2121804.154)
(-7263253.272 0 2033421.368)
(-7351676.274 0 1948525.736)
(-7414977.056 0 1867199.495)
(-538195.5151 0 2939528.435)
(-1142029.169 0 2926367.499)
(-1838805.64 1.826288479e-07 2896869.438)
(-2536091.693 0 2855224.266)
(-3159029.37 -1.072485491e-07 2802322.783)
(-3738639.679 0 2740024.767)
(-4270157.498 0 2670224.918)
(-4751633.186 0 2594582.953)
(-5178574.762 0 2514356.987)
(-5555090.274 0 2431257.86)
(-5881542.969 0 2346184.143)
(-6160599.131 0 2260570.808)
(-6396662.947 0 2175180.241)
(-6591439.546 0 2091064.196)
(-6751298.852 0 2008916.766)
(-6877745.754 0 1929211.727)
(-6974214.924 0 1852274.601)
(-7046663.633 0 1778417.587)
(-7095487.523 1.921950497e-08 1707780.632)
(-7123390.673 0 1640332.289)
(-7135174.647 0 1576241.036)
(-7132343.883 0 1515280.924)
(-7113794.271 0 1457217.327)
(-7082045.616 0 1401707.759)
(-7040529.536 0 1348943.343)
(-6989350.702 0 1298581.028)
(-6927706.546 0 1250341.499)
(-6855890.382 0 1203762.427)
(-6776094.349 0 1159143.043)
(-6688783.446 0 1116015.565)
(-6593178.672 0 1074189.106)
(-6488315.682 0 1033395.619)
(-6375381.692 0 993529.5828)
(-6256334.039 0 954778.7415)
(-6130999.071 0 916916.5668)
(-5998515.609 0 879787.6474)
(-5858467.561 0 843119.8763)
(-5713184.819 0 807270.525)
(-5564077.166 0 772222.3086)
(-5410458.883 0 737884.6428)
(-5252474.25 0 704127.7298)
(-5092291.261 0 671255.18)
(-4931625.659 0 639339.5227)
(-4770022.333 0 608299.626)
(-4607977.682 0 578071.3263)
(-4447662.732 0 548925.1131)
(-4289027.899 0 520886.0565)
(-4127353.817 0 493746.6851)
(-3986271.621 0 467733.6805)
(-3894548.582 2.077736371e-09 442596.279)
(-505251.1584 0 2743769.153)
(-1063655.657 0 2732022.951)
(-1714859.634 0 2706112.395)
(-2370342.531 0 2669306.039)
(-2954246.245 0 2622493.161)
(-3500026.93 0 2567189.741)
(-4002394.911 0 2505084.553)
(-4458722.901 -7.103651739e-08 2437382.024)
(-4865431.953 0 2365442.078)
(-5226018.214 0 2290642.017)
(-5540801.284 -2.757331715e-08 2214052.288)
(-5812712.963 0 2136773.024)
(-6045385.299 0 2059772.977)
(-6240265.212 0 1983743.417)
(-6402763.585 0 1909336.702)
(-6533146.568 0 1836916.645)
(-6635623.617 0 1766739.133)
(-6715924.438 0 1699271.771)
(-6772638.958 0 1634527.23)
(-6809403.384 0 1572386.771)
(-6830404.183 0 1513110.59)
(-6835620.23 0 1456358.239)
(-6824373.77 0 1401850.708)
(-6800526.879 0 1349787.258)
(-6766835.592 -8.687182058e-09 1300013.874)
(-6721728.847 0 1252195.438)
(-6664620.668 0 1206007.834)
(-6597474.448 0 1161375.634)
(-6522098.495 8.328864704e-09 1118322.727)
(-6437565.261 0 1076500.451)
(-6343341.165 0 1035722.349)
(-6239598.972 0 995696.1006)
(-6128458.271 0 956779.3566)
(-6010751.746 0 918765.9796)
(-5885507.1 0 881495.3503)
(-5751802.321 0 844657.0902)
(-5611962.581 0 808568.1136)
(-5468011.74 0 773333.0899)
(-5319319.42 0 738835.0611)
(-5165665.131 0 704928.6409)
(-5009084.005 0 671859.5409)
(-4851783.662 0 639794.8059)
(-4693395.018 0 608648.2998)
(-4533952.808 0 578316.7759)
(-4375692.959 0 549049.5031)
(-4220245.92 0 520934.8011)
(-4064784.42 0 493735.4462)
(-3908124.469 0 467585.188)
(-3772422.883 0 442770.4761)
(-3681135.754 0 418635.436)
(-476333.6664 0 2575203.713)
(-995557.8236 0 2564615.85)
(-1606765.932 0 2541601.683)
(-2225059.197 0 2508597.572)
(-2774325.866 0 2466557.912)
(-3289374.105 0 2416846.402)
(-3764879.913 0 2360747.208)
(-4198414.046 0 2299538.793)
(-4586714.25 0 2234579.641)
(-4933245.518 0 2166897.547)
(-5237829.672 -2.800273372e-08 2097694.686)
(-5503176.834 0 2027742.359)
(-5732386.657 -2.486206095e-08 1957957.878)
(-5926212.042 0 1888738.82)
(-6089849.553 0 1820871.713)
(-6223272.461 0 1754577.117)
(-6330622.96 0 1690331.67)
(-6416829.483 0 1628343.202)
(-6479626.599 1.982280076e-08 1568482.145)
(-6523001.647 0 1510882.64)
(-6550587.264 0 1455566.154)
(-6561196.476 0 1402348.44)
(-6556425.036 -9.09508478e-09 1350957.005)
(-6539380.425 0 1301859.971)
(-6510659.925 -8.822472996e-09 1254538.46)
(-6469303.497 0 1208810.649)
(-6415805.725 -1.722892412e-08 1164272.632)
(-6352343.585 0 1121318.891)
(-6279465.636 0 1079550.392)
(-6196336.655 0 1038800.576)
(-6102327.494 8.345660861e-09 998726.4968)
(-5999760.228 0 959629.9039)
(-5890279.032 0 921493.0918)
(-5772646.249 0 884066.909)
(-5645856.038 0 847091.7255)
(-5512123.685 0 810776.1917)
(-5373793.039 0 775358.9404)
(-5230373.092 0 740677.0099)
(-5081515.698 0 706610.8344)
(-4929078.53 0 673333.4856)
(-4775502.59 0 641099.0237)
(-4620657.778 0 609807.9077)
(-4464259.039 2.070071025e-09 579333.5321)
(-4308408.648 0 549909.4737)
(-4155148.274 0 521677.2353)
(-4002901.969 0 494388.5478)
(-3851972.645 0 468134.1196)
(-3701976.221 0 443161.4264)
(-3569943.196 0 419272.3813)
(-3481213.145 0 396124.8381)
(-450349.7833 0 2427491.194)
(-935115.1327 0 2417765.835)
(-1510673.117 0 2396994.633)
(-2095486.441 0 2366998.157)
(-2613898.615 0 2328821.402)
(-3101302.664 0 2283764.342)
(-3552776.758 0 2233012.43)
(-3966571.422 0 2177604.073)
(-4338616.726 0 2118869.913)
(-4672394.691 0 2057501.221)
(-4967558.209 0 1994711.268)
(-5226389.669 0 1931024.255)
(-5451220.775 2.524925314e-08 1867422.744)
(-5643366.692 0 1804084.086)
(-5807617.198 0 1741956.114)
(-5943211.741 0 1680957.714)
(-6054421.418 0 1621848.004)
(-6144327.046 0 1564484.411)
(-6211266.27 0 1508600.276)
(-6259585.185 0 1454776.469)
(-6291945.534 0 1402826.56)
(-6306822.008 0 1352595.649)
(-6306886.239 0 1304024.674)
(-6294591.243 0 1257288.453)
(-6269359.612 -1.79197416e-08 1211996.362)
(-6229999.83 0 1167840.988)
(-6179060.862 0 1124932.08)
(-6118378.817 0 1083278.179)
(-6046654.23 0 1042563.206)
(-5963075.285 0 1002517.467)
(-5869814.032 0 963277.7114)
(-5768936.634 0 925046.4376)
(-5659274.607 0 887475.0927)
(-5540049.176 -4.185352847e-09 850361.1531)
(-5413092.548 0 813841.9168)
(-5280719.033 8.338219619e-09 778232.9455)
(-5142911.022 0 743356.9043)
(-4999312.735 -4.165679738e-09 709105.3285)
(-4851540.967 0 675617.003)
(-4702036.772 0 643184.3332)
(-4551021.78 0 611713.6545)
(-4397999.878 0 581062.342)
(-4245038.177 0 551453.0988)
(-4094239.794 4.219580043e-09 523065.4249)
(-3944261.763 0 495639.4625)
(-3796333.969 0 469262.9428)
(-3651571.008 0 444148.0377)
(-3506545.756 2.150227726e-09 420095.7474)
(-3378508.943 0 397148.4619)
(-3292226.666 0 375114.4604)
(-426680.5754 0 2296232.202)
(-880846.1075 3.150491048e-07 2287337.561)
(-1424480.736 1.94274149e-07 2268609.067)
(-1979212.001 0 2241316.892)
(-2470334.87 0 2206634.331)
(-2933893.339 0 2165717.249)
(-3364213.069 0 2119863.299)
(-3760010.999 0 2069523.984)
(-4116989.53 3.375149118e-08 2016111.923)
(-4438796.085 0 1960114.71)
(-4724783.988 0 1902677.883)
(-4977278.919 0 1844508.37)
(-5198076.619 0 1786244.463)
(-5388283.854 0 1728161.804)
(-5552000.474 0 1671085.516)
(-5688815.885 0 1614678.528)
(-5802557.341 0 1559816.253)
(-5893690.373 0 1506247.884)
(-5963357.118 0 1453769.175)
(-6015841.119 0 1403227.455)
(-6051406.063 0 1354229.915)
(-6069418.61 0 1306421.927)
(-6073120.188 0 1260306.528)
(-6063870.116 0 1215554.716)
(-6039750.885 -9.099408352e-09 1171869.883)
(-6002305.19 0 1129070.679)
(-5953669.876 0 1087590.582)
(-5893687.577 -8.798413689e-09 1046955.056)
(-5821265.611 0 1006966.828)
(-5738026.569 0 967641.1948)
(-5646072.482 0 929308.1378)
(-5544886.949 0 891608.6596)
(-5433643.76 0 854355.9791)
(-5313953.757 0 817661.6983)
(-5188082.769 0 781834.8424)
(-5056325.301 0 746759.6161)
(-4918331.146 0 712304.4044)
(-4775638.168 0 678606.7649)
(-4630657.761 0 645950.9631)
(-4483765.648 4.238651117e-09 614271.7866)
(-4334426.17 -4.246678804e-09 583416.2171)
(-4184735.998 -4.257196927e-09 553601.0246)
(-4036802.792 0 525028.7081)
(-3889268.085 -4.285294145e-09 497422.8638)
(-3743489.252 0 470886.4967)
(-3601502.481 0 445617.4458)
(-3461449.717 0 421407.0583)
(-3321629.598 0 398272.0667)
(-3199029.125 0 376414.5906)
(-3114363.446 0 355346.5304)
(-405630.2011 0 2179519.361)
(-832911.3391 0 2171545.397)
(-1347867.203 0 2154849.843)
(-1875431.174 0 2130092.984)
(-2342026.47 -1.158639874e-07 2098580.899)
(-2784350.143 0 2061324.854)
(-3195248.69 0 2019566.203)
(-3574194.937 0 1973422.719)
(-3917258.533 -3.427712388e-08 1924354.8)
(-4227575.937 0 1873233.34)
(-4505820.257 0 1820435.806)
(-4752695.209 0 1767105.99)
(-4969011.738 0 1713252.37)
(-5157197.921 0 1659772.52)
(-5319455.072 0 1606878.435)
(-5455670.544 0 1554297.457)
(-5570339.374 0 1502934.146)
(-5661938.583 0 1452433.768)
(-5733905.295 -2.076343689e-08 1403234.316)
(-5789617.38 0 1355547.12)
(-5826240.048 0 1308896.364)
(-5846518.402 0 1263336.353)
(-5853129.793 0 1219238.352)
(-5844626.832 0 1176108.341)
(-5821013.811 0 1133621.944)
(-5784889.641 0 1092258.207)
(-5737157.461 0 1051775.706)
(-5676309.388 0 1011895.092)
(-5603560.148 0 972559.1817)
(-5521072.091 0 934120.1318)
(-5428876.374 0 896324.7491)
(-5326053.737 0 858949.9896)
(-5214090.909 0 822099.6542)
(-5095232.038 0 786077.1174)
(-4969991.621 0 750811.5558)
(-4837983.802 0 716147.7105)
(-4700765.055 0 682241.2379)
(-4560732.988 0 649366.1573)
(-4418274.177 0 617462.0653)
(-4272939.193 0 586386.7542)
(-4126868.826 0 556355.8899)
(-3982115.98 0 527580.9601)
(-3837326.643 -2.168300515e-09 499764.9099)
(-3693894.166 0 473038.9114)
(-3553975.75 0 447594.7415)
(-3416526.853 0 423212.7477)
(-3281289.013 0 399909.834)
(-3148038.294 0 377848.3986)
(-3029971.676 0 356901.2252)
(-2948150.246 0 336720.9446)
(-387202.2637 0 2075623.715)
(-791006.0317 3.249384243e-07 2068302.04)
(-1279924.116 0 2053469.613)
(-1782467.374 0 2030986.064)
(-2226806.706 -1.176684091e-07 2002195.601)
(-2649705.662 0 1968038.287)
(-3042462.695 0 1929783.992)
(-3405446.803 0 1887525.052)
(-3737111.222 3.481094279e-08 1842418.789)
(-4037474.391 -3.202333469e-08 1795674.641)
(-4307433.998 0 1747017.948)
(-4547861.222 0 1697836.798)
(-4760086.114 0 1647747.883)
(-4946059.684 0 1598012.908)
(-5105227.486 0 1548207.844)
(-5240340.496 0 1499003.129)
(-5354737.625 0 1450729.437)
(-5447164.34 -2.168667513e-08 1402952.713)
(-5521270.003 0 1356617.503)
(-5577233.933 0 1311222.089)
(-5614609.56 0 1266425.717)
(-5636744.67 0 1222966.143)
(-5644195.648 9.675031539e-09 1180400.603)
(-5634905.806 0 1138385.014)
(-5611759.494 0 1097188.203)
(-5576638.027 0 1056926.467)
(-5527817.43 0 1017201.339)
(-5465985.859 0 977896.4254)
(-5393454.995 0 939395.1678)
(-5310759.534 0 901542.6777)
(-5216810.208 0 864070.2958)
(-5113028.41 0 827086.4025)
(-5001672.138 0 790893.3637)
(-4883397.205 0 755452.8811)
(-4757754.943 0 720582.5019)
(-4626406.89 0 686470.082)
(-4491740.666 0 653381.4813)
(-4354027.045 0 621240.9746)
(-4213019.558 0 589936.4213)
(-4070912.091 0 559684.0428)
(-3929627.93 0 530691.5255)
(-3787818.63 0 502638.7869)
(-3647044.751 0 475699.495)
(-3509432.25 0 450060.9955)
(-3373863.919 0 425475.537)
(-3241088.118 0 401993.4113)
(-3112111.962 2.240088762e-09 379755.9428)
(-2984180.738 0 358586.1127)
(-2870217.627 1.1327199e-09 338500.1689)
(-2791144.31 1.139800656e-09 319324.5417)
(-369946.4376 0 1982777.011)
(-753679.9542 3.299988895e-07 1975738.49)
(-1219554.316 0 1962208.104)
(-1698851.928 0 1941840.721)
(-2122505.008 0 1915521.369)
(-2527916.621 0 1884053.563)
(-2905059.6 0 1848745.766)
(-3253795.555 0 1810217.811)
(-3574382.226 3.535307492e-08 1768730.375)
(-3864754.492 0 1725581.614)
(-4126970.044 0 1680456.016)
(-4361021.691 0 1634788.68)
(-4567925.593 0 1588007.976)
(-4749679.283 0 1541384.488)
(-4906547.23 0 1494322.546)
(-5041516.768 0 1448207.71)
(-5154515.605 0 1402509.925)
(-5246936.177 0 1357354.846)
(-5321729.286 0 1313229.707)
(-5376684.457 0 1269558.353)
(-5414627.722 0 1226684.406)
(-5437702.189 0 1184795.288)
(-5443575.92 0 1143336.434)
(-5434121.748 0 1102366.747)
(-5411589.829 0 1062360.101)
(-5375254.544 0 1022844.261)
(-5324779.038 0 983606.2705)
(-5262689.332 0 945081.6504)
(-5189990.213 -4.569032762e-09 907209.9209)
(-5105363.489 0 869665.2444)
(-5010214.249 0 832567.2497)
(-4906840.18 8.970109295e-09 796225.2671)
(-4795972.817 0 760622.8398)
(-4677081.374 4.452231249e-09 725547.5205)
(-4552008.594 0 691232.5623)
(-4423125.685 0 657936.2817)
(-4290478.606 0 625548.5518)
(-4154134.062 0 594008.5465)
(-4016339.506 0 563531.9311)
(-3878812.201 0 534302.0822)
(-3740198.901 0 505993.5369)
(-3602339.775 0 478820.7876)
(-3467377.711 0 452973.5936)
(-3333828.446 0 428153.9141)
(-3202870.838 0 404466.5495)
(-3076275.254 2.263663632e-09 382049.7219)
(-2952144.032 0 360670.5716)
(-2829309.322 -1.143668338e-09 340360.5704)
(-2720897.289 0 321271.6977)
(-2643889.528 1.15755147e-09 302929.0179)
(-353427.4387 0 1899700.502)
(-718887.239 3.35138164e-07 1893020.519)
(-1165208.37 0 1880311.987)
(-1624077.942 0 1861597.868)
(-2028310.53 0 1837614.416)
(-2416850.449 -5.10481597e-08 1808690.831)
(-2780521.443 0 1775861.929)
(-3116446.243 -3.957596692e-08 1740436.761)
(-3425996.372 3.590364998e-08 1701863.705)
(-3706879.675 3.302853953e-08 1661549.113)
(-3961259.099 0 1619475.788)
(-4188676.514 0 1576421.315)
(-4390531.505 0 1532631.204)
(-4568334.505 0 1488747.022)
(-4722647.413 0 1444590.872)
(-4856200.922 2.38991723e-08 1401060.138)
(-4967463.88 0 1357397.535)
(-5059474.506 0 1314595.045)
(-5132786.223 2.174870835e-08 1272279.695)
(-5187097.531 1.060424357e-08 1230119.506)
(-5225321.165 1.036781534e-08 1188971.975)
(-5246697.277 1.016054802e-08 1148199.444)
(-5251178.872 0 1107620.887)
(-5241576.763 0 1067858.162)
(-5218169.087 0 1028607.543)
(-5179485.851 0 989542.6658)
(-5128300.642 0 951051.7173)
(-5066075.894 0 913212.6442)
(-4991209.576 -9.280378209e-09 875634.0446)
(-4905136.886 0 838454.5237)
(-4810211.719 4.578246694e-09 801995.9111)
(-4707192.897 0 766253.8788)
(-4595448.674 0 730984.5404)
(-4477061.613 0 696480.7253)
(-4354377.16 0 662991.4732)
(-4227128.487 0 630353.7958)
(-4095804.936 0 598578.1934)
(-3962686.726 0 567879.8975)
(-3829157.859 0 538383.3809)
(-3693994.66 0 509828.0873)
(-3559339.521 0 482410.4507)
(-3427285.914 0 456345.3735)
(-3295999.463 0 431266.971)
(-3167017.015 0 407353.5743)
(-3042272.441 0 384742.7239)
(-2920144.996 2.29891705e-09 363145.3568)
(-2800847.594 0 342634.4594)
(-2684472.393 0 323321.9405)
(-2580065.455 0 305007.5956)
(-2506507.032 0 287501.1102)
(-338377.5969 9.95967319e-07 1825185.768)
(-686795.7712 0 1818975.16)
(-1115001.108 0 1807150.202)
(-1556282.395 7.706227421e-08 1789356.24)
(-1943496.067 0 1767397.58)
(-2315797.409 0 1740863.988)
(-2666716.714 0 1710339.1)
(-2990564.629 -4.019230766e-08 1677122.8)
(-3288828.692 0 1641124.797)
(-3560962.675 0 1603002.103)
(-3807319.229 0 1563705.633)
(-4028830.894 0 1522858.076)
(-4226333.239 0 1481850.09)
(-4400180.405 0 1440097.449)
(-4552001.441 -2.52388868e-08 1398547.032)
(-4682247.587 0 1356927.133)
(-4791644.235 0 1315295.204)
(-4882943.335 -2.271575612e-08 1274335.457)
(-4953644.027 0 1233268.745)
(-5006934.596 0 1192795.794)
(-5044122.404 0 1152799.21)
(-5062819.479 0 1112759.798)
(-5066421.136 0 1073321.281)
(-5056176.749 0 1034429.802)
(-5029899.006 0 995624.9799)
(-4990162.865 0 957227.5127)
(-4938627.769 0 919478.3395)
(-4873935.182 0 881908.7166)
(-4797374.644 0 844684.67)
(-4711351.862 0 808145.9868)
(-4616604.539 0 772276.2267)
(-4512397.766 -4.625839439e-09 736849.3463)
(-4401112.533 0 702174.7982)
(-4285043.928 4.591985723e-09 668510.6264)
(-4163530.482 0 635624.4821)
(-4037577.943 -4.574164573e-09 603618.0422)
(-3909488.972 0 572704.7229)
(-3780124.673 -4.57040125e-09 542928.3244)
(-3648830.253 0 514117.8697)
(-3517783.207 0 486453.5959)
(-3388731.786 0 460136.9707)
(-3259888.615 0 434807.8211)
(-3133155.386 -2.306561868e-09 410650.8823)
(-3010452.695 0 387816.2914)
(-2889784.048 -2.324168553e-09 365991.0022)
(-2772439.259 0 345272.1644)
(-2659374.538 0 325746.9279)
(-2547465.125 -1.179567814e-09 307202.8113)
(-2447496.327 1.18646998e-09 289717.4297)
(-2376580.138 0 273102.5951)
(-324528.018 0 1758389.02)
(-657617.0458 0 1752550.921)
(-1068040.063 0 1741660.473)
(-1493627.31 -7.826241372e-08 1724623.914)
(-1866745.579 0 1703594.361)
(-2223775.575 0 1679033.482)
(-2561309.716 0 1650452.601)
(-2874046.607 0 1618787.514)
(-3161735.711 0 1585182.509)
(-3425860.642 0 1549115.145)
(-3664844.521 0 1512195.674)
(-3880442.706 0 1473644.309)
(-4072956.416 0 1434933.71)
(-4242780.143 0 1395129.02)
(-4391460.557 0 1355652.554)
(-4518449.455 0 1315529.786)
(-4626148.954 0 1275898.684)
(-4714039.973 0 1236136.687)
(-4782994.657 0 1196355.788)
(-4835372.686 0 1157197.61)
(-4868861.052 0 1117855.487)
(-4886101.45 0 1078791.535)
(-4889079.647 0 1040332.056)
(-4875606.301 0 1001850.301)
(-4847687.137 0 963621.2308)
(-4807196.41 0 925964.6383)
(-4753083.396 0 888445.8344)
(-4686456.395 0 851215.6635)
(-4609778.493 4.785843626e-09 814634.9651)
(-4523643.576 0 778659.2284)
(-4427479.255 0 743104.1246)
(-4323791.439 0 708280.6549)
(-4214646.455 0 674464.5352)
(-4099218.691 0 641333.9104)
(-3979002.498 0 609104.2045)
(-3856303.056 0 577985.857)
(-3731378.362 0 547923.1932)
(-3604245.112 0 518855.5026)
(-3477121.299 0 490960.8814)
(-3351166.625 0 464350.7129)
(-3225139.091 0 438763.4204)
(-3101025.16 0 414351.9278)
(-2980343.664 0 391269.1436)
(-2861353.632 0 369207.4275)
(-2745599.455 0 348262.9298)
(-2634216.647 1.185539777e-09 328518.5914)
(-2525263.323 0 309758.2187)
(-2418735.303 1.197937969e-09 292047.7246)
(-2323789.888 0 275425.9494)
(-2255548.073 1.212479886e-09 259546.2297)
(-311629.3691 0 1696940.043)
(-630931.5887 1.755206089e-07 1691553.031)
(-1024565.169 0 1681670.179)
(-1433299.586 0 1665692.222)
(-1794153.63 0 1645214.964)
(-2138677.276 0 1621690.22)
(-2462606.58 -4.652015921e-08 1594939.244)
(-2765607.246 4.145393486e-08 1564924.914)
(-3044161.183 0 1533135.172)
(-3300137.587 0 1499276.446)
(-3532449.55 0 1464023.444)
(-3742357.685 0 1427873.025)
(-3929621.05 -1.428597254e-08 1390667.226)
(-4095114.065 1.359870483e-08 1353068.075)
(-4239833.408 -1.30155648e-08 1314998.048)
(-4363709.049 -1.251662068e-08 1276586.604)
(-4468509.687 0 1238378.512)
(-4553108.135 0 1199563.874)
(-4620208.189 0 1161218.857)
(-4669036.576 0 1122712.258)
(-4700300.787 0 1084132.945)
(-4716485.062 -1.064268869e-08 1046126.165)
(-4716163.153 0 1008043.72)
(-4700399.872 0 970042.6188)
(-4671336.061 0 932524.9997)
(-4628227.708 0 895113.7622)
(-4571966.85 0 857927.0311)
(-4505065.493 0 821351.4849)
(-4427930.752 -9.720752863e-09 785306.4015)
(-4340251.661 0 749659.9111)
(-4244606.478 0 714735.1646)
(-4142760.758 0 680776.4433)
(-4033774.748 0 647412.4466)
(-3919658.237 0 614976.4373)
(-3802716.123 0 583671.7903)
(-3682532.002 0 553322.7028)
(-3559870.139 2.357051039e-09 524001.5337)
(-3436971.176 0 495884.0367)
(-3314294.808 2.358424326e-09 468969.4648)
(-3191356.758 2.361443386e-09 443115.9309)
(-3070156.455 2.365915783e-09 418464.3488)
(-2951570.604 0 395091.6906)
(-2834552.08 0 372778.2116)
(-2720625.176 0 351607.7605)
(-2610404.347 0 331612.7864)
(-2503062.92 1.204002897e-09 312630.6747)
(-2399411.001 0 294724.7501)
(-2298134.234 1.216594173e-09 277842.9835)
(-2206983.569 0 261944.5634)
(-2141636.811 0 246861.9235)
(-300220.1726 0 1638078.422)
(-607466.9471 0 1633116.783)
(-985402.1629 0 1624409.511)
(-1377425.275 0 1609909.266)
(-1724913.462 0 1590970.989)
(-2058911.339 0 1568267.306)
(-2371859.499 0 1543225.568)
(-2664315.074 0 1515237.612)
(-2934778.422 0 1484850.565)
(-3182589.99 3.513459959e-08 1453151.823)
(-3408869.028 0 1419368.055)
(-3612516.526 0 1385140.202)
(-3794688.193 -1.450845687e-08 1349240.262)
(-3955989.881 0 1313437.248)
(-4096154.535 0 1276421.352)
(-4217096.185 0 1239593.105)
(-4317425.481 0 1202086.748)
(-4399049.995 0 1164574.376)
(-4463289.069 0 1127063.245)
(-4508654.803 -1.128042164e-08 1089118.47)
(-4538199.707 0 1051596.575)
(-4551340.958 0 1014023.45)
(-4548043.437 0 976332.9371)
(-4530748.641 0 939029.6527)
(-4499044.12 0 901801.4754)
(-4453554.002 0 864720.8801)
(-4396828.008 -5.027039051e-09 828204.271)
(-4329094.008 0 792132.958)
(-4250328.368 0 756434.2608)
(-4163147.904 0 721448.6545)
(-4068980.431 0 687331.511)
(-3966787.346 -4.845345889e-09 653798.7866)
(-3859154.013 0 621176.9262)
(-3748357.405 0 589705.6763)
(-3633220.658 0 559071.165)
(-3515339.147 0 529503.6898)
(-3396973.842 2.393758859e-09 501172.4899)
(-3277810.652 0 473944.0064)
(-3158208.234 0 447819.9983)
(-3040170.106 2.398219611e-09 422934.4319)
(-2923847.09 2.402761659e-09 399250.7268)
(-2808988.259 0 376672.4044)
(-2697136.382 0 355278.1395)
(-2588192.702 0 335002.6634)
(-2482076.419 1.21722778e-09 315785.2624)
(-2380108.888 0 297683.282)
(-2281103.777 1.228863616e-09 280551.2486)
(-2184327.721 0 264413.6313)
(-2098044.084 0 249298.387)
(-2034877.772 -1.250539335e-09 234885.8759)
(-289588.6884 0 1583924.671)
(-586889.6368 0 1578858.378)
(-951399.8759 1.116317434e-07 1570491.849)
(-1328230.989 0 1557309.72)
(-1661742.797 0 1540218.46)
(-1984662.32 0 1519084.109)
(-2288357.489 0 1495008.136)
(-2570422.311 0 1468923.726)
(-2832912.518 0 1440052.405)
(-3073063.9 -3.568177265e-08 1409732.882)
(-3292435.979 0 1377782.427)
(-3490069.527 0 1344521.515)
(-3667044.423 0 1310473.716)
(-3823283.716 0 1275490.079)
(-3959147.3 0 1239955.99)
(-4075750.887 0 1203966.256)
(-4172492.069 0 1167274.146)
(-4251489.273 0 1130845.308)
(-4311102.157 0 1093660.086)
(-4354134.055 1.145609869e-08 1056705.351)
(-4381000.315 1.120067781e-08 1019753.814)
(-4390431.484 0 982457.3801)
(-4385190.521 5.3901675e-09 945443.034)
(-4365242.112 0 908475.8334)
(-4330882.991 0 871565.7768)
(-4284698.38 0 835162.8945)
(-4226750.952 0 799112.9958)
(-4157299.648 0 763406.1689)
(-4078977.869 0 728399.2159)
(-3992680.548 0 694140.5439)
(-3897913.224 0 660468.0544)
(-3797347.232 0 627680.7185)
(-3692818.365 0 596027.86)
(-3583029.952 0 565157.1565)
(-3470265.893 0 535349.8976)
(-3356767.928 0 506803.7051)
(-3241366.726 0 479263.2179)
(-3125354.972 0 452869.8213)
(-3010739.522 0 427750.5936)
(-2896873.233 0 403743.0423)
(-2784370.007 0 380895.2694)
(-2674798.162 0 359265.5646)
(-2567326.674 1.226819742e-09 338699.8451)
(-2462582.753 0 319234.0227)
(-2361958.522 0 300895.6471)
(-2264071.703 0 283541.1773)
(-2169491.271 0 267180.7547)
(-2078074.611 0 251826.376)
(-1995129.962 0 237367.2566)
(-1934941.69 0 223645.4274)
(-278072.59 0 1536439.676)
(-565098.3787 0 1531305.389)
(-918762.1554 0 1522736.075)
(-1283803.03 0 1509423.485)
(-1605076.688 0 1493168.519)
(-1915160.314 0 1473627.58)
(-2209724.485 0 1450524.169)
(-2483293.709 0 1425296.166)
(-2736451.024 0 1398111.873)
(-2970025.171 0 1368685.846)
(-3182154.399 0 1338340.49)
(-3374188.795 0 1306003.789)
(-3545653.926 0 1273329.363)
(-3696856.39 0 1239116.134)
(-3828388.037 -1.363318257e-08 1204833.213)
(-3939851.034 0 1169313.816)
(-4033349.54 0 1133833.102)
(-4107579.947 0 1097677.178)
(-4164289.744 0 1061379.812)
(-4204955.244 0 1025161.839)
(-4227323.742 0 988342.9847)
(-4234383.454 0 951691.3417)
(-4226521.369 1.094822373e-08 915067.6894)
(-4203626.823 0 878397.0611)
(-4168324.825 0 842169.1511)
(-4120541.635 0 806198.6047)
(-4060795.89 -5.184836657e-09 770537.822)
(-3991713.522 0 735558.7338)
(-3913627.542 0 701194.6144)
(-3826700.538 0 667419.5222)
(-3733618.019 0 634534.481)
(-3635496.296 0 602658.036)
(-3531639.322 0 571581.264)
(-3424524.939 0 541548.5584)
(-3315921.729 0 512755.822)
(-3204606.409 0 484951.8647)
(-3092540.054 0 458288.8935)
(-2981555.228 2.468774282e-09 432890.9497)
(-2870341.772 0 408599.7062)
(-2760439.92 0 385475.1407)
(-2653297.302 0 363566.6265)
(-2547476.001 0 342733.4323)
(-2444358.416 0 323006.9677)
(-2344970.215 0 304411.1203)
(-2248106.365 0 286816.7287)
(-2154931.919 0 270230.8139)
(-2065287.076 0 254654.5369)
(-1977624.565 0 239963.8987)
(-1898952.092 0 226186.9424)
(-1840963.747 0 213111.0014)
(-267474.1371 0 1491555.259)
(-544274.4208 0 1486977.617)
(-884845.8801 0 1479203.221)
(-1238498.8 0 1465928.942)
(-1551389.128 0 1449535.116)
(-1850979.094 0 1430707.105)
(-2134504.815 0 1409094.538)
(-2400556.275 2.204861947e-08 1384519.458)
(-2646004.918 0 1358430.051)
(-2872253.448 0 1330222.923)
(-3077760.917 1.711664928e-08 1300463.735)
(-3263467.366 0 1269616.527)
(-3429376.838 0 1237358.607)
(-3575498.214 0 1204414.981)
(-3701761.847 0 1170429.01)
(-3809149.968 0 1135988.723)
(-3898366.673 0 1101073.48)
(-3969059.851 0 1065530.781)
(-4023121.606 0 1030122.282)
(-4058570.781 0 993869.8235)
(-4078136.302 0 957662.4264)
(-4082663.363 0 921476.9859)
(-4071534.53 0 885124.0537)
(-4047425.999 0 849140.5962)
(-4010171.974 0 813315.2015)
(-3960510.402 0 777761.4233)
(-3901035.018 0 742864.9189)
(-3831529.98 0 708436.8645)
(-3752828.748 0 674601.9269)
(-3667598.815 0 641666.6871)
(-3576142.265 0 609584.9956)
(-3478654.835 5.075268352e-09 578328.7523)
(-3377626.996 0 548130.2109)
(-3273906.018 0 519055.7443)
(-3167238.068 0 490996.6658)
(-3059642.442 0 464083.2118)
(-2952010.824 0 438395.3648)
(-2843973.313 0 413814.0947)
(-2737163.793 2.508808907e-09 390411.3581)
(-2632141.084 0 368215.8511)
(-2528371.042 0 347099.0429)
(-2427281.245 0 327109.1428)
(-2329050.02 0 308239.4055)
(-2233319.717 0 290390.309)
(-2141336.132 0 273588.3927)
(-2052562.414 0 257750.3629)
(-1966689.296 0 242837.9328)
(-1883726.576 0 228825.314)
(-1808335.23 0 215676.4998)
(-1753198.558 0 203217.7462)
(-258650.5031 0 1446736.691)
(-527197.1469 0 1442579.063)
(-855313.4707 0 1435973.518)
(-1195075.762 0 1424222.333)
(-1498366.708 -6.866635285e-08 1408711.089)
(-1790460.859 0 1390131.537)
(-2064766.111 0 1369430.481)
(-2321673.436 0 1346193.695)
(-2559946.545 0 1320564.678)
(-2778185.511 1.868747624e-08 1293618.085)
(-2977886.696 -1.738321764e-08 1264497.976)
(-3157473.691 0 1234558.162)
(-3317627.009 0 1203007.481)
(-3458348.278 0 1170804.398)
(-3580019.487 0 1137402.78)
(-3683366.806 0 1103781.705)
(-3767869.185 0 1069138.119)
(-3835277.185 0 1034470.797)
(-3884004.819 0 998921.0379)
(-3916272.991 0 963243.9258)
(-3933463.972 0 927596.5883)
(-3934371.03 0 891639.3912)
(-3921736.373 0 855967.3966)
(-3895346.317 0 820352.5128)
(-3856118.327 0 784963.2639)
(-3806602.479 0 750200.0811)
(-3746038.637 -5.347587502e-09 715748.1673)
(-3675940.334 0 681893.0964)
(-3598940.463 0 648947.1513)
(-3514497.823 0 616684.4887)
(-3423743.648 0 585277.7442)
(-3329164.323 0 554957.6795)
(-3230616.556 0 525599.0499)
(-3128894.639 0 497301.5499)
(-3026102.795 0 470197.3525)
(-2922064.92 0 444175.6664)
(-2817432.596 0 419313.0078)
(-2713993.008 0 395682.8905)
(-2611291.064 -2.547880167e-09 373147.4141)
(-2509734.055 0 351747.4843)
(-2410862.38 0 331514.0159)
(-2313974.07 0 312334.2334)
(-2219558.085 -1.28503508e-09 294221.3921)
(-2128820.323 0 277165.0729)
(-2040661.645 0 261086.0134)
(-1955809.981 -1.300722295e-09 245947.4148)
(-1874444.817 -1.307221934e-09 231708.3565)
(-1795043.762 0 218328.3114)
(-1723549.065 0 205794.7315)
(-1670489.655 1.330279803e-09 193921.6263)
(-250114.6414 0 1405752.519)
(-511950.2242 0 1401342.021)
(-830220.2719 0 1394601.858)
(-1157921.077 0 1383523.471)
(-1449494.259 3.486786787e-08 1369485.325)
(-1731843.355 0 1351802.534)
(-1998782.507 0 1331372.811)
(-2246912.912 0 1309038.002)
(-2477823.87 0 1284276.031)
(-2689441.672 0 1257708.371)
(-2881792.539 1.765393706e-08 1229837.286)
(-3055511.216 0 1200076.065)
(-3209837.426 1.567394325e-08 1169629.406)
(-3345277.164 0 1137612.192)
(-3462247.767 0 1105288.01)
(-3560528.933 0 1071721.15)
(-3641274.977 0 1037893.635)
(-3703628.659 0 1003281.39)
(-3748858.302 1.24970112e-08 968257.7324)
(-3778761.814 0 933271.0956)
(-3791913.452 0 897801.5725)
(-3790982.31 0 862516.4084)
(-3775759.892 0 827187.3223)
(-3747280.691 0 792027.2775)
(-3708051.91 0 757461.2188)
(-3656790.68 0 723038.3348)
(-3595665.315 -5.430868736e-09 689213.7583)
(-3527266.896 0 656278.1742)
(-3450209.132 0 623904.3501)
(-3366561.565 0 592382.6209)
(-3278785.039 0 561937.2827)
(-3185739.788 0 532355.8253)
(-3089310.908 0 503839.8277)
(-2991632.006 0 476525.5971)
(-2891453.128 0 450223.0573)
(-2790520.174 0 425084.091)
(-2690691.482 2.586053146e-09 401188.26)
(-2590500.397 0 378363.8437)
(-2491392.578 0 356677.1015)
(-2394844.956 1.295436118e-09 336158.5776)
(-2299492.518 0 316703.1323)
(-2206635.061 0 298319.049)
(-2117034.33 0 280996.4834)
(-2029801.41 0 264663.8609)
(-1945973.088 2.630019074e-09 249294.0598)
(-1865241.527 0 234821.2051)
(-1787264.834 0 221218.1879)
(-1712199.598 1.334793832e-09 208456.1151)
(-1643725.658 0 196498.2106)
(-1593170.288 0 185175.8989)
(-240528.0269 0 1368961.015)
(-494366.3551 0 1364607.892)
(-803398.2089 0 1357636.992)
(-1122156.623 0 1345988.632)
(-1404822.397 0 1331702.692)
(-1676493.073 0 1315059.346)
(-1934803.927 0 1295309.279)
(-2175845.72 0 1273142.707)
(-2398204.787 -2.095186562e-08 1249282)
(-2603528.193 0 1223078.809)
(-2789451.572 3.585774534e-08 1195568.156)
(-2957085.063 -1.682979347e-08 1166599.709)
(-3105724.894 -1.59180432e-08 1136386.554)
(-3236116.1 0 1105320.65)
(-3348056.442 0 1073245.656)
(-3441744.905 0 1040446.269)
(-3517832.778 -1.346760661e-08 1006967.568)
(-3576107.673 0 972738.2619)
(-3618567.142 0 938481.2252)
(-3644076.574 -6.188192188e-09 903590.0804)
(-3655006.642 -6.050222577e-09 868772.9035)
(-3651212.634 0 833818.4001)
(-3633764.304 0 798966.1834)
(-3605139.458 0 764625.4829)