/*--------------------------------*- C++ -*----------------------------------*\
  =========                 |
  \\      /  F ield         | OpenFOAM: The Open Source CFD Toolbox
   \\    /   O peration     | Website:  https://openfoam.org
    \\  /    A nd           | Version:  7
     \\/     M anipulation  |
\*---------------------------------------------------------------------------*/
FoamFile
{
    version     2.0;
    format      ascii;
    class       volScalarField;
    location    "0.0015";
    object      p;
}
// * * * * * * * * * * * * * * * * * * * * * * * * * * * * * * * * * * * * * //

dimensions      [1 -1 -2 0 0 0 0];

internalField   nonuniform List<scalar> 
1166
(
1489918.492
1488402.622
1488893.031
1489377.96
1489858.491
1490404.55
1491015.332
1491690.23
1492404.327
1493159.185
1493938.002
1494742.056
1495556.535
1496381.704
1497205.425
1498028.157
1498849.514
1499662.954
1488750.943
1487242.477
1487688.025
1488111.771
1488518.809
1488982.246
1489510.786
1490096.538
1490723.492
1491389.263
1492080.862
1492795.914
1493523.647
1494261.396
1495005.28
1495752.032
1496497.456
1497239.711
1497975.639
1498701.411
1499421.299
1500133.988
1500835.184
1501519.837
1502197.96
1502870.353
1503535.379
1504190.43
1504848.525
1505506.844
1506162.657
1506812.484
1507457.485
1508103.43
1508745.177
1509376.094
1509991.194
1510597.069
1511191.92
1511770.469
1512329.913
1512875.168
1513405.72
1513917.747
1514410.298
1514887.007
1515345.528
1515787.05
1516237.075
1516692.926
1487532.619
1486040.26
1486449.552
1486826.101
1487177.885
1487580.309
1488046.513
1488562.988
1489119.411
1489710.539
1490327.758
1490965.158
1491619.607
1492285.748
1492961.592
1493641.716
1494319.951
1494999.546
1495676.043
1496344.708
1497012.683
1497673.602
1498321.2
1498963.093
1499604.063
1500241.933
1500873.942
1501504.269
1502139.615
1502775.757
1503408.375
1504034.208
1504662.313
1505288.893
1505906.304
1506507.846
1507099.716
1507682.665
1508250.731
1508799.878
1509334.415
1509855.639
1510359.311
1510843.34
1511312.007
1511764.596
1512195.681
1512613
1513040.006
1513467.678
1486300.367
1484835.311
1485216.142
1485556.752
1485867.422
1486224.528
1486637.121
1487095.315
1487591.764
1488117.928
1488672.171
1489246.776
1489840.219
1490443.806
1491058.882
1491677.793
1492299.442
1492924.727
1493547.902
1494168.644
1494788.263
1495401.351
1496004.243
1496612.275
1497221.903
1497829.994
1498432.698
1499043.177
1499658.122
1500272.116
1500879.396
1501487.992
1502098.095
1502700.639
1503288.465
1503866.022
1504436.486
1504993.275
1505531.911
1506055.664
1506567.376
1507062.461
1507537.885
1507997.959
1508443.513
1508869.136
1509276.234
1509672.737
1510073.644
1510475.055
1485086.966
1483655.37
1484011.465
1484321.796
1484598.03
1484915.865
1485283.046
1485690.96
1486137.489
1486611.714
1487114.232
1487634.093
1488173.713
1488721.953
1489283.39
1489847.435
1490421.802
1491000.589
1491573.947
1492150.189
1492726.653
1493299.31
1493869.669
1494447.932
1495029.461
1495608.788
1496191.958
1496783.83
1497377.461
1497966.203
1498554.789
1499147.628
1499734.531
1500307.953
1500870.968
1501428.266
1501973.247
1502500.944
1503013.93
1503515.792
1504001.98
1504468.815
1504920.436
1505358.371
1505777.474
1506179.228
1506565.965
1506938.379
1507315.22
1507695.45
1483905.09
1482510.418
1482843.698
1483126.828
1483372.257
1483655.018
1483988.206
1484356.741
1484762.189
1485190.065
1485643.628
1486118.105
1486610.38
1487110.868
1487625.948
1488144.001
1488676.683
1489212.253
1489739.516
1490276.605
1490817.325
1491353.353
1491898.494
1492452.255
1493007.64
1493563.023
1494130.824
1494703.229
1495272.815
1495841.289
1496415.525
1496985.924
1497544.368
1498092.816
1498636.033
1499168.611
1499684.94
1500187.15
1500678.783
1501155.703
1501613.867
1502057.204
1502487.508
1502899.376
1503294.878
1503676.533
1504040.043
1504390.198
1504746.714
1505103.727
1482754.42
1481403.037
1481717.324
1481978.28
1482199.22
1482453.784
1482757.878
1483090.392
1483455.169
1483845.812
1484255.801
1484691.077
1485138.161
1485601.589
1486078.942
1486556.654
1487047.345
1487538.266
1488032.205
1488537.859
1489045.208
1489554.412
1490078.894
1490610.199
1491140.098
1491680.649
1492230.392
1492780.34
1493328.764
1493882.954
1494435.967
1494978.722
1495512.074
1496040.871
1496560.603
1497065.033
1497556.174
1498037.444
1498504.773
1498954.127
1499389.258
1499811.955
1500216.438
1500605.154
1500980.968
1501339.702
1501681.582
1502013.177
1502347.927
1502682.122
1481646.171
1480340.659
1480642.099
1480883.457
1481082.508
1481312.452
1481589.66
1481889.366
1482216.742
1482577.052
1482950.905
1483349.84
1483757.638
1484188.252
1484625.14
1485068.867
1485522.808
1485975.489
1486444.888
1486922.926
1487399.464
1487891.795
1488396.106
1488902.073
1489415.367
1489941.816
1490471.483
1490999.284
1491532.938
1492068.027
1492594.479
1493112.272
1493626.368
1494132.875
1494624.927
1495104.741
1495575.541
1496032.982
1496473.41
1496900.416
1497315.508
1497712.544
1498094.53
1498464.18
1498817.308
1499154.909
1499478.858
1499790.08
1500104.107
1500420.143
1480585.696
1479321.05
1479609.312
1479837.932
1480018.445
1480224.948
1480474.687
1480751.306
1481049.475
1481380.009
1481722.605
1482091.767
1482467.171
1482862.374
1483258.171
1483673.51
1484096.457
1484523.783
1484968.513
1485418.222
1485876.69
1486353.006
1486834.963
1487321.037
1487823.257
1488332.021
1488838.656
1489351.27
1489867.899
1490377.437
1490879.19
1491378.266
1491871.142
1492350.315
1492818.512
1493278.692
1493725.913
1494157.255
1494576.129
1494983.441
1495372.969
1495748.307
1496111.922
1496458.9
1496791.486
1497111.68
1497415.557
1497707.808
1498004.657
1498300.51
1479578.028
1478352.499
1478621.837
1478840.224
1479007.854
1479192.877
1479414.708
1479673.574
1479947.055
1480249.733
1480566.758
1480902.884
1481250.446
1481613.54
1481981.861
1482370.793
1482762.595
1483172.481
1483595.43
1484020.899
1484467.794
1484925.915
1485386.14
1485861.577
1486347.794
1486833.654
1487325
1487822.655
1488314.699
1488799.954
1489283.695
1489762.547
1490228.346
1490684.625
1491134.022
1491570.683
1491992.771
1492403.403
1492802.45
1493184.681
1493553.479
1493911.226
1494251.975
1494579.13
1494894.991
1495194.956
1495480.552
1495757.153
1496035.031
1496312.725
1478617.94
1477434.465
1477684.751
1477884.575
1478045.718
1478214.717
1478414.788
1478653.235
1478905.987
1479178.029
1479472.943
1479775.661
1480100.903
1480434.144
1480785.354
1481149.038
1481520.392
1481913.932
1482313.14
1482728.136
1483160.626
1483596.076
1484044.698
1484507.923
1484972.855
1485442.623
1485920.943
1486395.065
1486863.45
1487331.489
1487795.646
1488247.981
1488692.177
1489130.644
1489556.417
1489969.092
1490371.469
1490762.061
1491136.957
1491499.206
1491850.73
1492185.697
1492507.533
1492818.574
1493114.22
1493396.521
1493666.925
1493925.78
1494187.181
1494449.914
1477701.433
1476561.876
1476797.625
1476977.974
1477125.461
1477290.249
1477473.104
1477684.67
1477922.092
1478168.026
1478442.155
1478720.696
1479025.299
1479333.602
1479667.136
1480005.688
1480366.321
1480739.872
1481122.665
1481528.487
1481940.504
1482362.295
1482802.258
1483246.226
1483694.682
1484152.497
1484608.07
1485059.211
1485511.204
1485960.129
1486398.702
1486830.559
1487257.91
1487672.423
1488075.473
1488469.514
1488851.389
1489218.926
1489574.881
1489919.673
1490248.865
1490565.422
1490871.502
1491162.664
1491441.126
1491708.487
1491961.77
1492205.565
1492452.476
1492698.692
1476832.308
1475736.301
1475960.184
1476125.787
1476252.248
1476406.484
1476578.203
1476765.611
1476984.013
1477212.445
1477460.515
1477726.722
1478006.704
1478303.706
1478616.849
1478942.867
1479291.94
1479645.759
1480021.821
1480410.222
1480806.055
1481221.567
1481644.249
1482071.269
1482508.142
1482944.813
1483378.418
1483814.108
1484247.44
1484672.045
1485091.641
1485507.415
1485910.257
1486303.517
1486689.192
1487062.133
1487422.245
1487771.963
1488109.908
1488433.457
1488745.187
1489046.001
1489332.74
1489607.34
1489870.944
1490121.643
1490360.593
1490590.55
1490822.426
1491054.934
1475997.429
1474949.299
1475166.605
1475320.189
1475430.763
1475562.443
1475726.495
1475899.505
1476093.86
1476313.326
1476539.414
1476795.172
1477053.817
1477342.315
1477635.821
1477954.955
1478284.796
1478631.181
1478996.353
1479367.168
1479756.88
1480158.001
1480563.437
1480979.096
1481396.605
1481812.378
1482231.472
1482648.853
1483059.217
1483466.207
1483869.328
1484260.872
1484644.333
1485021.544
1485385.253
1485737.803
1486081.281
1486412.196
1486730.088
1487037.144
1487332.513
1487614.935
1487885.973
1488145.256
1488392.814
1488629.798
1488854.547
1489070.872
1489289.767
1489507.668
1475192.657
1474186.571
1474394.823
1474547.134
1474650.621
1474764.514
1474911.148
1475081.291
1475257.597
1475461.472
1475678.484
1475913.939
1476167.647
1476437.849
1476724.833
1477030.949
1477347.689
1477689.856
1478036.433
1478400.341
1478780.019
1479163.773
1479557.974
1479956.167
1480353.89
1480756.141
1481157.273
1481553.138
1481947.308
1482337.38
1482717.483
1483090.799
1483458.811
1483813.798
1484158.83
1484495.934
1484819.766
1485132.002
1485434.466
1485724.287
1486002.394
1486269.935
1486525.004
1486769.029
1487003.142
1487225.764
1487437.703
1487642.164
1487847.679
1488052.986
1474435.28
1473465.531
1473656.937
1473800.801
1473905.882
1474015.204
1474141.975
1474299.976
1474472.537
1474657.782
1474871.076
1475089.327
1475337.861
1475593.914
1475878.052
1476168.388
1476481.724
1476805.825
1477144.578
1477503.097
1477865.063
1478237.542
1478616.319
1478995.797
1479380.95
1479765.557
1480146.666
1480527.787
1480904.467
1481273.069
1481636.608
1481994.256
1482340.416
1482677.632
1483007.513
1483324.922
1483631.421
1483928.512
1484213.493
1484487.342
1484750.871
1485002.347
1485243.049
1485474.007
1485694.097
1485904.14
1486104.567
1486296.727
1486490.514
1486683.925
1473721.349
1472792.961
1472971.168
1473096.072
1473190.552
1473300.494
1473423.255
1473562.005
1473730.559
1473909.051
1474108.021
1474326.335
1474559.465
1474813.362
1475081.438
1475366.994
1475669.334
1475983.437
1476320.711
1476660.808
1477011.374
1477370.743
1477731.837
1478099.657
1478467.517
1478833.643
1479201.509
1479564.495
1479921.391
1480275.079
1480621.983
1480959.302
1481289.203
1481611.025
1481921.771
1482222.615
1482514.14
1482794.256
1483063.878
1483323.429
1483571.408
1483809.004
1484036.752
1484254.184
1484462.37
1484660.664
1484849.088
1485030.283
1485212.907
1485395.366
1473026.45
1472145.054
1472321.006
1472438.643
1472517.58
1472616.065
1472740.534
1472875.74
1473029.069
1473207.291
1473392.736
1473606.658
1473831.349
1474079.066
1474337.544
1474620.022
1474911.839
1475225.347
1475543.983
1475872.845
1476213.03
1476555.714
1476906.041
1477257.045
1477608.046
1477962.51
1478311.573
1478656.579
1479000.312
1479336.21
1479664.593
1479987.34
1480300.611
1480604.723
1480900.628
1481185.698
1481460.895
1481727.053
1481981.829
1482226.199
1482461.125
1482685.372
1482899.926
1483105.549
1483301.832
1483488.864
1483666.644
1483837.553
1484010.018
1484182.095
1472360.818
1471520.432
1471689.863
1471810.462
1471893.861
1471979.904
1472092.792
1472230.092
1472377.237
1472546.124
1472735.443
1472935.686
1473161.159
1473395.551
1473654.392
1473922.787
1474211.627
1474509.891
1474817.139
1475138.298
1475462.507
1475795.128
1476129.166
1476464.853
1476805.729
1477140.601
1477473.288
1477806.338
1478131.488
1478450.639
1478765.422
1479070.568
1479367.83
1479658.042
1479937.227
1480207.353
1480469.271
1480720.029
1480960.817
1481192.502
1481413.925
1481625.874
1481828.984
1482023.078
1482208.481
1482384.877
1482552.67
1482714.158
1482876.89
1483039.276
1471745.018
1470939.392
1471094.712
1471207.237
1471290.724
1471384.556
1471489.521
1471617.45
1471767.419
1471926.202
1472109.996
1472309.215
1472524.606
1472758.372
1473007.743
1473273.182
1473552.09
1473838.656
1474140.53
1474446.226
1474761.094
1475078.235
1475398.246
1475724.474
1476045.954
1476366.193
1476687.692
1477002.554
1477312.291
1477618.347
1477915.832
1478206.133
1478490.078
1478763.812
1479028.879
1479286.308
1479533.25
1479770.521
1479998.972
1480217.65
1480427.251
1480627.712
1480819.554
1481003.022
1481177.862
1481344.528
1481503.172
1481655.703
1481809.202
1481962.405
1471163.552
1470401.511
1470553.922
1470653.717
1470724.106
1470815.99
1470927.295
1471048.956
1471191.331
1471354.696
1471526.814
1471723.645
1471932.483
1472164.066
1472406.291
1472666.777
1472933.668
1473215.644
1473502.62
1473799.592
1474099.918
1474404.169
1474715.52
1475023.517
1475331.137
1475640.895
1475945.462
1476246.135
1476542.753
1476832.487
1477116.346
1477393.208
1477661.399
1477921.986
1478174.092
1478417.074
1478651.223
1478875.952
1479091.658
1479298.663
1479496.787
1479686.497
1479868.002
1480041.159
1480206.363
1480364.08
1480514.122
1480658.08
1480803.162
1480947.797
1470601.704
1469878.21
1470026.734
1470132.505
1470207.77
1470286.681
1470392.109
1470518.327
1470655.543
1470812.779
1470989.751
1471177.308
1471388.248
1471609.552
1471849.039
1472095.921
1472358.357
1472626.803
1472905.822
1473189.551
1473478.07
1473774.464
1474069.147
1474364.871
1474661.796
1474955.824
1475247.938
1475534.236
1475815.768
1476092.915
1476362.617
1476624.941
1476880.291
1477127.601
1477366.579
1477597.022
1477818.563
1478031.459
1478235.838
1478431.704
1478619.351
1478799.021
1478970.563
1479134.117
1479290.665
1479439.985
1479581.629
1479717.81
1479854.705
1479991.536
1470085.57
1469393.598
1469530.677
1469632.101
1469708.541
1469795.997
1469896.684
1470015.867
1470155.705
1470307.873
1470481.455
1470672.95
1470874.361
1471093.513
1471320.838
1471564.197
1471814.376
1472075.415
1472342.836
1472615.694
1472897.042
1473178.28
1473462.028
1473745.896
1474028.762
1474310.899
1474588.088
1474861.406
1475130.98
1475394.067
1475650.581
1475900.457
1476142.998
1476377.964
1476604.646
1476822.951
1477033.053
1477234.778
1477428.35
1477613.847
1477791.76
1477961.799
1478123.783
1478278.836
1478426.83
1478568.133
1478702.362
1478830.912
1478960.613
1479089.689
1469084.904
1469178.662
1469243.572
1469328.764
1469433.91
1469553.34
1469686.957
1469842.087
1470009.347
1470195.512
1470394.227
1470604.138
1470828.023
1471061.416
1471304.727
1471556.195
1471813.53
1472079.818
1472347.411
1472618.726
1472889.797
1473161.419
1473433.288
1473701.327
1473966.305
1474228.126
1474484.561
1474735.634
1474979.348
1475216.834
1475447.792
1475670.542
1475885.46
1476092.571
1476291.779
1476483.114
1476666.498
1476842.525
1477010.783
1477171.639
1477325.435
1477472.197
1477612.639
1477746.315
1477873.083
1477995.046
1478117.579
1478240.337
)
;

boundaryField
{
    front_top
    {
        type            wedge;
    }
    front_middle
    {
        type            wedge;
    }
    front_bottom
    {
        type            wedge;
    }
    back_top
    {
        type            wedge;
    }
    back_middle
    {
        type            wedge;
    }
    back_bottom
    {
        type            wedge;
    }
    axis_top
    {
        type            symmetryPlane;
    }
    axis_middle
    {
        type            symmetryPlane;
    }
    axis_bottom
    {
        type            symmetryPlane;
    }
    wall_top
    {
        type            fixedFluxPressure;
        gradient        uniform 0;
        value           nonuniform List<scalar> 
23
(
1516692.926
1513467.678
1510475.055
1507695.45
1505103.727
1502682.122
1500420.143
1498300.51
1496312.725
1494449.914
1492698.692
1491054.934
1489507.668
1488052.986
1486683.925
1485395.366
1484182.095
1483039.276
1481962.405
1480947.797
1479991.536
1479089.689
1478240.337
)
;
    }
    wall_middle
    {
        type            fixedFluxPressure;
        gradient        nonuniform 0();
        value           nonuniform 0();
    }
    wall_bottom
    {
        type            fixedFluxPressure;
        gradient        nonuniform 0();
        value           nonuniform 0();
    }
    inlet
    {
        type            zeroGradient;
    }
    outlet
    {
        type            fixedValue;
        value           nonuniform 0();
    }
    procBoundary9to8
    {
        type            processor;
        value           nonuniform List<scalar> 
51
(
1469602.161
1468949.001
1468949.001
1468648.842
1468744.312
1468816.996
1468898.704
1468997.564
1469119.339
1469257.212
1469404.711
1469571.064
1469747.78
1469941.884
1470146.408
1470364.006
1470589.688
1470825.655
1471067.673
1471318.924
1471572.595
1471830.662
1472089.629
1472350.077
1472611.488
1472870.409
1473127.665
1473380.633
1473629.725
1473874.466
1474112.716
1474345.106
1474571.588
1474790.636
1475002.195
1475206.257
1475402.808
1475591.579
1475773.169
1475947.46
1476114.132
1476273.709
1476426.25
1476571.805
1476711.161
1476843.773
1476970.498
1477090.894
1477206.081
1477322.554
1477438.394
)
;
    }
    procBoundary9to10
    {
        type            processor;
        value           nonuniform List<scalar> 
51
(
1491013.946
1489503.363
1490035.022
1490590.84
1491161.708
1491811.476
1492531.234
1493324.15
1494156.206
1495022.821
1495911.958
1496816.892
1497730.54
1498655.846
1499575.6
1500491.209
1501397.945
1502291.647
1500467.232
1500467.232
1501259.54
1502039.386
1502807.201
1503562.334
1504301.356
1505026.586
1505738.991
1506440.532
1507130.52
1507813.985
1508495.8
1509174.924
1509849.316
1510515.6
1511179.731
1511841.591
1512497.258
1513140.541
1513768.796
1514388.312
1514994.484
1515582.75
1516152.314
1516708.276
1517248.061
1517768.158
1518268.466
1518752.162
1519221.941
1519697.597
1520177.937
)
;
    }
}


// ************************************************************************* //
