/*--------------------------------*- C++ -*----------------------------------*\
  =========                 |
  \\      /  F ield         | OpenFOAM: The Open Source CFD Toolbox
   \\    /   O peration     | Website:  https://openfoam.org
    \\  /    A nd           | Version:  7
     \\/     M anipulation  |
\*---------------------------------------------------------------------------*/
FoamFile
{
    version     2.0;
    format      ascii;
    class       surfaceScalarField;
    location    "0.0015";
    object      phi;
}
// * * * * * * * * * * * * * * * * * * * * * * * * * * * * * * * * * * * * * //

dimensions      [1 0 -1 0 0 0 0];

internalField   nonuniform List<scalar> 
2258
(
4.952964805e-15
4.577703546e-11
1.941305283e-14
1.339490264e-10
4.275654241e-14
2.172023085e-10
7.432624934e-14
2.957386014e-10
1.134348657e-13
3.697532402e-10
1.593647611e-13
4.394352312e-10
2.113393749e-13
5.049675412e-10
2.686366281e-13
5.665267326e-10
3.304408662e-13
6.242835327e-10
3.960193312e-13
6.784028803e-10
4.645617072e-13
7.290436389e-10
5.353532449e-13
7.763594788e-10
6.076057208e-13
8.204980849e-10
6.80626967e-13
8.616021242e-10
7.536616425e-13
8.998089055e-10
8.260190462e-13
9.352504313e-10
8.970588679e-13
9.680542211e-10
9.983424293e-10
5.053001603e-15
4.577198245e-11
1.980346904e-14
1.339342759e-10
4.359770353e-14
2.171785142e-10
7.574157828e-14
2.957064576e-10
1.155074182e-13
3.697134744e-10
1.621323156e-13
4.393886063e-10
2.148326732e-13
5.049148409e-10
2.728364934e-13
5.664687288e-10
3.353298449e-13
6.242210394e-10
4.015477238e-13
6.783366625e-10
4.706818685e-13
7.289745048e-10
5.419823662e-13
7.762881783e-10
6.146664707e-13
8.204254008e-10
6.879960076e-13
8.615287946e-10
7.61247907e-13
8.997356536e-10
8.337284742e-13
9.351779507e-10
9.047543955e-13
9.679831952e-10
9.736756525e-13
9.982735081e-10
1.039861431e-12
1.026166507e-09
1.102662969e-12
1.051775513e-09
1.161529289e-12
1.075209108e-09
1.215916623e-12
1.096571577e-09
1.265290425e-12
1.115963152e-09
1.309037847e-12
1.133480377e-09
1.346749295e-12
1.149215327e-09
1.378022804e-12
1.163256514e-09
1.40250866e-12
1.175688787e-09
1.419782673e-12
1.18659369e-09
1.429768664e-12
1.196049007e-09
1.432329932e-12
1.204129197e-09
1.427381909e-12
1.210905664e-09
1.414826428e-12
1.216446793e-09
1.394622041e-12
1.220818101e-09
1.366963819e-12
1.224081902e-09
1.331963517e-12
1.226297965e-09
1.289686075e-12
1.227523526e-09
1.240053497e-12
1.227813528e-09
1.183287674e-12
1.227220147e-09
1.119570647e-12
1.225793292e-09
1.048998392e-12
1.223580763e-09
9.715729778e-13
1.220628386e-09
8.875425794e-13
1.216979665e-09
7.971478557e-13
1.21267608e-09
7.005171806e-13
1.207757464e-09
5.977257499e-13
1.202261836e-09
4.890861373e-13
1.196225311e-09
3.748673778e-13
1.189682248e-09
2.550923264e-13
1.182665832e-09
1.300104386e-13
1.175207409e-09
1.167336718e-09
5.117992698e-15
4.576686446e-11
2.00542918e-14
1.339193396e-10
4.413469644e-14
2.171544338e-10
7.663923288e-14
2.95673953e-10
1.168128209e-13
3.696733008e-10
1.638666992e-13
4.393415524e-10
2.170137682e-13
5.048616938e-10
2.754461612e-13
5.664102964e-10
3.383484586e-13
6.241581371e-10
4.049226289e-13
6.782700883e-10
4.743641828e-13
7.289050632e-10
5.45879058e-13
7.762166634e-10
6.187050055e-13
8.203525748e-10
6.920836273e-13
8.61455416e-10
7.652994136e-13
8.996624379e-10
8.376496488e-13
9.351056005e-10
9.084093173e-13
9.679124355e-10
9.769455577e-13
9.982049719e-10
1.042622442e-12
1.02610083e-09
1.104766586e-12
1.051713369e-09
1.162860013e-12
1.075151015e-09
1.216334605e-12
1.096518102e-09
1.264562204e-12
1.115914924e-09
1.307063931e-12
1.133437876e-09
1.343452968e-12
1.149178938e-09
1.373356351e-12
1.16322661e-09
1.396400387e-12
1.175665743e-09
1.412316566e-12
1.186577773e-09
1.421036552e-12
1.196040287e-09
1.422451383e-12
1.204127783e-09
1.416482474e-12
1.210911632e-09
1.402976106e-12
1.216460299e-09
1.382115059e-12
1.220838962e-09
1.354020362e-12
1.224109997e-09
1.318752059e-12
1.226333234e-09
1.276197672e-12
1.227566081e-09
1.226512864e-12
1.227863213e-09
1.169911707e-12
1.227276748e-09
1.106491492e-12
1.225856713e-09
1.036236786e-12
1.223651018e-09
9.593387568e-13
1.220705284e-09
8.760678748e-13
1.217062936e-09
7.865658886e-13
1.212765582e-09
6.908793727e-13
1.207853151e-09
5.89283627e-13
1.202363431e-09
4.820784285e-13
1.196332516e-09
3.693010228e-13
1.189795025e-09
2.511469158e-13
1.182783986e-09
1.280282366e-13
1.175330528e-09
1.167464746e-09
5.152174899e-15
4.576171229e-11
2.018582182e-14
1.33904306e-10
4.441501166e-14
2.171302046e-10
7.710468235e-14
2.956412634e-10
1.174829108e-13
3.696329226e-10
1.647547277e-13
4.392942806e-10
2.181085045e-13
5.0480834e-10
2.767200897e-13
5.663516848e-10
3.397728563e-13
6.240950843e-10
4.064328988e-13
6.782034283e-10
4.75907653e-13
7.288355885e-10
5.473860209e-13
7.761451851e-10
6.20114848e-13
8.20279846e-10
6.933017609e-13
8.613822291e-10
7.662408215e-13
8.995894988e-10
8.381904243e-13
9.350336509e-10
9.084492724e-13
9.678421767e-10
9.763787906e-13
9.981370423e-10
1.041309997e-12
1.026035899e-09
1.102615609e-12
1.051652064e-09
1.159733089e-12
1.075093897e-09
1.212084507e-12
1.096465751e-09
1.259020114e-12
1.115867989e-09
1.300207711e-12
1.133396688e-09
1.335249382e-12
1.149143896e-09
1.363813808e-12
1.163198046e-09
1.385478813e-12
1.175644078e-09
1.400185505e-12
1.186563067e-09
1.407822026e-12
1.196032651e-09
1.408304673e-12
1.2041273e-09
1.4014391e-12
1.210918498e-09
1.38731471e-12
1.216474423e-09
1.366087871e-12
1.220860189e-09
1.337790201e-12
1.224138294e-09
1.30231345e-12
1.22636871e-09
1.259732795e-12
1.227608661e-09
1.21028621e-12
1.227912659e-09
1.154056388e-12
1.227332978e-09
1.09102941e-12
1.22591974e-09
1.021337788e-12
1.223720709e-09
9.452724263e-13
1.220781349e-09
8.629787358e-13
1.21714523e-09
7.744809439e-13
1.21285408e-09
6.800226546e-13
1.207947609e-09
5.799246007e-13
1.20246353e-09
4.742289476e-13
1.196438212e-09
3.631096632e-13
1.189906145e-09
2.469649323e-13
1.18290013e-09
1.258777996e-13
1.175451615e-09
1.167590624e-09
5.16280951e-15
4.575654948e-11
2.022576411e-14
1.33889243e-10
4.449646633e-14
2.171059339e-10
7.723097989e-14
2.956085288e-10
1.176470918e-13
3.695925064e-10
1.649428531e-13
4.392469849e-10
2.182939195e-13
5.047549889e-10
2.768575331e-13
5.662931212e-10
3.398249991e-13
6.240321168e-10
4.06345219e-13
6.78136908e-10
4.756346352e-13
7.28766299e-10
5.468518202e-13
7.760739679e-10
6.192546361e-13
8.202074432e-10
6.920179192e-13
8.613094658e-10
7.644522803e-13
8.995170644e-10
8.357616426e-13
9.349623415e-10
9.053094418e-13
9.677726289e-10
9.724447128e-13
9.980699071e-10
1.036422824e-12
1.025971921e-09
1.09667571e-12
1.051591811e-09
1.152619149e-12
1.075037954e-09
1.203671465e-12
1.096414699e-09
1.249279906e-12
1.11582238e-09
1.289120551e-12
1.133356847e-09
1.32283889e-12
1.149110178e-09
1.350041439e-12
1.163170843e-09
1.370500692e-12
1.175623619e-09
1.384155822e-12
1.186549412e-09
1.390891068e-12
1.196025915e-09
1.390518121e-12
1.204127673e-09
1.383011733e-12
1.210926004e-09
1.368556511e-12
1.216488879e-09
1.347155094e-12
1.220881591e-09
1.318696713e-12
1.224166753e-09
1.283193895e-12
1.226404213e-09
1.240882788e-12
1.227650972e-09
1.191839065e-12
1.227961703e-09
1.136042209e-12
1.227388775e-09
1.073585506e-12
1.225982196e-09
1.004756095e-12
1.223789539e-09
9.297016006e-13
1.220856404e-09
8.484298213e-13
1.217226501e-09
7.611580594e-13
1.212941352e-09
6.682185123e-13
1.208040549e-09
5.696489861e-13
1.202562099e-09
4.656148955e-13
1.196542246e-09
3.564922684e-13
1.190015267e-09
2.423820871e-13
1.183014241e-09
1.234300288e-13
1.175570567e-09
1.167714054e-09
5.15465907e-15
4.575139482e-11
2.019231405e-14
1.338742053e-10
4.441707424e-14
2.170817092e-10
7.707937469e-14
2.955758665e-10
1.173901533e-13
3.695521957e-10
1.645356611e-13
4.391998393e-10
2.177090094e-13
5.047018156e-10
2.760459363e-13
5.662347842e-10
3.387465578e-13
6.239694162e-10
4.049362023e-13
6.780707184e-10
4.738124714e-13
7.286974228e-10
5.445622387e-13
7.760032181e-10
6.164187516e-13
8.201355866e-10
6.885473268e-13
8.612373372e-10
7.60266467e-13
8.994453453e-10
8.307531615e-13
9.348918548e-10
8.994097531e-13
9.677039723e-10
9.655594091e-13
9.980037574e-10
1.028390038e-12
1.025909091e-09
1.087408431e-12
1.051532792e-09
1.142060142e-12
1.074983302e-09
1.19168737e-12
1.096365071e-09
1.235927166e-12
1.115778141e-09
1.274435512e-12
1.133318339e-09
1.306845654e-12
1.149077768e-09
1.332769505e-12
1.16314492e-09
1.352179938e-12
1.175604208e-09
1.364934312e-12
1.186536657e-09
1.370845817e-12
1.196020004e-09
1.369798399e-12
1.20412872e-09
1.361960111e-12
1.210933843e-09
1.347324338e-12
1.216503514e-09
1.325771018e-12
1.220903144e-09
1.297275312e-12
1.224195248e-09
1.26203051e-12
1.226439458e-09
1.22012107e-12
1.227692882e-09
1.171512173e-12
1.228010312e-09
1.116276706e-12
1.22744401e-09
1.054675083e-12
1.226043798e-09
9.868557855e-13
1.223857358e-09
9.128159566e-13
1.220930444e-09
8.327519635e-13
1.217306565e-09
7.469985419e-13
1.213027105e-09
6.555803559e-13
1.208131967e-09
5.586599425e-13
1.202659019e-09
4.565974494e-13
1.196644308e-09
3.494949621e-13
1.19012237e-09
2.374977516e-13
1.183126238e-09
1.209547788e-13
1.17568711e-09
1.167835008e-09
5.129325641e-15
4.574626549e-11
2.009418596e-14
1.338592405e-10
4.41987905e-14
2.170576046e-10
7.669267538e-14
2.955433727e-10
1.16784846e-13
3.695121035e-10
1.636558164e-13
4.391529684e-10
2.165127017e-13
5.046489587e-10
2.744726176e-13
5.661768243e-10
3.367140233e-13
6.239071748e-10
4.024024794e-13
6.780050299e-10
4.706741195e-13
7.286291511e-10
5.407770482e-13
7.759331152e-10
6.118611172e-13
8.200645026e-10
6.831745505e-13
8.611660238e-10
7.540113219e-13
8.993745085e-10
8.235208848e-13
9.348223453e-10
8.911036401e-13
9.676363895e-10
9.56002302e-13
9.979388587e-10
1.01753934e-12
1.025847553e-09
1.075220483e-12
1.051475111e-09
1.12844337e-12
1.074930079e-09
1.176633383e-12
1.096316881e-09
1.219517033e-12
1.115735257e-09
1.256740535e-12
1.133281116e-09
1.28784144e-12
1.149046667e-09
1.312688389e-12
1.163120073e-09
1.33117428e-12
1.175585722e-09
1.343108883e-12
1.186524723e-09
1.348311108e-12
1.196014802e-09
1.346883934e-12
1.204130148e-09
1.338833184e-12
1.210941893e-09
1.324023739e-12
1.216518324e-09
1.302396047e-12
1.220924772e-09
1.274104646e-12
1.22422354e-09
1.239235269e-12
1.226474327e-09
1.197731972e-12
1.227734385e-09
1.149652183e-12
1.228058392e-09
1.095233696e-12
1.227498429e-09
1.034611455e-12
1.22610442e-09
9.677775303e-13
1.223924192e-09
8.949126332e-13
1.221003309e-09
8.163456607e-13
1.217385132e-09
7.320798712e-13
1.213111371e-09
6.422805361e-13
1.208221766e-09
5.472983189e-13
1.202754002e-09
4.472203732e-13
1.196744386e-09
3.421969892e-13
1.190227393e-09
2.325691162e-13
1.183235866e-09
1.184624237e-13
1.175801217e-09
1.167953471e-09
5.090383898e-15
4.574117511e-11
1.994231057e-14
1.338443886e-10
4.386996094e-14
2.170336769e-10
7.611878529e-14
2.955111238e-10
1.158976851e-13
3.694723246e-10
1.623863204e-13
4.391064797e-10
2.147993759e-13
5.045965457e-10
2.722431229e-13
5.661193806e-10
3.338666171e-13
6.238455513e-10
3.988980825e-13
6.779399985e-10
4.664220103e-13
7.285616272e-10
5.3571199e-13
7.758638252e-10
6.058652834e-13
8.199943493e-10
6.762190234e-13
8.610956701e-10
7.459494253e-13
8.993047781e-10
8.142991652e-13
9.347539955e-10
8.806276433e-13
9.675700611e-10
9.441110887e-13
9.978753753e-10
1.004264191e-12
1.0257874e-09
1.060534992e-12
1.05141884e-09
1.112233753e-12
1.074878381e-09
1.159039292e-12
1.096270076e-09
1.200611264e-12
1.115693685e-09
1.236500597e-12
1.133245226e-09
1.266427926e-12
1.149016739e-09
1.290317354e-12
1.163096183e-09
1.307972811e-12
1.175568067e-09
1.319149412e-12
1.186513546e-09
1.323887387e-12
1.196010064e-09
1.322200092e-12
1.204131835e-09
1.313932709e-12
1.210950161e-09
1.298993183e-12
1.216533263e-09
1.277500922e-12
1.220946264e-09
1.249536539e-12
1.224251504e-09
1.21501662e-12
1.226508847e-09
1.173987425e-12
1.227775414e-09
1.126667868e-12
1.228105711e-09
1.073166134e-12
1.227551931e-09
1.01347428e-12
1.226164112e-09
9.477622869e-13
1.223989904e-09
8.763453855e-13
1.221074725e-09
7.99197445e-13
1.21746228e-09
7.16491736e-13
1.213194077e-09
6.285755363e-13
1.208309683e-09
5.355055226e-13
1.202847072e-09
4.374422767e-13
1.19684245e-09
3.347254951e-13
1.19033011e-09
2.274570302e-13
1.183343134e-09
1.157710186e-13
1.175912903e-09
1.168069242e-09
5.041686148e-15
4.573613342e-11
1.974831799e-14
1.338296819e-10
4.344224512e-14
2.17009983e-10
7.538080264e-14
2.954791853e-10
1.147653007e-13
3.694329401e-10
1.607752671e-13
4.390604698e-10
2.126108683e-13
5.045447101e-10
2.694188553e-13
5.660625726e-10
3.303153169e-13
6.237846548e-10
3.945463654e-13
6.778757674e-10
4.611822593e-13
7.284949913e-10
5.295207632e-13
7.757954867e-10
5.986352682e-13
8.199252348e-10
6.678682518e-13
8.610264371e-10
7.362955486e-13
8.992363508e-10
8.033228203e-13
9.346869683e-10
8.682209401e-13
9.675051629e-10
9.30250092e-13
9.978133461e-10
9.889466901e-13
1.025728704e-09
1.043672111e-12
1.051364115e-09
1.093903099e-12
1.07482815e-09
1.139358488e-12
1.09622462e-09
1.179602362e-12
1.115653441e-09
1.214219164e-12
1.133210609e-09
1.243138809e-12
1.14898782e-09
1.266169563e-12
1.163073152e-09
1.28300265e-12
1.175551234e-09
1.293617099e-12
1.186502932e-09
1.298030073e-12
1.196005651e-09
1.29606292e-12
1.204133802e-09
1.28759264e-12
1.210958631e-09
1.272706643e-12
1.216548149e-09
1.251474892e-12
1.220967496e-09
1.223780874e-12
1.224279198e-09
1.189663465e-12
1.226542965e-09
1.149326171e-12
1.227815752e-09
1.102838331e-12
1.228152199e-09
1.050196584e-12
1.227604572e-09
9.915647864e-13
1.226222744e-09
9.272311936e-13
1.224054237e-09
8.571455167e-13
1.221144811e-09
7.814874279e-13
1.217537938e-09
7.006068625e-13
1.213274957e-09
6.145151989e-13
1.208395774e-09
5.233884193e-13
1.202938198e-09
4.275714828e-13
1.196938266e-09
3.271273614e-13
1.190430554e-09
2.222069224e-13
1.183448055e-09
1.131462747e-13
1.176021963e-09
1.168182388e-09
4.985125572e-15
4.57311483e-11
1.952398829e-14
1.338151431e-10
4.293586172e-14
2.169865711e-10
7.450127651e-14
2.954476199e-10
1.134234863e-13
3.693940179e-10
1.588750762e-13
4.390150182e-10
2.100254587e-13
5.044935597e-10
2.660941623e-13
5.660065039e-10
3.261584753e-13
6.237245905e-10
3.894573129e-13
6.778124686e-10
4.551022072e-13
7.284293464e-10
5.223154153e-13
7.757282735e-10
5.902461445e-13
8.198573041e-10
6.581713556e-13
8.609585119e-10
7.252193085e-13
8.991693029e-10
7.90827244e-13
9.346213603e-10
8.541572092e-13
9.67441833e-10
9.146850116e-13
9.977528183e-10
9.718740129e-13
1.025671515e-09
1.025022557e-12
1.051310966e-09
1.073857919e-12
1.074779314e-09
1.117983027e-12
1.096180495e-09
1.156889461e-12
1.115614535e-09
1.190425485e-12
1.133177073e-09
1.21842663e-12
1.148959819e-09
1.240560986e-12
1.163051018e-09
1.256725134e-12
1.17553507e-09
1.266937314e-12
1.186492719e-09
1.270991776e-12
1.196001596e-09
1.268735577e-12
1.204136058e-09
1.26022662e-12
1.21096714e-09
1.245519811e-12
1.216562856e-09
1.224460479e-12
1.220988555e-09
1.197083229e-12
1.224306575e-09
1.163579286e-12
1.226576469e-09
1.123968225e-12
1.227855363e-09
1.07825542e-12
1.228197912e-09
1.026603098e-12
1.227656225e-09
9.692419109e-13
1.226280105e-09
9.061386152e-13
1.224117341e-09
8.374588649e-13
1.221213491e-09
7.635618267e-13
1.217611835e-09
6.843993391e-13
1.21335412e-09
6.001676048e-13
1.208480006e-09
5.112237668e-13
1.203027142e-09
4.175774788e-13
1.197031913e-09
3.194018413e-13
1.19052873e-09
2.170306455e-13
1.183550426e-09
1.104976673e-13
1.176128496e-09
1.168292886e-09
4.920954965e-15
4.572622734e-11
1.927155389e-14
1.338007925e-10
4.237145232e-14
2.169634712e-10
7.349486973e-14
2.954164964e-10
1.118902834e-13
3.693556225e-10
1.567092841e-13
4.389701992e-10
2.071144443e-13
5.044431545e-10
2.623413304e-13
5.65951277e-10
3.214923928e-13
6.236654395e-10
3.837250208e-13
6.77750236e-10
4.482661606e-13
7.283648053e-10
5.141945149e-13
7.756623451e-10
5.808193433e-13
8.197906792e-10
6.472710716e-13
8.608920601e-10
7.128752316e-13
8.991036987e-10
7.769332146e-13
9.345573023e-10
8.386845254e-13
9.673800817e-10
8.976961493e-13
9.976938067e-10
9.532679403e-13
1.025615943e-09
1.004957392e-12
1.051259277e-09
1.05244368e-12
1.074731828e-09
1.095174048e-12
1.096137765e-09
1.13288899e-12
1.11557682e-09
1.165446e-12
1.133144516e-09
1.192497234e-12
1.148932767e-09
1.213853547e-12
1.163029662e-09
1.229532529e-12
1.175519391e-09
1.239298966e-12
1.186482953e-09
1.242970512e-12
1.195997925e-09
1.240577679e-12
1.204138451e-09
1.232143331e-12
1.210975574e-09
1.217497e-12
1.216577502e-09
1.196657752e-12
1.221009394e-09
1.169807384e-12
1.224333426e-09
1.136906058e-12
1.22660937e-09
1.097971483e-12
1.227894297e-09
1.053168304e-12
1.228242715e-09
1.002657958e-12
1.227706735e-09
9.46429033e-13
1.226336334e-09
8.846372319e-13
1.224179133e-09
8.17613915e-13
1.221280514e-09
7.453068486e-13
1.217684143e-09
6.679043834e-13
1.213431522e-09
5.857618062e-13
1.208562149e-09
4.988633832e-13
1.203114041e-09
4.073882258e-13
1.197123388e-09
3.116538648e-13
1.190624464e-09
2.116995053e-13
1.18365038e-09
1.077164965e-13
1.176232479e-09
1.168400602e-09
4.849337875e-15
4.5721378e-11
1.899024428e-14
1.337866516e-10
4.17492791e-14
2.169407122e-10
7.23922274e-14
2.953858535e-10
1.101742915e-13
3.693178404e-10
1.543026684e-13
4.389260708e-10
2.039077837e-13
5.043935494e-10
2.581753462e-13
5.658970094e-10
3.163148794e-13
6.236072999e-10
3.77383908e-13
6.776891669e-10
4.406919903e-13
7.283014972e-10
5.05266267e-13
7.755977708e-10
5.704875244e-13
8.19725458e-10
6.354092604e-13
8.608271384e-10
6.994993339e-13
8.990396086e-10
7.618966578e-13
9.34494905e-10
8.221047409e-13
9.673198736e-10
8.795213759e-13
9.976363901e-10
9.335136133e-13
1.025561951e-09
9.838117838e-13
1.051208979e-09
1.029871445e-12
1.074685768e-09
1.071296856e-12
1.09609634e-09
1.107967684e-12
1.115540149e-09
1.139520134e-12
1.133112964e-09
1.165698532e-12
1.148906589e-09
1.186478043e-12
1.163008882e-09
1.201614441e-12
1.175504254e-09
1.210895645e-12
1.186473672e-09
1.214326165e-12
1.195994494e-09
1.211888279e-12
1.204140889e-09
1.203403432e-12
1.210984059e-09
1.188870791e-12
1.216592035e-09
1.168465354e-12
1.2210298e-09
1.142079469e-12
1.224359812e-09
1.109746154e-12
1.226641703e-09
1.071636084e-12
1.227932407e-09
1.027830927e-12
1.22828652e-09
9.783450564e-13
1.227756221e-09
9.233463089e-13
1.226391333e-09
8.630839157e-13
1.224239395e-09
7.975391333e-13
1.221346059e-09
7.268823908e-13
1.217754799e-09
6.514523252e-13
1.213506952e-09
5.712381335e-13
1.208642363e-09
4.864070722e-13
1.203198872e-09
3.97260161e-13
1.197212535e-09
3.038413315e-13
1.190717883e-09
2.063467097e-13
1.183747875e-09
1.050319336e-13
1.176333794e-09
1.168505634e-09
4.771613563e-15
4.571660639e-11
1.868519491e-14
1.33772738e-10
4.107602348e-14
2.169183214e-10
7.121736735e-14
2.953557122e-10
1.083367167e-13
3.692807211e-10
1.516886315e-13
4.388827189e-10
2.004241157e-13
5.043448139e-10
2.536641339e-13
5.658437694e-10
3.106661955e-13
6.235502979e-10
3.705183365e-13
6.776293148e-10
4.324324272e-13
7.282395831e-10
4.956186787e-13
7.755345846e-10
5.592744992e-13
8.196618021e-10
6.226725713e-13
8.607637403e-10
6.85127188e-13
8.98977154e-10
7.459092068e-13
9.34434123e-10
8.045709859e-13
9.672612118e-10
8.60348639e-13
9.975806124e-10
9.129049003e-13
1.025509394e-09
9.617688313e-13
1.051160115e-09
1.006428584e-12
1.074641109e-09
1.046738074e-12
1.09605603e-09
1.082344421e-12
1.115504543e-09
1.112927125e-12
1.133082381e-09
1.138411709e-12
1.148881104e-09
1.158546928e-12
1.162988747e-09
1.173090431e-12
1.175489711e-09
1.182021575e-12
1.186464741e-09
1.185278185e-12
1.195991237e-09
1.182673709e-12
1.204143493e-09
1.174199361e-12
1.210992534e-09
1.159999979e-12
1.216606235e-09
1.139906279e-12
1.221049893e-09
1.113968616e-12
1.224385749e-09
1.082366829e-12
1.226673305e-09
1.045093385e-12
1.227969681e-09
1.002191842e-12
1.228329422e-09
9.538461229e-13
1.227804567e-09
9.002122053e-13
1.226444967e-09
8.413093219e-13
1.224298298e-09
7.773179049e-13
1.22141005e-09
7.084985751e-13
1.217823619e-09
6.34877265e-13
1.213580574e-09
5.566274957e-13
1.208720612e-09
4.739923913e-13
1.203281507e-09
3.870410614e-13
1.197299486e-09
2.959932111e-13
1.190808931e-09
2.010245035e-13
1.183842843e-09
1.022753048e-13
1.176432543e-09
1.16860791e-09
4.685482697e-15
4.571192091e-11
1.834981837e-14
1.337590736e-10
4.034550487e-14
2.168963257e-10
6.994611555e-14
2.953261115e-10
1.063829764e-13
3.692442842e-10
1.488712732e-13
4.388402306e-10
1.96650938e-13
5.042970342e-10
2.488232908e-13
5.657915971e-10
3.045722965e-13
6.234945489e-10
3.631499811e-13
6.775707371e-10
4.236095868e-13
7.281791235e-10
4.853492173e-13
7.75472845e-10
5.473928859e-13
8.195997585e-10
6.092466208e-13
8.607018866e-10
6.700139695e-13
8.989163867e-10
7.292428891e-13
9.343748941e-10
7.862397454e-13
9.672042149e-10
8.404901988e-13
9.97526362e-10
8.916182396e-13
1.025458266e-09
9.39019997e-13
1.051112713e-09
9.824744298e-13
1.074597654e-09
1.021667817e-12
1.096016837e-09
1.056213348e-12
1.115469997e-09
1.085986461e-12
1.133052608e-09
1.110729013e-12
1.148856362e-09
1.130167183e-12
1.162969309e-09
1.144255353e-12
1.175475622e-09
1.152884613e-12
1.186456111e-09
1.155860122e-12
1.195988262e-09
1.153170072e-12
1.204146183e-09
1.144887553e-12
1.211000816e-09
1.130846218e-12
1.216620276e-09
1.111081409e-12
1.221069658e-09
1.085786081e-12
1.224411045e-09
1.054855102e-12
1.226704236e-09
1.018363906e-12
1.228006172e-09
9.765163368e-13
1.22837127e-09
9.293650188e-13
1.227851718e-09
8.769713943e-13
1.22649736e-09
8.195363466e-13
1.224355733e-09
7.572177274e-13
1.221472369e-09
6.900902175e-13
1.217890746e-09
6.183536723e-13
1.21365231e-09
5.421503984e-13
1.208796816e-09
4.615952285e-13
1.203362062e-09
3.769376165e-13
1.197384144e-09
2.882593841e-13
1.190897609e-09
1.957435032e-13
1.183935359e-09
9.963247667e-14
1.176528654e-09
1.168707542e-09
4.593124375e-15
4.570732778e-11
1.798625539e-14
1.337456805e-10
3.953991498e-14
2.16874772e-10
6.85581587e-14
2.952970933e-10
1.042721333e-13
3.692085702e-10
1.458749338e-13
4.387986278e-10
1.925957942e-13
5.042503134e-10
2.43654235e-13
5.657405386e-10
2.981301902e-13
6.234400729e-10
3.553148987e-13
6.775135524e-10
4.143529012e-13
7.281200855e-10
4.744947768e-13
7.754127031e-10
5.350085244e-13
8.195392447e-10
5.951876394e-13
8.606417075e-10
6.543599865e-13
8.988572143e-10
7.119784653e-13
9.343172756e-10
7.673443833e-13
9.67148849e-10
8.201709765e-13
9.974735354e-10
8.697838831e-13
1.025408654e-09
9.158747051e-13
1.051066622e-09
9.581713494e-13
1.074555358e-09
9.962195328e-13
1.095978788e-09
1.029843933e-12
1.115436373e-09
1.058781309e-12
1.133023671e-09
1.082724801e-12
1.148832418e-09
1.101603566e-12
1.16295043e-09
1.115261302e-12
1.175461965e-09
1.123494144e-12
1.186447878e-09
1.126288243e-12
1.195985468e-09
1.123637629e-12
1.204148834e-09
1.115387465e-12
1.211009066e-09
1.101552268e-12
1.216634111e-09
1.082305594e-12
1.221088905e-09
1.057510399e-12
1.22443584e-09
1.027237701e-12
1.226734509e-09
9.917076362e-13
1.228041702e-09
9.508765205e-13
1.228412101e-09
9.048428796e-13
1.227897751e-09
8.538330055e-13
1.22654837e-09
7.978908305e-13
1.224411675e-09
7.371443031e-13
1.221533116e-09
6.718142413e-13
1.217956076e-09
6.019515166e-13
1.213722173e-09
5.277107786e-13
1.208871057e-09
4.493242733e-13
1.203440449e-09
3.668728701e-13
1.197466595e-09
2.805333239e-13
1.190983948e-09
1.905365338e-13
1.184025356e-09
9.696403889e-14
1.176622227e-09
1.168804506e-09
4.498307208e-15
4.570282948e-11
1.761027806e-14
1.337325685e-10
3.869594789e-14
2.168536864e-10
6.707285553e-14
2.952687164e-10
1.020103532e-13
3.691736327e-10
1.427124178e-13
4.387579257e-10
1.883462481e-13
5.042046796e-10
2.381786621e-13
5.656907062e-10
2.913820975e-13
6.233868695e-10
3.471010499e-13
6.774578334e-10
4.046939634e-13
7.280624926e-10
4.632237579e-13
7.753541733e-10
5.221776771e-13
8.194802908e-10
5.806787789e-13
8.605832064e-10
6.383080177e-13
8.987995851e-10
6.94265317e-13
9.342613183e-10
7.481745966e-13
9.670949397e-10
7.994522475e-13
9.974222577e-10
8.476530371e-13
1.025360453e-09
8.925511132e-13
1.051021724e-09
9.336230702e-13
1.074514286e-09
9.706415749e-13
1.09594177e-09
1.003341351e-12
1.115403673e-09
1.031380488e-12
1.132995632e-09
1.054662096e-12
1.148809137e-09
1.072983324e-12
1.162932109e-09
1.086129969e-12
1.175448818e-09
1.094086419e-12
1.186439922e-09
1.096765683e-12
1.195982789e-09
1.09402416e-12
1.204151576e-09
1.085886827e-12
1.211017204e-09
1.07243092e-12
1.216647567e-09
1.053546177e-12
1.22110779e-09
1.029283651e-12
1.224460102e-09
9.998331287e-13
1.226763959e-09
9.651459787e-13
1.228076389e-09
9.253105918e-13
1.228451936e-09
8.805242866e-13
1.227942538e-09
8.308224721e-13
1.226598072e-09
7.76332618e-13
1.224466165e-09
7.172488021e-13
1.221592199e-09
6.5362295e-13
1.218019702e-09
5.856014943e-13
1.213790194e-09
5.133968367e-13
1.208943261e-09
4.370939986e-13
1.203516751e-09
3.568584727e-13
1.197546831e-09
2.729101798e-13
1.191067897e-09
1.853380726e-13
1.184112928e-09
9.432204049e-14
1.176713243e-09
1.168898828e-09
4.399195906e-15
4.569843028e-11
1.722114943e-14
1.337197466e-10
3.783610788e-14
2.168330714e-10
6.554842446e-14
2.952410041e-10
9.964247172e-14
3.691395387e-10
1.393751848e-13
4.38718193e-10
1.839322581e-13
5.041601225e-10
2.324857645e-13
5.656421527e-10
2.843449131e-13
6.233350103e-10
3.386462505e-13
6.774035321e-10
3.946685886e-13
7.280064702e-10
4.516975978e-13
7.752971443e-10
5.089927684e-13
8.194229956e-10
5.659544158e-13
8.605262447e-10
6.219190577e-13
8.987436204e-10
6.763368252e-13
9.342069005e-10
7.287237391e-13
9.670425528e-10
7.785059088e-13
9.973724756e-10
8.254890912e-13
1.02531347e-09
8.690904761e-13
1.050978123e-09
9.090289959e-13
1.074474347e-09
9.450415141e-13
1.095905757e-09
9.76748636e-13
1.115371966e-09
1.004025977e-12
1.132968354e-09
1.026626366e-12
1.148786536e-09
1.0443233e-12
1.162914412e-09
1.057098847e-12
1.175436043e-09
1.0647845e-12
1.186432236e-09
1.067246983e-12
1.195980326e-09
1.064526481e-12
1.204154296e-09
1.056593102e-12
1.211025137e-09
1.043367249e-12
1.216660793e-09
1.024914154e-12
1.221126243e-09
1.001321513e-12
1.224483695e-09
9.72573058e-13
1.226792708e-09
9.38752768e-13
1.22811021e-09
9.000102395e-13
1.228490679e-09
8.563849892e-13
1.227986163e-09
8.07999628e-13
1.226646457e-09
7.550214404e-13
1.224519143e-09
6.975032618e-13
1.221649718e-09
6.355922308e-13
1.218081613e-09
5.694592932e-13
1.213856327e-09
4.992033113e-13
1.209013517e-09
4.250224061e-13
1.203590932e-09
3.470362465e-13
1.197624817e-09
2.653867284e-13
1.191149546e-09
1.802335098e-13
1.184198081e-09
9.171685276e-14
1.176801759e-09
1.168990545e-09
4.291806648e-15
4.569413847e-11
1.680279032e-14
1.337072356e-10
3.692569161e-14
2.168129485e-10
6.39753135e-14
2.952139545e-10
9.721605871e-14
3.691062979e-10
1.359153698e-13
4.386794937e-10
1.793383679e-13
5.041166995e-10
2.266621934e-13
5.655948289e-10
2.771075301e-13
6.23284565e-10
3.299999056e-13
6.773506397e-10
3.844608586e-13
7.279520093e-10
4.39935567e-13
7.752416696e-10
4.956189506e-13
8.193673123e-10
5.509968883e-13
8.604708668e-10
6.053408787e-13
8.986892765e-10
6.582717083e-13
9.341539697e-10
7.09128987e-13
9.669916955e-10
7.576519381e-13
9.973239526e-10
8.032756081e-13
1.025267846e-09
8.45645866e-13
1.050935753e-09
8.845070203e-13
1.074435486e-09
9.194394e-13
1.095870825e-09
9.502890749e-13
1.115341116e-09
9.767682498e-13
1.132941875e-09
9.98635664e-13
1.148764669e-09
1.015869904e-12
1.162897178e-09
1.028221876e-12
1.175423691e-09
1.03556679e-12
1.186424891e-09
1.037960994e-12
1.195977932e-09
1.035264995e-12
1.204156992e-09
1.027428961e-12
1.211032973e-09
1.014547292e-12
1.216673674e-09
9.965748665e-13
1.221144215e-09
9.735406277e-13
1.224506729e-09
9.455744652e-13
1.226820674e-09
9.126794799e-13
1.228143105e-09
8.749466223e-13
1.228528411e-09
8.325519023e-13
1.228028558e-09
7.855209193e-13
1.226693488e-09
7.339633856e-13
1.224570701e-09
6.780599111e-13
1.221705621e-09
6.178750241e-13
1.218141798e-09
5.535527671e-13
1.213920649e-09
4.852721858e-13
1.209081798e-09
4.131532642e-13
1.203663051e-09
3.373389958e-13
1.197700631e-09
2.579683243e-13
1.191228917e-09
1.75183133e-13
1.184280867e-09
8.915107853e-14
1.176887791e-09
1.169079696e-09
4.180666435e-15
4.568995781e-11
1.636660681e-14
1.336950497e-10
3.596158754e-14
2.167933535e-10
6.231114304e-14
2.951876049e-10
9.471660659e-14
3.690738925e-10
1.323973006e-13
4.38641813e-10
1.74626303e-13
5.040744705e-10
2.206883962e-13
5.655487668e-10
2.697628389e-13
6.232354905e-10
3.211467832e-13
6.772992558e-10
3.741611048e-13
7.27898995e-10
4.280183061e-13
7.751878124e-10
4.822034624e-13
8.193131271e-10
5.359454352e-13
8.604171248e-10
5.888393608e-13
8.986363825e-10
6.402123945e-13
9.341025967e-10
6.897177722e-13
9.669421902e-10
7.368454301e-13
9.97276825e-10
7.811463004e-13
1.025223545e-09
8.223789973e-13
1.05089452e-09
8.600807373e-13
1.074397784e-09
8.940656558e-13
1.09583684e-09
9.240102672e-13
1.115311171e-09
9.496553662e-13
1.13291623e-09
9.709756053e-13
1.148743349e-09
9.876434313e-13
1.16288051e-09
9.99540216e-13
1.175411794e-09
1.006715134e-12
1.186417717e-09
1.008965128e-12
1.195975682e-09
1.006245146e-12
1.204159712e-09
9.986452145e-13
1.211040573e-09
9.860549665e-13
1.216686265e-09
9.685115673e-13
1.221161758e-09
9.461499905e-13
1.224529091e-09
9.189116199e-13
1.226847912e-09
8.868919561e-13
1.228175124e-09
8.502653315e-13
1.228565038e-09
8.0902891e-13
1.228069794e-09
7.632891555e-13
1.226739228e-09
7.132081721e-13
1.224620782e-09
6.588506727e-13
1.221759979e-09
6.003492327e-13
1.218200299e-09
5.378642774e-13
1.213983134e-09
4.715160708e-13
1.209148146e-09
4.014559679e-13
1.203733111e-09
3.277867998e-13
1.1977743e-09
2.506587881e-13
1.191306045e-09
1.702289543e-13
1.184361296e-09
8.663121209e-14
1.176971389e-09
1.169166327e-09
4.071636036e-15
4.568588617e-11
1.593607156e-14
1.336831852e-10
3.500067951e-14
2.167742889e-10
6.062629693e-14
2.951619793e-10
9.213347073e-14
3.690423853e-10
1.288146071e-13
4.386051319e-10
1.698866102e-13
5.040333985e-10
2.146345139e-13
5.655040189e-10
2.623726294e-13
6.231877524e-10
3.122860776e-13
6.772493423e-10
3.637711793e-13
7.278475099e-10
4.161246099e-13
7.751354589e-10
4.687092013e-13
8.192605425e-10