/*--------------------------------*- C++ -*----------------------------------*\
  =========                 |
  \\      /  F ield         | OpenFOAM: The Open Source CFD Toolbox
   \\    /   O peration     | Website:  https://openfoam.org
    \\  /    A nd           | Version:  7
     \\/     M anipulation  |
\*---------------------------------------------------------------------------*/
FoamFile
{
    version     2.0;
    format      ascii;
    class       volScalarField;
    location    "0.0015";
    object      rho;
}
// * * * * * * * * * * * * * * * * * * * * * * * * * * * * * * * * * * * * * //

dimensions      [1 -3 0 0 0 0 0];

internalField   nonuniform List<scalar> 
1166
(
980.1218929
980.0797701
979.9894934
979.8561458
979.6826452
979.4715661
979.2256796
978.9470959
978.6380904
978.301113
977.9379273
977.5509468
977.1417668
976.712455
976.2647789
975.8002725
975.3208987
974.8279568
979.3577392
979.3159936
979.2265321
979.0944054
978.9225237
978.7134589
978.4700198
978.194186
977.8883317
977.5547801
977.1953649
976.8123884
976.4075413
975.9828012
975.5399762
975.0805554
974.6064426
974.1190041
973.6196501
973.1099718
972.5912946
972.0647508
971.5315501
970.9930858
970.4503571
969.9043148
969.3558923
968.8060868
968.255719
967.7053432
967.1555855
966.6070212
966.0603398
965.5158505
964.9738696
964.4347487
963.898964
963.3669254
962.8387388
962.3146929
961.7951329
961.2803665
960.770431
960.2655025
959.7658643
959.2716805
958.7829211
958.2996934
957.8224078
957.3507926
978.6120736
978.5707315
978.482138
978.3513025
978.1811155
977.9741627
977.7331741
977.4601359
977.1574217
976.8272912
976.4716263
976.0926762
975.6921322
975.2719627
974.8339185
974.3794926
973.9106513
973.4286554
972.9349413
972.4311748
971.9185157
971.3981644
970.8713604
970.3395613
969.8035475
969.2643106
968.7227849
968.1800074
967.6365441
967.0930198
966.550053
966.0082923
965.4682668
964.9302217
964.3945541
963.8617132
963.3322638
962.8062709
962.2840552
961.7659354
961.2523394
960.7432821
960.2389538
959.7396193
959.2455453
958.7566756
958.2731222
957.7953034
957.3230104
956.8563082
977.8846601
977.8437322
977.7560281
977.6265102
977.4580438
977.2531966
977.0146489
976.7444044
976.4448153
976.1181249
975.7661818
975.3912586
974.9949741
974.5793142
974.1460125
973.6965601
973.2329362
972.7563447
972.2682367
971.7703055
971.2636161
970.7494331
970.2291042
969.7037924
969.1743724
968.6418121
968.1070828
967.5710479
967.0342384
966.4973178
965.9609026
965.4257293
964.8919819
964.3601033
963.8305413
963.3039536
962.7804205
962.2602799
961.7438493
961.2316189
960.7236293
960.2200751
959.7212151
959.2273947
958.738545
958.2547956
957.7765506
957.303675
956.836221
956.374507
977.1751173
977.1346012
977.0477815
976.9195745
976.7528224
976.5500543
976.3139653
976.0465199
975.7500256
975.4267748
975.0785206
974.70757
974.3154833
973.9043444
973.4757307
973.0312438
972.572793
972.1015442
971.6190263
971.1268601
970.6261219
970.118078
969.6041258
969.0851973
968.5622346
968.0361576
967.5080943
966.9785171
966.448126
965.9175437
965.3876089
964.8585509
964.3308253
963.804915
963.2814735
962.7606901
962.2428919
961.7284193
961.2177706
960.7110568
960.2084684
959.7102699
959.2168628
958.7281785
958.2443648
957.7658253
957.2924747
956.8243644
956.3618054
955.9047599
976.4829716
976.4428701
976.3569396
976.2300485
976.0650125
975.8643243
975.6306595
975.3660119
975.072576
974.752716
974.4080802
974.0411134
973.653193
973.2465295
972.8225682
972.3830647
971.9296897
971.4637206
970.9868234
970.5003883
970.0055518
969.5036069
968.9958879
968.4831968
967.9665087
967.4469004
966.9251103
966.4017673
965.8775421
965.3532592
964.8293124
964.3061321
963.7842382
963.2642897
962.7465703
962.2314047
961.7191594
961.2103504
960.7051406
960.2037281
959.7063951
959.2135778
958.7252199
958.2414885
957.7628002
957.2890953
956.820437
956.3571432
955.8992033
955.446575
975.8078048
975.7681169
975.6830736
975.5574952
975.3941714
975.1955728
974.9642637
974.7023703
974.4119302
974.0954685
973.7545075
973.3914036
973.0076166
972.6054195
972.1860606
971.7514811
971.3031471
970.842437
970.371177
969.8904028
969.4013535
968.905522
968.4038173
967.8971896
967.3866673
966.8732551
966.3575134
965.8401627
965.3220203
964.8036366
964.2854231
963.7679379
963.2518552
962.7375392
962.2253205
961.7155943
961.2089042
960.7054469
960.2054401
959.7091944
959.2171607
958.7293071
958.2458203
957.7671429
957.2932188
956.8241343
956.3602285
955.9014941
955.4479083
954.9997853
975.1492192
975.1099084
975.0257376
974.90145
974.7398097
974.5432658
974.3142802
974.0551447
973.7677743
973.4545743
973.1172639
972.7579934
972.3784194
971.9805321
971.565709
971.136057
970.6927453
970.2374132
969.7716013
969.2963871
968.8131562
968.3231953
967.8273405
967.3265939
966.8221679
966.3146176
965.8046938
965.2932127
964.7808762
964.2680814
963.7554261
963.2436083
962.7330613
962.2241288
961.7172371
961.2129664
960.7115314
960.2131801
959.7182618
959.2272237
958.7400689
958.2570052
957.7785131
957.304519
956.8351433
956.3707599
955.9113425
955.4568986
955.0077696
954.563927
974.5067486
974.4678147
974.3844369
974.2614414
974.1014862
973.9069984
973.6802971
973.4238853
973.1395596
972.8295936
972.4959396
972.1404407
971.7650289
971.3714161
970.9612675
970.5364059
970.0980853
969.6480907
969.1876095
968.7178677
968.2404051
967.7560783
967.2658932
966.7710431
966.2723117
965.7704035
965.2661379
964.7603655
964.2534725
963.7460983
963.2389721
962.7325867
962.2273053
961.7235879
961.2220598
960.722939
960.2265137
959.7331821
959.2433703
958.7571269
958.2746815
957.7965647
957.3226649
956.8531476
956.3884343
955.9284584
955.4732682
955.0232457
954.5783258
954.1384926
973.8799523
973.8414226
973.7588638
973.6370599
973.4787676
973.2863119
973.0619598
972.8081724
972.5268962
972.2201136
971.8900696
971.5382928
971.1670479
970.7776909
970.3722448
969.9521081
969.5187887
969.0739842
968.6187311
968.1544954
967.6824943
967.2036221
966.7190535
966.2298069
965.7365396
965.2400775
964.7414197
964.240944
963.7393327
963.2373531
962.7355499
962.2343113
961.7341333
961.2356943
960.7392025
960.2449957
959.7535301
959.2651949
958.7800941
958.2984898
957.820944
957.3473189
956.8778246
956.412943
955.9525467
955.496735
955.0459433
954.6000484
954.1590843
953.7234834
973.2683763
973.2302463
973.1485455
973.0279133
972.8712339
972.6808158
972.4588494
972.2075985
971.9293317
971.6257644
971.2992471
970.9513131
970.584111
970.19906
969.7981996
969.3827005
968.9544483
968.5146211
968.0644928
967.6056576
967.1388914
966.6653491
966.1862925
965.7023295
965.2143276
964.7233325
964.229823
963.7344886
963.2381401
962.7413689
962.2445924
961.7483452
961.2533658
960.7598418
960.2681686
959.778869
959.2922813
958.8085735
958.328079
957.8512882
957.3781345
956.9088431
956.4439687
955.9833035
955.5270079
955.0755826
954.6288258
954.1868523
953.7500883
953.3182604
972.6716429
972.6339134
972.5530722
972.4337116
972.2785027
972.090094
971.8704836
971.6218037
971.3464688
971.0462215
970.7231188
970.3790984
970.0158433
969.6351769
969.2387001
968.8279122
968.4044953
967.9695174
967.5246089
967.0707858
966.6090981
966.1409291
965.6669727
965.1880968
964.7053781
964.2194177
963.7309067
963.240704
962.7494444
962.2575781
961.7657014
961.2745555
960.7843629
960.2955617
959.8087499
959.3242017
958.8421577
958.3630321
957.8872278
957.4147595
956.9459157
956.4811883
956.0204212
955.5638265
955.1118827
954.6643905
954.2215546
953.7837089
953.3506483
952.9226238
972.0893473
972.0520128
971.9720191
971.8539139
971.7003395
971.5137374
971.2964837
971.0504987
970.7779631
970.4810501
970.1613485
969.821196
969.4618287
969.0855099
968.6933393
968.2872761
967.8684635
967.4383627
966.9983622
966.5494033
966.0928541
965.6296459
965.1605941
964.6868075
964.2090141
963.7279067
963.2443957
962.7591582
962.2726794
961.785629
961.2987289
960.8122567
960.3266904
959.8427103
959.3605158
958.8804271
958.4029485
957.928381
957.4568297
956.9886661
956.5242711
956.0635834
955.6068892
955.154554
954.7064651
954.2629028
953.8240897
953.3898998
952.9606536
952.5363347
971.5210861
971.4841466
971.4050012
971.2881531
971.1362231
970.9515404
970.7365149
970.493238
970.2235938
969.9298867
969.6137646
969.2772049
968.921937
968.5496413
968.1618583
967.7602346
967.3459027
966.9206476
966.4852908
966.0411814
965.5895025
965.1310111
964.6668482
964.197876
963.7247868
963.2485455
962.7698722
962.289289
961.8075436
961.3253345
960.8429983
960.3610548
959.8802737
959.4007696
958.9229494
958.4474157
957.9743548
957.5039706
957.0367263
956.572877
956.112466
955.6558622
955.2033015
954.7547681
954.3106278
953.8709739
953.4357697
953.0054163
952.5797754
952.1589049
970.9666825
970.9300815
970.8516833
970.7361008
970.585826
970.4031701
970.1903152
969.9496773
969.6830273
969.3923372
969.079785
968.7467569
968.3955094
968.0271357
967.6437444
967.246335
966.8366406
966.4158034
965.9849946
965.5456678
965.0985132
964.6447026
964.1852427
963.7208222
963.2524615
962.7809278
962.3067797
961.8308471
961.3538032
960.8760464
960.3981918
959.9209476
959.4444947
958.9692786
958.4960087
958.0247446
957.5557972
957.0897292
956.6266561
956.1667355
955.7104274
955.2578221
954.8090105
954.3644537
953.924098
953.4880064
953.0566707
952.6298129
952.207647
951.7904325
970.4257837
970.3895827
970.312023
970.197525
970.0488362
969.8681911
969.6576857
969.4194405
969.1557786
968.8682634
968.5590256
968.2297394
967.882137
967.5178725
967.1384589
966.7453128
966.3399562
965.9233718
965.4972388
965.062238
964.6195466
964.1703283
963.7152636
963.2554288
962.7916436
962.3245027
961.8549208
961.3835464
960.9108406
960.437526
959.9642254
959.4912093
959.0190135
958.5482879
958.0791324
957.6119247
957.1472959
956.685248
956.226049
955.7702576
955.3178042
954.8689127
954.4240971
953.9831922
953.546436
953.1141687
952.68621
952.2628628
951.8442372
951.4302249
969.8979954
969.8621913
969.7854825
969.6722416
969.5250183
969.3462571
969.1380978
968.9024646
968.6414924
968.3571867
968.0510991
967.7254773
967.3814782
967.0211661
966.6456086
966.2567376
965.8554126
965.4432833
965.0212951
964.5905283
964.1523199
963.7073359
963.2567072
962.8013146
962.3417865
961.8791246
961.4139542
960.9468007
960.4784983
960.0095811
959.5404128
959.0716452
958.603801
958.1370877
957.6720093
957.2090357
956.748281
956.2901436
955.8350156
955.3829266
954.9342337
954.4892662
954.0479782
953.6107223
953.1776588
952.748727
952.3243237
951.9043919
951.4889958
951.0784562
969.3829926
969.3475845
969.2717249
969.1597395
969.0141515
968.8372069
968.6312106
968.3981929
968.1399476
967.8586405
967.5559425
967.2335618
966.8933312
966.5366026
966.1650972
965.780031
965.3828425
964.9747666
964.5567692
964.1303785
963.6962383
963.2555316
962.8092114
962.3579363
961.9027954
961.4443957
960.9833262
960.520536
960.05647
959.5915872
959.1266604
958.6620799
958.1981652
957.7355538
957.2745453
956.8153713
956.3585733
955.9043532
955.4528583
955.0045838
954.5596602
954.1181695
953.6805882
953.2468806
952.8171275
952.3917916
951.9706691
951.5540272
951.1420064
950.734465
968.8807003
968.845626
968.770482
968.659694
968.5157138
968.3407223
968.1368135
967.9062151
967.6508156
967.3722942
967.0728413
966.7537943
966.4170478
966.0639668
965.6961995
965.3149291
964.9217069
964.517396
964.1036377
963.6811433
963.2511112
962.8145797
962.3722331
961.9252474
961.4742176
961.0197953
960.5630468
960.1043286
959.6441963
959.1835486
958.7226394
958.2619039
957.8021194
957.3434072
956.8861222
956.4309564
955.9779112
955.5272573
955.0796372
954.6349696
954.1935012
953.7557518
953.3215659
952.8912372
952.4650236
952.0428373
951.6250743
951.2116781
950.8026706
950.3984276
968.3906912
968.3560021
968.281683
968.1719713
968.0293604
967.8562922
967.6546169
967.4263115
967.1735393
966.8980275
966.601431
966.2857896
965.9522474
965.6028621
965.2385271
964.8611418
964.4714837
964.0712031
963.6611961
963.2426283
962.8166392
962.383933
961.9457703
961.5027434
961.055564
960.6054169
960.152573
959.6977245
959.2417819
958.784978
958.3278847
957.8712517
957.4151908
956.9601955
956.5069006
956.0553175
955.6058687
955.159056
954.7148731
954.273729
953.8359213
953.4014371
952.9707062
952.5437671
952.120656
951.7019072
951.2872515
950.8769392
950.4711446
950.0697313
967.9125266
967.8782167
967.804709
967.6961932
967.5551112
967.3836343
967.18406
966.9582076
966.7078793
966.4351889
966.1416618
965.828995
965.4989323
965.1527233
964.7920619
964.4180347
964.0321497
963.6355125
963.2292368
962.8145823
962.3922656
961.9636286
961.5292724
961.0900188
960.6470091
960.2005971
959.7516023
959.300811
958.8485737
958.3956058
957.9424783
957.4894466
957.0371443
956.5860001
956.1361857
955.6882565
955.2424914
954.7990392
954.3584535
953.9207981
953.4862102
953.0552643
952.6277654
952.2039949
951.7842903
951.3685027
950.9570101
950.5497696
950.1468522
949.7485813
967.4460471
967.4120502
967.3392127
967.2318588
967.0922849
966.9226376
966.7249399
966.50134
966.2536414
965.9834674
965.6929174
965.3832936
965.0563289
964.7134367
964.3560577
963.9855247
963.60318
963.2100622
962.8075733
962.3964329
961.9780596
961.5530773
961.1224133
960.687163
960.2477721
959.8051844
959.3600655
958.9128835
958.464501
958.0153085
957.5657079
957.1164778
956.6678349
956.2201166
955.774017
955.3295833
954.8871706
954.4473496
954.0100737
953.5757193
953.1446288
952.7167496
952.2925022
951.8719823
951.4552124
951.0426632
950.6340924
950.229813
949.8299238
949.4343552
966.9909523
966.9573157
966.8852495
966.778859
966.6405361
966.4726678
966.2770329
966.0555309
965.8101985
965.5428015
965.2548005
964.9482366
964.6242032
964.2845314
963.9303463
963.5632569
963.1842015
962.7947482
962.3956094
961.9882738
961.5734046
961.1520243
960.7251937
960.2934456
959.8578489
959.4189537
958.9773448
958.5340345
958.0892331
957.6435522
957.1977354
956.7519678
956.3068108
955.8627553
955.4199567
954.9789608
954.5400782
954.1034256
953.6695437
953.238511
952.8104479
952.3859066
951.9647356
951.5472523
951.1336719
950.723898
950.3183801
949.9169779
949.5198815
949.127272
966.4421083
966.3368228
966.199928
966.0335195
965.8397349
965.620498
965.3774402
965.1124788
964.8273088
964.5232884
964.202402
963.8656007
963.5147709
963.1507213
962.7752136
962.3889405
961.9934537
961.5894741
961.1781065
960.7603909
960.3369414
959.9089515
959.4768632
959.041467
958.6036478
958.1637219
957.7224741
957.2804387
956.8379445
956.395737
955.9540614
955.5132224
955.0739504
954.636288
954.2005607
953.7673587
953.3366092
952.9087079
952.4839353
952.0622909
951.6442652
951.2298042
950.8190371
950.412343
950.0095431
949.6110315
949.2167442
948.8267746
)
;

boundaryField
{
    front_top
    {
        type            wedge;
    }
    front_middle
    {
        type            wedge;
    }
    front_bottom
    {
        type            wedge;
    }
    back_top
    {
        type            wedge;
    }
    back_middle
    {
        type            wedge;
    }
    back_bottom
    {
        type            wedge;
    }
    axis_top
    {
        type            symmetryPlane;
    }
    axis_middle
    {
        type            symmetryPlane;
    }
    axis_bottom
    {
        type            symmetryPlane;
    }
    wall_top
    {
        type            calculated;
        value           nonuniform List<scalar> 
23
(
957.1160736
956.6241757
956.1446352
955.6771946
955.2213746
954.7766599
954.3429299
953.9196701
953.5064629
953.1032984
952.7094897
952.3250173
951.9494538
951.5825921
951.2241847
950.8738943
950.5316218
950.1969913
949.8699402
949.55013
949.237446
948.9316627
948.6325363
)
;
    }
    wall_middle
    {
        type            calculated;
        value           nonuniform 0();
    }
    wall_bottom
    {
        type            calculated;
        value           nonuniform 0();
    }
    inlet
    {
        type            calculated;
        value           nonuniform 0();
    }
    outlet
    {
        type            calculated;
        value           nonuniform 0();
    }
    procBoundary9to8
    {
        type            processor;
        value           nonuniform List<scalar> 
51
(
966.5467084
966.5134232
966.5134232
966.0095592
965.9052262
965.7697263
965.6050031
965.4130045
965.1956538
964.954978
964.6923841
964.4097096
964.1085866
963.7903245
963.4567176
963.1087106
962.7480444
962.3755416
961.9927519
961.6004764
961.1998862
960.7920169
960.377576
959.9578204
959.5331541
959.1045554
958.6727647
958.2382265
957.8018937
957.3640916
956.9253096
956.4864341
956.0475099
955.6090802
955.1717542
954.7356139
954.301203
953.8688338
953.43861
953.0111016
952.5863061
952.1644354
951.745995
951.3308173
950.9192774
950.5114824
950.1074351
949.7076064
949.3117456
948.9202035
948.5329374
)
;
    }
    procBoundary9to10
    {
        type            processor;
        value           nonuniform List<scalar> 
51
(
980.9047012
980.8621842
980.7711742
980.6367205
980.4617382
980.2487896
980.0005588
979.7193424
979.4072378
979.0668937
978.6999314
978.3089348
977.8953973
977.4615243
977.008961
976.539329
976.054617
975.5561145
974.3228915
974.3228915
973.8073084
973.2825193
972.7497058
972.2100898
971.6649578
971.1154143
970.5624297
970.0069897
969.4499713
968.8924794
968.3349973
967.7781891
967.222645
966.6689464
966.1176846
965.5690904
965.0235078
964.4812429
963.9428106
963.4084464
962.8783097
962.3526565
961.8318735
961.316125
960.8054822
960.3001099
959.800323
959.3061575
958.8176242
958.3348702
957.8581785
)
;
    }
}


// ************************************************************************* //
