/*--------------------------------*- C++ -*----------------------------------*\
  =========                 |
  \\      /  F ield         | OpenFOAM: The Open Source CFD Toolbox
   \\    /   O peration     | Website:  https://openfoam.org
    \\  /    A nd           | Version:  7
     \\/     M anipulation  |
\*---------------------------------------------------------------------------*/
FoamFile
{
    version     2.0;
    format      ascii;
    class       volVectorField;
    location    "0.0015";
    object      U;
}
// * * * * * * * * * * * * * * * * * * * * * * * * * * * * * * * * * * * * * //

dimensions      [0 1 -1 0 0 0 0];

internalField   nonuniform List<vector> 
1166
(
(1.932071268e-08 7.555134716e-20 -0.002115084252)
(5.046523121e-08 1.532996211e-19 -0.002115087734)
(7.969116258e-08 2.397699889e-19 -0.002115095186)
(1.094055291e-07 1.312579151e-19 -0.00211510619)
(1.384838239e-07 5.821953734e-20 -0.002115120477)
(1.666114313e-07 1.172191593e-19 -0.002115137807)
(1.936631034e-07 1.691524403e-19 -0.002115157949)
(2.195641133e-07 2.218928183e-19 -0.002115180691)
(2.44236133e-07 1.978242876e-19 -0.00211520582)
(2.676082002e-07 1.829361234e-19 -0.002115233138)
(2.896201316e-07 1.722743423e-19 -0.002115262454)
(3.102216991e-07 1.62937446e-19 -0.002115293586)
(3.29370302e-07 1.489797201e-19 -0.002115326363)
(3.470265039e-07 1.724955543e-19 -0.002115360619)
(3.631558698e-07 1.895796966e-19 -0.00211539619)
(3.777216418e-07 2.048027475e-19 -0.002115432926)
(3.907081751e-07 2.203787217e-19 -0.00211547068)
(4.021009456e-07 2.379752112e-19 -0.002115509312)
(2.003758415e-08 6.737070377e-20 -0.002116502858)
(5.233208018e-08 1.267801421e-19 -0.002116506111)
(8.261214354e-08 1.729047151e-19 -0.002116513079)
(1.133553019e-07 2.283363015e-19 -0.002116523369)
(1.433816651e-07 2.871620959e-19 -0.002116536728)
(1.723592788e-07 2.038682153e-19 -0.002116552935)
(2.001714585e-07 1.297043834e-19 -0.002116571781)
(2.267466904e-07 4.15803581e-20 -0.002116593073)
(2.520093066e-07 7.923058252e-20 -0.00211661662)
(2.758956428e-07 8.30128231e-20 -0.002116642245)
(2.983496861e-07 6.502807421e-20 -0.002116669772)
(3.193224331e-07 9.067544477e-20 -0.002116699035)
(3.387712861e-07 1.069308492e-19 -0.002116729872)
(3.566544889e-07 1.281494201e-19 -0.002116762131)
(3.729430417e-07 1.471223318e-19 -0.002116795662)
(3.876127372e-07 1.618649225e-19 -0.002116830328)
(4.006426423e-07 1.723360828e-19 -0.002116865995)
(4.12015728e-07 1.788936574e-19 -0.002116902535)
(4.21716089e-07 1.817256878e-19 -0.002116939828)
(4.297228155e-07 1.819547889e-19 -0.002116977757)
(4.360258652e-07 1.795159915e-19 -0.002117016211)
(4.406281115e-07 1.751657865e-19 -0.002117055086)
(4.435242074e-07 1.69566228e-19 -0.002117094283)
(4.446912126e-07 1.627704639e-19 -0.002117133703)
(4.441232329e-07 1.543723083e-19 -0.00211717325)
(4.418431081e-07 1.676419958e-19 -0.002117212836)
(4.378727637e-07 1.791431234e-19 -0.002117252374)
(4.322240555e-07 2.001987974e-19 -0.002117291779)
(4.24943139e-07 2.203121077e-19 -0.002117330967)
(4.161096578e-07 2.304751681e-19 -0.002117369858)
(4.057916593e-07 2.402212452e-19 -0.002117408366)
(3.940462984e-07 2.495588718e-19 -0.002117446402)
(3.809312089e-07 2.585336387e-19 -0.002117483871)
(3.665363051e-07 2.67391524e-19 -0.002117520672)
(3.509627298e-07 2.761800102e-19 -0.002117556702)
(3.342811623e-07 2.851180652e-19 -0.002117591845)
(3.165297339e-07 2.945880868e-19 -0.002117625969)
(2.977626219e-07 2.975234079e-19 -0.002117658937)
(2.780608269e-07 3.011623217e-19 -0.002117690599)
(2.574832684e-07 3.054398818e-19 -0.002117720797)
(2.360612615e-07 3.10378488e-19 -0.002117749354)
(2.138412751e-07 3.160481428e-19 -0.002117776084)
(1.90893856e-07 3.225978625e-19 -0.002117800791)
(1.672711715e-07 3.303130992e-19 -0.002117823266)
(1.430037788e-07 3.398600403e-19 -0.002117843286)
(1.181374554e-07 3.413635553e-19 -0.002117860617)
(9.272236777e-08 3.447810646e-19 -0.002117875016)
(6.67901653e-08 3.446089165e-19 -0.002117886227)
(4.051577255e-08 3.457915834e-19 -0.002117893982)
(1.441376183e-08 3.437451519e-19 -0.002117898004)
(2.063010162e-08 3.460090164e-20 -0.002117879864)
(5.387119963e-08 3.131739849e-20 -0.002117882911)
(8.501527407e-08 -5.890516242e-22 -0.002117889451)
(1.166047569e-07 1.819854504e-19 -0.002117899112)
(1.474154158e-07 3.194347605e-19 -0.002117911663)
(1.771055382e-07 2.937287407e-19 -0.0021179269)
(2.055660665e-07 2.768054657e-19 -0.002117944636)
(2.327254269e-07 2.635440213e-19 -0.002117964692)
(2.585063502e-07 2.426203938e-19 -0.002117986895)
(2.828447605e-07 2.151556047e-19 -0.002118011078)
(3.056845724e-07 1.758320625e-19 -0.002118037079)
(3.269735907e-07 1.721719905e-19 -0.002118064745)
(3.466709666e-07 1.532303214e-19 -0.002118093927)
(3.647425948e-07 1.740224795e-19 -0.002118124485)
(3.81163089e-07 1.861680967e-19 -0.002118156284)
(3.95910765e-07 1.927619436e-19 -0.002118189196)
(4.089568552e-07 1.955253508e-19 -0.002118223098)
(4.202828701e-07 1.95425521e-19 -0.002118257872)
(4.298782548e-07 1.929103899e-19 -0.002118293408)
(4.377211823e-07 1.890176222e-19 -0.002118329599)
(4.438065713e-07 1.830525256e-19 -0.002118366345)
(4.481379847e-07 1.751012094e-19 -0.002118403549)
(4.506916104e-07 1.650978771e-19 -0.002118441118)
(4.514544249e-07 1.660786668e-19 -0.002118478957)
(4.504500759e-07 1.654395606e-19 -0.002118516982)
(4.47710453e-07 1.746049484e-19 -0.002118555112)
(4.43257545e-07 1.828548929e-19 -0.002118593268)
(4.371228795e-07 2.012160777e-19 -0.002118631366)
(4.293766709e-07 2.190313842e-19 -0.002118669332)
(4.201024049e-07 2.376917771e-19 -0.002118707086)
(4.093658202e-07 2.56502349e-19 -0.002118744544)
(3.972167928e-07 2.66941031e-19 -0.002118781615)
(3.837353842e-07 2.694470406e-19 -0.002118818204)
(3.690304361e-07 2.725035507e-19 -0.002118854212)
(3.531811692e-07 2.76123447e-19 -0.00211888953)
(3.362246656e-07 2.801023668e-19 -0.002118924035)
(3.182069141e-07 2.842513578e-19 -0.00211895759)
(2.992106239e-07 2.88549064e-19 -0.002118990057)
(2.793042458e-07 2.931256441e-19 -0.002119021282)
(2.585207529e-07 2.979608164e-19 -0.002119051098)
(2.369011468e-07 3.030463603e-19 -0.002119079323)
(2.145173482e-07 3.083713708e-19 -0.002119105771)
(1.914298893e-07 3.139130059e-19 -0.00211913024)
(1.676699086e-07 3.139099163e-19 -0.002119152515)
(1.432820542e-07 3.137298923e-19 -0.002119172369)
(1.183307138e-07 3.13174452e-19 -0.002119189568)
(9.283999886e-08 3.121499845e-19 -0.002119203864)
(6.683760963e-08 3.105038424e-19 -0.002119214997)
(4.052971382e-08 3.081102147e-19 -0.002119222702)
(1.441170307e-08 3.049364813e-19 -0.002119226699)
(2.11092947e-08 7.879529113e-20 -0.002119217189)
(5.511646891e-08 1.566275705e-19 -0.002119220063)
(8.696335707e-08 2.06332859e-19 -0.002119226241)
(1.192471153e-07 2.499908355e-19 -0.002119235374)
(1.507091504e-07 2.926035696e-19 -0.002119247246)
(1.810038162e-07 3.367758162e-19 -0.002119261668)
(2.100171272e-07 3.947741547e-19 -0.002119278469)
(2.376701491e-07 4.814063701e-19 -0.002119297482)
(2.638881239e-07 4.334003255e-19 -0.002119318543)
(2.88602533e-07 4.311047868e-19 -0.0021193415)
(3.117573285e-07 4.638026677e-19 -0.002119366204)
(3.33306572e-07 3.984143835e-19 -0.002119392513)
(3.532126794e-07 3.633424227e-19 -0.002119420292)
(3.714388569e-07 3.209410909e-19 -0.002119449412)
(3.879564606e-07 2.930827159e-19 -0.002119479748)
(4.027405008e-07 2.74439536e-19 -0.002119511182)
(4.157634966e-07 2.616149324e-19 -0.002119543598)
(4.270135497e-07 2.524354925e-19 -0.002119576889)
(4.364760301e-07 2.45486207e-19 -0.002119610957)
(4.441339932e-07 2.419634821e-19 -0.002119645701)
(4.499842242e-07 2.397392629e-19 -0.002119681027)
(4.540196715e-07 2.38416915e-19 -0.002119716847)
(4.56213835e-07 2.377660672e-19 -0.002119753071)
(4.565790073e-07 2.363368857e-19 -0.002119789617)
(4.551639527e-07 2.352718736e-19 -0.002119826407)
(4.520030419e-07 2.327165251e-19 -0.002119863368)
(4.471160068e-07 2.301573957e-19 -0.002119900421)
(4.405590058e-07 2.260717727e-19 -0.00211993749)
(4.324263685e-07 2.213404477e-19 -0.002119974505)
(4.227935136e-07 2.260785685e-19 -0.002120011385)
(4.117092694e-07 2.296035711e-19 -0.002120048045)
(3.992419363e-07 2.325620285e-19 -0.002120084392)
(3.855006713e-07 2.349811549e-19 -0.002120120335)
(3.705737952e-07 2.364708307e-19 -0.002120155771)
(3.545007655e-07 2.462684778e-19 -0.002120190581)
(3.373222719e-07 2.554943328e-19 -0.002120224637)
(3.19119951e-07 2.565187953e-19 -0.002120257803)
(2.999692053e-07 2.567204679e-19 -0.002120289937)
(2.79905575e-07 2.630836151e-19 -0.002120320875)
(2.589667295e-07 2.68892666e-19 -0.002120350444)
(2.372249742e-07 2.743577756e-19 -0.002120378464)
(2.147478357e-07 2.798368286e-19 -0.002120404743)
(1.915669305e-07 2.855976994e-19 -0.002120429071)
(1.677233203e-07 2.925309423e-19 -0.002120451229)
(1.432873543e-07 2.944592555e-19 -0.002120470991)
(1.183001169e-07 2.969895353e-19 -0.002120488117)
(9.277537187e-08 3.001774736e-19 -0.002120502354)
(6.677444035e-08 3.041280839e-19 -0.002120513445)
(4.049037173e-08 3.039540217e-19 -0.002120521121)
(1.439045602e-08 3.048806547e-19 -0.002120525101)
(2.149983201e-08 1.997738218e-19 -0.002120516773)
(5.613114423e-08 5.065177617e-19 -0.002120519502)
(8.85517098e-08 5.005727042e-19 -0.002120525379)
(1.21404302e-07 3.466424507e-19 -0.002120534072)
(1.53401575e-07 2.757552911e-19 -0.002120545374)
(1.841916644e-07 2.514137906e-19 -0.00212055911)
(2.136563585e-07 2.530638475e-19 -0.002120575116)
(2.417093173e-07 2.739484535e-19 -0.00212059324)
(2.682783521e-07 3.13876939e-19 -0.002120613331)
(2.932982241e-07 3.034756403e-19 -0.002120635249)
(3.167138589e-07 3.2374613e-19 -0.002120658854)
(3.384759766e-07 3.12233246e-19 -0.002120684016)
(3.58544068e-07 3.226248853e-19 -0.002120710611)
(3.768789855e-07 2.942156205e-19 -0.002120738517)
(3.934498031e-07 2.779441322e-19 -0.002120767621)
(4.082261216e-07 2.695335118e-19 -0.002120797811)
(4.211885376e-07 2.66641448e-19 -0.002120828983)
(4.323375741e-07 2.680281971e-19 -0.00212086104)
(4.416420733e-07 2.543870588e-19 -0.00212089389)
(4.490823839e-07 2.618033382e-19 -0.002120927437)
(4.546636777e-07 2.709080243e-19 -0.002120961594)
(4.58377721e-07 2.813760448e-19 -0.00212099628)
(4.602165148e-07 2.930100245e-19 -0.00212103141)
(4.602129367e-07 2.911090755e-19 -0.002121066914)
(4.58421356e-07 2.895960492e-19 -0.002121102721)
(4.548713651e-07 2.85677806e-19 -0.002121138758)
(4.496042531e-07 2.812778858e-19 -0.002121174951)
(4.427056799e-07 2.642231584e-19 -0.002121211232)
(4.342637047e-07 2.571480864e-19 -0.002121247528)
(4.24331754e-07 2.492392644e-19 -0.002121283758)
(4.129692917e-07 2.400856573e-19 -0.002121319833)
(4.002818094e-07 2.393418535e-19 -0.002121355667)
(3.863656996e-07 2.466011457e-19 -0.002121391163)
(3.712627172e-07 2.524040943e-19 -0.002121426209)
(3.550094899e-07 2.560723878e-19 -0.002121460681)
(3.376855632e-07 2.58293881e-19 -0.00212149445)
(3.193715762e-07 2.597988057e-19 -0.002121527381)
(3.001060936e-07 2.598455968e-19 -0.002121559317)
(2.799250026e-07 2.569975188e-19 -0.002121590093)
(2.589003766e-07 2.523266543e-19 -0.002121619533)
(2.371043917e-07 2.38612914e-19 -0.002121647453)
(2.145701803e-07 2.280157714e-19 -0.002121673653)
(1.913367844e-07 2.254196338e-19 -0.002121697919)
(1.674764996e-07 2.262263765e-19 -0.002121720033)
(1.430379651e-07 2.322779214e-19 -0.002121739762)
(1.180470155e-07 2.374791939e-19 -0.002121756861)
(9.25499126e-08 2.411506327e-19 -0.002121771079)
(6.659804534e-08 2.431837792e-19 -0.002121782157)
(4.036025421e-08 2.444579173e-19 -0.002121789822)
(1.433016478e-08 2.450860719e-19 -0.002121793794)
(2.181745642e-08 2.827728449e-20 -0.0021217804)
(5.695568399e-08 1.249637708e-20 -0.002121783005)
(8.98411648e-08 -1.96235516e-20 -0.002121788625)
(1.231532476e-07 -5.914040377e-20 -0.002121796942)
(1.555786481e-07 -1.205577178e-19 -0.002121807759)
(1.867569956e-07 -5.094006164e-20 -0.002121820911)
(2.165784624e-07 -1.661352882e-20 -0.002121836244)
(2.449576998e-07 -6.25783354e-21 -0.002121853618)
(2.718172928e-07 -1.043479107e-20 -0.002121872893)
(2.970858684e-07 2.92132214e-20 -0.002121893935)
(3.206967535e-07 3.574932577e-20 -0.002121916618)
(3.4260786e-07 8.470499309e-20 -0.002121940815)
(3.627827009e-07 1.108995416e-19 -0.002121966413)
(3.811746834e-07 1.484463639e-19 -0.002121993298)
(3.977530781e-07 1.737701293e-19 -0.002122021367)
(4.12486242e-07 1.912102227e-19 -0.00212205052)
(4.253608927e-07 2.034259233e-19 -0.002122080661)
(4.363789891e-07 2.119923912e-19 -0.002122111699)
(4.454908268e-07 2.195747484e-19 -0.002122143542)
(4.526811014e-07 2.427205416e-19 -0.002122176103)
(4.579750946e-07 2.633753489e-19 -0.002122209306)
(4.613598372e-07 2.819498278e-19 -0.002122243074)
(4.628494947e-07 2.986022529e-19 -0.00212227733)
(4.625058013e-07 3.133404031e-19 -0.002122312011)
(4.603736741e-07 3.270904013e-19 -0.002122347052)
(4.564802258e-07 3.265848683e-19 -0.002122382379)
(4.508996178e-07 3.259317846e-19 -0.002122417925)
(4.437319267e-07 3.252238362e-19 -0.002122453625)
(4.350363068e-07 3.240885392e-19 -0.002122489403)
(4.248653904e-07 3.235988605e-19 -0.002122525173)
(4.133174878e-07 3.240614372e-19 -0.002122560853)
(4.004941593e-07 3.257927715e-19 -0.002122596353)
(3.864418352e-07 3.287451127e-19 -0.002122631566)
(3.711958699e-07 3.324220819e-19 -0.002122666375)
(3.548314834e-07 3.262783821e-19 -0.002122700656)
(3.374313904e-07 3.201434146e-19 -0.00212273428)
(3.190386666e-07 3.225037413e-19 -0.002122767098)
(2.996893911e-07 3.24990581e-19 -0.00212279895)
(2.79454836e-07 3.19651062e-19 -0.002122829669)
(2.584091161e-07 3.140222989e-19 -0.002122859077)
(2.365877414e-07 3.086783323e-19 -0.002122886982)
(2.140297887e-07 3.012054437e-19 -0.002122913177)
(1.908092508e-07 2.921132353e-19 -0.00212293745)
(1.669767129e-07 2.890909881e-19 -0.002122959577)
(1.425622234e-07 2.897841318e-19 -0.002122979319)
(1.176243019e-07 2.882413271e-19 -0.002122996434)
(9.220165528e-08 2.849200999e-19 -0.002123010668)
(6.632347237e-08 2.794901906e-19 -0.002123021756)
(4.018035788e-08 2.773521967e-19 -0.002123029428)
(1.42599777e-08 2.783787952e-19 -0.002123033405)
(2.206526666e-08 -9.146121296e-21 -0.002123009667)
(5.760195183e-08 -9.547228199e-20 -0.002123012165)
(9.085798273e-08 -2.187285537e-19 -0.002123017563)
(1.245377639e-07 -1.246521964e-19 -0.002123025559)
(1.573073409e-07 -1.089437654e-19 -0.002123035964)
(1.888002651e-07 2.759000523e-21 -0.002123048624)
(2.189118984e-07 6.43069149e-20 -0.002123063394)
(2.475516215e-07 9.213303788e-20 -0.002123080141)
(2.746253499e-07 8.633340333e-20 -0.002123098732)
(3.000698626e-07 1.34782389e-19 -0.002123119038)
(3.238149357e-07 1.598806364e-19 -0.002123140944)
(3.458174314e-07 1.754761467e-19 -0.002123164334)
(3.660356322e-07 1.864034477e-19 -0.002123189102)
(3.844271606e-07 1.952151362e-19 -0.00212321514)
(4.009770676e-07 2.018417641e-19 -0.002123242355)
(4.156412652e-07 2.059221383e-19 -0.002123270653)
(4.283947683e-07 2.069490752e-19 -0.002123299945)
(4.392226904e-07 2.042435178e-19 -0.002123330145)
(4.480928001e-07 2.376512697e-19 -0.002123361161)
(4.550187816e-07 2.657226619e-19 -0.002123392924)
(4.600155618e-07 2.916543406e-19 -0.002123425362)
(4.630770718e-07 3.165874937e-19 -0.002123458399)
(4.642503703e-07 3.414674805e-19 -0.002123491975)
(4.636059748e-07 3.522244929e-19 -0.002123526027)
(4.611691703e-07 3.64426317e-19 -0.002123560489)
(4.569919279e-07 3.645719411e-19 -0.002123595293)
(4.511741987e-07 3.668802873e-19 -0.002123630379)
(4.437905768e-07 3.715150106e-19 -0.002123665675)
(4.348913725e-07 3.665144116e-19 -0.002123701103)
(4.245633286e-07 3.637500459e-19 -0.002123736581)
(4.129091945e-07 3.626413297e-19 -0.002123772026)
(3.999825992e-07 3.626999325e-19 -0.002123807338)
(3.858181542e-07 3.635056712e-19 -0.002123842403)
(3.704874979e-07 3.648050381e-19 -0.002123877104)
(3.540750466e-07 3.663383606e-19 -0.002123911318)
(3.366268243e-07 3.684019632e-19 -0.002123944904)
(3.1817915e-07 3.712383919e-19 -0.002123977708)
(2.988037299e-07 3.748105545e-19 -0.002124009569)
(2.785755708e-07 3.793364396e-19 -0.002124040318)
(2.575318569e-07 3.852543802e-19 -0.002124069768)
(2.357132399e-07 4.00828484e-19 -0.002124097721)
(2.131956155e-07 4.124454685e-19 -0.002124123971)
(1.900296641e-07 4.147393805e-19 -0.002124148302)
(1.662458932e-07 4.1869582e-19 -0.002124170482)
(1.419088862e-07 4.177885194e-19 -0.002124190276)
(1.170688926e-07 4.182401333e-19 -0.002124207435)
(9.174245157e-08 4.21094794e-19 -0.002124221704)
(6.598343211e-08 4.211668386e-19 -0.002124232818)
(3.99785755e-08 4.214015453e-19 -0.002124240508)
(1.41846195e-08 4.217206138e-19 -0.002124244491)
(2.225453994e-08 1.848527926e-19 -0.002124206076)
(5.809600866e-08 4.645408426e-19 -0.002124208485)
(9.164487573e-08 4.146241806e-19 -0.002124213696)
(1.256199278e-07 4.568172252e-19 -0.00212422142)
(1.586611444e-07 5.405804586e-19 -0.002124231479)
(1.90398557e-07 4.583561601e-19 -0.002124243725)
(2.207304562e-07 4.25511823e-19 -0.002124258019)
(2.495598035e-07 4.32608973e-19 -0.002124274232)
(2.767759624e-07 4.677843931e-19 -0.002124292242)
(3.023304023e-07 3.794995575e-19 -0.002124311928)
(3.261577783e-07 3.284294525e-19 -0.002124333183)
(3.482029992e-07 2.999909871e-19 -0.0021243559)
(3.684173459e-07 2.856357948e-19 -0.002124379979)
(3.867685664e-07 2.806053209e-19 -0.002124405323)
(4.032346323e-07 2.821282809e-19 -0.002124431842)
(4.177671934e-07 2.883601309e-19 -0.002124459439)
(4.303491618e-07 2.977724709e-19 -0.002124488035)
(4.40945761e-07 3.106551758e-19 -0.00212451755)
(4.495548733e-07 3.267618835e-19 -0.002124547905)
(4.562144559e-07 3.253098119e-19 -0.002124579037)
(4.609124284e-07 3.25239624e-19 -0.002124610876)
(4.636731081e-07 3.255619863e-19 -0.002124643356)
(4.645739119e-07 3.258535809e-19 -0.002124676423)
(4.636536226e-07 3.264515461e-19 -0.002124710014)
(4.609498464e-07 3.270222224e-19 -0.002124744062)
(4.56553908e-07 3.273553644e-19 -0.002124778509)
(4.505543497e-07 3.276102722e-19 -0.002124813293)
(4.429991829e-07 3.278052073e-19 -0.002124848336)
(4.339636069e-07 3.278931218e-19 -0.002124883562)
(4.235513045e-07 3.396655103e-19 -0.002124918891)
(4.118222391e-07 3.522392406e-19 -0.002124954231)
(3.98810108e-07 3.660888039e-19 -0.002124989472)
(3.845838056e-07 3.719218328e-19 -0.002125024503)
(3.692292458e-07 3.796573023e-19 -0.002125059208)
(3.527939113e-07 3.790807541e-19 -0.002125093451)
(3.353143542e-07 3.804594875e-19 -0.002125127086)
(3.168639285e-07 3.841006933e-19 -0.002125159958)
(2.97517498e-07 3.818378456e-19 -0.002125191907)
(2.773132333e-07 3.815800995e-19 -0.00212522275)
(2.562948431e-07 3.831222077e-19 -0.002125252298)
(2.345400729e-07 3.863391868e-19 -0.002125280353)
(2.120981319e-07 3.908979995e-19 -0.002125306706)
(1.889999044e-07 3.963625325e-19 -0.00212533113)
(1.653140204e-07 3.947158983e-19 -0.002125353399)
(1.410937686e-07 3.934830323e-19 -0.00212537327)
(1.163668285e-07 3.927255371e-19 -0.002125390494)
(9.117663063e-08 3.865531017e-19 -0.002125404815)
(6.557156801e-08 3.819616704e-19 -0.002125415969)
(3.971346117e-08 3.818140895e-19 -0.002125423682)
(1.40791225e-08 3.834368818e-19 -0.002125427674)
(2.240016206e-08 8.797552158e-20 -0.002125371008)
(5.846909076e-08 1.74942979e-19 -0.002125373347)
(9.222639773e-08 2.712528999e-19 -0.002125378407)
(1.264217601e-07 3.530060247e-19 -0.002125385902)
(1.596717638e-07 4.074443973e-19 -0.002125395668)
(1.915881703e-07 3.086059854e-19 -0.002125407565)
(2.220606762e-07 2.566781563e-19 -0.002125421459)
(2.510064359e-07 2.412287528e-19 -0.002125437221)
(2.783157994e-07 2.677478318e-19 -0.002125454743)
(3.039295874e-07 2.763190123e-19 -0.002125473914)
(3.277828177e-07 2.615473393e-19 -0.00212549463)
(3.49823342e-07 2.585528652e-19 -0.002125516791)
(3.700016104e-07 2.629593503e-19 -0.002125540301)
(3.882741068e-07 2.726582441e-19 -0.002125565072)
(4.04594448e-07 2.896547815e-19 -0.002125591014)
(4.189330352e-07 3.15555612e-19 -0.002125618039)
(4.312934093e-07 3.243197876e-19 -0.002125646075)
(4.41642712e-07 3.439877836e-19 -0.002125675043)
(4.499952189e-07 3.540049981e-19 -0.002125704882)
(4.563734985e-07 3.553590663e-19 -0.002125735529)
(4.607826888e-07 3.480813836e-19 -0.002125766915)
(4.632845584e-07 3.313850063e-19 -0.002125798989)
(4.639394006e-07 3.039062591e-19 -0.002125831695)
(4.627726259e-07 2.969280673e-19 -0.002125864968)
(4.598631244e-07 2.924996842e-19 -0.00212589875)
(4.553121399e-07 2.896684715e-19 -0.002125932985)
(4.491666585e-07 2.877231185e-19 -0.0021259676)
(4.414900516e-07 2.86239338e-19 -0.00212600252)
(4.323866062e-07 2.849943369e-19 -0.002126037673)
(4.2192188e-07 2.950055777e-19 -0.002126072969)
(4.101283722e-07 3.067188779e-19 -0.002126108307)
(3.970729448e-07 3.008346044e-19 -0.00212614358)
(3.828428124e-07 2.985100158e-19 -0.002126178678)
(3.67485473e-07 2.969897729e-19 -0.002126213471)
(3.510377063e-07 2.965583615e-19 -0.00212624782)
(3.335757245e-07 2.96230556e-19 -0.002126281578)
(3.151732193e-07 2.960031437e-19 -0.00212631459)
(2.958686816e-07 2.966556908e-19 -0.002126346682)
(2.7571023e-07 2.972425085e-19 -0.002126377671)
(2.547766651e-07 2.975497025e-19 -0.002126407367)
(2.331147087e-07 2.973749896e-19 -0.002126435567)
(2.107566938e-07 2.965482379e-19 -0.002126462052)
(1.877762249e-07 2.948894617e-19 -0.002126486603)
(1.6422486e-07 2.922110125e-19 -0.002126508985)
(1.40133045e-07 2.883492511e-19 -0.002126528954)
(1.155602161e-07 2.831237809e-19 -0.002126546261)
(9.054052539e-08 2.741725392e-19 -0.002126560649)
(6.510003864e-08 2.696572543e-19 -0.00212657185)
(3.942343967e-08 2.663439504e-19 -0.002126579594)
(1.397356038e-08 2.64286705e-19 -0.002126583603)
(2.251014255e-08 1.596962046e-19 -0.002126505722)
(5.874748779e-08 -1.806078249e-19 -0.002126508002)
(9.264105988e-08 -9.79335649e-20 -0.00212651294)
(1.269766705e-07 -7.237883757e-20 -0.002126520251)
(1.603711117e-07 -5.394095535e-20 -0.002126529772)
(1.924104818e-07 -2.918693353e-20 -0.002126541376)
(2.229581516e-07 -2.608722693e-20 -0.002126554938)
(2.519558074e-07 -4.742589249e-20 -0.002126570333)
(2.793059431e-07 -4.582188223e-20 -0.002126587459)
(3.049258816e-07 2.86064373e-20 -0.002126606212)
(3.287570579e-07 8.258111407e-20 -0.002126626488)
(3.507353207e-07 1.240296438e-19 -0.002126648198)
(3.708093716e-07 1.611482477e-19 -0.002126671243)
(3.889380631e-07 1.368574702e-19 -0.002126695542)
(4.050740847e-07 1.141391765e-19 -0.002126721009)
(4.192043407e-07 1.162797523e-19 -0.002126747574)
(4.313152837e-07 1.14000016e-19 -0.002126775166)
(4.413996302e-07 1.049398333e-19 -0.002126803714)
(4.494968289e-07 1.308964317e-19 -0.002126833162)
(4.556017337e-07 1.501189151e-19 -0.002126863448)
(4.59753687e-07 1.662557011e-19 -0.002126894515)
(4.620336132e-07 1.808190322e-19 -0.002126926315)
(4.624651902e-07 1.948491962e-19 -0.002126958785)
(4.611046867e-07 2.074604396e-19 -0.002126991868)
(4.580553573e-07 2.185148726e-19 -0.002127025512)
(4.533743279e-07 2.277686197e-19 -0.00212705965)
(4.471171789e-07 2.355186689e-19 -0.002127094209)
(4.393845506e-07 2.419016869e-19 -0.00212712912)
(4.30246136e-07 2.469185354e-19 -0.002127164301)
(4.197330658e-07 2.358562831e-19 -0.002127199655)
(4.079108273e-07 2.22407385e-19 -0.00212723508)
(3.948677892e-07 2.068472226e-19 -0.002127270472)
(3.806500976e-07 2.093581269e-19 -0.002127305708)
(3.652946901e-07 2.086511498e-19 -0.002127340655)
(3.488818097e-07 2.066239554e-19 -0.002127375174)
(3.314829881e-07 2.012308909e-19 -0.002127409115)
(3.131364645e-07 2.009165689e-19 -0.002127442312)
(2.938957348e-07 2.058534406e-19 -0.00212747459)
(2.738377427e-07 2.156165192e-19 -0.002127505765)
(2.530080434e-07 2.222604922e-19 -0.002127535642)
(2.314435724e-07 2.260512316e-19 -0.00212756401)
(2.092220901e-07 2.270766912e-19 -0.002127590655)
(1.863919017e-07 2.251351855e-19 -0.002127615351)
(1.629817754e-07 2.264702207e-19 -0.002127637859)
(1.390614901e-07 2.253071253e-19 -0.002127657938)
(1.14674353e-07 2.255685139e-19 -0.002127675337)
(8.983160726e-08 2.309192704e-19 -0.002127689794)
(6.45893464e-08 2.347883075e-19 -0.002127701046)
(3.911918601e-08 2.370514829e-19 -0.002127708823)
(1.386116359e-08 2.349796083e-19 -0.002127712844)
(2.258311855e-08 -1.293503301e-19 -0.002127611411)
(5.893330331e-08 -4.12981751e-19 -0.002127613639)
(9.291416975e-08 -3.259980202e-19 -0.002127618474)
(1.27312748e-07 -3.378275708e-19 -0.002127625638)
(1.607713474e-07 -1.667003261e-19 -0.00212763496)
(1.928764404e-07 -6.32837915e-20 -0.002127646318)
(2.234591547e-07 -1.01954303e-20 -0.002127659604)
(2.524626629e-07 7.686463031e-21 -0.002127674703)
(2.798031424e-07 -2.020924471e-20 -0.002127691504)
(3.053728806e-07 -1.622793834e-20 -0.002127709914)
(3.291194114e-07 1.614783737e-20 -0.00212772983)
(3.509706526e-07 3.476327684e-20 -0.002127751168)
(3.708775475e-07 4.349334815e-20 -0.002127773836)
(3.888045358e-07 4.766597651e-20 -0.00212779776)
(4.047183187e-07 4.370072706e-20 -0.002127822859)
(4.186157417e-07 3.114724675e-20 -0.002127849071)
(4.304700377e-07 4.162684243e-20 -0.002127876325)
(4.403041613e-07 4.388004413e-20 -0.002127904567)
(4.481409523e-07 3.436026788e-20 -0.002127933739)
(4.539955966e-07 3.684371603e-20 -0.00212796378)
(4.57941416e-07 5.046264381e-20 -0.002127994647)
(4.600150405e-07 7.574624434e-20 -0.002128026284)
(4.602549836e-07 1.141511099e-19 -0.00212805863)
(4.587603907e-07 1.486073141e-19 -0.002128091637)
(4.555987708e-07 1.803887484e-19 -0.002128125244)
(4.508179607e-07 1.954305155e-19 -0.002128159383)
(4.445137694e-07 2.096652103e-19 -0.002128193987)
(4.367598387e-07 2.237630003e-19 -0.00212822898)
(4.275856465e-07 2.382794831e-19 -0.002128264268)
(4.17055369e-07 2.276513636e-19 -0.002128299757)
(4.05256584e-07 2.158239145e-19 -0.002128335346)
(3.922349435e-07 2.243049953e-19 -0.00212837092)
(3.780295382e-07 2.303786117e-19 -0.002128406351)
(3.627238555e-07 2.359253583e-19 -0.002128441507)
(3.463858206e-07 2.424658043e-19 -0.002128476246)
(3.290528599e-07 2.48990337e-19 -0.002128510409)
(3.107853047e-07 2.54425942e-19 -0.002128543828)
(2.916572474e-07 2.596947774e-19 -0.002128576326)
(2.717125936e-07 2.636928976e-19 -0.002128607715)
(2.509935535e-07 2.673873046e-19 -0.002128637793)
(2.295786715e-07 2.707551645e-19 -0.002128666351)
(2.075158295e-07 2.738278391e-19 -0.002128693172)
(1.848352584e-07 2.76798878e-19 -0.002128718022)
(1.616095202e-07 2.787468718e-19 -0.002128740667)
(1.378849262e-07 2.809085998e-19 -0.002128760864)
(1.136831697e-07 2.833965936e-19 -0.002128778356)
(8.904843032e-08 2.865872696e-19 -0.002128792886)
(6.402141239e-08 2.903427002e-19 -0.002128804191)
(3.875828089e-08 2.914960667e-19 -0.002128811998)
(1.372330679e-08 2.944118028e-19 -0.002128816033)
(2.261674031e-08 -1.860029061e-19 -0.002128689188)
(5.901851483e-08 -1.06262499e-20 -0.002128691373)
(9.303949644e-08 9.220430013e-20 -0.002128696123)
(1.274522265e-07 1.95372102e-19 -0.002128703167)
(1.608948708e-07 1.039292542e-19 -0.00212871234)
(1.929960864e-07 7.38963684e-20 -0.002128723507)
(2.235786181e-07 7.086031677e-20 -0.002128736571)
(2.525303258e-07 1.462038848e-19 -0.002128751428)
(2.797903375e-07 1.133567957e-19 -0.002128767963)
(3.05254844e-07 9.197378221e-20 -0.002128786089)
(3.288598081e-07 7.274499061e-20 -0.002128805711)
(3.505417659e-07 4.852527028e-20 -0.002128826744)
(3.702542719e-07 1.518692334e-20 -0.002128849113)
(3.879589044e-07 7.243488887e-20 -0.00212887274)
(4.036340436e-07 8.749896932e-20 -0.00212889756)
(4.172712941e-07 9.476311913e-20 -0.002128923509)
(4.288668755e-07 1.254632992e-19 -0.002128950524)
(4.384575352e-07 1.558374308e-19 -0.002128978559)
(4.460446865e-07 1.410658942e-19 -0.002129007552)
(4.516853935e-07 1.303215783e-19 -0.002129037456)
(4.554364861e-07 1.228123827e-19 -0.002129068223)
(4.573210073e-07 1.169580982e-19 -0.002129099792)
(4.574274419e-07 1.296396052e-19 -0.002129132115)
(4.558346048e-07 1.412930468e-19 -0.00212916514)
(4.525848713e-07 1.513957609e-19 -0.0021291988)
(4.47764451e-07 1.609069501e-19 -0.002129233031)
(4.414473919e-07 1.688778024e-19 -0.002129267762)
(4.336649221e-07 1.754920608e-19 -0.002129302904)
(4.244806282e-07 1.804244012e-19 -0.002129338367)
(4.139799513e-07 1.975870766e-19 -0.002129374057)
(4.022079668e-07 2.143019982e-19 -0.002129409863)
(3.892067571e-07 2.319002064e-19 -0.002129445665)
(3.750630356e-07 2.391653531e-19 -0.002129481339)
(3.598400274e-07 2.476986356e-19 -0.002129516748)
(3.435736804e-07 2.685075382e-19 -0.002129551739)
(3.263325176e-07 2.912313356e-19 -0.002129586153)
(3.081866782e-07 3.0620306e-19 -0.002129619821)
(2.891781161e-07 3.142554286e-19 -0.00212965256)
(2.693576698e-07 3.150720011e-19 -0.002129684176)
(2.488005745e-07 3.174909818e-19 -0.002129714469)
(2.275523777e-07 3.206368016e-19 -0.002129743228)
(2.056481734e-07 3.188351525e-19 -0.002129770227)
(1.831610657e-07 3.19794565e-19 -0.002129795239)
(1.601390758e-07 3.164439757e-19 -0.002129818025)
(1.366086579e-07 3.154894811e-19 -0.002129838338)
(1.126239734e-07 3.128346772e-19 -0.002129855924)
(8.821435139e-08 3.097841749e-19 -0.002129870527)
(6.340973608e-08 3.083388497e-19 -0.002129881882)
(3.838672403e-08 3.018213762e-19 -0.002129889721)
(1.359009145e-08 2.998499113e-19 -0.00212989377)
(2.261558444e-08 -6.337531154e-21 -0.002129740146)
(5.901299834e-08 -1.535756664e-20 -0.002129742292)
(9.302730777e-08 6.446255763e-20 -0.002129746965)
(1.27422903e-07 1.583089573e-19 -0.002129753906)
(1.608063084e-07 1.674514572e-20 -0.002129762955)
(1.928246252e-07 5.913907213e-20 -0.002129773978)
(2.233338041e-07 8.871270346e-20 -0.002129786861)
(2.521830609e-07 1.140895427e-19 -0.002129801515)
(2.792978281e-07 1.434943833e-19 -0.002129817837)
(3.046020127e-07 1.786550782e-19 -0.00212983573)
(3.280068527e-07 1.789898608e-19 -0.002129855119)
(3.494709477e-07 1.492914334e-19 -0.002129875914)
(3.689469575e-07 1.274296809e-19 -0.002129898054)
(3.864015292e-07 1.410483007e-19 -0.00212992146)
(4.018247326e-07 1.566568266e-19 -0.00212994608)
(4.152026973e-07 1.672493904e-19 -0.002129971847)
(4.265650066e-07 1.730171802e-19 -0.002129998714)
(4.359206934e-07 1.756513289e-19 -0.002130026625)
(4.432943893e-07 1.73477134e-19 -0.002130055529)
(4.487536357e-07 1.664312481e-19 -0.002130085385)
(4.523214348e-07 1.745438806e-19 -0.002130116133)