/*--------------------------------*- C++ -*----------------------------------*\
  =========                 |
  \\      /  F ield         | OpenFOAM: The Open Source CFD Toolbox
   \\    /   O peration     | Website:  https://openfoam.org
    \\  /    A nd           | Version:  7
     \\/     M anipulation  |
\*---------------------------------------------------------------------------*/
FoamFile
{
    version     2.0;
    format      ascii;
    class       volScalarField;
    location    "0.0021";
    object      generalizedNewtonian:nu;
}
// * * * * * * * * * * * * * * * * * * * * * * * * * * * * * * * * * * * * * //

dimensions      [0 2 -1 0 0 0 0];

internalField   nonuniform List<scalar> 
1167
(
2.528438996
2.513282442
2.521772355
2.50169301
2.48233622
2.459666507
2.433214069
2.403666943
2.371484535
2.337068154
2.300823243
2.263148984
2.224402016
2.18491277
2.145000497
2.104894611
2.064826548
2.024932556
2.392218112
2.377719419
2.385753439
2.366752317
2.348354918
2.326871927
2.301820662
2.273846122
2.243409206
2.210896575
2.176692874
2.141164421
2.104659334
2.067506047
2.029971539
1.992299721
1.954673009
1.917249505
1.880114759
1.84331382
1.806846908
1.770670462
1.734687415
1.698756388
1.662698661
1.626289467
1.589261646
1.551309751
1.512077256
1.47117021
1.428152751
1.382555023
1.333893681
1.281686678
1.225513968
1.165104844
1.100442186
1.031888784
0.9603110651
0.8870656118
0.8138711253
0.7425369493
0.6746740665
0.6114698959
0.5536244227
0.5013796101
0.4546353332
0.413066859
0.3762032744
0.3434549431
2.259444854
2.245613625
2.253241171
2.235303612
2.217899609
2.197609408
2.173982333
2.147614191
2.118948127
2.088355622
2.056200202
2.022832168
1.988595184
1.953769116
1.918620457
1.883367618
1.848187722
1.813204584
1.778514803
1.744147475
1.710091648
1.676301735
1.64268609
1.609110433
1.575398436
1.541334477
1.506665646
1.471099797
1.434303753
1.39591304
1.355515409
1.31267014
1.266922938
1.217834773
1.165018799
1.108222356
1.04743496
0.9829971852
0.9157018285
0.8468054377
0.7778865434
0.7106255903
0.6465221869
0.5867017181
0.5318411556
0.4821919189
0.4376855563
0.3980379415
0.3628200476
0.3314868276
2.130419083
2.117264121
2.124492594
2.107607347
2.09120795
2.072114191
2.049899938
2.025134928
1.99823567
1.969556376
1.93944368
1.908236802
1.876234195
1.843716489
1.810929299
1.778067699
1.745293894
1.712728576
1.680439102
1.648454464
1.616768859
1.585325251
1.554029567
1.522750406
1.491321932
1.459540266
1.427167032
1.393921958
1.359490928
1.32352708
1.285649363
1.245451541
1.202506394
1.156402069
1.106788106
1.053435043
0.9963287295
0.9357941887
0.8725568113
0.8077752082
0.7429046141
0.6795038759
0.6189708672
0.562372484
0.510360672
0.4631965001
0.4208391883
0.3830415007
0.3494132267
0.319451297
2.005424269
1.992930626
1.999776402
1.983936637
1.968514318
1.950610389
1.929791412
1.906597251
1.881435298
1.854640962
1.826536986
1.797436487
1.767627124
1.737377564
1.706893178
1.676376703
1.645956557
1.615743936
1.585805385
1.556152555
1.526771025
1.497608023
1.468573386
1.439535377
1.410332911
1.38076882
1.350617729
1.31961774
1.287476038
1.253862028
1.218417383
1.180760047
1.140503314
1.097260571
1.050703631
1.000630341
0.9470279162
0.8901933053
0.8308030518
0.7699175423
0.7088847567
0.649145105
0.5920068695
0.5384800864
0.4891919032
0.4444108064
0.4041206007
0.3681071808
0.3360166557
0.3073853653
1.884723708
1.87288182
1.879365403
1.864534434
1.850063122
1.833308294
1.813848058
1.79218504
1.768708838
1.743736164
1.717573752
1.690519088
1.662844625
1.634779451
1.606539046
1.578279811
1.550143924
1.52221497
1.494543665
1.467148016
1.440005182
1.413056317
1.386207311
1.359335933
1.332289033
1.304876141
1.276881182
1.248055156
1.218120376
1.186771827
1.153674096
1.118467376
1.080787027
1.040284505
0.9966538407
0.9497040796
0.8994346916
0.8461140585
0.7903720784
0.7331803406
0.6757879102
0.6195264375
0.5656212142
0.5150259922
0.4683457043
0.4258535576
0.387554989
0.3532651515
0.3226645376
0.2953264051
1.768585653
1.757385909
1.763519664
1.749642465
1.736095569
1.720431292
1.702266174
1.682068147
1.660205284
1.636976513
1.612679401
1.587587753
1.561946141
1.535983427
1.509881319
1.483797477
1.45784107
1.432102511
1.40661585
1.381385389
1.356388188
1.331569408
1.306830576
1.282051606
1.257081109
1.231739562
1.205823454
1.17909709
1.151296889
1.122132714
1.091290737
1.058441608
1.023240539
0.9853596173
0.9445270154
0.9005608797
0.8534621307
0.8034839377
0.7512027401
0.6975182085
0.6435814125
0.5906285192
0.5398062531
0.4920136237
0.4478344364
0.407544338
0.3711675036
0.3385455599
0.3093907682
0.2833111618
1.657278153
1.646695602
1.652472317
1.639502488
1.626823441
1.612200064
1.595253996
1.576434618
1.556095442
1.534519211
1.511980374
1.488734694
1.465022913
1.441044201
1.416971294
1.392941575
1.369062709
1.345397983
1.321982981
1.298819158
1.275873633
1.253083804
1.230357603
1.207581273
1.184605158
1.161257263
1.13733981
1.11262918
1.08688205
1.059823311
1.031155338
1.00056709
0.9677463773
0.9323834158
0.8942236908
0.8531069265
0.8090287438
0.762230224
0.71323837
0.6628870746
0.6122361338
0.5624352841
0.5145566847
0.4694479924
0.427671498
0.3895035006
0.3549838452
0.3239784743
0.2962288651
0.2713757991
1.551029603
1.541037151
1.546459921
1.534346265
1.522465953
1.508808073
1.493001583
1.475468466
1.456544907
1.436501809
1.415598528
1.39408137
1.37216741
1.350039622
1.327865711
1.305760884
1.283822595
1.262111504
1.240646101
1.219423275
1.198413341
1.177548052
1.156735466
1.135860105
1.114779535
1.093333556
1.07133059
1.048556161
1.024776197
0.9997350751
0.9731559282
0.9447434374
0.914202095
0.8812523735
0.8456523905
0.8072562139
0.7660611742
0.7222886974
0.6764275221
0.6292470126
0.5817257295
0.5349333802
0.489869245
0.4473350784
0.4078706994
0.3717513111
0.3390293113
0.3095931799
0.2832111009
0.2595546311
1.450068891
1.440639408
1.445720219
1.434384859
1.423248169
1.410460417
1.39569523
1.379339794
1.361713319
1.343076265
1.323682157
1.30375039
1.28348388
1.26306852
1.242636996
1.22231313
1.202172824
1.182265065
1.162613485
1.143203982
1.123998777
1.104931182
1.085915261
1.066834749
1.047550128
1.02790451
1.007716405
0.9867872141
0.964889959
0.9417802953
0.9171978472
0.8908710772
0.8625177347
0.8318766674
0.7987277532
0.7629299353
0.7244871533
0.683599214
0.6407219063
0.5965616232
0.5520256177
0.5081083674
0.465740869
0.425680767
0.3884452481
0.3543067836
0.3233282051
0.295418179
0.2703695773
0.2478830153
1.354625699
1.345732646
1.35045949
1.33983095
1.329363895
1.317369226
1.303534892
1.288236418
1.271780396
1.254416001
1.236374696
1.217871387
1.199105054
1.180230311
1.16138798
1.142674842
1.124173713
1.10591895
1.087922442
1.070175289
1.052636692
1.035236226
1.017886001
1.000474232
0.9828699021
0.9649190046
0.9464464343
0.9272593868
0.9071477558
0.8858794693
0.8632049456
0.8388681656
0.8126089064
0.7841770595
0.753371664
0.7200590229
0.6842429518
0.6461079666
0.6060765906
0.5647986968
0.5231160392
0.4819497825
0.442170352
0.4044920789
0.3694094498
0.337189247
0.3079040641
0.2814800144
0.2577324057
0.2363890452
1.264918459
1.25652041
1.26089066
1.250905509
1.241018491
1.2297211
1.216712949
1.202347894
1.186922873
1.170677446
1.153832483
1.136602646
1.119158238
1.101657939
1.084223826
1.066955193
1.049913546
1.033138969
1.016637604
1.000392183
0.9843602066
0.968477034
0.9526542917
0.9367807493
0.9207276149
0.9043480102
0.8874776465
0.8699294642
0.8515001892
0.8319714454
0.8111096722
0.788668432
0.7644041341
0.7380843067
0.709515236
0.6785775664
0.645269067
0.6097642398
0.5724485973
0.5339247154
0.4949723752
0.4564439657
0.4191530496
0.3837720462
0.3507724649
0.3204141505
0.2927775669
0.2678044194
0.245331001
0.225110976
1.181155037
1.173215032
1.177233872
1.167809661
1.158429109
1.147722058
1.135423293
1.121861426
1.107324176
1.09204519
1.076240217
1.060102314
1.04380385
1.027494482
1.011285892
0.9952709119
0.9795102807
0.9640312035
0.9488419107
0.9339267718
0.9192375429
0.9047085861
0.8902547551
0.8757718837
0.8611339373
0.8461970985
0.8308009768
0.814772194
0.7979158746
0.7800206157
0.7608657846
0.740220834
0.717850564
0.6935410247
0.6671057865
0.6384335885
0.6075196139
0.5745266867
0.5398066107
0.5039183268
0.4675809025
0.4315855433
0.3966912021
0.3635298453
0.3325482425
0.3039994551
0.277969145
0.2544119685
0.2331825731
0.2140583182
1.103559337
1.096042019
1.099708314
1.09076189
1.081807011
1.071596045
1.059882893
1.046989364
1.033194734
1.018723208
1.003780736
0.9885572565
0.9732225151
0.9579086724
0.9427344374
0.9277790146
0.9130994403
0.8987262431
0.8846613749
0.8708854449
0.8573564206
0.8440100293
0.8307610855
0.817506063
0.8041271689
0.7904887436
0.7764336531
0.7617930656
0.746383883
0.7300062278
0.7124461954
0.6934867674
0.6729063772
0.6504984438
0.6260911825
0.5995739405
0.5709440612
0.5403464545
0.5081064516
0.4747409149
0.4409113483
0.4073520838
0.3747698723
0.3437570031
0.3147355144
0.2879506084
0.2634918136
0.2413259155
0.2213257967
0.2032919654
1.032378511
1.025235944
1.028546099
1.020005067
1.011383332
1.001566192
0.9903220406
0.9779609304
0.9647553818
0.9509243029
0.9366715717
0.9221835993
0.907614955
0.8931058918
0.8787580681
0.8646610575
0.850860712
0.8373848473
0.8242436011
0.8114131928
0.7988507547
0.7864958678
0.7742704605
0.7620728224
0.7497886467
0.7372860923
0.7244205881
0.7110284229
0.696931594
0.6819414511
0.6658563674
0.6484647435
0.6295612213
0.6089461338
0.586456906
0.5619859275
0.5355297071
0.507216688
0.4773473241
0.4463953054
0.4149716105
0.3837560671
0.3534057177
0.3244725509
0.2973550503
0.2722882274
0.2493623217
0.2285521534
0.2097440065
0.1927580448
0.9678674235
0.9610546593
0.964014674
0.9557987533
0.947426685
0.9378939518
0.9269959868
0.9150287742
0.902259188
0.8889052306
0.8751673662
0.8612207231
0.8472268829
0.833314628
0.819591962
0.8061352181
0.7930022813
0.7802156831
0.7677819833
0.7556855241
0.7438861895
0.7323250072
0.7209251406
0.7095934847
0.6982225904
0.6866845627
0.6748394401
0.6625343395
0.6495997483
0.635852338
0.621102517
0.6051490739
0.5877925816
0.568847868
0.5481548536
0.5256131957
0.5012119053
0.4750683048
0.4474579447
0.4188131698
0.3896977719
0.3607397331
0.332547174
0.3056335666
0.2803733752
0.2569910647
0.2355780892
0.2161194963
0.1985188458
0.1826173835
0.9103380345
0.9038092006
0.9064293872
0.8984510572
0.8902448411
0.8808934195
0.8702148008
0.8585007491
0.8460136342
0.8329670144
0.8195570305
0.8059625912
0.7923409172
0.7788180511
0.7655035938
0.752474686
0.7397829383
0.7274624545
0.7155185735
0.7039355501
0.692678386
0.681697181
0.6709171874
0.6602506465
0.6495945218
0.638832366
0.62783006
0.6164398987
0.6045028207
0.5918454034
0.5782832118
0.5636289088
0.5476890308
0.5302875774
0.5112697443
0.4905386394
0.4680766941
0.4439898037
0.4185255468
0.3920806209
0.3651731051
0.338381834
0.3122671851
0.2873058804
0.2638468807
0.2421004846
0.2221529582
0.2039899636
0.1875201708
0.1725986227
0.86018147
0.8538863689
0.8561680972
0.8483478775
0.8402134181
0.830937639
0.8203546835
0.8087499555
0.796383109
0.7834684181
0.7702022575
0.7567640189
0.7433040893
0.7299584995
0.7168285189
0.7039989033
0.6915222973
0.6794320518
0.6677419139
0.6564399992
0.6454953242
0.6348606371
0.624471655
0.6142479838
0.6040914239
0.5938907936
0.5835238519
0.5728506202
0.5617178643
0.5499638366
0.5374131919
0.5238847832
0.5091985636
0.4931820915
0.4756899817
0.4566237613
0.4359637693
0.4138029302
0.3903633262
0.3660076242
0.3412106984
0.3165021364
0.2923978849
0.2693380213
0.2476468087
0.2275230606
0.2090541505
0.1922378523
0.1770036087
0.163226461
0.8178914628
0.8117719817
0.8137258357
0.8059803338
0.7978226518
0.7885083502
0.7778893732
0.7662448108
0.7538332607
0.7408728721
0.7275595405
0.7140689944
0.7005603855
0.6871643833
0.6739918513
0.6611228527
0.6486205639
0.6365208573
0.624839469
0.6135722817
0.6026971291
0.5921712431
0.5819363195
0.5719210546
0.5620379739
0.5521822573
0.5422383385
0.5320787577
0.5215588801
0.5105235206
0.4988107968
0.4862455405
0.4726574026
0.4578796321
0.4417723508
0.4242358074
0.4052465528
0.3848805293
0.3633372612
0.3409458845
0.3181395207
0.2954025167
0.273208858
0.2519624501
0.2319596335
0.2133787455
0.1962914495
0.1806815162
0.1664663419
0.1535248203
0.7841299138
0.7781254144
0.7797698576
0.77200004
0.7637231546
0.7542502019
0.74345252
0.7316090872
0.7189791787
0.7057810875
0.6922112153
0.678451907
0.6646639935
0.6509799948
0.6375160549
0.6243569186
0.6115663591
0.5991922775
0.587253414
0.5757510881
0.5646706701
0.5539800339
0.5436270724
0.533548268
0.5236649032
0.5138848269
0.5040997842
0.4941901833
0.4840257874
0.4734596979
0.4623386268
0.45050058
0.4377817144
0.4240255227
0.4090948944
0.3928932863
0.3753926387
0.3566549662
0.3368586211
0.3163013821
0.295375388
0.2745225981
0.2541759132
0.2347052623
0.2163846731
0.1993846223
0.1837848316
0.169593028
0.1567619043
0.1451907277
0.7598270345
0.7538703019
0.7552128757
0.7473169403
0.7388082201
0.7290481598
0.7179201153
0.7057033247
0.6926612782
0.6790155148
0.6649676432
0.6507079227
0.6363938774
0.6221705012
0.6081525363
0.5944369395
0.5810908937
0.568166652
0.5556955681
0.543684499
0.5321266613
0.5209984783
0.5102599861
0.4998558935
0.4897171222
0.4797625394
0.4698961874
0.4600081194
0.4499780635
0.4396725504
0.4289461267
0.4176487156
0.4056228392
0.3927197476
0.3788035208
0.3637775374
0.3476039902
0.3303300403
0.3121106745
0.2932113778
0.2739877645
0.2548435746
0.2361745103
0.2183161404
0.2015104963
0.1858954693
0.1715134605
0.1583269147
0.146239872
0.1351384195
0.7462806101
0.7402889523
0.7413426531
0.7332048937
0.724327784
0.7141243949
0.702484248
0.6896893135
0.6760097117
0.661672932
0.6468903824
0.6318519136
0.6167249588
0.6016623014
0.5867833148
0.5721915062
0.5579640247
0.5441585038
0.5308143781
0.5179487344
0.5055625251
0.4936406777
0.4821542064
0.4710583128
0.4602943836
0.4497918869
0.439468651
0.429226328
0.418956567
0.4085404586
0.3978445568
0.3867309923
0.3750543762
0.362674348
0.3494616246
0.3353216048
0.3202105739
0.3041637081
0.287315581
0.2699021916
0.2522454353
0.2347130953
0.2176677057
0.2014199293
0.1862009687
0.1721576298
0.1593657475
0.1478474024
0.1375810556
0.128475545
0.7454597285
0.7393264491
0.7401041555
0.7315756915
0.7221749904
0.7113374622
0.6989702881
0.6853585435
0.6707826137
0.6554809179
0.6396716231
0.6235532725
0.6073057811
0.5910869124
0.5750283511
0.5592397833
0.5438100503
0.5288045866
0.5142714403
0.500238588
0.486716188
0.4736992553
0.4611692821
0.4490929966
0.4374232649
0.4261016365
0.4150588262
0.4042096361
0.393458922
0.3827012192
0.3718159188
0.3606764932
0.3491475456
0.3370947777
0.3243910941
0.310937662
0.2966785677
0.2816291036
0.2658967765
0.2496856635
0.2332853504
0.2170327938
0.2012610408
0.186248913
0.1721867645
0.159163451
0.1471728061
0.1361287422
0.1258910426
0.1163311668
0.7537222427
0.7542312381
0.7451124963
0.7349638283
0.7232335384
0.7098335458
0.6950673176
0.679230102
0.6625718808
0.6453237295
0.6276977192
0.6098868597
0.5920576575
0.5743541074
0.5568951207
0.5397796749
0.5230821805
0.506860396
0.4911504946
0.4759721194
0.4613300868
0.447216099
0.4336065272
0.4204664454
0.4077508141
0.3954024349
0.3833521362
0.3715216958
0.3598213244
0.348149149
0.3363966163
0.3244438521
0.3121711177
0.2994601423
0.2862142829
0.2723727277
0.257936293
0.242990447
0.2277132139
0.2123670607
0.1972660014
0.182729454
0.1690386836
0.1564114138
0.1449988109
0.134899624
0.1261748784
0.1188446165
0.1128073587
)
;

boundaryField
{
    front_top
    {
        type            wedge;
    }
    front_middle
    {
        type            wedge;
    }
    front_bottom
    {
        type            wedge;
    }
    back_top
    {
        type            wedge;
    }
    back_middle
    {
        type            wedge;
    }
    back_bottom
    {
        type            wedge;
    }
    axis_top
    {
        type            symmetryPlane;
    }
    axis_middle
    {
        type            symmetryPlane;
    }
    axis_bottom
    {
        type            symmetryPlane;
    }
    wall_top
    {
        type            calculated;
        value           nonuniform 0();
    }
    wall_middle
    {
        type            calculated;
        value           nonuniform List<scalar> 
23
(
0.3287294825
0.3173816611
0.3059493801
0.2944707659
0.2829843446
0.2715278788
0.2601384623
0.2488510913
0.2377023818
0.2267201631
0.2159456784
0.2053845553
0.1951080427
0.1850443181
0.1753919281
0.165811655
0.1569575321
0.1476254
0.1399202696
0.1300612991
0.1243374635
0.1119414906
0.1101250243
)
;
    }
    wall_bottom
    {
        type            calculated;
        value           nonuniform 0();
    }
    inlet
    {
        type            calculated;
        value           nonuniform 0();
    }
    outlet
    {
        type            calculated;
        value           nonuniform 0();
    }
    procBoundary3to2
    {
        type            processor;
        value           nonuniform List<scalar> 
51
(
0.760105008
0.760105008
0.7881064223
0.7883169875
0.7783434515
0.767147656
0.7541867154
0.7393748264
0.7230399426
0.7055018946
0.6870337265
0.6678876948
0.6482954794
0.6284683323
0.6085882247
0.5888135936
0.5692774728
0.5500883347
0.5313319071
0.513076249
0.4953630058
0.4782209425
0.4616645618
0.4456890659
0.4302807681
0.4154146281
0.4010537083
0.387150929
0.3736511331
0.3604892252
0.3475891648
0.3348678717
0.3222305501
0.309575519
0.2967944399
0.2837779545
0.2704255395
0.2566631278
0.2424620465
0.227867611
0.2130164664
0.1981342786
0.1835094826
0.1694414032
0.1561798544
0.143876007
0.1325593015
0.1221475409
0.1124802085
0.1033642005
0.09466255769
)
;
    }
    procBoundary3to4
    {
        type            processor;
        value           nonuniform List<scalar> 
51
(
2.667819731
2.652018641
2.661006386
2.639882425
2.619589605
2.595779896
2.567991704
2.536910777
2.503029471
2.466763458
2.428532896
2.388742084
2.347783503
2.306010085
2.26372635
2.221223809
2.178705937
2.136353964
1.985329916
1.985329916
1.946078518
1.907170139
1.868563251
1.830166168
1.791835149
1.753384424
1.714576225
1.675127051
1.634713803
1.592961197
1.549449357
1.503717959
1.45526328
1.40355827
1.348088226
1.288401558
1.224200581
1.155456062
1.082565328
1.006462267
0.9286195552
0.8509056497
0.7752705006
0.7034439078
0.6366812712
0.5757040624
0.5207441165
0.4716656714
0.4280994703
0.3895294116
0.3553184559
)
;
    }
}


// ************************************************************************* //
