/*--------------------------------*- C++ -*----------------------------------*\
  =========                 |
  \\      /  F ield         | OpenFOAM: The Open Source CFD Toolbox
   \\    /   O peration     | Website:  https://openfoam.org
    \\  /    A nd           | Version:  7
     \\/     M anipulation  |
\*---------------------------------------------------------------------------*/
FoamFile
{
    version     2.0;
    format      ascii;
    class       volTensorField;
    location    "0.0021";
    object      grad(U);
}
// * * * * * * * * * * * * * * * * * * * * * * * * * * * * * * * * * * * * * //

dimensions      [0 0 -1 0 0 0 0];

internalField   nonuniform List<tensor> 
1167
(
(-10.88269679 -8.320517121e-14 0.6371316546 1.043503923e-13 -17.89266104 0 0.5268579632 -2.908095667e-14 29.60509716)
(-14.41349043 5.185361434e-14 1.478149183 1.4264097e-13 -15.59928868 0 1.274272851 -2.336626654e-13 29.5329829)
(-14.14040036 5.514626715e-14 2.400765487 0 -14.87007017 0 2.01140181 -2.264869178e-14 29.38804254)
(-14.32767429 -2.677679197e-14 3.318864999 0 -14.72040616 0 2.763201261 -5.769139558e-14 29.17377184)
(-14.16021539 -1.968295972e-13 4.212244416 5.165389737e-14 -14.62044987 8.264623579e-13 3.479992633 -9.291914052e-14 28.89535773)
(-13.90859181 -1.811576512e-13 5.085815169 4.345407235e-14 -14.51625915 -3.476325788e-13 4.159781519 3.944713887e-14 28.55684443)
(-13.62045761 3.178780602e-14 5.94294429 3.780570658e-14 -14.40547729 0 4.80164944 9.016324943e-14 28.16144375)
(-13.2894143 4.398588931e-14 6.783410602 6.737703913e-14 -14.28568382 0 5.402180093 1.427713421e-13 27.71230397)
(-12.91714108 6.222932636e-14 7.607938399 3.056250849e-14 -14.15558525 -2.445000679e-13 5.958765137 1.501516516e-13 27.21239531)
(-12.50729529 6.951899849e-14 8.417937395 5.623021679e-14 -14.01496624 0 6.469578074 1.441064258e-13 26.66436212)
(-12.06232665 -8.019530945e-15 9.214952051 7.845859574e-14 -13.86402538 2.09222922e-13 6.93314748 8.675494856e-14 26.07057959)
(-11.5840932 -6.549766508e-14 10.00056447 2.454963728e-14 -13.70310916 0 7.348297174 8.446305039e-14 25.43320675)
(-11.07426225 -8.915989082e-14 10.77637864 0 -13.53262854 0 7.714173474 9.66434089e-14 24.75424003)
(-10.53428172 -7.848155987e-14 11.54397991 0 -13.35302199 0 8.030171897 1.004141012e-13 24.03547986)
(-9.965422961 -6.292730407e-14 12.30487381 2.115481266e-14 -13.16472399 -1.692385013e-13 8.295877118 1.105283912e-13 23.27858326)
(-9.368877027 -2.312524136e-14 13.0604409 4.068770988e-14 -12.96816059 -8.137541976e-14 8.51111866 9.029701007e-14 22.4851443)
(-8.745742871 -4.949672518e-15 13.81195826 3.929042371e-14 -12.76374419 0 8.675892499 8.066667865e-14 21.6566259)
(-8.097048958 -6.481013579e-14 14.56068462 7.615986658e-14 -12.55187154 7.615986658e-14 8.790350266 9.767260277e-14 20.79443441)
(-11.62326772 3.105087046e-13 0.6865240575 0 -19.10304703 0 0.569555819 -8.613885445e-14 31.61442138)
(-15.39324852 1.455725677e-14 1.591426645 -2.602155026e-13 -16.65840903 1.189556583e-12 1.378767281 -2.135195449e-13 31.53582688)
(-15.09632561 -1.228530769e-13 2.584263946 -9.169209241e-14 -15.87981372 0 2.175870795 -2.128655372e-14 31.37759722)
(-15.29194065 -5.414960436e-14 3.57299514 -3.366678498e-14 -15.71782878 0 2.988435211 2.758146146e-14 31.14371172)
(-15.10966683 -2.535602544e-13 4.535376973 2.692302992e-14 -15.6095316 4.307684787e-13 3.762928772 1.198609865e-13 30.83996512)
(-14.83524739 -2.665252824e-13 5.476605287 9.059647773e-14 -15.49640115 0 4.496844931 2.747006816e-14 30.47072202)
(-14.52100875 -1.202702625e-13 6.40046508 3.941015962e-14 -15.3758759 0 5.189110038 3.793437175e-14 30.03964452)
(-14.16048171 -2.784766801e-14 7.306811229 3.511824143e-14 -15.24547522 0 5.836040567 9.068799305e-14 29.55028922)
(-13.75539851 2.853048871e-14 8.196358043 3.185956427e-14 -15.10385444 0 6.434814584 7.499717101e-14 29.00594774)
(-13.30976782 6.68023119e-14 9.070606804 0 -14.95080975 -2.344663835e-13 6.983433183 1.131325627e-13 28.40960644)
(-12.82637205 5.750742252e-14 9.9311919 0 -14.78658424 0 7.480323946 1.130614039e-13 27.76399412)
(-12.30737558 -5.103307032e-14 10.77974816 0 -14.61158225 0 7.924303728 1.13004298e-13 27.07161021)
(-11.75465264 -9.436205389e-14 11.61796005 4.841019197e-14 -14.4262797 0 8.314492024 9.226909465e-14 26.33471039)
(-11.16983847 -6.340676192e-14 12.44747381 4.608128048e-14 -14.23117111 0 8.650269969 8.703623437e-14 25.55538151)
(-10.55445647 -3.652463695e-14 13.26976682 8.821044395e-14 -14.02674978 0 8.931333604 7.180312458e-14 24.73559041)
(-9.909901163 -2.191138328e-14 14.08624895 8.482894699e-14 -13.81350126 0 9.157594471 6.117969305e-14 23.87716251)
(-9.237435666 -3.799804012e-15 14.89822077 4.095788746e-14 -13.59189319 -8.191577492e-14 9.329165916 7.166540595e-14 22.98181753)
(-8.538238968 -1.717318239e-14 15.70688087 7.939204862e-14 -13.36237438 0 9.446341237 8.117460284e-14 22.05116346)
(-7.813384944 -2.555609119e-14 16.51347145 3.859799024e-14 -13.12537386 0 9.509544589 6.695320033e-14 21.08671462)
(-7.063820584 5.197450568e-14 17.31926378 3.763924598e-14 -12.88129908 -7.527849196e-14 9.519327827 2.705974613e-14 20.0898492)
(-6.290330654 6.921572888e-14 18.12565602 7.360011046e-14 -12.63053433 7.360011046e-14 9.476319223 3.160904867e-14 19.06177048)
(-5.493487347 4.134723692e-14 18.93433551 7.212874039e-14 -12.37343764 0 9.381158028 2.408068195e-14 18.00345344)
(-4.673600936 2.082250417e-14 19.74740603 1.062570313e-13 -12.11033726 1.416760417e-13 9.234460511 8.99248107e-15 16.91557839)
(-3.830614986 -2.828407039e-14 20.56754979 6.97061085e-14 -11.84152746 6.97061085e-14 9.036746892 1.027076694e-14 15.79843847)
(-2.963994934 -3.999413512e-14 21.39819775 6.871475564e-14 -11.56726074 0 8.788360546 1.605024591e-14 14.65182964)
(-2.072626811 -3.167151595e-14 22.2437873 6.784860321e-14 -11.2877404 0 8.489389376 1.352352062e-14 13.47490122)
(-1.154626918 -9.205856436e-15 23.11006367 3.354732025e-14 -11.00311138 -6.70946405e-14 8.13953956 1.19193536e-14 12.26597855)
(-0.2071256788 1.378796602e-14 24.00442605 3.322088754e-14 -10.71344706 0 7.737991723 8.582552507e-15 11.0223428)
(0.7739764537 6.916165845e-15 24.93642722 3.294025035e-14 -10.41873473 0 7.283245723 2.212243181e-14 9.739932071)
(1.79439797 1.724483245e-15 25.91840264 3.270131191e-14 -10.11885754 0 6.772871681 1.637437002e-14 8.412969779)
(2.861950489 5.30672669e-14 26.9662659 1.625026355e-14 -9.813569701 0 6.203226654 -5.28018423e-15 7.033480106)
(3.987125295 1.014567928e-13 28.10055688 3.23348135e-14 -9.502467164 0 5.569089433 -3.592155193e-14 5.590628265)
(5.183880273 4.371099524e-14 29.34781424 8.050370347e-14 -9.184950086 6.440296278e-14 4.863159097 -2.521662149e-14 4.069905935)
(6.470629656 -2.10017354e-15 30.74229749 3.20981747e-14 -8.860175912 0 4.075459508 -1.601325308e-14 2.452097934)
(7.87139037 5.253744479e-15 32.32783063 6.404564698e-14 -8.527001022 3.202282349e-14 3.192616782 -2.602057319e-14 0.7120876061)
(9.416897671 2.494815382e-14 34.15955199 3.197360389e-14 -8.183912731 0 2.197085947 -3.698110149e-14 -1.182363346)
(11.14550918 -3.619211876e-15 36.30517414 4.792335726e-14 -7.828957376 9.584671452e-14 1.066454848 -1.919486777e-14 -3.271603568)
(13.10342801 -5.548659158e-14 38.84464367 3.194729816e-14 -7.459671427 0 -0.2269162232 1.645915919e-14 -5.604342279)
(15.34364994 -5.151016218e-16 41.86731547 1.598375942e-14 -7.073034998 -3.196751883e-14 -1.71567509 -3.531580188e-15 -8.236636688)
(17.92353624 5.749953755e-14 45.46661008 3.200844058e-14 -6.665468833 0 -3.436431189 -3.185594279e-14 -11.22937633)
(20.90114312 4.569215072e-14 49.73280465 1.60345313e-14 -6.232886796 0 -5.428003607 -2.036430788e-14 -14.64459207)
(24.33117527 6.680858361e-14 54.74562702 -1.607424568e-14 -5.770811181 -3.214849136e-14 -7.729264054 -1.574191182e-14 -18.54131614)
(28.26173211 1.113334813e-13 60.56884129 -1.612296491e-14 -5.274529809 0 -10.37722448 -2.690334258e-14 -22.97209443)
(32.73228356 8.030123055e-14 67.24799793 8.090167265e-15 -4.739267951 1.618033453e-14 -13.40561195 -1.802315449e-14 -27.98101547)
(37.77201163 4.083720496e-14 74.8116661 1.624603647e-14 -4.160351376 1.624603647e-14 -16.84352364 -4.766884865e-15 -33.60340379)
(43.39881921 3.826544089e-14 83.27518754 1.63197882e-14 -3.53336903 0 -20.71437692 -1.029091321e-14 -39.86715232)
(49.6329079 8.50979533e-14 92.63743296 8.200668566e-15 -2.854308167 -8.200668566e-15 -25.04294817 -4.111347612e-14 -46.79031702)
(56.5448217 1.840119321e-13 102.8599225 0 -2.119308388 -8.245229005e-15 -29.88271333 -8.733849169e-14 -54.36849121)
(64.25787874 2.315734319e-13 113.8784956 4.146737681e-15 -1.323575785 0 -35.31989927 -1.280035143e-13 -62.57978167)
(71.84830773 1.764272932e-13 126.2797602 1.043164853e-15 -0.4612615703 2.086329707e-15 -40.83988475 -1.132117164e-13 -71.7749194)
(-12.44177167 1.560009675e-13 0.7418970358 -1.702433294e-13 -20.44070051 0 0.6160956128 -5.911265175e-14 33.83484684)
(-16.47594533 -9.578950383e-14 1.71851174 -2.327128159e-13 -17.82894908 -1.241135018e-12 1.49255234 2.147282366e-13 33.7488658)
(-16.15229849 -2.219792028e-13 2.790036754 0 -16.99568749 0 2.3549556 1.355609668e-13 33.57551778)
(-16.35668798 -1.938821229e-13 3.857745807 7.025311175e-14 -16.81990916 0 3.233766713 1.488572421e-13 33.3194401)
(-16.15755036 -1.585022528e-13 4.897257836 8.427118735e-14 -16.70220431 -4.494463325e-13 4.071148317 2.602775002e-13 32.98691902)
(-15.85730079 -9.655548852e-14 5.914066102 9.452468475e-14 -16.5789766 0 4.864051502 8.475578831e-14 32.58287895)
(-15.51342198 -8.191667745e-14 6.912232272 8.223791932e-14 -16.44742833 0 5.611306074 2.885937895e-14 32.11134412)
(-15.11943538 -2.297215601e-14 7.891702776 7.328189333e-14 -16.30500977 0 6.308872417 1.487316524e-14 31.57636464)
(-14.67718382 1.048519038e-14 8.853267478 6.648195017e-14 -16.15033191 0 6.953666536 2.539883474e-14 30.98167615)
(-14.19107209 1.176578171e-14 9.798466915 6.115817497e-14 -15.98320976 0 7.543539169 3.599043888e-14 30.33067234)
(-13.66428796 2.144476928e-14 10.72900061 8.533462595e-14 -15.80394159 0 8.076828662 6.029468554e-14 29.62646728)
(-13.09926821 5.840874883e-15 11.64663132 1.068045693e-13 -15.6130035 0 8.552261667 9.492519567e-14 28.87191562)
(-12.49813289 -4.883216355e-14 12.55309174 1.262730694e-13 -15.41093585 2.02036911e-13 8.968909842 6.752512248e-14 28.06962632)
(-11.8628569 -6.596822984e-14 13.4500076 4.80793362e-14 -15.19830332 0 9.326238728 5.313324271e-14 27.22207389)
(-11.19521334 -3.801844425e-14 14.33893075 4.601759682e-14 -14.9756742 0 9.623993212 3.613495902e-14 26.33152774)
(-10.49680492 -3.690675999e-14 15.22128067 8.850707783e-14 -14.74360023 0 9.862174309 3.222959672e-14 25.40012288)
(-9.769135671 -3.901962798e-14 16.09837285 8.546759156e-14 -14.50261479 0 10.04102692 4.041142036e-14 24.42986627)
(-9.013573914 -4.958741312e-14 16.97144922 8.283443888e-14 -14.25322953 0 10.16099113 6.80320232e-14 23.42263891)
(-8.231351125 -1.616368886e-14 17.84170849 4.027157517e-14 -13.99593115 -8.054315033e-14 10.22266352 5.424177971e-14 22.38018761)
(-7.423590261 3.018211103e-14 18.71045836 3.927126009e-14 -13.73118055 0 10.22677948 3.904687202e-14 21.30410581)
(-6.591214085 6.186804362e-14 19.57921247 0 -13.45941367 -1.535827313e-13 10.17414718 6.302974233e-14 20.19576932)
(-5.734865573 8.613307018e-14 20.44975056 3.762809892e-14 -13.18103422 0 10.06558969 3.991564082e-14 19.05629926)
(-4.854897042 5.766963035e-14 21.32428268 3.695475687e-14 -12.89641063 0 9.901905334 4.574200534e-14 17.8864767)
(-3.951268353 2.286971105e-14 22.20566378 3.636426104e-14 -12.6058717 0 9.683776642 3.794783998e-14 16.68664407)
(-3.023424386 1.032704318e-14 23.09759008 7.169418451e-14 -12.30969946 0 9.411697445 1.621657071e-14 15.45659215)
(-2.070162216 -5.495940334e-15 24.00484417 7.079047676e-14 -12.00812086 7.079047676e-14 9.085870647 -5.992047809e-17 14.19539972)
(-1.089437069 -2.789214788e-14 24.93360008 7.000382213e-14 -11.70129752 7.000382213e-14 8.706076289 3.088108456e-15 12.90126097)
(-0.07815377828 -2.802693046e-14 25.89180078 3.466132462e-14 -11.389312 0 8.271536565 1.266601211e-14 11.57124339)
(0.9681086733 -2.111113138e-14 26.88964515 3.436851914e-14 -11.07215307 0 7.780732976 2.304411861e-14 10.20097761)
(2.055477862 4.598098094e-15 27.9402433 0 -10.74969593 -1.364768826e-13 7.231146828 1.921427721e-14 8.784278865)
(3.192261688 5.119574409e-14 29.06051708 3.390972959e-14 -10.42167805 0 6.61898133 5.141666236e-15 7.3126247)
(4.389617851 7.567724704e-14 30.27229615 3.373683107e-14 -10.08766858 0 5.938752385 1.760854852e-14 5.774485967)
(5.662361109 7.073894442e-14 31.60363897 3.359771757e-14 -9.747027986 0 5.182791272 2.684396858e-14 4.154488126)
(7.029918897 4.346496011e-14 33.09055322 5.023489746e-14 -9.398859965 6.697986329e-14 4.340620267 1.777596426e-14 2.432342318)
(8.517510073 3.034425902e-15 34.77897834 6.682262632e-14 -9.041952724 6.682262632e-14 3.398211639 2.448717672e-14 0.5816370376)
(10.15733962 -8.339989884e-15 36.72655354 3.335995954e-14 -8.674709078 0 2.337199662 2.874832492e-14 -1.431401386)
(11.98943741 2.181045601e-15 39.00371078 3.333418948e-14 -8.295071765 0 1.134174563 4.38822118e-14 -3.648904088)
(14.06185997 7.535621851e-15 41.69330618 3.333251307e-14 -7.900456158 0 -0.2396911274 3.666089791e-14 -6.121569586)
(16.42963219 2.602493637e-14 44.88769091 3.335361057e-14 -7.487702449 0 -1.81839327 9.817802015e-15 -8.90760489)
(19.15221379 3.479869089e-14 48.68314107 5.009446037e-14 -7.053074513 3.339630691e-14 -3.640064336 3.906696685e-15 -12.07016759)
(22.2897889 1.921310506e-14 53.17254619 1.672977856e-14 -6.592314872 0 -5.745163493 2.070143367e-14 -15.67359749)
(25.89913854 1.06949252e-14 58.43781716 0 -6.100762646 0 -8.174315459 2.753979502e-14 -19.77917229)
(30.03029895 5.808862978e-14 64.54433194 -1.682204663e-14 -5.57351493 -3.364409327e-14 -10.96632585 3.276561913e-15 -24.44156903)
(34.72443115 1.039457061e-13 71.53850774 8.440951865e-15 -5.005603022 1.688190373e-14 -14.15669754 -9.063967836e-15 -29.70673303)
(40.01203191 1.046657466e-13 79.44910278 8.475227306e-15 -4.392161459 0 -17.77620228 -1.394547485e-14 -35.61160935)
(45.91190562 1.048665273e-13 88.29115168 2.554110616e-14 -3.728597056 1.702740411e-14 -21.84978691 -3.476368268e-14 -42.18553292)
(52.44563039 1.152836962e-13 98.06220967 1.711248893e-14 -3.01072897 0 -26.40405506 -6.251828742e-14 -49.44746462)
(59.68845096 1.946369244e-13 108.7203981 -4.301368495e-15 -2.234523804 -8.602736991e-15 -31.49625372 -1.145111703e-13 -57.3927461)
(67.7699178 2.231631508e-13 120.1979125 0 -1.394943539 4.326537665e-15 -37.21746179 -1.23376953e-13 -65.99900499)
(75.71105324 1.240664961e-13 133.114228 1.088395833e-15 -0.4858615919 2.176791665e-15 -43.02276132 -6.098746579e-14 -75.63740299)
(-13.34711727 -1.819554454e-13 0.8042034976 -2.370513691e-13 -21.92018669 0 0.6666515733 9.38175155e-14 36.29052385)
(-17.67341856 -1.355554011e-13 1.861548732 8.100888865e-14 -19.12365107 0 1.616033392 2.575771406e-13 36.19622793)
(-17.31992959 -4.575855706e-14 3.021493785 4.995390451e-14 -18.2298728 -7.992624722e-13 2.549397794 1.407597981e-13 36.00587325)
(-17.53360585 -2.295934595e-13 4.177937525 7.336673508e-14 -18.03870726 5.869338807e-13 3.500195781 1.227505079e-13 35.72473717)
(-17.31531189 -1.537241844e-13 5.303987697 8.80060929e-14 -17.91042635 -4.693658288e-13 4.405937764 9.271770529e-14 35.35968932)
(-16.98592 2.308789964e-14 6.405428278 9.871402602e-14 -17.77582536 0 5.262991804 6.255724459e-14 34.91633117)
(-16.60858511 -4.088654417e-14 7.486745236 8.588271021e-14 -17.63185608 0 6.0700673 5.079987463e-14 34.39915578)
(-16.17678693 -4.061906296e-14 8.547805204 3.826487624e-14 -17.47588369 0 6.822792954 -1.73365071e-14 33.8126723)
(-15.6925577 -6.881822447e-15 9.589443249 6.942843532e-14 -17.30647 0 7.517773626 2.329061179e-14 33.16113552)
(-15.16078111 1.496922888e-14 10.61331918 6.38687099e-14 -17.12346021 -2.554748396e-13 8.152659625 5.628705375e-14 32.44841609)
(-14.5850232 -2.767490136e-14 11.62122256 1.18822218e-13 -16.92721867 2.37644436e-13 8.725651263 7.205489327e-14 31.67807856)
(-13.96807314 -4.128218848e-14 12.61496108 5.576907784e-14 -16.71829413 -2.230763113e-13 9.235380204 8.191756642e-14 30.8534118)
(-13.31245701 -1.143555832e-14 13.59628328 5.274780053e-14 -16.49730964 -2.109912021e-13 9.680951986 6.69576436e-14 29.97749624)
(-12.6204364 -1.814236324e-14 14.56689909 1.004204322e-13 -16.26491891 0 10.06182557 2.369181804e-14 29.0531623)
(-11.89405936 -1.234279046e-14 15.5283893 4.805710052e-14 -16.02176771 0 10.37779324 6.884253181e-15 28.08306999)
(-11.13524268 -2.7981653e-14 16.48220077 9.24297183e-14 -15.76848897 0 10.62896303 9.581526925e-15 27.06972172)
(-10.34573666 -5.7310064e-14 17.42967191 8.925552172e-14 -15.50569265 0 10.81570623 9.757191525e-15 26.0154759)
(-9.527150465 -4.93352635e-14 18.37205531 4.325283376e-14 -15.23396273 -1.73011335e-13 10.93862841 1.204358547e-15 24.92252878)
(-8.680948245 -1.474438751e-14 19.31063769 4.205641453e-14 -14.95385479 0 10.99850714 -4.388906243e-14 23.79291527)
(-7.808414938 -4.085156314e-15 20.24676503 4.101176535e-14 -14.66589499 0 10.99627795 -2.130374097e-14 22.6284755)
(-6.910606429 3.943170332e-14 21.18199563 4.009738252e-14 -14.37057656 -1.603895301e-13 10.93294409 -1.320878058e-15 21.43080001)
(-5.98831083 7.402495864e-14 22.11825788 3.929577898e-14 -14.06835664 0 10.80954275 1.435624522e-14 20.20118357)
(-5.041952668 6.192151636e-14 23.05798069 3.859259449e-14 -13.75965252 0 10.62706786 3.000544092e-14 18.94052234)
(-4.071495474 5.599965964e-14 24.0042547 3.797592812e-14 -13.44483446 0 10.38639033 3.060988154e-14 17.64922677)
(-3.076340282 5.107213447e-14 24.96106425 3.743583801e-14 -13.12421906 0 10.0881704 2.542258177e-14 16.32708496)
(-2.055178562 2.017856691e-14 25.93355495 7.392791599e-14 -12.79806029 7.392791599e-14 9.732740697 3.097740303e-14 14.97310941)
(-1.005810991 -1.806242035e-14 26.92836222 3.65531985e-14 -12.46653901 0 9.319978148 3.683126642e-14 13.58534895)
(0.07508266255 -3.064770276e-14 27.95404388 3.619751744e-14 -12.12974968 0 8.849159475 2.212156357e-14 12.16063485)
(1.192271586 -3.2632036e-14 29.02157574 3.589173454e-14 -11.78768435 0 8.318746729 8.046470281e-15 10.69426408)
(2.352350455 -2.348748645e-14 30.14498519 3.563138685e-14 -11.44021084 0 7.726144752 1.42480028e-14 9.179598767)
(3.564214778 -8.161500353e-15 31.34224862 3.54126117e-14 -11.08704833 0 7.067388591 2.875775283e-14 7.607520319)
(4.839724121 3.736524046e-14 32.63648278 1.761602497e-14 -10.72773552 -7.046409988e-14 6.336722683 3.875628086e-14 5.965746104)
(6.194577309 7.521041234e-14 34.05741887 5.263015642e-14 -10.36159069 0 5.526085178 5.061299076e-14 4.237948788)
(7.649346615 7.025580655e-14 35.64306354 3.497420802e-14 -9.9876598 0 4.624457271 5.681303515e-14 2.402673195)
(9.230590462 3.376765246e-14 37.4415912 5.23381576e-14 -9.604655751 3.489210506e-14 3.617108133 6.444495762e-14 0.432090548)
(10.97207824 -2.034512538e-14 39.51327953 6.967695114e-14 -9.210888737 3.483847557e-14 2.484776761 7.775332808e-14 -1.709256798)
(12.91569513 -4.093078341e-14 41.93156526 3.48115633e-14 -8.804189076 0 1.202966001 8.66024773e-14 -4.065444476)
(15.1115474 -2.991468262e-15 44.78247126 3.48098125e-14 -8.381838353 -3.48098125e-14 -0.2584546923 7.147929186e-14 -6.689367957)
(17.61691047 4.719646983e-14 48.16166506 1.741592256e-14 -7.940523627 0 -1.9349776 6.512286558e-14 -9.641639865)
(20.49363344 3.986608013e-14 52.16872814 5.231465107e-14 -7.476334873 3.487643405e-14 -3.866426238 8.177391955e-14 -12.98798119)
(23.80432557 1.706176129e-14 56.89957871 3.494248713e-14 -6.984824051 0 -6.095098873 8.665956263e-14 -16.79535503)
(27.60816573 6.241256931e-14 62.43876496 1.751451657e-14 -6.461124957 -3.502903315e-14 -8.663579361 5.667363162e-14 -21.12762298)
(31.95743621 8.16790512e-14 68.85373699 3.513520203e-14 -5.900119748 0 -11.61268449 2.967043518e-14 -26.04194591)
(36.89531015 5.977709541e-14 76.19223876 -1.763011109e-14 -5.296619893 -3.526022217e-14 -14.97991028 3.202776445e-14 -31.58645553)
(42.45391822 1.09321827e-13 84.48371109 8.850850003e-15 -4.645541164 -1.770170001e-14 -18.79792266 -1.037384943e-15 -37.8000835)
(48.65320612 1.584843462e-13 93.74324198 1.778205999e-14 -3.942079773 0 -23.09337863 -3.527931993e-14 -44.7138918)
(55.5164036 1.701925493e-13 103.9673664 8.93545788e-15 -3.181859384 -1.787091576e-14 -27.89491001 -4.893956253e-14 -52.34800487)
(63.12403277 1.859444606e-13 115.1109883 0 -2.360644603 0 -33.26391185 -7.839847011e-14 -60.69770521)
(71.6126582 1.944629727e-13 127.1026832 9.036580324e-15 -1.473117878 -4.518290162e-15 -39.29682055 -8.911991536e-14 -69.74023691)
(79.9432909 2.270370155e-13 140.5979432 1.136633619e-15 -0.5128338512 -2.273267239e-15 -45.41571783 -1.193423529e-13 -79.86907033)
(-14.34910617 -1.485806279e-13 0.8744218623 2.477957051e-13 -23.55738298 0 0.7213833556 5.054159263e-14 39.00798562)
(-18.99869643 -9.245402609e-14 2.022847886 2.54041832e-13 -20.55648507 0 1.749564267 3.750476975e-14 38.90440883)
(-18.61187767 -5.446180642e-14 3.282536483 1.044361232e-13 -19.59574467 0 2.759710236 4.475053263e-14 38.69495461)
(-18.8354584 -1.256731496e-13 4.538974643 1.150381155e-13 -19.38741361 0 3.788393109 8.825431514e-14 38.38561106)
(-18.59561518 -1.069082085e-13 5.76244513 9.199496264e-14 -19.24729268 0 4.768193468 4.375920962e-15 37.98407804)
(-18.23345138 -5.255142873e-14 6.958963863 1.031882321e-13 -19.09994623 0 5.694833959 3.83956474e-14 37.49648361)
(-17.81849331 4.256438134e-14 8.133525418 0 -18.94203064 -3.591013511e-13 6.566840904 6.426581501e-14 36.92797077)
(-17.34421426 3.007754518e-15 9.28597325 7.999845782e-14 -18.77083848 3.199938313e-13 7.379501878 6.513483356e-14 36.28359727)
(-16.81276631 -1.093590313e-13 10.41710152 3.62876371e-14 -18.58487365 0 8.129089836 9.451398945e-14 35.56813396)
(-16.22956912 -5.42453882e-14 11.52862404 6.676355471e-14 -18.38400807 -2.670542189e-13 8.813015668 8.941683928e-14 34.78599359)
(-15.59870028 -7.277802323e-16 12.6224038 6.210391316e-14 -18.16868041 -2.484156526e-13 9.42932857 8.42674062e-14 33.94128761)
(-14.92340659 1.224005226e-14 13.70029929 1.165936141e-13 -17.93953068 0 9.976593467 3.71776586e-14 33.03781729)
(-14.20654674 3.828470504e-14 14.76415958 5.513859066e-14 -17.69728168 -2.205543626e-13 10.45383572 2.694904192e-14 32.07912192)
(-13.45074266 2.778067088e-14 15.81572478 1.574579722e-13 -17.44267562 2.09943963e-13 10.86050216 -2.532919437e-14 31.06849587)
(-12.65842501 -1.246070543e-14 16.85659471 1.004705698e-13 -17.17645591 2.009411396e-13 11.19646118 -8.634856375e-15 30.00907625)
(-11.8318232 -2.344711279e-14 17.88823088 9.661908851e-14 -16.89934589 0 11.46190517 3.647702913e-15 28.90377776)
(-10.97303112 -1.494274183e-14 18.91202507 4.665051107e-14 -16.61204442 0 11.65734548 1.025985131e-15 27.75537265)
(-10.08392691 2.613891898e-14 19.92929767 9.042653051e-14 -16.31522211 0 11.78354207 -2.513276411e-14 26.56643518)
(-9.166217848 -2.146612231e-16 20.94134007 1.318878555e-13 -16.00951295 2.63775711e-13 11.8414723 -2.415506123e-14 25.33934012)
(-8.221437301 -7.611209792e-14 21.94963463 8.574124122e-14 -15.69551845 8.574124122e-14 11.83227454 1.320038424e-14 24.07622698)
(-7.250819545 -4.731787239e-14 22.95588724 4.191479354e-14 -15.37380186 0 11.75717818 6.825481734e-15 22.77894464)
(-6.255264884 1.560439209e-14 23.96215549 4.107685733e-14 -15.04488314 0 11.61744578 1.21540572e-14 21.44899056)
(-5.235288785 3.754466417e-14 24.97106384 8.06836015e-14 -14.70923458 0 11.41428648 3.75186758e-14 20.08741011)
(-4.190911665 3.694474283e-14 25.98600493 3.969718432e-14 -14.36727562 0 11.14878639 5.160909255e-14 18.69469735)
(-3.12150422 3.271242012e-14 27.01136187 3.913261473e-14 -14.01936472 0 10.8217854 3.787480303e-14 17.27065033)
(-2.025641991 2.082902278e-14 28.05274597 3.863934661e-14 -13.66578889 0 10.43377064 3.330508323e-14 15.81421997)
(-0.9009359552 2.929182258e-14 29.11733362 0 -13.30675266 -7.641993968e-14 9.984739337 2.217620375e-14 14.32329826)
(0.2562097003 4.511758036e-14 30.21431847 3.783816731e-14 -12.94236465 0 9.474026897 3.496469542e-15 12.79446253)
(1.450916884 -1.058872421e-14 31.35546964 7.503704909e-14 -12.57262076 7.503704909e-14 8.900092592 9.48233988e-15 11.22264694)
(2.690247632 -6.187117907e-14 32.55584862 3.724637705e-14 -12.19738288 0 8.260268723 2.223306377e-14 9.600713392)
(3.983747131 -5.802088411e-14 33.83470739 3.701768557e-14 -11.81635222 0 7.550410625 1.868477521e-14 7.918891163)
(5.344102569 -5.294160151e-14 35.21660767 3.682894018e-14 -11.42903523 0 6.764480219 2.849914117e-14 6.164071949)
(6.78798192 -3.187753695e-15 36.73295893 0 -11.03470271 -7.335415245e-14 5.893993373 3.094038031e-14 4.318892894)
(8.337144027 5.3875148e-14 38.42391162 1.827970562e-14 -10.63233826 -7.311882247e-14 4.927353066 2.501391697e-14 2.36061747)
(10.01964701 5.015118262e-14 40.34018627 3.647358736e-14 -10.22057379 0 3.849067842 3.585848114e-14 0.2598707719)
(11.87099014 2.144508669e-14 42.54486978 1.820876349e-14 -9.797617184 -3.641752698e-14 2.638908527 5.437052057e-14 -2.020647294)
(13.93507459 -1.563606809e-15 45.11464088 3.638939483e-14 -9.361176173 0 1.271178792 5.808265362e-14 -4.527157735)
(16.2643015 -4.617738334e-14 48.13907909 5.458134729e-14 -8.908385494 7.277512973e-14 -0.2856723638 7.622941907e-14 -7.314996762)
(18.91844345 -5.543371001e-14 51.71749982 1.820529796e-14 -8.435763023 -3.641059592e-14 -2.068800574 8.662397259e-14 -10.44744985)
(21.96202022 1.810399334e-14 55.95318904 0 -7.939206869 -7.291441172e-14 -4.119887412 6.43249363e-14 -13.99310308)
(25.46039341 5.462886367e-14 60.94558278 1.826312648e-14 -7.414057241 -3.652625295e-14 -6.483285806 4.755482837e-14 -18.02188164)
(29.47548842 7.439559435e-14 66.78239667 1.830836064e-14 -6.855218895 -3.661672127e-14 -9.203757667 3.51605246e-14 -22.60062064)
(34.06216762 1.311473097e-13 73.53360067 1.836385138e-14 -6.257332477 -7.345540554e-14 -12.3243521 2.447353942e-15 -27.78929508)
(39.26592254 1.512669726e-13 81.24869082 2.764379179e-14 -5.614961901 0 -15.88477676 -2.561490051e-14 -33.63857343)
(45.12082704 1.465865984e-13 89.95826214 3.700805641e-14 -4.922775239 0 -19.91981312 -4.249792197e-14 -40.18973673)
(51.6482254 1.463262837e-13 99.67784908 9.294015293e-15 -4.175728473 0 -24.45800916 -4.77762511e-14 -47.47586882)
(58.87330031 1.969796541e-13 110.403304 9.340456858e-15 -3.369220834 -1.868091372e-14 -29.53024304 -8.360176567e-14 -55.518543)
(66.88246164 2.777193727e-13 122.0864832 1.408681581e-14 -2.498784409 0 -35.20245312 -1.480813589e-13 -64.31317808)
(75.82012282 2.808111707e-13 134.6523339 4.72308135e-15 -1.558784681 4.72308135e-15 -41.57697133 -1.621928002e-13 -73.8367275)
(84.5821165 2.299792453e-13 148.7957266 2.376302909e-15 -0.5424141193 2.376302909e-15 -48.03996612 -1.392527899e-13 -84.5069852)
(-15.45835321 -1.669920325e-13 0.9536506422 0 -25.36954852 0 0.7803610103 1.376410966e-13 42.01591516)
(-20.46580032 -1.399204448e-13 2.205097441 1.772152572e-13 -22.14260177 1.417722057e-12 1.893194577 4.277463687e-14 41.90196601)
(-20.04181362 -1.151487857e-13 3.57754298 1.092792925e-13 -21.10774368 0 2.985925549 1.308672747e-13 41.67112428)
(-20.27612167 -1.626131927e-13 4.946764746 1.203729465e-13 -20.88029386 0 4.098524946 1.116349693e-13 41.33033068)
(-20.01227014 -1.093592179e-13 6.28014418 6.417411985e-14 -20.72698238 0 5.158186522 -2.189268325e-14 40.8880768)
(-19.61350989 -7.955666918e-14 7.583886287 1.079735311e-13 -20.56543663 0 6.159968309 4.23931022e-15 40.35112364)
(-19.15643954 -8.80215887e-14 8.863337889 1.87877242e-13 -20.39195952 0 7.102257273 1.518238257e-14 39.72520686)
(-18.63459977 -5.987925935e-14 10.11840504 8.370834345e-14 -20.20376495 -3.348333738e-13 7.979887619 6.789203133e-14 39.01605001)
(-18.05029187 -2.899696996e-14 11.34985036 7.594091366e-14 -19.99929895 -3.037636546e-13 8.78877682 6.71336602e-14 38.22904657)
(-17.40952593 1.016512908e-14 12.55937292 1.047895185e-13 -19.7784657 0 9.526108882 3.627634989e-14 37.36920472)
(-16.71693569 3.991689808e-14 13.74889782 9.747592281e-14 -19.54178823 0 10.18974107 5.840376161e-14 36.44119135)
(-15.97618718 3.329996318e-14 14.92037741 6.100029034e-14 -19.29000715 0 10.77806714 4.645305513e-14 35.44937113)
(-15.19059769 8.705051053e-14 16.07567922 5.769561345e-14 -19.02394495 -2.307824538e-13 11.29003164 2.842630449e-15 34.39784288)
(-14.36325247 5.427640673e-14 17.21655148 1.647600014e-13 -18.74445535 4.393600039e-13 11.72510057 3.805416546e-15 33.2904793)
(-13.49697649 -4.327365898e-14 18.34464647 5.256491909e-14 -18.45238891 0 12.08314931 2.880969718e-14 32.13090287)
(-12.59439383 -4.437923463e-14 19.46147311 5.054987348e-14 -18.14857466 0 12.36446497 2.520522746e-14 30.9225579)
(-11.65794639 -3.189111485e-14 20.56841363 4.881390375e-14 -17.83381353 0 12.56968028 2.585751456e-14 29.66866114)
(-10.68987641 -1.473817567e-14 21.66688073 4.731000593e-14 -17.50887225 0 12.69970715 2.455115857e-14 28.37224101)
(-9.692203134 -3.351271059e-14 22.75829627 4.600136145e-14 -17.17448012 0 12.75572006 5.026326105e-14 27.03608187)
(-8.666692877 -3.430115239e-14 23.84418938 0 -16.83132473 -1.794348917e-13 12.73907534 5.768265215e-14 25.66267917)
(-7.614824971 -7.45253036e-15 24.92642138 4.385856948e-14 -16.48004921 0 12.65124033 3.17832132e-14 24.25419376)
(-6.537686766 -3.265607486e-14 26.00731738 8.596354925e-14 -16.12124836 1.719270985e-13 12.49371011 4.701665418e-14 22.81236539)
(-5.435897081 -2.724858267e-14 27.08979107 0 -15.75546087 -1.688505214e-13 12.26794037 6.735272168e-14 21.33843005)
(-4.30950649 6.141475909e-14 28.17754995 0 -15.38316407 -8.307623951e-14 11.97524472 3.754656974e-14 19.83299017)
(-3.157865705 1.022484592e-13 29.27537429 4.094736887e-14 -15.00476436 0 11.61666566 1.255288659e-14 18.29587981)
(-1.979476047 5.515861563e-14 30.38940826 1.212936773e-13 -14.62058851 8.086245154e-14 11.19287497 -1.545926196e-15 16.72599101)
(-0.7717627644 2.28802879e-14 31.52749907 7.996387307e-14 -14.23087123 0 10.70400336 1.279473373e-14 15.12105446)
(0.4691741841 2.725877825e-14 32.69963426 3.95928921e-14 -13.83574013 0 10.14945937 -6.682468739e-17 13.47737662)
(1.748875318 1.713722307e-14 33.91849956 3.925842601e-14 -13.43519804 0 9.527717927 4.906539656e-15 11.78949468)